<event>
 7    1  0.2001181E-008  0.4614232E+02  0.7816164E-02  0.1320468E+00
        -11   -1    0    0    0    0  0.00000000000E+00  0.00000000000E+00  0.45593999997E+02  0.45594000000E+02  0.51100000000E-03 0.  1.
         11   -1    0    0    0    0 -0.00000000000E+00 -0.00000000000E+00 -0.45593999997E+02  0.45594000000E+02  0.51100000000E-03 0. -1.
    9900012    2    1    2    0    0  0.17675486125E+02  0.19711684676E+02 -0.36443658695E+02  0.46142316726E+02  0.99999905593E+01 0.  0.
        -12    1    1    2    0    0 -0.17675486125E+02 -0.19711684676E+02  0.36443658695E+02  0.45045683274E+02  0.00000000000E+00 0.  1.
         11    1    3    3    0    0  0.27270851577E+01  0.33415545326E+01 -0.18495990090E+01  0.46929731415E+01  0.51100000000E-03 0. -1.
        -11    1    3    3    0    0  0.38625465409E+01  0.71151685677E+01 -0.15740426238E+02  0.17700449371E+02  0.51100000000E-03 0.  1.
         12    1    3    3    0    0  0.11085854427E+02  0.92549615758E+01 -0.18853633448E+02  0.23748894213E+02  0.00000000000E+00 0. -1.
</event>
<event>
 7    1  0.2001181E-008  0.4614232E+02  0.7816164E-02  0.1320468E+00
        -11   -1    0    0    0    0  0.00000000000E+00  0.00000000000E+00  0.45593999997E+02  0.45594000000E+02  0.51100000000E-03 0.  1.
         11   -1    0    0    0    0 -0.00000000000E+00 -0.00000000000E+00 -0.45593999997E+02  0.45594000000E+02  0.51100000000E-03 0. -1.
    9900012    2    1    2    0    0  0.62176277836E+01 -0.39528753979E+02 -0.20686522936E+02  0.46142317437E+02  0.99999970428E+01 0.  0.
        -12    1    1    2    0    0 -0.62176277836E+01  0.39528753979E+02  0.20686522936E+02  0.45045682563E+02  0.00000000000E+00 0.  1.
         11    1    3    3    0    0  0.96555791930E+00 -0.44729246103E+01 -0.30845213319E+01  0.55184806581E+01  0.51100000000E-03 0. -1.
        -11    1    3    3    0    0 -0.99511383531E+00 -0.17669450758E+02 -0.11756158180E+02  0.21246340792E+02  0.51100000000E-03 0.  1.
        -12    1    3    3    0    0  0.62471836997E+01 -0.17386378611E+02 -0.58458434240E+01  0.19377495987E+02  0.00000000000E+00 0.  1.
</event>
<event>
 7    1  0.2001181E-008  0.4614232E+02  0.7816164E-02  0.1320468E+00
        -11   -1    0    0    0    0  0.00000000000E+00  0.00000000000E+00  0.45593999997E+02  0.45594000000E+02  0.51100000000E-03 0. -1.
         11   -1    0    0    0    0 -0.00000000000E+00 -0.00000000000E+00 -0.45593999997E+02  0.45594000000E+02  0.51100000000E-03 0.  1.
    9900012    2    1    2    0    0  0.42329412429E+02 -0.11406369981E+02  0.10355146276E+02  0.46142317775E+02  0.10000000124E+02 0.  0.
        -12    1    1    2    0    0 -0.42329412429E+02  0.11406369981E+02 -0.10355146276E+02  0.45045682225E+02  0.00000000000E+00 0.  1.
         11    1    3    3    0    0  0.38613556456E+02 -0.88236271115E+01  0.67775851639E+01  0.40184559205E+02  0.51100000000E-03 0. -1.
        -11    1    3    3    0    0  0.61634022071E+00 -0.79494671768E+00  0.17677336005E+00  0.10213053576E+01  0.51100000000E-03 0.  1.
         12    1    3    3    0    0  0.30995157524E+01 -0.17877961520E+01  0.34007877520E+01  0.49364532120E+01  0.00000000000E+00 0. -1.
</event>
<event>
 7    1  0.2001181E-008  0.4614231E+02  0.7816164E-02  0.1320468E+00
        -11   -1    0    0    0    0  0.00000000000E+00  0.00000000000E+00  0.45593999997E+02  0.45594000000E+02  0.51100000000E-03 0.  1.
         11   -1    0    0    0    0 -0.00000000000E+00 -0.00000000000E+00 -0.45593999997E+02  0.45594000000E+02  0.51100000000E-03 0. -1.
    9900012    2    1    2    0    0 -0.44028739157E+02 -0.83447906438E+01 -0.45769432587E+01  0.46142314167E+02  0.99999672227E+01 0.  0.
        -12    1    1    2    0    0  0.44028739157E+02  0.83447906438E+01  0.45769432587E+01  0.45045685833E+02  0.00000000000E+00 0.  1.
         11    1    3    3    0    0 -0.86839850015E+01 -0.39939563505E+01  0.10570117931E+01  0.96166811857E+01  0.51100000000E-03 0. -1.
        -11    1    3    3    0    0 -0.50781929594E+01 -0.22040966163E+01 -0.23208172967E+01  0.60026892984E+01  0.51100000000E-03 0.  1.
        -12    1    3    3    0    0 -0.30266561196E+02 -0.21467376770E+01 -0.33131377552E+01  0.30522943683E+02  0.00000000000E+00 0.  1.
</event>
<event>
 7    1  0.2001181E-008  0.4614232E+02  0.7816164E-02  0.1320468E+00
        -11   -1    0    0    0    0  0.00000000000E+00  0.00000000000E+00  0.45593999997E+02  0.45594000000E+02  0.51100000000E-03 0.  1.
         11   -1    0    0    0    0 -0.00000000000E+00 -0.00000000000E+00 -0.45593999997E+02  0.45594000000E+02  0.51100000000E-03 0. -1.
    9900012    2    1    2    0    0  0.18881846171E+02  0.90800312404E+01 -0.39876589341E+02  0.46142318080E+02  0.10000002911E+02 0.  0.
        -12    1    1    2    0    0 -0.18881846171E+02 -0.90800312404E+01  0.39876589341E+02  0.45045681920E+02  0.00000000000E+00 0.  1.
         11    1    3    3    0    0  0.24707433632E+01  0.19952907483E+00 -0.58538993709E+01  0.63570844516E+01  0.51100000000E-03 0. -1.
        -11    1    3    3    0    0  0.12404219319E+02  0.42435650994E+01 -0.29127277557E+02  0.31941678100E+02  0.51100000000E-03 0.  1.
         12    1    3    3    0    0  0.40068834887E+01  0.46369370661E+01 -0.48954124127E+01  0.78435555291E+01  0.00000000000E+00 0. -1.
</event>
<event>
 7    1  0.2001181E-008  0.4614232E+02  0.7816164E-02  0.1320468E+00
        -11   -1    0    0    0    0  0.00000000000E+00  0.00000000000E+00  0.45593999997E+02  0.45594000000E+02  0.51100000000E-03 0.  1.
         11   -1    0    0    0    0 -0.00000000000E+00 -0.00000000000E+00 -0.45593999997E+02  0.45594000000E+02  0.51100000000E-03 0. -1.
    9900012    2    1    2    0    0 -0.17841738027E+02  0.83699310930E+01 -0.40505926562E+02  0.46142318198E+02  0.10000003984E+02 0.  0.
        -12    1    1    2    0    0  0.17841738027E+02 -0.83699310930E+01  0.40505926562E+02  0.45045681802E+02  0.00000000000E+00 0.  1.
         11    1    3    3    0    0 -0.15910629155E+02  0.96047683670E+01 -0.35886970188E+02  0.40413788798E+02  0.51100000000E-03 0. -1.
        -11    1    3    3    0    0  0.56008703774E+00 -0.12862017219E+00 -0.38037100862E+00  0.68914657647E+00  0.51100000000E-03 0.  1.
         12    1    3    3    0    0 -0.24911959099E+01 -0.11062171018E+01 -0.42385853657E+01  0.50393828234E+01  0.00000000000E+00 0. -1.
</event>
<event>
 7    1  0.2001181E-008  0.4614232E+02  0.7816164E-02  0.1320468E+00
        -11   -1    0    0    0    0  0.00000000000E+00  0.00000000000E+00  0.45593999997E+02  0.45594000000E+02  0.51100000000E-03 0. -1.
         11   -1    0    0    0    0 -0.00000000000E+00 -0.00000000000E+00 -0.45593999997E+02  0.45594000000E+02  0.51100000000E-03 0.  1.
    9900012    2    1    2    0    0 -0.89994080976E+01 -0.26441573191E+02  0.35340730746E+02  0.46142318869E+02  0.10000010104E+02 0.  0.
        -12    1    1    2    0    0  0.89994080976E+01  0.26441573191E+02 -0.35340730746E+02  0.45045681131E+02  0.00000000000E+00 0.  1.
         11    1    3    3    0    0 -0.45411555441E+00  0.39508069892E+00  0.18718574888E+01  0.19662554297E+01  0.51100000000E-03 0. -1.
        -11    1    3    3    0    0 -0.14823194009E+01 -0.17193328704E+01  0.89318703195E+00  0.24394998792E+01  0.51100000000E-03 0.  1.
         12    1    3    3    0    0 -0.70629731423E+01 -0.25117321019E+02  0.32575686225E+02  0.41736563560E+02  0.00000000000E+00 0. -1.
</event>
<event>
 7    1  0.2001181E-008  0.4614232E+02  0.7816164E-02  0.1320468E+00
        -11   -1    0    0    0    0  0.00000000000E+00  0.00000000000E+00  0.45593999997E+02  0.45594000000E+02  0.51100000000E-03 0. -1.
         11   -1    0    0    0    0 -0.00000000000E+00 -0.00000000000E+00 -0.45593999997E+02  0.45594000000E+02  0.51100000000E-03 0.  1.
    9900012    2    1    2    0    0 -0.27392804292E+02 -0.67097752025E+01  0.35124445352E+02  0.46142317948E+02  0.10000001708E+02 0.  0.
        -12    1    1    2    0    0  0.27392804292E+02  0.67097752025E+01 -0.35124445352E+02  0.45045682052E+02  0.00000000000E+00 0.  1.
         11    1    3    3    0    0 -0.82145764216E+01 -0.10492884417E+01  0.59333652687E+01  0.10187497028E+02  0.51100000000E-03 0. -1.
        -11    1    3    3    0    0 -0.14561780064E+01 -0.26099232625E+01  0.36330268327E+01  0.47043637243E+01  0.51100000000E-03 0.  1.
         12    1    3    3    0    0 -0.17722049864E+02 -0.30505634983E+01  0.25558053250E+02  0.31250457196E+02  0.00000000000E+00 0. -1.
</event>
<event>
 7    1  0.2001181E-008  0.4614232E+02  0.7816164E-02  0.1320468E+00
        -11   -1    0    0    0    0  0.00000000000E+00  0.00000000000E+00  0.45593999997E+02  0.45594000000E+02  0.51100000000E-03 0. -1.
         11   -1    0    0    0    0 -0.00000000000E+00 -0.00000000000E+00 -0.45593999997E+02  0.45594000000E+02  0.51100000000E-03 0.  1.
    9900012    2    1    2    0    0 -0.41236370550E+01  0.31087847228E+02  0.32336587962E+02  0.46142317090E+02  0.99999938816E+01 0.  0.
        -12    1    1    2    0    0  0.41236370550E+01 -0.31087847228E+02 -0.32336587962E+02  0.45045682910E+02  0.00000000000E+00 0.  1.
         11    1    3    3    0    0  0.52148435270E+00  0.51336449026E+01  0.31050295106E+01  0.60222474575E+01  0.51100000000E-03 0. -1.
        -11    1    3    3    0    0  0.12886349827E+01  0.22918958792E+01  0.54512778029E+01  0.60522555123E+01  0.51100000000E-03 0.  1.
         12    1    3    3    0    0 -0.59337563904E+01  0.23662306446E+02  0.23780280648E+02  0.34067814120E+02  0.00000000000E+00 0. -1.
</event>
<event>
 7    1  0.2001181E-008  0.4614232E+02  0.7816164E-02  0.1320468E+00
        -11   -1    0    0    0    0  0.00000000000E+00  0.00000000000E+00  0.45593999997E+02  0.45594000000E+02  0.51100000000E-03 0.  1.
         11   -1    0    0    0    0 -0.00000000000E+00 -0.00000000000E+00 -0.45593999997E+02  0.45594000000E+02  0.51100000000E-03 0. -1.
    9900012    2    1    2    0    0 -0.28451355450E+02  0.26013691632E+02 -0.23300682665E+02  0.46142316611E+02  0.99999895149E+01 0.  0.
        -12    1    1    2    0    0  0.28451355450E+02 -0.26013691632E+02  0.23300682665E+02  0.45045683389E+02  0.00000000000E+00 0.  1.
         11    1    3    3    0    0 -0.18121683865E+01  0.48406452847E+01 -0.46389794331E+01  0.69452092463E+01  0.51100000000E-03 0. -1.
        -11    1    3    3    0    0 -0.13892580391E+02  0.11905527891E+02 -0.69889392660E+01  0.19585470548E+02  0.51100000000E-03 0.  1.
        -12    1    3    3    0    0 -0.12746606672E+02  0.92675184570E+01 -0.11672763966E+02  0.19611636817E+02  0.00000000000E+00 0.  1.
</event>
<event>
 7    1  0.2001181E-008  0.4614232E+02  0.7816164E-02  0.1320468E+00
        -11   -1    0    0    0    0  0.00000000000E+00  0.00000000000E+00  0.45593999997E+02  0.45594000000E+02  0.51100000000E-03 0.  1.
         11   -1    0    0    0    0 -0.00000000000E+00 -0.00000000000E+00 -0.45593999997E+02  0.45594000000E+02  0.51100000000E-03 0. -1.
    9900012    2    1    2    0    0 -0.13358987581E+02  0.42866555856E+02 -0.36206737215E+01  0.46142318316E+02  0.10000005061E+02 0.  0.
        -12    1    1    2    0    0  0.13358987581E+02 -0.42866555856E+02  0.36206737215E+01  0.45045681684E+02  0.00000000000E+00 0.  1.
         11    1    3    3    0    0 -0.18940125573E+01  0.90033282261E+01 -0.29462170056E+01  0.96606106236E+01  0.51100000000E-03 0. -1.
        -11    1    3    3    0    0 -0.29315945183E+01  0.41193582799E+01 -0.21695571487E+01  0.55018485567E+01  0.51100000000E-03 0.  1.
         12    1    3    3    0    0 -0.85333805052E+01  0.29743869350E+02  0.14951004328E+01  0.30979859136E+02  0.00000000000E+00 0. -1.
</event>
<event>
 7    1  0.2001181E-008  0.4614232E+02  0.7816164E-02  0.1320468E+00
        -11   -1    0    0    0    0  0.00000000000E+00  0.00000000000E+00  0.45593999997E+02  0.45594000000E+02  0.51100000000E-03 0. -1.
         11   -1    0    0    0    0 -0.00000000000E+00 -0.00000000000E+00 -0.45593999997E+02  0.45594000000E+02  0.51100000000E-03 0.  1.
    9900012    2    1    2    0    0  0.41080277980E+02  0.12340684394E+02  0.13756154503E+02  0.46142317444E+02  0.99999971125E+01 0.  0.
        -12    1    1    2    0    0 -0.41080277980E+02 -0.12340684394E+02 -0.13756154503E+02  0.45045682556E+02  0.00000000000E+00 0.  1.
         11    1    3    3    0    0  0.30551928533E+02  0.63347441370E+01  0.99182410628E+01  0.32740201991E+02  0.51100000000E-03 0. -1.
        -11    1    3    3    0    0  0.61464742698E+01  0.11095129030E+01  0.22815075936E+01  0.66494693015E+01  0.51100000000E-03 0.  1.
         12    1    3    3    0    0  0.43818751770E+01  0.48964273537E+01  0.15564058463E+01  0.67526461521E+01  0.00000000000E+00 0. -1.
</event>
<event>
 7    1  0.2001181E-008  0.4614232E+02  0.7816164E-02  0.1320468E+00
        -11   -1    0    0    0    0  0.00000000000E+00  0.00000000000E+00  0.45593999997E+02  0.45594000000E+02  0.51100000000E-03 0.  1.
         11   -1    0    0    0    0 -0.00000000000E+00 -0.00000000000E+00 -0.45593999997E+02  0.45594000000E+02  0.51100000000E-03 0. -1.
    9900012    2    1    2    0    0 -0.28077414164E+02 -0.18651625680E+02 -0.29881251530E+02  0.46142317414E+02  0.99999968328E+01 0.  0.
        -12    1    1    2    0    0  0.28077414164E+02  0.18651625680E+02  0.29881251530E+02  0.45045682586E+02  0.00000000000E+00 0.  1.
         11    1    3    3    0    0 -0.19550209703E+02 -0.12149514578E+02 -0.24294547561E+02  0.33467094965E+02  0.51100000000E-03 0. -1.
        -11    1    3    3    0    0  0.15003099935E+00 -0.11074952387E+01 -0.23888537722E+00  0.11428567229E+01  0.51100000000E-03 0.  1.
        -12    1    3    3    0    0 -0.86772354603E+01 -0.53946158632E+01 -0.53478185911E+01  0.11532365726E+02  0.00000000000E+00 0.  1.
</event>
<event>
 7    1  0.2001181E-008  0.4614232E+02  0.7816164E-02  0.1320468E+00
        -11   -1    0    0    0    0  0.00000000000E+00  0.00000000000E+00  0.45593999997E+02  0.45594000000E+02  0.51100000000E-03 0.  1.
         11   -1    0    0    0    0 -0.00000000000E+00 -0.00000000000E+00 -0.45593999997E+02  0.45594000000E+02  0.51100000000E-03 0. -1.
    9900012    2    1    2    0    0  0.98013133529E+01  0.42878908775E+02  0.97183844842E+01  0.46142316987E+02  0.99999929370E+01 0.  0.
        -12    1    1    2    0    0 -0.98013133529E+01 -0.42878908775E+02 -0.97183844842E+01  0.45045683013E+02  0.00000000000E+00 0.  1.
         11    1    3    3    0    0  0.50263773764E+01  0.28542051088E+02  0.50093245401E+01  0.29410992544E+02  0.51100000000E-03 0. -1.
        -11    1    3    3    0    0  0.26954111025E+01  0.53014972821E+01 -0.71421305591E+00  0.59900930706E+01  0.51100000000E-03 0.  1.
        -12    1    3    3    0    0  0.20795248740E+01  0.90353604051E+01  0.54232730001E+01  0.10741231372E+02  0.00000000000E+00 0.  1.
</event>
<event>
 7    1  0.2001181E-008  0.4614232E+02  0.7816164E-02  0.1320468E+00
        -11   -1    0    0    0    0  0.00000000000E+00  0.00000000000E+00  0.45593999997E+02  0.45594000000E+02  0.51100000000E-03 0.  1.
         11   -1    0    0    0    0 -0.00000000000E+00 -0.00000000000E+00 -0.45593999997E+02  0.45594000000E+02  0.51100000000E-03 0. -1.
    9900012    2    1    2    0    0 -0.25002376646E+02 -0.13324991230E+02 -0.35020554409E+02  0.46142318072E+02  0.10000002834E+02 0.  0.
        -12    1    1    2    0    0  0.25002376646E+02  0.13324991230E+02  0.35020554409E+02  0.45045681928E+02  0.00000000000E+00 0.  1.
         11    1    3    3    0    0 -0.50057337948E+01 -0.26949327476E+01 -0.10566455243E+02  0.11998750352E+02  0.51100000000E-03 0.  1.
        -11    1    3    3    0    0 -0.98148940142E+00 -0.17495622405E+01 -0.11997622883E+00  0.20096477391E+01  0.51100000000E-03 0. -1.
         12    1    3    3    0    0 -0.19015153450E+02 -0.88804962419E+01 -0.24334122937E+02  0.32133919981E+02  0.00000000000E+00 0. -1.
</event>
<event>
 7    1  0.2001181E-008  0.4614231E+02  0.7816164E-02  0.1320468E+00
        -11   -1    0    0    0    0  0.00000000000E+00  0.00000000000E+00  0.45593999997E+02  0.45594000000E+02  0.51100000000E-03 0.  1.
         11   -1    0    0    0    0 -0.00000000000E+00 -0.00000000000E+00 -0.45593999997E+02  0.45594000000E+02  0.51100000000E-03 0. -1.
    9900012    2    1    2    0    0 -0.33943181856E+02 -0.21790825357E+02 -0.20053281041E+02  0.46142314915E+02  0.99999740475E+01 0.  0.
        -12    1    1    2    0    0  0.33943181856E+02  0.21790825357E+02  0.20053281041E+02  0.45045685085E+02  0.00000000000E+00 0.  1.
         11    1    3    3    0    0 -0.53000562436E+01 -0.68394028318E+01 -0.49714271130E+01  0.99791339845E+01  0.51100000000E-03 0. -1.
        -11    1    3    3    0    0 -0.22333399984E+02 -0.14234482676E+02 -0.12803558315E+02  0.29416532047E+02  0.51100000000E-03 0.  1.
        -12    1    3    3    0    0 -0.63097256284E+01 -0.71693984932E+00 -0.22782956132E+01  0.67466488833E+01  0.00000000000E+00 0.  1.
</event>
<event>
 7    1  0.2001181E-008  0.4614232E+02  0.7816164E-02  0.1320468E+00
        -11   -1    0    0    0    0  0.00000000000E+00  0.00000000000E+00  0.45593999997E+02  0.45594000000E+02  0.51100000000E-03 0.  1.
         11   -1    0    0    0    0 -0.00000000000E+00 -0.00000000000E+00 -0.45593999997E+02  0.45594000000E+02  0.51100000000E-03 0. -1.
    9900012    2    1    2    0    0  0.36135326171E+02 -0.85619014661E+00 -0.26881567825E+02  0.46142317102E+02  0.99999939891E+01 0.  0.
        -12    1    1    2    0    0 -0.36135326171E+02  0.85619014661E+00  0.26881567825E+02  0.45045682898E+02  0.00000000000E+00 0.  1.
         11    1    3    3    0    0  0.18055493552E+02  0.92697103523E+00 -0.10346745801E+02  0.20830633011E+02  0.51100000000E-03 0. -1.
        -11    1    3    3    0    0  0.11666225746E+01  0.15136028664E+01 -0.13013979662E+01  0.23120637527E+01  0.51100000000E-03 0.  1.
        -12    1    3    3    0    0  0.16913210044E+02 -0.32967640482E+01 -0.15233424058E+02  0.22999620338E+02  0.00000000000E+00 0.  1.
</event>
<event>
 7    1  0.2001181E-008  0.4614232E+02  0.7816164E-02  0.1320468E+00
        -11   -1    0    0    0    0  0.00000000000E+00  0.00000000000E+00  0.45593999997E+02  0.45594000000E+02  0.51100000000E-03 0.  1.
         11   -1    0    0    0    0 -0.00000000000E+00 -0.00000000000E+00 -0.45593999997E+02  0.45594000000E+02  0.51100000000E-03 0. -1.
    9900012    2    1    2    0    0  0.89800037669E+01 -0.40035293507E+02 -0.18591613738E+02  0.46142319905E+02  0.10000019548E+02 0.  0.
        -12    1    1    2    0    0 -0.89800037669E+01  0.40035293507E+02  0.18591613738E+02  0.45045680095E+02  0.00000000000E+00 0.  1.
         11    1    3    3    0    0  0.97700847128E+00 -0.19329502225E+01 -0.55161123266E+00  0.22349759123E+01  0.51100000000E-03 0. -1.
        -11    1    3    3    0    0  0.55668875037E+01 -0.27941093741E+02 -0.84308406179E+01  0.29711513420E+02  0.51100000000E-03 0.  1.
        -12    1    3    3    0    0  0.24361077918E+01 -0.10161249543E+02 -0.96091618874E+01  0.14195830572E+02  0.00000000000E+00 0.  1.
</event>
<event>
 7    1  0.2001181E-008  0.4614232E+02  0.7816164E-02  0.1320468E+00
        -11   -1    0    0    0    0  0.00000000000E+00  0.00000000000E+00  0.45593999997E+02  0.45594000000E+02  0.51100000000E-03 0. -1.
         11   -1    0    0    0    0 -0.00000000000E+00 -0.00000000000E+00 -0.45593999997E+02  0.45594000000E+02  0.51100000000E-03 0.  1.
    9900012    2    1    2    0    0 -0.39068405857E+02 -0.11499537471E+02  0.19249256499E+02  0.46142316810E+02  0.99999913259E+01 0.  0.
        -12    1    1    2    0    0  0.39068405857E+02  0.11499537471E+02 -0.19249256499E+02  0.45045683190E+02  0.00000000000E+00 0.  1.
         11    1    3    3    0    0 -0.31964107341E+01 -0.63035971551E+00 -0.58975368167E+00  0.33109220194E+01  0.51100000000E-03 0. -1.
        -11    1    3    3    0    0 -0.13086434508E+02 -0.58163864209E+01  0.49718637319E+01  0.15159305669E+02  0.51100000000E-03 0.  1.
        -12    1    3    3    0    0 -0.22785560615E+02 -0.50527913350E+01  0.14867146449E+02  0.27672089122E+02  0.00000000000E+00 0.  1.
</event>
<event>
 7    1  0.2001181E-008  0.4614232E+02  0.7816164E-02  0.1320468E+00
        -11   -1    0    0    0    0  0.00000000000E+00  0.00000000000E+00  0.45593999997E+02  0.45594000000E+02  0.51100000000E-03 0.  1.
         11   -1    0    0    0    0 -0.00000000000E+00 -0.00000000000E+00 -0.45593999997E+02  0.45594000000E+02  0.51100000000E-03 0. -1.
    9900012    2    1    2    0    0 -0.14785827800E+02  0.27555940139E+02 -0.32421644982E+02  0.46142316478E+02  0.99999882996E+01 0.  0.
        -12    1    1    2    0    0  0.14785827800E+02 -0.27555940139E+02  0.32421644982E+02  0.45045683522E+02  0.00000000000E+00 0.  1.
         11    1    3    3    0    0 -0.81706485367E+01  0.16548662046E+02 -0.21017158367E+02  0.27970317465E+02  0.51100000000E-03 0. -1.
        -11    1    3    3    0    0 -0.19462113782E+01  0.84234498370E+01 -0.56703590146E+01  0.10339014339E+02  0.51100000000E-03 0.  1.
         12    1    3    3    0    0 -0.46689678853E+01  0.25838282555E+01 -0.57341276002E+01  0.78329846740E+01  0.00000000000E+00 0. -1.
</event>
<event>
 7    1  0.2001181E-008  0.4614232E+02  0.7816164E-02  0.1320468E+00
        -11   -1    0    0    0    0  0.00000000000E+00  0.00000000000E+00  0.45593999997E+02  0.45594000000E+02  0.51100000000E-03 0.  1.
         11   -1    0    0    0    0 -0.00000000000E+00 -0.00000000000E+00 -0.45593999997E+02  0.45594000000E+02  0.51100000000E-03 0. -1.
    9900012    2    1    2    0    0 -0.24739057542E+02 -0.35276289621E+02 -0.13140620646E+02  0.46142317760E+02  0.99999999862E+01 0.  0.
        -12    1    1    2    0    0  0.24739057542E+02  0.35276289621E+02  0.13140620646E+02  0.45045682240E+02  0.00000000000E+00 0.  1.
         11    1    3    3    0    0 -0.88010437363E+01 -0.20573856277E+02 -0.75168431022E+01  0.23606034471E+02  0.51100000000E-03 0. -1.
        -11    1    3    3    0    0 -0.55998087160E+01 -0.45917394552E+01 -0.76782927864E+00  0.72822723749E+01  0.51100000000E-03 0.  1.
        -12    1    3    3    0    0 -0.10338205090E+02 -0.10110693890E+02 -0.48559482655E+01  0.15254010914E+02  0.00000000000E+00 0.  1.
</event>
<event>
 7    1  0.2001181E-008  0.4614232E+02  0.7816164E-02  0.1320468E+00
        -11   -1    0    0    0    0  0.00000000000E+00  0.00000000000E+00  0.45593999997E+02  0.45594000000E+02  0.51100000000E-03 0.  1.
         11   -1    0    0    0    0 -0.00000000000E+00 -0.00000000000E+00 -0.45593999997E+02  0.45594000000E+02  0.51100000000E-03 0. -1.
    9900012    2    1    2    0    0 -0.29517320015E+02 -0.31064699485E+01 -0.33884971266E+02  0.46142316365E+02  0.99999872693E+01 0.  0.
        -12    1    1    2    0    0  0.29517320015E+02  0.31064699485E+01  0.33884971266E+02  0.45045683635E+02  0.00000000000E+00 0.  1.
         11    1    3    3    0    0 -0.10139228077E+01 -0.13875998063E+01 -0.36712514467E+01  0.40535860825E+01  0.51100000000E-03 0. -1.
        -11    1    3    3    0    0 -0.10388315520E+02  0.43854635447E+00 -0.68705945145E+01  0.12462523480E+02  0.51100000000E-03 0.  1.
         12    1    3    3    0    0 -0.18115081687E+02 -0.21574164967E+01 -0.23343125305E+02  0.29626206802E+02  0.00000000000E+00 0. -1.
</event>
<event>
 7    1  0.2001181E-008  0.4614232E+02  0.7816164E-02  0.1320468E+00
        -11   -1    0    0    0    0  0.00000000000E+00  0.00000000000E+00  0.45593999997E+02  0.45594000000E+02  0.51100000000E-03 0.  1.
         11   -1    0    0    0    0 -0.00000000000E+00 -0.00000000000E+00 -0.45593999997E+02  0.45594000000E+02  0.51100000000E-03 0. -1.
    9900012    2    1    2    0    0  0.15786213386E+02  0.37862841766E+01 -0.42018722091E+02  0.46142317775E+02  0.10000000130E+02 0.  0.
        -12    1    1    2    0    0 -0.15786213386E+02 -0.37862841766E+01  0.42018722091E+02  0.45045682225E+02  0.00000000000E+00 0.  1.
         11    1    3    3    0    0  0.23687689174E+01  0.33501438700E+01 -0.73347638310E+01  0.84043614184E+01  0.51100000000E-03 0.  1.
        -11    1    3    3    0    0  0.11966275684E+02  0.18177691442E+01 -0.24129386013E+02  0.26994875588E+02  0.51100000000E-03 0. -1.
         12    1    3    3    0    0  0.14511687848E+01 -0.13816288376E+01 -0.10554572247E+02  0.10743080769E+02  0.00000000000E+00 0. -1.
</event>
<event>
 7    1  0.2001181E-008  0.4614232E+02  0.7816164E-02  0.1320468E+00
        -11   -1    0    0    0    0  0.00000000000E+00  0.00000000000E+00  0.45593999997E+02  0.45594000000E+02  0.51100000000E-03 0.  1.
         11   -1    0    0    0    0 -0.00000000000E+00 -0.00000000000E+00 -0.45593999997E+02  0.45594000000E+02  0.51100000000E-03 0. -1.
    9900012    2    1    2    0    0  0.84607357346E+01  0.26888137553E+02 -0.35136268958E+02  0.46142318892E+02  0.10000010313E+02 0.  0.
        -12    1    1    2    0    0 -0.84607357346E+01 -0.26888137553E+02  0.35136268958E+02  0.45045681108E+02  0.00000000000E+00 0.  1.
         11    1    3    3    0    0 -0.37129251303E+00  0.13415523909E+01 -0.57432301626E+01  0.59095104627E+01  0.51100000000E-03 0.  1.
        -11    1    3    3    0    0  0.34684409019E+01  0.65357062016E+01 -0.10900314420E+02  0.13174308048E+02  0.51100000000E-03 0. -1.
        -12    1    3    3    0    0  0.53635873458E+01  0.19010878960E+02 -0.18492724375E+02  0.27058500381E+02  0.00000000000E+00 0.  1.
</event>
<event>
 7    1  0.2001181E-008  0.4614232E+02  0.7816164E-02  0.1320468E+00
        -11   -1    0    0    0    0  0.00000000000E+00  0.00000000000E+00  0.45593999997E+02  0.45594000000E+02  0.51100000000E-03 0.  1.
         11   -1    0    0    0    0 -0.00000000000E+00 -0.00000000000E+00 -0.45593999997E+02  0.45594000000E+02  0.51100000000E-03 0. -1.
    9900012    2    1    2    0    0 -0.58839637085E+01 -0.27309776623E+02 -0.35336503730E+02  0.46142318476E+02  0.10000006515E+02 0.  0.
        -12    1    1    2    0    0  0.58839637085E+01  0.27309776623E+02  0.35336503730E+02  0.45045681524E+02  0.00000000000E+00 0.  1.
         11    1    3    3    0    0  0.52502883027E+00 -0.29558954547E+01 -0.66443252162E+01  0.72910925829E+01  0.51100000000E-03 0. -1.
        -11    1    3    3    0    0  0.27008589749E+00  0.19082876136E+00  0.17626395765E+00  0.37474158039E+00  0.51100000000E-03 0.  1.
         12    1    3    3    0    0 -0.66790784363E+01 -0.24544709930E+02 -0.28868442472E+02  0.38476484312E+02  0.00000000000E+00 0. -1.
</event>
<event>
 7    1  0.2001181E-008  0.4614232E+02  0.7816164E-02  0.1320468E+00
        -11   -1    0    0    0    0  0.00000000000E+00  0.00000000000E+00  0.45593999997E+02  0.45594000000E+02  0.51100000000E-03 0.  1.
         11   -1    0    0    0    0 -0.00000000000E+00 -0.00000000000E+00 -0.45593999997E+02  0.45594000000E+02  0.51100000000E-03 0. -1.
    9900012    2    1    2    0    0  0.28807350685E+01  0.39350354439E+02 -0.21733945464E+02  0.46142318582E+02  0.10000007481E+02 0.  0.
        -12    1    1    2    0    0 -0.28807350685E+01 -0.39350354439E+02  0.21733945464E+02  0.45045681418E+02  0.00000000000E+00 0.  1.
         11    1    3    3    0    0  0.24999124302E+01  0.11747538147E+02 -0.72760370629E+01  0.14042611235E+02  0.51100000000E-03 0. -1.
        -11    1    3    3    0    0  0.29249707929E+01  0.93741238164E+01 -0.24409565270E+01  0.10118691639E+02  0.51100000000E-03 0.  1.
         12    1    3    3    0    0 -0.25441481546E+01  0.18228692475E+02 -0.12016951874E+02  0.21981015708E+02  0.00000000000E+00 0. -1.
</event>
<event>
 7    1  0.2001181E-008  0.4614232E+02  0.7816164E-02  0.1320468E+00
        -11   -1    0    0    0    0  0.00000000000E+00  0.00000000000E+00  0.45593999997E+02  0.45594000000E+02  0.51100000000E-03 0. -1.
         11   -1    0    0    0    0 -0.00000000000E+00 -0.00000000000E+00 -0.45593999997E+02  0.45594000000E+02  0.51100000000E-03 0.  1.
    9900012    2    1    2    0    0 -0.28524214969E+02  0.26997018596E+02 -0.22060001897E+02  0.46142317228E+02  0.99999951419E+01 0.  0.
        -12    1    1    2    0    0  0.28524214969E+02 -0.26997018596E+02  0.22060001897E+02  0.45045682772E+02  0.00000000000E+00 0.  1.
         11    1    3    3    0    0 -0.34986426782E+01  0.26756932458E+01 -0.40415489409E+01  0.59777883065E+01  0.51100000000E-03 0. -1.
        -11    1    3    3    0    0 -0.10656333478E+02  0.16102736913E+02 -0.10558675186E+02  0.22007753207E+02  0.51100000000E-03 0.  1.
         12    1    3    3    0    0 -0.14369238814E+02  0.82185884368E+01 -0.74597777694E+01  0.18156775714E+02  0.00000000000E+00 0. -1.
</event>
<event>
 7    1  0.2001181E-008  0.4614232E+02  0.7816164E-02  0.1320468E+00
        -11   -1    0    0    0    0  0.00000000000E+00  0.00000000000E+00  0.45593999997E+02  0.45594000000E+02  0.51100000000E-03 0.  1.
         11   -1    0    0    0    0 -0.00000000000E+00 -0.00000000000E+00 -0.45593999997E+02  0.45594000000E+02  0.51100000000E-03 0. -1.
    9900012    2    1    2    0    0  0.30989187324E+02 -0.81180949035E+01 -0.31668285964E+02  0.46142317279E+02  0.99999956058E+01 0.  0.
        -12    1    1    2    0    0 -0.30989187324E+02  0.81180949035E+01  0.31668285964E+02  0.45045682721E+02  0.00000000000E+00 0.  1.
         11    1    3    3    0    0  0.19656273210E+02 -0.41113834454E+01 -0.17986256945E+02  0.26958820254E+02  0.51100000000E-03 0. -1.
        -11    1    3    3    0    0  0.11619903372E+02 -0.44651542501E+01 -0.13845234833E+02  0.18618546793E+02  0.51100000000E-03 0.  1.
        -12    1    3    3    0    0 -0.28698925757E+00  0.45844279194E+00  0.16320581344E+00  0.56495023231E+00  0.00000000000E+00 0.  1.
</event>
<event>
 7    1  0.2001181E-008  0.4614232E+02  0.7816164E-02  0.1320468E+00
        -11   -1    0    0    0    0  0.00000000000E+00  0.00000000000E+00  0.45593999997E+02  0.45594000000E+02  0.51100000000E-03 0.  1.
         11   -1    0    0    0    0 -0.00000000000E+00 -0.00000000000E+00 -0.45593999997E+02  0.45594000000E+02  0.51100000000E-03 0. -1.
    9900012    2    1    2    0    0  0.58989081781E+00 -0.13722564233E+02 -0.42900544288E+02  0.46142318293E+02  0.10000004848E+02 0.  0.
        -12    1    1    2    0    0 -0.58989081781E+00  0.13722564233E+02  0.42900544288E+02  0.45045681707E+02  0.00000000000E+00 0.  1.
         11    1    3    3    0    0 -0.11791804476E+01 -0.14285489198E+02 -0.35187801260E+02  0.37995355320E+02  0.51100000000E-03 0. -1.
        -11    1    3    3    0    0  0.19918529231E+01  0.32320809016E+00 -0.46785318033E+01  0.50951547211E+01  0.51100000000E-03 0.  1.
        -12    1    3    3    0    0 -0.22278165760E+00  0.23971687524E+00 -0.30342112246E+01  0.30518082513E+01  0.00000000000E+00 0.  1.
</event>
<event>
 7    1  0.2001181E-008  0.4614232E+02  0.7816164E-02  0.1320468E+00
        -11   -1    0    0    0    0  0.00000000000E+00  0.00000000000E+00  0.45593999997E+02  0.45594000000E+02  0.51100000000E-03 0. -1.
         11   -1    0    0    0    0 -0.00000000000E+00 -0.00000000000E+00 -0.45593999997E+02  0.45594000000E+02  0.51100000000E-03 0.  1.
    9900012    2    1    2    0    0  0.59572781956E+01 -0.32073565649E+02  0.31063008623E+02  0.46142320056E+02  0.10000020928E+02 0.  0.
        -12    1    1    2    0    0 -0.59572781956E+01  0.32073565649E+02 -0.31063008623E+02  0.45045679944E+02  0.00000000000E+00 0.  1.
         11    1    3    3    0    0  0.93884335722E+00 -0.85115718414E+01  0.10909745361E+02  0.13869060031E+02  0.51100000000E-03 0. -1.
        -11    1    3    3    0    0  0.84154963813E+00 -0.17506476147E+02  0.11729153276E+02  0.21089285187E+02  0.51100000000E-03 0.  1.
        -12    1    3    3    0    0  0.41768852003E+01 -0.60555176606E+01  0.84241099856E+01  0.11183974837E+02  0.00000000000E+00 0.  1.
</event>
<event>
 7    1  0.2001181E-008  0.4614232E+02  0.7816164E-02  0.1320468E+00
        -11   -1    0    0    0    0  0.00000000000E+00  0.00000000000E+00  0.45593999997E+02  0.45594000000E+02  0.51100000000E-03 0.  1.
         11   -1    0    0    0    0 -0.00000000000E+00 -0.00000000000E+00 -0.45593999997E+02  0.45594000000E+02  0.51100000000E-03 0. -1.
    9900012    2    1    2    0    0  0.42882452590E+02 -0.40744279216E+01  0.13176032710E+02  0.46142317177E+02  0.99999946750E+01 0.  0.
        -12    1    1    2    0    0 -0.42882452590E+02  0.40744279216E+01 -0.13176032710E+02  0.45045682823E+02  0.00000000000E+00 0.  1.
         11    1    3    3    0    0  0.60184119513E+00  0.16289653821E+00  0.72304411812E+00  0.95474664922E+00  0.51100000000E-03 0. -1.
        -11    1    3    3    0    0  0.16220377923E+02 -0.57617054795E+01  0.65960278891E+01  0.18433813881E+02  0.51100000000E-03 0.  1.
         12    1    3    3    0    0  0.26060233471E+02  0.15243810197E+01  0.58569607025E+01  0.26753756647E+02  0.00000000000E+00 0. -1.
</event>
<event>
 7    1  0.2001181E-008  0.4614232E+02  0.7816164E-02  0.1320468E+00
        -11   -1    0    0    0    0  0.00000000000E+00  0.00000000000E+00  0.45593999997E+02  0.45594000000E+02  0.51100000000E-03 0. -1.
         11   -1    0    0    0    0 -0.00000000000E+00 -0.00000000000E+00 -0.45593999997E+02  0.45594000000E+02  0.51100000000E-03 0.  1.
    9900012    2    1    2    0    0  0.54083584831E+01 -0.20195968765E+02  0.39899699911E+02  0.46142317090E+02  0.99999938808E+01 0.  0.
        -12    1    1    2    0    0 -0.54083584831E+01  0.20195968765E+02 -0.39899699911E+02  0.45045682910E+02  0.00000000000E+00 0.  1.
         11    1    3    3    0    0 -0.27550740049E+00 -0.12637017947E+01  0.19543069472E+01  0.23435363147E+01  0.51100000000E-03 0. -1.
        -11    1    3    3    0    0  0.19292866955E+01 -0.10112075629E+01  0.68643654476E+00  0.22838308344E+01  0.51100000000E-03 0.  1.
         12    1    3    3    0    0  0.37545791880E+01 -0.17921059407E+02  0.37258956419E+02  0.41514949941E+02  0.00000000000E+00 0. -1.
</event>
<event>
 7    1  0.2001181E-008  0.4614232E+02  0.7816164E-02  0.1320468E+00
        -11   -1    0    0    0    0  0.00000000000E+00  0.00000000000E+00  0.45593999997E+02  0.45594000000E+02  0.51100000000E-03 0. -1.
         11   -1    0    0    0    0 -0.00000000000E+00 -0.00000000000E+00 -0.45593999997E+02  0.45594000000E+02  0.51100000000E-03 0.  1.
    9900012    2    1    2    0    0 -0.76304857475E+01 -0.40088388628E+02  0.19073813917E+02  0.46142316601E+02  0.99999894198E+01 0.  0.
        -12    1    1    2    0    0  0.76304857475E+01  0.40088388628E+02 -0.19073813917E+02  0.45045683399E+02  0.00000000000E+00 0.  1.
         11    1    3    3    0    0 -0.64007426049E+01 -0.12991203291E+02  0.76424218482E+01  0.16375209336E+02  0.51100000000E-03 0. -1.
        -11    1    3    3    0    0  0.46515337313E+00 -0.11007028809E+02  0.25405596348E+01  0.11305993737E+02  0.51100000000E-03 0.  1.
        -12    1    3    3    0    0 -0.16948965157E+01 -0.16090156528E+02  0.88908324340E+01  0.18461113527E+02  0.00000000000E+00 0.  1.
</event>
<event>
 7    1  0.2001181E-008  0.4614232E+02  0.7816164E-02  0.1320468E+00
        -11   -1    0    0    0    0  0.00000000000E+00  0.00000000000E+00  0.45593999997E+02  0.45594000000E+02  0.51100000000E-03 0. -1.
         11   -1    0    0    0    0 -0.00000000000E+00 -0.00000000000E+00 -0.45593999997E+02  0.45594000000E+02  0.51100000000E-03 0.  1.
    9900012    2    1    2    0    0 -0.58512788317E+01  0.12076148526E+02  0.43000494096E+02  0.46142319633E+02  0.10000017071E+02 0.  0.
        -12    1    1    2    0    0  0.58512788317E+01 -0.12076148526E+02 -0.43000494096E+02  0.45045680367E+02  0.00000000000E+00 0.  1.
         11    1    3    3    0    0  0.25559479170E+00  0.45378480987E+01  0.18451409375E+02  0.19002944568E+02  0.51100000000E-03 0. -1.
        -11    1    3    3    0    0 -0.41039396054E+01  0.46435915032E+01  0.21826563699E+02  0.22689295835E+02  0.51100000000E-03 0.  1.
        -12    1    3    3    0    0 -0.20029340179E+01  0.28947089244E+01  0.27225210224E+01  0.44500792301E+01  0.00000000000E+00 0.  1.
</event>
<event>
 7    1  0.2001181E-008  0.4614232E+02  0.7816164E-02  0.1320468E+00
        -11   -1    0    0    0    0  0.00000000000E+00  0.00000000000E+00  0.45593999997E+02  0.45594000000E+02  0.51100000000E-03 0. -1.
         11   -1    0    0    0    0 -0.00000000000E+00 -0.00000000000E+00 -0.45593999997E+02  0.45594000000E+02  0.51100000000E-03 0.  1.
    9900012    2    1    2    0    0 -0.19963209464E+01 -0.26380071457E+02  0.36458470217E+02  0.46142317433E+02  0.99999970069E+01 0.  0.
        -12    1    1    2    0    0  0.19963209464E+01  0.26380071457E+02 -0.36458470217E+02  0.45045682567E+02  0.00000000000E+00 0.  1.
         11    1    3    3    0    0 -0.29568224702E+01 -0.20590239018E+02  0.24967442409E+02  0.32497291005E+02  0.51100000000E-03 0. -1.
        -11    1    3    3    0    0 -0.14637497430E+01 -0.17308537767E+01  0.19227673031E+01  0.29724489011E+01  0.51100000000E-03 0.  1.
         12    1    3    3    0    0  0.24242512667E+01 -0.40589786619E+01  0.95682605049E+01  0.10672577527E+02  0.00000000000E+00 0. -1.
</event>
<event>
 7    1  0.2001181E-008  0.4614232E+02  0.7816164E-02  0.1320468E+00
        -11   -1    0    0    0    0  0.00000000000E+00  0.00000000000E+00  0.45593999997E+02  0.45594000000E+02  0.51100000000E-03 0. -1.
         11   -1    0    0    0    0 -0.00000000000E+00 -0.00000000000E+00 -0.45593999997E+02  0.45594000000E+02  0.51100000000E-03 0.  1.
    9900012    2    1    2    0    0 -0.13896880948E+02 -0.42406442534E+02 -0.61387304754E+01  0.46142315630E+02  0.99999805682E+01 0.  0.
        -12    1    1    2    0    0  0.13896880948E+02  0.42406442534E+02  0.61387304754E+01  0.45045684370E+02  0.00000000000E+00 0.  1.
         11    1    3    3    0    0  0.31396757568E+00  0.10476776867E+00  0.13584857137E-01  0.33126535194E+00  0.51100000000E-03 0. -1.
        -11    1    3    3    0    0 -0.25469117154E+00  0.17668306532E+00  0.30852395113E+00  0.43734630211E+00  0.51100000000E-03 0.  1.
         12    1    3    3    0    0 -0.13956157352E+02 -0.42687893368E+02 -0.64608392836E+01  0.45373703976E+02  0.00000000000E+00 0. -1.
</event>
<event>
 7    1  0.2001181E-008  0.4614231E+02  0.7816164E-02  0.1320468E+00
        -11   -1    0    0    0    0  0.00000000000E+00  0.00000000000E+00  0.45593999997E+02  0.45594000000E+02  0.51100000000E-03 0.  1.
         11   -1    0    0    0    0 -0.00000000000E+00 -0.00000000000E+00 -0.45593999997E+02  0.45594000000E+02  0.51100000000E-03 0. -1.
    9900012    2    1    2    0    0  0.29753180426E+02 -0.33609787480E+02 -0.37741485900E+01  0.46142314774E+02  0.99999727572E+01 0.  0.
        -12    1    1    2    0    0 -0.29753180426E+02  0.33609787480E+02  0.37741485900E+01  0.45045685226E+02  0.00000000000E+00 0.  1.
         11    1    3    3    0    0  0.22771020115E+01 -0.53396522489E+01 -0.55347429049E+00  0.58312446151E+01  0.51100000000E-03 0.  1.
        -11    1    3    3    0    0  0.11119682884E+02 -0.12481351903E+02  0.24138852692E+01  0.16889592509E+02  0.51100000000E-03 0. -1.
         12    1    3    3    0    0  0.16356395531E+02 -0.15788783328E+02 -0.56345595687E+01  0.23421477649E+02  0.00000000000E+00 0. -1.
</event>
<event>
 7    1  0.2001181E-008  0.4614232E+02  0.7816164E-02  0.1320468E+00
        -11   -1    0    0    0    0  0.00000000000E+00  0.00000000000E+00  0.45593999997E+02  0.45594000000E+02  0.51100000000E-03 0. -1.
         11   -1    0    0    0    0 -0.00000000000E+00 -0.00000000000E+00 -0.45593999997E+02  0.45594000000E+02  0.51100000000E-03 0.  1.
    9900012    2    1    2    0    0  0.15819288503E+02 -0.31367518778E+02  0.28194722439E+02  0.46142317671E+02  0.99999991828E+01 0.  0.
        -12    1    1    2    0    0 -0.15819288503E+02  0.31367518778E+02 -0.28194722439E+02  0.45045682329E+02  0.00000000000E+00 0.  1.
         11    1    3    3    0    0  0.61734422429E+01 -0.13573996398E+02  0.10489645687E+02  0.18231769915E+02  0.51100000000E-03 0. -1.
        -11    1    3    3    0    0  0.30481938147E+01 -0.13170340552E+02  0.11247770617E+02  0.17585838050E+02  0.51100000000E-03 0.  1.
        -12    1    3    3    0    0  0.65976524457E+01 -0.46231818274E+01  0.64573061352E+01  0.10324709707E+02  0.00000000000E+00 0.  1.
</event>
<event>
 7    1  0.2001181E-008  0.4614232E+02  0.7816164E-02  0.1320468E+00
        -11   -1    0    0    0    0  0.00000000000E+00  0.00000000000E+00  0.45593999997E+02  0.45594000000E+02  0.51100000000E-03 0.  1.
         11   -1    0    0    0    0 -0.00000000000E+00 -0.00000000000E+00 -0.45593999997E+02  0.45594000000E+02  0.51100000000E-03 0. -1.
    9900012    2    1    2    0    0 -0.47260729634E+01  0.24237447758E+02 -0.37673914559E+02  0.46142317880E+02  0.10000001083E+02 0.  0.
        -12    1    1    2    0    0  0.47260729634E+01 -0.24237447758E+02  0.37673914559E+02  0.45045682120E+02  0.00000000000E+00 0.  1.
         11    1    3    3    0    0 -0.24345599862E+01  0.51824638692E+01 -0.84287908815E+01  0.10189677623E+02  0.51100000000E-03 0. -1.
        -11    1    3    3    0    0  0.24298865020E+01  0.46411011795E+01 -0.11306894165E+02  0.12461541818E+02  0.51100000000E-03 0.  1.
        -12    1    3    3    0    0 -0.47213994791E+01  0.14413882709E+02 -0.17938229513E+02  0.23491098438E+02  0.00000000000E+00 0.  1.
</event>
<event>
 7    1  0.2001181E-008  0.4614231E+02  0.7816164E-02  0.1320468E+00
        -11   -1    0    0    0    0  0.00000000000E+00  0.00000000000E+00  0.45593999997E+02  0.45594000000E+02  0.51100000000E-03 0.  1.
         11   -1    0    0    0    0 -0.00000000000E+00 -0.00000000000E+00 -0.45593999997E+02  0.45594000000E+02  0.51100000000E-03 0. -1.
    9900012    2    1    2    0    0  0.30438847587E+02  0.33170802947E+00 -0.33203618959E+02  0.46142314473E+02  0.99999700130E+01 0.  0.
        -12    1    1    2    0    0 -0.30438847587E+02 -0.33170802947E+00  0.33203618959E+02  0.45045685527E+02  0.00000000000E+00 0.  1.
         11    1    3    3    0    0  0.21896577151E+02 -0.17528103897E+01 -0.17760609886E+02  0.28248392857E+02  0.51100000000E-03 0. -1.
        -11    1    3    3    0    0  0.37157594966E+01  0.31282121697E+00 -0.48375147591E+01  0.61078863002E+01  0.51100000000E-03 0.  1.
         12    1    3    3    0    0  0.48265109393E+01  0.17716972022E+01 -0.10605494313E+02  0.11786035315E+02  0.00000000000E+00 0. -1.
</event>
<event>
 7    1  0.2001181E-008  0.4614232E+02  0.7816164E-02  0.1320468E+00
        -11   -1    0    0    0    0  0.00000000000E+00  0.00000000000E+00  0.45593999997E+02  0.45594000000E+02  0.51100000000E-03 0.  1.
         11   -1    0    0    0    0 -0.00000000000E+00 -0.00000000000E+00 -0.45593999997E+02  0.45594000000E+02  0.51100000000E-03 0. -1.
    9900012    2    1    2    0    0 -0.14613051331E+02  0.31467113399E+02 -0.28729654656E+02  0.46142317060E+02  0.99999936107E+01 0.  0.
        -12    1    1    2    0    0  0.14613051331E+02 -0.31467113399E+02  0.28729654656E+02  0.45045682940E+02  0.00000000000E+00 0.  1.
         11    1    3    3    0    0 -0.83346429631E+01  0.13421460477E+02 -0.12547939614E+02  0.20175546176E+02  0.51100000000E-03 0. -1.
        -11    1    3    3    0    0 -0.50655622965E+01  0.18367100354E+02 -0.15233586871E+02  0.24394107198E+02  0.51100000000E-03 0.  1.
        -12    1    3    3    0    0 -0.12128460709E+01 -0.32144743184E+00 -0.94812817021E+00  0.15726636864E+01  0.00000000000E+00 0.  1.
</event>
<event>
 7    1  0.2001181E-008  0.4614232E+02  0.7816164E-02  0.1320468E+00
        -11   -1    0    0    0    0  0.00000000000E+00  0.00000000000E+00  0.45593999997E+02  0.45594000000E+02  0.51100000000E-03 0. -1.
         11   -1    0    0    0    0 -0.00000000000E+00 -0.00000000000E+00 -0.45593999997E+02  0.45594000000E+02  0.51100000000E-03 0.  1.
    9900012    2    1    2    0    0 -0.17369732384E+00  0.42804701776E+02  0.14029995070E+02  0.46142318447E+02  0.10000006253E+02 0.  0.
        -12    1    1    2    0    0  0.17369732384E+00 -0.42804701776E+02 -0.14029995070E+02  0.45045681553E+02  0.00000000000E+00 0.  1.
         11    1    3    3    0    0 -0.93941601671E+00  0.31578465376E+02  0.13040398858E+02  0.34177975081E+02  0.51100000000E-03 0. -1.
        -11    1    3    3    0    0 -0.63405391333E+00  0.44461197642E+00  0.76700465501E+00  0.10899543919E+01  0.51100000000E-03 0.  1.
        -12    1    3    3    0    0  0.13997726062E+01  0.10781624424E+02  0.22259155673E+00  0.10874388974E+02  0.00000000000E+00 0.  1.
</event>
<event>
 7    1  0.2001181E-008  0.4614232E+02  0.7816164E-02  0.1320468E+00
        -11   -1    0    0    0    0  0.00000000000E+00  0.00000000000E+00  0.45593999997E+02  0.45594000000E+02  0.51100000000E-03 0.  1.
         11   -1    0    0    0    0 -0.00000000000E+00 -0.00000000000E+00 -0.45593999997E+02  0.45594000000E+02  0.51100000000E-03 0. -1.
    9900012    2    1    2    0    0 -0.33278960718E+02 -0.60748491290E+01 -0.29744252366E+02  0.46142316886E+02  0.99999920183E+01 0.  0.
        -12    1    1    2    0    0  0.33278960718E+02  0.60748491290E+01  0.29744252366E+02  0.45045683114E+02  0.00000000000E+00 0.  1.
         11    1    3    3    0    0 -0.37050006937E+01 -0.96537468343E+00 -0.10862686775E+01  0.39798188803E+01  0.51100000000E-03 0. -1.
        -11    1    3    3    0    0 -0.32043846979E+01  0.17773104071E+01 -0.36987382002E+01  0.52064938404E+01  0.51100000000E-03 0.  1.
        -12    1    3    3    0    0 -0.26369575327E+02 -0.68867848526E+01 -0.24959245488E+02  0.36956004165E+02  0.00000000000E+00 0.  1.
</event>
<event>
 7    1  0.2001181E-008  0.4614232E+02  0.7816164E-02  0.1320468E+00
        -11   -1    0    0    0    0  0.00000000000E+00  0.00000000000E+00  0.45593999997E+02  0.45594000000E+02  0.51100000000E-03 0.  1.
         11   -1    0    0    0    0 -0.00000000000E+00 -0.00000000000E+00 -0.45593999997E+02  0.45594000000E+02  0.51100000000E-03 0. -1.
    9900012    2    1    2    0    0 -0.44869323881E+01  0.41887717803E+02 -0.15949922167E+02  0.46142317830E+02  0.10000000631E+02 0.  0.
        -12    1    1    2    0    0  0.44869323881E+01 -0.41887717803E+02  0.15949922167E+02  0.45045682170E+02  0.00000000000E+00 0.  1.
         11    1    3    3    0    0 -0.45588931861E+01  0.29656018692E+02 -0.87867632183E+01  0.31264519185E+02  0.51100000000E-03 0. -1.
        -11    1    3    3    0    0  0.18883631703E+01  0.96665584663E+01 -0.48730171721E+01  0.10988838185E+02  0.51100000000E-03 0.  1.
        -12    1    3    3    0    0 -0.18164023723E+01  0.25651406451E+01 -0.22901417761E+01  0.38889604603E+01  0.00000000000E+00 0.  1.
</event>
<event>
 7    1  0.2001181E-008  0.4614232E+02  0.7816164E-02  0.1320468E+00
        -11   -1    0    0    0    0  0.00000000000E+00  0.00000000000E+00  0.45593999997E+02  0.45594000000E+02  0.51100000000E-03 0.  1.
         11   -1    0    0    0    0 -0.00000000000E+00 -0.00000000000E+00 -0.45593999997E+02  0.45594000000E+02  0.51100000000E-03 0. -1.
    9900012    2    1    2    0    0 -0.18343717426E+02  0.39883619847E+02 -0.10095462801E+02  0.46142317962E+02  0.10000001833E+02 0.  0.
        -12    1    1    2    0    0  0.18343717426E+02 -0.39883619847E+02  0.10095462801E+02  0.45045682038E+02  0.00000000000E+00 0.  1.
         11    1    3    3    0    0 -0.11067595555E+02  0.24718795368E+02 -0.72182483167E+01  0.28028799918E+02  0.51100000000E-03 0. -1.
        -11    1    3    3    0    0 -0.32948124788E+01  0.10049900926E+02  0.89496256120E+00  0.10614012255E+02  0.51100000000E-03 0.  1.
        -12    1    3    3    0    0 -0.39813093916E+01  0.51149235531E+01 -0.37721770454E+01  0.74995057896E+01  0.00000000000E+00 0.  1.
</event>
<event>
 7    1  0.2001181E-008  0.4614232E+02  0.7816164E-02  0.1320468E+00
        -11   -1    0    0    0    0  0.00000000000E+00  0.00000000000E+00  0.45593999997E+02  0.45594000000E+02  0.51100000000E-03 0. -1.
         11   -1    0    0    0    0 -0.00000000000E+00 -0.00000000000E+00 -0.45593999997E+02  0.45594000000E+02  0.51100000000E-03 0.  1.
    9900012    2    1    2    0    0  0.41830599051E+02 -0.12671642933E+02  0.10896970387E+02  0.46142317463E+02  0.99999972843E+01 0.  0.
        -12    1    1    2    0    0 -0.41830599051E+02  0.12671642933E+02 -0.10896970387E+02  0.45045682537E+02  0.00000000000E+00 0.  1.
         11    1    3    3    0    0  0.33286358437E+01 -0.23522535994E+01  0.14314215811E+01  0.43199399973E+01  0.51100000000E-03 0. -1.
        -11    1    3    3    0    0  0.53774568266E+01 -0.44334502419E+01  0.28773144323E+01  0.75399908205E+01  0.51100000000E-03 0.  1.
         12    1    3    3    0    0  0.33124506381E+02 -0.58859390915E+01  0.65882343731E+01  0.34282386646E+02  0.00000000000E+00 0. -1.
</event>
<event>
 7    1  0.2001181E-008  0.4614233E+02  0.7816164E-02  0.1320468E+00
        -11   -1    0    0    0    0  0.00000000000E+00  0.00000000000E+00  0.45593999997E+02  0.45594000000E+02  0.51100000000E-03 0.  1.
         11   -1    0    0    0    0 -0.00000000000E+00 -0.00000000000E+00 -0.45593999997E+02  0.45594000000E+02  0.51100000000E-03 0. -1.
    9900012    2    1    2    0    0  0.11846837052E+01  0.24987068552E+01 -0.44960712773E+02  0.46142326462E+02  0.10000079345E+02 0.  0.
        -12    1    1    2    0    0 -0.11846837052E+01 -0.24987068552E+01  0.44960712773E+02  0.45045673538E+02  0.00000000000E+00 0.  1.
         11    1    3    3    0    0 -0.25029302739E+01  0.58679417175E-01 -0.67228974860E+01  0.71739427164E+01  0.51100000000E-03 0. -1.
        -11    1    3    3    0    0 -0.12064570300E+01  0.11720689126E+01 -0.37240041578E+01  0.40862563955E+01  0.51100000000E-03 0.  1.
        -12    1    3    3    0    0  0.48940710091E+01  0.12679585254E+01 -0.34513811129E+02  0.34882127351E+02  0.00000000000E+00 0.  1.
</event>
<event>
 7    1  0.2001181E-008  0.4614232E+02  0.7816164E-02  0.1320468E+00
        -11   -1    0    0    0    0  0.00000000000E+00  0.00000000000E+00  0.45593999997E+02  0.45594000000E+02  0.51100000000E-03 0.  1.
         11   -1    0    0    0    0 -0.00000000000E+00 -0.00000000000E+00 -0.45593999997E+02  0.45594000000E+02  0.51100000000E-03 0. -1.
    9900012    2    1    2    0    0 -0.28303843061E+02  0.25109878655E+02 -0.24443810454E+02  0.46142318658E+02  0.10000008174E+02 0.  0.
        -12    1    1    2    0    0  0.28303843061E+02 -0.25109878655E+02  0.24443810454E+02  0.45045681342E+02  0.00000000000E+00 0.  1.
         11    1    3    3    0    0 -0.33616785440E+01  0.23002633964E+01 -0.44548864783E+01  0.60363986053E+01  0.51100000000E-03 0. -1.
        -11    1    3    3    0    0 -0.13488387948E+02  0.73821428531E+01 -0.68782501868E+01  0.16844671812E+02  0.51100000000E-03 0.  1.
         12    1    3    3    0    0 -0.11453776568E+02  0.15427472406E+02 -0.13110673789E+02  0.23261248241E+02  0.00000000000E+00 0. -1.
</event>
<event>
 7    1  0.2001181E-008  0.4614232E+02  0.7816164E-02  0.1320468E+00
        -11   -1    0    0    0    0  0.00000000000E+00  0.00000000000E+00  0.45593999997E+02  0.45594000000E+02  0.51100000000E-03 0.  1.
         11   -1    0    0    0    0 -0.00000000000E+00 -0.00000000000E+00 -0.45593999997E+02  0.45594000000E+02  0.51100000000E-03 0. -1.
    9900012    2    1    2    0    0  0.24386482604E+02  0.15788869888E+02 -0.34425637169E+02  0.46142318292E+02  0.10000004838E+02 0.  0.
        -12    1    1    2    0    0 -0.24386482604E+02 -0.15788869888E+02  0.34425637169E+02  0.45045681708E+02  0.00000000000E+00 0.  1.
         11    1    3    3    0    0  0.62346001678E+01  0.23198731717E+01 -0.79693475231E+01  0.10380874288E+02  0.51100000000E-03 0. -1.
        -11    1    3    3    0    0  0.57497382247E+00  0.29931264156E+00  0.62016317942E+00  0.89709842501E+00  0.51100000000E-03 0.  1.
         12    1    3    3    0    0  0.17576908613E+02  0.13169684074E+02 -0.27076452825E+02  0.34864345578E+02  0.00000000000E+00 0. -1.
</event>
<event>
 7    1  0.2001181E-008  0.4614232E+02  0.7816164E-02  0.1320468E+00
        -11   -1    0    0    0    0  0.00000000000E+00  0.00000000000E+00  0.45593999997E+02  0.45594000000E+02  0.51100000000E-03 0. -1.
         11   -1    0    0    0    0 -0.00000000000E+00 -0.00000000000E+00 -0.45593999997E+02  0.45594000000E+02  0.51100000000E-03 0.  1.
    9900012    2    1    2    0    0  0.34627063867E+02  0.20503565211E+02  0.20240643655E+02  0.46142318808E+02  0.10000009548E+02 0.  0.
        -12    1    1    2    0    0 -0.34627063867E+02 -0.20503565211E+02 -0.20240643655E+02  0.45045681192E+02  0.00000000000E+00 0.  1.
         11    1    3    3    0    0  0.62313255241E+01  0.45069770083E+01  0.86794982647E+00  0.77392245543E+01  0.51100000000E-03 0. -1.
        -11    1    3    3    0    0  0.15863014658E+02  0.89056426636E+01  0.72624578743E+01  0.19587981007E+02  0.51100000000E-03 0.  1.
        -12    1    3    3    0    0  0.12532723685E+02  0.70909455393E+01  0.12110235955E+02  0.18815113247E+02  0.00000000000E+00 0.  1.
</event>
<event>
 7    1  0.2001181E-008  0.4614232E+02  0.7816164E-02  0.1320468E+00
        -11   -1    0    0    0    0  0.00000000000E+00  0.00000000000E+00  0.45593999997E+02  0.45594000000E+02  0.51100000000E-03 0.  1.
         11   -1    0    0    0    0 -0.00000000000E+00 -0.00000000000E+00 -0.45593999997E+02  0.45594000000E+02  0.51100000000E-03 0. -1.
    9900012    2    1    2    0    0 -0.22790477057E+02 -0.38045280570E+02 -0.78907624047E+01  0.46142319303E+02  0.10000014061E+02 0.  0.
        -12    1    1    2    0    0  0.22790477057E+02  0.38045280570E+02  0.78907624047E+01  0.45045680697E+02  0.00000000000E+00 0.  1.
         11    1    3    3    0    0 -0.23684972768E+01 -0.94897064929E+01 -0.29713345934E+01  0.10222188523E+02  0.51100000000E-03 0. -1.
        -11    1    3    3    0    0 -0.42699573573E+01 -0.63325528923E+01  0.13120887664E+01  0.77495379965E+01  0.51100000000E-03 0.  1.
         12    1    3    3    0    0 -0.16152022423E+02 -0.22223021185E+02 -0.62315165777E+01  0.28170592784E+02  0.00000000000E+00 0. -1.
</event>
<event>
 7    1  0.2001181E-008  0.4614232E+02  0.7816164E-02  0.1320468E+00
        -11   -1    0    0    0    0  0.00000000000E+00  0.00000000000E+00  0.45593999997E+02  0.45594000000E+02  0.51100000000E-03 0.  1.
         11   -1    0    0    0    0 -0.00000000000E+00 -0.00000000000E+00 -0.45593999997E+02  0.45594000000E+02  0.51100000000E-03 0. -1.
    9900012    2    1    2    0    0 -0.20015951482E+02 -0.23554173025E+02 -0.32766998246E+02  0.46142317025E+02  0.99999932867E+01 0.  0.
        -12    1    1    2    0    0  0.20015951482E+02  0.23554173025E+02  0.32766998246E+02  0.45045682975E+02  0.00000000000E+00 0.  1.
         11    1    3    3    0    0 -0.93796808334E+01 -0.78311365395E+01 -0.80643566201E+01  0.14640319668E+02  0.51100000000E-03 0. -1.
        -11    1    3    3    0    0 -0.35043187280E+01 -0.19072899046E+01 -0.46251168766E+01  0.61081675575E+01  0.51100000000E-03 0.  1.
         12    1    3    3    0    0 -0.71319519204E+01 -0.13815746581E+02 -0.20077524750E+02  0.25393829799E+02  0.00000000000E+00 0. -1.
</event>
<event>
 7    1  0.2001181E-008  0.4614232E+02  0.7816164E-02  0.1320468E+00
        -11   -1    0    0    0    0  0.00000000000E+00  0.00000000000E+00  0.45593999997E+02  0.45594000000E+02  0.51100000000E-03 0.  1.
         11   -1    0    0    0    0 -0.00000000000E+00 -0.00000000000E+00 -0.45593999997E+02  0.45594000000E+02  0.51100000000E-03 0. -1.
    9900012    2    1    2    0    0 -0.17286580732E+02  0.27470813838E+02 -0.31235268409E+02  0.46142317867E+02  0.10000000962E+02 0.  0.
        -12    1    1    2    0    0  0.17286580732E+02 -0.27470813838E+02  0.31235268409E+02  0.45045682133E+02  0.00000000000E+00 0.  1.
         11    1    3    3    0    0 -0.16222656203E+01  0.10880151636E+01 -0.39574239428E+01  0.44132445279E+01  0.51100000000E-03 0. -1.
        -11    1    3    3    0    0 -0.10868576856E+01  0.49567418279E+01 -0.17908400115E+01  0.53812319579E+01  0.51100000000E-03 0.  1.
        -12    1    3    3    0    0 -0.14577457426E+02  0.21426056846E+02 -0.25487004455E+02  0.36347841381E+02  0.00000000000E+00 0.  1.
</event>
<event>
 7    1  0.2001181E-008  0.4614232E+02  0.7816164E-02  0.1320468E+00
        -11   -1    0    0    0    0  0.00000000000E+00  0.00000000000E+00  0.45593999997E+02  0.45594000000E+02  0.51100000000E-03 0. -1.
         11   -1    0    0    0    0 -0.00000000000E+00 -0.00000000000E+00 -0.45593999997E+02  0.45594000000E+02  0.51100000000E-03 0.  1.
    9900012    2    1    2    0    0 -0.50557138823E+01  0.15891233105E+02  0.41845215980E+02  0.46142316157E+02  0.99999853766E+01 0.  0.
        -12    1    1    2    0    0  0.50557138823E+01 -0.15891233105E+02 -0.41845215980E+02  0.45045683843E+02  0.00000000000E+00 0.  1.
         11    1    3    3    0    0  0.72446452333E+00  0.61006019146E+01  0.83213961685E+01  0.10343492013E+02  0.51100000000E-03 0.  1.
        -11    1    3    3    0    0 -0.70092496853E+00  0.60088166909E+01  0.19376197219E+02  0.20298625391E+02  0.51100000000E-03 0. -1.
        -12    1    3    3    0    0 -0.50792534371E+01  0.37818144991E+01  0.14147622593E+02  0.15500198754E+02  0.00000000000E+00 0.  1.
</event>
<event>
 7    1  0.2001181E-008  0.4614232E+02  0.7816164E-02  0.1320468E+00
        -11   -1    0    0    0    0  0.00000000000E+00  0.00000000000E+00  0.45593999997E+02  0.45594000000E+02  0.51100000000E-03 0.  1.
         11   -1    0    0    0    0 -0.00000000000E+00 -0.00000000000E+00 -0.45593999997E+02  0.45594000000E+02  0.51100000000E-03 0. -1.
    9900012    2    1    2    0    0 -0.76827089150E+00  0.40713308629E+02 -0.19260054914E+02  0.46142318132E+02  0.10000003382E+02 0.  0.
        -12    1    1    2    0    0  0.76827089150E+00 -0.40713308629E+02  0.19260054914E+02  0.45045681868E+02  0.00000000000E+00 0.  1.
         11    1    3    3    0    0  0.78868034024E+00  0.15796257219E+02 -0.51966239663E+01  0.16647782426E+02  0.51100000000E-03 0. -1.
        -11    1    3    3    0    0 -0.73509730063E+00  0.13997560872E+02 -0.38875120609E+01  0.14545955750E+02  0.51100000000E-03 0.  1.
         12    1    3    3    0    0 -0.82185393111E+00  0.10919490538E+02 -0.10175918887E+02  0.14948579956E+02  0.00000000000E+00 0. -1.
</event>
<event>
 7    1  0.2001181E-008  0.4614232E+02  0.7816164E-02  0.1320468E+00
        -11   -1    0    0    0    0  0.00000000000E+00  0.00000000000E+00  0.45593999997E+02  0.45594000000E+02  0.51100000000E-03 0. -1.
         11   -1    0    0    0    0 -0.00000000000E+00 -0.00000000000E+00 -0.45593999997E+02  0.45594000000E+02  0.51100000000E-03 0.  1.
    9900012    2    1    2    0    0 -0.83347150114E+01  0.33128379448E+01  0.44143757011E+02  0.46142315938E+02  0.99999833786E+01 0.  0.
        -12    1    1    2    0    0  0.83347150114E+01 -0.33128379448E+01 -0.44143757011E+02  0.45045684062E+02  0.00000000000E+00 0.  1.
         11    1    3    3    0    0 -0.56859790896E+00  0.27590602944E+01  0.17678133933E+02  0.17901176969E+02  0.51100000000E-03 0. -1.
        -11    1    3    3    0    0  0.32117316553E+00 -0.13607514556E+01  0.58191747538E+01  0.59847800129E+01  0.51100000000E-03 0.  1.
        -12    1    3    3    0    0 -0.80872902679E+01  0.19145291060E+01  0.20646448324E+02  0.22256358956E+02  0.00000000000E+00 0.  1.
</event>
<event>
 7    1  0.2001181E-008  0.4614233E+02  0.7816164E-02  0.1320468E+00
        -11   -1    0    0    0    0  0.00000000000E+00  0.00000000000E+00  0.45593999997E+02  0.45594000000E+02  0.51100000000E-03 0.  1.
         11   -1    0    0    0    0 -0.00000000000E+00 -0.00000000000E+00 -0.45593999997E+02  0.45594000000E+02  0.51100000000E-03 0. -1.
    9900012    2    1    2    0    0  0.37547870411E+02  0.82488955708E+00 -0.24871454241E+02  0.46142331493E+02  0.10000125216E+02 0.  0.
        -12    1    1    2    0    0 -0.37547870411E+02 -0.82488955708E+00  0.24871454241E+02  0.45045668507E+02  0.00000000000E+00 0.  1.
         11    1    3    3    0    0  0.21456325338E+02  0.13520140384E+01 -0.18597364533E+02  0.28426463143E+02  0.51100000000E-03 0. -1.
        -11    1    3    3    0    0  0.13397827457E+01 -0.62098031880E+00  0.39163815584E+00  0.15277483655E+01  0.51100000000E-03 0.  1.
         12    1    3    3    0    0  0.14751762327E+02  0.93855837478E-01 -0.66657278637E+01  0.16188119984E+02  0.00000000000E+00 0. -1.
</event>
<event>
 7    1  0.2001181E-008  0.4614232E+02  0.7816164E-02  0.1320468E+00
        -11   -1    0    0    0    0  0.00000000000E+00  0.00000000000E+00  0.45593999997E+02  0.45594000000E+02  0.51100000000E-03 0. -1.
         11   -1    0    0    0    0 -0.00000000000E+00 -0.00000000000E+00 -0.45593999997E+02  0.45594000000E+02  0.51100000000E-03 0.  1.
    9900012    2    1    2    0    0 -0.27420748577E+01  0.43841224821E+02  0.99770555608E+01  0.46142316455E+02  0.99999880916E+01 0.  0.
        -12    1    1    2    0    0  0.27420748577E+01 -0.43841224821E+02 -0.99770555608E+01  0.45045683545E+02  0.00000000000E+00 0.  1.
         11    1    3    3    0    0 -0.32309028867E+01  0.14943689646E+02  0.39826997044E+01  0.15799192729E+02  0.51100000000E-03 0. -1.
        -11    1    3    3    0    0  0.26865163738E+01  0.15721853172E+02  0.67129981681E+00  0.15963855458E+02  0.51100000000E-03 0.  1.
        -12    1    3    3    0    0 -0.21976883448E+01  0.13175682004E+02  0.53230560396E+01  0.14379268268E+02  0.00000000000E+00 0.  1.
</event>
<event>
 7    1  0.2001181E-008  0.4614232E+02  0.7816164E-02  0.1320468E+00
        -11   -1    0    0    0    0  0.00000000000E+00  0.00000000000E+00  0.45593999997E+02  0.45594000000E+02  0.51100000000E-03 0. -1.
         11   -1    0    0    0    0 -0.00000000000E+00 -0.00000000000E+00 -0.45593999997E+02  0.45594000000E+02  0.51100000000E-03 0.  1.
    9900012    2    1    2    0    0  0.36000470114E+02  0.14094282829E+02  0.23117759885E+02  0.46142317865E+02  0.10000000949E+02 0.  0.
        -12    1    1    2    0    0 -0.36000470114E+02 -0.14094282829E+02 -0.23117759885E+02  0.45045682135E+02  0.00000000000E+00 0.  1.
         11    1    3    3    0    0  0.17065979189E+02  0.60482247815E+01  0.12369947214E+02  0.21928161415E+02  0.51100000000E-03 0. -1.
        -11    1    3    3    0    0  0.83398478785E-01  0.66820020622E+00  0.20921841404E+01  0.21978811524E+01  0.51100000000E-03 0.  1.
        -12    1    3    3    0    0  0.18851092446E+02  0.73778578413E+01  0.86556285309E+01  0.22016275298E+02  0.00000000000E+00 0.  1.
</event>
<event>
 7    1  0.2001181E-008  0.4614232E+02  0.7816164E-02  0.1320468E+00
        -11   -1    0    0    0    0  0.00000000000E+00  0.00000000000E+00  0.45593999997E+02  0.45594000000E+02  0.51100000000E-03 0. -1.
         11   -1    0    0    0    0 -0.00000000000E+00 -0.00000000000E+00 -0.45593999997E+02  0.45594000000E+02  0.51100000000E-03 0.  1.
    9900012    2    1    2    0    0  0.89484461834E+01 -0.30316187464E+02  0.32093104595E+02  0.46142320141E+02  0.10000021701E+02 0.  0.
        -12    1    1    2    0    0 -0.89484461834E+01  0.30316187464E+02 -0.32093104595E+02  0.45045679859E+02  0.00000000000E+00 0.  1.
         11    1    3    3    0    0 -0.55852960165E+00 -0.18401551256E+01  0.14326137600E+01  0.23980218199E+01  0.51100000000E-03 0. -1.
        -11    1    3    3    0    0  0.24527942911E+01 -0.17851143382E+02  0.21443047535E+02  0.28008638092E+02  0.51100000000E-03 0.  1.
        -12    1    3    3    0    0  0.70541814940E+01 -0.10624888956E+02  0.92174432997E+01  0.15735660229E+02  0.00000000000E+00 0.  1.
</event>
<event>
 7    1  0.2001181E-008  0.4614231E+02  0.7816164E-02  0.1320468E+00
        -11   -1    0    0    0    0  0.00000000000E+00  0.00000000000E+00  0.45593999997E+02  0.45594000000E+02  0.51100000000E-03 0.  1.
         11   -1    0    0    0    0 -0.00000000000E+00 -0.00000000000E+00 -0.45593999997E+02  0.45594000000E+02  0.51100000000E-03 0. -1.
    9900012    2    1    2    0    0  0.14006869473E+02 -0.16587154214E+02 -0.39468818832E+02  0.46142314997E+02  0.99999747977E+01 0.  0.
        -12    1    1    2    0    0 -0.14006869473E+02  0.16587154214E+02  0.39468818832E+02  0.45045685003E+02  0.00000000000E+00 0.  1.
         11    1    3    3    0    0  0.22608635897E+01  0.12009179352E+00 -0.25130706770E+01  0.33825213523E+01  0.51100000000E-03 0. -1.
        -11    1    3    3    0    0  0.26605682137E+01 -0.22765099428E+00 -0.52498603743E+01  0.58899475724E+01  0.51100000000E-03 0.  1.
         12    1    3    3    0    0  0.90854376699E+01 -0.16479595013E+02 -0.31705887781E+02  0.36869846073E+02  0.00000000000E+00 0. -1.
</event>
<event>
 7    1  0.2001181E-008  0.4614232E+02  0.7816164E-02  0.1320468E+00
        -11   -1    0    0    0    0  0.00000000000E+00  0.00000000000E+00  0.45593999997E+02  0.45594000000E+02  0.51100000000E-03 0.  1.
         11   -1    0    0    0    0 -0.00000000000E+00 -0.00000000000E+00 -0.45593999997E+02  0.45594000000E+02  0.51100000000E-03 0. -1.
    9900012    2    1    2    0    0  0.83709744210E+01 -0.32268850194E+02 -0.30294582546E+02  0.46142316108E+02  0.99999849287E+01 0.  0.
        -12    1    1    2    0    0 -0.83709744210E+01  0.32268850194E+02  0.30294582546E+02  0.45045683892E+02  0.00000000000E+00 0.  1.
         11    1    3    3    0    0  0.44841390168E+01 -0.20279970225E+02 -0.22471022028E+02  0.30599534740E+02  0.51100000000E-03 0. -1.
        -11    1    3    3    0    0 -0.37595655560E-01 -0.69506455897E+01 -0.31622338498E+01  0.76362694248E+01  0.51100000000E-03 0.  1.
        -12    1    3    3    0    0  0.39244310597E+01 -0.50382343790E+01 -0.46613266690E+01  0.79065119436E+01  0.00000000000E+00 0.  1.
</event>
<event>
 7    1  0.2001181E-008  0.4614233E+02  0.7816164E-02  0.1320468E+00
        -11   -1    0    0    0    0  0.00000000000E+00  0.00000000000E+00  0.45593999997E+02  0.45594000000E+02  0.51100000000E-03 0.  1.
         11   -1    0    0    0    0 -0.00000000000E+00 -0.00000000000E+00 -0.45593999997E+02  0.45594000000E+02  0.51100000000E-03 0. -1.
    9900012    2    1    2    0    0 -0.42616793182E+02  0.11804840634E+01  0.14543994174E+02  0.46142330172E+02  0.10000113172E+02 0.  0.
        -12    1    1    2    0    0  0.42616793182E+02 -0.11804840634E+01 -0.14543994174E+02  0.45045669828E+02  0.00000000000E+00 0.  1.
         11    1    3    3    0    0 -0.14194740791E+02 -0.73017341292E+00  0.16449751414E+01  0.14308380859E+02  0.51100000000E-03 0. -1.
        -11    1    3    3    0    0 -0.86252934498E+01 -0.21463215090E+01  0.42636109197E+01  0.98580303028E+01  0.51100000000E-03 0.  1.
        -12    1    3    3    0    0 -0.19796758941E+02  0.40569789853E+01  0.86354081133E+01  0.21975919010E+02  0.00000000000E+00 0.  1.
</event>
<event>
 7    1  0.2001181E-008  0.4614232E+02  0.7816164E-02  0.1320468E+00
        -11   -1    0    0    0    0  0.00000000000E+00  0.00000000000E+00  0.45593999997E+02  0.45594000000E+02  0.51100000000E-03 0.  1.
         11   -1    0    0    0    0 -0.00000000000E+00 -0.00000000000E+00 -0.45593999997E+02  0.45594000000E+02  0.51100000000E-03 0. -1.
    9900012    2    1    2    0    0  0.41585778658E+02  0.10981129021E+02 -0.13384738976E+02  0.46142318535E+02  0.10000007060E+02 0.  0.
        -12    1    1    2    0    0 -0.41585778658E+02 -0.10981129021E+02  0.13384738976E+02  0.45045681465E+02  0.00000000000E+00 0.  1.
         11    1    3    3    0    0  0.11612818080E+02  0.47922538238E+01 -0.65530672420E+00  0.12579851654E+02  0.51100000000E-03 0. -1.
        -11    1    3    3    0    0  0.28146809078E+02  0.44975086730E+01 -0.11107741609E+02  0.30591704259E+02  0.51100000000E-03 0.  1.
         12    1    3    3    0    0  0.18261515001E+01  0.16913665241E+01 -0.16216906429E+01  0.29707626228E+01  0.00000000000E+00 0. -1.
</event>
<event>
 7    1  0.2001181E-008  0.4614232E+02  0.7816164E-02  0.1320468E+00
        -11   -1    0    0    0    0  0.00000000000E+00  0.00000000000E+00  0.45593999997E+02  0.45594000000E+02  0.51100000000E-03 0.  1.
         11   -1    0    0    0    0 -0.00000000000E+00 -0.00000000000E+00 -0.45593999997E+02  0.45594000000E+02  0.51100000000E-03 0. -1.
    9900012    2    1    2    0    0 -0.24581954733E+02  0.27715667441E+02 -0.25625823264E+02  0.46142317209E+02  0.99999949623E+01 0.  0.
        -12    1    1    2    0    0  0.24581954733E+02 -0.27715667441E+02  0.25625823264E+02  0.45045682791E+02  0.00000000000E+00 0.  1.
         11    1    3    3    0    0 -0.43327675111E+00  0.14931177632E+01 -0.25747246091E+01  0.30077128307E+01  0.51100000000E-03 0. -1.
        -11    1    3    3    0    0 -0.91654537559E+01  0.98293810026E+01 -0.13204050167E+02  0.18840626702E+02  0.51100000000E-03 0.  1.
         12    1    3    3    0    0 -0.14983224226E+02  0.16393168675E+02 -0.98470484883E+01  0.24293977676E+02  0.00000000000E+00 0. -1.
</event>
<event>
 7    1  0.2001181E-008  0.4614232E+02  0.7816164E-02  0.1320468E+00
        -11   -1    0    0    0    0  0.00000000000E+00  0.00000000000E+00  0.45593999997E+02  0.45594000000E+02  0.51100000000E-03 0.  1.
         11   -1    0    0    0    0 -0.00000000000E+00 -0.00000000000E+00 -0.45593999997E+02  0.45594000000E+02  0.51100000000E-03 0. -1.
    9900012    2    1    2    0    0 -0.27436867347E+02 -0.15985526033E+02 -0.31949879181E+02  0.46142317498E+02  0.99999976027E+01 0.  0.
        -12    1    1    2    0    0  0.27436867347E+02  0.15985526033E+02  0.31949879181E+02  0.45045682502E+02  0.00000000000E+00 0.  1.
         11    1    3    3    0    0  0.17432822396E+00  0.10107683517E+00  0.22868313421E+00  0.30480008739E+00  0.51100000000E-03 0.  1.
        -11    1    3    3    0    0 -0.13986300799E+02 -0.10130591568E+02 -0.13252198997E+02  0.21768469723E+02  0.51100000000E-03 0. -1.
         12    1    3    3    0    0 -0.13624894772E+02 -0.59560113009E+01 -0.18926363318E+02  0.24069047688E+02  0.00000000000E+00 0. -1.
</event>
<event>
 7    1  0.2001181E-008  0.4614232E+02  0.7816164E-02  0.1320468E+00
        -11   -1    0    0    0    0  0.00000000000E+00  0.00000000000E+00  0.45593999997E+02  0.45594000000E+02  0.51100000000E-03 0. -1.
         11   -1    0    0    0    0 -0.00000000000E+00 -0.00000000000E+00 -0.45593999997E+02  0.45594000000E+02  0.51100000000E-03 0.  1.
    9900012    2    1    2    0    0  0.12202449266E+02 -0.43206321953E+02 -0.36643348345E+01  0.46142319024E+02  0.10000011514E+02 0.  0.
        -12    1    1    2    0    0 -0.12202449266E+02  0.43206321953E+02  0.36643348345E+01  0.45045680976E+02  0.00000000000E+00 0.  1.
         11    1    3    3    0    0  0.14462384832E+00 -0.93629331653E+01 -0.16216496379E+01  0.95034299769E+01  0.51100000000E-03 0. -1.
        -11    1    3    3    0    0  0.81764773530E+01 -0.20806251328E+02 -0.45330502275E+01  0.22810160474E+02  0.51100000000E-03 0.  1.
         12    1    3    3    0    0  0.38813480647E+01 -0.13037137460E+02  0.24903650309E+01  0.13828728573E+02  0.00000000000E+00 0. -1.
</event>
<event>
 7    1  0.2001181E-008  0.4614232E+02  0.7816164E-02  0.1320468E+00
        -11   -1    0    0    0    0  0.00000000000E+00  0.00000000000E+00  0.45593999997E+02  0.45594000000E+02  0.51100000000E-03 0.  1.
         11   -1    0    0    0    0 -0.00000000000E+00 -0.00000000000E+00 -0.45593999997E+02  0.45594000000E+02  0.51100000000E-03 0. -1.
    9900012    2    1    2    0    0 -0.28110559902E+02 -0.34666754116E+02 -0.60931131372E+01  0.46142318224E+02  0.10000004225E+02 0.  0.
        -12    1    1    2    0    0  0.28110559902E+02  0.34666754116E+02  0.60931131372E+01  0.45045681776E+02  0.00000000000E+00 0.  1.
         11    1    3    3    0    0 -0.87509765575E+01 -0.15131289132E+02 -0.24415760214E+01  0.17649271805E+02  0.51100000000E-03 0. -1.
        -11    1    3    3    0    0 -0.32255916429E+01 -0.41520703250E+01 -0.32809680382E+01  0.61974898918E+01  0.51100000000E-03 0.  1.
         12    1    3    3    0    0 -0.16133991702E+02 -0.15383394659E+02 -0.37056907761E+00  0.22295556528E+02  0.00000000000E+00 0. -1.
</event>
<event>
 7    1  0.2001181E-008  0.4614232E+02  0.7816164E-02  0.1320468E+00
        -11   -1    0    0    0    0  0.00000000000E+00  0.00000000000E+00  0.45593999997E+02  0.45594000000E+02  0.51100000000E-03 0.  1.
         11   -1    0    0    0    0 -0.00000000000E+00 -0.00000000000E+00 -0.45593999997E+02  0.45594000000E+02  0.51100000000E-03 0. -1.
    9900012    2    1    2    0    0  0.41335599732E+02  0.83029237961E+01 -0.15860116197E+02  0.46142316138E+02  0.99999852005E+01 0.  0.
        -12    1    1    2    0    0 -0.41335599732E+02 -0.83029237961E+01  0.15860116197E+02  0.45045683862E+02  0.00000000000E+00 0.  1.
         11    1    3    3    0    0  0.31141627212E+02  0.80034829631E+01 -0.77763188323E+01  0.33080626049E+02  0.51100000000E-03 0. -1.
        -11    1    3    3    0    0  0.11369153595E+01  0.31796562806E+00 -0.12194779524E+01  0.16972935553E+01  0.51100000000E-03 0.  1.
         12    1    3    3    0    0  0.90570571608E+01 -0.18524795026E-01 -0.68643194125E+01  0.11364396534E+02  0.00000000000E+00 0. -1.
</event>
<event>
 7    1  0.2001181E-008  0.4614232E+02  0.7816164E-02  0.1320468E+00
        -11   -1    0    0    0    0  0.00000000000E+00  0.00000000000E+00  0.45593999997E+02  0.45594000000E+02  0.51100000000E-03 0.  1.
         11   -1    0    0    0    0 -0.00000000000E+00 -0.00000000000E+00 -0.45593999997E+02  0.45594000000E+02  0.51100000000E-03 0. -1.
    9900012    2    1    2    0    0 -0.22351033314E+02 -0.14302802040E+02 -0.36400202139E+02  0.46142317053E+02  0.99999935441E+01 0.  0.
        -12    1    1    2    0    0  0.22351033314E+02  0.14302802040E+02  0.36400202139E+02  0.45045682947E+02  0.00000000000E+00 0.  1.
         11    1    3    3    0    0 -0.77883400853E+01 -0.64070392496E+00 -0.70011274740E+01  0.10492117468E+02  0.51100000000E-03 0. -1.
        -11    1    3    3    0    0 -0.40353585469E+01 -0.35120801888E+01 -0.10182105595E+02  0.11501917252E+02  0.51100000000E-03 0.  1.
         12    1    3    3    0    0 -0.10527334682E+02 -0.10150017926E+02 -0.19216969070E+02  0.24148282333E+02  0.00000000000E+00 0. -1.
</event>
<event>
 7    1  0.2001181E-008  0.4614232E+02  0.7816164E-02  0.1320468E+00
        -11   -1    0    0    0    0  0.00000000000E+00  0.00000000000E+00  0.45593999997E+02  0.45594000000E+02  0.51100000000E-03 0.  1.
         11   -1    0    0    0    0 -0.00000000000E+00 -0.00000000000E+00 -0.45593999997E+02  0.45594000000E+02  0.51100000000E-03 0. -1.
    9900012    2    1    2    0    0 -0.19211071952E+02  0.13547568811E+01 -0.40721160735E+02  0.46142316707E+02  0.99999903858E+01 0.  0.
        -12    1    1    2    0    0  0.19211071952E+02 -0.13547568811E+01  0.40721160735E+02  0.45045683293E+02  0.00000000000E+00 0.  1.
         11    1    3    3    0    0 -0.48572344325E+01  0.12954407220E+01 -0.68527266488E+01  0.84988679117E+01  0.51100000000E-03 0. -1.
        -11    1    3    3    0    0 -0.41720755078E+01 -0.21378156011E+01 -0.45631622198E+01  0.65420882975E+01  0.51100000000E-03 0.  1.
        -12    1    3    3    0    0 -0.10181762011E+02  0.21971317601E+01 -0.29305271867E+02  0.31101360498E+02  0.00000000000E+00 0.  1.
</event>
<event>
 7    1  0.2001181E-008  0.4614232E+02  0.7816164E-02  0.1320468E+00
        -11   -1    0    0    0    0  0.00000000000E+00  0.00000000000E+00  0.45593999997E+02  0.45594000000E+02  0.51100000000E-03 0.  1.
         11   -1    0    0    0    0 -0.00000000000E+00 -0.00000000000E+00 -0.45593999997E+02  0.45594000000E+02  0.51100000000E-03 0. -1.
    9900012    2    1    2    0    0 -0.10937557161E+02  0.32068073829E+02 -0.29683701540E+02  0.46142315935E+02  0.99999833443E+01 0.  0.
        -12    1    1    2    0    0  0.10937557161E+02 -0.32068073829E+02  0.29683701540E+02  0.45045684065E+02  0.00000000000E+00 0.  1.
         11    1    3    3    0    0 -0.58735049485E+01  0.17769766691E+02 -0.20387888014E+02  0.27675415924E+02  0.51100000000E-03 0. -1.
        -11    1    3    3    0    0 -0.29771252410E+01  0.32123606898E+01 -0.10784979631E+01  0.45106201369E+01  0.51100000000E-03 0.  1.
        -12    1    3    3    0    0 -0.20869269719E+01  0.11085946448E+02 -0.82173155633E+01  0.13956279874E+02  0.00000000000E+00 0.  1.
</event>
<event>
 7    1  0.2001181E-008  0.4614232E+02  0.7816164E-02  0.1320468E+00
        -11   -1    0    0    0    0  0.00000000000E+00  0.00000000000E+00  0.45593999997E+02  0.45594000000E+02  0.51100000000E-03 0. -1.
         11   -1    0    0    0    0 -0.00000000000E+00 -0.00000000000E+00 -0.45593999997E+02  0.45594000000E+02  0.51100000000E-03 0.  1.
    9900012    2    1    2    0    0 -0.78153782547E+01 -0.12181666468E+02  0.42657242723E+02  0.46142317721E+02  0.99999996386E+01 0.  0.
        -12    1    1    2    0    0  0.78153782547E+01  0.12181666468E+02 -0.42657242723E+02  0.45045682279E+02  0.00000000000E+00 0.  1.
         11    1    3    3    0    0 -0.28101870713E+01 -0.22528967483E+01  0.12256290491E+02  0.12774558779E+02  0.51100000000E-03 0. -1.
        -11    1    3    3    0    0 -0.35511488946E+01 -0.77143936587E+01  0.11574763633E+02  0.14356102585E+02  0.51100000000E-03 0.  1.
         12    1    3    3    0    0 -0.14540422888E+01 -0.22143760613E+01  0.18826188599E+02  0.19011656358E+02  0.00000000000E+00 0. -1.
</event>
<event>
 7    1  0.2001181E-008  0.4614233E+02  0.7816164E-02  0.1320468E+00
        -11   -1    0    0    0    0  0.00000000000E+00  0.00000000000E+00  0.45593999997E+02  0.45594000000E+02  0.51100000000E-03 0. -1.
         11   -1    0    0    0    0 -0.00000000000E+00 -0.00000000000E+00 -0.45593999997E+02  0.45594000000E+02  0.51100000000E-03 0.  1.
    9900012    2    1    2    0    0  0.83957511299E+01 -0.40216329687E+02  0.18473508493E+02  0.46142330657E+02  0.10000117593E+02 0.  0.
        -12    1    1    2    0    0 -0.83957511299E+01  0.40216329687E+02 -0.18473508493E+02  0.45045669343E+02  0.00000000000E+00 0.  1.
         11    1    3    3    0    0  0.21486797975E+01 -0.67688185756E+01  0.44113345136E+01  0.83602393646E+01  0.51100000000E-03 0. -1.
        -11    1    3    3    0    0 -0.19361819479E+01 -0.36799507935E+01  0.11144193876E+01  0.43049702915E+01  0.51100000000E-03 0.  1.
        -12    1    3    3    0    0  0.81832532803E+01 -0.29767560318E+02  0.12947754592E+02  0.33477121001E+02  0.00000000000E+00 0.  1.
</event>
<event>
 7    1  0.2001181E-008  0.4614232E+02  0.7816164E-02  0.1320468E+00
        -11   -1    0    0    0    0  0.00000000000E+00  0.00000000000E+00  0.45593999997E+02  0.45594000000E+02  0.51100000000E-03 0. -1.
         11   -1    0    0    0    0 -0.00000000000E+00 -0.00000000000E+00 -0.45593999997E+02  0.45594000000E+02  0.51100000000E-03 0.  1.
    9900012    2    1    2    0    0  0.68633444074E+00  0.36521246243E+02  0.26359837848E+02  0.46142317260E+02  0.99999954316E+01 0.  0.
        -12    1    1    2    0    0 -0.68633444074E+00 -0.36521246243E+02 -0.26359837848E+02  0.45045682740E+02  0.00000000000E+00 0.  1.
         11    1    3    3    0    0  0.12142272715E+01  0.87004871667E+01  0.66307873871E+01  0.11006369358E+02  0.51100000000E-03 0. -1.
        -11    1    3    3    0    0 -0.45772820624E+00  0.28418371294E+02  0.19587303099E+02  0.34517760429E+02  0.51100000000E-03 0.  1.
        -12    1    3    3    0    0 -0.70164624528E-01 -0.59761221756E+00  0.14174736245E+00  0.61818747308E+00  0.00000000000E+00 0.  1.
</event>
<event>
 7    1  0.2001181E-008  0.4614232E+02  0.7816164E-02  0.1320468E+00
        -11   -1    0    0    0    0  0.00000000000E+00  0.00000000000E+00  0.45593999997E+02  0.45594000000E+02  0.51100000000E-03 0.  1.
         11   -1    0    0    0    0 -0.00000000000E+00 -0.00000000000E+00 -0.45593999997E+02  0.45594000000E+02  0.51100000000E-03 0. -1.
    9900012    2    1    2    0    0 -0.42388969684E+01 -0.12196676690E+02 -0.43155374616E+02  0.46142317321E+02  0.99999959865E+01 0.  0.
        -12    1    1    2    0    0  0.42388969684E+01  0.12196676690E+02  0.43155374616E+02  0.45045682679E+02  0.00000000000E+00 0.  1.
         11    1    3    3    0    0 -0.11611091930E+01 -0.14688499860E+01 -0.29205159210E+01  0.34691653673E+01  0.51100000000E-03 0. -1.
        -11    1    3    3    0    0  0.23442904574E+01 -0.44914199852E+01 -0.23107106754E+02  0.23656012640E+02  0.51100000000E-03 0.  1.
        -12    1    3    3    0    0 -0.54220782328E+01 -0.62364067183E+01 -0.17127751941E+02  0.19017139313E+02  0.00000000000E+00 0.  1.
</event>
<event>
 7    1  0.2001181E-008  0.4614232E+02  0.7816164E-02  0.1320468E+00
        -11   -1    0    0    0    0  0.00000000000E+00  0.00000000000E+00  0.45593999997E+02  0.45594000000E+02  0.51100000000E-03 0.  1.
         11   -1    0    0    0    0 -0.00000000000E+00 -0.00000000000E+00 -0.45593999997E+02  0.45594000000E+02  0.51100000000E-03 0. -1.
    9900012    2    1    2    0    0 -0.27197748243E+02 -0.27704309545E+02 -0.22844413684E+02  0.46142317483E+02  0.99999974613E+01 0.  0.
        -12    1    1    2    0    0  0.27197748243E+02  0.27704309545E+02  0.22844413684E+02  0.45045682517E+02  0.00000000000E+00 0.  1.
         11    1    3    3    0    0 -0.79472298667E+01 -0.10952656685E+02 -0.83364803676E+01  0.15893899968E+02  0.51100000000E-03 0. -1.
        -11    1    3    3    0    0  0.66297748428E+00 -0.66618313527E+00 -0.42249574241E+00  0.10304571936E+01  0.51100000000E-03 0.  1.
         12    1    3    3    0    0 -0.19913495861E+02 -0.16085469725E+02 -0.14085437574E+02  0.29217960321E+02  0.00000000000E+00 0. -1.
</event>
<event>
 7    1  0.2001181E-008  0.4614232E+02  0.7816164E-02  0.1320468E+00
        -11   -1    0    0    0    0  0.00000000000E+00  0.00000000000E+00  0.45593999997E+02  0.45594000000E+02  0.51100000000E-03 0.  1.
         11   -1    0    0    0    0 -0.00000000000E+00 -0.00000000000E+00 -0.45593999997E+02  0.45594000000E+02  0.51100000000E-03 0. -1.
    9900012    2    1    2    0    0  0.47986423007E+00  0.43602623671E+02 -0.11300192121E+02  0.46142318713E+02  0.10000008681E+02 0.  0.
        -12    1    1    2    0    0 -0.47986423007E+00 -0.43602623671E+02  0.11300192121E+02  0.45045681287E+02  0.00000000000E+00 0.  1.
         11    1    3    3    0    0 -0.22071887612E+01  0.59028542009E+01 -0.11902800438E+01  0.64134340870E+01  0.51100000000E-03 0. -1.
        -11    1    3    3    0    0  0.15612159704E+01  0.63040693315E+01 -0.42763590383E+01  0.77759843318E+01  0.51100000000E-03 0.  1.
         12    1    3    3    0    0  0.11258370209E+01  0.31395700138E+02 -0.58335530386E+01  0.31952900294E+02  0.00000000000E+00 0. -1.
</event>
<event>
 7    1  0.2001181E-008  0.4614231E+02  0.7816164E-02  0.1320468E+00
        -11   -1    0    0    0    0  0.00000000000E+00  0.00000000000E+00  0.45593999997E+02  0.45594000000E+02  0.51100000000E-03 0.  1.
         11   -1    0    0    0    0 -0.00000000000E+00 -0.00000000000E+00 -0.45593999997E+02  0.45594000000E+02  0.51100000000E-03 0. -1.
    9900012    2    1    2    0    0 -0.40630030713E+01  0.36348191681E+02 -0.26294767554E+02  0.46142313934E+02  0.99999651048E+01 0.  0.
        -12    1    1    2    0    0  0.40630030713E+01 -0.36348191681E+02  0.26294767554E+02  0.45045686066E+02  0.00000000000E+00 0.  1.
         11    1    3    3    0    0 -0.28013526975E+01  0.51455716031E+01 -0.23502659442E+01  0.63125457882E+01  0.51100000000E-03 0. -1.
        -11    1    3    3    0    0 -0.11932729611E+01  0.16821649224E+01 -0.47441060213E+00  0.21162809044E+01  0.51100000000E-03 0.  1.
        -12    1    3    3    0    0 -0.68377412768E-01  0.29520455155E+02 -0.23470091007E+02  0.37713487242E+02  0.00000000000E+00 0.  1.
</event>
<event>
 7    1  0.2001181E-008  0.4614232E+02  0.7816164E-02  0.1320468E+00
        -11   -1    0    0    0    0  0.00000000000E+00  0.00000000000E+00  0.45593999997E+02  0.45594000000E+02  0.51100000000E-03 0.  1.
         11   -1    0    0    0    0 -0.00000000000E+00 -0.00000000000E+00 -0.45593999997E+02  0.45594000000E+02  0.51100000000E-03 0. -1.
    9900012    2    1    2    0    0 -0.20409890692E+01  0.17157732291E+02 -0.41599997958E+02  0.46142320475E+02  0.10000024748E+02 0.  0.
        -12    1    1    2    0    0  0.20409890692E+01 -0.17157732291E+02  0.41599997958E+02  0.45045679525E+02  0.00000000000E+00 0.  1.
         11    1    3    3    0    0 -0.14860348519E+01  0.14017243668E+01 -0.19452587205E+01  0.28208442942E+01  0.51100000000E-03 0. -1.
        -11    1    3    3    0    0  0.15250257493E+01  0.64386942716E+01 -0.87144587656E+01  0.10941859042E+02  0.51100000000E-03 0.  1.
         12    1    3    3    0    0 -0.20799799666E+01  0.93173136526E+01 -0.30940280472E+02  0.32379617139E+02  0.00000000000E+00 0. -1.
</event>
<event>
 7    1  0.2001181E-008  0.4614232E+02  0.7816164E-02  0.1320468E+00
        -11   -1    0    0    0    0  0.00000000000E+00  0.00000000000E+00  0.45593999997E+02  0.45594000000E+02  0.51100000000E-03 0.  1.
         11   -1    0    0    0    0 -0.00000000000E+00 -0.00000000000E+00 -0.45593999997E+02  0.45594000000E+02  0.51100000000E-03 0. -1.
    9900012    2    1    2    0    0 -0.14465863015E+02  0.21160337636E+02 -0.37041766010E+02  0.46142317512E+02  0.99999977317E+01 0.  0.
        -12    1    1    2    0    0  0.14465863015E+02 -0.21160337636E+02  0.37041766010E+02  0.45045682488E+02  0.00000000000E+00 0.  1.
         11    1    3    3    0    0 -0.68258821198E+01  0.87276111891E+01 -0.87558583250E+01  0.14121930429E+02  0.51100000000E-03 0. -1.
        -11    1    3    3    0    0 -0.59297190922E+01  0.10186066057E+02 -0.19431223953E+02  0.22726415793E+02  0.51100000000E-03 0.  1.
        -12    1    3    3    0    0 -0.17102618029E+01  0.22466603899E+01 -0.88546837325E+01  0.92939712903E+01  0.00000000000E+00 0.  1.
</event>
<event>
 7    1  0.2001181E-008  0.4614232E+02  0.7816164E-02  0.1320468E+00
        -11   -1    0    0    0    0  0.00000000000E+00  0.00000000000E+00  0.45593999997E+02  0.45594000000E+02  0.51100000000E-03 0.  1.
         11   -1    0    0    0    0 -0.00000000000E+00 -0.00000000000E+00 -0.45593999997E+02  0.45594000000E+02  0.51100000000E-03 0. -1.
    9900012    2    1    2    0    0 -0.25093313145E+02  0.12195771565E+02 -0.35365268957E+02  0.46142318109E+02  0.10000003168E+02 0.  0.
        -12    1    1    2    0    0  0.25093313145E+02 -0.12195771565E+02  0.35365268957E+02  0.45045681891E+02  0.00000000000E+00 0.  1.
         11    1    3    3    0    0 -0.80250492913E+01  0.90744068239E+01 -0.12284828284E+02  0.17252920957E+02  0.51100000000E-03 0. -1.
        -11    1    3    3    0    0 -0.35101009294E+01  0.49048326046E+00 -0.52841296390E+01  0.63626573588E+01  0.51100000000E-03 0.  1.
         12    1    3    3    0    0 -0.13558162924E+02  0.26308814809E+01 -0.17796311035E+02  0.22526739793E+02  0.00000000000E+00 0. -1.
</event>
<event>
 7    1  0.2001181E-008  0.4614232E+02  0.7816164E-02  0.1320468E+00
        -11   -1    0    0    0    0  0.00000000000E+00  0.00000000000E+00  0.45593999997E+02  0.45594000000E+02  0.51100000000E-03 0.  1.
         11   -1    0    0    0    0 -0.00000000000E+00 -0.00000000000E+00 -0.45593999997E+02  0.45594000000E+02  0.51100000000E-03 0. -1.
    9900012    2    1    2    0    0 -0.23052124476E+02  0.38329142337E+02  0.53469492629E+01  0.46142318058E+02  0.10000002711E+02 0.  0.
        -12    1    1    2    0    0  0.23052124476E+02 -0.38329142337E+02 -0.53469492629E+01  0.45045681942E+02  0.00000000000E+00 0.  1.
         11    1    3    3    0    0 -0.13470643593E+02  0.20867953994E+02 -0.42801117267E+00  0.24841757920E+02  0.51100000000E-03 0. -1.
        -11    1    3    3    0    0 -0.67029907129E+01  0.15715367942E+02  0.53729938271E+01  0.17910107118E+02  0.51100000000E-03 0.  1.
        -12    1    3    3    0    0 -0.28784901700E+01  0.17458204011E+01  0.40196660853E+00  0.33904530208E+01  0.00000000000E+00 0.  1.
</event>
<event>
 7    1  0.2001181E-008  0.4614232E+02  0.7816164E-02  0.1320468E+00
        -11   -1    0    0    0    0  0.00000000000E+00  0.00000000000E+00  0.45593999997E+02  0.45594000000E+02  0.51100000000E-03 0. -1.
         11   -1    0    0    0    0 -0.00000000000E+00 -0.00000000000E+00 -0.45593999997E+02  0.45594000000E+02  0.51100000000E-03 0.  1.
    9900012    2    1    2    0    0 -0.22506989468E+02  0.27107497752E+02  0.28066572756E+02  0.46142317460E+02  0.99999972537E+01 0.  0.
        -12    1    1    2    0    0  0.22506989468E+02 -0.27107497752E+02 -0.28066572756E+02  0.45045682540E+02  0.00000000000E+00 0.  1.
         11    1    3    3    0    0 -0.27057716506E+01  0.95320111114E+00  0.56793650436E+00  0.29244392142E+01  0.51100000000E-03 0. -1.
        -11    1    3    3    0    0 -0.10071403865E+02  0.85583368430E+01  0.10227684309E+02  0.16711787215E+02  0.51100000000E-03 0.  1.
         12    1    3    3    0    0 -0.97298139516E+01  0.17595959797E+02  0.17270951943E+02  0.26506091031E+02  0.00000000000E+00 0. -1.
</event>
<event>
 7    1  0.2001181E-008  0.4614232E+02  0.7816164E-02  0.1320468E+00
        -11   -1    0    0    0    0  0.00000000000E+00  0.00000000000E+00  0.45593999997E+02  0.45594000000E+02  0.51100000000E-03 0.  1.
         11   -1    0    0    0    0 -0.00000000000E+00 -0.00000000000E+00 -0.45593999997E+02  0.45594000000E+02  0.51100000000E-03 0. -1.
    9900012    2    1    2    0    0 -0.37001944428E+02 -0.17609334037E+02  0.18705102887E+02  0.46142318624E+02  0.10000007867E+02 0.  0.
        -12    1    1    2    0    0  0.37001944428E+02  0.17609334037E+02 -0.18705102887E+02  0.45045681376E+02  0.00000000000E+00 0.  1.
         11    1    3    3    0    0 -0.67087200247E+01 -0.37750267491E+01  0.71740099605E+00  0.77312622370E+01  0.51100000000E-03 0. -1.
        -11    1    3    3    0    0 -0.13937909242E+02 -0.99587558419E+01  0.91905432895E+01  0.19439861578E+02  0.51100000000E-03 0.  1.
        -12    1    3    3    0    0 -0.16355315161E+02 -0.38755514458E+01  0.87971586010E+01  0.18971194809E+02  0.00000000000E+00 0.  1.
</event>
<event>
 7    1  0.2001181E-008  0.4614232E+02  0.7816164E-02  0.1320468E+00
        -11   -1    0    0    0    0  0.00000000000E+00  0.00000000000E+00  0.45593999997E+02  0.45594000000E+02  0.51100000000E-03 0.  1.
         11   -1    0    0    0    0 -0.00000000000E+00 -0.00000000000E+00 -0.45593999997E+02  0.45594000000E+02  0.51100000000E-03 0. -1.
    9900012    2    1    2    0    0  0.24620949588E+02 -0.15155152259E+02 -0.34543359908E+02  0.46142317495E+02  0.99999975732E+01 0.  0.
        -12    1    1    2    0    0 -0.24620949588E+02  0.15155152259E+02  0.34543359908E+02  0.45045682505E+02  0.00000000000E+00 0.  1.
         11    1    3    3    0    0  0.70702567691E+01 -0.33447917623E+01 -0.53525148414E+01  0.94776356811E+01  0.51100000000E-03 0. -1.
        -11    1    3    3    0    0 -0.57311349284E+00 -0.40708125978E-01 -0.70871708278E+00  0.91235760080E+00  0.51100000000E-03 0.  1.
         12    1    3    3    0    0  0.18123806312E+02 -0.11769652371E+02 -0.28482127984E+02  0.35752324213E+02  0.00000000000E+00 0. -1.
</event>
<event>
 7    1  0.2001181E-008  0.4614232E+02  0.7816164E-02  0.1320468E+00
        -11   -1    0    0    0    0  0.00000000000E+00  0.00000000000E+00  0.45593999997E+02  0.45594000000E+02  0.51100000000E-03 0. -1.
         11   -1    0    0    0    0 -0.00000000000E+00 -0.00000000000E+00 -0.45593999997E+02  0.45594000000E+02  0.51100000000E-03 0.  1.
    9900012    2    1    2    0    0 -0.18280824737E+02 -0.81631302684E+01  0.40352053962E+02  0.46142317545E+02  0.99999980289E+01 0.  0.
        -12    1    1    2    0    0  0.18280824737E+02  0.81631302684E+01 -0.40352053962E+02  0.45045682455E+02  0.00000000000E+00 0.  1.
         11    1    3    3    0    0 -0.52577384147E+01 -0.65990212739E+01  0.18299262353E+02  0.20150779090E+02  0.51100000000E-03 0.  1.
        -11    1    3    3    0    0 -0.93089146502E+00 -0.24215536964E+00  0.47150501710E+01  0.48121613148E+01  0.51100000000E-03 0. -1.
        -12    1    3    3    0    0 -0.12092194858E+02 -0.13219536249E+01  0.17337741438E+02  0.21179377140E+02  0.00000000000E+00 0.  1.
</event>
<event>
 7    1  0.2001181E-008  0.4614232E+02  0.7816164E-02  0.1320468E+00
        -11   -1    0    0    0    0  0.00000000000E+00  0.00000000000E+00  0.45593999997E+02  0.45594000000E+02  0.51100000000E-03 0.  1.
         11   -1    0    0    0    0 -0.00000000000E+00 -0.00000000000E+00 -0.45593999997E+02  0.45594000000E+02  0.51100000000E-03 0. -1.
    9900012    2    1    2    0    0 -0.74910933982E+01 -0.36777832563E+02 -0.24907577087E+02  0.46142324906E+02  0.10000065151E+02 0.  0.
        -12    1    1    2    0    0  0.74910933982E+01  0.36777832563E+02  0.24907577087E+02  0.45045675094E+02  0.00000000000E+00 0.  1.
         11    1    3    3    0    0 -0.70051035051E+01 -0.12700285625E+02 -0.85743994064E+01  0.16849007553E+02  0.51100000000E-03 0. -1.
        -11    1    3    3    0    0  0.73383646462E+00 -0.40998273449E+01 -0.40522920629E+01  0.58110387573E+01  0.51100000000E-03 0.  1.
         12    1    3    3    0    0 -0.12198263578E+01 -0.19977719593E+02 -0.12280885618E+02  0.23482278596E+02  0.00000000000E+00 0. -1.
</event>
<event>
 7    1  0.2001181E-008  0.4614232E+02  0.7816164E-02  0.1320468E+00
        -11   -1    0    0    0    0  0.00000000000E+00  0.00000000000E+00  0.45593999997E+02  0.45594000000E+02  0.51100000000E-03 0. -1.
         11   -1    0    0    0    0 -0.00000000000E+00 -0.00000000000E+00 -0.45593999997E+02  0.45594000000E+02  0.51100000000E-03 0.  1.
    9900012    2    1    2    0    0  0.43344401424E+02 -0.20604098798E+01  0.12088465962E+02  0.46142318376E+02  0.10000005606E+02 0.  0.
        -12    1    1    2    0    0 -0.43344401424E+02  0.20604098798E+01 -0.12088465962E+02  0.45045681624E+02  0.00000000000E+00 0.  1.
         11    1    3    3    0    0  0.15412908983E+02  0.14365396504E+01  0.64418644797E+01  0.16766604538E+02  0.51100000000E-03 0. -1.
        -11    1    3    3    0    0  0.21296893809E+02 -0.39226411963E+01  0.18848563966E+01  0.21737007240E+02  0.51100000000E-03 0.  1.
        -12    1    3    3    0    0  0.66345986316E+01  0.42569166621E+00  0.37617450854E+01  0.76387065976E+01  0.00000000000E+00 0.  1.
</event>
<event>
 7    1  0.2001181E-008  0.4614232E+02  0.7816164E-02  0.1320468E+00
        -11   -1    0    0    0    0  0.00000000000E+00  0.00000000000E+00  0.45593999997E+02  0.45594000000E+02  0.51100000000E-03 0.  1.
         11   -1    0    0    0    0 -0.00000000000E+00 -0.00000000000E+00 -0.45593999997E+02  0.45594000000E+02  0.51100000000E-03 0. -1.
    9900012    2    1    2    0    0  0.23063386883E+02 -0.25351279631E+01 -0.38610449561E+02  0.46142317592E+02  0.99999984588E+01 0.  0.
        -12    1    1    2    0    0 -0.23063386883E+02  0.25351279631E+01  0.38610449561E+02  0.45045682408E+02  0.00000000000E+00 0.  1.
         11    1    3    3    0    0  0.91592696303E+01 -0.38909691904E+01 -0.20778265854E+02  0.23038406924E+02  0.51100000000E-03 0. -1.
        -11    1    3    3    0    0  0.12932593782E-02  0.67738863698E+00 -0.36675324515E+00  0.77030204594E+00  0.51100000000E-03 0.  1.
        -12    1    3    3    0    0  0.13902823993E+02  0.67845259036E+00 -0.17465430461E+02  0.22333608622E+02  0.00000000000E+00 0.  1.
</event>
<event>
 7    1  0.2001181E-008  0.4614232E+02  0.7816164E-02  0.1320468E+00
        -11   -1    0    0    0    0  0.00000000000E+00  0.00000000000E+00  0.45593999997E+02  0.45594000000E+02  0.51100000000E-03 0.  1.
         11   -1    0    0    0    0 -0.00000000000E+00 -0.00000000000E+00 -0.45593999997E+02  0.45594000000E+02  0.51100000000E-03 0. -1.
    9900012    2    1    2    0    0 -0.98646855522E+01  0.30486653303E+02 -0.31660157274E+02  0.46142316419E+02  0.99999877609E+01 0.  0.
        -12    1    1    2    0    0  0.98646855522E+01 -0.30486653303E+02  0.31660157274E+02  0.45045683581E+02  0.00000000000E+00 0.  1.
         11    1    3    3    0    0 -0.97100620598E+01  0.17289161166E+02 -0.20180538081E+02  0.28292304900E+02  0.51100000000E-03 0.  1.
        -11    1    3    3    0    0 -0.11035246743E+01  0.14755797172E+01 -0.99187184449E+00  0.20925850582E+01  0.51100000000E-03 0. -1.
         12    1    3    3    0    0  0.94890118193E+00  0.11721912420E+02 -0.10487747348E+02  0.15757426461E+02  0.00000000000E+00 0. -1.
</event>
<event>
 7    1  0.2001181E-008  0.4614232E+02  0.7816164E-02  0.1320468E+00
        -11   -1    0    0    0    0  0.00000000000E+00  0.00000000000E+00  0.45593999997E+02  0.45594000000E+02  0.51100000000E-03 0.  1.
         11   -1    0    0    0    0 -0.00000000000E+00 -0.00000000000E+00 -0.45593999997E+02  0.45594000000E+02  0.51100000000E-03 0. -1.
    9900012    2    1    2    0    0 -0.33610965732E+02  0.36003762786E+01 -0.29773372936E+02  0.46142318045E+02  0.10000002590E+02 0.  0.
        -12    1    1    2    0    0  0.33610965732E+02 -0.36003762786E+01  0.29773372936E+02  0.45045681955E+02  0.00000000000E+00 0.  1.
         11    1    3    3    0    0 -0.20297066946E+02  0.59504518040E+01 -0.16955905587E+02  0.27108698563E+02  0.51100000000E-03 0. -1.
        -11    1    3    3    0    0 -0.13534410497E+02 -0.23633988706E+01 -0.12186492985E+02  0.18365090070E+02  0.51100000000E-03 0.  1.
        -12    1    3    3    0    0  0.22051171115E+00  0.13323345089E-01 -0.63097436413E+00  0.66852941182E+00  0.00000000000E+00 0.  1.
</event>
<event>
 7    1  0.2001181E-008  0.4614232E+02  0.7816164E-02  0.1320468E+00
        -11   -1    0    0    0    0  0.00000000000E+00  0.00000000000E+00  0.45593999997E+02  0.45594000000E+02  0.51100000000E-03 0.  1.
         11   -1    0    0    0    0 -0.00000000000E+00 -0.00000000000E+00 -0.45593999997E+02  0.45594000000E+02  0.51100000000E-03 0. -1.
    9900012    2    1    2    0    0  0.81718552525E+01  0.40400738861E+02 -0.18169061688E+02  0.46142315174E+02  0.99999764097E+01 0.  0.
        -12    1    1    2    0    0 -0.81718552525E+01 -0.40400738861E+02  0.18169061688E+02  0.45045684826E+02  0.00000000000E+00 0.  1.
         11    1    3    3    0    0  0.55170633082E+01  0.12496622896E+02 -0.82518021123E+01  0.15959192013E+02  0.51100000000E-03 0. -1.
        -11    1    3    3    0    0  0.67715053871E+00  0.34454220353E+01  0.45849950534E+00  0.35411421760E+01  0.51100000000E-03 0.  1.
         12    1    3    3    0    0  0.19776414057E+01  0.24458693930E+02 -0.10375759081E+02  0.26641980985E+02  0.00000000000E+00 0. -1.
</event>
<event>
 7    1  0.2001181E-008  0.4614232E+02  0.7816164E-02  0.1320468E+00
        -11   -1    0    0    0    0  0.00000000000E+00  0.00000000000E+00  0.45593999997E+02  0.45594000000E+02  0.51100000000E-03 0. -1.
         11   -1    0    0    0    0 -0.00000000000E+00 -0.00000000000E+00 -0.45593999997E+02  0.45594000000E+02  0.51100000000E-03 0.  1.
    9900012    2    1    2    0    0 -0.12443794297E+02 -0.23852250776E+02  0.36129431619E+02  0.46142315271E+02  0.99999772929E+01 0.  0.
        -12    1    1    2    0    0  0.12443794297E+02  0.23852250776E+02 -0.36129431619E+02  0.45045684729E+02  0.00000000000E+00 0.  1.
         11    1    3    3    0    0 -0.77964882222E+01 -0.67173420133E+01  0.14846253185E+02  0.18064305860E+02  0.51100000000E-03 0. -1.
        -11    1    3    3    0    0 -0.24399676328E+01 -0.58352900599E+01  0.46558591096E+01  0.78537300973E+01  0.51100000000E-03 0.  1.
        -12    1    3    3    0    0 -0.22073384425E+01 -0.11299618703E+02  0.16627319325E+02  0.20224279313E+02  0.00000000000E+00 0.  1.
</event>
<event>
 7    1  0.2001181E-008  0.4614232E+02  0.7816164E-02  0.1320468E+00
        -11   -1    0    0    0    0  0.00000000000E+00  0.00000000000E+00  0.45593999997E+02  0.45594000000E+02  0.51100000000E-03 0.  1.
         11   -1    0    0    0    0 -0.00000000000E+00 -0.00000000000E+00 -0.45593999997E+02  0.45594000000E+02  0.51100000000E-03 0. -1.
    9900012    2    1    2    0    0  0.44482875773E+02  0.22935163871E+01 -0.67176643420E+01  0.46142317979E+02  0.10000001990E+02 0.  0.
        -12    1    1    2    0    0 -0.44482875773E+02 -0.22935163871E+01  0.67176643420E+01  0.45045682021E+02  0.00000000000E+00 0.  1.
         11    1    3    3    0    0  0.16216538714E+02  0.11039689801E+01 -0.33050157858E+01  0.16586681554E+02  0.51100000000E-03 0. -1.
        -11    1    3    3    0    0  0.22035043000E+02  0.26312487018E+01 -0.54353285269E+01  0.22847524728E+02  0.51100000000E-03 0.  1.
        -12    1    3    3    0    0  0.62312940596E+01 -0.14417012947E+01  0.20226799707E+01  0.67081116973E+01  0.00000000000E+00 0.  1.
</event>
<event>
 7    1  0.2001181E-008  0.4614232E+02  0.7816164E-02  0.1320468E+00
        -11   -1    0    0    0    0  0.00000000000E+00  0.00000000000E+00  0.45593999997E+02  0.45594000000E+02  0.51100000000E-03 0.  1.
         11   -1    0    0    0    0 -0.00000000000E+00 -0.00000000000E+00 -0.45593999997E+02  0.45594000000E+02  0.51100000000E-03 0. -1.
    9900012    2    1    2    0    0 -0.30491700795E+02  0.27789393935E+02 -0.18086440329E+02  0.46142317006E+02  0.99999931132E+01 0.  0.
        -12    1    1    2    0    0  0.30491700795E+02 -0.27789393935E+02  0.18086440329E+02  0.45045682994E+02  0.00000000000E+00 0.  1.
         11    1    3    3    0    0 -0.54780223331E+01  0.43242688857E+01 -0.40198961577E+01  0.80540421813E+01  0.51100000000E-03 0. -1.
        -11    1    3    3    0    0 -0.20007661130E+02  0.21786583589E+02 -0.14189152677E+02  0.32806916684E+02  0.51100000000E-03 0.  1.
        -12    1    3    3    0    0 -0.50060173320E+01  0.16785414604E+01  0.12260850605E+00  0.52813581405E+01  0.00000000000E+00 0.  1.
</event>
<event>
 7    1  0.2001181E-008  0.4614232E+02  0.7816164E-02  0.1320468E+00
        -11   -1    0    0    0    0  0.00000000000E+00  0.00000000000E+00  0.45593999997E+02  0.45594000000E+02  0.51100000000E-03 0.  1.
         11   -1    0    0    0    0 -0.00000000000E+00 -0.00000000000E+00 -0.45593999997E+02  0.45594000000E+02  0.51100000000E-03 0. -1.
    9900012    2    1    2    0    0  0.33677026391E+02  0.27392808184E+02 -0.12025200347E+02  0.46142317741E+02  0.99999998182E+01 0.  0.
        -12    1    1    2    0    0 -0.33677026391E+02 -0.27392808184E+02  0.12025200347E+02  0.45045682259E+02  0.00000000000E+00 0.  1.
         11    1    3    3    0    0  0.12248138598E+02  0.68431102479E+01 -0.75675385021E+01  0.15940912653E+02  0.51100000000E-03 0. -1.
        -11    1    3    3    0    0  0.51846420609E+01  0.53085477540E+01  0.29099017978E+00  0.74260264006E+01  0.51100000000E-03 0.  1.
         12    1    3    3    0    0  0.16244245732E+02  0.15241150182E+02 -0.47486520246E+01  0.22775378687E+02  0.00000000000E+00 0. -1.
</event>
<event>
 7    1  0.2001181E-008  0.4614232E+02  0.7816164E-02  0.1320468E+00
        -11   -1    0    0    0    0  0.00000000000E+00  0.00000000000E+00  0.45593999997E+02  0.45594000000E+02  0.51100000000E-03 0.  1.
         11   -1    0    0    0    0 -0.00000000000E+00 -0.00000000000E+00 -0.45593999997E+02  0.45594000000E+02  0.51100000000E-03 0. -1.
    9900012    2    1    2    0    0  0.30614562562E+02 -0.32671492501E+02  0.49432453199E+01  0.46142317217E+02  0.99999950389E+01 0.  0.
        -12    1    1    2    0    0 -0.30614562562E+02  0.32671492501E+02 -0.49432453199E+01  0.45045682783E+02  0.00000000000E+00 0.  1.
         11    1    3    3    0    0  0.31582895508E+01 -0.58647533865E+01  0.19045093642E+01  0.69280070259E+01  0.51100000000E-03 0. -1.
        -11    1    3    3    0    0  0.79555646007E+00 -0.17665459887E+01 -0.13709723077E+01  0.23734279304E+01  0.51100000000E-03 0.  1.
         12    1    3    3    0    0  0.26660716551E+02 -0.25040193126E+02  0.44097082633E+01  0.36840882261E+02  0.00000000000E+00 0. -1.
</event>
<event>
 7    1  0.2001181E-008  0.4614232E+02  0.7816164E-02  0.1320468E+00
        -11   -1    0    0    0    0  0.00000000000E+00  0.00000000000E+00  0.45593999997E+02  0.45594000000E+02  0.51100000000E-03 0. -1.
         11   -1    0    0    0    0 -0.00000000000E+00 -0.00000000000E+00 -0.45593999997E+02  0.45594000000E+02  0.51100000000E-03 0.  1.
    9900012    2    1    2    0    0 -0.36645987022E+02  0.21345099218E+01  0.26108022812E+02  0.46142319268E+02  0.10000013744E+02 0.  0.
        -12    1    1    2    0    0  0.36645987022E+02 -0.21345099218E+01 -0.26108022812E+02  0.45045680732E+02  0.00000000000E+00 0.  1.
         11    1    3    3    0    0 -0.99368480142E+01  0.14439679930E+01  0.62551089812E+01  0.11830147110E+02  0.51100000000E-03 0. -1.
        -11    1    3    3    0    0 -0.88208444541E+01  0.39019616046E+01  0.86955148835E+01  0.12986322828E+02  0.51100000000E-03 0.  1.
        -12    1    3    3    0    0 -0.17888294554E+02 -0.32114196758E+01  0.11157398947E+02  0.21325849330E+02  0.00000000000E+00 0.  1.
</event>
<event>
 7    1  0.2001181E-008  0.4614232E+02  0.7816164E-02  0.1320468E+00
        -11   -1    0    0    0    0  0.00000000000E+00  0.00000000000E+00  0.45593999997E+02  0.45594000000E+02  0.51100000000E-03 0.  1.
         11   -1    0    0    0    0 -0.00000000000E+00 -0.00000000000E+00 -0.45593999997E+02  0.45594000000E+02  0.51100000000E-03 0. -1.
    9900012    2    1    2    0    0 -0.28302231140E+02  0.21939640733E+02 -0.27326714550E+02  0.46142318175E+02  0.10000003775E+02 0.  0.
        -12    1    1    2    0    0  0.28302231140E+02 -0.21939640733E+02  0.27326714550E+02  0.45045681825E+02  0.00000000000E+00 0.  1.
         11    1    3    3    0    0 -0.16993530985E+00 -0.47393155667E+00 -0.58662709619E+00  0.77305933863E+00  0.51100000000E-03 0. -1.
        -11    1    3    3    0    0 -0.15216903602E+01  0.40105459625E+01 -0.28331861598E+01  0.51407163457E+01  0.51100000000E-03 0.  1.
         12    1    3    3    0    0 -0.26610605470E+02  0.18403026327E+02 -0.23906901294E+02  0.40228542491E+02  0.00000000000E+00 0. -1.
</event>
<event>
 7    1  0.2001181E-008  0.4614232E+02  0.7816164E-02  0.1320468E+00
        -11   -1    0    0    0    0  0.00000000000E+00  0.00000000000E+00  0.45593999997E+02  0.45594000000E+02  0.51100000000E-03 0.  1.
         11   -1    0    0    0    0 -0.00000000000E+00 -0.00000000000E+00 -0.45593999997E+02  0.45594000000E+02  0.51100000000E-03 0. -1.
    9900012    2    1    2    0    0  0.43926387171E+02  0.81057417053E+00  0.99463023067E+01  0.46142318188E+02  0.10000003891E+02 0.  0.
        -12    1    1    2    0    0 -0.43926387171E+02 -0.81057417053E+00 -0.99463023067E+01  0.45045681812E+02  0.00000000000E+00 0.  1.
         11    1    3    3    0    0  0.63148207526E+01 -0.22961066712E+00 -0.14066064312E+01  0.64736561625E+01  0.51100000000E-03 0. -1.
        -11    1    3    3    0    0  0.33368459136E+01  0.49921498107E+00  0.26818051400E+01  0.43099692944E+01  0.51100000000E-03 0.  1.
        -12    1    3    3    0    0  0.34274720504E+02  0.54096985657E+00  0.86711035979E+01  0.35358692731E+02  0.00000000000E+00 0.  1.
</event>
<event>
 7    1  0.2001181E-008  0.4614232E+02  0.7816164E-02  0.1320468E+00
        -11   -1    0    0    0    0  0.00000000000E+00  0.00000000000E+00  0.45593999997E+02  0.45594000000E+02  0.51100000000E-03 0.  1.
         11   -1    0    0    0    0 -0.00000000000E+00 -0.00000000000E+00 -0.45593999997E+02  0.45594000000E+02  0.51100000000E-03 0. -1.
    9900012    2    1    2    0    0  0.32057307935E+02  0.26767000510E+02 -0.16881060054E+02  0.46142317666E+02  0.99999991349E+01 0.  0.
        -12    1    1    2    0    0 -0.32057307935E+02 -0.26767000510E+02  0.16881060054E+02  0.45045682334E+02  0.00000000000E+00 0.  1.
         11    1    3    3    0    0  0.23473463112E+01  0.12878289223E+01 -0.19789329443E+01  0.33293713967E+01  0.51100000000E-03 0. -1.
        -11    1    3    3    0    0  0.78295351446E-01  0.15940127919E+01 -0.21421176108E+01  0.26712684370E+01  0.51100000000E-03 0.  1.
         12    1    3    3    0    0  0.29631666273E+02  0.23885158796E+02 -0.12760009499E+02  0.40141677833E+02  0.00000000000E+00 0. -1.
</event>
<event>
 7    1  0.2001181E-008  0.4614231E+02  0.7816164E-02  0.1320468E+00
        -11   -1    0    0    0    0  0.00000000000E+00  0.00000000000E+00  0.45593999997E+02  0.45594000000E+02  0.51100000000E-03 0.  1.
         11   -1    0    0    0    0 -0.00000000000E+00 -0.00000000000E+00 -0.45593999997E+02  0.45594000000E+02  0.51100000000E-03 0. -1.
    9900012    2    1    2    0    0  0.16190779409E+02  0.13162027590E+02 -0.39921600900E+02  0.46142306237E+02  0.99998949115E+01 0.  0.
        -12    1    1    2    0    0 -0.16190779409E+02 -0.13162027590E+02  0.39921600900E+02  0.45045693763E+02  0.00000000000E+00 0.  1.
         11    1    3    3    0    0  0.73329810289E+01  0.18410267957E+01 -0.16124856767E+02  0.17809351377E+02  0.51100000000E-03 0. -1.
        -11    1    3    3    0    0  0.40078504052E+01  0.38006085614E+01 -0.14073583131E+02  0.15118638587E+02  0.51100000000E-03 0.  1.
        -12    1    3    3    0    0  0.48499479751E+01  0.75203922331E+01 -0.97231610017E+01  0.13214316273E+02  0.00000000000E+00 0.  1.
</event>
<event>
 7    1  0.2001181E-008  0.4614232E+02  0.7816164E-02  0.1320468E+00
        -11   -1    0    0    0    0  0.00000000000E+00  0.00000000000E+00  0.45593999997E+02  0.45594000000E+02  0.51100000000E-03 0.  1.
         11   -1    0    0    0    0 -0.00000000000E+00 -0.00000000000E+00 -0.45593999997E+02  0.45594000000E+02  0.51100000000E-03 0. -1.
    9900012    2    1    2    0    0 -0.37515192450E+02  0.10060171461E+02 -0.22814836586E+02  0.46142317823E+02  0.10000000562E+02 0.  0.
        -12    1    1    2    0    0  0.37515192450E+02 -0.10060171461E+02  0.22814836586E+02  0.45045682177E+02  0.00000000000E+00 0.  1.
         11    1    3    3    0    0 -0.23901364716E+02  0.35565411513E+01 -0.15705946331E+02  0.28820148693E+02  0.51100000000E-03 0. -1.
        -11    1    3    3    0    0 -0.51955456058E+01  0.98198460549E-01 -0.19191605749E+01  0.55395410147E+01  0.51100000000E-03 0.  1.
         12    1    3    3    0    0 -0.84182821279E+01  0.64054318487E+01 -0.51897296797E+01  0.11782628115E+02  0.00000000000E+00 0. -1.
</event>
<event>
 7    1  0.2001181E-008  0.4614232E+02  0.7816164E-02  0.1320468E+00
        -11   -1    0    0    0    0  0.00000000000E+00  0.00000000000E+00  0.45593999997E+02  0.45594000000E+02  0.51100000000E-03 0.  1.
         11   -1    0    0    0    0 -0.00000000000E+00 -0.00000000000E+00 -0.45593999997E+02  0.45594000000E+02  0.51100000000E-03 0. -1.
    9900012    2    1    2    0    0 -0.18276403413E+02  0.29124461757E+02 -0.29100725166E+02  0.46142318748E+02  0.10000008998E+02 0.  0.
        -12    1    1    2    0    0  0.18276403413E+02 -0.29124461757E+02  0.29100725166E+02  0.45045681252E+02  0.00000000000E+00 0.  1.
         11    1    3    3    0    0 -0.16387811078E+02  0.22154901556E+02 -0.19839816799E+02  0.33956123833E+02  0.51100000000E-03 0. -1.
        -11    1    3    3    0    0 -0.11835866304E+01  0.17467370313E+01 -0.49378567502E+01  0.53697669516E+01  0.51100000000E-03 0.  1.
         12    1    3    3    0    0 -0.70500570433E+00  0.52228231692E+01 -0.43230516163E+01  0.68164279632E+01  0.00000000000E+00 0. -1.
</event>
<event>
 7    1  0.2001181E-008  0.4614232E+02  0.7816164E-02  0.1320468E+00
        -11   -1    0    0    0    0  0.00000000000E+00  0.00000000000E+00  0.45593999997E+02  0.45594000000E+02  0.51100000000E-03 0.  1.
         11   -1    0    0    0    0 -0.00000000000E+00 -0.00000000000E+00 -0.45593999997E+02  0.45594000000E+02  0.51100000000E-03 0. -1.
    9900012    2    1    2    0    0  0.19470497032E+02  0.38010506416E+02 -0.14325322562E+02  0.46142315199E+02  0.99999766375E+01 0.  0.
        -12    1    1    2    0    0 -0.19470497032E+02 -0.38010506416E+02  0.14325322562E+02  0.45045684801E+02  0.00000000000E+00 0.  1.
         11    1    3    3    0    0 -0.45453691443E+00  0.15587404224E+00 -0.25805458974E+00  0.54542914850E+00  0.51100000000E-03 0. -1.
        -11    1    3    3    0    0  0.11022746705E+01  0.48053068410E+01  0.30215174598E+00  0.49393602039E+01  0.51100000000E-03 0.  1.
         12    1    3    3    0    0  0.18822759276E+02  0.33049325533E+02 -0.14369419718E+02  0.40657525847E+02  0.00000000000E+00 0. -1.
</event>
<event>
 7    1  0.2001181E-008  0.4614232E+02  0.7816164E-02  0.1320468E+00
        -11   -1    0    0    0    0  0.00000000000E+00  0.00000000000E+00  0.45593999997E+02  0.45594000000E+02  0.51100000000E-03 0.  1.
         11   -1    0    0    0    0 -0.00000000000E+00 -0.00000000000E+00 -0.45593999997E+02  0.45594000000E+02  0.51100000000E-03 0. -1.
    9900012    2    1    2    0    0  0.43222593544E+02  0.20003476440E+01  0.12526745790E+02  0.46142319369E+02  0.10000014665E+02 0.  0.
        -12    1    1    2    0    0 -0.43222593544E+02 -0.20003476440E+01 -0.12526745790E+02  0.45045680631E+02  0.00000000000E+00 0.  1.
         11    1    3    3    0    0  0.54474231924E+01 -0.29400526749E+00  0.11060749881E+01  0.55663507503E+01  0.51100000000E-03 0. -1.
        -11    1    3    3    0    0  0.92295827420E+01 -0.14952897450E+01 -0.60558209245E+00  0.93695154061E+01  0.51100000000E-03 0.  1.
        -12    1    3    3    0    0  0.28545587610E+02  0.37896426565E+01  0.12026252894E+02  0.31206453213E+02  0.00000000000E+00 0.  1.
</event>
<event>
 7    1  0.2001181E-008  0.4614232E+02  0.7816164E-02  0.1320468E+00
        -11   -1    0    0    0    0  0.00000000000E+00  0.00000000000E+00  0.45593999997E+02  0.45594000000E+02  0.51100000000E-03 0. -1.
         11   -1    0    0    0    0 -0.00000000000E+00 -0.00000000000E+00 -0.45593999997E+02  0.45594000000E+02  0.51100000000E-03 0.  1.
    9900012    2    1    2    0    0  0.22477701074E+02 -0.39036725311E+02  0.21654883688E-01  0.46142318326E+02  0.10000005147E+02 0.  0.
        -12    1    1    2    0    0 -0.22477701074E+02  0.39036725311E+02 -0.21654883688E-01  0.45045681674E+02  0.00000000000E+00 0.  1.
         11    1    3    3    0    0  0.56504822834E-01 -0.25799048431E+01  0.98249316140E+00  0.27612306800E+01  0.51100000000E-03 0. -1.
        -11    1    3    3    0    0  0.89375873152E+01 -0.14968929420E+02  0.30470160610E+01  0.17698407333E+02  0.51100000000E-03 0.  1.
        -12    1    3    3    0    0  0.13483608936E+02 -0.21487891048E+02 -0.40078543387E+01  0.25682680312E+02  0.00000000000E+00 0.  1.
</event>
<event>
 7    1  0.2001181E-008  0.4614232E+02  0.7816164E-02  0.1320468E+00
        -11   -1    0    0    0    0  0.00000000000E+00  0.00000000000E+00  0.45593999997E+02  0.45594000000E+02  0.51100000000E-03 0.  1.
         11   -1    0    0    0    0 -0.00000000000E+00 -0.00000000000E+00 -0.45593999997E+02  0.45594000000E+02  0.51100000000E-03 0. -1.
    9900012    2    1    2    0    0  0.44442686646E+02 -0.23881765470E+01 -0.69467593965E+01  0.46142320411E+02  0.10000024167E+02 0.  0.
        -12    1    1    2    0    0 -0.44442686646E+02  0.23881765470E+01  0.69467593965E+01  0.45045679589E+02  0.00000000000E+00 0.  1.
         11    1    3    3    0    0  0.24009217256E+02 -0.51295026012E+00 -0.18975258715E+01  0.24089546196E+02  0.51100000000E-03 0. -1.
        -11    1    3    3    0    0  0.15238699101E+02 -0.39941015996E+01 -0.27598699117E+01  0.15993363626E+02  0.51100000000E-03 0.  1.
         12    1    3    3    0    0  0.51947702879E+01  0.21188753127E+01 -0.22893636132E+01  0.60594105892E+01  0.00000000000E+00 0. -1.
</event>
<event>
 7    1  0.2001181E-008  0.4614232E+02  0.7816164E-02  0.1320468E+00
        -11   -1    0    0    0    0  0.00000000000E+00  0.00000000000E+00  0.45593999997E+02  0.45594000000E+02  0.51100000000E-03 0.  1.
         11   -1    0    0    0    0 -0.00000000000E+00 -0.00000000000E+00 -0.45593999997E+02  0.45594000000E+02  0.51100000000E-03 0. -1.
    9900012    2    1    2    0    0 -0.22258614357E+01 -0.25425713557E+02 -0.37117275307E+02  0.46142317685E+02  0.99999993064E+01 0.  0.
        -12    1    1    2    0    0  0.22258614357E+01  0.25425713557E+02  0.37117275307E+02  0.45045682315E+02  0.00000000000E+00 0.  1.
         11    1    3    3    0    0 -0.11918486805E+01 -0.96953365501E+01 -0.12023119556E+02  0.15491141282E+02  0.51100000000E-03 0. -1.
        -11    1    3    3    0    0 -0.40574901858E+01 -0.61504150116E+01 -0.84591499750E+01  0.11218201727E+02  0.51100000000E-03 0.  1.
         12    1    3    3    0    0  0.30234774306E+01 -0.95799619948E+01 -0.16635005776E+02  0.19432974677E+02  0.00000000000E+00 0. -1.
</event>
<event>
 7    1  0.2001181E-008  0.4614232E+02  0.7816164E-02  0.1320468E+00
        -11   -1    0    0    0    0  0.00000000000E+00  0.00000000000E+00  0.45593999997E+02  0.45594000000E+02  0.51100000000E-03 0. -1.
         11   -1    0    0    0    0 -0.00000000000E+00 -0.00000000000E+00 -0.45593999997E+02  0.45594000000E+02  0.51100000000E-03 0.  1.
    9900012    2    1    2    0    0  0.39199539204E+02 -0.14384260837E+02  0.16899781737E+02  0.46142318116E+02  0.10000003237E+02 0.  0.
        -12    1    1    2    0    0 -0.39199539204E+02  0.14384260837E+02 -0.16899781737E+02  0.45045681884E+02  0.00000000000E+00 0.  1.
         11    1    3    3    0    0  0.15595146322E+02 -0.48216512214E+01  0.23896318435E+01  0.16497492231E+02  0.51100000000E-03 0. -1.
        -11    1    3    3    0    0  0.15164403151E+02 -0.48850002050E+01  0.69286727190E+01  0.17373222379E+02  0.51100000000E-03 0.  1.
        -12    1    3    3    0    0  0.84399897308E+01 -0.46776094101E+01  0.75814771749E+01  0.12271603506E+02  0.00000000000E+00 0.  1.
</event>
<event>
 7    1  0.2001181E-008  0.4614232E+02  0.7816164E-02  0.1320468E+00
        -11   -1    0    0    0    0  0.00000000000E+00  0.00000000000E+00  0.45593999997E+02  0.45594000000E+02  0.51100000000E-03 0. -1.
         11   -1    0    0    0    0 -0.00000000000E+00 -0.00000000000E+00 -0.45593999997E+02  0.45594000000E+02  0.51100000000E-03 0.  1.
    9900012    2    1    2    0    0  0.16622639290E+02 -0.41736440499E+02  0.32971093305E+01  0.46142317272E+02  0.99999955406E+01 0.  0.
        -12    1    1    2    0    0 -0.16622639290E+02  0.41736440499E+02 -0.32971093305E+01  0.45045682728E+02  0.00000000000E+00 0.  1.
         11    1    3    3    0    0  0.69887634655E+01 -0.22853511544E+02  0.44854688417E+01  0.24315534863E+02  0.51100000000E-03 0. -1.
        -11    1    3    3    0    0  0.41175428938E+00 -0.49800123140E+01 -0.12178638401E+01  0.51432729692E+01  0.51100000000E-03 0.  1.
         12    1    3    3    0    0  0.92221215350E+01 -0.13902916641E+02  0.29504328875E-01  0.16683509440E+02  0.00000000000E+00 0. -1.
</event>
<event>
 7    1  0.2001181E-008  0.4614232E+02  0.7816164E-02  0.1320468E+00
        -11   -1    0    0    0    0  0.00000000000E+00  0.00000000000E+00  0.45593999997E+02  0.45594000000E+02  0.51100000000E-03 0.  1.
         11   -1    0    0    0    0 -0.00000000000E+00 -0.00000000000E+00 -0.45593999997E+02  0.45594000000E+02  0.51100000000E-03 0. -1.
    9900012    2    1    2    0    0 -0.23227748873E+02 -0.24262241556E+02 -0.30015477651E+02  0.46142316725E+02  0.99999905545E+01 0.  0.
        -12    1    1    2    0    0  0.23227748873E+02  0.24262241556E+02  0.30015477651E+02  0.45045683275E+02  0.00000000000E+00 0.  1.
         11    1    3    3    0    0 -0.17275841949E+02 -0.15822933367E+02 -0.24845797875E+02  0.34148698477E+02  0.51100000000E-03 0. -1.
        -11    1    3    3    0    0 -0.27204094571E+01 -0.14117821415E+01 -0.11236055012E+01  0.32643906036E+01  0.51100000000E-03 0.  1.
         12    1    3    3    0    0 -0.32314974671E+01 -0.70275260472E+01 -0.40460742752E+01  0.87292276442E+01  0.00000000000E+00 0. -1.
</event>
<event>
 7    1  0.2001181E-008  0.4614232E+02  0.7816164E-02  0.1320468E+00
        -11   -1    0    0    0    0  0.00000000000E+00  0.00000000000E+00  0.45593999997E+02  0.45594000000E+02  0.51100000000E-03 0.  1.
         11   -1    0    0    0    0 -0.00000000000E+00 -0.00000000000E+00 -0.45593999997E+02  0.45594000000E+02  0.51100000000E-03 0. -1.
    9900012    2    1    2    0    0 -0.19034072087E+02  0.34383744129E+02 -0.22013086279E+02  0.46142315100E+02  0.99999757335E+01 0.  0.
        -12    1    1    2    0    0  0.19034072087E+02 -0.34383744129E+02  0.22013086279E+02  0.45045684900E+02  0.00000000000E+00 0.  1.
         11    1    3    3    0    0  0.88160432698E+00  0.15651294917E+01 -0.17861326366E+01  0.25332048026E+01  0.51100000000E-03 0.  1.
        -11    1    3    3    0    0 -0.24868197416E+01  0.24819855027E+01 -0.85001537912E+00  0.36148375993E+01  0.51100000000E-03 0. -1.
         12    1    3    3    0    0 -0.17428856672E+02  0.30336629135E+02 -0.19376938264E+02  0.39994272698E+02  0.00000000000E+00 0. -1.
</event>
<event>
 7    1  0.2001181E-008  0.4614232E+02  0.7816164E-02  0.1320468E+00
        -11   -1    0    0    0    0  0.00000000000E+00  0.00000000000E+00  0.45593999997E+02  0.45594000000E+02  0.51100000000E-03 0. -1.
         11   -1    0    0    0    0 -0.00000000000E+00 -0.00000000000E+00 -0.45593999997E+02  0.45594000000E+02  0.51100000000E-03 0.  1.
    9900012    2    1    2    0    0  0.24672817568E+02  0.24390191755E+02  0.28731238358E+02  0.46142318318E+02  0.10000005080E+02 0.  0.
        -12    1    1    2    0    0 -0.24672817568E+02 -0.24390191755E+02 -0.28731238358E+02  0.45045681682E+02  0.00000000000E+00 0.  1.
         11    1    3    3    0    0  0.12119627708E+02  0.14524211100E+02  0.15957401072E+02  0.24748267274E+02  0.51100000000E-03 0. -1.
        -11    1    3    3    0    0  0.55655204356E+01  0.75936405103E+01  0.48607460623E+01  0.10595529551E+02  0.51100000000E-03 0.  1.
         12    1    3    3    0    0  0.69876694247E+01  0.22723401450E+01  0.79130912237E+01  0.10798521493E+02  0.00000000000E+00 0. -1.
</event>
<event>
 7    1  0.2001181E-008  0.4614232E+02  0.7816164E-02  0.1320468E+00
        -11   -1    0    0    0    0  0.00000000000E+00  0.00000000000E+00  0.45593999997E+02  0.45594000000E+02  0.51100000000E-03 0. -1.
         11   -1    0    0    0    0 -0.00000000000E+00 -0.00000000000E+00 -0.45593999997E+02  0.45594000000E+02  0.51100000000E-03 0.  1.
    9900012    2    1    2    0    0  0.45007041848E+02 -0.65376701083E+00  0.17470600465E+01  0.46142318231E+02  0.10000004288E+02 0.  0.
        -12    1    1    2    0    0 -0.45007041848E+02  0.65376701083E+00 -0.17470600465E+01  0.45045681769E+02  0.00000000000E+00 0.  1.
         11    1    3    3    0    0  0.12972797298E+02 -0.38898961129E+01  0.25001755725E+01  0.13772277940E+02  0.51100000000E-03 0. -1.
        -11    1    3    3    0    0  0.19548349966E+02  0.16760879452E+01  0.11022590263E+01  0.19651010977E+02  0.51100000000E-03 0.  1.
         12    1    3    3    0    0  0.12485894584E+02  0.15600411569E+01 -0.18553745523E+01  0.12719029314E+02  0.00000000000E+00 0. -1.
</event>
<event>
 7    1  0.2001181E-008  0.4614232E+02  0.7816164E-02  0.1320468E+00
        -11   -1    0    0    0    0  0.00000000000E+00  0.00000000000E+00  0.45593999997E+02  0.45594000000E+02  0.51100000000E-03 0.  1.
         11   -1    0    0    0    0 -0.00000000000E+00 -0.00000000000E+00 -0.45593999997E+02  0.45594000000E+02  0.51100000000E-03 0. -1.
    9900012    2    1    2    0    0  0.88540877892E+01 -0.15507561755E+02 -0.41354977022E+02  0.46142318003E+02  0.10000002201E+02 0.  0.
        -12    1    1    2    0    0 -0.88540877892E+01  0.15507561755E+02  0.41354977022E+02  0.45045681997E+02  0.00000000000E+00 0.  1.
         11    1    3    3    0    0  0.17815754097E+01 -0.58543839152E+01 -0.96334054131E+01  0.11412726321E+02  0.51100000000E-03 0. -1.
        -11    1    3    3    0    0  0.45693605012E+01 -0.33436647213E+01 -0.65461396874E+01  0.86551195386E+01  0.51100000000E-03 0.  1.
         12    1    3    3    0    0  0.25031518783E+01 -0.63095131187E+01 -0.25175431921E+02  0.26074472143E+02  0.00000000000E+00 0. -1.
</event>
<event>
 7    1  0.2001181E-008  0.4614232E+02  0.7816164E-02  0.1320468E+00
        -11   -1    0    0    0    0  0.00000000000E+00  0.00000000000E+00  0.45593999997E+02  0.45594000000E+02  0.51100000000E-03 0. -1.
         11   -1    0    0    0    0 -0.00000000000E+00 -0.00000000000E+00 -0.45593999997E+02  0.45594000000E+02  0.51100000000E-03 0.  1.
    9900012    2    1    2    0    0 -0.22494043924E+02 -0.20524451791E+01  0.38973311049E+02  0.46142317439E+02  0.99999970645E+01 0.  0.
        -12    1    1    2    0    0  0.22494043924E+02  0.20524451791E+01 -0.38973311049E+02  0.45045682561E+02  0.00000000000E+00 0.  1.
         11    1    3    3    0    0 -0.44823938271E+01  0.28377587423E+00  0.30424799649E+01  0.54248564742E+01  0.51100000000E-03 0. -1.
        -11    1    3    3    0    0 -0.24380836407E+01 -0.20624789094E+01  0.96829276445E+01  0.10195938364E+02  0.51100000000E-03 0.  1.
         12    1    3    3    0    0 -0.15573566456E+02 -0.27374214400E+00  0.26247903439E+02  0.30521522601E+02  0.00000000000E+00 0. -1.
</event>
<event>
 7    1  0.2001181E-008  0.4614232E+02  0.7816164E-02  0.1320468E+00
        -11   -1    0    0    0    0  0.00000000000E+00  0.00000000000E+00  0.45593999997E+02  0.45594000000E+02  0.51100000000E-03 0.  1.
         11   -1    0    0    0    0 -0.00000000000E+00 -0.00000000000E+00 -0.45593999997E+02  0.45594000000E+02  0.51100000000E-03 0. -1.
    9900012    2    1    2    0    0 -0.32843705130E+02  0.12309862404E+02  0.28264320321E+02  0.46142317829E+02  0.10000000618E+02 0.  0.
        -12    1    1    2    0    0  0.32843705130E+02 -0.12309862404E+02 -0.28264320321E+02  0.45045682171E+02  0.00000000000E+00 0.  1.
         11    1    3    3    0    0 -0.22462689789E+02  0.70716468529E+01  0.19384892880E+02  0.30501716247E+02  0.51100000000E-03 0. -1.
        -11    1    3    3    0    0 -0.10052951782E+02  0.28448269759E+01  0.69402463389E+01  0.12542802699E+02  0.51100000000E-03 0.  1.
        -12    1    3    3    0    0 -0.32806355862E+00  0.23933885748E+01  0.19391811024E+01  0.30977988825E+01  0.00000000000E+00 0.  1.
</event>
<event>
 7    1  0.2001181E-008  0.4614232E+02  0.7816164E-02  0.1320468E+00
        -11   -1    0    0    0    0  0.00000000000E+00  0.00000000000E+00  0.45593999997E+02  0.45594000000E+02  0.51100000000E-03 0. -1.
         11   -1    0    0    0    0 -0.00000000000E+00 -0.00000000000E+00 -0.45593999997E+02  0.45594000000E+02  0.51100000000E-03 0.  1.
    9900012    2    1    2    0    0 -0.74942555330E+01 -0.41038244551E+02  0.16994473004E+02  0.46142317693E+02  0.99999993753E+01 0.  0.
        -12    1    1    2    0    0  0.74942555330E+01  0.41038244551E+02 -0.16994473004E+02  0.45045682307E+02  0.00000000000E+00 0.  1.
         11    1    3    3    0    0 -0.59157257886E+01 -0.10995621127E+02  0.47012799631E+01  0.13341721371E+02  0.51100000000E-03 0.  1.
        -11    1    3    3    0    0 -0.14779586933E+01 -0.81051345040E+01  0.15886953492E+01  0.83905613877E+01  0.51100000000E-03 0. -1.
        -12    1    3    3    0    0 -0.10057105112E+00 -0.21937488920E+02  0.10704497692E+02  0.24410034934E+02  0.00000000000E+00 0.  1.
</event>
<event>
 7    1  0.2001181E-008  0.4614232E+02  0.7816164E-02  0.1320468E+00
        -11   -1    0    0    0    0  0.00000000000E+00  0.00000000000E+00  0.45593999997E+02  0.45594000000E+02  0.51100000000E-03 0.  1.
         11   -1    0    0    0    0 -0.00000000000E+00 -0.00000000000E+00 -0.45593999997E+02  0.45594000000E+02  0.51100000000E-03 0. -1.
    9900012    2    1    2    0    0  0.42883509972E+02  0.11779166490E+02  0.71672350798E+01  0.46142318193E+02  0.10000003942E+02 0.  0.
        -12    1    1    2    0    0 -0.42883509972E+02 -0.11779166490E+02 -0.71672350798E+01  0.45045681807E+02  0.00000000000E+00 0.  1.
         11    1    3    3    0    0  0.28215573675E+02  0.52434081127E+01  0.23212298066E+01  0.28792360697E+02  0.51100000000E-03 0. -1.
        -11    1    3    3    0    0  0.18696752738E+01  0.27400311750E+00  0.21264654594E+01  0.28447528801E+01  0.51100000000E-03 0.  1.
         12    1    3    3    0    0  0.12798261024E+02  0.62617552599E+01  0.27195398138E+01  0.14505204616E+02  0.00000000000E+00 0. -1.
</event>
<event>
 7    1  0.2001181E-008  0.4614232E+02  0.7816164E-02  0.1320468E+00
        -11   -1    0    0    0    0  0.00000000000E+00  0.00000000000E+00  0.45593999997E+02  0.45594000000E+02  0.51100000000E-03 0.  1.
         11   -1    0    0    0    0 -0.00000000000E+00 -0.00000000000E+00 -0.45593999997E+02  0.45594000000E+02  0.51100000000E-03 0. -1.
    9900012    2    1    2    0    0  0.43243657545E+02 -0.10604729555E+02  0.68293071734E+01  0.46142316042E+02  0.99999843255E+01 0.  0.
        -12    1    1    2    0    0 -0.43243657545E+02  0.10604729555E+02 -0.68293071734E+01  0.45045683958E+02  0.00000000000E+00 0.  1.
         11    1    3    3    0    0  0.20403102283E+02 -0.52688113522E+01 -0.16727926101E+01  0.21138713092E+02  0.51100000000E-03 0. -1.
        -11    1    3    3    0    0  0.23977616248E+01 -0.94395501631E+00  0.13196082718E+01  0.28951128017E+01  0.51100000000E-03 0.  1.
         12    1    3    3    0    0  0.20442793637E+02 -0.43919631862E+01  0.71824915117E+01  0.22108490148E+02  0.00000000000E+00 0. -1.
</event>
<event>
 7    1  0.2001181E-008  0.4614232E+02  0.7816164E-02  0.1320468E+00
        -11   -1    0    0    0    0  0.00000000000E+00  0.00000000000E+00  0.45593999997E+02  0.45594000000E+02  0.51100000000E-03 0.  1.
         11   -1    0    0    0    0 -0.00000000000E+00 -0.00000000000E+00 -0.45593999997E+02  0.45594000000E+02  0.51100000000E-03 0. -1.
    9900012    2    1    2    0    0 -0.63181194713E+01 -0.37087392578E+02 -0.24773377385E+02  0.46142317089E+02  0.99999938689E+01 0.  0.
        -12    1    1    2    0    0  0.63181194713E+01  0.37087392578E+02  0.24773377385E+02  0.45045682911E+02  0.00000000000E+00 0.  1.
         11    1    3    3    0    0 -0.26616268147E+01 -0.18632196796E+02 -0.15269062278E+02  0.24236073896E+02  0.51100000000E-03 0.  1.
        -11    1    3    3    0    0 -0.22315469537E+01 -0.79849526846E+01 -0.74400622110E+01  0.11139739546E+02  0.51100000000E-03 0. -1.
        -12    1    3    3    0    0 -0.14249457029E+01 -0.10470243097E+02 -0.20642528952E+01  0.10766503647E+02  0.00000000000E+00 0.  1.
</event>
<event>
 7    1  0.2001181E-008  0.4614231E+02  0.7816164E-02  0.1320468E+00
        -11   -1    0    0    0    0  0.00000000000E+00  0.00000000000E+00  0.45593999997E+02  0.45594000000E+02  0.51100000000E-03 0. -1.
         11   -1    0    0    0    0 -0.00000000000E+00 -0.00000000000E+00 -0.45593999997E+02  0.45594000000E+02  0.51100000000E-03 0.  1.
    9900012    2    1    2    0    0 -0.89863342854E+01  0.25423236170E+02  0.36083497972E+02  0.46142312447E+02  0.99999515416E+01 0.  0.
        -12    1    1    2    0    0  0.89863342854E+01 -0.25423236170E+02 -0.36083497972E+02  0.45045687553E+02  0.00000000000E+00 0.  1.
         11    1    3    3    0    0 -0.44455052143E+01  0.13130355806E+02  0.12012252285E+02  0.18342926850E+02  0.51100000000E-03 0. -1.
        -11    1    3    3    0    0 -0.13254021953E+01  0.13564997016E+01  0.71455792801E+01  0.73929754449E+01  0.51100000000E-03 0.  1.
        -12    1    3    3    0    0 -0.32154268758E+01  0.10936380662E+02  0.16925666406E+02  0.20406410152E+02  0.00000000000E+00 0.  1.
</event>
<event>
 7    1  0.2001181E-008  0.4614232E+02  0.7816164E-02  0.1320468E+00
        -11   -1    0    0    0    0  0.00000000000E+00  0.00000000000E+00  0.45593999997E+02  0.45594000000E+02  0.51100000000E-03 0.  1.
         11   -1    0    0    0    0 -0.00000000000E+00 -0.00000000000E+00 -0.45593999997E+02  0.45594000000E+02  0.51100000000E-03 0. -1.
    9900012    2    1    2    0    0  0.29413225283E+02 -0.38463277957E+00 -0.34114919003E+02  0.46142318049E+02  0.10000002621E+02 0.  0.
        -12    1    1    2    0    0 -0.29413225283E+02  0.38463277957E+00  0.34114919003E+02  0.45045681951E+02  0.00000000000E+00 0.  1.
         11    1    3    3    0    0  0.13529085865E+02 -0.26962565520E+01 -0.13810364862E+02  0.19520044611E+02  0.51100000000E-03 0. -1.
        -11    1    3    3    0    0  0.15828800721E+01 -0.17231665857E+01 -0.23497994446E+01  0.33160775166E+01  0.51100000000E-03 0.  1.
         12    1    3    3    0    0  0.14301259346E+02  0.40347903581E+01 -0.17954754696E+02  0.23306195921E+02  0.00000000000E+00 0. -1.
</event>
<event>
 7    1  0.2001181E-008  0.4614232E+02  0.7816164E-02  0.1320468E+00
        -11   -1    0    0    0    0  0.00000000000E+00  0.00000000000E+00  0.45593999997E+02  0.45594000000E+02  0.51100000000E-03 0. -1.
         11   -1    0    0    0    0 -0.00000000000E+00 -0.00000000000E+00 -0.45593999997E+02  0.45594000000E+02  0.51100000000E-03 0.  1.
    9900012    2    1    2    0    0 -0.13308516884E+02  0.42321958522E+02  0.78005536385E+01  0.46142318389E+02  0.10000005723E+02 0.  0.
        -12    1    1    2    0    0  0.13308516884E+02 -0.42321958522E+02 -0.78005536385E+01  0.45045681611E+02  0.00000000000E+00 0.  1.
         11    1    3    3    0    0 -0.27891091428E+01  0.44904701690E+01 -0.10976259807E+01  0.53989105571E+01  0.51100000000E-03 0.  1.
        -11    1    3    3    0    0 -0.10013486850E+02  0.32675113312E+02  0.56791118131E+01  0.34643690047E+02  0.51100000000E-03 0. -1.
        -12    1    3    3    0    0 -0.50592089070E+00  0.51563750408E+01  0.32190678060E+01  0.60997177844E+01  0.00000000000E+00 0.  1.
</event>
<event>
 7    1  0.2001181E-008  0.4614232E+02  0.7816164E-02  0.1320468E+00
        -11   -1    0    0    0    0  0.00000000000E+00  0.00000000000E+00  0.45593999997E+02  0.45594000000E+02  0.51100000000E-03 0.  1.
         11   -1    0    0    0    0 -0.00000000000E+00 -0.00000000000E+00 -0.45593999997E+02  0.45594000000E+02  0.51100000000E-03 0. -1.
    9900012    2    1    2    0    0 -0.26648847379E+02  0.28547837717E+02 -0.22449350829E+02  0.46142318103E+02  0.10000003114E+02 0.  0.
        -12    1    1    2    0    0  0.26648847379E+02 -0.28547837717E+02  0.22449350829E+02  0.45045681897E+02  0.00000000000E+00 0.  1.
         11    1    3    3    0    0 -0.12357792789E+02  0.15185954375E+02 -0.10466957138E+02  0.22201023510E+02  0.51100000000E-03 0. -1.
        -11    1    3    3    0    0 -0.27154577044E+01 -0.15582997109E+00 -0.51012497718E+00  0.27673491427E+01  0.51100000000E-03 0.  1.
        -12    1    3    3    0    0 -0.11575596886E+02  0.13517713312E+02 -0.11472268714E+02  0.21173945450E+02  0.00000000000E+00 0.  1.
</event>
<event>
 7    1  0.2001181E-008  0.4614232E+02  0.7816164E-02  0.1320468E+00
        -11   -1    0    0    0    0  0.00000000000E+00  0.00000000000E+00  0.45593999997E+02  0.45594000000E+02  0.51100000000E-03 0.  1.
         11   -1    0    0    0    0 -0.00000000000E+00 -0.00000000000E+00 -0.45593999997E+02  0.45594000000E+02  0.51100000000E-03 0. -1.
    9900012    2    1    2    0    0 -0.13530700727E+01 -0.39723012317E+02 -0.21198230186E+02  0.46142317974E+02  0.10000001943E+02 0.  0.
        -12    1    1    2    0    0  0.13530700727E+01  0.39723012317E+02  0.21198230186E+02  0.45045682026E+02  0.00000000000E+00 0.  1.
         11    1    3    3    0    0  0.30564908582E+00 -0.10158978692E+02 -0.37571289343E+01  0.10835787351E+02  0.51100000000E-03 0. -1.
        -11    1    3    3    0    0 -0.20958642634E+01 -0.43091167163E+01 -0.57168231324E+01  0.74594370346E+01  0.51100000000E-03 0.  1.
        -12    1    3    3    0    0  0.43714510493E+00 -0.25254916909E+02 -0.11724278120E+02  0.27847093589E+02  0.00000000000E+00 0.  1.
</event>
<event>
 7    1  0.2001181E-008  0.4614232E+02  0.7816164E-02  0.1320468E+00
        -11   -1    0    0    0    0  0.00000000000E+00  0.00000000000E+00  0.45593999997E+02  0.45594000000E+02  0.51100000000E-03 0.  1.
         11   -1    0    0    0    0 -0.00000000000E+00 -0.00000000000E+00 -0.45593999997E+02  0.45594000000E+02  0.51100000000E-03 0. -1.
    9900012    2    1    2    0    0  0.24293941557E+02 -0.28726357144E+01 -0.37824143455E+02  0.46142318071E+02  0.10000002825E+02 0.  0.
        -12    1    1    2    0    0 -0.24293941557E+02  0.28726357144E+01  0.37824143455E+02  0.45045681929E+02  0.00000000000E+00 0.  1.
         11    1    3    3    0    0  0.47066132385E+01  0.31121027316E+01 -0.61720030874E+01  0.83624765447E+01  0.51100000000E-03 0. -1.
        -11    1    3    3    0    0  0.33182547175E+01 -0.19707817054E+01 -0.54685149969E+01  0.66932392332E+01  0.51100000000E-03 0.  1.
        -12    1    3    3    0    0  0.16269073601E+02 -0.40139567406E+01 -0.26183625371E+02  0.31086602293E+02  0.00000000000E+00 0.  1.
</event>
<event>
 7    1  0.2001181E-008  0.4614232E+02  0.7816164E-02  0.1320468E+00
        -11   -1    0    0    0    0  0.00000000000E+00  0.00000000000E+00  0.45593999997E+02  0.45594000000E+02  0.51100000000E-03 0. -1.
         11   -1    0    0    0    0 -0.00000000000E+00 -0.00000000000E+00 -0.45593999997E+02  0.45594000000E+02  0.51100000000E-03 0.  1.
    9900012    2    1    2    0    0 -0.31964690513E+02  0.23829558882E+02  0.20964835091E+02  0.46142316227E+02  0.99999860147E+01 0.  0.
        -12    1    1    2    0    0  0.31964690513E+02 -0.23829558882E+02 -0.20964835091E+02  0.45045683773E+02  0.00000000000E+00 0.  1.
         11    1    3    3    0    0 -0.30689702976E+02  0.20658800910E+02  0.18739538195E+02  0.41470642819E+02  0.51100000000E-03 0. -1.
        -11    1    3    3    0    0 -0.47577760285E+00  0.12644357840E+01  0.22268285230E+01  0.26045974183E+01  0.51100000000E-03 0.  1.
         12    1    3    3    0    0 -0.79920993490E+00  0.19063221880E+01 -0.15316265525E-02  0.20670759905E+01  0.00000000000E+00 0. -1.
</event>
<event>
 7    1  0.2001181E-008  0.4614232E+02  0.7816164E-02  0.1320468E+00
        -11   -1    0    0    0    0  0.00000000000E+00  0.00000000000E+00  0.45593999997E+02  0.45594000000E+02  0.51100000000E-03 0.  1.
         11   -1    0    0    0    0 -0.00000000000E+00 -0.00000000000E+00 -0.45593999997E+02  0.45594000000E+02  0.51100000000E-03 0. -1.
    9900012    2    1    2    0    0  0.78363417475E+01 -0.16477470168E+02 -0.41184929455E+02  0.46142315531E+02  0.99999796620E+01 0.  0.
        -12    1    1    2    0    0 -0.78363417475E+01  0.16477470168E+02  0.41184929455E+02  0.45045684469E+02  0.00000000000E+00 0.  1.
         11    1    3    3    0    0  0.16171956271E+01 -0.12294017284E+02 -0.27347050132E+02  0.30026976768E+02  0.51100000000E-03 0. -1.
        -11    1    3    3    0    0  0.47668449188E+01 -0.45578776709E+01 -0.12361277522E+02  0.14010647436E+02  0.51100000000E-03 0.  1.
        -12    1    3    3    0    0  0.14523012016E+01  0.37442478677E+00 -0.14766018007E+01  0.21046913262E+01  0.00000000000E+00 0.  1.
</event>
<event>
 7    1  0.2001181E-008  0.4614231E+02  0.7816164E-02  0.1320468E+00
        -11   -1    0    0    0    0  0.00000000000E+00  0.00000000000E+00  0.45593999997E+02  0.45594000000E+02  0.51100000000E-03 0.  1.
         11   -1    0    0    0    0 -0.00000000000E+00 -0.00000000000E+00 -0.45593999997E+02  0.45594000000E+02  0.51100000000E-03 0. -1.
    9900012    2    1    2    0    0 -0.23776302601E+02  0.28204704420E+02 -0.25851418444E+02  0.46142314831E+02  0.99999732788E+01 0.  0.
        -12    1    1    2    0    0  0.23776302601E+02 -0.28204704420E+02  0.25851418444E+02  0.45045685169E+02  0.00000000000E+00 0.  1.
         11    1    3    3    0    0 -0.83607330451E+01  0.75234240356E+01 -0.91259831661E+01  0.14484037258E+02  0.51100000000E-03 0. -1.
        -11    1    3    3    0    0 -0.31608068164E+01  0.47768964416E+00 -0.26639599596E+01  0.41611981513E+01  0.51100000000E-03 0.  1.
         12    1    3    3    0    0 -0.12254762739E+02  0.20203590741E+02 -0.14061475318E+02  0.27497079422E+02  0.00000000000E+00 0. -1.
</event>
<event>
 7    1  0.2001181E-008  0.4614232E+02  0.7816164E-02  0.1320468E+00
        -11   -1    0    0    0    0  0.00000000000E+00  0.00000000000E+00  0.45593999997E+02  0.45594000000E+02  0.51100000000E-03 0.  1.
         11   -1    0    0    0    0 -0.00000000000E+00 -0.00000000000E+00 -0.45593999997E+02  0.45594000000E+02  0.51100000000E-03 0. -1.
    9900012    2    1    2    0    0  0.21135782245E+02 -0.18605510554E+02 -0.35160023481E+02  0.46142316907E+02  0.99999922151E+01 0.  0.
        -12    1    1    2    0    0 -0.21135782245E+02  0.18605510554E+02  0.35160023481E+02  0.45045683093E+02  0.00000000000E+00 0.  1.
         11    1    3    3    0    0  0.75812089533E+01 -0.39307075848E+01 -0.15111688521E+02  0.17357658872E+02  0.51100000000E-03 0. -1.
        -11    1    3    3    0    0  0.85968933909E+01 -0.10241303989E+02 -0.16528210313E+02  0.21259647687E+02  0.51100000000E-03 0.  1.
        -12    1    3    3    0    0  0.49576799007E+01 -0.44334989800E+01 -0.35201246474E+01  0.75250103480E+01  0.00000000000E+00 0.  1.
</event>
<event>
 7    1  0.2001181E-008  0.4614232E+02  0.7816164E-02  0.1320468E+00
        -11   -1    0    0    0    0  0.00000000000E+00  0.00000000000E+00  0.45593999997E+02  0.45594000000E+02  0.51100000000E-03 0.  1.
         11   -1    0    0    0    0 -0.00000000000E+00 -0.00000000000E+00 -0.45593999997E+02  0.45594000000E+02  0.51100000000E-03 0. -1.
    9900012    2    1    2    0    0  0.30113511996E+02  0.31466304277E+02 -0.11496147026E+02  0.46142319785E+02  0.10000018458E+02 0.  0.
        -12    1    1    2    0    0 -0.30113511996E+02 -0.31466304277E+02  0.11496147026E+02  0.45045680215E+02  0.00000000000E+00 0.  1.
         11    1    3    3    0    0  0.28736815152E+02  0.31118927847E+02 -0.12475679277E+02  0.44156933647E+02  0.51100000000E-03 0. -1.
        -11    1    3    3    0    0 -0.38025404236E-02 -0.22268920344E+00  0.57091404404E-01  0.22992309632E+00  0.51100000000E-03 0.  1.
         12    1    3    3    0    0  0.13804993846E+01  0.57006563371E+00  0.92244084680E+00  0.17554630424E+01  0.00000000000E+00 0. -1.
</event>
<event>
 7    1  0.2001181E-008  0.4614232E+02  0.7816164E-02  0.1320468E+00
        -11   -1    0    0    0    0  0.00000000000E+00  0.00000000000E+00  0.45593999997E+02  0.45594000000E+02  0.51100000000E-03 0.  1.
         11   -1    0    0    0    0 -0.00000000000E+00 -0.00000000000E+00 -0.45593999997E+02  0.45594000000E+02  0.51100000000E-03 0. -1.
    9900012    2    1    2    0    0  0.10875387279E+01 -0.20205205709E+02 -0.40245253551E+02  0.46142317503E+02  0.99999976508E+01 0.  0.
        -12    1    1    2    0    0 -0.10875387279E+01  0.20205205709E+02  0.40245253551E+02  0.45045682497E+02  0.00000000000E+00 0.  1.
         11    1    3    3    0    0  0.46719915417E+01 -0.16301936930E+02 -0.29253432792E+02  0.33813369886E+02  0.51100000000E-03 0. -1.
        -11    1    3    3    0    0 -0.15455317476E+00  0.10459743099E+00 -0.68912878691E-01  0.19893856430E+00  0.51100000000E-03 0.  1.
         12    1    3    3    0    0 -0.34298996390E+01 -0.40078662099E+01 -0.10922907879E+02  0.12130009053E+02  0.00000000000E+00 0. -1.
</event>
<event>
 7    1  0.2001181E-008  0.4614232E+02  0.7816164E-02  0.1320468E+00
        -11   -1    0    0    0    0  0.00000000000E+00  0.00000000000E+00  0.45593999997E+02  0.45594000000E+02  0.51100000000E-03 0.  1.
         11   -1    0    0    0    0 -0.00000000000E+00 -0.00000000000E+00 -0.45593999997E+02  0.45594000000E+02  0.51100000000E-03 0. -1.
    9900012    2    1    2    0    0  0.28239064410E+02  0.33754673035E+02  0.96068110192E+01  0.46142317317E+02  0.99999959478E+01 0.  0.
        -12    1    1    2    0    0 -0.28239064410E+02 -0.33754673035E+02 -0.96068110192E+01  0.45045682683E+02  0.00000000000E+00 0.  1.
         11    1    3    3    0    0  0.15622269011E+02  0.24066135767E+02  0.60650472142E+01  0.29326080164E+02  0.51100000000E-03 0. -1.
        -11    1    3    3    0    0  0.77562678097E+01  0.68616625359E+01  0.41588604534E+01  0.11159669512E+02  0.51100000000E-03 0.  1.
        -12    1    3    3    0    0  0.48605275895E+01  0.28268747319E+01 -0.61709664841E+00  0.56565676405E+01  0.00000000000E+00 0.  1.
</event>
<event>
 7    1  0.2001181E-008  0.4614232E+02  0.7816164E-02  0.1320468E+00
        -11   -1    0    0    0    0  0.00000000000E+00  0.00000000000E+00  0.45593999997E+02  0.45594000000E+02  0.51100000000E-03 0.  1.
         11   -1    0    0    0    0 -0.00000000000E+00 -0.00000000000E+00 -0.45593999997E+02  0.45594000000E+02  0.51100000000E-03 0. -1.
    9900012    2    1    2    0    0  0.10600970324E+02 -0.51904016196E+01 -0.43471746131E+02  0.46142317050E+02  0.99999935130E+01 0.  0.
        -12    1    1    2    0    0 -0.10600970324E+02  0.51904016196E+01  0.43471746131E+02  0.45045682950E+02  0.00000000000E+00 0.  1.
         11    1    3    3    0    0  0.32682765221E+01  0.48850330505E+00 -0.24573247647E+02  0.24794450328E+02  0.51100000000E-03 0. -1.
        -11    1    3    3    0    0  0.10378762114E+01 -0.25891271954E+01 -0.70220042848E+01  0.75557468923E+01  0.51100000000E-03 0.  1.
         12    1    3    3    0    0  0.62948175906E+01 -0.30897777292E+01 -0.11876494199E+02  0.13792119829E+02  0.00000000000E+00 0. -1.
</event>
<event>
 7    1  0.2001181E-008  0.4614232E+02  0.7816164E-02  0.1320468E+00
        -11   -1    0    0    0    0  0.00000000000E+00  0.00000000000E+00  0.45593999997E+02  0.45594000000E+02  0.51100000000E-03 0.  1.
         11   -1    0    0    0    0 -0.00000000000E+00 -0.00000000000E+00 -0.45593999997E+02  0.45594000000E+02  0.51100000000E-03 0. -1.
    9900012    2    1    2    0    0 -0.30913679836E+02  0.19767941479E+02 -0.26128267430E+02  0.46142317962E+02  0.10000001836E+02 0.  0.
        -12    1    1    2    0    0  0.30913679836E+02 -0.19767941479E+02  0.26128267430E+02  0.45045682038E+02  0.00000000000E+00 0.  1.
         11    1    3    3    0    0 -0.14937218741E+02  0.78477345030E+01 -0.16561515382E+02  0.23642995423E+02  0.51100000000E-03 0. -1.
        -11    1    3    3    0    0 -0.21088693784E+00 -0.82622337627E-02  0.32927822601E+00  0.39110865026E+00  0.51100000000E-03 0.  1.
         12    1    3    3    0    0 -0.15765574157E+02  0.11928469210E+02 -0.98960302737E+01  0.22108213889E+02  0.00000000000E+00 0. -1.
</event>
<event>
 7    1  0.2001181E-008  0.4614232E+02  0.7816164E-02  0.1320468E+00
        -11   -1    0    0    0    0  0.00000000000E+00  0.00000000000E+00  0.45593999997E+02  0.45594000000E+02  0.51100000000E-03 0.  1.
         11   -1    0    0    0    0 -0.00000000000E+00 -0.00000000000E+00 -0.45593999997E+02  0.45594000000E+02  0.51100000000E-03 0. -1.
    9900012    2    1    2    0    0  0.10123472842E+02 -0.43512926298E+02 -0.57666320960E+01  0.46142317597E+02  0.99999985047E+01 0.  0.
        -12    1    1    2    0    0 -0.10123472842E+02  0.43512926298E+02  0.57666320960E+01  0.45045682403E+02  0.00000000000E+00 0.  1.
         11    1    3    3    0    0 -0.21571681492E+00 -0.36275397124E+01 -0.88699999462E+00  0.37406346201E+01  0.51100000000E-03 0. -1.
        -11    1    3    3    0    0  0.47552167064E+01 -0.32280054794E+02 -0.46970911659E+01  0.32964779525E+02  0.51100000000E-03 0.  1.
         12    1    3    3    0    0  0.55839729506E+01 -0.76053317913E+01 -0.18254093546E+00  0.94369034520E+01  0.00000000000E+00 0. -1.
</event>
<event>
 7    1  0.2001181E-008  0.4614231E+02  0.7816164E-02  0.1320468E+00
        -11   -1    0    0    0    0  0.00000000000E+00  0.00000000000E+00  0.45593999997E+02  0.45594000000E+02  0.51100000000E-03 0.  1.
         11   -1    0    0    0    0 -0.00000000000E+00 -0.00000000000E+00 -0.45593999997E+02  0.45594000000E+02  0.51100000000E-03 0. -1.
    9900012    2    1    2    0    0  0.38172980749E+02  0.23051855850E+02  0.63678860939E+01  0.46142306635E+02  0.99998985440E+01 0.  0.
        -12    1    1    2    0    0 -0.38172980749E+02 -0.23051855850E+02 -0.63678860939E+01  0.45045693365E+02  0.00000000000E+00 0.  1.
         11    1    3    3    0    0  0.45465033688E+01  0.31487158424E+01 -0.15980546946E+01  0.57566382036E+01  0.51100000000E-03 0.  1.
        -11    1    3    3    0    0  0.22658889920E+02  0.12815894263E+02  0.82996492767E+01  0.27323188257E+02  0.51100000000E-03 0. -1.
         12    1    3    3    0    0  0.10967587461E+02  0.70872457442E+01 -0.33370848819E+00  0.13062480174E+02  0.00000000000E+00 0. -1.
</event>
<event>
 7    1  0.2001181E-008  0.4614232E+02  0.7816164E-02  0.1320468E+00
        -11   -1    0    0    0    0  0.00000000000E+00  0.00000000000E+00  0.45593999997E+02  0.45594000000E+02  0.51100000000E-03 0. -1.
         11   -1    0    0    0    0 -0.00000000000E+00 -0.00000000000E+00 -0.45593999997E+02  0.45594000000E+02  0.51100000000E-03 0.  1.
    9900012    2    1    2    0    0 -0.41276859962E+02 -0.33913061391E+01  0.17715344398E+02  0.46142317046E+02  0.99999934784E+01 0.  0.
        -12    1    1    2    0    0  0.41276859962E+02  0.33913061391E+01 -0.17715344398E+02  0.45045682954E+02  0.00000000000E+00 0.  1.
         11    1    3    3    0    0 -0.75930953980E+01 -0.20856078022E+01  0.51068362523E+01  0.93853414640E+01  0.51100000000E-03 0. -1.
        -11    1    3    3    0    0 -0.14945768748E+02 -0.39180435792E+01  0.74145210644E+01  0.17137741736E+02  0.51100000000E-03 0.  1.
         12    1    3    3    0    0 -0.18737995817E+02  0.26123452423E+01  0.51939870808E+01  0.19619233846E+02  0.00000000000E+00 0. -1.
</event>
<event>
 7    1  0.2001181E-008  0.4614232E+02  0.7816164E-02  0.1320468E+00
        -11   -1    0    0    0    0  0.00000000000E+00  0.00000000000E+00  0.45593999997E+02  0.45594000000E+02  0.51100000000E-03 0.  1.
         11   -1    0    0    0    0 -0.00000000000E+00 -0.00000000000E+00 -0.45593999997E+02  0.45594000000E+02  0.51100000000E-03 0. -1.
    9900012    2    1    2    0    0  0.20934833898E+02 -0.25920577168E+02 -0.30314514769E+02  0.46142318779E+02  0.10000009278E+02 0.  0.
        -12    1    1    2    0    0 -0.20934833898E+02  0.25920577168E+02  0.30314514769E+02  0.45045681221E+02  0.00000000000E+00 0.  1.
         11    1    3    3    0    0  0.13938435745E+02 -0.18677666446E+02 -0.20969899201E+02  0.31350787672E+02  0.51100000000E-03 0. -1.
        -11    1    3    3    0    0  0.23548261838E+01 -0.57709038187E+01 -0.33754956745E+01  0.70881950136E+01  0.51100000000E-03 0.  1.
        -12    1    3    3    0    0  0.46415719686E+01 -0.14720069035E+01 -0.59691198932E+01  0.77033360931E+01  0.00000000000E+00 0.  1.
</event>
<event>
 7    1  0.2001181E-008  0.4614232E+02  0.7816164E-02  0.1320468E+00
        -11   -1    0    0    0    0  0.00000000000E+00  0.00000000000E+00  0.45593999997E+02  0.45594000000E+02  0.51100000000E-03 0.  1.
         11   -1    0    0    0    0 -0.00000000000E+00 -0.00000000000E+00 -0.45593999997E+02  0.45594000000E+02  0.51100000000E-03 0. -1.
    9900012    2    1    2    0    0 -0.31167012633E+02  0.28264123354E+02 -0.16089441665E+02  0.46142317870E+02  0.10000000992E+02 0.  0.
        -12    1    1    2    0    0  0.31167012633E+02 -0.28264123354E+02  0.16089441665E+02  0.45045682130E+02  0.00000000000E+00 0.  1.
         11    1    3    3    0    0 -0.14303094828E+02  0.16608388707E+02 -0.87515411824E+01  0.23600986641E+02  0.51100000000E-03 0. -1.
        -11    1    3    3    0    0 -0.12853723410E+02  0.81121808584E+01 -0.79532373549E+01  0.17154581559E+02  0.51100000000E-03 0.  1.
        -12    1    3    3    0    0 -0.40101943953E+01  0.35435537888E+01  0.61533687185E+00  0.53867496701E+01  0.00000000000E+00 0.  1.
</event>
<event>
 7    1  0.2001181E-008  0.4614232E+02  0.7816164E-02  0.1320468E+00
        -11   -1    0    0    0    0  0.00000000000E+00  0.00000000000E+00  0.45593999997E+02  0.45594000000E+02  0.51100000000E-03 0.  1.
         11   -1    0    0    0    0 -0.00000000000E+00 -0.00000000000E+00 -0.45593999997E+02  0.45594000000E+02  0.51100000000E-03 0. -1.
    9900012    2    1    2    0    0  0.12400833078E+01  0.17786276698E+02 -0.41366944467E+02  0.46142317189E+02  0.99999947841E+01 0.  0.
        -12    1    1    2    0    0 -0.12400833078E+01 -0.17786276698E+02  0.41366944467E+02  0.45045682811E+02  0.00000000000E+00 0.  1.
         11    1    3    3    0    0 -0.22253560001E-01  0.74198037715E+01 -0.13475222978E+02  0.15382965182E+02  0.51100000000E-03 0. -1.
        -11    1    3    3    0    0 -0.99905270279E+00  0.57972212773E+01 -0.64924470098E+01  0.87611499974E+01  0.51100000000E-03 0.  1.
         12    1    3    3    0    0  0.22613895706E+01  0.45692516490E+01 -0.21399274479E+02  0.21998202010E+02  0.00000000000E+00 0. -1.
</event>
<event>
 7    1  0.2001181E-008  0.4614232E+02  0.7816164E-02  0.1320468E+00
        -11   -1    0    0    0    0  0.00000000000E+00  0.00000000000E+00  0.45593999997E+02  0.45594000000E+02  0.51100000000E-03 0.  1.
         11   -1    0    0    0    0 -0.00000000000E+00 -0.00000000000E+00 -0.45593999997E+02  0.45594000000E+02  0.51100000000E-03 0. -1.
    9900012    2    1    2    0    0 -0.43000348592E+02  0.11069693180E+01 -0.13373793719E+02  0.46142315206E+02  0.99999767032E+01 0.  0.
        -12    1    1    2    0    0  0.43000348592E+02 -0.11069693180E+01  0.13373793719E+02  0.45045684794E+02  0.00000000000E+00 0.  1.
         11    1    3    3    0    0 -0.79924836880E+01  0.35443554189E+01 -0.11394120717E+01  0.88170579542E+01  0.51100000000E-03 0. -1.
        -11    1    3    3    0    0 -0.20935636048E+02 -0.31410547149E+01 -0.70894466241E+01  0.22325486225E+02  0.51100000000E-03 0.  1.
        -12    1    3    3    0    0 -0.14072228855E+02  0.70366861403E+00 -0.51449350233E+01  0.14999771027E+02  0.00000000000E+00 0.  1.
</event>
<event>
 7    1  0.2001181E-008  0.4614232E+02  0.7816164E-02  0.1320468E+00
        -11   -1    0    0    0    0  0.00000000000E+00  0.00000000000E+00  0.45593999997E+02  0.45594000000E+02  0.51100000000E-03 0.  1.
         11   -1    0    0    0    0 -0.00000000000E+00 -0.00000000000E+00 -0.45593999997E+02  0.45594000000E+02  0.51100000000E-03 0. -1.
    9900012    2    1    2    0    0  0.19798030943E+01 -0.72908070146E+01 -0.44407634029E+02  0.46142318217E+02  0.10000004157E+02 0.  0.
        -12    1    1    2    0    0 -0.19798030943E+01  0.72908070146E+01  0.44407634029E+02  0.45045681783E+02  0.00000000000E+00 0.  1.
         11    1    3    3    0    0 -0.85391272761E+00  0.77496593441E+00 -0.88536113683E+01  0.89283914379E+01  0.51100000000E-03 0. -1.
        -11    1    3    3    0    0  0.43935064932E+01 -0.21875290892E+01 -0.16089071924E+02  0.16821011220E+02  0.51100000000E-03 0.  1.
        -12    1    3    3    0    0 -0.15597906712E+01 -0.58782438598E+01 -0.19464950737E+02  0.20392915559E+02  0.00000000000E+00 0.  1.
</event>
<event>
 7    1  0.2001181E-008  0.4614232E+02  0.7816164E-02  0.1320468E+00
        -11   -1    0    0    0    0  0.00000000000E+00  0.00000000000E+00  0.45593999997E+02  0.45594000000E+02  0.51100000000E-03 0.  1.
         11   -1    0    0    0    0 -0.00000000000E+00 -0.00000000000E+00 -0.45593999997E+02  0.45594000000E+02  0.51100000000E-03 0. -1.
    9900012    2    1    2    0    0  0.17514769253E+02 -0.20494059436E+02 -0.36087943481E+02  0.46142320087E+02  0.10000021207E+02 0.  0.
        -12    1    1    2    0    0 -0.17514769253E+02  0.20494059436E+02  0.36087943481E+02  0.45045679913E+02  0.00000000000E+00 0.  1.
         11    1    3    3    0    0  0.23099120317E+00 -0.26358214270E+01 -0.12203526590E+01  0.29137900413E+01  0.51100000000E-03 0. -1.
        -11    1    3    3    0    0  0.24848792477E+01 -0.62878547863E+01 -0.87910644815E+01  0.11090291144E+02  0.51100000000E-03 0.  1.
         12    1    3    3    0    0  0.14798898802E+02 -0.11570383222E+02 -0.26076526341E+02  0.32138238901E+02  0.00000000000E+00 0. -1.
</event>
<event>
 7    1  0.2001181E-008  0.4614232E+02  0.7816164E-02  0.1320468E+00
        -11   -1    0    0    0    0  0.00000000000E+00  0.00000000000E+00  0.45593999997E+02  0.45594000000E+02  0.51100000000E-03 0.  1.
         11   -1    0    0    0    0 -0.00000000000E+00 -0.00000000000E+00 -0.45593999997E+02  0.45594000000E+02  0.51100000000E-03 0. -1.
    9900012    2    1    2    0    0 -0.20656521799E+02 -0.25950930069E+02 -0.30479022897E+02  0.46142317621E+02  0.99999987192E+01 0.  0.
        -12    1    1    2    0    0  0.20656521799E+02  0.25950930069E+02  0.30479022897E+02  0.45045682379E+02  0.00000000000E+00 0.  1.
         11    1    3    3    0    0 -0.17590239886E+01 -0.73085763725E+00 -0.22346222632E+01  0.29362995757E+01  0.51100000000E-03 0. -1.
        -11    1    3    3    0    0 -0.10796088805E+01  0.17535171361E+00  0.20590676037E+00  0.11129696372E+01  0.51100000000E-03 0.  1.
         12    1    3    3    0    0 -0.17817888930E+02 -0.25395424145E+02 -0.28450307394E+02  0.42093048408E+02  0.00000000000E+00 0. -1.
</event>
<event>
 7    1  0.2001181E-008  0.4614232E+02  0.7816164E-02  0.1320468E+00
        -11   -1    0    0    0    0  0.00000000000E+00  0.00000000000E+00  0.45593999997E+02  0.45594000000E+02  0.51100000000E-03 0.  1.
         11   -1    0    0    0    0 -0.00000000000E+00 -0.00000000000E+00 -0.45593999997E+02  0.45594000000E+02  0.51100000000E-03 0. -1.
    9900012    2    1    2    0    0  0.11552444302E+02 -0.26111291564E+01 -0.43460745193E+02  0.46142319435E+02  0.10000015267E+02 0.  0.
        -12    1    1    2    0    0 -0.11552444302E+02  0.26111291564E+01  0.43460745193E+02  0.45045680565E+02  0.00000000000E+00 0.  1.
         11    1    3    3    0    0  0.98889525155E+00 -0.19377993934E+01 -0.55525154770E+01  0.59635064091E+01  0.51100000000E-03 0. -1.
        -11    1    3    3    0    0  0.16103177307E+01 -0.29120337636E+01 -0.50394190037E+01  0.60389409659E+01  0.51100000000E-03 0.  1.
         12    1    3    3    0    0  0.89532313198E+01  0.22387040006E+01 -0.32868810712E+02  0.34139872060E+02  0.00000000000E+00 0. -1.
</event>
<event>
 7    1  0.2001181E-008  0.4614231E+02  0.7816164E-02  0.1320468E+00
        -11   -1    0    0    0    0  0.00000000000E+00  0.00000000000E+00  0.45593999997E+02  0.45594000000E+02  0.51100000000E-03 0.  1.
         11   -1    0    0    0    0 -0.00000000000E+00 -0.00000000000E+00 -0.45593999997E+02  0.45594000000E+02  0.51100000000E-03 0. -1.
    9900012    2    1    2    0    0  0.17999383819E+02  0.31009947308E+02 -0.27267547093E+02  0.46142314586E+02  0.99999710500E+01 0.  0.
        -12    1    1    2    0    0 -0.17999383819E+02 -0.31009947308E+02  0.27267547093E+02  0.45045685414E+02  0.00000000000E+00 0.  1.
         11    1    3    3    0    0  0.30587338449E+01  0.40983660254E+01 -0.11387996603E+01  0.52392100300E+01  0.51100000000E-03 0. -1.
        -11    1    3    3    0    0  0.38529812608E+01  0.13619775369E+02 -0.12164642565E+02  0.18663393976E+02  0.51100000000E-03 0.  1.
         12    1    3    3    0    0  0.11087668714E+02  0.13291805913E+02 -0.13964104868E+02  0.22239710580E+02  0.00000000000E+00 0. -1.
</event>
<event>
 7    1  0.2001181E-008  0.4614232E+02  0.7816164E-02  0.1320468E+00
        -11   -1    0    0    0    0  0.00000000000E+00  0.00000000000E+00  0.45593999997E+02  0.45594000000E+02  0.51100000000E-03 0. -1.
         11   -1    0    0    0    0 -0.00000000000E+00 -0.00000000000E+00 -0.45593999997E+02  0.45594000000E+02  0.51100000000E-03 0.  1.
    9900012    2    1    2    0    0  0.88741233266E+01 -0.12913860147E+02  0.42232639011E+02  0.46142316006E+02  0.99999839937E+01 0.  0.
        -12    1    1    2    0    0 -0.88741233266E+01  0.12913860147E+02 -0.42232639011E+02  0.45045683994E+02  0.00000000000E+00 0.  1.
         11    1    3    3    0    0  0.84902980628E+01 -0.10798949929E+02  0.29145165468E+02  0.32220228912E+02  0.51100000000E-03 0. -1.
        -11    1    3    3    0    0  0.73670096167E+00 -0.17949161771E+01  0.18706098981E+01  0.26951129924E+01  0.51100000000E-03 0.  1.
         12    1    3    3    0    0 -0.35287569788E+00 -0.31999404135E+00  0.11216863645E+02  0.11226974101E+02  0.00000000000E+00 0. -1.
</event>
<event>
 7    1  0.2001181E-008  0.4614232E+02  0.7816164E-02  0.1320468E+00
        -11   -1    0    0    0    0  0.00000000000E+00  0.00000000000E+00  0.45593999997E+02  0.45594000000E+02  0.51100000000E-03 0. -1.
         11   -1    0    0    0    0 -0.00000000000E+00 -0.00000000000E+00 -0.45593999997E+02  0.45594000000E+02  0.51100000000E-03 0.  1.
    9900012    2    1    2    0    0 -0.36475741927E+02  0.59894401638E+01  0.25744131003E+02  0.46142318480E+02  0.10000006551E+02 0.  0.
        -12    1    1    2    0    0  0.36475741927E+02 -0.59894401638E+01 -0.25744131003E+02  0.45045681520E+02  0.00000000000E+00 0.  1.
         11    1    3    3    0    0 -0.11266570402E+01 -0.43167415897E+00  0.31084099160E+01  0.33343531806E+01  0.51100000000E-03 0. -1.
        -11    1    3    3    0    0 -0.22497051600E+01 -0.55692923690E+00  0.46756158969E+00  0.23643091133E+01  0.51100000000E-03 0.  1.
         12    1    3    3    0    0 -0.33099379726E+02  0.69780435597E+01  0.22168159497E+02  0.40443656186E+02  0.00000000000E+00 0. -1.
</event>
<event>
 7    1  0.2001181E-008  0.4614232E+02  0.7816164E-02  0.1320468E+00
        -11   -1    0    0    0    0  0.00000000000E+00  0.00000000000E+00  0.45593999997E+02  0.45594000000E+02  0.51100000000E-03 0.  1.
         11   -1    0    0    0    0 -0.00000000000E+00 -0.00000000000E+00 -0.45593999997E+02  0.45594000000E+02  0.51100000000E-03 0. -1.
    9900012    2    1    2    0    0  0.17974947839E+02 -0.38378822920E+02 -0.15266980433E+02  0.46142317742E+02  0.99999998291E+01 0.  0.
        -12    1    1    2    0    0 -0.17974947839E+02  0.38378822920E+02  0.15266980433E+02  0.45045682258E+02  0.00000000000E+00 0.  1.
         11    1    3    3    0    0  0.11915989235E+02 -0.21141839916E+02 -0.98554085139E+01  0.26193458568E+02  0.51100000000E-03 0. -1.
        -11    1    3    3    0    0  0.14626484201E+01 -0.12554605773E+02 -0.35690870863E+01  0.13133767525E+02  0.51100000000E-03 0.  1.
        -12    1    3    3    0    0  0.45963101840E+01 -0.46823772310E+01 -0.18424848324E+01  0.68150916500E+01  0.00000000000E+00 0.  1.
</event>
<event>
 7    1  0.2001181E-008  0.4614232E+02  0.7816164E-02  0.1320468E+00
        -11   -1    0    0    0    0  0.00000000000E+00  0.00000000000E+00  0.45593999997E+02  0.45594000000E+02  0.51100000000E-03 0.  1.
         11   -1    0    0    0    0 -0.00000000000E+00 -0.00000000000E+00 -0.45593999997E+02  0.45594000000E+02  0.51100000000E-03 0. -1.
    9900012    2    1    2    0    0 -0.20656461986E+02 -0.20570647669E+02 -0.34340538304E+02  0.46142317207E+02  0.99999949458E+01 0.  0.
        -12    1    1    2    0    0  0.20656461986E+02  0.20570647669E+02  0.34340538304E+02  0.45045682793E+02  0.00000000000E+00 0.  1.
         11    1    3    3    0    0 -0.14976743056E+02 -0.11917553537E+02 -0.22130055614E+02  0.29258678655E+02  0.51100000000E-03 0. -1.
        -11    1    3    3    0    0 -0.19727204179E+01 -0.19373670231E+01 -0.39008702001E+00  0.27923439928E+01  0.51100000000E-03 0.  1.
        -12    1    3    3    0    0 -0.37069985121E+01 -0.67157271089E+01 -0.11820395670E+02  0.14091294560E+02  0.00000000000E+00 0.  1.
</event>
<event>
 7    1  0.2001181E-008  0.4614232E+02  0.7816164E-02  0.1320468E+00
        -11   -1    0    0    0    0  0.00000000000E+00  0.00000000000E+00  0.45593999997E+02  0.45594000000E+02  0.51100000000E-03 0.  1.
         11   -1    0    0    0    0 -0.00000000000E+00 -0.00000000000E+00 -0.45593999997E+02  0.45594000000E+02  0.51100000000E-03 0. -1.
    9900012    2    1    2    0    0 -0.42183184397E+02  0.10128716730E+02 -0.12128536017E+02  0.46142319470E+02  0.10000015582E+02 0.  0.
        -12    1    1    2    0    0  0.42183184397E+02 -0.10128716730E+02  0.12128536017E+02  0.45045680530E+02  0.00000000000E+00 0.  1.
         11    1    3    3    0    0 -0.10736700634E+02  0.27304103304E+01  0.26947711717E+00  0.11081719147E+02  0.51100000000E-03 0. -1.
        -11    1    3    3    0    0 -0.14895691316E+02  0.60422190541E+01 -0.75627617656E+01  0.17764723377E+02  0.51100000000E-03 0.  1.
         12    1    3    3    0    0 -0.16550792447E+02  0.13560873458E+01 -0.48352513686E+01  0.17295876946E+02  0.00000000000E+00 0. -1.
</event>
<event>
 7    1  0.2001181E-008  0.4614232E+02  0.7816164E-02  0.1320468E+00
        -11   -1    0    0    0    0  0.00000000000E+00  0.00000000000E+00  0.45593999997E+02  0.45594000000E+02  0.51100000000E-03 0. -1.
         11   -1    0    0    0    0 -0.00000000000E+00 -0.00000000000E+00 -0.45593999997E+02  0.45594000000E+02  0.51100000000E-03 0.  1.
    9900012    2    1    2    0    0 -0.29823485759E+02 -0.30275442310E+02 -0.14935544451E+02  0.46142320985E+02  0.10000029400E+02 0.  0.
        -12    1    1    2    0    0  0.29823485759E+02  0.30275442310E+02  0.14935544451E+02  0.45045679015E+02  0.00000000000E+00 0.  1.
         11    1    3    3    0    0 -0.17964642403E+01 -0.47073696231E+01 -0.20938270814E+01  0.54562555515E+01  0.51100000000E-03 0. -1.
        -11    1    3    3    0    0 -0.10885842697E+02 -0.81312654834E+01 -0.79757340225E+01  0.15755360455E+02  0.51100000000E-03 0.  1.
         12    1    3    3    0    0 -0.17141178821E+02 -0.17436807203E+02 -0.48659833469E+01  0.24930704979E+02  0.00000000000E+00 0. -1.
</event>
<event>
 7    1  0.2001181E-008  0.4614232E+02  0.7816164E-02  0.1320468E+00
        -11   -1    0    0    0    0  0.00000000000E+00  0.00000000000E+00  0.45593999997E+02  0.45594000000E+02  0.51100000000E-03 0.  1.
         11   -1    0    0    0    0 -0.00000000000E+00 -0.00000000000E+00 -0.45593999997E+02  0.45594000000E+02  0.51100000000E-03 0. -1.
    9900012    2    1    2    0    0 -0.41214194874E+02 -0.84524563039E+01  0.16095326410E+02  0.46142318643E+02  0.10000008043E+02 0.  0.
        -12    1    1    2    0    0  0.41214194874E+02  0.84524563039E+01 -0.16095326410E+02  0.45045681357E+02  0.00000000000E+00 0.  1.
         11    1    3    3    0    0 -0.17275661835E+01 -0.18832513659E+00 -0.99238555102E+00  0.20011947977E+01  0.51100000000E-03 0. -1.
        -11    1    3    3    0    0 -0.25549485447E+01  0.22395480043E+00 -0.17655735407E-01  0.25648059975E+01  0.51100000000E-03 0.  1.
        -12    1    3    3    0    0 -0.36931680146E+02 -0.84880859678E+01  0.17105367696E+02  0.41576317848E+02  0.00000000000E+00 0.  1.
</event>
<event>
 7    1  0.2001181E-008  0.4614232E+02  0.7816164E-02  0.1320468E+00
        -11   -1    0    0    0    0  0.00000000000E+00  0.00000000000E+00  0.45593999997E+02  0.45594000000E+02  0.51100000000E-03 0. -1.
         11   -1    0    0    0    0 -0.00000000000E+00 -0.00000000000E+00 -0.45593999997E+02  0.45594000000E+02  0.51100000000E-03 0.  1.
    9900012    2    1    2    0    0  0.65784943067E+01  0.37783947830E+02  0.23626468571E+02  0.46142319651E+02  0.10000017237E+02 0.  0.
        -12    1    1    2    0    0 -0.65784943067E+01 -0.37783947830E+02 -0.23626468571E+02  0.45045680349E+02  0.00000000000E+00 0.  1.
         11    1    3    3    0    0  0.46019853975E+01  0.21540144762E+02  0.14068952857E+02  0.26136019986E+02  0.51100000000E-03 0. -1.
        -11    1    3    3    0    0  0.21243929345E+01  0.14326342631E+02  0.10476396895E+02  0.17874899460E+02  0.51100000000E-03 0.  1.
        -12    1    3    3    0    0 -0.14788402529E+00  0.19174604366E+01 -0.91888118133E+00  0.21314002055E+01  0.00000000000E+00 0.  1.
</event>
<event>
 7    1  0.2001181E-008  0.4614232E+02  0.7816164E-02  0.1320468E+00
        -11   -1    0    0    0    0  0.00000000000E+00  0.00000000000E+00  0.45593999997E+02  0.45594000000E+02  0.51100000000E-03 0. -1.
         11   -1    0    0    0    0 -0.00000000000E+00 -0.00000000000E+00 -0.45593999997E+02  0.45594000000E+02  0.51100000000E-03 0.  1.
    9900012    2    1    2    0    0  0.13346369906E+02 -0.31737058662E+02  0.29047324536E+02  0.46142317134E+02  0.99999942834E+01 0.  0.
        -12    1    1    2    0    0 -0.13346369906E+02  0.31737058662E+02 -0.29047324536E+02  0.45045682866E+02  0.00000000000E+00 0.  1.
         11    1    3    3    0    0  0.46402734170E+01 -0.12687756728E+02  0.77269936479E+01  0.15563346018E+02  0.51100000000E-03 0. -1.
        -11    1    3    3    0    0  0.90753149403E+01 -0.15118214360E+02  0.15118546464E+02  0.23226971265E+02  0.51100000000E-03 0.  1.
         12    1    3    3    0    0 -0.36921845122E+00 -0.39310875738E+01  0.62017844232E+01  0.73519998510E+01  0.00000000000E+00 0. -1.
</event>
<event>
 7    1  0.2001181E-008  0.4614232E+02  0.7816164E-02  0.1320468E+00
        -11   -1    0    0    0    0  0.00000000000E+00  0.00000000000E+00  0.45593999997E+02  0.45594000000E+02  0.51100000000E-03 0.  1.
         11   -1    0    0    0    0 -0.00000000000E+00 -0.00000000000E+00 -0.45593999997E+02  0.45594000000E+02  0.51100000000E-03 0. -1.
    9900012    2    1    2    0    0 -0.25944915626E+02 -0.34401454251E+02 -0.13134470789E+02  0.46142322912E+02  0.10000046967E+02 0.  0.
        -12    1    1    2    0    0  0.25944915626E+02  0.34401454251E+02  0.13134470789E+02  0.45045677088E+02  0.00000000000E+00 0.  1.
         11    1    3    3    0    0 -0.56691520171E+01 -0.10345489243E+02 -0.41288376813E+01  0.12498629250E+02  0.51100000000E-03 0. -1.
        -11    1    3    3    0    0 -0.46861187539E+01 -0.57303272812E+01 -0.57321991559E+01  0.93623964426E+01  0.51100000000E-03 0.  1.
         12    1    3    3    0    0 -0.15589644855E+02 -0.18325637728E+02 -0.32734339520E+01  0.24281297219E+02  0.00000000000E+00 0. -1.
</event>
<event>
 7    1  0.2001181E-008  0.4614232E+02  0.7816164E-02  0.1320468E+00
        -11   -1    0    0    0    0  0.00000000000E+00  0.00000000000E+00  0.45593999997E+02  0.45594000000E+02  0.51100000000E-03 0. -1.
         11   -1    0    0    0    0 -0.00000000000E+00 -0.00000000000E+00 -0.45593999997E+02  0.45594000000E+02  0.51100000000E-03 0.  1.
    9900012    2    1    2    0    0 -0.65033524425E+01  0.27053364420E+02  0.35425066982E+02  0.46142317741E+02  0.99999998188E+01 0.  0.
        -12    1    1    2    0    0  0.65033524425E+01 -0.27053364420E+02 -0.35425066982E+02  0.45045682259E+02  0.00000000000E+00 0.  1.
         11    1    3    3    0    0  0.42153286295E+00  0.11569738869E+02  0.11374960135E+02  0.16230411756E+02  0.51100000000E-03 0. -1.
        -11    1    3    3    0    0 -0.16065316614E+01  0.99175804220E+01  0.14602423135E+02  0.17724844346E+02  0.51100000000E-03 0.  1.
        -12    1    3    3    0    0 -0.53183536440E+01  0.55660451297E+01  0.94476837124E+01  0.12187061639E+02  0.00000000000E+00 0.  1.
</event>
<event>
 7    1  0.2001181E-008  0.4614232E+02  0.7816164E-02  0.1320468E+00
        -11   -1    0    0    0    0  0.00000000000E+00  0.00000000000E+00  0.45593999997E+02  0.45594000000E+02  0.51100000000E-03 0.  1.
         11   -1    0    0    0    0 -0.00000000000E+00 -0.00000000000E+00 -0.45593999997E+02  0.45594000000E+02  0.51100000000E-03 0. -1.
    9900012    2    1    2    0    0  0.25412184422E+02  0.36693961714E+02  0.60735124453E+01  0.46142317667E+02  0.99999991461E+01 0.  0.
        -12    1    1    2    0    0 -0.25412184422E+02 -0.36693961714E+02 -0.60735124453E+01  0.45045682333E+02  0.00000000000E+00 0.  1.
         11    1    3    3    0    0  0.10561387587E+02  0.15302846574E+02  0.40960173987E+01  0.19039363955E+02  0.51100000000E-03 0. -1.
        -11    1    3    3    0    0  0.14453342633E+02  0.15982888618E+02  0.85865637121E+00  0.21565925272E+02  0.51100000000E-03 0.  1.
        -12    1    3    3    0    0  0.39745420226E+00  0.54082265228E+01  0.11188386753E+01  0.55370284400E+01  0.00000000000E+00 0.  1.
</event>
<event>
 7    1  0.2001181E-008  0.4614232E+02  0.7816164E-02  0.1320468E+00
        -11   -1    0    0    0    0  0.00000000000E+00  0.00000000000E+00  0.45593999997E+02  0.45594000000E+02  0.51100000000E-03 0.  1.
         11   -1    0    0    0    0 -0.00000000000E+00 -0.00000000000E+00 -0.45593999997E+02  0.45594000000E+02  0.51100000000E-03 0. -1.
    9900012    2    1    2    0    0 -0.36372803608E+02 -0.25508557648E+02  0.74462182826E+01  0.46142317385E+02  0.99999965682E+01 0.  0.
        -12    1    1    2    0    0  0.36372803608E+02  0.25508557648E+02 -0.74462182826E+01  0.45045682615E+02  0.00000000000E+00 0.  1.
         11    1    3    3    0    0 -0.20815219304E+02 -0.13068455917E+02  0.75254725438E+01  0.25703903050E+02  0.51100000000E-03 0.  1.
        -11    1    3    3    0    0 -0.37885747280E+01 -0.13533259071E+01 -0.12891374208E+01  0.42245313386E+01  0.51100000000E-03 0. -1.
         12    1    3    3    0    0 -0.11769009576E+02 -0.11086775823E+02  0.12098831597E+01  0.16213882996E+02  0.00000000000E+00 0. -1.
</event>
<event>
 7    1  0.2001181E-008  0.4614232E+02  0.7816164E-02  0.1320468E+00
        -11   -1    0    0    0    0  0.00000000000E+00  0.00000000000E+00  0.45593999997E+02  0.45594000000E+02  0.51100000000E-03 0.  1.
         11   -1    0    0    0    0 -0.00000000000E+00 -0.00000000000E+00 -0.45593999997E+02  0.45594000000E+02  0.51100000000E-03 0. -1.
    9900012    2    1    2    0    0  0.69065694913E+01  0.12902616327E+02 -0.42602056528E+02  0.46142318402E+02  0.10000005847E+02 0.  0.
        -12    1    1    2    0    0 -0.69065694913E+01 -0.12902616327E+02  0.42602056528E+02  0.45045681598E+02  0.00000000000E+00 0.  1.
         11    1    3    3    0    0  0.48475696217E+00  0.28529124096E+01 -0.16161712415E+02  0.16418740724E+02  0.51100000000E-03 0. -1.
        -11    1    3    3    0    0  0.49020472060E+00  0.33450878626E+00 -0.82097427445E+01  0.82311647407E+01  0.51100000000E-03 0.  1.
         12    1    3    3    0    0  0.59316078086E+01  0.97151951307E+01 -0.18230601369E+02  0.21492412938E+02  0.00000000000E+00 0. -1.
</event>
<event>
 7    1  0.2001181E-008  0.4614232E+02  0.7816164E-02  0.1320468E+00
        -11   -1    0    0    0    0  0.00000000000E+00  0.00000000000E+00  0.45593999997E+02  0.45594000000E+02  0.51100000000E-03 0.  1.
         11   -1    0    0    0    0 -0.00000000000E+00 -0.00000000000E+00 -0.45593999997E+02  0.45594000000E+02  0.51100000000E-03 0. -1.
    9900012    2    1    2    0    0  0.80299342443E+01  0.29983460632E+01 -0.44222659781E+02  0.46142316952E+02  0.99999926259E+01 0.  0.
        -12    1    1    2    0    0 -0.80299342443E+01 -0.29983460632E+01  0.44222659781E+02  0.45045683048E+02  0.00000000000E+00 0.  1.
         11    1    3    3    0    0  0.49791287064E+01  0.65371329796E+01 -0.32106227252E+02  0.33141147519E+02  0.51100000000E-03 0. -1.
        -11    1    3    3    0    0  0.82507641028E+00 -0.88403299810E+00 -0.39316882346E+01  0.41134460079E+01  0.51100000000E-03 0.  1.
         12    1    3    3    0    0  0.22257291276E+01 -0.26547539183E+01 -0.81847442948E+01  0.88877234254E+01  0.00000000000E+00 0. -1.
</event>
<event>
 7    1  0.2001181E-008  0.4614232E+02  0.7816164E-02  0.1320468E+00
        -11   -1    0    0    0    0  0.00000000000E+00  0.00000000000E+00  0.45593999997E+02  0.45594000000E+02  0.51100000000E-03 0. -1.
         11   -1    0    0    0    0 -0.00000000000E+00 -0.00000000000E+00 -0.45593999997E+02  0.45594000000E+02  0.51100000000E-03 0.  1.
    9900012    2    1    2    0    0 -0.10995459361E+02 -0.95445023734E+01  0.42627640987E+02  0.46142318429E+02  0.10000006088E+02 0.  0.
        -12    1    1    2    0    0  0.10995459361E+02  0.95445023734E+01 -0.42627640987E+02  0.45045681571E+02  0.00000000000E+00 0.  1.
         11    1    3    3    0    0 -0.27694072781E+01 -0.51649177814E+01  0.16937453895E+02  0.17922704513E+02  0.51100000000E-03 0. -1.
        -11    1    3    3    0    0 -0.44622430800E+01 -0.16920170607E+01  0.46000819328E+01  0.66283700174E+01  0.51100000000E-03 0.  1.
        -12    1    3    3    0    0 -0.37638090033E+01 -0.26875675314E+01  0.21090105159E+02  0.21591243898E+02  0.00000000000E+00 0.  1.
</event>
<event>
 7    1  0.2001181E-008  0.4614232E+02  0.7816164E-02  0.1320468E+00
        -11   -1    0    0    0    0  0.00000000000E+00  0.00000000000E+00  0.45593999997E+02  0.45594000000E+02  0.51100000000E-03 0. -1.
         11   -1    0    0    0    0 -0.00000000000E+00 -0.00000000000E+00 -0.45593999997E+02  0.45594000000E+02  0.51100000000E-03 0.  1.
    9900012    2    1    2    0    0  0.35761179427E+02  0.22995072263E+02  0.14882144130E+02  0.46142317451E+02  0.99999971724E+01 0.  0.
        -12    1    1    2    0    0 -0.35761179427E+02 -0.22995072263E+02 -0.14882144130E+02  0.45045682549E+02  0.00000000000E+00 0.  1.
         11    1    3    3    0    0  0.17095220373E+02  0.14021449508E+02  0.80380913092E+01  0.23525699098E+02  0.51100000000E-03 0. -1.
        -11    1    3    3    0    0  0.19075152677E+02  0.89335077981E+01  0.64064559612E+01  0.22016168819E+02  0.51100000000E-03 0.  1.
        -12    1    3    3    0    0 -0.40919362331E+00  0.40114957705E-01  0.43759685919E+00  0.60044953357E+00  0.00000000000E+00 0.  1.
</event>
<event>
 7    1  0.2001181E-008  0.4614232E+02  0.7816164E-02  0.1320468E+00
        -11   -1    0    0    0    0  0.00000000000E+00  0.00000000000E+00  0.45593999997E+02  0.45594000000E+02  0.51100000000E-03 0. -1.
         11   -1    0    0    0    0 -0.00000000000E+00 -0.00000000000E+00 -0.45593999997E+02  0.45594000000E+02  0.51100000000E-03 0.  1.
    9900012    2    1    2    0    0  0.76740296143E+00  0.14212331569E+02  0.42737970645E+02  0.46142318622E+02  0.10000007851E+02 0.  0.
        -12    1    1    2    0    0 -0.76740296143E+00 -0.14212331569E+02 -0.42737970645E+02  0.45045681378E+02  0.00000000000E+00 0.  1.
         11    1    3    3    0    0 -0.13296783511E+01  0.53362544852E+01  0.29633881929E+02  0.30139850943E+02  0.51100000000E-03 0. -1.
        -11    1    3    3    0    0  0.98393182559E+00  0.57439979008E+01  0.89855438595E+01  0.10709884800E+02  0.51100000000E-03 0.  1.
        -12    1    3    3    0    0  0.11131494869E+01  0.31320791835E+01  0.41185448570E+01  0.52925828789E+01  0.00000000000E+00 0.  1.
</event>
<event>
 7    1  0.2001181E-008  0.4614232E+02  0.7816164E-02  0.1320468E+00
        -11   -1    0    0    0    0  0.00000000000E+00  0.00000000000E+00  0.45593999997E+02  0.45594000000E+02  0.51100000000E-03 0.  1.
         11   -1    0    0    0    0 -0.00000000000E+00 -0.00000000000E+00 -0.45593999997E+02  0.45594000000E+02  0.51100000000E-03 0. -1.
    9900012    2    1    2    0    0 -0.46476519579E+01  0.27066797587E+02 -0.35705759649E+02  0.46142317938E+02  0.10000001611E+02 0.  0.
        -12    1    1    2    0    0  0.46476519579E+01 -0.27066797587E+02  0.35705759649E+02  0.45045682062E+02  0.00000000000E+00 0.  1.
         11    1    3    3    0    0 -0.13673958010E+01  0.16791532646E+02 -0.20884437579E+02  0.26832537583E+02  0.51100000000E-03 0. -1.
        -11    1    3    3    0    0  0.17767096871E+01  0.25629491325E+01 -0.31242019297E+01  0.44142998909E+01  0.51100000000E-03 0.  1.
        -12    1    3    3    0    0 -0.50569658439E+01  0.77123158077E+01 -0.11697120141E+02  0.14895480464E+02  0.00000000000E+00 0.  1.
</event>
<event>
 7    1  0.2001181E-008  0.4614232E+02  0.7816164E-02  0.1320468E+00
        -11   -1    0    0    0    0  0.00000000000E+00  0.00000000000E+00  0.45593999997E+02  0.45594000000E+02  0.51100000000E-03 0.  1.
         11   -1    0    0    0    0 -0.00000000000E+00 -0.00000000000E+00 -0.45593999997E+02  0.45594000000E+02  0.51100000000E-03 0. -1.
    9900012    2    1    2    0    0  0.33501951885E+02  0.29791335539E+02 -0.43828016052E+01  0.46142318706E+02  0.10000008619E+02 0.  0.
        -12    1    1    2    0    0 -0.33501951885E+02 -0.29791335539E+02  0.43828016052E+01  0.45045681294E+02  0.00000000000E+00 0.  1.
         11    1    3    3    0    0  0.29039680402E+02  0.23911729920E+02 -0.23694000603E+01  0.37692014042E+02  0.51100000000E-03 0. -1.
        -11    1    3    3    0    0  0.30511205742E+01  0.58612306626E+01 -0.23252158332E+01  0.70049975425E+01  0.51100000000E-03 0.  1.
        -12    1    3    3    0    0  0.14111509085E+01  0.18374956427E-01  0.31181428835E+00  0.14453071217E+01  0.00000000000E+00 0.  1.
</event>
<event>
 7    1  0.2001181E-008  0.4614232E+02  0.7816164E-02  0.1320468E+00
        -11   -1    0    0    0    0  0.00000000000E+00  0.00000000000E+00  0.45593999997E+02  0.45594000000E+02  0.51100000000E-03 0.  1.
         11   -1    0    0    0    0 -0.00000000000E+00 -0.00000000000E+00 -0.45593999997E+02  0.45594000000E+02  0.51100000000E-03 0. -1.
    9900012    2    1    2    0    0 -0.10354169036E+02  0.32966039386E+02 -0.28898874270E+02  0.46142317595E+02  0.99999984884E+01 0.  0.
        -12    1    1    2    0    0  0.10354169036E+02 -0.32966039386E+02  0.28898874270E+02  0.45045682405E+02  0.00000000000E+00 0.  1.
         11    1    3    3    0    0 -0.71076488774E+01  0.17281390236E+02 -0.17933357728E+02  0.25899236296E+02  0.51100000000E-03 0. -1.
        -11    1    3    3    0    0 -0.27234867780E+00  0.68110501973E+01 -0.78107688362E+01  0.10366903524E+02  0.51100000000E-03 0.  1.
         12    1    3    3    0    0 -0.29741714811E+01  0.88735989525E+01 -0.31547477055E+01  0.98761777755E+01  0.00000000000E+00 0. -1.
</event>
<event>
 7    1  0.2001181E-008  0.4614232E+02  0.7816164E-02  0.1320468E+00
        -11   -1    0    0    0    0  0.00000000000E+00  0.00000000000E+00  0.45593999997E+02  0.45594000000E+02  0.51100000000E-03 0.  1.
         11   -1    0    0    0    0 -0.00000000000E+00 -0.00000000000E+00 -0.45593999997E+02  0.45594000000E+02  0.51100000000E-03 0. -1.
    9900012    2    1    2    0    0 -0.32333286942E+02 -0.28751884618E+02 -0.12530011117E+02  0.46142317719E+02  0.99999996171E+01 0.  0.
        -12    1    1    2    0    0  0.32333286942E+02  0.28751884618E+02  0.12530011117E+02  0.45045682281E+02  0.00000000000E+00 0.  1.
         11    1    3    3    0    0 -0.18880103299E+02 -0.19573307517E+02 -0.83745877066E+01  0.28455340224E+02  0.51100000000E-03 0. -1.
        -11    1    3    3    0    0 -0.13396843620E+02 -0.72678122470E+01 -0.40611403840E+01  0.15773058528E+02  0.51100000000E-03 0.  1.
        -12    1    3    3    0    0 -0.56340023034E-01 -0.19107648543E+01 -0.94283026200E-01  0.19139189679E+01  0.00000000000E+00 0.  1.
</event>
<event>
 7    1  0.2001181E-008  0.4614232E+02  0.7816164E-02  0.1320468E+00
        -11   -1    0    0    0    0  0.00000000000E+00  0.00000000000E+00  0.45593999997E+02  0.45594000000E+02  0.51100000000E-03 0. -1.
         11   -1    0    0    0    0 -0.00000000000E+00 -0.00000000000E+00 -0.45593999997E+02  0.45594000000E+02  0.51100000000E-03 0.  1.
    9900012    2    1    2    0    0  0.33976099264E+02  0.29562939770E+02  0.87795385508E+00  0.46142317277E+02  0.99999955837E+01 0.  0.
        -12    1    1    2    0    0 -0.33976099264E+02 -0.29562939770E+02 -0.87795385508E+00  0.45045682723E+02  0.00000000000E+00 0.  1.
         11    1    3    3    0    0  0.21458852730E+02  0.23102579060E+02  0.34970211611E+01  0.31724449199E+02  0.51100000000E-03 0. -1.
        -11    1    3    3    0    0  0.16648004505E+00 -0.97449266057E-01 -0.58512355469E-01  0.20158353533E+00  0.51100000000E-03 0.  1.
         12    1    3    3    0    0  0.12350766488E+02  0.65578099761E+01 -0.25605549505E+01  0.14216284542E+02  0.00000000000E+00 0. -1.
</event>
<event>
 7    1  0.2001181E-008  0.4614232E+02  0.7816164E-02  0.1320468E+00
        -11   -1    0    0    0    0  0.00000000000E+00  0.00000000000E+00  0.45593999997E+02  0.45594000000E+02  0.51100000000E-03 0.  1.
         11   -1    0    0    0    0 -0.00000000000E+00 -0.00000000000E+00 -0.45593999997E+02  0.45594000000E+02  0.51100000000E-03 0. -1.
    9900012    2    1    2    0    0  0.11076424181E+02  0.26033296942E+02 -0.35052728392E+02  0.46142317743E+02  0.99999998319E+01 0.  0.
        -12    1    1    2    0    0 -0.11076424181E+02 -0.26033296942E+02  0.35052728392E+02  0.45045682257E+02  0.00000000000E+00 0.  1.
         11    1    3    3    0    0  0.50584324530E+01  0.16234272009E+02 -0.17910427269E+02  0.24696613771E+02  0.51100000000E-03 0. -1.
        -11    1    3    3    0    0 -0.84821728040E+00  0.10202462711E+01 -0.50335420344E+00  0.14190633262E+01  0.51100000000E-03 0.  1.
         12    1    3    3    0    0  0.68662090086E+01  0.87787786616E+01 -0.16638946920E+02  0.20026640645E+02  0.00000000000E+00 0. -1.
</event>
<event>
 7    1  0.2001181E-008  0.4614232E+02  0.7816164E-02  0.1320468E+00
        -11   -1    0    0    0    0  0.00000000000E+00  0.00000000000E+00  0.45593999997E+02  0.45594000000E+02  0.51100000000E-03 0. -1.
         11   -1    0    0    0    0 -0.00000000000E+00 -0.00000000000E+00 -0.45593999997E+02  0.45594000000E+02  0.51100000000E-03 0.  1.
    9900012    2    1    2    0    0  0.25426290069E+01 -0.49900855018E+01  0.44696169268E+02  0.46142318045E+02  0.10000002585E+02 0.  0.
        -12    1    1    2    0    0 -0.25426290069E+01  0.49900855018E+01 -0.44696169268E+02  0.45045681955E+02  0.00000000000E+00 0.  1.
         11    1    3    3    0    0  0.78681858469E+00 -0.37795730833E+01  0.18925473440E+02  0.19315222012E+02  0.51100000000E-03 0. -1.
        -11    1    3    3    0    0  0.38728866904E+01 -0.22900654352E+01  0.21236362283E+02  0.21707757468E+02  0.51100000000E-03 0.  1.
        -12    1    3    3    0    0 -0.21170762682E+01  0.10795530167E+01  0.45343335452E+01  0.51193385647E+01  0.00000000000E+00 0.  1.
</event>
<event>
 7    1  0.2001181E-008  0.4614233E+02  0.7816164E-02  0.1320468E+00
        -11   -1    0    0    0    0  0.00000000000E+00  0.00000000000E+00  0.45593999997E+02  0.45594000000E+02  0.51100000000E-03 0. -1.
         11   -1    0    0    0    0 -0.00000000000E+00 -0.00000000000E+00 -0.45593999997E+02  0.45594000000E+02  0.51100000000E-03 0.  1.
    9900012    2    1    2    0    0 -0.12526916828E+02  0.31222770631E+02  0.29955422552E+02  0.46142329938E+02  0.10000111034E+02 0.  0.
        -12    1    1    2    0    0  0.12526916828E+02 -0.31222770631E+02 -0.29955422552E+02  0.45045670062E+02  0.00000000000E+00 0.  1.
         11    1    3    3    0    0  0.61883341561E+00  0.12919817969E+01  0.35493175059E+01  0.38275092134E+01  0.51100000000E-03 0. -1.
        -11    1    3    3    0    0 -0.85554785609E+00  0.52580567642E+01  0.59694067114E+01  0.80008086977E+01  0.51100000000E-03 0.  1.
         12    1    3    3    0    0 -0.12290202387E+02  0.24672732070E+02  0.20436698335E+02  0.34314012026E+02  0.00000000000E+00 0. -1.
</event>
<event>
 7    1  0.2001181E-008  0.4614232E+02  0.7816164E-02  0.1320468E+00
        -11   -1    0    0    0    0  0.00000000000E+00  0.00000000000E+00  0.45593999997E+02  0.45594000000E+02  0.51100000000E-03 0. -1.
         11   -1    0    0    0    0 -0.00000000000E+00 -0.00000000000E+00 -0.45593999997E+02  0.45594000000E+02  0.51100000000E-03 0.  1.
    9900012    2    1    2    0    0 -0.11912611943E+02 -0.20048534354E+02  0.38539064221E+02  0.46142317364E+02  0.99999963806E+01 0.  0.
        -12    1    1    2    0    0  0.11912611943E+02  0.20048534354E+02 -0.38539064221E+02  0.45045682636E+02  0.00000000000E+00 0.  1.
         11    1    3    3    0    0 -0.18130888910E+01 -0.74658307798E+01  0.98030238162E+01  0.12454926606E+02  0.51100000000E-03 0. -1.
        -11    1    3    3    0    0 -0.75988485306E+00 -0.60131198074E+01  0.82975661802E+01  0.10275438657E+02  0.51100000000E-03 0.  1.
         12    1    3    3    0    0 -0.93396381990E+01 -0.65695837670E+01  0.20438474225E+02  0.23411952102E+02  0.00000000000E+00 0. -1.
</event>
<event>
 7    1  0.2001181E-008  0.4614232E+02  0.7816164E-02  0.1320468E+00
        -11   -1    0    0    0    0  0.00000000000E+00  0.00000000000E+00  0.45593999997E+02  0.45594000000E+02  0.51100000000E-03 0. -1.
         11   -1    0    0    0    0 -0.00000000000E+00 -0.00000000000E+00 -0.45593999997E+02  0.45594000000E+02  0.51100000000E-03 0.  1.
    9900012    2    1    2    0    0  0.15437496697E+02 -0.28947542031E+02  0.30868057548E+02  0.46142317958E+02  0.10000001792E+02 0.  0.
        -12    1    1    2    0    0 -0.15437496697E+02  0.28947542031E+02 -0.30868057548E+02  0.45045682042E+02  0.00000000000E+00 0.  1.
         11    1    3    3    0    0  0.71323253823E+01 -0.81079643024E+01  0.14476348819E+02  0.18060283106E+02  0.51100000000E-03 0. -1.
        -11    1    3    3    0    0  0.65930790194E+01 -0.12863563917E+02  0.87059497735E+01  0.16874048990E+02  0.51100000000E-03 0.  1.
        -12    1    3    3    0    0  0.17120922949E+01 -0.79760138121E+01  0.76857589548E+01  0.11207985861E+02  0.00000000000E+00 0.  1.
</event>
<event>
 7    1  0.2001181E-008  0.4614232E+02  0.7816164E-02  0.1320468E+00
        -11   -1    0    0    0    0  0.00000000000E+00  0.00000000000E+00  0.45593999997E+02  0.45594000000E+02  0.51100000000E-03 0. -1.
         11   -1    0    0    0    0 -0.00000000000E+00 -0.00000000000E+00 -0.45593999997E+02  0.45594000000E+02  0.51100000000E-03 0.  1.
    9900012    2    1    2    0    0 -0.13027709292E+02 -0.42937511840E+02 -0.39701988941E+01  0.46142316393E+02  0.99999875204E+01 0.  0.
        -12    1    1    2    0    0  0.13027709292E+02  0.42937511840E+02  0.39701988941E+01  0.45045683607E+02  0.00000000000E+00 0.  1.
         11    1    3    3    0    0 -0.64899260660E+01 -0.17249556386E+02 -0.10018205850E+01  0.18457247374E+02  0.51100000000E-03 0. -1.
        -11    1    3    3    0    0 -0.19728590839E+01 -0.10797465882E+01  0.77467898073E+00  0.23786873363E+01  0.51100000000E-03 0.  1.
         12    1    3    3    0    0 -0.45649241422E+01 -0.24608208866E+02 -0.37430572898E+01  0.25306381683E+02  0.00000000000E+00 0. -1.
</event>
<event>
 7    1  0.2001181E-008  0.4614232E+02  0.7816164E-02  0.1320468E+00
        -11   -1    0    0    0    0  0.00000000000E+00  0.00000000000E+00  0.45593999997E+02  0.45594000000E+02  0.51100000000E-03 0.  1.
         11   -1    0    0    0    0 -0.00000000000E+00 -0.00000000000E+00 -0.45593999997E+02  0.45594000000E+02  0.51100000000E-03 0. -1.
    9900012    2    1    2    0    0 -0.57049470369E+01  0.37468211306E+02 -0.24345435012E+02  0.46142317797E+02  0.10000000329E+02 0.  0.
        -12    1    1    2    0    0  0.57049470369E+01 -0.37468211306E+02  0.24345435012E+02  0.45045682203E+02  0.00000000000E+00 0.  1.
         11    1    3    3    0    0 -0.17363285513E+01  0.22875651625E+02 -0.14914637878E+02  0.27363418964E+02  0.51100000000E-03 0. -1.
        -11    1    3    3    0    0 -0.44999064705E+01  0.81275293138E+01 -0.33155423427E+01  0.98640109630E+01  0.51100000000E-03 0.  1.
        -12    1    3    3    0    0  0.53128798478E+00  0.64650303679E+01 -0.61152547916E+01  0.89148878707E+01  0.00000000000E+00 0.  1.
</event>
<event>
 7    1  0.2001181E-008  0.4614232E+02  0.7816164E-02  0.1320468E+00
        -11   -1    0    0    0    0  0.00000000000E+00  0.00000000000E+00  0.45593999997E+02  0.45594000000E+02  0.51100000000E-03 0.  1.
         11   -1    0    0    0    0 -0.00000000000E+00 -0.00000000000E+00 -0.45593999997E+02  0.45594000000E+02  0.51100000000E-03 0. -1.
    9900012    2    1    2    0    0 -0.36624683918E+02 -0.25686377901E+02 -0.52873428809E+01  0.46142317893E+02  0.10000001199E+02 0.  0.
        -12    1    1    2    0    0  0.36624683918E+02  0.25686377901E+02  0.52873428809E+01  0.45045682107E+02  0.00000000000E+00 0.  1.
         11    1    3    3    0    0 -0.16189774291E+02 -0.13387105170E+02 -0.21495774915E+00  0.21008797765E+02  0.51100000000E-03 0.  1.
        -11    1    3    3    0    0 -0.10369171009E+02 -0.49504343885E+01  0.45630914450E+00  0.11499335909E+02  0.51100000000E-03 0. -1.
         12    1    3    3    0    0 -0.10065738618E+02 -0.73488383423E+01 -0.55286942762E+01  0.13634184219E+02  0.00000000000E+00 0. -1.
</event>
<event>
 7    1  0.2001181E-008  0.4614232E+02  0.7816164E-02  0.1320468E+00
        -11   -1    0    0    0    0  0.00000000000E+00  0.00000000000E+00  0.45593999997E+02  0.45594000000E+02  0.51100000000E-03 0. -1.
         11   -1    0    0    0    0 -0.00000000000E+00 -0.00000000000E+00 -0.45593999997E+02  0.45594000000E+02  0.51100000000E-03 0.  1.
    9900012    2    1    2    0    0 -0.41477469726E+02 -0.17316917782E+02 -0.29761353826E+01  0.46142317430E+02  0.99999969825E+01 0.  0.
        -12    1    1    2    0    0  0.41477469726E+02  0.17316917782E+02  0.29761353826E+01  0.45045682570E+02  0.00000000000E+00 0.  1.
         11    1    3    3    0    0 -0.25729085392E+02 -0.79939785387E+01 -0.26082449555E+01  0.27068292706E+02  0.51100000000E-03 0. -1.
        -11    1    3    3    0    0 -0.74834010282E+01 -0.57202133340E+01 -0.26280121301E+01  0.97789866322E+01  0.51100000000E-03 0.  1.
        -12    1    3    3    0    0 -0.82649833057E+01 -0.36027259096E+01  0.22601217029E+01  0.92950380922E+01  0.00000000000E+00 0.  1.
</event>
<event>
 7    1  0.2001181E-008  0.4614232E+02  0.7816164E-02  0.1320468E+00
        -11   -1    0    0    0    0  0.00000000000E+00  0.00000000000E+00  0.45593999997E+02  0.45594000000E+02  0.51100000000E-03 0.  1.
         11   -1    0    0    0    0 -0.00000000000E+00 -0.00000000000E+00 -0.45593999997E+02  0.45594000000E+02  0.51100000000E-03 0. -1.
    9900012    2    1    2    0    0  0.32747216073E+02  0.27644495722E+02 -0.13874976080E+02  0.46142320235E+02  0.10000022558E+02 0.  0.
        -12    1    1    2    0    0 -0.32747216073E+02 -0.27644495722E+02  0.13874976080E+02  0.45045679765E+02  0.00000000000E+00 0.  1.
         11    1    3    3    0    0  0.88194824219E+01  0.69229252773E+01 -0.57371820644E+01  0.12594658506E+02  0.51100000000E-03 0. -1.
        -11    1    3    3    0    0  0.61835637425E+01  0.18915265733E+01 -0.31706918346E+01  0.72019178214E+01  0.51100000000E-03 0.  1.
         12    1    3    3    0    0  0.17744169909E+02  0.18830043872E+02 -0.49671021811E+01  0.26345743907E+02  0.00000000000E+00 0. -1.
</event>
<event>
 7    1  0.2001181E-008  0.4614232E+02  0.7816164E-02  0.1320468E+00
        -11   -1    0    0    0    0  0.00000000000E+00  0.00000000000E+00  0.45593999997E+02  0.45594000000E+02  0.51100000000E-03 0. -1.
         11   -1    0    0    0    0 -0.00000000000E+00 -0.00000000000E+00 -0.45593999997E+02  0.45594000000E+02  0.51100000000E-03 0.  1.
    9900012    2    1    2    0    0 -0.21682460435E+02 -0.37613055547E+02  0.12010096952E+02  0.46142317999E+02  0.10000002171E+02 0.  0.
        -12    1    1    2    0    0  0.21682460435E+02  0.37613055547E+02 -0.12010096952E+02  0.45045682001E+02  0.00000000000E+00 0.  1.
         11    1    3    3    0    0 -0.21804433739E+01 -0.49610920082E+01  0.35788903143E+00  0.54309163168E+01  0.51100000000E-03 0. -1.
        -11    1    3    3    0    0 -0.12733986941E+00 -0.61000132471E+01  0.11810526275E+01  0.62146007617E+01  0.51100000000E-03 0.  1.
         12    1    3    3    0    0 -0.19374677192E+02 -0.26551950292E+02  0.10471155293E+02  0.34496800921E+02  0.00000000000E+00 0. -1.
</event>
<event>
 7    1  0.2001181E-008  0.4614231E+02  0.7816164E-02  0.1320468E+00
        -11   -1    0    0    0    0  0.00000000000E+00  0.00000000000E+00  0.45593999997E+02  0.45594000000E+02  0.51100000000E-03 0. -1.
         11   -1    0    0    0    0 -0.00000000000E+00 -0.00000000000E+00 -0.45593999997E+02  0.45594000000E+02  0.51100000000E-03 0.  1.
    9900012    2    1    2    0    0  0.57881907499E+00  0.44964843742E+02  0.26347813976E+01  0.46142309004E+02  0.99999201456E+01 0.  0.
        -12    1    1    2    0    0 -0.57881907499E+00 -0.44964843742E+02 -0.26347813976E+01  0.45045690996E+02  0.00000000000E+00 0.  1.
         11    1    3    3    0    0  0.49893617473E+00  0.17668710773E+02 -0.13579893801E+01  0.17727842878E+02  0.51100000000E-03 0. -1.
        -11    1    3    3    0    0 -0.15476366775E+01  0.19117188867E+02  0.54718692692E+01  0.19945010480E+02  0.51100000000E-03 0.  1.
        -12    1    3    3    0    0  0.16275195778E+01  0.81789441014E+01 -0.14790984914E+01  0.84694556458E+01  0.00000000000E+00 0.  1.
</event>
<event>
 7    1  0.2001181E-008  0.4614232E+02  0.7816164E-02  0.1320468E+00
        -11   -1    0    0    0    0  0.00000000000E+00  0.00000000000E+00  0.45593999997E+02  0.45594000000E+02  0.51100000000E-03 0.  1.
         11   -1    0    0    0    0 -0.00000000000E+00 -0.00000000000E+00 -0.45593999997E+02  0.45594000000E+02  0.51100000000E-03 0. -1.
    9900012    2    1    2    0    0  0.28531909430E+02 -0.33100542412E+02 -0.10926932688E+02  0.46142316282E+02  0.99999865119E+01 0.  0.
        -12    1    1    2    0    0 -0.28531909430E+02  0.33100542412E+02  0.10926932688E+02  0.45045683718E+02  0.00000000000E+00 0.  1.
         11    1    3    3    0    0  0.14575525154E+02 -0.16678887482E+02 -0.37810436548E+01  0.22470592172E+02  0.51100000000E-03 0. -1.
        -11    1    3    3    0    0  0.14229585146E+02 -0.13589786373E+02 -0.67349318649E+01  0.20797179967E+02  0.51100000000E-03 0.  1.
        -12    1    3    3    0    0 -0.27320087052E+00 -0.28318685569E+01 -0.41095716826E+00  0.28745441436E+01  0.00000000000E+00 0.  1.
</event>
<event>
 7    1  0.2001181E-008  0.4614232E+02  0.7816164E-02  0.1320468E+00
        -11   -1    0    0    0    0  0.00000000000E+00  0.00000000000E+00  0.45593999997E+02  0.45594000000E+02  0.51100000000E-03 0.  1.
         11   -1    0    0    0    0 -0.00000000000E+00 -0.00000000000E+00 -0.45593999997E+02  0.45594000000E+02  0.51100000000E-03 0. -1.
    9900012    2    1    2    0    0  0.44733259887E+02 -0.12567342271E+01 -0.51448604169E+01  0.46142317524E+02  0.99999978363E+01 0.  0.
        -12    1    1    2    0    0 -0.44733259887E+02  0.12567342271E+01  0.51448604169E+01  0.45045682476E+02  0.00000000000E+00 0.  1.
         11    1    3    3    0    0  0.13278557145E+02  0.15966927519E+01 -0.43513670556E+01  0.14064277554E+02  0.51100000000E-03 0. -1.
        -11    1    3    3    0    0  0.10570959380E+01  0.74633457501E-01  0.10399307447E+01  0.14847485275E+01  0.51100000000E-03 0.  1.
         12    1    3    3    0    0  0.30397606804E+02 -0.29280604365E+01 -0.18334241060E+01  0.30593291442E+02  0.00000000000E+00 0. -1.
</event>
<event>
 7    1  0.2001181E-008  0.4614231E+02  0.7816164E-02  0.1320468E+00
        -11   -1    0    0    0    0  0.00000000000E+00  0.00000000000E+00  0.45593999997E+02  0.45594000000E+02  0.51100000000E-03 0.  1.
         11   -1    0    0    0    0 -0.00000000000E+00 -0.00000000000E+00 -0.45593999997E+02  0.45594000000E+02  0.51100000000E-03 0. -1.
    9900012    2    1    2    0    0 -0.28189229000E+02  0.19487865735E+02 -0.29235328490E+02  0.46142312366E+02  0.99999508036E+01 0.  0.
        -12    1    1    2    0    0  0.28189229000E+02 -0.19487865735E+02  0.29235328490E+02  0.45045687634E+02  0.00000000000E+00 0.  1.
         11    1    3    3    0    0 -0.83591570937E+01  0.38852187885E+01 -0.13446866334E+02  0.16303025695E+02  0.51100000000E-03 0. -1.
        -11    1    3    3    0    0 -0.47138482950E+01  0.28688865846E+01 -0.41257672657E+01  0.68900531040E+01  0.51100000000E-03 0.  1.
        -12    1    3    3    0    0 -0.15116223611E+02  0.12733760362E+02 -0.11662694890E+02  0.22949233567E+02  0.00000000000E+00 0.  1.
</event>
<event>
 7    1  0.2001181E-008  0.4614232E+02  0.7816164E-02  0.1320468E+00
        -11   -1    0    0    0    0  0.00000000000E+00  0.00000000000E+00  0.45593999997E+02  0.45594000000E+02  0.51100000000E-03 0.  1.
         11   -1    0    0    0    0 -0.00000000000E+00 -0.00000000000E+00 -0.45593999997E+02  0.45594000000E+02  0.51100000000E-03 0. -1.
    9900012    2    1    2    0    0 -0.18908147431E+02 -0.31190458065E+02  0.26433894270E+02  0.46142317856E+02  0.10000000864E+02 0.  0.
        -12    1    1    2    0    0  0.18908147431E+02  0.31190458065E+02 -0.26433894270E+02  0.45045682144E+02  0.00000000000E+00 0.  1.
         11    1    3    3    0    0 -0.42928698936E+01 -0.49927338982E+01  0.77364480240E+01  0.10159170832E+02  0.51100000000E-03 0. -1.
        -11    1    3    3    0    0 -0.37686093892E+01 -0.11645486243E+02  0.10244059887E+02  0.15961219559E+02  0.51100000000E-03 0.  1.
         12    1    3    3    0    0 -0.10846668148E+02 -0.14552237923E+02  0.84533863589E+01  0.20021927465E+02  0.00000000000E+00 0. -1.
</event>
<event>
 7    1  0.2001181E-008  0.4614232E+02  0.7816164E-02  0.1320468E+00
        -11   -1    0    0    0    0  0.00000000000E+00  0.00000000000E+00  0.45593999997E+02  0.45594000000E+02  0.51100000000E-03 0.  1.
         11   -1    0    0    0    0 -0.00000000000E+00 -0.00000000000E+00 -0.45593999997E+02  0.45594000000E+02  0.51100000000E-03 0. -1.
    9900012    2    1    2    0    0  0.62268012079E+00 -0.37142692078E+02 -0.25478348723E+02  0.46142316977E+02  0.99999928492E+01 0.  0.
        -12    1    1    2    0    0 -0.62268012079E+00  0.37142692078E+02  0.25478348723E+02  0.45045683023E+02  0.00000000000E+00 0.  1.
         11    1    3    3    0    0  0.75256921971E+00 -0.17376626767E+01 -0.16347264536E+01  0.25016320368E+01  0.51100000000E-03 0. -1.
        -11    1    3    3    0    0  0.41639444466E+01 -0.23335917850E+02 -0.14540559426E+02  0.27808836077E+02  0.51100000000E-03 0.  1.
         12    1    3    3    0    0 -0.42938335455E+01 -0.12069111551E+02 -0.93030628442E+01  0.15831848864E+02  0.00000000000E+00 0. -1.
</event>
<event>
 7    1  0.2001181E-008  0.4614231E+02  0.7816164E-02  0.1320468E+00
        -11   -1    0    0    0    0  0.00000000000E+00  0.00000000000E+00  0.45593999997E+02  0.45594000000E+02  0.51100000000E-03 0.  1.
         11   -1    0    0    0    0 -0.00000000000E+00 -0.00000000000E+00 -0.45593999997E+02  0.45594000000E+02  0.51100000000E-03 0. -1.
    9900012    2    1    2    0    0  0.14833170640E+02  0.11622267598E+02 -0.40914715369E+02  0.46142312203E+02  0.99999493153E+01 0.  0.
        -12    1    1    2    0    0 -0.14833170640E+02 -0.11622267598E+02  0.40914715369E+02  0.45045687797E+02  0.00000000000E+00 0.  1.
         11    1    3    3    0    0  0.10306757877E+01  0.69659954031E+00 -0.30948924022E+01  0.33355513399E+01  0.51100000000E-03 0. -1.
        -11    1    3    3    0    0  0.88394593609E+01  0.11825062659E+02 -0.25051100995E+02  0.29077926508E+02  0.51100000000E-03 0.  1.
        -12    1    3    3    0    0  0.49630354919E+01 -0.89939460161E+00 -0.12768721972E+02  0.13728834355E+02  0.00000000000E+00 0.  1.
</event>
<event>
 7    1  0.2001181E-008  0.4614232E+02  0.7816164E-02  0.1320468E+00
        -11   -1    0    0    0    0  0.00000000000E+00  0.00000000000E+00  0.45593999997E+02  0.45594000000E+02  0.51100000000E-03 0. -1.
         11   -1    0    0    0    0 -0.00000000000E+00 -0.00000000000E+00 -0.45593999997E+02  0.45594000000E+02  0.51100000000E-03 0.  1.
    9900012    2    1    2    0    0 -0.34885555749E+02 -0.38608131431E+01 -0.28234829162E+02  0.46142318122E+02  0.10000003294E+02 0.  0.
        -12    1    1    2    0    0  0.34885555749E+02  0.38608131431E+01  0.28234829162E+02  0.45045681878E+02  0.00000000000E+00 0.  1.
         11    1    3    3    0    0 -0.23991225650E+02 -0.15543652073E+01 -0.18519934036E+02  0.30347700347E+02  0.51100000000E-03 0. -1.
        -11    1    3    3    0    0 -0.10913897578E+02 -0.11613308291E+01 -0.74759353853E+01  0.13279738694E+02  0.51100000000E-03 0.  1.
        -12    1    3    3    0    0  0.19567478941E-01 -0.11451171067E+01 -0.22389597411E+01  0.25148790819E+01  0.00000000000E+00 0.  1.
</event>
<event>
 7    1  0.2001181E-008  0.4614232E+02  0.7816164E-02  0.1320468E+00
        -11   -1    0    0    0    0  0.00000000000E+00  0.00000000000E+00  0.45593999997E+02  0.45594000000E+02  0.51100000000E-03 0.  1.
         11   -1    0    0    0    0 -0.00000000000E+00 -0.00000000000E+00 -0.45593999997E+02  0.45594000000E+02  0.51100000000E-03 0. -1.
    9900012    2    1    2    0    0 -0.33017213435E+02  0.12518507538E+02 -0.27968984464E+02  0.46142317566E+02  0.99999982212E+01 0.  0.
        -12    1    1    2    0    0  0.33017213435E+02 -0.12518507538E+02  0.27968984464E+02  0.45045682434E+02  0.00000000000E+00 0.  1.
         11    1    3    3    0    0 -0.12334469359E+02  0.72307635880E+01 -0.11829285779E+02  0.18556806803E+02  0.51100000000E-03 0. -1.
        -11    1    3    3    0    0 -0.16420756060E+02  0.33278392601E+01 -0.15548023869E+02  0.22857313714E+02  0.51100000000E-03 0.  1.
        -12    1    3    3    0    0 -0.42619880166E+01  0.19599046901E+01 -0.59167481583E+00  0.47281970491E+01  0.00000000000E+00 0.  1.
</event>
<event>
 7    1  0.2001181E-008  0.4614232E+02  0.7816164E-02  0.1320468E+00
        -11   -1    0    0    0    0  0.00000000000E+00  0.00000000000E+00  0.45593999997E+02  0.45594000000E+02  0.51100000000E-03 0.  1.
         11   -1    0    0    0    0 -0.00000000000E+00 -0.00000000000E+00 -0.45593999997E+02  0.45594000000E+02  0.51100000000E-03 0. -1.
    9900012    2    1    2    0    0 -0.35331009514E+02 -0.27930021534E+02 -0.86440950003E+00  0.46142317188E+02  0.99999947769E+01 0.  0.
        -12    1    1    2    0    0  0.35331009514E+02  0.27930021534E+02  0.86440950003E+00  0.45045682812E+02  0.00000000000E+00 0.  1.
         11    1    3    3    0    0 -0.73328250626E+01 -0.22688925571E+01  0.12742155299E+01  0.77808625686E+01  0.51100000000E-03 0.  1.
        -11    1    3    3    0    0 -0.89169365994E+01 -0.52091225362E+01 -0.33779426081E+00  0.10332512818E+02  0.51100000000E-03 0. -1.
         12    1    3    3    0    0 -0.19081247852E+02 -0.20452006441E+02 -0.18008307691E+01  0.28028941801E+02  0.00000000000E+00 0. -1.
</event>
<event>
 7    1  0.2001181E-008  0.4614232E+02  0.7816164E-02  0.1320468E+00
        -11   -1    0    0    0    0  0.00000000000E+00  0.00000000000E+00  0.45593999997E+02  0.45594000000E+02  0.51100000000E-03 0. -1.
         11   -1    0    0    0    0 -0.00000000000E+00 -0.00000000000E+00 -0.45593999997E+02  0.45594000000E+02  0.51100000000E-03 0.  1.
    9900012    2    1    2    0    0 -0.26502205421E+02 -0.29988427262E+02 -0.20674641798E+02  0.46142317906E+02  0.10000001322E+02 0.  0.
        -12    1    1    2    0    0  0.26502205421E+02  0.29988427262E+02  0.20674641798E+02  0.45045682094E+02  0.00000000000E+00 0.  1.
         11    1    3    3    0    0 -0.74565062193E+01 -0.55547133251E+01 -0.34009395481E+01  0.99005411566E+01  0.51100000000E-03 0. -1.
        -11    1    3    3    0    0 -0.53845873811E+00 -0.20457457728E+01 -0.35111611586E+01  0.40991787619E+01  0.51100000000E-03 0.  1.
         12    1    3    3    0    0 -0.18507240464E+02 -0.22387968164E+02 -0.13762541091E+02  0.32142597988E+02  0.00000000000E+00 0. -1.
</event>
<event>
 7    1  0.2001181E-008  0.4614232E+02  0.7816164E-02  0.1320468E+00
        -11   -1    0    0    0    0  0.00000000000E+00  0.00000000000E+00  0.45593999997E+02  0.45594000000E+02  0.51100000000E-03 0.  1.
         11   -1    0    0    0    0 -0.00000000000E+00 -0.00000000000E+00 -0.45593999997E+02  0.45594000000E+02  0.51100000000E-03 0. -1.
    9900012    2    1    2    0    0  0.35127136444E+01 -0.31351581598E+02 -0.32153578719E+02  0.46142318184E+02  0.10000003853E+02 0.  0.
        -12    1    1    2    0    0 -0.35127136444E+01  0.31351581598E+02  0.32153578719E+02  0.45045681816E+02  0.00000000000E+00 0.  1.
         11    1    3    3    0    0  0.15431805745E+00 -0.16690253269E+02 -0.21030680460E+02  0.26849169244E+02  0.51100000000E-03 0. -1.
        -11    1    3    3    0    0  0.81916238731E+00 -0.66890198950E+00  0.24663920989E+00  0.10859502978E+01  0.51100000000E-03 0.  1.
        -12    1    3    3    0    0  0.25392331996E+01 -0.13992426339E+02 -0.11369537469E+02  0.18207198641E+02  0.00000000000E+00 0.  1.
</event>
<event>
 7    1  0.2001181E-008  0.4614232E+02  0.7816164E-02  0.1320468E+00
        -11   -1    0    0    0    0  0.00000000000E+00  0.00000000000E+00  0.45593999997E+02  0.45594000000E+02  0.51100000000E-03 0.  1.
         11   -1    0    0    0    0 -0.00000000000E+00 -0.00000000000E+00 -0.45593999997E+02  0.45594000000E+02  0.51100000000E-03 0. -1.
    9900012    2    1    2    0    0 -0.42467498246E+02  0.64056396880E+01 -0.13586495255E+02  0.46142317850E+02  0.10000000809E+02 0.  0.
        -12    1    1    2    0    0  0.42467498246E+02 -0.64056396880E+01  0.13586495255E+02  0.45045682150E+02  0.00000000000E+00 0.  1.
         11    1    3    3    0    0 -0.16417746357E+02  0.22641956402E+01 -0.51788955021E+01  0.17363465559E+02  0.51100000000E-03 0. -1.
        -11    1    3    3    0    0 -0.19916460046E+02  0.54475729506E+01 -0.89089565505E+01  0.22488017674E+02  0.51100000000E-03 0.  1.
        -12    1    3    3    0    0 -0.61332918427E+01 -0.13061289028E+01  0.50135679756E+00  0.62908346169E+01  0.00000000000E+00 0.  1.
</event>
<event>
 7    1  0.2001181E-008  0.4614232E+02  0.7816164E-02  0.1320468E+00
        -11   -1    0    0    0    0  0.00000000000E+00  0.00000000000E+00  0.45593999997E+02  0.45594000000E+02  0.51100000000E-03 0.  1.
         11   -1    0    0    0    0 -0.00000000000E+00 -0.00000000000E+00 -0.45593999997E+02  0.45594000000E+02  0.51100000000E-03 0. -1.
    9900012    2    1    2    0    0 -0.31491229449E+01  0.24833704250E+02 -0.37449747368E+02  0.46142318520E+02  0.10000006921E+02 0.  0.
        -12    1    1    2    0    0  0.31491229449E+01 -0.24833704250E+02  0.37449747368E+02  0.45045681480E+02  0.00000000000E+00 0.  1.
         11    1    3    3    0    0  0.17459451533E+01  0.30702977466E+01 -0.92616677789E+01  0.99122925219E+01  0.51100000000E-03 0. -1.
        -11    1    3    3    0    0  0.47950312177E+00  0.20898738328E+01 -0.13949852362E+01  0.25580226643E+01  0.51100000000E-03 0.  1.
        -12    1    3    3    0    0 -0.53745712200E+01  0.19673532671E+02 -0.26793094352E+02  0.33672003334E+02  0.00000000000E+00 0.  1.
</event>
<event>
 7    1  0.2001181E-008  0.4614232E+02  0.7816164E-02  0.1320468E+00
        -11   -1    0    0    0    0  0.00000000000E+00  0.00000000000E+00  0.45593999997E+02  0.45594000000E+02  0.51100000000E-03 0. -1.
         11   -1    0    0    0    0 -0.00000000000E+00 -0.00000000000E+00 -0.45593999997E+02  0.45594000000E+02  0.51100000000E-03 0.  1.
    9900012    2    1    2    0    0 -0.32690573875E+02  0.30977884259E+02  0.90035001031E+00  0.46142316926E+02  0.99999923832E+01 0.  0.
        -12    1    1    2    0    0  0.32690573875E+02 -0.30977884259E+02 -0.90035001031E+00  0.45045683074E+02  0.00000000000E+00 0.  1.
         11    1    3    3    0    0 -0.70426398651E+01  0.45852179491E+01  0.17006133932E+01  0.85740938929E+01  0.51100000000E-03 0. -1.
        -11    1    3    3    0    0 -0.21839663067E+01  0.18855840793E+01 -0.21725622589E+01  0.36118088514E+01  0.51100000000E-03 0.  1.
         12    1    3    3    0    0 -0.23463967703E+02  0.24507082231E+02  0.13722988760E+01  0.33956414182E+02  0.00000000000E+00 0. -1.
</event>
<event>
 7    1  0.2001181E-008  0.4614232E+02  0.7816164E-02  0.1320468E+00
        -11   -1    0    0    0    0  0.00000000000E+00  0.00000000000E+00  0.45593999997E+02  0.45594000000E+02  0.51100000000E-03 0.  1.
         11   -1    0    0    0    0 -0.00000000000E+00 -0.00000000000E+00 -0.45593999997E+02  0.45594000000E+02  0.51100000000E-03 0. -1.
    9900012    2    1    2    0    0 -0.17492221006E+02  0.23154381483E+02 -0.34453015031E+02  0.46142318494E+02  0.10000006682E+02 0.  0.
        -12    1    1    2    0    0  0.17492221006E+02 -0.23154381483E+02  0.34453015031E+02  0.45045681506E+02  0.00000000000E+00 0.  1.
         11    1    3    3    0    0 -0.98559712457E+01  0.12490425422E+02 -0.18993052641E+02  0.24776742024E+02  0.51100000000E-03 0. -1.
        -11    1    3    3    0    0 -0.47060110303E+01  0.87255805621E+01 -0.68046437761E+01  0.12024369969E+02  0.51100000000E-03 0.  1.
         12    1    3    3    0    0 -0.29302387300E+01  0.19383754994E+01 -0.86553186139E+01  0.93412065013E+01  0.00000000000E+00 0. -1.
</event>
<event>
 7    1  0.2001181E-008  0.4614232E+02  0.7816164E-02  0.1320468E+00
        -11   -1    0    0    0    0  0.00000000000E+00  0.00000000000E+00  0.45593999997E+02  0.45594000000E+02  0.51100000000E-03 0.  1.
         11   -1    0    0    0    0 -0.00000000000E+00 -0.00000000000E+00 -0.45593999997E+02  0.45594000000E+02  0.51100000000E-03 0. -1.
    9900012    2    1    2    0    0 -0.24917509961E+02  0.26160730495E+02 -0.26904401159E+02  0.46142324021E+02  0.10000057082E+02 0.  0.
        -12    1    1    2    0    0  0.24917509961E+02 -0.26160730495E+02  0.26904401159E+02  0.45045675979E+02  0.00000000000E+00 0.  1.
         11    1    3    3    0    0 -0.14114132100E+02  0.15537292327E+02 -0.20455024117E+02  0.29309114447E+02  0.51100000000E-03 0.  1.
        -11    1    3    3    0    0 -0.72688526794E+01  0.78975131838E+01 -0.61244395254E+01  0.12357819125E+02  0.51100000000E-03 0. -1.
        -12    1    3    3    0    0 -0.35345251817E+01  0.27259249843E+01 -0.32493751630E+00  0.44753904488E+01  0.00000000000E+00 0.  1.
</event>
<event>
 7    1  0.2001181E-008  0.4614232E+02  0.7816164E-02  0.1320468E+00
        -11   -1    0    0    0    0  0.00000000000E+00  0.00000000000E+00  0.45593999997E+02  0.45594000000E+02  0.51100000000E-03 0.  1.
         11   -1    0    0    0    0 -0.00000000000E+00 -0.00000000000E+00 -0.45593999997E+02  0.45594000000E+02  0.51100000000E-03 0. -1.
    9900012    2    1    2    0    0  0.44737207623E+02  0.28524360456E+01 -0.44225835161E+01  0.46142318939E+02  0.10000010742E+02 0.  0.
        -12    1    1    2    0    0 -0.44737207623E+02 -0.28524360456E+01  0.44225835161E+01  0.45045681061E+02  0.00000000000E+00 0.  1.
         11    1    3    3    0    0  0.32691908067E+01  0.87163293339E+00  0.67577689669E+00  0.34502213228E+01  0.51100000000E-03 0. -1.
        -11    1    3    3    0    0  0.62047516712E+00  0.92633258668E+00  0.84767853446E+00  0.14005858250E+01  0.51100000000E-03 0.  1.
         12    1    3    3    0    0  0.40847541649E+02  0.10544705255E+01 -0.59460389472E+01  0.41291511791E+02  0.00000000000E+00 0. -1.
</event>
<event>
 7    1  0.2001181E-008  0.4614232E+02  0.7816164E-02  0.1320468E+00
        -11   -1    0    0    0    0  0.00000000000E+00  0.00000000000E+00  0.45593999997E+02  0.45594000000E+02  0.51100000000E-03 0.  1.
         11   -1    0    0    0    0 -0.00000000000E+00 -0.00000000000E+00 -0.45593999997E+02  0.45594000000E+02  0.51100000000E-03 0. -1.
    9900012    2    1    2    0    0 -0.42146985588E+02 -0.37959511341E+01 -0.15438127677E+02  0.46142318461E+02  0.10000006379E+02 0.  0.
        -12    1    1    2    0    0  0.42146985588E+02  0.37959511341E+01  0.15438127677E+02  0.45045681539E+02  0.00000000000E+00 0.  1.
         11    1    3    3    0    0 -0.22101977453E+02 -0.95184316240E+00 -0.35149598301E+01  0.22399963295E+02  0.51100000000E-03 0. -1.
        -11    1    3    3    0    0 -0.65889443397E+01 -0.54871795720E+00 -0.57444963133E+01  0.87586823817E+01  0.51100000000E-03 0.  1.
        -12    1    3    3    0    0 -0.13456063795E+02 -0.22953900145E+01 -0.61786715335E+01  0.14983672784E+02  0.00000000000E+00 0.  1.
</event>
<event>
 7    1  0.2001181E-008  0.4614232E+02  0.7816164E-02  0.1320468E+00
        -11   -1    0    0    0    0  0.00000000000E+00  0.00000000000E+00  0.45593999997E+02  0.45594000000E+02  0.51100000000E-03 0. -1.
         11   -1    0    0    0    0 -0.00000000000E+00 -0.00000000000E+00 -0.45593999997E+02  0.45594000000E+02  0.51100000000E-03 0.  1.
    9900012    2    1    2    0    0  0.21457946395E+02  0.28519983857E+02  0.27482368252E+02  0.46142317549E+02  0.99999980695E+01 0.  0.
        -12    1    1    2    0    0 -0.21457946395E+02 -0.28519983857E+02 -0.27482368252E+02  0.45045682451E+02  0.00000000000E+00 0.  1.
         11    1    3    3    0    0  0.97891274453E+01  0.90931373439E+01  0.14401800197E+02  0.19644948767E+02  0.51100000000E-03 0. -1.
        -11    1    3    3    0    0  0.77042638698E+01  0.13696499726E+02  0.11144651896E+02  0.19265332924E+02  0.51100000000E-03 0.  1.
         12    1    3    3    0    0  0.39645550803E+01  0.57303467867E+01  0.19359161591E+01  0.72320358583E+01  0.00000000000E+00 0. -1.
</event>
<event>
 7    1  0.2001181E-008  0.4614232E+02  0.7816164E-02  0.1320468E+00
        -11   -1    0    0    0    0  0.00000000000E+00  0.00000000000E+00  0.45593999997E+02  0.45594000000E+02  0.51100000000E-03 0.  1.
         11   -1    0    0    0    0 -0.00000000000E+00 -0.00000000000E+00 -0.45593999997E+02  0.45594000000E+02  0.51100000000E-03 0. -1.
    9900012    2    1    2    0    0 -0.68977188529E+01  0.39897900552E+02 -0.19740623936E+02  0.46142320660E+02  0.10000026432E+02 0.  0.
        -12    1    1    2    0    0  0.68977188529E+01 -0.39897900552E+02  0.19740623936E+02  0.45045679340E+02  0.00000000000E+00 0.  1.
         11    1    3    3    0    0 -0.65135711979E+01  0.21551274608E+02 -0.73831159992E+01  0.23693763929E+02  0.51100000000E-03 0. -1.
        -11    1    3    3    0    0  0.65453900748E+00  0.42908298545E+00 -0.36960068029E+00  0.86552784168E+00  0.51100000000E-03 0.  1.
        -12    1    3    3    0    0 -0.10386866625E+01  0.17917542958E+02 -0.11987907257E+02  0.21583028889E+02  0.00000000000E+00 0.  1.
</event>
<event>
 7    1  0.2001181E-008  0.4614232E+02  0.7816164E-02  0.1320468E+00
        -11   -1    0    0    0    0  0.00000000000E+00  0.00000000000E+00  0.45593999997E+02  0.45594000000E+02  0.51100000000E-03 0. -1.
         11   -1    0    0    0    0 -0.00000000000E+00 -0.00000000000E+00 -0.45593999997E+02  0.45594000000E+02  0.51100000000E-03 0.  1.
    9900012    2    1    2    0    0  0.42463173196E+02 -0.14689259230E+02  0.31966069028E+01  0.46142315298E+02  0.99999775382E+01 0.  0.
        -12    1    1    2    0    0 -0.42463173196E+02  0.14689259230E+02 -0.31966069028E+01  0.45045684702E+02  0.00000000000E+00 0.  1.
         11    1    3    3    0    0  0.28395226532E+02 -0.85854116871E+01  0.59260509392E+01  0.30250888642E+02  0.51100000000E-03 0. -1.
        -11    1    3    3    0    0  0.80434769550E+01 -0.20568149521E+01 -0.58139876436E+00  0.83226218259E+01  0.51100000000E-03 0.  1.
        -12    1    3    3    0    0  0.60244697095E+01 -0.40470325905E+01 -0.21480452720E+01  0.75688048303E+01  0.00000000000E+00 0.  1.
</event>
<event>
 7    1  0.2001181E-008  0.4614232E+02  0.7816164E-02  0.1320468E+00
        -11   -1    0    0    0    0  0.00000000000E+00  0.00000000000E+00  0.45593999997E+02  0.45594000000E+02  0.51100000000E-03 0. -1.
         11   -1    0    0    0    0 -0.00000000000E+00 -0.00000000000E+00 -0.45593999997E+02  0.45594000000E+02  0.51100000000E-03 0.  1.
    9900012    2    1    2    0    0 -0.42643308766E+02 -0.10585360643E+02  0.99303509840E+01  0.46142317487E+02  0.99999974968E+01 0.  0.
        -12    1    1    2    0    0  0.42643308766E+02  0.10585360643E+02 -0.99303509840E+01  0.45045682513E+02  0.00000000000E+00 0.  1.
         11    1    3    3    0    0 -0.28096688092E+02 -0.63965845267E+01  0.38663251792E+01  0.29073848145E+02  0.51100000000E-03 0. -1.
        -11    1    3    3    0    0 -0.82361787356E+01 -0.41244964917E+01  0.16264522979E+01  0.93536869102E+01  0.51100000000E-03 0.  1.
        -12    1    3    3    0    0 -0.63104419384E+01 -0.64279624439E-01  0.44375735069E+01  0.77147824310E+01  0.00000000000E+00 0.  1.
</event>
<event>
 7    1  0.2001181E-008  0.4614232E+02  0.7816164E-02  0.1320468E+00
        -11   -1    0    0    0    0  0.00000000000E+00  0.00000000000E+00  0.45593999997E+02  0.45594000000E+02  0.51100000000E-03 0.  1.
         11   -1    0    0    0    0 -0.00000000000E+00 -0.00000000000E+00 -0.45593999997E+02  0.45594000000E+02  0.51100000000E-03 0. -1.
    9900012    2    1    2    0    0  0.26382587973E+02 -0.27957841971E+02  0.23482582762E+02  0.46142316866E+02  0.99999918384E+01 0.  0.
        -12    1    1    2    0    0 -0.26382587973E+02  0.27957841971E+02 -0.23482582762E+02  0.45045683134E+02  0.00000000000E+00 0.  1.
         11    1    3    3    0    0  0.95988641522E+01 -0.67363929895E+01  0.46128071986E+01  0.12601395718E+02  0.51100000000E-03 0.  1.
        -11    1    3    3    0    0  0.12640197413E+02 -0.19497770108E+02  0.16051987543E+02  0.28241882624E+02  0.51100000000E-03 0. -1.
         12    1    3    3    0    0  0.41435264075E+01 -0.17236788732E+01  0.28177880210E+01  0.52990385240E+01  0.00000000000E+00 0. -1.
</event>
<event>
 7    1  0.2001181E-008  0.4614232E+02  0.7816164E-02  0.1320468E+00
        -11   -1    0    0    0    0  0.00000000000E+00  0.00000000000E+00  0.45593999997E+02  0.45594000000E+02  0.51100000000E-03 0. -1.
         11   -1    0    0    0    0 -0.00000000000E+00 -0.00000000000E+00 -0.45593999997E+02  0.45594000000E+02  0.51100000000E-03 0.  1.
    9900012    2    1    2    0    0 -0.29863653202E+01 -0.31590335392E+02  0.31972579944E+02  0.46142317229E+02  0.99999951497E+01 0.  0.
        -12    1    1    2    0    0  0.29863653202E+01  0.31590335392E+02 -0.31972579944E+02  0.45045682771E+02  0.00000000000E+00 0.  1.
         11    1    3    3    0    0 -0.65289140844E+00 -0.19752480547E+02  0.21721207842E+02  0.29366607318E+02  0.51100000000E-03 0. -1.
        -11    1    3    3    0    0 -0.18104648309E+01 -0.11462776889E+02  0.10857161585E+02  0.15891853097E+02  0.51100000000E-03 0.  1.
         12    1    3    3    0    0 -0.52300908087E+00 -0.37507795611E+00 -0.60578948292E+00  0.88385681501E+00  0.00000000000E+00 0. -1.
</event>
<event>
 7    1  0.2001181E-008  0.4614232E+02  0.7816164E-02  0.1320468E+00
        -11   -1    0    0    0    0  0.00000000000E+00  0.00000000000E+00  0.45593999997E+02  0.45594000000E+02  0.51100000000E-03 0. -1.
         11   -1    0    0    0    0 -0.00000000000E+00 -0.00000000000E+00 -0.45593999997E+02  0.45594000000E+02  0.51100000000E-03 0.  1.
    9900012    2    1    2    0    0 -0.27049749624E+02 -0.35821193912E+02 -0.37771172733E+01  0.46142317600E+02  0.99999985285E+01 0.  0.
        -12    1    1    2    0    0  0.27049749624E+02  0.35821193912E+02  0.37771172733E+01  0.45045682400E+02  0.00000000000E+00 0.  1.
         11    1    3    3    0    0 -0.10650852132E+02 -0.90985966923E+01 -0.86504643178E+00  0.14034721889E+02  0.51100000000E-03 0.  1.
        -11    1    3    3    0    0 -0.14695286087E+01 -0.13112563698E+00 -0.26520136299E-01  0.14756055852E+01  0.51100000000E-03 0. -1.
         12    1    3    3    0    0 -0.14929368884E+02 -0.26591471583E+02 -0.28855507052E+01  0.30631990126E+02  0.00000000000E+00 0. -1.
</event>
<event>
 7    1  0.2001181E-008  0.4614232E+02  0.7816164E-02  0.1320468E+00
        -11   -1    0    0    0    0  0.00000000000E+00  0.00000000000E+00  0.45593999997E+02  0.45594000000E+02  0.51100000000E-03 0.  1.
         11   -1    0    0    0    0 -0.00000000000E+00 -0.00000000000E+00 -0.45593999997E+02  0.45594000000E+02  0.51100000000E-03 0. -1.
    9900012    2    1    2    0    0  0.61158574466E+00 -0.44365325299E+02 -0.77754294254E+01  0.46142318423E+02  0.10000006035E+02 0.  0.
        -12    1    1    2    0    0 -0.61158574466E+00  0.44365325299E+02  0.77754294254E+01  0.45045681577E+02  0.00000000000E+00 0.  1.
         11    1    3    3    0    0 -0.75327816992E+00 -0.89514774322E+01 -0.28670950420E+00  0.89876904053E+01  0.51100000000E-03 0.  1.
        -11    1    3    3    0    0  0.20432972259E+01 -0.35509515218E+02 -0.68579994476E+01  0.36223374929E+02  0.51100000000E-03 0. -1.
         12    1    3    3    0    0 -0.67843331135E+00  0.95667350916E-01 -0.63072047361E+00  0.93125308902E+00  0.00000000000E+00 0. -1.
</event>
<event>
 7    1  0.2001181E-008  0.4614232E+02  0.7816164E-02  0.1320468E+00
        -11   -1    0    0    0    0  0.00000000000E+00  0.00000000000E+00  0.45593999997E+02  0.45594000000E+02  0.51100000000E-03 0.  1.
         11   -1    0    0    0    0 -0.00000000000E+00 -0.00000000000E+00 -0.45593999997E+02  0.45594000000E+02  0.51100000000E-03 0. -1.
    9900012    2    1    2    0    0  0.13861378213E+02  0.19373203520E+02 -0.38231592432E+02  0.46142317849E+02  0.10000000800E+02 0.  0.
        -12    1    1    2    0    0 -0.13861378213E+02 -0.19373203520E+02  0.38231592432E+02  0.45045682151E+02  0.00000000000E+00 0.  1.
         11    1    3    3    0    0  0.41498340050E+01  0.17741384482E+01 -0.60582231090E+01  0.75545189789E+01  0.51100000000E-03 0.  1.
        -11    1    3    3    0    0  0.10081959123E+00  0.33121174975E+01 -0.20675596112E+01  0.39057764804E+01  0.51100000000E-03 0. -1.
         12    1    3    3    0    0  0.96107246166E+01  0.14286947574E+02 -0.30105809712E+02  0.34682022390E+02  0.00000000000E+00 0. -1.
</event>
<event>
 7    1  0.2001181E-008  0.4614232E+02  0.7816164E-02  0.1320468E+00
        -11   -1    0    0    0    0  0.00000000000E+00  0.00000000000E+00  0.45593999997E+02  0.45594000000E+02  0.51100000000E-03 0.  1.
         11   -1    0    0    0    0 -0.00000000000E+00 -0.00000000000E+00 -0.45593999997E+02  0.45594000000E+02  0.51100000000E-03 0. -1.
    9900012    2    1    2    0    0  0.42995654414E+02  0.84998745511E+01 -0.10403810003E+02  0.46142318426E+02  0.10000006065E+02 0.  0.
        -12    1    1    2    0    0 -0.42995654414E+02 -0.84998745511E+01  0.10403810003E+02  0.45045681574E+02  0.00000000000E+00 0.  1.
         11    1    3    3    0    0  0.25817482819E+02  0.63330645343E+01 -0.84076457251E+01  0.27880793253E+02  0.51100000000E-03 0. -1.
        -11    1    3    3    0    0  0.82631678762E+00 -0.17314365484E+00  0.11695924977E+01  0.14424718474E+01  0.51100000000E-03 0.  1.
        -12    1    3    3    0    0  0.16351854807E+02  0.23399536717E+01 -0.31657567760E+01  0.16819053326E+02  0.00000000000E+00 0.  1.
</event>
<event>
 7    1  0.2001181E-008  0.4614232E+02  0.7816164E-02  0.1320468E+00
        -11   -1    0    0    0    0  0.00000000000E+00  0.00000000000E+00  0.45593999997E+02  0.45594000000E+02  0.51100000000E-03 0. -1.
         11   -1    0    0    0    0 -0.00000000000E+00 -0.00000000000E+00 -0.45593999997E+02  0.45594000000E+02  0.51100000000E-03 0.  1.
    9900012    2    1    2    0    0  0.55145242854E+01  0.31597221203E+02  0.31627821269E+02  0.46142318253E+02  0.10000004486E+02 0.  0.
        -12    1    1    2    0    0 -0.55145242854E+01 -0.31597221203E+02 -0.31627821269E+02  0.45045681747E+02  0.00000000000E+00 0.  1.
         11    1    3    3    0    0  0.28227089589E+01  0.88114063511E+01  0.61767194854E+01  0.11124766587E+02  0.51100000000E-03 0. -1.
        -11    1    3    3    0    0 -0.28908569052E+00  0.51641825888E+01  0.10545289873E+02  0.11745445548E+02  0.51100000000E-03 0.  1.
         12    1    3    3    0    0  0.29809010169E+01  0.17621632263E+02  0.14905811911E+02  0.23272106119E+02  0.00000000000E+00 0. -1.
</event>
<event>
 7    1  0.2001181E-008  0.4614232E+02  0.7816164E-02  0.1320468E+00
        -11   -1    0    0    0    0  0.00000000000E+00  0.00000000000E+00  0.45593999997E+02  0.45594000000E+02  0.51100000000E-03 0.  1.
         11   -1    0    0    0    0 -0.00000000000E+00 -0.00000000000E+00 -0.45593999997E+02  0.45594000000E+02  0.51100000000E-03 0. -1.
    9900012    2    1    2    0    0 -0.33480317179E+02  0.24950064998E+02  0.16901959867E+02  0.46142316198E+02  0.99999857503E+01 0.  0.
        -12    1    1    2    0    0  0.33480317179E+02 -0.24950064998E+02 -0.16901959867E+02  0.45045683802E+02  0.00000000000E+00 0.  1.
         11    1    3    3    0    0 -0.19779219869E+02  0.17667657632E+02  0.78946235570E+01  0.27671081406E+02  0.51100000000E-03 0. -1.
        -11    1    3    3    0    0 -0.40232371223E+01  0.38199679244E+01  0.49015203841E+01  0.74029382155E+01  0.51100000000E-03 0.  1.
         12    1    3    3    0    0 -0.96778601871E+01  0.34624394425E+01  0.41058159261E+01  0.11068296577E+02  0.00000000000E+00 0. -1.
</event>
<event>
 7    1  0.2001181E-008  0.4614232E+02  0.7816164E-02  0.1320468E+00
        -11   -1    0    0    0    0  0.00000000000E+00  0.00000000000E+00  0.45593999997E+02  0.45594000000E+02  0.51100000000E-03 0.  1.
         11   -1    0    0    0    0 -0.00000000000E+00 -0.00000000000E+00 -0.45593999997E+02  0.45594000000E+02  0.51100000000E-03 0. -1.
    9900012    2    1    2    0    0 -0.16082252493E+02 -0.36077476789E+02 -0.21653875814E+02  0.46142317471E+02  0.99999973549E+01 0.  0.
        -12    1    1    2    0    0  0.16082252493E+02  0.36077476789E+02  0.21653875814E+02  0.45045682529E+02  0.00000000000E+00 0.  1.
         11    1    3    3    0    0 -0.66378663607E+01 -0.64082301264E+01 -0.67556910027E+01  0.11435298175E+02  0.51100000000E-03 0. -1.
        -11    1    3    3    0    0 -0.97714965732E+00 -0.81517689204E+00 -0.50417395552E+00  0.13687682261E+01  0.51100000000E-03 0.  1.
         12    1    3    3    0    0 -0.84672364753E+01 -0.28854069771E+02 -0.14394010856E+02  0.33338251070E+02  0.00000000000E+00 0. -1.
</event>
<event>
 7    1  0.2001181E-008  0.4614232E+02  0.7816164E-02  0.1320468E+00
        -11   -1    0    0    0    0  0.00000000000E+00  0.00000000000E+00  0.45593999997E+02  0.45594000000E+02  0.51100000000E-03 0. -1.
         11   -1    0    0    0    0 -0.00000000000E+00 -0.00000000000E+00 -0.45593999997E+02  0.45594000000E+02  0.51100000000E-03 0.  1.
    9900012    2    1    2    0    0 -0.58514430692E+01  0.16405561026E+02  0.41541929306E+02  0.46142315312E+02  0.99999776672E+01 0.  0.
        -12    1    1    2    0    0  0.58514430692E+01 -0.16405561026E+02 -0.41541929306E+02  0.45045684688E+02  0.00000000000E+00 0.  1.
         11    1    3    3    0    0 -0.14147395122E+01  0.30858403120E+01  0.31783331847E+01  0.46503441177E+01  0.51100000000E-03 0. -1.
        -11    1    3    3    0    0 -0.64269121600E+00  0.74371902167E+01  0.11339737779E+02  0.13576247769E+02  0.51100000000E-03 0.  1.
         12    1    3    3    0    0 -0.37940123410E+01  0.58825304977E+01  0.27023858342E+02  0.27915723426E+02  0.00000000000E+00 0. -1.
</event>
<event>
 7    1  0.2001181E-008  0.4614232E+02  0.7816164E-02  0.1320468E+00
        -11   -1    0    0    0    0  0.00000000000E+00  0.00000000000E+00  0.45593999997E+02  0.45594000000E+02  0.51100000000E-03 0. -1.
         11   -1    0    0    0    0 -0.00000000000E+00 -0.00000000000E+00 -0.45593999997E+02  0.45594000000E+02  0.51100000000E-03 0.  1.
    9900012    2    1    2    0    0  0.46924058676E+01 -0.15854493307E+02  0.41901430853E+02  0.46142317206E+02  0.99999949364E+01 0.  0.
        -12    1    1    2    0    0 -0.46924058676E+01  0.15854493307E+02 -0.41901430853E+02  0.45045682794E+02  0.00000000000E+00 0.  1.
         11    1    3    3    0    0  0.37510296078E+01 -0.67329498235E+01  0.22726200715E+02  0.23997563119E+02  0.51100000000E-03 0. -1.
        -11    1    3    3    0    0  0.34493525168E+01 -0.40320260331E+01  0.10733255652E+02  0.11973221950E+02  0.51100000000E-03 0.  1.
        -12    1    3    3    0    0 -0.25079762570E+01 -0.50895174505E+01  0.84419744868E+01  0.10171532137E+02  0.00000000000E+00 0.  1.
</event>
<event>
 7    1  0.2001181E-008  0.4614232E+02  0.7816164E-02  0.1320468E+00
        -11   -1    0    0    0    0  0.00000000000E+00  0.00000000000E+00  0.45593999997E+02  0.45594000000E+02  0.51100000000E-03 0.  1.
         11   -1    0    0    0    0 -0.00000000000E+00 -0.00000000000E+00 -0.45593999997E+02  0.45594000000E+02  0.51100000000E-03 0. -1.
    9900012    2    1    2    0    0  0.43156024212E+00 -0.41074582599E+02 -0.18487993009E+02  0.46142318016E+02  0.10000002320E+02 0.  0.
        -12    1    1    2    0    0 -0.43156024212E+00  0.41074582599E+02  0.18487993009E+02  0.45045681984E+02  0.00000000000E+00 0.  1.
         11    1    3    3    0    0  0.26352207033E+01 -0.22410341509E+02 -0.11250445772E+02  0.25213891509E+02  0.51100000000E-03 0. -1.
        -11    1    3    3    0    0  0.11859706066E+01 -0.88803143813E+01 -0.14790429830E+01  0.90804227984E+01  0.51100000000E-03 0.  1.
         12    1    3    3    0    0 -0.33896310678E+01 -0.97839267086E+01 -0.57585042543E+01  0.11848003708E+02  0.00000000000E+00 0. -1.
</event>
<event>
 7    1  0.2001181E-008  0.4614232E+02  0.7816164E-02  0.1320468E+00
        -11   -1    0    0    0    0  0.00000000000E+00  0.00000000000E+00  0.45593999997E+02  0.45594000000E+02  0.51100000000E-03 0.  1.
         11   -1    0    0    0    0 -0.00000000000E+00 -0.00000000000E+00 -0.45593999997E+02  0.45594000000E+02  0.51100000000E-03 0. -1.
    9900012    2    1    2    0    0  0.16750181983E+02  0.41352353712E+02  0.62070640899E+01  0.46142318758E+02  0.10000009088E+02 0.  0.
        -12    1    1    2    0    0 -0.16750181983E+02 -0.41352353712E+02 -0.62070640899E+01  0.45045681242E+02  0.00000000000E+00 0.  1.
         11    1    3    3    0    0  0.20294326240E+01  0.26855903754E+01  0.12286490207E+00  0.33683955357E+01  0.51100000000E-03 0. -1.
        -11    1    3    3    0    0  0.35453828129E+01  0.22420623640E+01  0.26780386191E-01  0.41949136325E+01  0.51100000000E-03 0.  1.
         12    1    3    3    0    0  0.11175366546E+02  0.36424700973E+02  0.60574188016E+01  0.38579009590E+02  0.00000000000E+00 0. -1.
</event>
<event>
 7    1  0.2001181E-008  0.4614232E+02  0.7816164E-02  0.1320468E+00
        -11   -1    0    0    0    0  0.00000000000E+00  0.00000000000E+00  0.45593999997E+02  0.45594000000E+02  0.51100000000E-03 0.  1.
         11   -1    0    0    0    0 -0.00000000000E+00 -0.00000000000E+00 -0.45593999997E+02  0.45594000000E+02  0.51100000000E-03 0. -1.
    9900012    2    1    2    0    0  0.23522293693E+02  0.18173394445E+02 -0.33845861466E+02  0.46142324241E+02  0.10000059084E+02 0.  0.
        -12    1    1    2    0    0 -0.23522293693E+02 -0.18173394445E+02  0.33845861466E+02  0.45045675759E+02  0.00000000000E+00 0.  1.
         11    1    3    3    0    0  0.36607901286E+01 -0.78886688595E+00 -0.39108181733E+01  0.54146278150E+01  0.51100000000E-03 0. -1.
        -11    1    3    3    0    0  0.24448125955E+01  0.20668944466E+01 -0.49809721976E+01  0.59210848309E+01  0.51100000000E-03 0.  1.
         12    1    3    3    0    0  0.17416690969E+02  0.16895366884E+02 -0.24954071096E+02  0.34806611595E+02  0.00000000000E+00 0. -1.
</event>
<event>
 7    1  0.2001181E-008  0.4614232E+02  0.7816164E-02  0.1320468E+00
        -11   -1    0    0    0    0  0.00000000000E+00  0.00000000000E+00  0.45593999997E+02  0.45594000000E+02  0.51100000000E-03 0.  1.
         11   -1    0    0    0    0 -0.00000000000E+00 -0.00000000000E+00 -0.45593999997E+02  0.45594000000E+02  0.51100000000E-03 0. -1.
    9900012    2    1    2    0    0  0.23815459923E+02  0.17630932449E+02 -0.33927681283E+02  0.46142317991E+02  0.10000002100E+02 0.  0.
        -12    1    1    2    0    0 -0.23815459923E+02 -0.17630932449E+02  0.33927681283E+02  0.45045682009E+02  0.00000000000E+00 0.  1.
         11    1    3    3    0    0 -0.40251735786E+00  0.15050102742E+01 -0.34778560004E+01  0.38108475133E+01  0.51100000000E-03 0. -1.
        -11    1    3    3    0    0  0.16922783563E+02  0.11764008517E+02 -0.18696937343E+02  0.27827108477E+02  0.51100000000E-03 0.  1.
         12    1    3    3    0    0  0.72951937177E+01  0.43619136578E+01 -0.11752887940E+02  0.14504362001E+02  0.00000000000E+00 0. -1.
</event>
<event>
 7    1  0.2001181E-008  0.4614232E+02  0.7816164E-02  0.1320468E+00
        -11   -1    0    0    0    0  0.00000000000E+00  0.00000000000E+00  0.45593999997E+02  0.45594000000E+02  0.51100000000E-03 0.  1.
         11   -1    0    0    0    0 -0.00000000000E+00 -0.00000000000E+00 -0.45593999997E+02  0.45594000000E+02  0.51100000000E-03 0. -1.
    9900012    2    1    2    0    0 -0.38866989755E+00 -0.42564300225E+02 -0.14739156442E+02  0.46142318181E+02  0.10000003829E+02 0.  0.
        -12    1    1    2    0    0  0.38866989755E+00  0.42564300225E+02  0.14739156442E+02  0.45045681819E+02  0.00000000000E+00 0.  1.
         11    1    3    3    0    0  0.22842749968E+00 -0.86729241197E+01 -0.65561325482E+01  0.10874496134E+02  0.51100000000E-03 0. -1.
        -11    1    3    3    0    0 -0.16692295754E+01 -0.32156611703E+02 -0.82422794588E+01  0.33238068152E+02  0.51100000000E-03 0.  1.
        -12    1    3    3    0    0  0.10521321782E+01 -0.17347644025E+01  0.59255564952E-01  0.20297538951E+01  0.00000000000E+00 0.  1.
</event>
<event>
 7    1  0.2001181E-008  0.4614233E+02  0.7816164E-02  0.1320468E+00
        -11   -1    0    0    0    0  0.00000000000E+00  0.00000000000E+00  0.45593999997E+02  0.45594000000E+02  0.51100000000E-03 0. -1.
         11   -1    0    0    0    0 -0.00000000000E+00 -0.00000000000E+00 -0.45593999997E+02  0.45594000000E+02  0.51100000000E-03 0.  1.
    9900012    2    1    2    0    0  0.11454202114E+02  0.15677495351E+02  0.40646401232E+02  0.46142328292E+02  0.10000096026E+02 0.  0.
        -12    1    1    2    0    0 -0.11454202114E+02 -0.15677495351E+02 -0.40646401232E+02  0.45045671708E+02  0.00000000000E+00 0.  1.
         11    1    3    3    0    0 -0.79290853385E+00  0.16744475746E+01  0.57471310390E+01  0.60383767739E+01  0.51100000000E-03 0. -1.
        -11    1    3    3    0    0 -0.18276503272E+00  0.13626890337E+01  0.63588991201E+01  0.65058375895E+01  0.51100000000E-03 0.  1.
         12    1    3    3    0    0  0.12429875680E+02  0.12640358742E+02  0.28540371073E+02  0.33598113928E+02  0.00000000000E+00 0. -1.
</event>
<event>
 7    1  0.2001181E-008  0.4614232E+02  0.7816164E-02  0.1320468E+00
        -11   -1    0    0    0    0  0.00000000000E+00  0.00000000000E+00  0.45593999997E+02  0.45594000000E+02  0.51100000000E-03 0. -1.
         11   -1    0    0    0    0 -0.00000000000E+00 -0.00000000000E+00 -0.45593999997E+02  0.45594000000E+02  0.51100000000E-03 0.  1.
    9900012    2    1    2    0    0  0.95715709096E+01 -0.39637553726E+02  0.19140607148E+02  0.46142317887E+02  0.10000001145E+02 0.  0.
        -12    1    1    2    0    0 -0.95715709096E+01  0.39637553726E+02 -0.19140607148E+02  0.45045682113E+02  0.00000000000E+00 0.  1.
         11    1    3    3    0    0 -0.25280805666E+00 -0.21620205220E+01  0.19140576511E+01  0.28985964886E+01  0.51100000000E-03 0. -1.
        -11    1    3    3    0    0  0.31429674904E+01 -0.24019567993E+02  0.75499087129E+01  0.25373588888E+02  0.51100000000E-03 0.  1.
        -12    1    3    3    0    0  0.66814114759E+01 -0.13455965211E+02  0.96766407837E+01  0.17870132510E+02  0.00000000000E+00 0.  1.
</event>
<event>
 7    1  0.2001181E-008  0.4614232E+02  0.7816164E-02  0.1320468E+00
        -11   -1    0    0    0    0  0.00000000000E+00  0.00000000000E+00  0.45593999997E+02  0.45594000000E+02  0.51100000000E-03 0.  1.
         11   -1    0    0    0    0 -0.00000000000E+00 -0.00000000000E+00 -0.45593999997E+02  0.45594000000E+02  0.51100000000E-03 0. -1.
    9900012    2    1    2    0    0  0.20156117451E+02 -0.40273454296E+02  0.94514247194E+00  0.46142317788E+02  0.10000000243E+02 0.  0.
        -12    1    1    2    0    0 -0.20156117451E+02  0.40273454296E+02 -0.94514247194E+00  0.45045682212E+02  0.00000000000E+00 0.  1.
         11    1    3    3    0    0  0.46164906109E+01 -0.74120415992E+01  0.17852864153E+01  0.89127770124E+01  0.51100000000E-03 0. -1.
        -11    1    3    3    0    0  0.61851214489E+01 -0.14179962473E+02  0.35693437755E+01  0.15876626793E+02  0.51100000000E-03 0.  1.
         12    1    3    3    0    0  0.93545053913E+01 -0.18681450224E+02 -0.44094877188E+01  0.21352913983E+02  0.00000000000E+00 0. -1.
</event>
<event>
 7    1  0.2001181E-008  0.4614232E+02  0.7816164E-02  0.1320468E+00
        -11   -1    0    0    0    0  0.00000000000E+00  0.00000000000E+00  0.45593999997E+02  0.45594000000E+02  0.51100000000E-03 0.  1.
         11   -1    0    0    0    0 -0.00000000000E+00 -0.00000000000E+00 -0.45593999997E+02  0.45594000000E+02  0.51100000000E-03 0. -1.
    9900012    2    1    2    0    0 -0.31197136656E+02  0.12418178503E+02 -0.30027340057E+02  0.46142316036E+02  0.99999842714E+01 0.  0.
        -12    1    1    2    0    0  0.31197136656E+02 -0.12418178503E+02  0.30027340057E+02  0.45045683964E+02  0.00000000000E+00 0.  1.
         11    1    3    3    0    0 -0.17162939388E+02  0.49537273668E+01 -0.11104972028E+02  0.21033932282E+02  0.51100000000E-03 0. -1.
        -11    1    3    3    0    0 -0.12054114939E+02  0.79817335340E+01 -0.16601598393E+02  0.22014150600E+02  0.51100000000E-03 0.  1.
         12    1    3    3    0    0 -0.19800823294E+01 -0.51728239759E+00 -0.23207696357E+01  0.30942331541E+01  0.00000000000E+00 0. -1.
</event>
<event>
 7    1  0.2001181E-008  0.4614232E+02  0.7816164E-02  0.1320468E+00
        -11   -1    0    0    0    0  0.00000000000E+00  0.00000000000E+00  0.45593999997E+02  0.45594000000E+02  0.51100000000E-03 0. -1.
         11   -1    0    0    0    0 -0.00000000000E+00 -0.00000000000E+00 -0.45593999997E+02  0.45594000000E+02  0.51100000000E-03 0.  1.
    9900012    2    1    2    0    0  0.25239513969E+02 -0.35958509549E+02  0.99531906464E+01  0.46142317872E+02  0.10000001010E+02 0.  0.
        -12    1    1    2    0    0 -0.25239513969E+02  0.35958509549E+02 -0.99531906464E+01  0.45045682128E+02  0.00000000000E+00 0.  1.
         11    1    3    3    0    0  0.71473152545E+01 -0.74226638499E+01  0.53516223109E+01  0.11611197854E+02  0.51100000000E-03 0. -1.
        -11    1    3    3    0    0  0.17131065808E+02 -0.28112546972E+02  0.51896124012E+01  0.33327478004E+02  0.51100000000E-03 0.  1.
        -12    1    3    3    0    0  0.96113290600E+00 -0.42329872726E+00 -0.58804406576E+00  0.12036420144E+01  0.00000000000E+00 0.  1.
</event>
<event>
 7    1  0.2001181E-008  0.4614232E+02  0.7816164E-02  0.1320468E+00
        -11   -1    0    0    0    0  0.00000000000E+00  0.00000000000E+00  0.45593999997E+02  0.45594000000E+02  0.51100000000E-03 0.  1.
         11   -1    0    0    0    0 -0.00000000000E+00 -0.00000000000E+00 -0.45593999997E+02  0.45594000000E+02  0.51100000000E-03 0. -1.
    9900012    2    1    2    0    0  0.12436694826E+02 -0.95271344752E+01 -0.42233585438E+02  0.46142318648E+02  0.10000008092E+02 0.  0.
        -12    1    1    2    0    0 -0.12436694826E+02  0.95271344752E+01  0.42233585438E+02  0.45045681352E+02  0.00000000000E+00 0.  1.
         11    1    3    3    0    0  0.57125128909E+01 -0.61109063177E+01 -0.14651392064E+02  0.16871255710E+02  0.51100000000E-03 0. -1.
        -11    1    3    3    0    0 -0.11932441308E+01 -0.49431475953E-01 -0.32238585571E+01  0.34379556838E+01  0.51100000000E-03 0.  1.
         12    1    3    3    0    0  0.79174260656E+01 -0.33667966816E+01 -0.24358334817E+02  0.25833107255E+02  0.00000000000E+00 0. -1.
</event>
<event>
 7    1  0.2001181E-008  0.4614232E+02  0.7816164E-02  0.1320468E+00
        -11   -1    0    0    0    0  0.00000000000E+00  0.00000000000E+00  0.45593999997E+02  0.45594000000E+02  0.51100000000E-03 0. -1.
         11   -1    0    0    0    0 -0.00000000000E+00 -0.00000000000E+00 -0.45593999997E+02  0.45594000000E+02  0.51100000000E-03 0.  1.
    9900012    2    1    2    0    0  0.54118333438E+00 -0.44411606311E+02  0.75119880797E+01  0.46142316307E+02  0.99999867370E+01 0.  0.
        -12    1    1    2    0    0 -0.54118333438E+00  0.44411606311E+02 -0.75119880797E+01  0.45045683693E+02  0.00000000000E+00 0.  1.
         11    1    3    3    0    0 -0.12175696524E+01 -0.26870011632E+02  0.54124057677E+01  0.27436729714E+02  0.51100000000E-03 0.  1.
        -11    1    3    3    0    0 -0.10327174721E+01 -0.14177331875E+02  0.15266976428E+01  0.14296644726E+02  0.51100000000E-03 0. -1.
        -12    1    3    3    0    0  0.27914704589E+01 -0.33642628035E+01  0.57288466921E+00  0.44089418661E+01  0.00000000000E+00 0.  1.
</event>
<event>
 7    1  0.2001181E-008  0.4614232E+02  0.7816164E-02  0.1320468E+00
        -11   -1    0    0    0    0  0.00000000000E+00  0.00000000000E+00  0.45593999997E+02  0.45594000000E+02  0.51100000000E-03 0. -1.
         11   -1    0    0    0    0 -0.00000000000E+00 -0.00000000000E+00 -0.45593999997E+02  0.45594000000E+02  0.51100000000E-03 0.  1.
    9900012    2    1    2    0    0  0.32224385573E+02 -0.82584580010E+01  0.30372691755E+02  0.46142316982E+02  0.99999928944E+01 0.  0.
        -12    1    1    2    0    0 -0.32224385573E+02  0.82584580010E+01 -0.30372691755E+02  0.45045683018E+02  0.00000000000E+00 0.  1.
         11    1    3    3    0    0  0.21927649460E+02 -0.26033304446E+01  0.18885377874E+02  0.29056094678E+02  0.51100000000E-03 0. -1.
        -11    1    3    3    0    0 -0.37437273951E+00  0.15247409171E+00  0.83823679164E+00  0.93061510664E+00  0.51100000000E-03 0.  1.
        -12    1    3    3    0    0  0.10671108853E+02 -0.58076016482E+01  0.10649077090E+02  0.16155607197E+02  0.00000000000E+00 0.  1.
</event>
<event>
 7    1  0.2001181E-008  0.4614232E+02  0.7816164E-02  0.1320468E+00
        -11   -1    0    0    0    0  0.00000000000E+00  0.00000000000E+00  0.45593999997E+02  0.45594000000E+02  0.51100000000E-03 0. -1.
         11   -1    0    0    0    0 -0.00000000000E+00 -0.00000000000E+00 -0.45593999997E+02  0.45594000000E+02  0.51100000000E-03 0.  1.
    9900012    2    1    2    0    0 -0.23442590446E+02  0.28136596466E+02  0.26227664120E+02  0.46142317935E+02  0.10000001584E+02 0.  0.
        -12    1    1    2    0    0  0.23442590446E+02 -0.28136596466E+02 -0.26227664120E+02  0.45045682065E+02  0.00000000000E+00 0.  1.
         11    1    3    3    0    0 -0.16895855790E+02  0.21684788096E+02  0.15629903058E+02  0.31622679322E+02  0.51100000000E-03 0. -1.
        -11    1    3    3    0    0  0.21120141732E+00 -0.29193587277E+00  0.23917649611E+00  0.43247919013E+00  0.51100000000E-03 0.  1.
         12    1    3    3    0    0 -0.67579360733E+01  0.67437442428E+01  0.10358584566E+02  0.14087159423E+02  0.00000000000E+00 0. -1.
</event>
<event>
 7    1  0.2001181E-008  0.4614232E+02  0.7816164E-02  0.1320468E+00
        -11   -1    0    0    0    0  0.00000000000E+00  0.00000000000E+00  0.45593999997E+02  0.45594000000E+02  0.51100000000E-03 0. -1.
         11   -1    0    0    0    0 -0.00000000000E+00 -0.00000000000E+00 -0.45593999997E+02  0.45594000000E+02  0.51100000000E-03 0.  1.
    9900012    2    1    2    0    0 -0.84920653665E+01 -0.43363988216E+02  0.87500208343E+01  0.46142317490E+02  0.99999975304E+01 0.  0.
        -12    1    1    2    0    0  0.84920653665E+01  0.43363988216E+02 -0.87500208343E+01  0.45045682510E+02  0.00000000000E+00 0.  1.
         11    1    3    3    0    0 -0.14691095855E+01 -0.13987350627E+02  0.28484096434E+01  0.14349832692E+02  0.51100000000E-03 0. -1.
        -11    1    3    3    0    0 -0.55379388515E+01 -0.78512283135E+01  0.26972778459E+01  0.99792715562E+01  0.51100000000E-03 0.  1.
        -12    1    3    3    0    0 -0.14850169295E+01 -0.21525409275E+02  0.32043333450E+01  0.21813213242E+02  0.00000000000E+00 0.  1.
</event>
<event>
 7    1  0.2001181E-008  0.4614232E+02  0.7816164E-02  0.1320468E+00
        -11   -1    0    0    0    0  0.00000000000E+00  0.00000000000E+00  0.45593999997E+02  0.45594000000E+02  0.51100000000E-03 0.  1.
         11   -1    0    0    0    0 -0.00000000000E+00 -0.00000000000E+00 -0.45593999997E+02  0.45594000000E+02  0.51100000000E-03 0. -1.
    9900012    2    1    2    0    0 -0.33969757249E+02  0.18195868211E+02 -0.23325510264E+02  0.46142318114E+02  0.10000003222E+02 0.  0.
        -12    1    1    2    0    0  0.33969757249E+02 -0.18195868211E+02  0.23325510264E+02  0.45045681886E+02  0.00000000000E+00 0.  1.
         11    1    3    3    0    0 -0.14539606665E+02  0.89840482921E+01 -0.11652804325E+02  0.20685771307E+02  0.51100000000E-03 0. -1.
        -11    1    3    3    0    0 -0.14265738883E+01  0.28612898830E+01 -0.24444437516E+00  0.32065317973E+01  0.51100000000E-03 0.  1.
        -12    1    3    3    0    0 -0.18003576696E+02  0.63505300354E+01 -0.11428261564E+02  0.22250015010E+02  0.00000000000E+00 0.  1.
</event>
<event>
 7    1  0.2001181E-008  0.4614232E+02  0.7816164E-02  0.1320468E+00
        -11   -1    0    0    0    0  0.00000000000E+00  0.00000000000E+00  0.45593999997E+02  0.45594000000E+02  0.51100000000E-03 0.  1.
         11   -1    0    0    0    0 -0.00000000000E+00 -0.00000000000E+00 -0.45593999997E+02  0.45594000000E+02  0.51100000000E-03 0. -1.
    9900012    2    1    2    0    0 -0.16005176600E+02  0.23325723682E+02 -0.35055077152E+02  0.46142317661E+02  0.99999990844E+01 0.  0.
        -12    1    1    2    0    0  0.16005176600E+02 -0.23325723682E+02  0.35055077152E+02  0.45045682339E+02  0.00000000000E+00 0.  1.
         11    1    3    3    0    0 -0.13838819143E+01  0.10764447139E+01 -0.59296167593E+01  0.61833823711E+01  0.51100000000E-03 0. -1.
        -11    1    3    3    0    0 -0.20155662158E+01  0.30266399981E+01 -0.12892888562E+01  0.38581501869E+01  0.51100000000E-03 0.  1.
         12    1    3    3    0    0 -0.12605728470E+02  0.19222638970E+02 -0.27836171536E+02  0.36100785103E+02  0.00000000000E+00 0. -1.
</event>
<event>
 7    1  0.2001181E-008  0.4614232E+02  0.7816164E-02  0.1320468E+00
        -11   -1    0    0    0    0  0.00000000000E+00  0.00000000000E+00  0.45593999997E+02  0.45594000000E+02  0.51100000000E-03 0. -1.
         11   -1    0    0    0    0 -0.00000000000E+00 -0.00000000000E+00 -0.45593999997E+02  0.45594000000E+02  0.51100000000E-03 0.  1.
    9900012    2    1    2    0    0  0.42323053387E+01 -0.23106063291E+01  0.44786853871E+02  0.46142316636E+02  0.99999897376E+01 0.  0.
        -12    1    1    2    0    0 -0.42323053387E+01  0.23106063291E+01 -0.44786853871E+02  0.45045683364E+02  0.00000000000E+00 0.  1.
         11    1    3    3    0    0  0.23816036065E+00  0.55217678678E-01  0.13035018395E+02  0.13037310849E+02  0.51100000000E-03 0. -1.
        -11    1    3    3    0    0 -0.43091533442E+00 -0.44535691205E+01  0.15402706803E+02  0.16039430883E+02  0.51100000000E-03 0.  1.
        -12    1    3    3    0    0  0.44250603125E+01  0.20877451128E+01  0.16349128674E+02  0.17065574904E+02  0.00000000000E+00 0.  1.
</event>
<event>
 7    1  0.2001181E-008  0.4614232E+02  0.7816164E-02  0.1320468E+00
        -11   -1    0    0    0    0  0.00000000000E+00  0.00000000000E+00  0.45593999997E+02  0.45594000000E+02  0.51100000000E-03 0. -1.
         11   -1    0    0    0    0 -0.00000000000E+00 -0.00000000000E+00 -0.45593999997E+02  0.45594000000E+02  0.51100000000E-03 0.  1.
    9900012    2    1    2    0    0  0.43647846948E+02  0.11092198441E+02  0.97062154033E+00  0.46142317458E+02  0.99999972386E+01 0.  0.
        -12    1    1    2    0    0 -0.43647846948E+02 -0.11092198441E+02 -0.97062154033E+00  0.45045682542E+02  0.00000000000E+00 0.  1.
         11    1    3    3    0    0  0.30159750977E+02  0.78803381066E+01  0.35217609461E+01  0.31370577108E+02  0.51100000000E-03 0. -1.
        -11    1    3    3    0    0  0.78506456989E+01  0.37921733624E+01 -0.26212248487E+01  0.91040670400E+01  0.51100000000E-03 0.  1.
        -12    1    3    3    0    0  0.56374502721E+01 -0.58031302762E+00  0.70085443015E-01  0.56676733101E+01  0.00000000000E+00 0.  1.
</event>
<event>
 7    1  0.2001181E-008  0.4614232E+02  0.7816164E-02  0.1320468E+00
        -11   -1    0    0    0    0  0.00000000000E+00  0.00000000000E+00  0.45593999997E+02  0.45594000000E+02  0.51100000000E-03 0. -1.
         11   -1    0    0    0    0 -0.00000000000E+00 -0.00000000000E+00 -0.45593999997E+02  0.45594000000E+02  0.51100000000E-03 0.  1.
    9900012    2    1    2    0    0  0.45818933705E+01 -0.17231982530E+02  0.41366393657E+02  0.46142317711E+02  0.99999995408E+01 0.  0.
        -12    1    1    2    0    0 -0.45818933705E+01  0.17231982530E+02 -0.41366393657E+02  0.45045682289E+02  0.00000000000E+00 0.  1.
         11    1    3    3    0    0  0.28967489862E+01 -0.22563825457E+01  0.76766743383E+01  0.85096266686E+01  0.51100000000E-03 0. -1.
        -11    1    3    3    0    0 -0.78306333660E+00 -0.11283789379E+01  0.30639753266E+00  0.14072337850E+01  0.51100000000E-03 0.  1.
         12    1    3    3    0    0  0.24682077209E+01 -0.13847221046E+02  0.33383321786E+02  0.36225457257E+02  0.00000000000E+00 0. -1.
</event>
<event>
 7    1  0.2001181E-008  0.4614232E+02  0.7816164E-02  0.1320468E+00
        -11   -1    0    0    0    0  0.00000000000E+00  0.00000000000E+00  0.45593999997E+02  0.45594000000E+02  0.51100000000E-03 0.  1.
         11   -1    0    0    0    0 -0.00000000000E+00 -0.00000000000E+00 -0.45593999997E+02  0.45594000000E+02  0.51100000000E-03 0. -1.
    9900012    2    1    2    0    0 -0.21151947132E+02  0.39570226375E+02 -0.39881986487E+01  0.46142318617E+02  0.10000007801E+02 0.  0.
        -12    1    1    2    0    0  0.21151947132E+02 -0.39570226375E+02  0.39881986487E+01  0.45045681383E+02  0.00000000000E+00 0.  1.
         11    1    3    3    0    0 -0.18262661114E+02  0.32262823718E+02 -0.66338958503E+01  0.37661959052E+02  0.51100000000E-03 0. -1.
        -11    1    3    3    0    0 -0.28958456708E+00  0.25026241818E+01  0.30753269612E+00  0.25380235690E+01  0.51100000000E-03 0.  1.
         12    1    3    3    0    0 -0.25997014505E+01  0.48047784752E+01  0.23381645054E+01  0.59423359954E+01  0.00000000000E+00 0. -1.
</event>
<event>
 7    1  0.2001181E-008  0.4614232E+02  0.7816164E-02  0.1320468E+00
        -11   -1    0    0    0    0  0.00000000000E+00  0.00000000000E+00  0.45593999997E+02  0.45594000000E+02  0.51100000000E-03 0.  1.
         11   -1    0    0    0    0 -0.00000000000E+00 -0.00000000000E+00 -0.45593999997E+02  0.45594000000E+02  0.51100000000E-03 0. -1.
    9900012    2    1    2    0    0 -0.26702982052E+02  0.26440772535E+02 -0.24838470566E+02  0.46142319599E+02  0.10000016755E+02 0.  0.
        -12    1    1    2    0    0  0.26702982052E+02 -0.26440772535E+02  0.24838470566E+02  0.45045680401E+02  0.00000000000E+00 0.  1.
         11    1    3    3    0    0 -0.10028141409E+02  0.10374924623E+02 -0.11804947611E+02  0.18642946908E+02  0.51100000000E-03 0. -1.
        -11    1    3    3    0    0 -0.74254971196E+01  0.35076638278E+01 -0.69490433748E+01  0.10757830501E+02  0.51100000000E-03 0.  1.
        -12    1    3    3    0    0 -0.92493435240E+01  0.12558184085E+02 -0.60844795806E+01  0.16741542190E+02  0.00000000000E+00 0.  1.
</event>
<event>
 7    1  0.2001181E-008  0.4614232E+02  0.7816164E-02  0.1320468E+00
        -11   -1    0    0    0    0  0.00000000000E+00  0.00000000000E+00  0.45593999997E+02  0.45594000000E+02  0.51100000000E-03 0.  1.
         11   -1    0    0    0    0 -0.00000000000E+00 -0.00000000000E+00 -0.45593999997E+02  0.45594000000E+02  0.51100000000E-03 0. -1.
    9900012    2    1    2    0    0 -0.51340503336E+01  0.16288939196E+02 -0.41682435754E+02  0.46142318039E+02  0.10000002532E+02 0.  0.
        -12    1    1    2    0    0  0.51340503336E+01 -0.16288939196E+02  0.41682435754E+02  0.45045681961E+02  0.00000000000E+00 0.  1.
         11    1    3    3    0    0 -0.13935095784E+01  0.22603317975E+01 -0.17756552547E+02  0.17954000317E+02  0.51100000000E-03 0. -1.
        -11    1    3    3    0    0 -0.76323906984E+00  0.24372821681E+00 -0.12542801714E+01  0.14883401261E+01  0.51100000000E-03 0.  1.
        -12    1    3    3    0    0 -0.29773016854E+01  0.13784879182E+02 -0.22671603036E+02  0.26699977595E+02  0.00000000000E+00 0.  1.
</event>
<event>
 7    1  0.2001181E-008  0.4614232E+02  0.7816164E-02  0.1320468E+00
        -11   -1    0    0    0    0  0.00000000000E+00  0.00000000000E+00  0.45593999997E+02  0.45594000000E+02  0.51100000000E-03 0.  1.
         11   -1    0    0    0    0 -0.00000000000E+00 -0.00000000000E+00 -0.45593999997E+02  0.45594000000E+02  0.51100000000E-03 0. -1.
    9900012    2    1    2    0    0 -0.64491223510E+01 -0.99124704492E+01 -0.43465677298E+02  0.46142319269E+02  0.10000013752E+02 0.  0.
        -12    1    1    2    0    0  0.64491223510E+01  0.99124704492E+01  0.43465677298E+02  0.45045680731E+02  0.00000000000E+00 0.  1.
         11    1    3    3    0    0  0.33724966268E+00 -0.11542792924E+01 -0.12303765064E+02  0.12362391882E+02  0.51100000000E-03 0. -1.
        -11    1    3    3    0    0 -0.50066193221E+01 -0.29094626838E+01 -0.83386881907E+01  0.10152089989E+02  0.51100000000E-03 0.  1.
         12    1    3    3    0    0 -0.17797526916E+01 -0.58487284730E+01 -0.22823224043E+02  0.23627837398E+02  0.00000000000E+00 0. -1.
</event>
<event>
 7    1  0.2001181E-008  0.4614232E+02  0.7816164E-02  0.1320468E+00
        -11   -1    0    0    0    0  0.00000000000E+00  0.00000000000E+00  0.45593999997E+02  0.45594000000E+02  0.51100000000E-03 0.  1.
         11   -1    0    0    0    0 -0.00000000000E+00 -0.00000000000E+00 -0.45593999997E+02  0.45594000000E+02  0.51100000000E-03 0. -1.
    9900012    2    1    2    0    0  0.31108737912E+02  0.28221967716E+02 -0.16275153233E+02  0.46142315978E+02  0.99999837398E+01 0.  0.
        -12    1    1    2    0    0 -0.31108737912E+02 -0.28221967716E+02  0.16275153233E+02  0.45045684022E+02  0.00000000000E+00 0.  1.
         11    1    3    3    0    0  0.58865764490E+00  0.14037679162E+01 -0.38788332527E+00  0.15708392409E+01  0.51100000000E-03 0. -1.
        -11    1    3    3    0    0 -0.39442874783E+00  0.35236964763E+00  0.47368790787E+00  0.71001331034E+00  0.51100000000E-03 0.  1.
         12    1    3    3    0    0  0.30914509015E+02  0.26465830152E+02 -0.16360957816E+02  0.43861463427E+02  0.00000000000E+00 0. -1.
</event>
<event>
 7    1  0.2001181E-008  0.4614232E+02  0.7816164E-02  0.1320468E+00
        -11   -1    0    0    0    0  0.00000000000E+00  0.00000000000E+00  0.45593999997E+02  0.45594000000E+02  0.51100000000E-03 0. -1.
         11   -1    0    0    0    0 -0.00000000000E+00 -0.00000000000E+00 -0.45593999997E+02  0.45594000000E+02  0.51100000000E-03 0.  1.
    9900012    2    1    2    0    0 -0.29223293191E+02  0.17032217399E+02  0.29749224981E+02  0.46142315618E+02  0.99999804570E+01 0.  0.
        -12    1    1    2    0    0  0.29223293191E+02 -0.17032217399E+02 -0.29749224981E+02  0.45045684382E+02  0.00000000000E+00 0.  1.
         11    1    3    3    0    0 -0.14794802508E+02  0.12336401563E+02  0.16895945985E+02  0.25623153119E+02  0.51100000000E-03 0.  1.
        -11    1    3    3    0    0 -0.88743403417E+01  0.40575046730E+01  0.52467245063E+01  0.11079051357E+02  0.51100000000E-03 0. -1.
        -12    1    3    3    0    0 -0.55541503420E+01  0.63831116280E+00  0.76065544898E+01  0.94401111417E+01  0.00000000000E+00 0.  1.
</event>
<event>
 7    1  0.2001181E-008  0.4614232E+02  0.7816164E-02  0.1320468E+00
        -11   -1    0    0    0    0  0.00000000000E+00  0.00000000000E+00  0.45593999997E+02  0.45594000000E+02  0.51100000000E-03 0.  1.
         11   -1    0    0    0    0 -0.00000000000E+00 -0.00000000000E+00 -0.45593999997E+02  0.45594000000E+02  0.51100000000E-03 0. -1.
    9900012    2    1    2    0    0  0.85554950461E+01  0.15172870252E+02 -0.41541558258E+02  0.46142317080E+02  0.99999937929E+01 0.  0.
        -12    1    1    2    0    0 -0.85554950461E+01 -0.15172870252E+02  0.41541558258E+02  0.45045682920E+02  0.00000000000E+00 0.  1.
         11    1    3    3    0    0  0.40002787239E+01  0.57192117656E+01 -0.19087000881E+02  0.20323021822E+02  0.51100000000E-03 0. -1.
        -11    1    3    3    0    0  0.24927667046E+01  0.49043199320E+01 -0.42784019536E+01  0.69692871498E+01  0.51100000000E-03 0.  1.
        -12    1    3    3    0    0  0.20624496176E+01  0.45493385548E+01 -0.18176155423E+02  0.18850008108E+02  0.00000000000E+00 0.  1.
</event>
<event>
 7    1  0.2001181E-008  0.4614232E+02  0.7816164E-02  0.1320468E+00
        -11   -1    0    0    0    0  0.00000000000E+00  0.00000000000E+00  0.45593999997E+02  0.45594000000E+02  0.51100000000E-03 0.  1.
         11   -1    0    0    0    0 -0.00000000000E+00 -0.00000000000E+00 -0.45593999997E+02  0.45594000000E+02  0.51100000000E-03 0. -1.
    9900012    2    1    2    0    0  0.16592944806E+02 -0.16124486202E+02 -0.38649561098E+02  0.46142318235E+02  0.10000004318E+02 0.  0.
        -12    1    1    2    0    0 -0.16592944806E+02  0.16124486202E+02  0.38649561098E+02  0.45045681765E+02  0.00000000000E+00 0.  1.
         11    1    3    3    0    0  0.98268689198E+01 -0.58809274568E+01 -0.16370876047E+02  0.19978945000E+02  0.51100000000E-03 0. -1.
        -11    1    3    3    0    0  0.44343171500E+01 -0.25421478509E+01 -0.12466814376E+02  0.13473943195E+02  0.51100000000E-03 0.  1.
        -12    1    3    3    0    0  0.23317587364E+01 -0.77014108945E+01 -0.98118706748E+01  0.12689430039E+02  0.00000000000E+00 0.  1.
</event>
<event>
 7    1  0.2001181E-008  0.4614232E+02  0.7816164E-02  0.1320468E+00
        -11   -1    0    0    0    0  0.00000000000E+00  0.00000000000E+00  0.45593999997E+02  0.45594000000E+02  0.51100000000E-03 0.  1.
         11   -1    0    0    0    0 -0.00000000000E+00 -0.00000000000E+00 -0.45593999997E+02  0.45594000000E+02  0.51100000000E-03 0. -1.
    9900012    2    1    2    0    0 -0.33420428690E+01 -0.43174890185E+02 -0.12404559995E+02  0.46142317613E+02  0.99999986512E+01 0.  0.
        -12    1    1    2    0    0  0.33420428690E+01  0.43174890185E+02  0.12404559995E+02  0.45045682387E+02  0.00000000000E+00 0.  1.
         11    1    3    3    0    0  0.23826443689E+01 -0.23352582096E+02 -0.60968701355E+01  0.24252668110E+02  0.51100000000E-03 0. -1.
        -11    1    3    3    0    0 -0.74848145810E+00 -0.22191215111E+01  0.45660891741E+00  0.23860462566E+01  0.51100000000E-03 0.  1.
         12    1    3    3    0    0 -0.49762057798E+01 -0.17603186578E+02 -0.67642987771E+01  0.19503603246E+02  0.00000000000E+00 0. -1.
</event>
<event>
 7    1  0.2001181E-008  0.4614232E+02  0.7816164E-02  0.1320468E+00
        -11   -1    0    0    0    0  0.00000000000E+00  0.00000000000E+00  0.45593999997E+02  0.45594000000E+02  0.51100000000E-03 0.  1.
         11   -1    0    0    0    0 -0.00000000000E+00 -0.00000000000E+00 -0.45593999997E+02  0.45594000000E+02  0.51100000000E-03 0. -1.
    9900012    2    1    2    0    0 -0.13728865272E+02  0.72533247382E+00 -0.42896452546E+02  0.46142317744E+02  0.99999998459E+01 0.  0.
        -12    1    1    2    0    0  0.13728865272E+02 -0.72533247382E+00  0.42896452546E+02  0.45045682256E+02  0.00000000000E+00 0.  1.
         11    1    3    3    0    0 -0.85459197556E+01 -0.29728916167E+01 -0.25217934095E+02  0.26792070269E+02  0.51100000000E-03 0. -1.
        -11    1    3    3    0    0  0.60482942163E+00 -0.14650738885E+00 -0.35661862002E+01  0.36200783582E+01  0.51100000000E-03 0.  1.
         12    1    3    3    0    0 -0.57877749377E+01  0.38447314794E+01 -0.14112332251E+02  0.15730169117E+02  0.00000000000E+00 0. -1.
</event>
<event>
 7    1  0.2001181E-008  0.4614232E+02  0.7816164E-02  0.1320468E+00
        -11   -1    0    0    0    0  0.00000000000E+00  0.00000000000E+00  0.45593999997E+02  0.45594000000E+02  0.51100000000E-03 0.  1.
         11   -1    0    0    0    0 -0.00000000000E+00 -0.00000000000E+00 -0.45593999997E+02  0.45594000000E+02  0.51100000000E-03 0. -1.
    9900012    2    1    2    0    0 -0.26234571945E+00  0.44496073933E+02  0.70102838440E+01  0.46142317629E+02  0.99999987914E+01 0.  0.
        -12    1    1    2    0    0  0.26234571945E+00 -0.44496073933E+02 -0.70102838440E+01  0.45045682371E+02  0.00000000000E+00 0.  1.
         11    1    3    3    0    0  0.95923904228E+00  0.85215148388E+01 -0.31197148911E+00  0.85810070015E+01  0.51100000000E-03 0. -1.
        -11    1    3    3    0    0 -0.36213918300E+01  0.12515565549E+02  0.46278598258E+01  0.13826458209E+02  0.51100000000E-03 0.  1.
        -12    1    3    3    0    0  0.23998070683E+01  0.23458993546E+02  0.26943955073E+01  0.23734852418E+02  0.00000000000E+00 0.  1.
</event>
<event>
 7    1  0.2001181E-008  0.4614232E+02  0.7816164E-02  0.1320468E+00
        -11   -1    0    0    0    0  0.00000000000E+00  0.00000000000E+00  0.45593999997E+02  0.45594000000E+02  0.51100000000E-03 0.  1.
         11   -1    0    0    0    0 -0.00000000000E+00 -0.00000000000E+00 -0.45593999997E+02  0.45594000000E+02  0.51100000000E-03 0. -1.
    9900012    2    1    2    0    0  0.24000314714E+01 -0.17457829730E+01 -0.44947811602E+02  0.46142315667E+02  0.99999809022E+01 0.  0.
        -12    1    1    2    0    0 -0.24000314714E+01  0.17457829730E+01  0.44947811602E+02  0.45045684333E+02  0.00000000000E+00 0.  1.
         11    1    3    3    0    0 -0.27894955837E+01 -0.50565557962E-01 -0.19903105689E+02  0.20097697848E+02  0.51100000000E-03 0. -1.
        -11    1    3    3    0    0  0.31932781522E+01 -0.17984002001E+01 -0.22559637498E+02  0.22855382582E+02  0.51100000000E-03 0.  1.
        -12    1    3    3    0    0  0.19962489028E+01  0.10318278511E+00 -0.24850684150E+01  0.31892352369E+01  0.00000000000E+00 0.  1.
</event>
<event>
 7    1  0.2001181E-008  0.4614232E+02  0.7816164E-02  0.1320468E+00
        -11   -1    0    0    0    0  0.00000000000E+00  0.00000000000E+00  0.45593999997E+02  0.45594000000E+02  0.51100000000E-03 0.  1.
         11   -1    0    0    0    0 -0.00000000000E+00 -0.00000000000E+00 -0.45593999997E+02  0.45594000000E+02  0.51100000000E-03 0. -1.
    9900012    2    1    2    0    0 -0.25704824023E+01  0.44071016209E+02 -0.89583075527E+01  0.46142321809E+02  0.10000036915E+02 0.  0.
        -12    1    1    2    0    0  0.25704824023E+01 -0.44071016209E+02  0.89583075527E+01  0.45045678191E+02  0.00000000000E+00 0.  1.
         11    1    3    3    0    0  0.19994245922E+01  0.78086095432E+01 -0.14050021823E+01  0.81820604429E+01  0.51100000000E-03 0. -1.
        -11    1    3    3    0    0 -0.33798452722E+01  0.58862556911E+01 -0.17850476091E+01  0.70183869481E+01  0.51100000000E-03 0.  1.
         12    1    3    3    0    0 -0.11900617223E+01  0.30376150974E+02 -0.57682577613E+01  0.30941874418E+02  0.00000000000E+00 0. -1.
</event>
<event>
 7    1  0.2001181E-008  0.4614232E+02  0.7816164E-02  0.1320468E+00
        -11   -1    0    0    0    0  0.00000000000E+00  0.00000000000E+00  0.45593999997E+02  0.45594000000E+02  0.51100000000E-03 0. -1.
         11   -1    0    0    0    0 -0.00000000000E+00 -0.00000000000E+00 -0.45593999997E+02  0.45594000000E+02  0.51100000000E-03 0.  1.
    9900012    2    1    2    0    0 -0.36832193349E+02  0.17606645785E+02 -0.19039669762E+02  0.46142317994E+02  0.10000002124E+02 0.  0.
        -12    1    1    2    0    0  0.36832193349E+02 -0.17606645785E+02  0.19039669762E+02  0.45045682006E+02  0.00000000000E+00 0.  1.
         11    1    3    3    0    0 -0.18400578052E+02  0.87547658488E+01 -0.87230251024E+01  0.22165702446E+02  0.51100000000E-03 0. -1.
        -11    1    3    3    0    0 -0.12570023240E+01  0.19249105913E+00  0.10375423384E+01  0.16412196731E+01  0.51100000000E-03 0.  1.
        -12    1    3    3    0    0 -0.17174612973E+02  0.86593888773E+01 -0.11354186998E+02  0.22335395875E+02  0.00000000000E+00 0.  1.
</event>
<event>
 7    1  0.2001181E-008  0.4614232E+02  0.7816164E-02  0.1320468E+00
        -11   -1    0    0    0    0  0.00000000000E+00  0.00000000000E+00  0.45593999997E+02  0.45594000000E+02  0.51100000000E-03 0.  1.
         11   -1    0    0    0    0 -0.00000000000E+00 -0.00000000000E+00 -0.45593999997E+02  0.45594000000E+02  0.51100000000E-03 0. -1.
    9900012    2    1    2    0    0 -0.30898189349E+02  0.11995855442E+02 -0.30504341194E+02  0.46142317804E+02  0.10000000391E+02 0.  0.
        -12    1    1    2    0    0  0.30898189349E+02 -0.11995855442E+02  0.30504341194E+02  0.45045682196E+02  0.00000000000E+00 0.  1.
         11    1    3    3    0    0 -0.62278840618E+01  0.62316298356E+00 -0.33781908977E+01  0.71124570996E+01  0.51100000000E-03 0. -1.
        -11    1    3    3    0    0 -0.81204449954E+01  0.14165916250E+01 -0.11697493671E+02  0.14310126387E+02  0.51100000000E-03 0.  1.
         12    1    3    3    0    0 -0.16549860291E+02  0.99561008335E+01 -0.15428656625E+02  0.24719734318E+02  0.00000000000E+00 0. -1.
</event>
<event>
 7    1  0.2001181E-008  0.4614232E+02  0.7816164E-02  0.1320468E+00
        -11   -1    0    0    0    0  0.00000000000E+00  0.00000000000E+00  0.45593999997E+02  0.45594000000E+02  0.51100000000E-03 0. -1.
         11   -1    0    0    0    0 -0.00000000000E+00 -0.00000000000E+00 -0.45593999997E+02  0.45594000000E+02  0.51100000000E-03 0.  1.
    9900012    2    1    2    0    0 -0.22437553035E+02  0.38328648526E+02  0.75222638886E+01  0.46142317210E+02  0.99999949717E+01 0.  0.
        -12    1    1    2    0    0  0.22437553035E+02 -0.38328648526E+02 -0.75222638886E+01  0.45045682790E+02  0.00000000000E+00 0.  1.
         11    1    3    3    0    0 -0.36133358554E+01  0.51542452852E+01 -0.13386803607E+00  0.62960591941E+01  0.51100000000E-03 0. -1.
        -11    1    3    3    0    0 -0.16406937747E+02  0.32773171662E+02  0.70596223600E+01  0.37324344001E+02  0.51100000000E-03 0.  1.
        -12    1    3    3    0    0 -0.24172794324E+01  0.40123157933E+00  0.59650956464E+00  0.25219140143E+01  0.00000000000E+00 0.  1.
</event>
<event>
 7    1  0.2001181E-008  0.4614232E+02  0.7816164E-02  0.1320468E+00
        -11   -1    0    0    0    0  0.00000000000E+00  0.00000000000E+00  0.45593999997E+02  0.45594000000E+02  0.51100000000E-03 0.  1.
         11   -1    0    0    0    0 -0.00000000000E+00 -0.00000000000E+00 -0.45593999997E+02  0.45594000000E+02  0.51100000000E-03 0. -1.
    9900012    2    1    2    0    0  0.10833034942E+02 -0.35338276788E+02 -0.25748107737E+02  0.46142317583E+02  0.99999983745E+01 0.  0.
        -12    1    1    2    0    0 -0.10833034942E+02  0.35338276788E+02  0.25748107737E+02  0.45045682417E+02  0.00000000000E+00 0.  1.
         11    1    3    3    0    0  0.32376089506E+01 -0.24991172149E+02 -0.16114634214E+02  0.29911907883E+02  0.51100000000E-03 0. -1.
        -11    1    3    3    0    0  0.36557395328E+01 -0.59018986427E+01 -0.38424553000E+01  0.79348158211E+01  0.51100000000E-03 0.  1.
         12    1    3    3    0    0  0.39396864583E+01 -0.44452059963E+01 -0.57910182237E+01  0.82955938791E+01  0.00000000000E+00 0. -1.
</event>
<event>
 7    1  0.2001181E-008  0.4614232E+02  0.7816164E-02  0.1320468E+00
        -11   -1    0    0    0    0  0.00000000000E+00  0.00000000000E+00  0.45593999997E+02  0.45594000000E+02  0.51100000000E-03 0.  1.
         11   -1    0    0    0    0 -0.00000000000E+00 -0.00000000000E+00 -0.45593999997E+02  0.45594000000E+02  0.51100000000E-03 0. -1.
    9900012    2    1    2    0    0 -0.17326913071E+02  0.10708959417E+02 -0.40177229380E+02  0.46142317753E+02  0.99999999303E+01 0.  0.
        -12    1    1    2    0    0  0.17326913071E+02 -0.10708959417E+02  0.40177229380E+02  0.45045682247E+02  0.00000000000E+00 0.  1.
         11    1    3    3    0    0 -0.52988495356E+01  0.27520191419E+01 -0.84793638351E+01  0.10370681128E+02  0.51100000000E-03 0.  1.
        -11    1    3    3    0    0 -0.12129038575E+02  0.44810735537E+01 -0.26898029747E+02  0.29844557318E+02  0.51100000000E-03 0. -1.
        -12    1    3    3    0    0  0.10097503986E+00  0.34758667218E+01 -0.47998357984E+01  0.59270793075E+01  0.00000000000E+00 0.  1.
</event>
<event>
 7    1  0.2001181E-008  0.4614232E+02  0.7816164E-02  0.1320468E+00
        -11   -1    0    0    0    0  0.00000000000E+00  0.00000000000E+00  0.45593999997E+02  0.45594000000E+02  0.51100000000E-03 0.  1.
         11   -1    0    0    0    0 -0.00000000000E+00 -0.00000000000E+00 -0.45593999997E+02  0.45594000000E+02  0.51100000000E-03 0. -1.
    9900012    2    1    2    0    0 -0.22030190734E+01 -0.33126754115E+02 -0.30444678015E+02  0.46142317070E+02  0.99999936946E+01 0.  0.
        -12    1    1    2    0    0  0.22030190734E+01  0.33126754115E+02  0.30444678015E+02  0.45045682930E+02  0.00000000000E+00 0.  1.
         11    1    3    3    0    0 -0.36711288809E+01 -0.15737335850E+02 -0.14936984551E+02  0.22005781846E+02  0.51100000000E-03 0. -1.
        -11    1    3    3    0    0 -0.17354965673E+01 -0.85796500437E+01 -0.51049986779E+01  0.10133279576E+02  0.51100000000E-03 0.  1.
        -12    1    3    3    0    0  0.32036063748E+01 -0.88097682213E+01 -0.10402694786E+02  0.14003255647E+02  0.00000000000E+00 0.  1.
</event>
<event>
 7    1  0.2001181E-008  0.4614232E+02  0.7816164E-02  0.1320468E+00
        -11   -1    0    0    0    0  0.00000000000E+00  0.00000000000E+00  0.45593999997E+02  0.45594000000E+02  0.51100000000E-03 0. -1.
         11   -1    0    0    0    0 -0.00000000000E+00 -0.00000000000E+00 -0.45593999997E+02  0.45594000000E+02  0.51100000000E-03 0.  1.
    9900012    2    1    2    0    0 -0.31446633978E+02 -0.15592744808E+02 -0.28232766603E+02  0.46142316642E+02  0.99999897928E+01 0.  0.
        -12    1    1    2    0    0  0.31446633978E+02  0.15592744808E+02  0.28232766603E+02  0.45045683358E+02  0.00000000000E+00 0.  1.
         11    1    3    3    0    0 -0.16704704963E+02 -0.38536410071E+01 -0.15002262323E+02  0.22780816315E+02  0.51100000000E-03 0. -1.
        -11    1    3    3    0    0 -0.81333889687E+01 -0.52348806158E+01 -0.88345426956E+01  0.13099814353E+02  0.51100000000E-03 0.  1.
        -12    1    3    3    0    0 -0.66085400456E+01 -0.65042231847E+01 -0.43959615846E+01  0.10261685974E+02  0.00000000000E+00 0.  1.
</event>
<event>
 7    1  0.2001181E-008  0.4614232E+02  0.7816164E-02  0.1320468E+00
        -11   -1    0    0    0    0  0.00000000000E+00  0.00000000000E+00  0.45593999997E+02  0.45594000000E+02  0.51100000000E-03 0.  1.
         11   -1    0    0    0    0 -0.00000000000E+00 -0.00000000000E+00 -0.45593999997E+02  0.45594000000E+02  0.51100000000E-03 0. -1.
    9900012    2    1    2    0    0  0.31973307899E+02  0.27822143810E+02 -0.15256124068E+02  0.46142318456E+02  0.10000006336E+02 0.  0.
        -12    1    1    2    0    0 -0.31973307899E+02 -0.27822143810E+02  0.15256124068E+02  0.45045681544E+02  0.00000000000E+00 0.  1.
         11    1    3    3    0    0  0.49964592046E+01  0.23053085519E+01  0.46090790852E-01  0.55028335178E+01  0.51100000000E-03 0. -1.
        -11    1    3    3    0    0  0.21912283646E+02  0.17442785262E+02 -0.12749603695E+02  0.30772574265E+02  0.51100000000E-03 0.  1.
         12    1    3    3    0    0  0.50645650483E+01  0.80740499963E+01 -0.25526111637E+01  0.98669106728E+01  0.00000000000E+00 0. -1.
</event>
<event>
 7    1  0.2001181E-008  0.4614233E+02  0.7816164E-02  0.1320468E+00
        -11   -1    0    0    0    0  0.00000000000E+00  0.00000000000E+00  0.45593999997E+02  0.45594000000E+02  0.51100000000E-03 0. -1.
         11   -1    0    0    0    0 -0.00000000000E+00 -0.00000000000E+00 -0.45593999997E+02  0.45594000000E+02  0.51100000000E-03 0.  1.
    9900012    2    1    2    0    0 -0.36934070011E+02 -0.18298425385E+02  0.18170161695E+02  0.46142326787E+02  0.10000082308E+02 0.  0.
        -12    1    1    2    0    0  0.36934070011E+02  0.18298425385E+02 -0.18170161695E+02  0.45045673213E+02  0.00000000000E+00 0.  1.
         11    1    3    3    0    0 -0.19719964636E+02 -0.12987755404E+02  0.10647435593E+02  0.25902252424E+02  0.51100000000E-03 0. -1.
        -11    1    3    3    0    0 -0.49794995074E+01 -0.29225082732E+01  0.18813040540E+00  0.57768385179E+01  0.51100000000E-03 0.  1.
         12    1    3    3    0    0 -0.12234605868E+02 -0.23881617081E+01  0.73345956966E+01  0.14463235845E+02  0.00000000000E+00 0. -1.
</event>
<event>
 7    1  0.2001181E-008  0.4614232E+02  0.7816164E-02  0.1320468E+00
        -11   -1    0    0    0    0  0.00000000000E+00  0.00000000000E+00  0.45593999997E+02  0.45594000000E+02  0.51100000000E-03 0.  1.
         11   -1    0    0    0    0 -0.00000000000E+00 -0.00000000000E+00 -0.45593999997E+02  0.45594000000E+02  0.51100000000E-03 0. -1.
    9900012    2    1    2    0    0 -0.10018428534E+02 -0.42298969654E+02  0.11812785240E+02  0.46142316087E+02  0.99999847315E+01 0.  0.
        -12    1    1    2    0    0  0.10018428534E+02  0.42298969654E+02 -0.11812785240E+02  0.45045683913E+02  0.00000000000E+00 0.  1.
         11    1    3    3    0    0 -0.42639606296E+01 -0.24290490778E+02  0.80860035492E+01  0.25953665562E+02  0.51100000000E-03 0. -1.
        -11    1    3    3    0    0 -0.75983489573E+00 -0.11177233562E+01  0.21034872102E+01  0.25002626411E+01  0.51100000000E-03 0.  1.
         12    1    3    3    0    0 -0.49946330084E+01 -0.16890755520E+02  0.16232944806E+01  0.17688387883E+02  0.00000000000E+00 0. -1.
</event>
<event>
 7    1  0.2001181E-008  0.4614232E+02  0.7816164E-02  0.1320468E+00
        -11   -1    0    0    0    0  0.00000000000E+00  0.00000000000E+00  0.45593999997E+02  0.45594000000E+02  0.51100000000E-03 0. -1.
         11   -1    0    0    0    0 -0.00000000000E+00 -0.00000000000E+00 -0.45593999997E+02  0.45594000000E+02  0.51100000000E-03 0.  1.
    9900012    2    1    2    0    0 -0.29648954349E+02 -0.25696189457E+02  0.22130498584E+02  0.46142316364E+02  0.99999872640E+01 0.  0.
        -12    1    1    2    0    0  0.29648954349E+02  0.25696189457E+02 -0.22130498584E+02  0.45045683636E+02  0.00000000000E+00 0.  1.
         11    1    3    3    0    0 -0.10327886602E+02 -0.86675359604E+01  0.11092217896E+02  0.17459344758E+02  0.51100000000E-03 0. -1.
        -11    1    3    3    0    0 -0.19253749064E+02 -0.15591248537E+02  0.93892565061E+01  0.26494377176E+02  0.51100000000E-03 0.  1.
        -12    1    3    3    0    0 -0.67318683010E-01 -0.14374049601E+01  0.16490241820E+01  0.21885944296E+01  0.00000000000E+00 0.  1.
</event>
<event>
 7    1  0.2001181E-008  0.4614232E+02  0.7816164E-02  0.1320468E+00
        -11   -1    0    0    0    0  0.00000000000E+00  0.00000000000E+00  0.45593999997E+02  0.45594000000E+02  0.51100000000E-03 0. -1.
         11   -1    0    0    0    0 -0.00000000000E+00 -0.00000000000E+00 -0.45593999997E+02  0.45594000000E+02  0.51100000000E-03 0.  1.
    9900012    2    1    2    0    0 -0.73895666023E+01 -0.43285616856E+02 -0.10043065163E+02  0.46142317864E+02  0.10000000941E+02 0.  0.
        -12    1    1    2    0    0  0.73895666023E+01  0.43285616856E+02  0.10043065163E+02  0.45045682136E+02  0.00000000000E+00 0.  1.
         11    1    3    3    0    0 -0.44546180675E+01 -0.11003714331E+02 -0.24475850629E+00  0.11873721329E+02  0.51100000000E-03 0. -1.
        -11    1    3    3    0    0 -0.61197932107E+00 -0.83922299568E+01 -0.50107157169E+01  0.97934322173E+01  0.51100000000E-03 0.  1.
         12    1    3    3    0    0 -0.23229692138E+01 -0.23889672568E+02 -0.47875909393E+01  0.24475164318E+02  0.00000000000E+00 0. -1.
</event>
<event>
 7    1  0.2001181E-008  0.4614232E+02  0.7816164E-02  0.1320468E+00
        -11   -1    0    0    0    0  0.00000000000E+00  0.00000000000E+00  0.45593999997E+02  0.45594000000E+02  0.51100000000E-03 0.  1.
         11   -1    0    0    0    0 -0.00000000000E+00 -0.00000000000E+00 -0.45593999997E+02  0.45594000000E+02  0.51100000000E-03 0. -1.
    9900012    2    1    2    0    0  0.17787061924E+02  0.28016479417E+02 -0.30459987064E+02  0.46142317602E+02  0.99999985473E+01 0.  0.
        -12    1    1    2    0    0 -0.17787061924E+02 -0.28016479417E+02  0.30459987064E+02  0.45045682398E+02  0.00000000000E+00 0.  1.
         11    1    3    3    0    0  0.51776568715E+01  0.10361703156E+02 -0.13669774221E+02  0.17917470538E+02  0.51100000000E-03 0. -1.
        -11    1    3    3    0    0  0.52752352610E+01  0.31592650712E+01 -0.67336052260E+01  0.91186897332E+01  0.51100000000E-03 0.  1.
         12    1    3    3    0    0  0.73341697912E+01  0.14495511190E+02 -0.10056607617E+02  0.19106157330E+02  0.00000000000E+00 0. -1.
</event>
<event>
 7    1  0.2001181E-008  0.4614232E+02  0.7816164E-02  0.1320468E+00
        -11   -1    0    0    0    0  0.00000000000E+00  0.00000000000E+00  0.45593999997E+02  0.45594000000E+02  0.51100000000E-03 0.  1.
         11   -1    0    0    0    0 -0.00000000000E+00 -0.00000000000E+00 -0.45593999997E+02  0.45594000000E+02  0.51100000000E-03 0. -1.
    9900012    2    1    2    0    0  0.39193981990E+01  0.21215057667E+02 -0.39543306545E+02  0.46142318225E+02  0.10000004230E+02 0.  0.
        -12    1    1    2    0    0 -0.39193981990E+01 -0.21215057667E+02  0.39543306545E+02  0.45045681775E+02  0.00000000000E+00 0.  1.
         11    1    3    3    0    0  0.87609970388E+00  0.42491007050E+01 -0.14270867454E+02  0.14915765674E+02  0.51100000000E-03 0. -1.
        -11    1    3    3    0    0 -0.94902520400E+00  0.48764768834E+01 -0.11183436267E+02  0.12237235089E+02  0.51100000000E-03 0.  1.
        -12    1    3    3    0    0  0.39923236991E+01  0.12089480078E+02 -0.14089002825E+02  0.18989317462E+02  0.00000000000E+00 0.  1.
</event>
<event>
 7    1  0.2001181E-008  0.4614232E+02  0.7816164E-02  0.1320468E+00
        -11   -1    0    0    0    0  0.00000000000E+00  0.00000000000E+00  0.45593999997E+02  0.45594000000E+02  0.51100000000E-03 0.  1.
         11   -1    0    0    0    0 -0.00000000000E+00 -0.00000000000E+00 -0.45593999997E+02  0.45594000000E+02  0.51100000000E-03 0. -1.
    9900012    2    1    2    0    0 -0.30337343006E+02 -0.30972326943E+02 -0.12225956818E+02  0.46142318331E+02  0.10000005198E+02 0.  0.
        -12    1    1    2    0    0  0.30337343006E+02  0.30972326943E+02  0.12225956818E+02  0.45045681669E+02  0.00000000000E+00 0.  1.
         11    1    3    3    0    0 -0.10348007853E+02 -0.13447936622E+02 -0.47738718688E+01  0.17627198269E+02  0.51100000000E-03 0. -1.
        -11    1    3    3    0    0 -0.17225530348E+01 -0.22316522586E+00 -0.22173546310E+01  0.28166741907E+01  0.51100000000E-03 0.  1.
        -12    1    3    3    0    0 -0.18266782118E+02 -0.17301225095E+02 -0.52347303179E+01  0.25698445872E+02  0.00000000000E+00 0.  1.
</event>
<event>
 7    1  0.2001181E-008  0.4614232E+02  0.7816164E-02  0.1320468E+00
        -11   -1    0    0    0    0  0.00000000000E+00  0.00000000000E+00  0.45593999997E+02  0.45594000000E+02  0.51100000000E-03 0.  1.
         11   -1    0    0    0    0 -0.00000000000E+00 -0.00000000000E+00 -0.45593999997E+02  0.45594000000E+02  0.51100000000E-03 0. -1.
    9900012    2    1    2    0    0  0.13912626740E+02 -0.34067075136E+02 -0.25980506392E+02  0.46142317593E+02  0.99999984640E+01 0.  0.
        -12    1    1    2    0    0 -0.13912626740E+02  0.34067075136E+02  0.25980506392E+02  0.45045682407E+02  0.00000000000E+00 0.  1.
         11    1    3    3    0    0 -0.34831321228E+00 -0.13639387941E+01 -0.76345686918E+00  0.16014111840E+01  0.51100000000E-03 0.  1.
        -11    1    3    3    0    0  0.42905479801E+00 -0.38205665013E+01 -0.62026159278E+01  0.72974831977E+01  0.51100000000E-03 0. -1.
         12    1    3    3    0    0  0.13831885154E+02 -0.28882569841E+02 -0.19014433595E+02  0.37243423211E+02  0.00000000000E+00 0. -1.
</event>
<event>
 7    1  0.2001181E-008  0.4614232E+02  0.7816164E-02  0.1320468E+00
        -11   -1    0    0    0    0  0.00000000000E+00  0.00000000000E+00  0.45593999997E+02  0.45594000000E+02  0.51100000000E-03 0.  1.
         11   -1    0    0    0    0 -0.00000000000E+00 -0.00000000000E+00 -0.45593999997E+02  0.45594000000E+02  0.51100000000E-03 0. -1.
    9900012    2    1    2    0    0 -0.12410927437E+01 -0.41809016685E+02 -0.16720628474E+02  0.46142316478E+02  0.99999883041E+01 0.  0.
        -12    1    1    2    0    0  0.12410927437E+01  0.41809016685E+02  0.16720628474E+02  0.45045683522E+02  0.00000000000E+00 0.  1.
         11    1    3    3    0    0  0.16551814838E+01 -0.37581827354E+01 -0.26169903109E+01  0.48695176112E+01  0.51100000000E-03 0. -1.
        -11    1    3    3    0    0  0.21703152058E+01 -0.16117402656E+02 -0.53612973308E+01  0.17123797646E+02  0.51100000000E-03 0.  1.
        -12    1    3    3    0    0 -0.50665894333E+01 -0.21933431293E+02 -0.87423408327E+01  0.24149001222E+02  0.00000000000E+00 0.  1.
</event>
<event>
 7    1  0.2001181E-008  0.4614232E+02  0.7816164E-02  0.1320468E+00
        -11   -1    0    0    0    0  0.00000000000E+00  0.00000000000E+00  0.45593999997E+02  0.45594000000E+02  0.51100000000E-03 0.  1.
         11   -1    0    0    0    0 -0.00000000000E+00 -0.00000000000E+00 -0.45593999997E+02  0.45594000000E+02  0.51100000000E-03 0. -1.
    9900012    2    1    2    0    0  0.33185355556E+02 -0.18055501671E+02 -0.24532521330E+02  0.46142316891E+02  0.99999920667E+01 0.  0.
        -12    1    1    2    0    0 -0.33185355556E+02  0.18055501671E+02  0.24532521330E+02  0.45045683109E+02  0.00000000000E+00 0.  1.
         11    1    3    3    0    0  0.11626601289E+02 -0.81178726022E+01 -0.12223211850E+02  0.18721234502E+02  0.51100000000E-03 0. -1.
        -11    1    3    3    0    0  0.17175474726E+02 -0.54466671953E+01 -0.75104058891E+01  0.19520996708E+02  0.51100000000E-03 0.  1.
        -12    1    3    3    0    0  0.43832795411E+01 -0.44909618733E+01 -0.47989035909E+01  0.79000856804E+01  0.00000000000E+00 0.  1.
</event>
<event>
 7    1  0.2001181E-008  0.4614232E+02  0.7816164E-02  0.1320468E+00
        -11   -1    0    0    0    0  0.00000000000E+00  0.00000000000E+00  0.45593999997E+02  0.45594000000E+02  0.51100000000E-03 0. -1.
         11   -1    0    0    0    0 -0.00000000000E+00 -0.00000000000E+00 -0.45593999997E+02  0.45594000000E+02  0.51100000000E-03 0.  1.
    9900012    2    1    2    0    0 -0.31357600210E+02  0.12963637231E+02 -0.29626988245E+02  0.46142318591E+02  0.10000007565E+02 0.  0.
        -12    1    1    2    0    0  0.31357600210E+02 -0.12963637231E+02  0.29626988245E+02  0.45045681409E+02  0.00000000000E+00 0.  1.
         11    1    3    3    0    0 -0.26246140219E+01 -0.58052014683E+00 -0.12524068256E+01  0.29654890866E+01  0.51100000000E-03 0.  1.
        -11    1    3    3    0    0 -0.13754043850E+02  0.85842658226E+01 -0.18333538557E+02  0.24474108323E+02  0.51100000000E-03 0. -1.
         12    1    3    3    0    0 -0.14978942338E+02  0.49598915548E+01 -0.10041042862E+02  0.18702721181E+02  0.00000000000E+00 0. -1.
</event>
<event>
 7    1  0.2001181E-008  0.4614232E+02  0.7816164E-02  0.1320468E+00
        -11   -1    0    0    0    0  0.00000000000E+00  0.00000000000E+00  0.45593999997E+02  0.45594000000E+02  0.51100000000E-03 0.  1.
         11   -1    0    0    0    0 -0.00000000000E+00 -0.00000000000E+00 -0.45593999997E+02  0.45594000000E+02  0.51100000000E-03 0. -1.
    9900012    2    1    2    0    0  0.75330637810E+01 -0.29522060090E+02 -0.33178523265E+02  0.46142317766E+02  0.10000000045E+02 0.  0.
        -12    1    1    2    0    0 -0.75330637810E+01  0.29522060090E+02  0.33178523265E+02  0.45045682234E+02  0.00000000000E+00 0.  1.
         11    1    3    3    0    0  0.21347415024E+00 -0.49458576888E+00 -0.24694718062E+01  0.25275437797E+01  0.51100000000E-03 0. -1.
        -11    1    3    3    0    0  0.59929635037E+01 -0.97058387481E+01 -0.90605332831E+01  0.14567504282E+02  0.51100000000E-03 0.  1.
         12    1    3    3    0    0  0.13266261271E+01 -0.19321635573E+02 -0.21648518175E+02  0.29047269705E+02  0.00000000000E+00 0. -1.
</event>
<event>
 7    1  0.2001181E-008  0.4614232E+02  0.7816164E-02  0.1320468E+00
        -11   -1    0    0    0    0  0.00000000000E+00  0.00000000000E+00  0.45593999997E+02  0.45594000000E+02  0.51100000000E-03 0.  1.
         11   -1    0    0    0    0 -0.00000000000E+00 -0.00000000000E+00 -0.45593999997E+02  0.45594000000E+02  0.51100000000E-03 0. -1.
    9900012    2    1    2    0    0  0.36325119417E+02  0.25553783596E+02 -0.75235162076E+01  0.46142318155E+02  0.10000003596E+02 0.  0.
        -12    1    1    2    0    0 -0.36325119417E+02 -0.25553783596E+02  0.75235162076E+01  0.45045681845E+02  0.00000000000E+00 0.  1.
         11    1    3    3    0    0  0.15826636509E+02  0.71775777907E+01 -0.14354795670E+01  0.17437334888E+02  0.51100000000E-03 0. -1.
        -11    1    3    3    0    0  0.39750963815E+01  0.10543313756E+01 -0.95528914954E+00  0.42220354702E+01  0.51100000000E-03 0.  1.
        -12    1    3    3    0    0  0.16523386526E+02  0.17321874430E+02 -0.51327474910E+01  0.24482947797E+02  0.00000000000E+00 0.  1.
</event>
<event>
 7    1  0.2001181E-008  0.4614232E+02  0.7816164E-02  0.1320468E+00
        -11   -1    0    0    0    0  0.00000000000E+00  0.00000000000E+00  0.45593999997E+02  0.45594000000E+02  0.51100000000E-03 0.  1.
         11   -1    0    0    0    0 -0.00000000000E+00 -0.00000000000E+00 -0.45593999997E+02  0.45594000000E+02  0.51100000000E-03 0. -1.
    9900012    2    1    2    0    0  0.26114927985E+02  0.35042485017E+02 -0.10915507852E+02  0.46142317282E+02  0.99999956316E+01 0.  0.
        -12    1    1    2    0    0 -0.26114927985E+02 -0.35042485017E+02  0.10915507852E+02  0.45045682718E+02  0.00000000000E+00 0.  1.
         11    1    3    3    0    0  0.56117645772E+01  0.11271364646E+02 -0.59017105116E+01  0.13905601385E+02  0.51100000000E-03 0. -1.
        -11    1    3    3    0    0  0.12668868439E+02  0.14373677266E+02 -0.56792839165E+01  0.19983920830E+02  0.51100000000E-03 0.  1.
        -12    1    3    3    0    0  0.78342949694E+01  0.93974431050E+01  0.66548657569E+00  0.12252795067E+02  0.00000000000E+00 0.  1.
</event>
<event>
 7    1  0.2001181E-008  0.4614232E+02  0.7816164E-02  0.1320468E+00
        -11   -1    0    0    0    0  0.00000000000E+00  0.00000000000E+00  0.45593999997E+02  0.45594000000E+02  0.51100000000E-03 0.  1.
         11   -1    0    0    0    0 -0.00000000000E+00 -0.00000000000E+00 -0.45593999997E+02  0.45594000000E+02  0.51100000000E-03 0. -1.
    9900012    2    1    2    0    0  0.12950874399E+02 -0.26398660381E+02 -0.34124757849E+02  0.46142317456E+02  0.99999972176E+01 0.  0.
        -12    1    1    2    0    0 -0.12950874399E+02  0.26398660381E+02  0.34124757849E+02  0.45045682544E+02  0.00000000000E+00 0.  1.
         11    1    3    3    0    0  0.86586102285E+01 -0.10307916737E+02 -0.20060562068E+02  0.24158866473E+02  0.51100000000E-03 0. -1.
        -11    1    3    3    0    0 -0.23632330457E+00 -0.26423423345E+01 -0.16121018909E+01  0.31043025762E+01  0.51100000000E-03 0.  1.
        -12    1    3    3    0    0  0.45285874748E+01 -0.13448401309E+02 -0.12452093891E+02  0.18879148406E+02  0.00000000000E+00 0.  1.
</event>
<event>
 7    1  0.2001181E-008  0.4614232E+02  0.7816164E-02  0.1320468E+00
        -11   -1    0    0    0    0  0.00000000000E+00  0.00000000000E+00  0.45593999997E+02  0.45594000000E+02  0.51100000000E-03 0. -1.
         11   -1    0    0    0    0 -0.00000000000E+00 -0.00000000000E+00 -0.45593999997E+02  0.45594000000E+02  0.51100000000E-03 0.  1.
    9900012    2    1    2    0    0 -0.22188585305E+00  0.31908508884E+02 -0.31794830132E+02  0.46142318790E+02  0.10000009384E+02 0.  0.
        -12    1    1    2    0    0  0.22188585305E+00 -0.31908508884E+02  0.31794830132E+02  0.45045681210E+02  0.00000000000E+00 0.  1.
         11    1    3    3    0    0  0.86218360610E+00  0.72048872139E+01 -0.45644888542E+01  0.85725328286E+01  0.51100000000E-03 0. -1.
        -11    1    3    3    0    0  0.25449749168E+01  0.75704325880E+01 -0.56802548149E+01  0.98006959916E+01  0.51100000000E-03 0.  1.
         12    1    3    3    0    0 -0.36290443759E+01  0.17133189082E+02 -0.21550086463E+02  0.27769089970E+02  0.00000000000E+00 0. -1.
</event>
<event>
 7    1  0.2001181E-008  0.4614232E+02  0.7816164E-02  0.1320468E+00
        -11   -1    0    0    0    0  0.00000000000E+00  0.00000000000E+00  0.45593999997E+02  0.45594000000E+02  0.51100000000E-03 0.  1.
         11   -1    0    0    0    0 -0.00000000000E+00 -0.00000000000E+00 -0.45593999997E+02  0.45594000000E+02  0.51100000000E-03 0. -1.
    9900012    2    1    2    0    0 -0.34687828636E+02 -0.95906764076E+01 -0.27090347439E+02  0.46142318145E+02  0.10000003496E+02 0.  0.
        -12    1    1    2    0    0  0.34687828636E+02  0.95906764076E+01  0.27090347439E+02  0.45045681855E+02  0.00000000000E+00 0.  1.
         11    1    3    3    0    0 -0.79536952829E+01 -0.90157128549E+00 -0.34458185793E+01  0.87148015112E+01  0.51100000000E-03 0. -1.
        -11    1    3    3    0    0 -0.59270253073E+01 -0.16377581080E+01 -0.17094917069E+01  0.63823383467E+01  0.51100000000E-03 0.  1.
        -12    1    3    3    0    0 -0.20807108046E+02 -0.70513470141E+01 -0.21935037153E+02  0.31045178287E+02  0.00000000000E+00 0.  1.
</event>
<event>
 7    1  0.2001181E-008  0.4614231E+02  0.7816164E-02  0.1320468E+00
        -11   -1    0    0    0    0  0.00000000000E+00  0.00000000000E+00  0.45593999997E+02  0.45594000000E+02  0.51100000000E-03 0. -1.
         11   -1    0    0    0    0 -0.00000000000E+00 -0.00000000000E+00 -0.45593999997E+02  0.45594000000E+02  0.51100000000E-03 0.  1.
    9900012    2    1    2    0    0  0.17608707818E+02  0.40086067529E+02 -0.10590332437E+02  0.46142306066E+02  0.99998933501E+01 0.  0.
        -12    1    1    2    0    0 -0.17608707818E+02 -0.40086067529E+02  0.10590332437E+02  0.45045693934E+02  0.00000000000E+00 0.  1.
         11    1    3    3    0    0  0.36670309905E+01  0.10650636872E+02 -0.23385693804E+01  0.11504437799E+02  0.51100000000E-03 0. -1.
        -11    1    3    3    0    0  0.12113766672E+02  0.15933597783E+02 -0.49341332279E+01  0.20614765395E+02  0.51100000000E-03 0.  1.
         12    1    3    3    0    0  0.18279101550E+01  0.13501832873E+02 -0.33176298284E+01  0.14023102871E+02  0.00000000000E+00 0. -1.
</event>
<event>
 7    1  0.2001181E-008  0.4614232E+02  0.7816164E-02  0.1320468E+00
        -11   -1    0    0    0    0  0.00000000000E+00  0.00000000000E+00  0.45593999997E+02  0.45594000000E+02  0.51100000000E-03 0. -1.
         11   -1    0    0    0    0 -0.00000000000E+00 -0.00000000000E+00 -0.45593999997E+02  0.45594000000E+02  0.51100000000E-03 0.  1.
    9900012    2    1    2    0    0 -0.36134260736E+02  0.16481909270E+02  0.21254998556E+02  0.46142322119E+02  0.10000039737E+02 0.  0.
        -12    1    1    2    0    0  0.36134260736E+02 -0.16481909270E+02 -0.21254998556E+02  0.45045677881E+02  0.00000000000E+00 0.  1.
         11    1    3    3    0    0 -0.95096075609E+01  0.21528527707E+01  0.21685869567E+01  0.99885024235E+01  0.51100000000E-03 0. -1.
        -11    1    3    3    0    0 -0.12163652654E+02  0.93221858973E+01  0.10828233021E+02  0.18764547061E+02  0.51100000000E-03 0.  1.
        -12    1    3    3    0    0 -0.14461000522E+02  0.50068706024E+01  0.82581785788E+01  0.17389272635E+02  0.00000000000E+00 0.  1.
</event>
<event>
 7    1  0.2001181E-008  0.4614232E+02  0.7816164E-02  0.1320468E+00
        -11   -1    0    0    0    0  0.00000000000E+00  0.00000000000E+00  0.45593999997E+02  0.45594000000E+02  0.51100000000E-03 0. -1.
         11   -1    0    0    0    0 -0.00000000000E+00 -0.00000000000E+00 -0.45593999997E+02  0.45594000000E+02  0.51100000000E-03 0.  1.
    9900012    2    1    2    0    0  0.20854120953E+01 -0.51492633301E+01  0.44701785239E+02  0.46142318076E+02  0.10000002867E+02 0.  0.
        -12    1    1    2    0    0 -0.20854120953E+01  0.51492633301E+01 -0.44701785239E+02  0.45045681924E+02  0.00000000000E+00 0.  1.
         11    1    3    3    0    0  0.19669173848E+01  0.37560754327E+00  0.19419147703E+02  0.19522119322E+02  0.51100000000E-03 0. -1.
        -11    1    3    3    0    0  0.30248580208E+01 -0.40892538170E+01  0.15035045703E+02  0.15872125327E+02  0.51100000000E-03 0.  1.
        -12    1    3    3    0    0 -0.29063633103E+01 -0.14356170564E+01  0.10247591833E+02  0.10748073427E+02  0.00000000000E+00 0.  1.
</event>
<event>
 7    1  0.2001181E-008  0.4614232E+02  0.7816164E-02  0.1320468E+00
        -11   -1    0    0    0    0  0.00000000000E+00  0.00000000000E+00  0.45593999997E+02  0.45594000000E+02  0.51100000000E-03 0.  1.
         11   -1    0    0    0    0 -0.00000000000E+00 -0.00000000000E+00 -0.45593999997E+02  0.45594000000E+02  0.51100000000E-03 0. -1.
    9900012    2    1    2    0    0 -0.43281517282E+02  0.10569273415E+02 -0.66418450613E+01  0.46142318913E+02  0.10000010507E+02 0.  0.
        -12    1    1    2    0    0  0.43281517282E+02 -0.10569273415E+02  0.66418450613E+01  0.45045681087E+02  0.00000000000E+00 0.  1.
         11    1    3    3    0    0 -0.64060972224E+01 -0.81580933763E+00 -0.13072495621E+01  0.65888184204E+01  0.51100000000E-03 0. -1.
        -11    1    3    3    0    0 -0.67981853576E+01  0.25297681260E+00  0.96029043698E+00  0.68703332822E+01  0.51100000000E-03 0.  1.
        -12    1    3    3    0    0 -0.30077234702E+02  0.11132105940E+02 -0.62948859362E+01  0.32683167211E+02  0.00000000000E+00 0.  1.
</event>
<event>
 7    1  0.2001181E-008  0.4614232E+02  0.7816164E-02  0.1320468E+00
        -11   -1    0    0    0    0  0.00000000000E+00  0.00000000000E+00  0.45593999997E+02  0.45594000000E+02  0.51100000000E-03 0.  1.
         11   -1    0    0    0    0 -0.00000000000E+00 -0.00000000000E+00 -0.45593999997E+02  0.45594000000E+02  0.51100000000E-03 0. -1.
    9900012    2    1    2    0    0  0.93065894632E+01 -0.26676559758E+02 -0.35083643402E+02  0.46142317828E+02  0.10000000611E+02 0.  0.
        -12    1    1    2    0    0 -0.93065894632E+01  0.26676559758E+02  0.35083643402E+02  0.45045682172E+02  0.00000000000E+00 0.  1.
         11    1    3    3    0    0  0.41769296720E+01 -0.13400978131E+02 -0.11587513472E+02  0.18201742364E+02  0.51100000000E-03 0.  1.
        -11    1    3    3    0    0  0.54635244939E+01 -0.72167975883E+01 -0.14128583036E+02  0.16779425682E+02  0.51100000000E-03 0. -1.
        -12    1    3    3    0    0 -0.33386470265E+00 -0.60587840387E+01 -0.93675468933E+01  0.11161149782E+02  0.00000000000E+00 0.  1.
</event>
<event>
 7    1  0.2001181E-008  0.4614232E+02  0.7816164E-02  0.1320468E+00
        -11   -1    0    0    0    0  0.00000000000E+00  0.00000000000E+00  0.45593999997E+02  0.45594000000E+02  0.51100000000E-03 0. -1.
         11   -1    0    0    0    0 -0.00000000000E+00 -0.00000000000E+00 -0.45593999997E+02  0.45594000000E+02  0.51100000000E-03 0.  1.
    9900012    2    1    2    0    0 -0.26666277581E+02  0.11705172234E+02  0.34365856302E+02  0.46142317672E+02  0.99999991832E+01 0.  0.
        -12    1    1    2    0    0  0.26666277581E+02 -0.11705172234E+02 -0.34365856302E+02  0.45045682328E+02  0.00000000000E+00 0.  1.
         11    1    3    3    0    0 -0.12709799816E+02  0.56833651154E+01  0.12465536288E+02  0.18687676303E+02  0.51100000000E-03 0. -1.
        -11    1    3    3    0    0 -0.16268499536E+01  0.34437365248E+01  0.36187439559E+01  0.52536910933E+01  0.51100000000E-03 0.  1.
        -12    1    3    3    0    0 -0.12329627812E+02  0.25780705939E+01  0.18281576058E+02  0.22200950275E+02  0.00000000000E+00 0.  1.
</event>
<event>
 7    1  0.2001181E-008  0.4614232E+02  0.7816164E-02  0.1320468E+00
        -11   -1    0    0    0    0  0.00000000000E+00  0.00000000000E+00  0.45593999997E+02  0.45594000000E+02  0.51100000000E-03 0.  1.
         11   -1    0    0    0    0 -0.00000000000E+00 -0.00000000000E+00 -0.45593999997E+02  0.45594000000E+02  0.51100000000E-03 0. -1.
    9900012    2    1    2    0    0  0.21560988966E+02 -0.39550322697E+02 -0.95994966171E-01  0.46142317791E+02  0.10000000273E+02 0.  0.
        -12    1    1    2    0    0 -0.21560988966E+02  0.39550322697E+02  0.95994966171E-01  0.45045682209E+02  0.00000000000E+00 0.  1.
         11    1    3    3    0    0  0.12773539591E+02 -0.18014921770E+02 -0.25315248539E+01  0.22228570318E+02  0.51100000000E-03 0.  1.
        -11    1    3    3    0    0  0.55992218477E+01 -0.12101307139E+02 -0.10203230670E+01  0.13372882232E+02  0.51100000000E-03 0. -1.
         12    1    3    3    0    0  0.31882275276E+01 -0.94340937885E+01  0.34558529547E+01  0.10540865241E+02  0.00000000000E+00 0. -1.
</event>
<event>
 7    1  0.2001181E-008  0.4614231E+02  0.7816164E-02  0.1320468E+00
        -11   -1    0    0    0    0  0.00000000000E+00  0.00000000000E+00  0.45593999997E+02  0.45594000000E+02  0.51100000000E-03 0.  1.
         11   -1    0    0    0    0 -0.00000000000E+00 -0.00000000000E+00 -0.45593999997E+02  0.45594000000E+02  0.51100000000E-03 0. -1.
    9900012    2    1    2    0    0  0.42495711615E+02  0.59122960922E+01 -0.13721264991E+02  0.46142313595E+02  0.99999620058E+01 0.  0.
        -12    1    1    2    0    0 -0.42495711615E+02 -0.59122960922E+01  0.13721264991E+02  0.45045686405E+02  0.00000000000E+00 0.  1.
         11    1    3    3    0    0  0.20055009991E+02  0.24244192026E+01 -0.89782920337E+01  0.22106355699E+02  0.51100000000E-03 0. -1.
        -11    1    3    3    0    0  0.15984545982E+01  0.21326446808E+01 -0.78073916320E+00  0.27771900078E+01  0.51100000000E-03 0.  1.
         12    1    3    3    0    0  0.20842247027E+02  0.13552322087E+01 -0.39622337940E+01  0.21258767888E+02  0.00000000000E+00 0. -1.
</event>
<event>
 7    1  0.2001181E-008  0.4614230E+02  0.7816164E-02  0.1320468E+00
        -11   -1    0    0    0    0  0.00000000000E+00  0.00000000000E+00  0.45593999997E+02  0.45594000000E+02  0.51100000000E-03 0. -1.
         11   -1    0    0    0    0 -0.00000000000E+00 -0.00000000000E+00 -0.45593999997E+02  0.45594000000E+02  0.51100000000E-03 0.  1.
    9900012    2    1    2    0    0  0.39740717433E+02 -0.20483110784E+02  0.54983885847E+01  0.46142304018E+02  0.99998746763E+01 0.  0.
        -12    1    1    2    0    0 -0.39740717433E+02  0.20483110784E+02 -0.54983885847E+01  0.45045695982E+02  0.00000000000E+00 0.  1.
         11    1    3    3    0    0  0.14231083492E+02 -0.28028422380E+01  0.38624527924E+01  0.15009936836E+02  0.51100000000E-03 0. -1.
        -11    1    3    3    0    0  0.38702160297E+00 -0.57348145435E-01 -0.70790478885E-01  0.39760040740E+00  0.51100000000E-03 0.  1.
        -12    1    3    3    0    0  0.25122612338E+02 -0.17622920401E+02  0.17067262712E+01  0.30734766775E+02  0.00000000000E+00 0.  1.
</event>
<event>
 7    1  0.2001181E-008  0.4614232E+02  0.7816164E-02  0.1320468E+00
        -11   -1    0    0    0    0  0.00000000000E+00  0.00000000000E+00  0.45593999997E+02  0.45594000000E+02  0.51100000000E-03 0.  1.
         11   -1    0    0    0    0 -0.00000000000E+00 -0.00000000000E+00 -0.45593999997E+02  0.45594000000E+02  0.51100000000E-03 0. -1.
    9900012    2    1    2    0    0 -0.33087127267E+02 -0.24426988631E+02 -0.18376010249E+02  0.46142317443E+02  0.99999971002E+01 0.  0.
        -12    1    1    2    0    0  0.33087127267E+02  0.24426988631E+02  0.18376010249E+02  0.45045682557E+02  0.00000000000E+00 0.  1.
         11    1    3    3    0    0 -0.12092015297E+02 -0.95864191296E+01 -0.54275647764E+01  0.16357711494E+02  0.51100000000E-03 0. -1.
        -11    1    3    3    0    0 -0.17586704419E+02 -0.14512862769E+02 -0.13207688313E+02  0.26350680996E+02  0.51100000000E-03 0.  1.
        -12    1    3    3    0    0 -0.34084075507E+01 -0.32770673172E+00  0.25924284036E+00  0.34339249532E+01  0.00000000000E+00 0.  1.
</event>
<event>
 7    1  0.2001181E-008  0.4614232E+02  0.7816164E-02  0.1320468E+00
        -11   -1    0    0    0    0  0.00000000000E+00  0.00000000000E+00  0.45593999997E+02  0.45594000000E+02  0.51100000000E-03 0. -1.
         11   -1    0    0    0    0 -0.00000000000E+00 -0.00000000000E+00 -0.45593999997E+02  0.45594000000E+02  0.51100000000E-03 0.  1.
    9900012    2    1    2    0    0 -0.19828541234E+02 -0.15277454867E+02  0.37450524767E+02  0.46142317854E+02  0.10000000845E+02 0.  0.
        -12    1    1    2    0    0  0.19828541234E+02  0.15277454867E+02 -0.37450524767E+02  0.45045682146E+02  0.00000000000E+00 0.  1.
         11    1    3    3    0    0  0.76776814103E+00 -0.19686137853E+01  0.34397708700E+01  0.40369458819E+01  0.51100000000E-03 0. -1.
        -11    1    3    3    0    0 -0.34113723404E+01 -0.36725211649E+01  0.54093867535E+01  0.73747093680E+01  0.51100000000E-03 0.  1.
         12    1    3    3    0    0 -0.17184937035E+02 -0.96363199173E+01  0.28601367143E+02  0.34730662604E+02  0.00000000000E+00 0. -1.
</event>
<event>
 7    1  0.2001181E-008  0.4614232E+02  0.7816164E-02  0.1320468E+00
        -11   -1    0    0    0    0  0.00000000000E+00  0.00000000000E+00  0.45593999997E+02  0.45594000000E+02  0.51100000000E-03 0.  1.
         11   -1    0    0    0    0 -0.00000000000E+00 -0.00000000000E+00 -0.45593999997E+02  0.45594000000E+02  0.51100000000E-03 0. -1.
    9900012    2    1    2    0    0  0.31073952437E+02  0.19991778693E+02 -0.25765321390E+02  0.46142317391E+02  0.99999966256E+01 0.  0.
        -12    1    1    2    0    0 -0.31073952437E+02 -0.19991778693E+02  0.25765321390E+02  0.45045682609E+02  0.00000000000E+00 0.  1.
         11    1    3    3    0    0  0.98685761842E+01  0.41670359308E+01 -0.72243367535E+01  0.12920682108E+02  0.51100000000E-03 0. -1.
        -11    1    3    3    0    0  0.42272624312E+01  0.54880334128E+01 -0.84595276320E+01  0.10933977612E+02  0.51100000000E-03 0.  1.
        -12    1    3    3    0    0  0.16978113822E+02  0.10336709350E+02 -0.10081457004E+02  0.22287657671E+02  0.00000000000E+00 0.  1.
</event>
<event>
 7    1  0.2001181E-008  0.4614232E+02  0.7816164E-02  0.1320468E+00
        -11   -1    0    0    0    0  0.00000000000E+00  0.00000000000E+00  0.45593999997E+02  0.45594000000E+02  0.51100000000E-03 0. -1.
         11   -1    0    0    0    0 -0.00000000000E+00 -0.00000000000E+00 -0.45593999997E+02  0.45594000000E+02  0.51100000000E-03 0.  1.
    9900012    2    1    2    0    0 -0.21217020721E+02  0.22803573991E+02  0.32541489673E+02  0.46142317575E+02  0.99999983003E+01 0.  0.
        -12    1    1    2    0    0  0.21217020721E+02 -0.22803573991E+02 -0.32541489673E+02  0.45045682425E+02  0.00000000000E+00 0.  1.
         11    1    3    3    0    0 -0.11709770043E+01  0.22292529255E+01  0.17312020000E+00  0.25240298364E+01  0.51100000000E-03 0. -1.
        -11    1    3    3    0    0 -0.28529910358E+01  0.25428612163E+01  0.19237234899E+01  0.42785994604E+01  0.51100000000E-03 0.  1.
         12    1    3    3    0    0 -0.17193052681E+02  0.18031459849E+02  0.30444645983E+02  0.39339688278E+02  0.00000000000E+00 0. -1.
</event>
<event>
 7    1  0.2001181E-008  0.4614232E+02  0.7816164E-02  0.1320468E+00
        -11   -1    0    0    0    0  0.00000000000E+00  0.00000000000E+00  0.45593999997E+02  0.45594000000E+02  0.51100000000E-03 0. -1.
         11   -1    0    0    0    0 -0.00000000000E+00 -0.00000000000E+00 -0.45593999997E+02  0.45594000000E+02  0.51100000000E-03 0.  1.
    9900012    2    1    2    0    0 -0.17901891816E+02 -0.36680885803E+02  0.19056451896E+02  0.46142317935E+02  0.10000001581E+02 0.  0.
        -12    1    1    2    0    0  0.17901891816E+02  0.36680885803E+02 -0.19056451896E+02  0.45045682065E+02  0.00000000000E+00 0.  1.
         11    1    3    3    0    0 -0.47219184990E+01 -0.12016671618E+02  0.56131746876E+01  0.14078517018E+02  0.51100000000E-03 0. -1.
        -11    1    3    3    0    0 -0.13503091443E+02 -0.18571455950E+02  0.98687182302E+01  0.24992479956E+02  0.51100000000E-03 0.  1.
        -12    1    3    3    0    0  0.32311812584E+00 -0.60927582352E+01  0.35745589777E+01  0.70713209601E+01  0.00000000000E+00 0.  1.
</event>
<event>
 7    1  0.2001181E-008  0.4614232E+02  0.7816164E-02  0.1320468E+00
        -11   -1    0    0    0    0  0.00000000000E+00  0.00000000000E+00  0.45593999997E+02  0.45594000000E+02  0.51100000000E-03 0.  1.
         11   -1    0    0    0    0 -0.00000000000E+00 -0.00000000000E+00 -0.45593999997E+02  0.45594000000E+02  0.51100000000E-03 0. -1.
    9900012    2    1    2    0    0  0.40942789721E+02  0.15770804008E+01 -0.18716675650E+02  0.46142321404E+02  0.10000033222E+02 0.  0.
        -12    1    1    2    0    0 -0.40942789721E+02 -0.15770804008E+01  0.18716675650E+02  0.45045678596E+02  0.00000000000E+00 0.  1.
         11    1    3    3    0    0  0.30873598735E+02  0.17575209891E+00 -0.11494058683E+02  0.32944246431E+02  0.51100000000E-03 0. -1.
        -11    1    3    3    0    0  0.64173791402E+01 -0.11016598278E+01 -0.51894597488E+01  0.83262778088E+01  0.51100000000E-03 0.  1.
        -12    1    3    3    0    0  0.36518118463E+01  0.25029881296E+01 -0.20331572181E+01  0.48717971644E+01  0.00000000000E+00 0.  1.
</event>
<event>
 7    1  0.2001181E-008  0.4614232E+02  0.7816164E-02  0.1320468E+00
        -11   -1    0    0    0    0  0.00000000000E+00  0.00000000000E+00  0.45593999997E+02  0.45594000000E+02  0.51100000000E-03 0.  1.
         11   -1    0    0    0    0 -0.00000000000E+00 -0.00000000000E+00 -0.45593999997E+02  0.45594000000E+02  0.51100000000E-03 0. -1.
    9900012    2    1    2    0    0  0.37435983849E+02  0.23887110948E+02 -0.75542371143E+01  0.46142318137E+02  0.10000003426E+02 0.  0.
        -12    1    1    2    0    0 -0.37435983849E+02 -0.23887110948E+02  0.75542371143E+01  0.45045681863E+02  0.00000000000E+00 0.  1.
         11    1    3    3    0    0  0.13475148201E+02  0.88100907643E+01 -0.46543530371E+01  0.16758887814E+02  0.51100000000E-03 0. -1.
        -11    1    3    3    0    0  0.20049601763E+02  0.13533143724E+02  0.14819126126E+00  0.24189966326E+02  0.51100000000E-03 0.  1.
         12    1    3    3    0    0  0.39112338850E+01  0.15438764591E+01 -0.30480753385E+01  0.51934639975E+01  0.00000000000E+00 0. -1.
</event>
<event>
 7    1  0.2001181E-008  0.4614232E+02  0.7816164E-02  0.1320468E+00
        -11   -1    0    0    0    0  0.00000000000E+00  0.00000000000E+00  0.45593999997E+02  0.45594000000E+02  0.51100000000E-03 0.  1.
         11   -1    0    0    0    0 -0.00000000000E+00 -0.00000000000E+00 -0.45593999997E+02  0.45594000000E+02  0.51100000000E-03 0. -1.
    9900012    2    1    2    0    0  0.53080809667E+01 -0.13987787897E+01 -0.44709967231E+02  0.46142317905E+02  0.10000001311E+02 0.  0.
        -12    1    1    2    0    0 -0.53080809667E+01  0.13987787897E+01  0.44709967231E+02  0.45045682095E+02  0.00000000000E+00 0.  1.
         11    1    3    3    0    0  0.59934066743E+01 -0.42616474162E+00 -0.12793179245E+02  0.14133929935E+02  0.51100000000E-03 0. -1.
        -11    1    3    3    0    0  0.58754841759E+00 -0.93908513488E+00 -0.12037461036E+02  0.12088323395E+02  0.51100000000E-03 0.  1.
        -12    1    3    3    0    0 -0.12728741252E+01 -0.33528913231E-01 -0.19879326949E+02  0.19920064575E+02  0.00000000000E+00 0.  1.
</event>
<event>
 7    1  0.2001181E-008  0.4614232E+02  0.7816164E-02  0.1320468E+00
        -11   -1    0    0    0    0  0.00000000000E+00  0.00000000000E+00  0.45593999997E+02  0.45594000000E+02  0.51100000000E-03 0. -1.
         11   -1    0    0    0    0 -0.00000000000E+00 -0.00000000000E+00 -0.45593999997E+02  0.45594000000E+02  0.51100000000E-03 0.  1.
    9900012    2    1    2    0    0  0.21534411827E+01 -0.21547047863E+02  0.39499378648E+02  0.46142317697E+02  0.99999994171E+01 0.  0.
        -12    1    1    2    0    0 -0.21534411827E+01  0.21547047863E+02 -0.39499378648E+02  0.45045682303E+02  0.00000000000E+00 0.  1.
         11    1    3    3    0    0  0.24252881550E+01 -0.18448638134E+02  0.29436443082E+02  0.34824394513E+02  0.51100000000E-03 0. -1.
        -11    1    3    3    0    0  0.15064399065E-01 -0.38082708080E+01  0.97907533922E+01  0.10505332252E+02  0.51100000000E-03 0.  1.
        -12    1    3    3    0    0 -0.28691137137E+00  0.70986107914E+00  0.27218217449E+00  0.81259093203E+00  0.00000000000E+00 0.  1.
</event>
<event>
 7    1  0.2001181E-008  0.4614232E+02  0.7816164E-02  0.1320468E+00
        -11   -1    0    0    0    0  0.00000000000E+00  0.00000000000E+00  0.45593999997E+02  0.45594000000E+02  0.51100000000E-03 0.  1.
         11   -1    0    0    0    0 -0.00000000000E+00 -0.00000000000E+00 -0.45593999997E+02  0.45594000000E+02  0.51100000000E-03 0. -1.
    9900012    2    1    2    0    0 -0.58719250181E+01  0.27867086198E+02 -0.34900709426E+02  0.46142317465E+02  0.99999972976E+01 0.  0.
        -12    1    1    2    0    0  0.58719250181E+01 -0.27867086198E+02  0.34900709426E+02  0.45045682535E+02  0.00000000000E+00 0.  1.
         11    1    3    3    0    0  0.99057865944E+00  0.20626732176E+01 -0.70816835087E+00  0.23952806845E+01  0.51100000000E-03 0. -1.
        -11    1    3    3    0    0 -0.67138026960E+01  0.16492825616E+02 -0.20075394246E+02  0.26834863477E+02  0.51100000000E-03 0.  1.
         12    1    3    3    0    0 -0.14870098147E+00  0.93115873651E+01 -0.14117146829E+02  0.16912173303E+02  0.00000000000E+00 0. -1.
</event>
<event>
 7    1  0.2001181E-008  0.4614232E+02  0.7816164E-02  0.1320468E+00
        -11   -1    0    0    0    0  0.00000000000E+00  0.00000000000E+00  0.45593999997E+02  0.45594000000E+02  0.51100000000E-03 0.  1.
         11   -1    0    0    0    0 -0.00000000000E+00 -0.00000000000E+00 -0.45593999997E+02  0.45594000000E+02  0.51100000000E-03 0. -1.
    9900012    2    1    2    0    0  0.58733976713E+01  0.20747255390E+02 -0.39549566320E+02  0.46142316494E+02  0.99999884449E+01 0.  0.
        -12    1    1    2    0    0 -0.58733976713E+01 -0.20747255390E+02  0.39549566320E+02  0.45045683506E+02  0.00000000000E+00 0.  1.
         11    1    3    3    0    0  0.60965407375E+01  0.10007817386E+02 -0.21739983153E+02  0.24697187807E+02  0.51100000000E-03 0. -1.
        -11    1    3    3    0    0  0.79570581199E+00  0.22946108471E+00 -0.11040632091E+00  0.83545792560E+00  0.51100000000E-03 0.  1.
        -12    1    3    3    0    0 -0.10188488782E+01  0.10509976919E+02 -0.17699176846E+02  0.20609670762E+02  0.00000000000E+00 0.  1.
</event>
<event>
 7    1  0.2001181E-008  0.4614232E+02  0.7816164E-02  0.1320468E+00
        -11   -1    0    0    0    0  0.00000000000E+00  0.00000000000E+00  0.45593999997E+02  0.45594000000E+02  0.51100000000E-03 0. -1.
         11   -1    0    0    0    0 -0.00000000000E+00 -0.00000000000E+00 -0.45593999997E+02  0.45594000000E+02  0.51100000000E-03 0.  1.
    9900012    2    1    2    0    0 -0.31562865422E+02  0.30472591982E+02  0.10213729986E+02  0.46142316345E+02  0.99999870900E+01 0.  0.
        -12    1    1    2    0    0  0.31562865422E+02 -0.30472591982E+02 -0.10213729986E+02  0.45045683655E+02  0.00000000000E+00 0.  1.
         11    1    3    3    0    0 -0.24779222446E+02  0.22488750036E+02  0.70482306533E+01  0.34196948677E+02  0.51100000000E-03 0. -1.
        -11    1    3    3    0    0 -0.57384366374E+01  0.65425144807E+01  0.47034522061E+00  0.87152381298E+01  0.51100000000E-03 0.  1.
        -12    1    3    3    0    0 -0.10452063382E+01  0.14413274653E+01  0.26951541118E+01  0.32301295389E+01  0.00000000000E+00 0.  1.
</event>
<event>
 7    1  0.2001181E-008  0.4614232E+02  0.7816164E-02  0.1320468E+00
        -11   -1    0    0    0    0  0.00000000000E+00  0.00000000000E+00  0.45593999997E+02  0.45594000000E+02  0.51100000000E-03 0.  1.
         11   -1    0    0    0    0 -0.00000000000E+00 -0.00000000000E+00 -0.45593999997E+02  0.45594000000E+02  0.51100000000E-03 0. -1.
    9900012    2    1    2    0    0 -0.35798958733E+02 -0.17158893843E+02 -0.21286625675E+02  0.46142317445E+02  0.99999971161E+01 0.  0.
        -12    1    1    2    0    0  0.35798958733E+02  0.17158893843E+02  0.21286625675E+02  0.45045682555E+02  0.00000000000E+00 0.  1.
         11    1    3    3    0    0 -0.55686379099E+01 -0.34364491786E+00 -0.35608300611E+01  0.66187106740E+01  0.51100000000E-03 0. -1.
        -11    1    3    3    0    0 -0.59968625717E+01 -0.63462607301E+01 -0.62566021374E+01  0.10741622621E+02  0.51100000000E-03 0.  1.
         12    1    3    3    0    0 -0.24233458251E+02 -0.10468988195E+02 -0.11469193476E+02  0.28781984150E+02  0.00000000000E+00 0. -1.
</event>
<event>
 7    1  0.2001181E-008  0.4614232E+02  0.7816164E-02  0.1320468E+00
        -11   -1    0    0    0    0  0.00000000000E+00  0.00000000000E+00  0.45593999997E+02  0.45594000000E+02  0.51100000000E-03 0.  1.
         11   -1    0    0    0    0 -0.00000000000E+00 -0.00000000000E+00 -0.45593999997E+02  0.45594000000E+02  0.51100000000E-03 0. -1.
    9900012    2    1    2    0    0 -0.23686480460E+02  0.34445766947E+02 -0.16779547459E+02  0.46142318408E+02  0.10000005896E+02 0.  0.
        -12    1    1    2    0    0  0.23686480460E+02 -0.34445766947E+02  0.16779547459E+02  0.45045681592E+02  0.00000000000E+00 0.  1.
         11    1    3    3    0    0 -0.60781786449E+01  0.16986786352E+02 -0.61425648348E+01  0.19058495985E+02  0.51100000000E-03 0. -1.
        -11    1    3    3    0    0 -0.41373637910E+01  0.29409949321E+01 -0.26798888520E+01  0.57401249856E+01  0.51100000000E-03 0.  1.
        -12    1    3    3    0    0 -0.13470938024E+02  0.14517985663E+02 -0.79570937725E+01  0.21343697437E+02  0.00000000000E+00 0.  1.
</event>
<event>
 7    1  0.2001181E-008  0.4614232E+02  0.7816164E-02  0.1320468E+00
        -11   -1    0    0    0    0  0.00000000000E+00  0.00000000000E+00  0.45593999997E+02  0.45594000000E+02  0.51100000000E-03 0. -1.
         11   -1    0    0    0    0 -0.00000000000E+00 -0.00000000000E+00 -0.45593999997E+02  0.45594000000E+02  0.51100000000E-03 0.  1.
    9900012    2    1    2    0    0 -0.12455073865E+02 -0.61940717348E+00  0.43285112608E+02  0.46142317591E+02  0.99999984464E+01 0.  0.
        -12    1    1    2    0    0  0.12455073865E+02  0.61940717348E+00 -0.43285112608E+02  0.45045682409E+02  0.00000000000E+00 0.  1.
         11    1    3    3    0    0 -0.61690883136E+01  0.18874440267E+01  0.84972356014E+01  0.10668791342E+02  0.51100000000E-03 0. -1.
        -11    1    3    3    0    0 -0.12671041714E+01 -0.10581062850E+01  0.10620481339E+02  0.10748012190E+02  0.51100000000E-03 0.  1.
         12    1    3    3    0    0 -0.50188813802E+01 -0.14487449151E+01  0.24167395668E+02  0.24725514059E+02  0.00000000000E+00 0. -1.
</event>
<event>
 7    1  0.2001181E-008  0.4614232E+02  0.7816164E-02  0.1320468E+00
        -11   -1    0    0    0    0  0.00000000000E+00  0.00000000000E+00  0.45593999997E+02  0.45594000000E+02  0.51100000000E-03 0.  1.
         11   -1    0    0    0    0 -0.00000000000E+00 -0.00000000000E+00 -0.45593999997E+02  0.45594000000E+02  0.51100000000E-03 0. -1.
    9900012    2    1    2    0    0  0.57857397968E+01 -0.21818458380E+01 -0.44619259520E+02  0.46142317007E+02  0.99999931199E+01 0.  0.
        -12    1    1    2    0    0 -0.57857397968E+01  0.21818458380E+01  0.44619259520E+02  0.45045682993E+02  0.00000000000E+00 0.  1.
         11    1    3    3    0    0  0.15657578980E+01 -0.28351441483E+01 -0.17053657265E+02  0.17358481112E+02  0.51100000000E-03 0. -1.
        -11    1    3    3    0    0  0.31404366357E+01  0.23670068821E+01 -0.25796741925E+02  0.26094768787E+02  0.51100000000E-03 0.  1.
        -12    1    3    3    0    0  0.10795452632E+01 -0.17137085719E+01 -0.17688603299E+01  0.26890671080E+01  0.00000000000E+00 0.  1.
</event>
<event>
 7    1  0.2001181E-008  0.4614232E+02  0.7816164E-02  0.1320468E+00
        -11   -1    0    0    0    0  0.00000000000E+00  0.00000000000E+00  0.45593999997E+02  0.45594000000E+02  0.51100000000E-03 0. -1.
         11   -1    0    0    0    0 -0.00000000000E+00 -0.00000000000E+00 -0.45593999997E+02  0.45594000000E+02  0.51100000000E-03 0.  1.
    9900012    2    1    2    0    0 -0.27903593457E+02  0.30964063038E+01  0.35226627050E+02  0.46142317487E+02  0.99999974960E+01 0.  0.
        -12    1    1    2    0    0  0.27903593457E+02 -0.30964063038E+01 -0.35226627050E+02  0.45045682513E+02  0.00000000000E+00 0.  1.
         11    1    3    3    0    0 -0.13551679194E+02  0.28407794700E+01  0.20891479343E+02  0.25063358641E+02  0.51100000000E-03 0. -1.
        -11    1    3    3    0    0 -0.14716029721E+01 -0.18452222686E+01  0.27926132463E+01  0.36563847626E+01  0.51100000000E-03 0.  1.
        -12    1    3    3    0    0 -0.12880311291E+02  0.21008491024E+01  0.11542534461E+02  0.17422574083E+02  0.00000000000E+00 0.  1.
</event>
<event>
 7    1  0.2001181E-008  0.4614232E+02  0.7816164E-02  0.1320468E+00
        -11   -1    0    0    0    0  0.00000000000E+00  0.00000000000E+00  0.45593999997E+02  0.45594000000E+02  0.51100000000E-03 0.  1.
         11   -1    0    0    0    0 -0.00000000000E+00 -0.00000000000E+00 -0.45593999997E+02  0.45594000000E+02  0.51100000000E-03 0. -1.
    9900012    2    1    2    0    0  0.16537359607E+02  0.36464705785E+02 -0.20638666079E+02  0.46142316874E+02  0.99999919127E+01 0.  0.
        -12    1    1    2    0    0 -0.16537359607E+02 -0.36464705785E+02  0.20638666079E+02  0.45045683126E+02  0.00000000000E+00 0.  1.
         11    1    3    3    0    0  0.13651019271E+01  0.22861914508E+01 -0.61090467806E+00  0.27319186313E+01  0.51100000000E-03 0.  1.
        -11    1    3    3    0    0  0.15204972718E+02  0.24673450110E+02 -0.15774714865E+02  0.32997150862E+02  0.51100000000E-03 0. -1.
         12    1    3    3    0    0 -0.32715037987E-01  0.95050642244E+01 -0.42530465356E+01  0.10413247381E+02  0.00000000000E+00 0. -1.
</event>
<event>
 7    1  0.2001181E-008  0.4614233E+02  0.7816164E-02  0.1320468E+00
        -11   -1    0    0    0    0  0.00000000000E+00  0.00000000000E+00  0.45593999997E+02  0.45594000000E+02  0.51100000000E-03 0. -1.
         11   -1    0    0    0    0 -0.00000000000E+00 -0.00000000000E+00 -0.45593999997E+02  0.45594000000E+02  0.51100000000E-03 0.  1.
    9900012    2    1    2    0    0 -0.21687823525E+02 -0.20113617459E+02  0.33973420921E+02  0.46142327337E+02  0.10000087320E+02 0.  0.
        -12    1    1    2    0    0  0.21687823525E+02  0.20113617459E+02 -0.33973420921E+02  0.45045672663E+02  0.00000000000E+00 0.  1.
         11    1    3    3    0    0 -0.98570064209E+00 -0.23201419249E+00  0.84037852718E-01  0.10161195614E+01  0.51100000000E-03 0. -1.
        -11    1    3    3    0    0 -0.76485438945E+01 -0.25445733333E+01  0.82264334528E+01  0.11517347124E+02  0.51100000000E-03 0.  1.
         12    1    3    3    0    0 -0.13053578989E+02 -0.17337029934E+02  0.25662949616E+02  0.33608860652E+02  0.00000000000E+00 0. -1.
</event>
<event>
 7    1  0.2001181E-008  0.4614232E+02  0.7816164E-02  0.1320468E+00
        -11   -1    0    0    0    0  0.00000000000E+00  0.00000000000E+00  0.45593999997E+02  0.45594000000E+02  0.51100000000E-03 0.  1.
         11   -1    0    0    0    0 -0.00000000000E+00 -0.00000000000E+00 -0.45593999997E+02  0.45594000000E+02  0.51100000000E-03 0. -1.
    9900012    2    1    2    0    0 -0.43511408541E+02 -0.97200763788E+01 -0.64335761873E+01  0.46142318069E+02  0.10000002811E+02 0.  0.
        -12    1    1    2    0    0  0.43511408541E+02  0.97200763788E+01  0.64335761873E+01  0.45045681931E+02  0.00000000000E+00 0.  1.
         11    1    3    3    0    0 -0.24299680126E+02 -0.62710386905E+01 -0.42604107494E+01  0.25454891092E+02  0.51100000000E-03 0. -1.
        -11    1    3    3    0    0 -0.15749857579E+02 -0.22215523363E+01  0.85258877953E+00  0.15928597441E+02  0.51100000000E-03 0.  1.
         12    1    3    3    0    0 -0.34618708357E+01 -0.12274853520E+01 -0.30257542174E+01  0.47588295364E+01  0.00000000000E+00 0. -1.
</event>
<event>
 7    1  0.2001181E-008  0.4614232E+02  0.7816164E-02  0.1320468E+00
        -11   -1    0    0    0    0  0.00000000000E+00  0.00000000000E+00  0.45593999997E+02  0.45594000000E+02  0.51100000000E-03 0.  1.
         11   -1    0    0    0    0 -0.00000000000E+00 -0.00000000000E+00 -0.45593999997E+02  0.45594000000E+02  0.51100000000E-03 0. -1.
    9900012    2    1    2    0    0 -0.24606846927E+02 -0.25532532047E+02 -0.27779603185E+02  0.46142318059E+02  0.10000002716E+02 0.  0.
        -12    1    1    2    0    0  0.24606846927E+02  0.25532532047E+02  0.27779603185E+02  0.45045681941E+02  0.00000000000E+00 0.  1.
         11    1    3    3    0    0 -0.18469854204E+02 -0.17986337444E+02 -0.18752886528E+02  0.31879689495E+02  0.51100000000E-03 0. -1.
        -11    1    3    3    0    0 -0.20321322498E+01 -0.44609349928E+01 -0.14540564990E+01  0.51130991633E+01  0.51100000000E-03 0.  1.
        -12    1    3    3    0    0 -0.41048604738E+01 -0.30852596105E+01 -0.75726601582E+01  0.91495294002E+01  0.00000000000E+00 0.  1.
</event>
<event>
 7    1  0.2001181E-008  0.4614232E+02  0.7816164E-02  0.1320468E+00
        -11   -1    0    0    0    0  0.00000000000E+00  0.00000000000E+00  0.45593999997E+02  0.45594000000E+02  0.51100000000E-03 0.  1.
         11   -1    0    0    0    0 -0.00000000000E+00 -0.00000000000E+00 -0.45593999997E+02  0.45594000000E+02  0.51100000000E-03 0. -1.
    9900012    2    1    2    0    0 -0.11840997941E+02 -0.29662668484E+00 -0.43460513110E+02  0.46142318527E+02  0.10000006980E+02 0.  0.
        -12    1    1    2    0    0  0.11840997941E+02  0.29662668484E+00  0.43460513110E+02  0.45045681473E+02  0.00000000000E+00 0.  1.
         11    1    3    3    0    0 -0.20992482192E+01  0.34666679319E+01 -0.13496822028E+02  0.14092155079E+02  0.51100000000E-03 0. -1.
        -11    1    3    3    0    0 -0.17709916282E+01 -0.26117957294E+01 -0.61640298574E+01  0.69248214868E+01  0.51100000000E-03 0.  1.
         12    1    3    3    0    0 -0.79707580933E+01 -0.11514988874E+01 -0.23799661224E+02  0.25125341961E+02  0.00000000000E+00 0. -1.
</event>
<event>
 7    1  0.2001181E-008  0.4614232E+02  0.7816164E-02  0.1320468E+00
        -11   -1    0    0    0    0  0.00000000000E+00  0.00000000000E+00  0.45593999997E+02  0.45594000000E+02  0.51100000000E-03 0.  1.
         11   -1    0    0    0    0 -0.00000000000E+00 -0.00000000000E+00 -0.45593999997E+02  0.45594000000E+02  0.51100000000E-03 0. -1.
    9900012    2    1    2    0    0  0.30918783414E+02 -0.12368112757E+02 -0.30334338201E+02  0.46142318131E+02  0.10000003370E+02 0.  0.
        -12    1    1    2    0    0 -0.30918783414E+02  0.12368112757E+02  0.30334338201E+02  0.45045681869E+02  0.00000000000E+00 0.  1.
         11    1    3    3    0    0  0.17969695964E+02 -0.26000559681E+01 -0.14026090968E+02  0.22943441158E+02  0.51100000000E-03 0. -1.
        -11    1    3    3    0    0  0.85261850424E+01 -0.49515067673E+01 -0.11037163967E+02  0.14799737813E+02  0.51100000000E-03 0.  1.
        -12    1    3    3    0    0  0.44229024077E+01 -0.48165500219E+01 -0.52710832655E+01  0.83991391590E+01  0.00000000000E+00 0.  1.
</event>
<event>
 7    1  0.2001181E-008  0.4614232E+02  0.7816164E-02  0.1320468E+00
        -11   -1    0    0    0    0  0.00000000000E+00  0.00000000000E+00  0.45593999997E+02  0.45594000000E+02  0.51100000000E-03 0. -1.
         11   -1    0    0    0    0 -0.00000000000E+00 -0.00000000000E+00 -0.45593999997E+02  0.45594000000E+02  0.51100000000E-03 0.  1.
    9900012    2    1    2    0    0  0.28153858596E+02  0.33864973337E+02  0.94677035339E+01  0.46142316709E+02  0.99999904059E+01 0.  0.
        -12    1    1    2    0    0 -0.28153858596E+02 -0.33864973337E+02 -0.94677035339E+01  0.45045683291E+02  0.00000000000E+00 0.  1.
         11    1    3    3    0    0  0.65603604875E+01  0.86764492082E+01 -0.61464930116E+00  0.10894810444E+02  0.51100000000E-03 0. -1.
        -11    1    3    3    0    0  0.65095486524E+01  0.74583590414E+01  0.61080614119E+01  0.11632272251E+02  0.51100000000E-03 0.  1.
        -12    1    3    3    0    0  0.15083949456E+02  0.17730165087E+02  0.39742914232E+01  0.23615234014E+02  0.00000000000E+00 0.  1.
</event>
<event>
 7    1  0.2001181E-008  0.4614232E+02  0.7816164E-02  0.1320468E+00
        -11   -1    0    0    0    0  0.00000000000E+00  0.00000000000E+00  0.45593999997E+02  0.45594000000E+02  0.51100000000E-03 0.  1.
         11   -1    0    0    0    0 -0.00000000000E+00 -0.00000000000E+00 -0.45593999997E+02  0.45594000000E+02  0.51100000000E-03 0. -1.
    9900012    2    1    2    0    0  0.22569191822E+02  0.17161394444E+02 -0.35003308263E+02  0.46142317986E+02  0.10000002048E+02 0.  0.
        -12    1    1    2    0    0 -0.22569191822E+02 -0.17161394444E+02  0.35003308263E+02  0.45045682014E+02  0.00000000000E+00 0.  1.
         11    1    3    3    0    0  0.15980439484E+01  0.25781531916E+00 -0.15251126038E+01  0.22240013298E+01  0.51100000000E-03 0. -1.
        -11    1    3    3    0    0  0.49775721917E+00 -0.98461150156E+00 -0.60155995666E+00  0.12566211445E+01  0.51100000000E-03 0.  1.
        -12    1    3    3    0    0  0.20473390655E+02  0.17888190626E+02 -0.32876635703E+02  0.42661695511E+02  0.00000000000E+00 0.  1.
</event>
<event>
 7    1  0.2001181E-008  0.4614232E+02  0.7816164E-02  0.1320468E+00
        -11   -1    0    0    0    0  0.00000000000E+00  0.00000000000E+00  0.45593999997E+02  0.45594000000E+02  0.51100000000E-03 0.  1.
         11   -1    0    0    0    0 -0.00000000000E+00 -0.00000000000E+00 -0.45593999997E+02  0.45594000000E+02  0.51100000000E-03 0. -1.
    9900012    2    1    2    0    0  0.10828898149E+02  0.88344670358E+01 -0.42822899902E+02  0.46142316534E+02  0.99999888115E+01 0.  0.
        -12    1    1    2    0    0 -0.10828898149E+02 -0.88344670358E+01  0.42822899902E+02  0.45045683466E+02  0.00000000000E+00 0.  1.
         11    1    3    3    0    0  0.13421327165E+01  0.24532353240E+01 -0.23583482415E+02  0.23748691055E+02  0.51100000000E-03 0. -1.
        -11    1    3    3    0    0  0.32597711687E+01  0.21437358772E+01 -0.72926310427E+01  0.82706819168E+01  0.51100000000E-03 0.  1.
         12    1    3    3    0    0  0.62269942635E+01  0.42374958346E+01 -0.11946786444E+02  0.14122943562E+02  0.00000000000E+00 0. -1.
</event>
<event>
 7    1  0.2001181E-008  0.4614232E+02  0.7816164E-02  0.1320468E+00
        -11   -1    0    0    0    0  0.00000000000E+00  0.00000000000E+00  0.45593999997E+02  0.45594000000E+02  0.51100000000E-03 0.  1.
         11   -1    0    0    0    0 -0.00000000000E+00 -0.00000000000E+00 -0.45593999997E+02  0.45594000000E+02  0.51100000000E-03 0. -1.
    9900012    2    1    2    0    0  0.35335788758E+02  0.85991547501E+01 -0.26581008828E+02  0.46142318078E+02  0.10000002888E+02 0.  0.
        -12    1    1    2    0    0 -0.35335788758E+02 -0.85991547501E+01  0.26581008828E+02  0.45045681922E+02  0.00000000000E+00 0.  1.
         11    1    3    3    0    0  0.28701416972E+02  0.82763660808E+01 -0.22605575096E+02  0.37460400391E+02  0.51100000000E-03 0. -1.
        -11    1    3    3    0    0  0.24162927890E+01  0.17988717353E+01 -0.26724111384E+01  0.40269333141E+01  0.51100000000E-03 0.  1.
        -12    1    3    3    0    0  0.42180789963E+01 -0.14760830661E+01 -0.13030225929E+01  0.46549843732E+01  0.00000000000E+00 0.  1.
</event>
<event>
 7    1  0.2001181E-008  0.4614232E+02  0.7816164E-02  0.1320468E+00
        -11   -1    0    0    0    0  0.00000000000E+00  0.00000000000E+00  0.45593999997E+02  0.45594000000E+02  0.51100000000E-03 0.  1.
         11   -1    0    0    0    0 -0.00000000000E+00 -0.00000000000E+00 -0.45593999997E+02  0.45594000000E+02  0.51100000000E-03 0. -1.
    9900012    2    1    2    0    0 -0.34676762906E+01 -0.33944023978E+02 -0.29409044714E+02  0.46142318146E+02  0.10000003510E+02 0.  0.
        -12    1    1    2    0    0  0.34676762906E+01  0.33944023978E+02  0.29409044714E+02  0.45045681854E+02  0.00000000000E+00 0.  1.
         11    1    3    3    0    0 -0.18543956101E+01 -0.10514726577E+01 -0.14800088478E+01  0.25951501458E+01  0.51100000000E-03 0. -1.
        -11    1    3    3    0    0 -0.30732787421E+00  0.15031270930E+00 -0.25880330020E+00  0.42897988549E+00  0.51100000000E-03 0.  1.
         12    1    3    3    0    0 -0.13059528063E+01 -0.33042864030E+02 -0.27670232566E+02  0.43118188115E+02  0.00000000000E+00 0. -1.
</event>
<event>
 7    1  0.2001181E-008  0.4614231E+02  0.7816164E-02  0.1320468E+00
        -11   -1    0    0    0    0  0.00000000000E+00  0.00000000000E+00  0.45593999997E+02  0.45594000000E+02  0.51100000000E-03 0.  1.
         11   -1    0    0    0    0 -0.00000000000E+00 -0.00000000000E+00 -0.45593999997E+02  0.45594000000E+02  0.51100000000E-03 0. -1.
    9900012    2    1    2    0    0  0.68599577592E+01 -0.25962838830E+02 -0.36166087891E+02  0.46142312816E+02  0.99999549059E+01 0.  0.
        -12    1    1    2    0    0 -0.68599577592E+01  0.25962838830E+02  0.36166087891E+02  0.45045687184E+02  0.00000000000E+00 0.  1.
         11    1    3    3    0    0  0.45897034239E+01 -0.18436101015E+02 -0.23216656231E+02  0.29999472078E+02  0.51100000000E-03 0. -1.
        -11    1    3    3    0    0  0.85533877909E+00  0.45729213550E+00 -0.13603263558E+00  0.97940066534E+00  0.51100000000E-03 0.  1.
        -12    1    3    3    0    0  0.14149155562E+01 -0.79840299500E+01 -0.12813399024E+02  0.15163440072E+02  0.00000000000E+00 0.  1.
</event>
<event>
 7    1  0.2001181E-008  0.4614232E+02  0.7816164E-02  0.1320468E+00
        -11   -1    0    0    0    0  0.00000000000E+00  0.00000000000E+00  0.45593999997E+02  0.45594000000E+02  0.51100000000E-03 0. -1.
         11   -1    0    0    0    0 -0.00000000000E+00 -0.00000000000E+00 -0.45593999997E+02  0.45594000000E+02  0.51100000000E-03 0.  1.
    9900012    2    1    2    0    0  0.55280941602E+01  0.44104455248E+02  0.73041456656E+01  0.46142319389E+02  0.10000014847E+02 0.  0.
        -12    1    1    2    0    0 -0.55280941602E+01 -0.44104455248E+02 -0.73041456656E+01  0.45045680611E+02  0.00000000000E+00 0.  1.
         11    1    3    3    0    0  0.68489426608E+00  0.33819040412E+02  0.53556536589E+01  0.34247329837E+02  0.51100000000E-03 0. -1.
        -11    1    3    3    0    0  0.71572388565E+00  0.94567680530E+00  0.11511618910E+01  0.16527974047E+01  0.51100000000E-03 0.  1.
         12    1    3    3    0    0  0.41274760085E+01  0.93397380304E+01  0.79733011568E+00  0.10242192148E+02  0.00000000000E+00 0. -1.
</event>
<event>
 7    1  0.2001181E-008  0.4614232E+02  0.7816164E-02  0.1320468E+00
        -11   -1    0    0    0    0  0.00000000000E+00  0.00000000000E+00  0.45593999997E+02  0.45594000000E+02  0.51100000000E-03 0.  1.
         11   -1    0    0    0    0 -0.00000000000E+00 -0.00000000000E+00 -0.45593999997E+02  0.45594000000E+02  0.51100000000E-03 0. -1.
    9900012    2    1    2    0    0 -0.20319524129E+02  0.25395024934E+02 -0.31166055043E+02  0.46142319418E+02  0.10000015106E+02 0.  0.
        -12    1    1    2    0    0  0.20319524129E+02 -0.25395024934E+02  0.31166055043E+02  0.45045680582E+02  0.00000000000E+00 0.  1.
         11    1    3    3    0    0 -0.88695599986E+01  0.79011270388E+01 -0.10608278793E+02  0.15925843220E+02  0.51100000000E-03 0. -1.
        -11    1    3    3    0    0 -0.35813007285E+01  0.77086344744E+01 -0.38886999126E+01  0.93472320844E+01  0.51100000000E-03 0.  1.
        -12    1    3    3    0    0 -0.78686634016E+01  0.97852634206E+01 -0.16669076337E+02  0.20869244114E+02  0.00000000000E+00 0.  1.
</event>
<event>
 7    1  0.2001181E-008  0.4614232E+02  0.7816164E-02  0.1320468E+00
        -11   -1    0    0    0    0  0.00000000000E+00  0.00000000000E+00  0.45593999997E+02  0.45594000000E+02  0.51100000000E-03 0. -1.
         11   -1    0    0    0    0 -0.00000000000E+00 -0.00000000000E+00 -0.45593999997E+02  0.45594000000E+02  0.51100000000E-03 0.  1.
    9900012    2    1    2    0    0  0.41999126411E+02 -0.15921100095E+02 -0.34213174459E+01  0.46142318070E+02  0.10000002813E+02 0.  0.
        -12    1    1    2    0    0 -0.41999126411E+02  0.15921100095E+02  0.34213174459E+01  0.45045681930E+02  0.00000000000E+00 0.  1.
         11    1    3    3    0    0  0.23001232891E+02 -0.12673254150E+02 -0.32239049728E+01  0.26458678138E+02  0.51100000000E-03 0. -1.
        -11    1    3    3    0    0  0.85086060211E+01 -0.11641792105E+01 -0.20523635718E+01  0.88297160853E+01  0.51100000000E-03 0.  1.
         12    1    3    3    0    0  0.10489287498E+02 -0.20836667352E+01  0.18549510987E+01  0.10853923846E+02  0.00000000000E+00 0. -1.
</event>
<event>
 7    1  0.2001181E-008  0.4614232E+02  0.7816164E-02  0.1320468E+00
        -11   -1    0    0    0    0  0.00000000000E+00  0.00000000000E+00  0.45593999997E+02  0.45594000000E+02  0.51100000000E-03 0. -1.
         11   -1    0    0    0    0 -0.00000000000E+00 -0.00000000000E+00 -0.45593999997E+02  0.45594000000E+02  0.51100000000E-03 0.  1.
    9900012    2    1    2    0    0  0.20469275759E+02  0.18501269704E+02  0.35606532386E+02  0.46142318972E+02  0.10000011040E+02 0.  0.
        -12    1    1    2    0    0 -0.20469275759E+02 -0.18501269704E+02 -0.35606532386E+02  0.45045681028E+02  0.00000000000E+00 0.  1.
         11    1    3    3    0    0  0.10277539324E+02  0.76334453453E+01  0.20868730122E+02  0.24482671414E+02  0.51100000000E-03 0. -1.
        -11    1    3    3    0    0  0.91257001449E+01  0.10716302463E+02  0.14980793195E+02  0.20555819288E+02  0.51100000000E-03 0.  1.
        -12    1    3    3    0    0  0.10660362902E+01  0.15152189641E+00 -0.24299093088E+00  0.11038282700E+01  0.00000000000E+00 0.  1.
</event>
<event>
 7    1  0.2001181E-008  0.4614232E+02  0.7816164E-02  0.1320468E+00
        -11   -1    0    0    0    0  0.00000000000E+00  0.00000000000E+00  0.45593999997E+02  0.45594000000E+02  0.51100000000E-03 0.  1.
         11   -1    0    0    0    0 -0.00000000000E+00 -0.00000000000E+00 -0.45593999997E+02  0.45594000000E+02  0.51100000000E-03 0. -1.
    9900012    2    1    2    0    0  0.86103724826E+01  0.29546572624E+02 -0.32893388902E+02  0.46142317614E+02  0.99999986629E+01 0.  0.
        -12    1    1    2    0    0 -0.86103724826E+01 -0.29546572624E+02  0.32893388902E+02  0.45045682386E+02  0.00000000000E+00 0.  1.
         11    1    3    3    0    0  0.41655903818E+01  0.13746098406E+02 -0.16507126860E+02  0.21881329988E+02  0.51100000000E-03 0. -1.
        -11    1    3    3    0    0  0.54940968347E+01  0.12415545738E+02 -0.15505187281E+02  0.20609262696E+02  0.51100000000E-03 0.  1.
        -12    1    3    3    0    0 -0.10493147339E+01  0.33849284807E+01 -0.88107476017E+00  0.36517249299E+01  0.00000000000E+00 0.  1.
</event>
<event>
 7    1  0.2001181E-008  0.4614232E+02  0.7816164E-02  0.1320468E+00
        -11   -1    0    0    0    0  0.00000000000E+00  0.00000000000E+00  0.45593999997E+02  0.45594000000E+02  0.51100000000E-03 0. -1.
         11   -1    0    0    0    0 -0.00000000000E+00 -0.00000000000E+00 -0.45593999997E+02  0.45594000000E+02  0.51100000000E-03 0.  1.
    9900012    2    1    2    0    0 -0.46950809093E+01  0.32651982391E+02  0.30674380975E+02  0.46142318886E+02  0.10000010257E+02 0.  0.
        -12    1    1    2    0    0  0.46950809093E+01 -0.32651982391E+02 -0.30674380975E+02  0.45045681114E+02  0.00000000000E+00 0.  1.
         11    1    3    3    0    0 -0.41196518427E+01  0.10654349946E+02  0.61984274679E+01  0.12996430564E+02  0.51100000000E-03 0. -1.
        -11    1    3    3    0    0 -0.36290418087E+00  0.32231660369E+01  0.18134506005E+01  0.37160600221E+01  0.51100000000E-03 0.  1.
        -12    1    3    3    0    0 -0.21252488580E+00  0.18774466408E+02  0.22662502907E+02  0.29429828300E+02  0.00000000000E+00 0.  1.
</event>
<event>
 7    1  0.2001181E-008  0.4614232E+02  0.7816164E-02  0.1320468E+00
        -11   -1    0    0    0    0  0.00000000000E+00  0.00000000000E+00  0.45593999997E+02  0.45594000000E+02  0.51100000000E-03 0.  1.
         11   -1    0    0    0    0 -0.00000000000E+00 -0.00000000000E+00 -0.45593999997E+02  0.45594000000E+02  0.51100000000E-03 0. -1.
    9900012    2    1    2    0    0 -0.16029685192E+02  0.13765210379E+02 -0.39782931634E+02  0.46142317926E+02  0.10000001500E+02 0.  0.
        -12    1    1    2    0    0  0.16029685192E+02 -0.13765210379E+02  0.39782931634E+02  0.45045682074E+02  0.00000000000E+00 0.  1.
         11    1    3    3    0    0 -0.16769488478E+01  0.37437397591E+01 -0.46879079939E+01  0.62293038489E+01  0.51100000000E-03 0. -1.
        -11    1    3    3    0    0 -0.22424982218E+01  0.55701760463E+01 -0.92801998528E+01  0.11053405314E+02  0.51100000000E-03 0.  1.
         12    1    3    3    0    0 -0.12110238123E+02  0.44512945736E+01 -0.25814823787E+02  0.28859608763E+02  0.00000000000E+00 0. -1.
</event>
<event>
 7    1  0.2001181E-008  0.4614232E+02  0.7816164E-02  0.1320468E+00
        -11   -1    0    0    0    0  0.00000000000E+00  0.00000000000E+00  0.45593999997E+02  0.45594000000E+02  0.51100000000E-03 0.  1.
         11   -1    0    0    0    0 -0.00000000000E+00 -0.00000000000E+00 -0.45593999997E+02  0.45594000000E+02  0.51100000000E-03 0. -1.
    9900012    2    1    2    0    0  0.42625045267E+02 -0.14078597448E+02  0.37432593745E+01  0.46142318955E+02  0.10000010885E+02 0.  0.
        -12    1    1    2    0    0 -0.42625045267E+02  0.14078597448E+02 -0.37432593745E+01  0.45045681045E+02  0.00000000000E+00 0.  1.
         11    1    3    3    0    0  0.15983967241E+02 -0.76019773153E+01 -0.20574859819E+01  0.17818824784E+02  0.51100000000E-03 0. -1.
        -11    1    3    3    0    0  0.42123833077E+01 -0.25027824532E+01  0.16515866913E+01  0.51706703626E+01  0.51100000000E-03 0.  1.
         12    1    3    3    0    0  0.22428694718E+02 -0.39738376793E+01  0.41491586651E+01  0.23152823808E+02  0.00000000000E+00 0. -1.
</event>
<event>
 7    1  0.2001181E-008  0.4614232E+02  0.7816164E-02  0.1320468E+00
        -11   -1    0    0    0    0  0.00000000000E+00  0.00000000000E+00  0.45593999997E+02  0.45594000000E+02  0.51100000000E-03 0. -1.
         11   -1    0    0    0    0 -0.00000000000E+00 -0.00000000000E+00 -0.45593999997E+02  0.45594000000E+02  0.51100000000E-03 0.  1.
    9900012    2    1    2    0    0 -0.14685222255E+02  0.42315812612E+02 -0.47780588912E+01  0.46142316561E+02  0.99999890549E+01 0.  0.
        -12    1    1    2    0    0  0.14685222255E+02 -0.42315812612E+02  0.47780588912E+01  0.45045683439E+02  0.00000000000E+00 0.  1.
         11    1    3    3    0    0 -0.32335638322E+01  0.18306298843E+02 -0.35322582431E+01  0.18922297983E+02  0.51100000000E-03 0. -1.
        -11    1    3    3    0    0 -0.41506039804E+00  0.11460515006E+01 -0.13674639635E+01  0.18318480092E+01  0.51100000000E-03 0.  1.
        -12    1    3    3    0    0 -0.11036598025E+02  0.22863462269E+02  0.12166331533E+00  0.25388170569E+02  0.00000000000E+00 0.  1.
</event>
<event>
 7    1  0.2001181E-008  0.4614232E+02  0.7816164E-02  0.1320468E+00
        -11   -1    0    0    0    0  0.00000000000E+00  0.00000000000E+00  0.45593999997E+02  0.45594000000E+02  0.51100000000E-03 0.  1.
         11   -1    0    0    0    0 -0.00000000000E+00 -0.00000000000E+00 -0.45593999997E+02  0.45594000000E+02  0.51100000000E-03 0. -1.
    9900012    2    1    2    0    0  0.28004817755E+02 -0.24965740201E+02 -0.24931015520E+02  0.46142317230E+02  0.99999951604E+01 0.  0.
        -12    1    1    2    0    0 -0.28004817755E+02  0.24965740201E+02  0.24931015520E+02  0.45045682770E+02  0.00000000000E+00 0.  1.
         11    1    3    3    0    0  0.10216116551E+01 -0.17091551988E+00 -0.74785787162E+00  0.12775735384E+01  0.51100000000E-03 0. -1.
        -11    1    3    3    0    0  0.79559392218E+01 -0.35791771895E+01 -0.25599575066E+01  0.90918018540E+01  0.51100000000E-03 0.  1.
         12    1    3    3    0    0  0.19027266879E+02 -0.21215647492E+02 -0.21623200142E+02  0.35772941838E+02  0.00000000000E+00 0. -1.
</event>
<event>
 7    1  0.2001181E-008  0.4614232E+02  0.7816164E-02  0.1320468E+00
        -11   -1    0    0    0    0  0.00000000000E+00  0.00000000000E+00  0.45593999997E+02  0.45594000000E+02  0.51100000000E-03 0. -1.
         11   -1    0    0    0    0 -0.00000000000E+00 -0.00000000000E+00 -0.45593999997E+02  0.45594000000E+02  0.51100000000E-03 0.  1.
    9900012    2    1    2    0    0 -0.11782351056E+02  0.38557772257E+02  0.20089496937E+02  0.46142317799E+02  0.10000000344E+02 0.  0.
        -12    1    1    2    0    0  0.11782351056E+02 -0.38557772257E+02 -0.20089496937E+02  0.45045682201E+02  0.00000000000E+00 0.  1.
         11    1    3    3    0    0 -0.35759553640E+01  0.22862346661E+02  0.76915819541E+01  0.24385134505E+02  0.51100000000E-03 0. -1.
        -11    1    3    3    0    0 -0.10211688724E+01  0.26520769178E+01  0.30797633419E+01  0.41906133616E+01  0.51100000000E-03 0.  1.
         12    1    3    3    0    0 -0.71852268196E+01  0.13043348678E+02  0.93181516407E+01  0.17566569932E+02  0.00000000000E+00 0. -1.
</event>
<event>
 7    1  0.2001181E-008  0.4614232E+02  0.7816164E-02  0.1320468E+00
        -11   -1    0    0    0    0  0.00000000000E+00  0.00000000000E+00  0.45593999997E+02  0.45594000000E+02  0.51100000000E-03 0.  1.
         11   -1    0    0    0    0 -0.00000000000E+00 -0.00000000000E+00 -0.45593999997E+02  0.45594000000E+02  0.51100000000E-03 0. -1.
    9900012    2    1    2    0    0  0.12526645421E+02  0.89423926093E+01 -0.42334740773E+02  0.46142317550E+02  0.99999980765E+01 0.  0.
        -12    1    1    2    0    0 -0.12526645421E+02 -0.89423926093E+01  0.42334740773E+02  0.45045682450E+02  0.00000000000E+00 0.  1.
         11    1    3    3    0    0  0.90582939367E+01  0.49979647009E+01 -0.19542839696E+02  0.22112325157E+02  0.51100000000E-03 0. -1.
        -11    1    3    3    0    0  0.13520615406E+01  0.63835437150E+00 -0.81026942573E+00  0.17006185688E+01  0.51100000000E-03 0.  1.
         12    1    3    3    0    0  0.21162899433E+01  0.33060735369E+01 -0.21981631651E+02  0.22329373824E+02  0.00000000000E+00 0. -1.
</event>
<event>
 7    1  0.2001181E-008  0.4614232E+02  0.7816164E-02  0.1320468E+00
        -11   -1    0    0    0    0  0.00000000000E+00  0.00000000000E+00  0.45593999997E+02  0.45594000000E+02  0.51100000000E-03 0.  1.
         11   -1    0    0    0    0 -0.00000000000E+00 -0.00000000000E+00 -0.45593999997E+02  0.45594000000E+02  0.51100000000E-03 0. -1.
    9900012    2    1    2    0    0  0.17861073067E+02 -0.27477088860E+02 -0.30904775833E+02  0.46142317491E+02  0.99999975413E+01 0.  0.
        -12    1    1    2    0    0 -0.17861073067E+02  0.27477088860E+02  0.30904775833E+02  0.45045682509E+02  0.00000000000E+00 0.  1.
         11    1    3    3    0    0  0.60574302778E+01 -0.14730075104E+02 -0.15232678179E+02  0.22038649208E+02  0.51100000000E-03 0. -1.
        -11    1    3    3    0    0  0.55397888946E+00 -0.14147226551E+01  0.26627166523E+00  0.15424764704E+01  0.51100000000E-03 0.  1.
         12    1    3    3    0    0  0.11249663900E+02 -0.11332291101E+02 -0.15938369319E+02  0.22561191813E+02  0.00000000000E+00 0. -1.
</event>
<event>
 7    1  0.2001181E-008  0.4614232E+02  0.7816164E-02  0.1320468E+00
        -11   -1    0    0    0    0  0.00000000000E+00  0.00000000000E+00  0.45593999997E+02  0.45594000000E+02  0.51100000000E-03 0.  1.
         11   -1    0    0    0    0 -0.00000000000E+00 -0.00000000000E+00 -0.45593999997E+02  0.45594000000E+02  0.51100000000E-03 0. -1.
    9900012    2    1    2    0    0 -0.11383769433E+01 -0.15046457037E+02 -0.42443159132E+02  0.46142317315E+02  0.99999959356E+01 0.  0.
        -12    1    1    2    0    0  0.11383769433E+01  0.15046457037E+02  0.42443159132E+02  0.45045682685E+02  0.00000000000E+00 0.  1.
         11    1    3    3    0    0 -0.26615945597E+01 -0.23467424895E+01 -0.66738928244E+01  0.75585799992E+01  0.51100000000E-03 0. -1.
        -11    1    3    3    0    0  0.26990909109E+00 -0.22029922745E+01 -0.16112795894E+02  0.16264938293E+02  0.51100000000E-03 0.  1.
        -12    1    3    3    0    0  0.12533085253E+01 -0.10496722273E+02 -0.19656470413E+02  0.22318799023E+02  0.00000000000E+00 0.  1.
</event>
<event>
 7    1  0.2001181E-008  0.4614232E+02  0.7816164E-02  0.1320468E+00
        -11   -1    0    0    0    0  0.00000000000E+00  0.00000000000E+00  0.45593999997E+02  0.45594000000E+02  0.51100000000E-03 0.  1.
         11   -1    0    0    0    0 -0.00000000000E+00 -0.00000000000E+00 -0.45593999997E+02  0.45594000000E+02  0.51100000000E-03 0. -1.
    9900012    2    1    2    0    0 -0.27951794960E+02 -0.31546221767E+02 -0.15894858219E+02  0.46142317998E+02  0.10000002156E+02 0.  0.
        -12    1    1    2    0    0  0.27951794960E+02  0.31546221767E+02  0.15894858219E+02  0.45045682002E+02  0.00000000000E+00 0.  1.
         11    1    3    3    0    0 -0.54957014849E+01 -0.11394626326E+02 -0.36708382895E+01  0.13172520561E+02  0.51100000000E-03 0. -1.
        -11    1    3    3    0    0 -0.19503026451E+02 -0.18643593662E+02 -0.12302502521E+02  0.29653046958E+02  0.51100000000E-03 0.  1.
        -12    1    3    3    0    0 -0.29530670245E+01 -0.15080017792E+01  0.78482592013E-01  0.33167504782E+01  0.00000000000E+00 0.  1.
</event>
<event>
 7    1  0.2001181E-008  0.4614232E+02  0.7816164E-02  0.1320468E+00
        -11   -1    0    0    0    0  0.00000000000E+00  0.00000000000E+00  0.45593999997E+02  0.45594000000E+02  0.51100000000E-03 0.  1.
         11   -1    0    0    0    0 -0.00000000000E+00 -0.00000000000E+00 -0.45593999997E+02  0.45594000000E+02  0.51100000000E-03 0. -1.
    9900012    2    1    2    0    0  0.39873209512E+02  0.81931159153E+01 -0.19290242762E+02  0.46142318176E+02  0.10000003785E+02 0.  0.
        -12    1    1    2    0    0 -0.39873209512E+02 -0.81931159153E+01  0.19290242762E+02  0.45045681824E+02  0.00000000000E+00 0.  1.
         11    1    3    3    0    0  0.10312487481E+02  0.51595074624E+01 -0.57864160218E+01  0.12901570677E+02  0.51100000000E-03 0. -1.
        -11    1    3    3    0    0  0.28662229237E+01  0.22268534649E+01 -0.10886095484E+01  0.37893510278E+01  0.51100000000E-03 0.  1.
         12    1    3    3    0    0  0.26694499107E+02  0.80675498800E+00 -0.12415217192E+02  0.29451396471E+02  0.00000000000E+00 0. -1.
</event>
<event>
 7    1  0.2001181E-008  0.4614232E+02  0.7816164E-02  0.1320468E+00
        -11   -1    0    0    0    0  0.00000000000E+00  0.00000000000E+00  0.45593999997E+02  0.45594000000E+02  0.51100000000E-03 0.  1.
         11   -1    0    0    0    0 -0.00000000000E+00 -0.00000000000E+00 -0.45593999997E+02  0.45594000000E+02  0.51100000000E-03 0. -1.
    9900012    2    1    2    0    0  0.24558258643E+02 -0.15484434529E+02 -0.34441801937E+02  0.46142317621E+02  0.99999987255E+01 0.  0.
        -12    1    1    2    0    0 -0.24558258643E+02  0.15484434529E+02  0.34441801937E+02  0.45045682379E+02  0.00000000000E+00 0.  1.
         11    1    3    3    0    0  0.97310874842E+01 -0.76839828529E+01 -0.20651739319E+02  0.24088005174E+02  0.51100000000E-03 0. -1.
        -11    1    3    3    0    0  0.13458095923E+02 -0.71706353057E+01 -0.13771313705E+02  0.20547200247E+02  0.51100000000E-03 0.  1.
         12    1    3    3    0    0  0.13690752359E+01 -0.62981637076E+00 -0.18748913104E-01  0.15071122002E+01  0.00000000000E+00 0. -1.
</event>
<event>
 7    1  0.2001181E-008  0.4614232E+02  0.7816164E-02  0.1320468E+00
        -11   -1    0    0    0    0  0.00000000000E+00  0.00000000000E+00  0.45593999997E+02  0.45594000000E+02  0.51100000000E-03 0.  1.
         11   -1    0    0    0    0 -0.00000000000E+00 -0.00000000000E+00 -0.45593999997E+02  0.45594000000E+02  0.51100000000E-03 0. -1.
    9900012    2    1    2    0    0 -0.34211474384E+02 -0.28768901653E+02  0.55712122719E+01  0.46142322205E+02  0.10000040521E+02 0.  0.
        -12    1    1    2    0    0  0.34211474384E+02  0.28768901653E+02 -0.55712122719E+01  0.45045677795E+02  0.00000000000E+00 0.  1.
         11    1    3    3    0    0 -0.19608651790E+02 -0.14274866488E+02  0.11367802460E+00  0.24254565781E+02  0.51100000000E-03 0. -1.
        -11    1    3    3    0    0 -0.13860232207E+02 -0.11847148700E+02  0.36431578343E+01  0.18593912133E+02  0.51100000000E-03 0.  1.
        -12    1    3    3    0    0 -0.74259038672E+00 -0.26468864649E+01  0.18143764129E+01  0.32938442903E+01  0.00000000000E+00 0.  1.
</event>
<event>
 7    1  0.2001181E-008  0.4614232E+02  0.7816164E-02  0.1320468E+00
        -11   -1    0    0    0    0  0.00000000000E+00  0.00000000000E+00  0.45593999997E+02  0.45594000000E+02  0.51100000000E-03 0. -1.
         11   -1    0    0    0    0 -0.00000000000E+00 -0.00000000000E+00 -0.45593999997E+02  0.45594000000E+02  0.51100000000E-03 0.  1.
    9900012    2    1    2    0    0  0.30520565511E+02 -0.29499494193E+01  0.32998580190E+02  0.46142318573E+02  0.10000007402E+02 0.  0.
        -12    1    1    2    0    0 -0.30520565511E+02  0.29499494193E+01 -0.32998580190E+02  0.45045681427E+02  0.00000000000E+00 0.  1.
         11    1    3    3    0    0  0.86006105423E+00 -0.92288193560E-01  0.17820705111E+01  0.19809083006E+01  0.51100000000E-03 0. -1.
        -11    1    3    3    0    0  0.12799956556E+02 -0.54309379821E+01  0.16966185354E+02  0.21935939026E+02  0.51100000000E-03 0.  1.
         12    1    3    3    0    0  0.16860547901E+02  0.25732767563E+01  0.14250324325E+02  0.22225471247E+02  0.00000000000E+00 0. -1.
</event>
<event>
 7    1  0.2001181E-008  0.4614231E+02  0.7816164E-02  0.1320468E+00
        -11   -1    0    0    0    0  0.00000000000E+00  0.00000000000E+00  0.45593999997E+02  0.45594000000E+02  0.51100000000E-03 0.  1.
         11   -1    0    0    0    0 -0.00000000000E+00 -0.00000000000E+00 -0.45593999997E+02  0.45594000000E+02  0.51100000000E-03 0. -1.
    9900012    2    1    2    0    0  0.12104515406E+02 -0.26230517142E+02 -0.34562329744E+02  0.46142312526E+02  0.99999522590E+01 0.  0.
        -12    1    1    2    0    0 -0.12104515406E+02  0.26230517142E+02  0.34562329744E+02  0.45045687474E+02  0.00000000000E+00 0.  1.
         11    1    3    3    0    0  0.68095935090E+01 -0.74747062615E+01 -0.11155103984E+02  0.15055834172E+02  0.51100000000E-03 0. -1.
        -11    1    3    3    0    0  0.68041586291E+00 -0.12614512517E+02 -0.12742920489E+02  0.17943547994E+02  0.51100000000E-03 0.  1.
        -12    1    3    3    0    0  0.46145060340E+01 -0.61412983634E+01 -0.10664305271E+02  0.13142930359E+02  0.00000000000E+00 0.  1.
</event>
<event>
 7    1  0.2001181E-008  0.4614232E+02  0.7816164E-02  0.1320468E+00
        -11   -1    0    0    0    0  0.00000000000E+00  0.00000000000E+00  0.45593999997E+02  0.45594000000E+02  0.51100000000E-03 0. -1.
         11   -1    0    0    0    0 -0.00000000000E+00 -0.00000000000E+00 -0.45593999997E+02  0.45594000000E+02  0.51100000000E-03 0.  1.
    9900012    2    1    2    0    0  0.23157628414E+02  0.46827858366E+01  0.38352430255E+02  0.46142321590E+02  0.10000034912E+02 0.  0.
        -12    1    1    2    0    0 -0.23157628414E+02 -0.46827858366E+01 -0.38352430255E+02  0.45045678410E+02  0.00000000000E+00 0.  1.
         11    1    3    3    0    0  0.70954215204E+01  0.36421079273E+00  0.15149852788E+02  0.16733071918E+02  0.51100000000E-03 0. -1.
        -11    1    3    3    0    0  0.76261452819E+01 -0.19146814925E+00  0.59209666054E+01  0.96567384616E+01  0.51100000000E-03 0.  1.
         12    1    3    3    0    0  0.84360616119E+01  0.45100431931E+01  0.17281610861E+02  0.19752511210E+02  0.00000000000E+00 0. -1.
</event>
<event>
 7    1  0.2001181E-008  0.4614232E+02  0.7816164E-02  0.1320468E+00
        -11   -1    0    0    0    0  0.00000000000E+00  0.00000000000E+00  0.45593999997E+02  0.45594000000E+02  0.51100000000E-03 0.  1.
         11   -1    0    0    0    0 -0.00000000000E+00 -0.00000000000E+00 -0.45593999997E+02  0.45594000000E+02  0.51100000000E-03 0. -1.
    9900012    2    1    2    0    0  0.15241091899E+02 -0.96243544399E+01 -0.41281889469E+02  0.46142317867E+02  0.10000000969E+02 0.  0.
        -12    1    1    2    0    0 -0.15241091899E+02  0.96243544399E+01  0.41281889469E+02  0.45045682133E+02  0.00000000000E+00 0.  1.
         11    1    3    3    0    0  0.63584871281E+01 -0.70955752453E+00 -0.18155973808E+02  0.19250278325E+02  0.51100000000E-03 0. -1.
        -11    1    3    3    0    0  0.92851957960E+01 -0.89806975287E+01 -0.20471132757E+02  0.24206095631E+02  0.51100000000E-03 0.  1.
        -12    1    3    3    0    0 -0.40259102502E+00  0.65900613393E-01 -0.26547829046E+01  0.26859439114E+01  0.00000000000E+00 0.  1.
</event>
<event>
 7    1  0.2001181E-008  0.4614232E+02  0.7816164E-02  0.1320468E+00
        -11   -1    0    0    0    0  0.00000000000E+00  0.00000000000E+00  0.45593999997E+02  0.45594000000E+02  0.51100000000E-03 0.  1.
         11   -1    0    0    0    0 -0.00000000000E+00 -0.00000000000E+00 -0.45593999997E+02  0.45594000000E+02  0.51100000000E-03 0. -1.
    9900012    2    1    2    0    0 -0.14768850125E+02 -0.23058251207E+01 -0.42493264398E+02  0.46142320044E+02  0.10000020817E+02 0.  0.
        -12    1    1    2    0    0  0.14768850125E+02  0.23058251207E+01  0.42493264398E+02  0.45045679956E+02  0.00000000000E+00 0.  1.
         11    1    3    3    0    0 -0.39718727124E+01 -0.11381328819E+01 -0.49415347842E+01  0.64412642847E+01  0.51100000000E-03 0. -1.
        -11    1    3    3    0    0 -0.54644972537E+01 -0.38339610528E+01 -0.15921864034E+02  0.17264580568E+02  0.51100000000E-03 0.  1.
        -12    1    3    3    0    0 -0.53324801587E+01  0.26662688140E+01 -0.21629865580E+02  0.22436475192E+02  0.00000000000E+00 0.  1.
</event>
<event>
 7    1  0.2001181E-008  0.4614232E+02  0.7816164E-02  0.1320468E+00
        -11   -1    0    0    0    0  0.00000000000E+00  0.00000000000E+00  0.45593999997E+02  0.45594000000E+02  0.51100000000E-03 0.  1.
         11   -1    0    0    0    0 -0.00000000000E+00 -0.00000000000E+00 -0.45593999997E+02  0.45594000000E+02  0.51100000000E-03 0. -1.
    9900012    2    1    2    0    0 -0.42173791682E+02  0.64793677578E+01  0.14439619039E+02  0.46142317528E+02  0.99999978755E+01 0.  0.
        -12    1    1    2    0    0  0.42173791682E+02 -0.64793677578E+01 -0.14439619039E+02  0.45045682472E+02  0.00000000000E+00 0.  1.
         11    1    3    3    0    0 -0.88707226665E+01  0.15806303627E+01  0.49342111419E+01  0.10273001159E+02  0.51100000000E-03 0. -1.
        -11    1    3    3    0    0 -0.10439624972E+02  0.43442905989E+01  0.58996953663E+00  0.11322839515E+02  0.51100000000E-03 0.  1.
        -12    1    3    3    0    0 -0.22863444043E+02  0.55444679627E+00  0.89154383607E+01  0.24546476854E+02  0.00000000000E+00 0.  1.
</event>
<event>
 7    1  0.2001181E-008  0.4614232E+02  0.7816164E-02  0.1320468E+00
        -11   -1    0    0    0    0  0.00000000000E+00  0.00000000000E+00  0.45593999997E+02  0.45594000000E+02  0.51100000000E-03 0. -1.
         11   -1    0    0    0    0 -0.00000000000E+00 -0.00000000000E+00 -0.45593999997E+02  0.45594000000E+02  0.51100000000E-03 0.  1.
    9900012    2    1    2    0    0 -0.22723470338E+02 -0.36315019227E+02  0.13927556656E+02  0.46142316965E+02  0.99999927402E+01 0.  0.
        -12    1    1    2    0    0  0.22723470338E+02  0.36315019227E+02 -0.13927556656E+02  0.45045683035E+02  0.00000000000E+00 0.  1.
         11    1    3    3    0    0 -0.10233944734E+02 -0.13049233264E+02  0.65994804813E+01  0.17848508523E+02  0.51100000000E-03 0. -1.
        -11    1    3    3    0    0 -0.12180426868E+02 -0.21460654057E+02  0.47466736068E+01  0.25128736177E+02  0.51100000000E-03 0.  1.
        -12    1    3    3    0    0 -0.30909873582E+00 -0.18051319060E+01  0.25814025682E+01  0.31650722655E+01  0.00000000000E+00 0.  1.
</event>
<event>
 7    1  0.2001181E-008  0.4614232E+02  0.7816164E-02  0.1320468E+00
        -11   -1    0    0    0    0  0.00000000000E+00  0.00000000000E+00  0.45593999997E+02  0.45594000000E+02  0.51100000000E-03 0.  1.
         11   -1    0    0    0    0 -0.00000000000E+00 -0.00000000000E+00 -0.45593999997E+02  0.45594000000E+02  0.51100000000E-03 0. -1.
    9900012    2    1    2    0    0 -0.35644094784E+01  0.44901260156E+02 -0.53412145888E+00  0.46142318029E+02  0.10000002441E+02 0.  0.
        -12    1    1    2    0    0  0.35644094784E+01 -0.44901260156E+02  0.53412145888E+00  0.45045681971E+02  0.00000000000E+00 0.  1.
         11    1    3    3    0    0 -0.20567202006E+00  0.84428205350E+01  0.22359462831E+01  0.87363021701E+01  0.51100000000E-03 0. -1.
        -11    1    3    3    0    0 -0.10709377933E+01  0.51658694106E+00 -0.58515662862E+00  0.13252088008E+01  0.51100000000E-03 0.  1.
        -12    1    3    3    0    0 -0.22877996651E+01  0.35941852680E+02 -0.21849111134E+01  0.36080807058E+02  0.00000000000E+00 0.  1.
</event>
<event>
 7    1  0.2001181E-008  0.4614232E+02  0.7816164E-02  0.1320468E+00
        -11   -1    0    0    0    0  0.00000000000E+00  0.00000000000E+00  0.45593999997E+02  0.45594000000E+02  0.51100000000E-03 0. -1.
         11   -1    0    0    0    0 -0.00000000000E+00 -0.00000000000E+00 -0.45593999997E+02  0.45594000000E+02  0.51100000000E-03 0.  1.
    9900012    2    1    2    0    0  0.25998525171E+02 -0.35318844396E+02 -0.10284415290E+02  0.46142320092E+02  0.10000021251E+02 0.  0.
        -12    1    1    2    0    0 -0.25998525171E+02  0.35318844396E+02  0.10284415290E+02  0.45045679908E+02  0.00000000000E+00 0.  1.
         11    1    3    3    0    0  0.12756705114E+02 -0.21044284387E+02 -0.52603965313E+01  0.25164800866E+02  0.51100000000E-03 0. -1.
        -11    1    3    3    0    0  0.77613951919E+01 -0.11508978088E+02 -0.52334566597E+01  0.14835258705E+02  0.51100000000E-03 0.  1.
        -12    1    3    3    0    0  0.54804248656E+01 -0.27655819212E+01  0.20943790126E+00  0.61422605207E+01  0.00000000000E+00 0.  1.
</event>
<event>
 7    1  0.2001181E-008  0.4614232E+02  0.7816164E-02  0.1320468E+00
        -11   -1    0    0    0    0  0.00000000000E+00  0.00000000000E+00  0.45593999997E+02  0.45594000000E+02  0.51100000000E-03 0. -1.
         11   -1    0    0    0    0 -0.00000000000E+00 -0.00000000000E+00 -0.45593999997E+02  0.45594000000E+02  0.51100000000E-03 0.  1.
    9900012    2    1    2    0    0 -0.40192532289E+02 -0.18825361874E+02 -0.76993200988E+01  0.46142318392E+02  0.10000005753E+02 0.  0.
        -12    1    1    2    0    0  0.40192532289E+02  0.18825361874E+02  0.76993200988E+01  0.45045681608E+02  0.00000000000E+00 0.  1.
         11    1    3    3    0    0 -0.13787026756E+02 -0.29781349629E+01 -0.28192015755E+01  0.14383994314E+02  0.51100000000E-03 0. -1.
        -11    1    3    3    0    0 -0.15192962458E+02 -0.59596352199E+01 -0.12091142475E+01  0.16364758407E+02  0.51100000000E-03 0.  1.
        -12    1    3    3    0    0 -0.11212543075E+02 -0.98875916916E+01 -0.36710042758E+01  0.15393565671E+02  0.00000000000E+00 0.  1.
</event>
<event>
 7    1  0.2001181E-008  0.4614231E+02  0.7816164E-02  0.1320468E+00
        -11   -1    0    0    0    0  0.00000000000E+00  0.00000000000E+00  0.45593999997E+02  0.45594000000E+02  0.51100000000E-03 0.  1.
         11   -1    0    0    0    0 -0.00000000000E+00 -0.00000000000E+00 -0.45593999997E+02  0.45594000000E+02  0.51100000000E-03 0. -1.
    9900012    2    1    2    0    0 -0.41820487615E+02  0.19487954360E+01 -0.16624170936E+02  0.46142311557E+02  0.99999434275E+01 0.  0.
        -12    1    1    2    0    0  0.41820487615E+02 -0.19487954360E+01  0.16624170936E+02  0.45045688443E+02  0.00000000000E+00 0.  1.
         11    1    3    3    0    0 -0.23770430804E+02  0.21763529077E+01 -0.68027546004E+01  0.24820301429E+02  0.51100000000E-03 0. -1.
        -11    1    3    3    0    0 -0.31631276352E+01  0.11936177571E+01  0.88359249267E-01  0.33819975465E+01  0.51100000000E-03 0.  1.
        -12    1    3    3    0    0 -0.14886929175E+02 -0.14211752288E+01 -0.99097755847E+01  0.17940012582E+02  0.00000000000E+00 0.  1.
</event>
<event>
 7    1  0.2001181E-008  0.4614232E+02  0.7816164E-02  0.1320468E+00
        -11   -1    0    0    0    0  0.00000000000E+00  0.00000000000E+00  0.45593999997E+02  0.45594000000E+02  0.51100000000E-03 0. -1.
         11   -1    0    0    0    0 -0.00000000000E+00 -0.00000000000E+00 -0.45593999997E+02  0.45594000000E+02  0.51100000000E-03 0.  1.
    9900012    2    1    2    0    0  0.42789320533E+02  0.13326489685E+02  0.45378792141E+01  0.46142316225E+02  0.99999859949E+01 0.  0.
        -12    1    1    2    0    0 -0.42789320533E+02 -0.13326489685E+02 -0.45378792141E+01  0.45045683775E+02  0.00000000000E+00 0.  1.
         11    1    3    3    0    0  0.58638022908E+01  0.32961927633E+01  0.19080690547E+01  0.69921235556E+01  0.51100000000E-03 0. -1.
        -11    1    3    3    0    0  0.40038773770E+01  0.10675089627E+01  0.28506623407E+01  0.50296009262E+01  0.51100000000E-03 0.  1.
        -12    1    3    3    0    0  0.32921640865E+02  0.89627879587E+01 -0.22085218128E+00  0.34120591743E+02  0.00000000000E+00 0.  1.
</event>
<event>
 7    1  0.2001181E-008  0.4614232E+02  0.7816164E-02  0.1320468E+00
        -11   -1    0    0    0    0  0.00000000000E+00  0.00000000000E+00  0.45593999997E+02  0.45594000000E+02  0.51100000000E-03 0.  1.
         11   -1    0    0    0    0 -0.00000000000E+00 -0.00000000000E+00 -0.45593999997E+02  0.45594000000E+02  0.51100000000E-03 0. -1.
    9900012    2    1    2    0    0 -0.40285615022E+02  0.17708110911E+02 -0.96231773264E+01  0.46142317503E+02  0.99999976479E+01 0.  0.
        -12    1    1    2    0    0  0.40285615022E+02 -0.17708110911E+02  0.96231773264E+01  0.45045682497E+02  0.00000000000E+00 0.  1.
         11    1    3    3    0    0 -0.12733767990E+02  0.58692448842E+01 -0.33972453947E+00  0.14025416064E+02  0.51100000000E-03 0. -1.
        -11    1    3    3    0    0 -0.20746958091E+02  0.74700056945E+01 -0.95404835211E+01  0.24026195729E+02  0.51100000000E-03 0.  1.
        -12    1    3    3    0    0 -0.68048889406E+01  0.43688603321E+01  0.25703073425E+00  0.80907057105E+01  0.00000000000E+00 0.  1.
</event>
<event>
 7    1  0.2001181E-008  0.4614232E+02  0.7816164E-02  0.1320468E+00
        -11   -1    0    0    0    0  0.00000000000E+00  0.00000000000E+00  0.45593999997E+02  0.45594000000E+02  0.51100000000E-03 0.  1.
         11   -1    0    0    0    0 -0.00000000000E+00 -0.00000000000E+00 -0.45593999997E+02  0.45594000000E+02  0.51100000000E-03 0. -1.
    9900012    2    1    2    0    0  0.68631004043E+01  0.17868724029E+02 -0.40776461179E+02  0.46142320609E+02  0.10000025965E+02 0.  0.
        -12    1    1    2    0    0 -0.68631004043E+01 -0.17868724029E+02  0.40776461179E+02  0.45045679391E+02  0.00000000000E+00 0.  1.
         11    1    3    3    0    0  0.73079359006E+01  0.13605909384E+02 -0.25000479176E+02  0.29386232432E+02  0.51100000000E-03 0. -1.
        -11    1    3    3    0    0 -0.16157894884E+01  0.13248362718E+01 -0.34731930112E+01  0.40532748207E+01  0.51100000000E-03 0.  1.
         12    1    3    3    0    0  0.11709539921E+01  0.29379783741E+01 -0.12302788991E+02  0.12702813355E+02  0.00000000000E+00 0. -1.
</event>
<event>
 7    1  0.2001181E-008  0.4614232E+02  0.7816164E-02  0.1320468E+00
        -11   -1    0    0    0    0  0.00000000000E+00  0.00000000000E+00  0.45593999997E+02  0.45594000000E+02  0.51100000000E-03 0.  1.
         11   -1    0    0    0    0 -0.00000000000E+00 -0.00000000000E+00 -0.45593999997E+02  0.45594000000E+02  0.51100000000E-03 0. -1.
    9900012    2    1    2    0    0  0.19120636865E+02  0.35628554658E+02  0.19852474761E+02  0.46142318572E+02  0.10000007396E+02 0.  0.
        -12    1    1    2    0    0 -0.19120636865E+02 -0.35628554658E+02 -0.19852474761E+02  0.45045681428E+02  0.00000000000E+00 0.  1.
         11    1    3    3    0    0  0.55874129076E+01  0.14246983405E+02  0.10736235218E+02  0.18693915215E+02  0.51100000000E-03 0. -1.
        -11    1    3    3    0    0  0.19582706353E+01  0.26457567258E+01  0.33206402731E+01  0.46756287938E+01  0.51100000000E-03 0.  1.
        -12    1    3    3    0    0  0.11574953322E+02  0.18735814528E+02  0.57955992695E+01  0.22772774563E+02  0.00000000000E+00 0.  1.
</event>
<event>
 7    1  0.2001181E-008  0.4614232E+02  0.7816164E-02  0.1320468E+00
        -11   -1    0    0    0    0  0.00000000000E+00  0.00000000000E+00  0.45593999997E+02  0.45594000000E+02  0.51100000000E-03 0.  1.
         11   -1    0    0    0    0 -0.00000000000E+00 -0.00000000000E+00 -0.45593999997E+02  0.45594000000E+02  0.51100000000E-03 0. -1.
    9900012    2    1    2    0    0  0.19675191578E+02 -0.25917382330E+02 -0.31149472541E+02  0.46142317521E+02  0.99999978064E+01 0.  0.
        -12    1    1    2    0    0 -0.19675191578E+02  0.25917382330E+02  0.31149472541E+02  0.45045682479E+02  0.00000000000E+00 0.  1.
         11    1    3    3    0    0  0.22232996790E+01 -0.53373013463E+01 -0.64509486282E+01  0.86628278055E+01  0.51100000000E-03 0.  1.
        -11    1    3    3    0    0  0.45924729964E+01 -0.26539655573E+01 -0.88413914504E+01  0.10310409519E+02  0.51100000000E-03 0. -1.
         12    1    3    3    0    0  0.12859418902E+02 -0.17926115426E+02 -0.15857132462E+02  0.27169080196E+02  0.00000000000E+00 0. -1.
</event>
<event>
 7    1  0.2001181E-008  0.4614232E+02  0.7816164E-02  0.1320468E+00
        -11   -1    0    0    0    0  0.00000000000E+00  0.00000000000E+00  0.45593999997E+02  0.45594000000E+02  0.51100000000E-03 0.  1.
         11   -1    0    0    0    0 -0.00000000000E+00 -0.00000000000E+00 -0.45593999997E+02  0.45594000000E+02  0.51100000000E-03 0. -1.
    9900012    2    1    2    0    0  0.29563534556E+02  0.31477777222E+02  0.12816413170E+02  0.46142317845E+02  0.10000000764E+02 0.  0.
        -12    1    1    2    0    0 -0.29563534556E+02 -0.31477777222E+02 -0.12816413170E+02  0.45045682155E+02  0.00000000000E+00 0.  1.
         11    1    3    3    0    0  0.18712587928E+02  0.22997699693E+02  0.72797705499E+01  0.30529497173E+02  0.51100000000E-03 0. -1.
        -11    1    3    3    0    0  0.92989413874E-01  0.94319479713E+00  0.16699205273E+01  0.19201297573E+01  0.51100000000E-03 0.  1.
         12    1    3    3    0    0  0.10757957214E+02  0.75368827318E+01  0.38667220925E+01  0.13692690914E+02  0.00000000000E+00 0. -1.
</event>
<event>
 7    1  0.2001181E-008  0.4614232E+02  0.7816164E-02  0.1320468E+00
        -11   -1    0    0    0    0  0.00000000000E+00  0.00000000000E+00  0.45593999997E+02  0.45594000000E+02  0.51100000000E-03 0.  1.
         11   -1    0    0    0    0 -0.00000000000E+00 -0.00000000000E+00 -0.45593999997E+02  0.45594000000E+02  0.51100000000E-03 0. -1.
    9900012    2    1    2    0    0  0.65585175070E+01 -0.44538092595E+02  0.15676244796E+01  0.46142319958E+02  0.10000020036E+02 0.  0.
        -12    1    1    2    0    0 -0.65585175070E+01  0.44538092595E+02 -0.15676244796E+01  0.45045680042E+02  0.00000000000E+00 0.  1.
         11    1    3    3    0    0 -0.52956296695E+00 -0.70430608717E+01  0.18027052895E+01  0.72893682854E+01  0.51100000000E-03 0. -1.
        -11    1    3    3    0    0  0.79246532769E+01 -0.36097770218E+02 -0.11684959966E+01  0.36975864120E+02  0.51100000000E-03 0.  1.
        -12    1    3    3    0    0 -0.83657280301E+00 -0.13972615052E+01  0.93341518680E+00  0.18770875525E+01  0.00000000000E+00 0.  1.
</event>
<event>
 7    1  0.2001181E-008  0.4614232E+02  0.7816164E-02  0.1320468E+00
        -11   -1    0    0    0    0  0.00000000000E+00  0.00000000000E+00  0.45593999997E+02  0.45594000000E+02  0.51100000000E-03 0.  1.
         11   -1    0    0    0    0 -0.00000000000E+00 -0.00000000000E+00 -0.45593999997E+02  0.45594000000E+02  0.51100000000E-03 0. -1.
    9900012    2    1    2    0    0  0.13102566028E+02 -0.84855070350E+00 -0.43089630445E+02  0.46142317336E+02  0.99999961225E+01 0.  0.
        -12    1    1    2    0    0 -0.13102566028E+02  0.84855070350E+00  0.43089630445E+02  0.45045682664E+02  0.00000000000E+00 0.  1.
         11    1    3    3    0    0  0.34885995331E+01  0.28719567288E+01 -0.11421638443E+02  0.12283008066E+02  0.51100000000E-03 0. -1.
        -11    1    3    3    0    0  0.24582741875E+01  0.15365729741E+01 -0.53666158501E+01  0.60995683806E+01  0.51100000000E-03 0.  1.
         12    1    3    3    0    0  0.71556923072E+01 -0.52570804065E+01 -0.26301376151E+02  0.27759740890E+02  0.00000000000E+00 0. -1.
</event>
<event>
 7    1  0.2001181E-008  0.4614232E+02  0.7816164E-02  0.1320468E+00
        -11   -1    0    0    0    0  0.00000000000E+00  0.00000000000E+00  0.45593999997E+02  0.45594000000E+02  0.51100000000E-03 0. -1.
         11   -1    0    0    0    0 -0.00000000000E+00 -0.00000000000E+00 -0.45593999997E+02  0.45594000000E+02  0.51100000000E-03 0.  1.
    9900012    2    1    2    0    0 -0.13976910676E+02 -0.55053683255E-01  0.42822382397E+02  0.46142317665E+02  0.99999991195E+01 0.  0.
        -12    1    1    2    0    0  0.13976910676E+02  0.55053683255E-01 -0.42822382397E+02  0.45045682335E+02  0.00000000000E+00 0.  1.
         11    1    3    3    0    0 -0.54384883620E+01  0.56813674986E+00  0.73027169591E+01  0.91230263771E+01  0.51100000000E-03 0.  1.
        -11    1    3    3    0    0 -0.50089357619E+01  0.19749428763E+01  0.12893019275E+02  0.13972107326E+02  0.51100000000E-03 0. -1.
         12    1    3    3    0    0 -0.35294865521E+01 -0.25981333095E+01  0.22626646162E+02  0.23047183962E+02  0.00000000000E+00 0. -1.
</event>
<event>
 7    1  0.2001181E-008  0.4614232E+02  0.7816164E-02  0.1320468E+00
        -11   -1    0    0    0    0  0.00000000000E+00  0.00000000000E+00  0.45593999997E+02  0.45594000000E+02  0.51100000000E-03 0. -1.
         11   -1    0    0    0    0 -0.00000000000E+00 -0.00000000000E+00 -0.45593999997E+02  0.45594000000E+02  0.51100000000E-03 0.  1.
    9900012    2    1    2    0    0  0.42393875500E+02  0.63383994732E+01  0.13845484931E+02  0.46142318289E+02  0.10000004816E+02 0.  0.
        -12    1    1    2    0    0 -0.42393875500E+02 -0.63383994732E+01 -0.13845484931E+02  0.45045681711E+02  0.00000000000E+00 0.  1.
         11    1    3    3    0    0  0.43181159324E+01  0.72869798061E+00  0.48037568337E+01  0.65002466054E+01  0.51100000000E-03 0.  1.
        -11    1    3    3    0    0  0.25098759061E+02  0.28588432522E+01  0.70635294094E+01  0.26230023620E+02  0.51100000000E-03 0. -1.
        -12    1    3    3    0    0  0.12977000507E+02  0.27508582404E+01  0.19781986882E+01  0.13412048064E+02  0.00000000000E+00 0.  1.
</event>
<event>
 7    1  0.2001181E-008  0.4614232E+02  0.7816164E-02  0.1320468E+00
        -11   -1    0    0    0    0  0.00000000000E+00  0.00000000000E+00  0.45593999997E+02  0.45594000000E+02  0.51100000000E-03 0.  1.
         11   -1    0    0    0    0 -0.00000000000E+00 -0.00000000000E+00 -0.45593999997E+02  0.45594000000E+02  0.51100000000E-03 0. -1.
    9900012    2    1    2    0    0 -0.12393449132E+02  0.43181668124E+02 -0.32953873470E+01  0.46142316288E+02  0.99999865633E+01 0.  0.
        -12    1    1    2    0    0  0.12393449132E+02 -0.43181668124E+02  0.32953873470E+01  0.45045683712E+02  0.00000000000E+00 0.  1.
         11    1    3    3    0    0 -0.73945661002E+01  0.12481956577E+02 -0.21831967473E+01  0.14671237034E+02  0.51100000000E-03 0. -1.
        -11    1    3    3    0    0 -0.22010598289E+01  0.17389299061E+02 -0.28534553925E+01  0.17758789208E+02  0.51100000000E-03 0.  1.
         12    1    3    3    0    0 -0.27978232033E+01  0.13310412486E+02  0.17412647928E+01  0.13712290046E+02  0.00000000000E+00 0. -1.
</event>
<event>
 7    1  0.2001181E-008  0.4614232E+02  0.7816164E-02  0.1320468E+00
        -11   -1    0    0    0    0  0.00000000000E+00  0.00000000000E+00  0.45593999997E+02  0.45594000000E+02  0.51100000000E-03 0.  1.
         11   -1    0    0    0    0 -0.00000000000E+00 -0.00000000000E+00 -0.45593999997E+02  0.45594000000E+02  0.51100000000E-03 0. -1.
    9900012    2    1    2    0    0  0.26426769782E+02  0.36239433273E+02  0.41764594599E+01  0.46142317647E+02  0.99999989549E+01 0.  0.
        -12    1    1    2    0    0 -0.26426769782E+02 -0.36239433273E+02 -0.41764594599E+01  0.45045682353E+02  0.00000000000E+00 0.  1.
         11    1    3    3    0    0  0.26125915078E+01  0.67399776707E+01 -0.12994412693E+01  0.73444864532E+01  0.51100000000E-03 0.  1.
        -11    1    3    3    0    0  0.43841923023E+01  0.56460736728E+01 -0.13737264029E+01  0.72791767772E+01  0.51100000000E-03 0. -1.
         12    1    3    3    0    0  0.19429985972E+02  0.23853381930E+02  0.68496271321E+01  0.31518654416E+02  0.00000000000E+00 0. -1.
</event>
<event>
 7    1  0.2001181E-008  0.4614232E+02  0.7816164E-02  0.1320468E+00
        -11   -1    0    0    0    0  0.00000000000E+00  0.00000000000E+00  0.45593999997E+02  0.45594000000E+02  0.51100000000E-03 0.  1.
         11   -1    0    0    0    0 -0.00000000000E+00 -0.00000000000E+00 -0.45593999997E+02  0.45594000000E+02  0.51100000000E-03 0. -1.
    9900012    2    1    2    0    0  0.13725884646E+02 -0.25490824181E+02 -0.34509874607E+02  0.46142317941E+02  0.10000001641E+02 0.  0.
        -12    1    1    2    0    0 -0.13725884646E+02  0.25490824181E+02  0.34509874607E+02  0.45045682059E+02  0.00000000000E+00 0.  1.
         11    1    3    3    0    0  0.13644884162E+01 -0.39508370073E+01 -0.87415546070E+01  0.96894643249E+01  0.51100000000E-03 0. -1.
        -11    1    3    3    0    0  0.37678403046E+01 -0.10974880491E+02 -0.81280361845E+01  0.14167201376E+02  0.51100000000E-03 0.  1.
        -12    1    3    3    0    0  0.85935559257E+01 -0.10565106683E+02 -0.17640283815E+02  0.22285652240E+02  0.00000000000E+00 0.  1.
</event>
<event>
 7    1  0.2001181E-008  0.4614232E+02  0.7816164E-02  0.1320468E+00
        -11   -1    0    0    0    0  0.00000000000E+00  0.00000000000E+00  0.45593999997E+02  0.45594000000E+02  0.51100000000E-03 0.  1.
         11   -1    0    0    0    0 -0.00000000000E+00 -0.00000000000E+00 -0.45593999997E+02  0.45594000000E+02  0.51100000000E-03 0. -1.
    9900012    2    1    2    0    0 -0.22423049180E+01  0.27630680377E+02 -0.35505366758E+02  0.46142317653E+02  0.99999990150E+01 0.  0.
        -12    1    1    2    0    0  0.22423049180E+01 -0.27630680377E+02  0.35505366758E+02  0.45045682347E+02  0.00000000000E+00 0.  1.
         11    1    3    3    0    0  0.11358533100E+01  0.14825070374E+02 -0.16895301702E+02  0.22506090158E+02  0.51100000000E-03 0. -1.
        -11    1    3    3    0    0 -0.98732289464E+00  0.11917907803E+02 -0.16123532000E+02  0.20074352227E+02  0.51100000000E-03 0.  1.
        -12    1    3    3    0    0 -0.23908353334E+01  0.88770219997E+00 -0.24865330563E+01  0.35618752684E+01  0.00000000000E+00 0.  1.
</event>
<event>
 7    1  0.2001181E-008  0.4614232E+02  0.7816164E-02  0.1320468E+00
        -11   -1    0    0    0    0  0.00000000000E+00  0.00000000000E+00  0.45593999997E+02  0.45594000000E+02  0.51100000000E-03 0. -1.
         11   -1    0    0    0    0 -0.00000000000E+00 -0.00000000000E+00 -0.45593999997E+02  0.45594000000E+02  0.51100000000E-03 0.  1.
    9900012    2    1    2    0    0 -0.23675254187E+02  0.11145390353E+02  0.36665733612E+02  0.46142318651E+02  0.10000008112E+02 0.  0.
        -12    1    1    2    0    0  0.23675254187E+02 -0.11145390353E+02 -0.36665733612E+02  0.45045681349E+02  0.00000000000E+00 0.  1.
         11    1    3    3    0    0 -0.46933692559E+01  0.25082937688E+01  0.10803567849E+02  0.12043103053E+02  0.51100000000E-03 0. -1.
        -11    1    3    3    0    0 -0.22557631939E+01  0.40656281780E+01  0.35957633070E+01  0.58776963251E+01  0.51100000000E-03 0.  1.
         12    1    3    3    0    0 -0.16726121738E+02  0.45714684058E+01  0.22266402455E+02  0.28221519273E+02  0.00000000000E+00 0. -1.
</event>
<event>
 7    1  0.2001181E-008  0.4614232E+02  0.7816164E-02  0.1320468E+00
        -11   -1    0    0    0    0  0.00000000000E+00  0.00000000000E+00  0.45593999997E+02  0.45594000000E+02  0.51100000000E-03 0.  1.
         11   -1    0    0    0    0 -0.00000000000E+00 -0.00000000000E+00 -0.45593999997E+02  0.45594000000E+02  0.51100000000E-03 0. -1.
    9900012    2    1    2    0    0  0.11977660858E+02  0.60582589441E+01 -0.42999379463E+02  0.46142317684E+02  0.99999993009E+01 0.  0.
        -12    1    1    2    0    0 -0.11977660858E+02 -0.60582589441E+01  0.42999379463E+02  0.45045682316E+02  0.00000000000E+00 0.  1.
         11    1    3    3    0    0  0.92539984515E+01  0.44192905825E+01 -0.25361838409E+02  0.27356707849E+02  0.51100000000E-03 0. -1.
        -11    1    3    3    0    0 -0.12957282896E+01  0.18831565220E+01 -0.84627570431E+01  0.87660394317E+01  0.51100000000E-03 0.  1.
         12    1    3    3    0    0  0.40193906963E+01 -0.24418816031E+00 -0.91747840106E+01  0.10019570403E+02  0.00000000000E+00 0. -1.
</event>
<event>
 7    1  0.2001181E-008  0.4614232E+02  0.7816164E-02  0.1320468E+00
        -11   -1    0    0    0    0  0.00000000000E+00  0.00000000000E+00  0.45593999997E+02  0.45594000000E+02  0.51100000000E-03 0.  1.
         11   -1    0    0    0    0 -0.00000000000E+00 -0.00000000000E+00 -0.45593999997E+02  0.45594000000E+02  0.51100000000E-03 0. -1.
    9900012    2    1    2    0    0 -0.29230675400E+02 -0.31351166028E+02 -0.13848662409E+02  0.46142318230E+02  0.10000004271E+02 0.  0.
        -12    1    1    2    0    0  0.29230675400E+02  0.31351166028E+02  0.13848662409E+02  0.45045681770E+02  0.00000000000E+00 0.  1.
         11    1    3    3    0    0 -0.43753883397E+01 -0.55046282580E+01 -0.12522221425E+01  0.71423396682E+01  0.51100000000E-03 0. -1.
        -11    1    3    3    0    0 -0.25171826963E+02 -0.23581246629E+02 -0.12574455914E+02  0.36712572874E+02  0.51100000000E-03 0.  1.
         12    1    3    3    0    0  0.31653990307E+00 -0.22652911417E+01 -0.21984352003E-01  0.22874056874E+01  0.00000000000E+00 0. -1.
</event>
<event>
 7    1  0.2001181E-008  0.4614232E+02  0.7816164E-02  0.1320468E+00
        -11   -1    0    0    0    0  0.00000000000E+00  0.00000000000E+00  0.45593999997E+02  0.45594000000E+02  0.51100000000E-03 0. -1.
         11   -1    0    0    0    0 -0.00000000000E+00 -0.00000000000E+00 -0.45593999997E+02  0.45594000000E+02  0.51100000000E-03 0.  1.
    9900012    2    1    2    0    0 -0.21092378999E+02  0.25764636204E+02  0.30338237003E+02  0.46142317021E+02  0.99999932537E+01 0.  0.
        -12    1    1    2    0    0  0.21092378999E+02 -0.25764636204E+02 -0.30338237003E+02  0.45045682979E+02  0.00000000000E+00 0.  1.
         11    1    3    3    0    0 -0.16967471236E+02  0.24797679117E+02  0.24859337048E+02  0.38997520543E+02  0.51100000000E-03 0. -1.
        -11    1    3    3    0    0 -0.22547581829E+00  0.46486908546E+00  0.13401794091E+01  0.14363229862E+01  0.51100000000E-03 0.  1.
         12    1    3    3    0    0 -0.38994319454E+01  0.50208800106E+00  0.41387205456E+01  0.57084734923E+01  0.00000000000E+00 0. -1.
</event>
<event>
 7    1  0.2001181E-008  0.4614232E+02  0.7816164E-02  0.1320468E+00
        -11   -1    0    0    0    0  0.00000000000E+00  0.00000000000E+00  0.45593999997E+02  0.45594000000E+02  0.51100000000E-03 0.  1.
         11   -1    0    0    0    0 -0.00000000000E+00 -0.00000000000E+00 -0.45593999997E+02  0.45594000000E+02  0.51100000000E-03 0. -1.
    9900012    2    1    2    0    0  0.21598757545E+01  0.39245659861E+02 -0.22005146091E+02  0.46142319456E+02  0.10000015453E+02 0.  0.
        -12    1    1    2    0    0 -0.21598757545E+01 -0.39245659861E+02  0.22005146091E+02  0.45045680544E+02  0.00000000000E+00 0.  1.
         11    1    3    3    0    0  0.13825715915E+01  0.49377689206E+01 -0.51892941256E+01  0.72953300064E+01  0.51100000000E-03 0. -1.
        -11    1    3    3    0    0  0.10976234877E+01  0.41982714063E+01  0.38558829092E-01  0.43395561025E+01  0.51100000000E-03 0.  1.
         12    1    3    3    0    0 -0.32031932478E+00  0.30109619534E+02 -0.16854410794E+02  0.34507433347E+02  0.00000000000E+00 0. -1.
</event>
<event>
 7    1  0.2001181E-008  0.4614232E+02  0.7816164E-02  0.1320468E+00
        -11   -1    0    0    0    0  0.00000000000E+00  0.00000000000E+00  0.45593999997E+02  0.45594000000E+02  0.51100000000E-03 0.  1.
         11   -1    0    0    0    0 -0.00000000000E+00 -0.00000000000E+00 -0.45593999997E+02  0.45594000000E+02  0.51100000000E-03 0. -1.
    9900012    2    1    2    0    0 -0.30044901593E+02 -0.30796388049E+02 -0.13341663244E+02  0.46142316448E+02  0.99999880237E+01 0.  0.
        -12    1    1    2    0    0  0.30044901593E+02  0.30796388049E+02  0.13341663244E+02  0.45045683552E+02  0.00000000000E+00 0.  1.
         11    1    3    3    0    0 -0.19854747260E+02 -0.18873959512E+02 -0.59202176063E+01  0.28026528740E+02  0.51100000000E-03 0. -1.
        -11    1    3    3    0    0 -0.40140310949E+01 -0.12771180971E+01 -0.16747816213E+01  0.45330309954E+01  0.51100000000E-03 0.  1.
        -12    1    3    3    0    0 -0.61761232381E+01 -0.10645310439E+02 -0.57466640161E+01  0.13582756713E+02  0.00000000000E+00 0.  1.
</event>
<event>
 7    1  0.2001181E-008  0.4614232E+02  0.7816164E-02  0.1320468E+00
        -11   -1    0    0    0    0  0.00000000000E+00  0.00000000000E+00  0.45593999997E+02  0.45594000000E+02  0.51100000000E-03 0.  1.
         11   -1    0    0    0    0 -0.00000000000E+00 -0.00000000000E+00 -0.45593999997E+02  0.45594000000E+02  0.51100000000E-03 0. -1.
    9900012    2    1    2    0    0  0.91234173862E+01  0.29154491252E+02 -0.33104264704E+02  0.46142318225E+02  0.10000004235E+02 0.  0.
        -12    1    1    2    0    0 -0.91234173862E+01 -0.29154491252E+02  0.33104264704E+02  0.45045681775E+02  0.00000000000E+00 0.  1.
         11    1    3    3    0    0  0.68382570407E-01  0.50723430027E+01 -0.10723025996E+02  0.11862403908E+02  0.51100000000E-03 0. -1.
        -11    1    3    3    0    0  0.13032676538E+01  0.11485952411E+01 -0.11777826332E+01  0.20987972264E+01  0.51100000000E-03 0.  1.
         12    1    3    3    0    0  0.77517671619E+01  0.22933553008E+02 -0.21203456075E+02  0.32181117091E+02  0.00000000000E+00 0. -1.
</event>
<event>
 7    1  0.2001181E-008  0.4614232E+02  0.7816164E-02  0.1320468E+00
        -11   -1    0    0    0    0  0.00000000000E+00  0.00000000000E+00  0.45593999997E+02  0.45594000000E+02  0.51100000000E-03 0.  1.
         11   -1    0    0    0    0 -0.00000000000E+00 -0.00000000000E+00 -0.45593999997E+02  0.45594000000E+02  0.51100000000E-03 0. -1.
    9900012    2    1    2    0    0  0.33252879908E+02  0.14505546020E+02 -0.26701096844E+02  0.46142318075E+02  0.10000002858E+02 0.  0.
        -12    1    1    2    0    0 -0.33252879908E+02 -0.14505546020E+02  0.26701096844E+02  0.45045681925E+02  0.00000000000E+00 0.  1.
         11    1    3    3    0    0  0.30060769040E+01  0.22928762203E+01 -0.65504305021E+01  0.75631950747E+01  0.51100000000E-03 0. -1.
        -11    1    3    3    0    0  0.66766383096E+00 -0.19657092525E+00  0.41194105910E-02  0.69601174594E+00  0.51100000000E-03 0.  1.
         12    1    3    3    0    0  0.29579139173E+02  0.12409240725E+02 -0.20154785752E+02  0.37883111254E+02  0.00000000000E+00 0. -1.
</event>
<event>
 7    1  0.2001181E-008  0.4614232E+02  0.7816164E-02  0.1320468E+00
        -11   -1    0    0    0    0  0.00000000000E+00  0.00000000000E+00  0.45593999997E+02  0.45594000000E+02  0.51100000000E-03 0.  1.
         11   -1    0    0    0    0 -0.00000000000E+00 -0.00000000000E+00 -0.45593999997E+02  0.45594000000E+02  0.51100000000E-03 0. -1.
    9900012    2    1    2    0    0 -0.33162828945E+02 -0.22502777741E+02 -0.20566120138E+02  0.46142317330E+02  0.99999960656E+01 0.  0.
        -12    1    1    2    0    0  0.33162828945E+02  0.22502777741E+02  0.20566120138E+02  0.45045682670E+02  0.00000000000E+00 0.  1.
         11    1    3    3    0    0 -0.22838522284E+02 -0.14311739887E+02 -0.10293355393E+02  0.28850947371E+02  0.51100000000E-03 0. -1.
        -11    1    3    3    0    0 -0.59633223080E+01 -0.59572254455E+01 -0.39952835126E+01  0.93280243656E+01  0.51100000000E-03 0.  1.
        -12    1    3    3    0    0 -0.43609843530E+01 -0.22338124085E+01 -0.62774812328E+01  0.79633455929E+01  0.00000000000E+00 0.  1.
</event>
<event>
 7    1  0.2001181E-008  0.4614232E+02  0.7816164E-02  0.1320468E+00
        -11   -1    0    0    0    0  0.00000000000E+00  0.00000000000E+00  0.45593999997E+02  0.45594000000E+02  0.51100000000E-03 0.  1.
         11   -1    0    0    0    0 -0.00000000000E+00 -0.00000000000E+00 -0.45593999997E+02  0.45594000000E+02  0.51100000000E-03 0. -1.
    9900012    2    1    2    0    0  0.15081220660E+02  0.42269888494E+02 -0.38635189174E+01  0.46142317984E+02  0.10000002032E+02 0.  0.
        -12    1    1    2    0    0 -0.15081220660E+02 -0.42269888494E+02  0.38635189174E+01  0.45045682016E+02  0.00000000000E+00 0.  1.
         11    1    3    3    0    0  0.71733501982E+01  0.14216628064E+02 -0.28615247506E+01  0.16178930457E+02  0.51100000000E-03 0. -1.
        -11    1    3    3    0    0  0.46495723138E+01  0.57622228286E+01  0.15487778390E+00  0.74057897632E+01  0.51100000000E-03 0.  1.
        -12    1    3    3    0    0  0.32582981482E+01  0.22291037601E+02 -0.11568719507E+01  0.22557597764E+02  0.00000000000E+00 0.  1.
</event>
<event>
 7    1  0.2001181E-008  0.4614232E+02  0.7816164E-02  0.1320468E+00
        -11   -1    0    0    0    0  0.00000000000E+00  0.00000000000E+00  0.45593999997E+02  0.45594000000E+02  0.51100000000E-03 0.  1.
         11   -1    0    0    0    0 -0.00000000000E+00 -0.00000000000E+00 -0.45593999997E+02  0.45594000000E+02  0.51100000000E-03 0. -1.
    9900012    2    1    2    0    0  0.16107461381E+02 -0.17422192302E+02 -0.38290077648E+02  0.46142321595E+02  0.10000034956E+02 0.  0.
        -12    1    1    2    0    0 -0.16107461381E+02  0.17422192302E+02  0.38290077648E+02  0.45045678405E+02  0.00000000000E+00 0.  1.
         11    1    3    3    0    0  0.32427647826E+01 -0.65056110145E+00 -0.53752609633E+01  0.63112743457E+01  0.51100000000E-03 0. -1.
        -11    1    3    3    0    0  0.91587018434E+00 -0.30636141458E+01 -0.14984127827E+01  0.35312591178E+01  0.51100000000E-03 0.  1.
         12    1    3    3    0    0  0.11948826414E+02 -0.13708017055E+02 -0.31416403902E+02  0.36299788131E+02  0.00000000000E+00 0. -1.
</event>
<event>
 7    1  0.2001181E-008  0.4614232E+02  0.7816164E-02  0.1320468E+00
        -11   -1    0    0    0    0  0.00000000000E+00  0.00000000000E+00  0.45593999997E+02  0.45594000000E+02  0.51100000000E-03 0.  1.
         11   -1    0    0    0    0 -0.00000000000E+00 -0.00000000000E+00 -0.45593999997E+02  0.45594000000E+02  0.51100000000E-03 0. -1.
    9900012    2    1    2    0    0  0.40481490904E+02  0.12893901868E+02  0.14970296786E+02  0.46142316555E+02  0.99999889978E+01 0.  0.
        -12    1    1    2    0    0 -0.40481490904E+02 -0.12893901868E+02 -0.14970296786E+02  0.45045683445E+02  0.00000000000E+00 0.  1.
         11    1    3    3    0    0  0.23683947549E+02  0.60467774298E+01  0.10911800519E+02  0.26768643590E+02  0.51100000000E-03 0.  1.
        -11    1    3    3    0    0  0.16092153392E+02  0.63212135838E+01  0.23449876828E+01  0.17447467136E+02  0.51100000000E-03 0. -1.
         12    1    3    3    0    0  0.70538996276E+00  0.52591085406E+00  0.17135085846E+01  0.19262058290E+01  0.00000000000E+00 0. -1.
</event>
<event>
 7    1  0.2001181E-008  0.4614232E+02  0.7816164E-02  0.1320468E+00
        -11   -1    0    0    0    0  0.00000000000E+00  0.00000000000E+00  0.45593999997E+02  0.45594000000E+02  0.51100000000E-03 0. -1.
         11   -1    0    0    0    0 -0.00000000000E+00 -0.00000000000E+00 -0.45593999997E+02  0.45594000000E+02  0.51100000000E-03 0.  1.
    9900012    2    1    2    0    0 -0.90300560166E+01 -0.92355572114E+01  0.43154096304E+02  0.46142318115E+02  0.10000003224E+02 0.  0.
        -12    1    1    2    0    0  0.90300560166E+01  0.92355572114E+01 -0.43154096304E+02  0.45045681885E+02  0.00000000000E+00 0.  1.
         11    1    3    3    0    0 -0.30440371272E+01 -0.67234000170E+01  0.18517201529E+02  0.19933816056E+02  0.51100000000E-03 0. -1.
        -11    1    3    3    0    0 -0.20709832363E+01 -0.34453303550E+01  0.18026531953E+02  0.18469302297E+02  0.51100000000E-03 0.  1.
        -12    1    3    3    0    0 -0.39150356531E+01  0.93317316066E+00  0.66103628229E+01  0.77391997625E+01  0.00000000000E+00 0.  1.
</event>
<event>
 7    1  0.2001181E-008  0.4614232E+02  0.7816164E-02  0.1320468E+00
        -11   -1    0    0    0    0  0.00000000000E+00  0.00000000000E+00  0.45593999997E+02  0.45594000000E+02  0.51100000000E-03 0.  1.
         11   -1    0    0    0    0 -0.00000000000E+00 -0.00000000000E+00 -0.45593999997E+02  0.45594000000E+02  0.51100000000E-03 0. -1.
    9900012    2    1    2    0    0  0.34413921133E+02 -0.86433286187E+01 -0.27750469572E+02  0.46142315869E+02  0.99999827505E+01 0.  0.
        -12    1    1    2    0    0 -0.34413921133E+02  0.86433286187E+01  0.27750469572E+02  0.45045684131E+02  0.00000000000E+00 0.  1.
         11    1    3    3    0    0  0.21548218027E+02 -0.29556449797E+01 -0.15443486544E+02  0.26675134757E+02  0.51100000000E-03 0. -1.
        -11    1    3    3    0    0  0.85789043780E+01 -0.24743235358E+01 -0.44993330933E+01  0.99981936285E+01  0.51100000000E-03 0.  1.
        -12    1    3    3    0    0  0.42867987278E+01 -0.32133601032E+01 -0.78076499342E+01  0.94689874844E+01  0.00000000000E+00 0.  1.
</event>
<event>
 7    1  0.2001181E-008  0.4614232E+02  0.7816164E-02  0.1320468E+00
        -11   -1    0    0    0    0  0.00000000000E+00  0.00000000000E+00  0.45593999997E+02  0.45594000000E+02  0.51100000000E-03 0.  1.
         11   -1    0    0    0    0 -0.00000000000E+00 -0.00000000000E+00 -0.45593999997E+02  0.45594000000E+02  0.51100000000E-03 0. -1.
    9900012    2    1    2    0    0  0.24724348322E+02  0.17342233231E+02 -0.33422554599E+02  0.46142316419E+02  0.99999877603E+01 0.  0.
        -12    1    1    2    0    0 -0.24724348322E+02 -0.17342233231E+02  0.33422554599E+02  0.45045683581E+02  0.00000000000E+00 0.  1.
         11    1    3    3    0    0  0.17517598162E+01 -0.46733079674E+00 -0.85434222104E+00  0.20042358691E+01  0.51100000000E-03 0. -1.
        -11    1    3    3    0    0  0.62935602859E+01  0.26025866739E+01 -0.46936549754E+01  0.82712003819E+01  0.51100000000E-03 0.  1.
         12    1    3    3    0    0  0.16679028219E+02  0.15206977354E+02 -0.27874557403E+02  0.35866880168E+02  0.00000000000E+00 0. -1.
</event>
<event>
 7    1  0.2001181E-008  0.4614232E+02  0.7816164E-02  0.1320468E+00
        -11   -1    0    0    0    0  0.00000000000E+00  0.00000000000E+00  0.45593999997E+02  0.45594000000E+02  0.51100000000E-03 0.  1.
         11   -1    0    0    0    0 -0.00000000000E+00 -0.00000000000E+00 -0.45593999997E+02  0.45594000000E+02  0.51100000000E-03 0. -1.
    9900012    2    1    2    0    0 -0.32107627819E+02  0.28375185328E+02 -0.13894698974E+02  0.46142316898E+02  0.99999921260E+01 0.  0.
        -12    1    1    2    0    0  0.32107627819E+02 -0.28375185328E+02  0.13894698974E+02  0.45045683102E+02  0.00000000000E+00 0.  1.
         11    1    3    3    0    0 -0.15340890795E+02  0.84904106389E+01 -0.39004228827E+01  0.17962274414E+02  0.51100000000E-03 0. -1.
        -11    1    3    3    0    0 -0.80348881816E+01  0.11939668351E+02 -0.39845782776E+01  0.14932915748E+02  0.51100000000E-03 0.  1.
        -12    1    3    3    0    0 -0.87318488424E+01  0.79451063381E+01 -0.60096978139E+01  0.13247126735E+02  0.00000000000E+00 0.  1.
</event>
<event>
 7    1  0.2001181E-008  0.4614232E+02  0.7816164E-02  0.1320468E+00
        -11   -1    0    0    0    0  0.00000000000E+00  0.00000000000E+00  0.45593999997E+02  0.45594000000E+02  0.51100000000E-03 0. -1.
         11   -1    0    0    0    0 -0.00000000000E+00 -0.00000000000E+00 -0.45593999997E+02  0.45594000000E+02  0.51100000000E-03 0.  1.
    9900012    2    1    2    0    0 -0.42929023437E+02 -0.99412909695E+01 -0.93478954122E+01  0.46142317987E+02  0.10000002057E+02 0.  0.
        -12    1    1    2    0    0  0.42929023437E+02  0.99412909695E+01  0.93478954122E+01  0.45045682013E+02  0.00000000000E+00 0.  1.
         11    1    3    3    0    0 -0.61653509183E+01 -0.35393493517E+01 -0.30169141050E+01  0.77227143388E+01  0.51100000000E-03 0. -1.
        -11    1    3    3    0    0 -0.29018119562E+01  0.30942394848E+00  0.10814645018E+01  0.31122052533E+01  0.51100000000E-03 0.  1.
         12    1    3    3    0    0 -0.33861860563E+02 -0.67113655662E+01 -0.74124458090E+01  0.35307398395E+02  0.00000000000E+00 0. -1.
</event>
<event>
 7    1  0.2001181E-008  0.4614232E+02  0.7816164E-02  0.1320468E+00
        -11   -1    0    0    0    0  0.00000000000E+00  0.00000000000E+00  0.45593999997E+02  0.45594000000E+02  0.51100000000E-03 0.  1.
         11   -1    0    0    0    0 -0.00000000000E+00 -0.00000000000E+00 -0.45593999997E+02  0.45594000000E+02  0.51100000000E-03 0. -1.
    9900012    2    1    2    0    0  0.32425860033E+02 -0.31192720797E+02  0.21659275252E+01  0.46142317947E+02  0.10000001696E+02 0.  0.
        -12    1    1    2    0    0 -0.32425860033E+02  0.31192720797E+02 -0.21659275252E+01  0.45045682053E+02  0.00000000000E+00 0.  1.
         11    1    3    3    0    0  0.18647313444E+02 -0.14425545550E+02 -0.78534682072E+00  0.23588883674E+02  0.51100000000E-03 0. -1.
        -11    1    3    3    0    0  0.26701389655E+01 -0.11976052772E+01  0.17047349321E+01  0.33867420842E+01  0.51100000000E-03 0.  1.
         12    1    3    3    0    0  0.11108407624E+02 -0.15569569969E+02  0.12465394138E+01  0.19166692189E+02  0.00000000000E+00 0. -1.
</event>
<event>
 7    1  0.2001181E-008  0.4614232E+02  0.7816164E-02  0.1320468E+00
        -11   -1    0    0    0    0  0.00000000000E+00  0.00000000000E+00  0.45593999997E+02  0.45594000000E+02  0.51100000000E-03 0.  1.
         11   -1    0    0    0    0 -0.00000000000E+00 -0.00000000000E+00 -0.45593999997E+02  0.45594000000E+02  0.51100000000E-03 0. -1.
    9900012    2    1    2    0    0  0.57335938061E+01 -0.16945586984E+02 -0.41341099286E+02  0.46142317561E+02  0.99999981794E+01 0.  0.
        -12    1    1    2    0    0 -0.57335938061E+01  0.16945586984E+02  0.41341099286E+02  0.45045682439E+02  0.00000000000E+00 0.  1.
         11    1    3    3    0    0  0.50732817457E+01 -0.34351017000E+01 -0.10441046968E+02  0.12105931332E+02  0.51100000000E-03 0. -1.
        -11    1    3    3    0    0 -0.14829137625E+01 -0.54297553750E+01 -0.92454299103E+01  0.10824012710E+02  0.51100000000E-03 0.  1.
         12    1    3    3    0    0  0.21432258229E+01 -0.80807299092E+01 -0.21654622408E+02  0.23212373520E+02  0.00000000000E+00 0. -1.
</event>
<event>
 7    1  0.2001181E-008  0.4614232E+02  0.7816164E-02  0.1320468E+00
        -11   -1    0    0    0    0  0.00000000000E+00  0.00000000000E+00  0.45593999997E+02  0.45594000000E+02  0.51100000000E-03 0.  1.
         11   -1    0    0    0    0 -0.00000000000E+00 -0.00000000000E+00 -0.45593999997E+02  0.45594000000E+02  0.51100000000E-03 0. -1.
    9900012    2    1    2    0    0  0.38186086509E+02 -0.15635584952E+01  0.23843058528E+02  0.46142319208E+02  0.10000013193E+02 0.  0.
        -12    1    1    2    0    0 -0.38186086509E+02  0.15635584952E+01 -0.23843058528E+02  0.45045680792E+02  0.00000000000E+00 0.  1.
         11    1    3    3    0    0  0.14630515809E+02 -0.95154084454E+00  0.11668574216E+02  0.18738010762E+02  0.51100000000E-03 0. -1.
        -11    1    3    3    0    0  0.30121296751E+01  0.17407236804E+01  0.14492128465E+00  0.34819601593E+01  0.51100000000E-03 0.  1.
        -12    1    3    3    0    0  0.20543441025E+02 -0.23527413310E+01  0.12029563027E+02  0.23922348286E+02  0.00000000000E+00 0.  1.
</event>
<event>
 7    1  0.2001181E-008  0.4614232E+02  0.7816164E-02  0.1320468E+00
        -11   -1    0    0    0    0  0.00000000000E+00  0.00000000000E+00  0.45593999997E+02  0.45594000000E+02  0.51100000000E-03 0.  1.
         11   -1    0    0    0    0 -0.00000000000E+00 -0.00000000000E+00 -0.45593999997E+02  0.45594000000E+02  0.51100000000E-03 0. -1.
    9900012    2    1    2    0    0  0.26373335223E+02  0.29940705739E+02 -0.20907290311E+02  0.46142318086E+02  0.10000002965E+02 0.  0.
        -12    1    1    2    0    0 -0.26373335223E+02 -0.29940705739E+02  0.20907290311E+02  0.45045681914E+02  0.00000000000E+00 0.  1.
         11    1    3    3    0    0  0.45656576694E-01  0.42530045045E+00  0.96393250827E-02  0.42785298159E+00  0.51100000000E-03 0. -1.
        -11    1    3    3    0    0  0.32547726113E+01  0.94987907526E+01 -0.62808944598E+01  0.11843572349E+02  0.51100000000E-03 0.  1.
         12    1    3    3    0    0  0.23072906035E+02  0.20016614536E+02 -0.14636035177E+02  0.33870892756E+02  0.00000000000E+00 0. -1.
</event>
<event>
 7    1  0.2001181E-008  0.4614232E+02  0.7816164E-02  0.1320468E+00
        -11   -1    0    0    0    0  0.00000000000E+00  0.00000000000E+00  0.45593999997E+02  0.45594000000E+02  0.51100000000E-03 0.  1.
         11   -1    0    0    0    0 -0.00000000000E+00 -0.00000000000E+00 -0.45593999997E+02  0.45594000000E+02  0.51100000000E-03 0. -1.
    9900012    2    1    2    0    0  0.33036145263E+02  0.80192928089E+01 -0.29553636352E+02  0.46142319046E+02  0.10000011719E+02 0.  0.
        -12    1    1    2    0    0 -0.33036145263E+02 -0.80192928089E+01  0.29553636352E+02  0.45045680954E+02  0.00000000000E+00 0.  1.
         11    1    3    3    0    0  0.57581102526E+01  0.24772809799E+01 -0.89484951820E+01  0.10925581038E+02  0.51100000000E-03 0. -1.
        -11    1    3    3    0    0  0.83185212545E+01  0.32756056970E+01 -0.35662203935E+01  0.96252437216E+01  0.51100000000E-03 0.  1.
        -12    1    3    3    0    0  0.18959513756E+02  0.22664061321E+01 -0.17038920776E+02  0.25591494287E+02  0.00000000000E+00 0.  1.
</event>
<event>
 7    1  0.2001181E-008  0.4614232E+02  0.7816164E-02  0.1320468E+00
        -11   -1    0    0    0    0  0.00000000000E+00  0.00000000000E+00  0.45593999997E+02  0.45594000000E+02  0.51100000000E-03 0.  1.
         11   -1    0    0    0    0 -0.00000000000E+00 -0.00000000000E+00 -0.45593999997E+02  0.45594000000E+02  0.51100000000E-03 0. -1.
    9900012    2    1    2    0    0  0.24722005944E+02  0.64859511694E+01 -0.37092697955E+02  0.46142318942E+02  0.10000010765E+02 0.  0.
        -12    1    1    2    0    0 -0.24722005944E+02 -0.64859511694E+01  0.37092697955E+02  0.45045681058E+02  0.00000000000E+00 0.  1.
         11    1    3    3    0    0  0.90649266429E+01  0.13374381838E+01 -0.16256180382E+02  0.18660788751E+02  0.51100000000E-03 0. -1.
        -11    1    3    3    0    0  0.41519636075E+01  0.16434891751E+01 -0.11241487931E+02  0.12095904664E+02  0.51100000000E-03 0.  1.
         12    1    3    3    0    0  0.11505115694E+02  0.35050238105E+01 -0.95950296416E+01  0.15385625527E+02  0.00000000000E+00 0. -1.
</event>
<event>
 7    1  0.2001181E-008  0.4614232E+02  0.7816164E-02  0.1320468E+00
        -11   -1    0    0    0    0  0.00000000000E+00  0.00000000000E+00  0.45593999997E+02  0.45594000000E+02  0.51100000000E-03 0.  1.
         11   -1    0    0    0    0 -0.00000000000E+00 -0.00000000000E+00 -0.45593999997E+02  0.45594000000E+02  0.51100000000E-03 0. -1.
    9900012    2    1    2    0    0  0.33702874265E+02  0.18365168473E+02 -0.23578598979E+02  0.46142317892E+02  0.10000001196E+02 0.  0.
        -12    1    1    2    0    0 -0.33702874265E+02 -0.18365168473E+02  0.23578598979E+02  0.45045682108E+02  0.00000000000E+00 0.  1.
         11    1    3    3    0    0  0.19874341329E+02  0.55705712529E+01 -0.13101028013E+02  0.24447037501E+02  0.51100000000E-03 0.  1.
        -11    1    3    3    0    0  0.12748272696E+02  0.10941964936E+02 -0.87547912328E+01  0.18944429872E+02  0.51100000000E-03 0. -1.
        -12    1    3    3    0    0  0.10802602396E+01  0.18526322841E+01 -0.17227797337E+01  0.27508505187E+01  0.00000000000E+00 0.  1.
</event>
<event>
 7    1  0.2001181E-008  0.4614232E+02  0.7816164E-02  0.1320468E+00
        -11   -1    0    0    0    0  0.00000000000E+00  0.00000000000E+00  0.45593999997E+02  0.45594000000E+02  0.51100000000E-03 0.  1.
         11   -1    0    0    0    0 -0.00000000000E+00 -0.00000000000E+00 -0.45593999997E+02  0.45594000000E+02  0.51100000000E-03 0. -1.
    9900012    2    1    2    0    0  0.37011628398E+02  0.24937645887E+02 -0.61128238028E+01  0.46142318366E+02  0.10000005516E+02 0.  0.
        -12    1    1    2    0    0 -0.37011628398E+02 -0.24937645887E+02  0.61128238028E+01  0.45045681634E+02  0.00000000000E+00 0.  1.
         11    1    3    3    0    0  0.30584437288E+01  0.45939759634E+01 -0.53330583511E+00  0.55446468390E+01  0.51100000000E-03 0. -1.
        -11    1    3    3    0    0  0.14469077988E+02  0.12653013008E+02 -0.36216217576E+01  0.19559373722E+02  0.51100000000E-03 0.  1.
        -12    1    3    3    0    0  0.19484106681E+02  0.76906569161E+01 -0.19578962102E+01  0.21038297805E+02  0.00000000000E+00 0.  1.
</event>
<event>
 7    1  0.2001181E-008  0.4614232E+02  0.7816164E-02  0.1320468E+00
        -11   -1    0    0    0    0  0.00000000000E+00  0.00000000000E+00  0.45593999997E+02  0.45594000000E+02  0.51100000000E-03 0. -1.
         11   -1    0    0    0    0 -0.00000000000E+00 -0.00000000000E+00 -0.45593999997E+02  0.45594000000E+02  0.51100000000E-03 0.  1.
    9900012    2    1    2    0    0 -0.21466619533E+02  0.29489266115E+02  0.26432569795E+02  0.46142319673E+02  0.10000017432E+02 0.  0.
        -12    1    1    2    0    0  0.21466619533E+02 -0.29489266115E+02 -0.26432569795E+02  0.45045680327E+02  0.00000000000E+00 0.  1.
         11    1    3    3    0    0 -0.32506284805E+01  0.65092559216E+00  0.29950744882E+01  0.44677467582E+01  0.51100000000E-03 0.  1.
        -11    1    3    3    0    0 -0.37479715301E+01  0.29303233854E+01  0.26732844780E+01  0.54571545602E+01  0.51100000000E-03 0. -1.
         12    1    3    3    0    0 -0.14468019522E+02  0.25908017137E+02  0.20764210829E+02  0.36217418354E+02  0.00000000000E+00 0. -1.
</event>
<event>
 7    1  0.2001181E-008  0.4614232E+02  0.7816164E-02  0.1320468E+00
        -11   -1    0    0    0    0  0.00000000000E+00  0.00000000000E+00  0.45593999997E+02  0.45594000000E+02  0.51100000000E-03 0. -1.
         11   -1    0    0    0    0 -0.00000000000E+00 -0.00000000000E+00 -0.45593999997E+02  0.45594000000E+02  0.51100000000E-03 0.  1.
    9900012    2    1    2    0    0 -0.41925658909E+02 -0.10772829388E+02  0.12461892257E+02  0.46142317781E+02  0.10000000181E+02 0.  0.
        -12    1    1    2    0    0  0.41925658909E+02  0.10772829388E+02 -0.12461892257E+02  0.45045682219E+02  0.00000000000E+00 0.  1.
         11    1    3    3    0    0 -0.25174488903E+02 -0.37858130025E+01  0.88238648935E+01  0.26943419670E+02  0.51100000000E-03 0. -1.
        -11    1    3    3    0    0 -0.60512436841E+01 -0.40923236860E+01  0.35311923108E+01  0.81138143109E+01  0.51100000000E-03 0.  1.
        -12    1    3    3    0    0 -0.10699926322E+02 -0.28946926991E+01  0.10683505261E+00  0.11085083800E+02  0.00000000000E+00 0.  1.
</event>
<event>
 7    1  0.2001181E-008  0.4614231E+02  0.7816164E-02  0.1320468E+00
        -11   -1    0    0    0    0  0.00000000000E+00  0.00000000000E+00  0.45593999997E+02  0.45594000000E+02  0.51100000000E-03 0.  1.
         11   -1    0    0    0    0 -0.00000000000E+00 -0.00000000000E+00 -0.45593999997E+02  0.45594000000E+02  0.51100000000E-03 0. -1.
    9900012    2    1    2    0    0 -0.18474083075E+02 -0.41003678100E+02 -0.25535247867E+01  0.46142313724E+02  0.99999631900E+01 0.  0.
        -12    1    1    2    0    0  0.18474083075E+02  0.41003678100E+02  0.25535247867E+01  0.45045686276E+02  0.00000000000E+00 0.  1.
         11    1    3    3    0    0 -0.70177444527E+00 -0.20359783009E+01 -0.16378401958E+01  0.27055897290E+01  0.51100000000E-03 0.  1.
        -11    1    3    3    0    0 -0.14949474448E+02 -0.37007403603E+02 -0.13791011796E+00  0.39913077145E+02  0.51100000000E-03 0. -1.
        -12    1    3    3    0    0 -0.28228341822E+01 -0.19602961960E+01 -0.77777447288E+00  0.35236468504E+01  0.00000000000E+00 0.  1.
</event>
<event>
 7    1  0.2001181E-008  0.4614232E+02  0.7816164E-02  0.1320468E+00
        -11   -1    0    0    0    0  0.00000000000E+00  0.00000000000E+00  0.45593999997E+02  0.45594000000E+02  0.51100000000E-03 0. -1.
         11   -1    0    0    0    0 -0.00000000000E+00 -0.00000000000E+00 -0.45593999997E+02  0.45594000000E+02  0.51100000000E-03 0.  1.
    9900012    2    1    2    0    0  0.16662082427E+02  0.40949484804E+02 -0.86387597651E+01  0.46142318000E+02  0.10000002179E+02 0.  0.
        -12    1    1    2    0    0 -0.16662082427E+02 -0.40949484804E+02  0.86387597651E+01  0.45045682000E+02  0.00000000000E+00 0.  1.
         11    1    3    3    0    0  0.14141928191E+02  0.36807092697E+02 -0.60676391960E+01  0.39894516558E+02  0.51100000000E-03 0. -1.
        -11    1    3    3    0    0  0.43039160456E+00 -0.45655884293E+00 -0.14529491374E+00  0.64404486133E+00  0.51100000000E-03 0.  1.
         12    1    3    3    0    0  0.20897626321E+01  0.45989509506E+01 -0.24258256553E+01  0.56037565806E+01  0.00000000000E+00 0. -1.
</event>
<event>
 7    1  0.2001181E-008  0.4614232E+02  0.7816164E-02  0.1320468E+00
        -11   -1    0    0    0    0  0.00000000000E+00  0.00000000000E+00  0.45593999997E+02  0.45594000000E+02  0.51100000000E-03 0. -1.
         11   -1    0    0    0    0 -0.00000000000E+00 -0.00000000000E+00 -0.45593999997E+02  0.45594000000E+02  0.51100000000E-03 0.  1.
    9900012    2    1    2    0    0  0.38567621272E+02 -0.18602929613E+02  0.13985086985E+02  0.46142322530E+02  0.10000043483E+02 0.  0.
        -12    1    1    2    0    0 -0.38567621272E+02  0.18602929613E+02 -0.13985086985E+02  0.45045677470E+02  0.00000000000E+00 0.  1.
         11    1    3    3    0    0  0.45578640314E+01 -0.14076289634E+01  0.22899107880E+00  0.47757702000E+01  0.51100000000E-03 0. -1.
        -11    1    3    3    0    0  0.11717297273E+02 -0.47059079631E+01  0.86582746576E+01  0.15310334597E+02  0.51100000000E-03 0.  1.
        -12    1    3    3    0    0  0.22292459967E+02 -0.12489392686E+02  0.50978212489E+01  0.26056217733E+02  0.00000000000E+00 0.  1.
</event>
<event>
 7    1  0.2001181E-008  0.4614231E+02  0.7816164E-02  0.1320468E+00
        -11   -1    0    0    0    0  0.00000000000E+00  0.00000000000E+00  0.45593999997E+02  0.45594000000E+02  0.51100000000E-03 0.  1.
         11   -1    0    0    0    0 -0.00000000000E+00 -0.00000000000E+00 -0.45593999997E+02  0.45594000000E+02  0.51100000000E-03 0. -1.
    9900012    2    1    2    0    0  0.43579376334E+02  0.10244741038E+02 -0.49997247943E+01  0.46142311987E+02  0.99999473440E+01 0.  0.
        -12    1    1    2    0    0 -0.43579376334E+02 -0.10244741038E+02  0.49997247943E+01  0.45045688013E+02  0.00000000000E+00 0.  1.
         11    1    3    3    0    0  0.26524255941E+02  0.98219353854E+01  0.26606234999E+00  0.28285638713E+02  0.51100000000E-03 0.  1.
        -11    1    3    3    0    0  0.58866168924E+01  0.20906593241E+00 -0.19387998735E+01  0.62012024812E+01  0.51100000000E-03 0. -1.
        -12    1    3    3    0    0  0.11168503500E+02  0.21373971987E+00 -0.33269872708E+01  0.11655470793E+02  0.00000000000E+00 0.  1.
</event>
<event>
 7    1  0.2001181E-008  0.4614232E+02  0.7816164E-02  0.1320468E+00
        -11   -1    0    0    0    0  0.00000000000E+00  0.00000000000E+00  0.45593999997E+02  0.45594000000E+02  0.51100000000E-03 0.  1.
         11   -1    0    0    0    0 -0.00000000000E+00 -0.00000000000E+00 -0.45593999997E+02  0.45594000000E+02  0.51100000000E-03 0. -1.
    9900012    2    1    2    0    0  0.27500503374E+02  0.23473379504E+02 -0.26867013628E+02  0.46142315940E+02  0.99999833935E+01 0.  0.
        -12    1    1    2    0    0 -0.27500503374E+02 -0.23473379504E+02  0.26867013628E+02  0.45045684060E+02  0.00000000000E+00 0.  1.
         11    1    3    3    0    0  0.96400646792E+01  0.98742726900E+01 -0.10247111135E+02  0.17188234204E+02  0.51100000000E-03 0. -1.
        -11    1    3    3    0    0  0.58018381713E+01  0.71613530710E+01 -0.10517191728E+02  0.13984192006E+02  0.51100000000E-03 0.  1.
        -12    1    3    3    0    0  0.12058600523E+02  0.64377537426E+01 -0.61027107657E+01  0.14969889730E+02  0.00000000000E+00 0.  1.
</event>
<event>
 7    1  0.2001181E-008  0.4614232E+02  0.7816164E-02  0.1320468E+00
        -11   -1    0    0    0    0  0.00000000000E+00  0.00000000000E+00  0.45593999997E+02  0.45594000000E+02  0.51100000000E-03 0. -1.
         11   -1    0    0    0    0 -0.00000000000E+00 -0.00000000000E+00 -0.45593999997E+02  0.45594000000E+02  0.51100000000E-03 0.  1.
    9900012    2    1    2    0    0 -0.37591283219E+02 -0.72043184915E+01  0.23750931725E+02  0.46142317224E+02  0.99999951013E+01 0.  0.
        -12    1    1    2    0    0  0.37591283219E+02  0.72043184915E+01 -0.23750931725E+02  0.45045682776E+02  0.00000000000E+00 0.  1.
         11    1    3    3    0    0 -0.98053760528E+01  0.22008469931E+01  0.62357839700E+01  0.11826839350E+02  0.51100000000E-03 0. -1.
        -11    1    3    3    0    0 -0.74650778673E+01 -0.15727559459E+01  0.33230205635E+01  0.83212628102E+01  0.51100000000E-03 0.  1.
         12    1    3    3    0    0 -0.20320829298E+02 -0.78324095387E+01  0.14192127192E+02  0.25994215064E+02  0.00000000000E+00 0. -1.
</event>
<event>
 7    1  0.2001181E-008  0.4614232E+02  0.7816164E-02  0.1320468E+00
        -11   -1    0    0    0    0  0.00000000000E+00  0.00000000000E+00  0.45593999997E+02  0.45594000000E+02  0.51100000000E-03 0. -1.
         11   -1    0    0    0    0 -0.00000000000E+00 -0.00000000000E+00 -0.45593999997E+02  0.45594000000E+02  0.51100000000E-03 0.  1.
    9900012    2    1    2    0    0  0.13056615702E+02 -0.41840100887E+02  0.10394425815E+02  0.46142319365E+02  0.10000014625E+02 0.  0.
        -12    1    1    2    0    0 -0.13056615702E+02  0.41840100887E+02 -0.10394425815E+02  0.45045680635E+02  0.00000000000E+00 0.  1.
         11    1    3    3    0    0  0.85483282462E+01 -0.24583069961E+02  0.22006474019E+01  0.26119802713E+02  0.51100000000E-03 0. -1.
        -11    1    3    3    0    0  0.46369360503E+01 -0.16406513658E+02  0.67395587234E+01  0.18332935346E+02  0.51100000000E-03 0.  1.
         12    1    3    3    0    0 -0.12864859424E+00 -0.85051726749E+00  0.14542196893E+01  0.16895813055E+01  0.00000000000E+00 0. -1.
</event>
<event>
 7    1  0.2001181E-008  0.4614232E+02  0.7816164E-02  0.1320468E+00
        -11   -1    0    0    0    0  0.00000000000E+00  0.00000000000E+00  0.45593999997E+02  0.45594000000E+02  0.51100000000E-03 0.  1.
         11   -1    0    0    0    0 -0.00000000000E+00 -0.00000000000E+00 -0.45593999997E+02  0.45594000000E+02  0.51100000000E-03 0. -1.
    9900012    2    1    2    0    0 -0.37352908962E+02 -0.18393093378E+02 -0.17192073163E+02  0.46142322387E+02  0.10000042184E+02 0.  0.
        -12    1    1    2    0    0  0.37352908962E+02  0.18393093378E+02  0.17192073163E+02  0.45045677613E+02  0.00000000000E+00 0.  1.
         11    1    3    3    0    0 -0.74278268974E+01 -0.49127879354E+01 -0.26587551069E+01  0.92939268716E+01  0.51100000000E-03 0.  1.
        -11    1    3    3    0    0 -0.26329730793E+02 -0.14262304622E+02 -0.11488900412E+02  0.32072774899E+02  0.51100000000E-03 0. -1.
        -12    1    3    3    0    0 -0.35953512719E+01  0.78199917954E+00 -0.30444176436E+01  0.47756206166E+01  0.00000000000E+00 0.  1.
</event>
<event>
 7    1  0.2001181E-008  0.4614232E+02  0.7816164E-02  0.1320468E+00
        -11   -1    0    0    0    0  0.00000000000E+00  0.00000000000E+00  0.45593999997E+02  0.45594000000E+02  0.51100000000E-03 0.  1.
         11   -1    0    0    0    0 -0.00000000000E+00 -0.00000000000E+00 -0.45593999997E+02  0.45594000000E+02  0.51100000000E-03 0. -1.
    9900012    2    1    2    0    0 -0.44530446108E+02  0.44039488065E+01 -0.51728239898E+01  0.46142317591E+02  0.99999984459E+01 0.  0.
        -12    1    1    2    0    0  0.44530446108E+02 -0.44039488065E+01  0.51728239898E+01  0.45045682409E+02  0.00000000000E+00 0.  1.
         11    1    3    3    0    0 -0.29357213431E+02  0.41453998913E+01 -0.73748328500E+01  0.30551898149E+02  0.51100000000E-03 0. -1.
        -11    1    3    3    0    0 -0.53756356023E+01  0.96247501833E+00 -0.24761907423E+00  0.54667295302E+01  0.51100000000E-03 0.  1.
        -12    1    3    3    0    0 -0.97975970751E+01 -0.70392610316E+00  0.24496279344E+01  0.10123689911E+02  0.00000000000E+00 0.  1.
</event>
<event>
 7    1  0.2001181E-008  0.4614232E+02  0.7816164E-02  0.1320468E+00
        -11   -1    0    0    0    0  0.00000000000E+00  0.00000000000E+00  0.45593999997E+02  0.45594000000E+02  0.51100000000E-03 0.  1.
         11   -1    0    0    0    0 -0.00000000000E+00 -0.00000000000E+00 -0.45593999997E+02  0.45594000000E+02  0.51100000000E-03 0. -1.
    9900012    2    1    2    0    0  0.25616268625E+02  0.39168121499E+01 -0.36845337348E+02  0.46142317410E+02  0.99999968005E+01 0.  0.
        -12    1    1    2    0    0 -0.25616268625E+02 -0.39168121499E+01  0.36845337348E+02  0.45045682590E+02  0.00000000000E+00 0.  1.
         11    1    3    3    0    0  0.28388613526E+01  0.20547187487E+00 -0.10369458828E+02  0.10753000936E+02  0.51100000000E-03 0. -1.
        -11    1    3    3    0    0  0.16517609283E+02  0.10021314615E+01 -0.20277697196E+02  0.26172899873E+02  0.51100000000E-03 0.  1.
        -12    1    3    3    0    0  0.62597979888E+01  0.27092088135E+01 -0.61981813234E+01  0.92164166016E+01  0.00000000000E+00 0.  1.
</event>
<event>
 7    1  0.2001181E-008  0.4614232E+02  0.7816164E-02  0.1320468E+00
        -11   -1    0    0    0    0  0.00000000000E+00  0.00000000000E+00  0.45593999997E+02  0.45594000000E+02  0.51100000000E-03 0. -1.
         11   -1    0    0    0    0 -0.00000000000E+00 -0.00000000000E+00 -0.45593999997E+02  0.45594000000E+02  0.51100000000E-03 0.  1.
    9900012    2    1    2    0    0  0.34037761721E+02  0.23875458480E+02  0.17335130856E+02  0.46142317605E+02  0.99999985808E+01 0.  0.
        -12    1    1    2    0    0 -0.34037761721E+02 -0.23875458480E+02 -0.17335130856E+02  0.45045682395E+02  0.00000000000E+00 0.  1.
         11    1    3    3    0    0  0.17866647360E+02  0.16315397472E+02  0.75515769965E+01  0.25346313301E+02  0.51100000000E-03 0. -1.
        -11    1    3    3    0    0  0.94115655489E+00 -0.49688999613E+00  0.98291344565E+00  0.14487216544E+01  0.51100000000E-03 0.  1.
         12    1    3    3    0    0  0.15229957806E+02  0.80569510044E+01  0.88006404134E+01  0.19347282650E+02  0.00000000000E+00 0. -1.
</event>
<event>
 7    1  0.2001181E-008  0.4614232E+02  0.7816164E-02  0.1320468E+00
        -11   -1    0    0    0    0  0.00000000000E+00  0.00000000000E+00  0.45593999997E+02  0.45594000000E+02  0.51100000000E-03 0. -1.
         11   -1    0    0    0    0 -0.00000000000E+00 -0.00000000000E+00 -0.45593999997E+02  0.45594000000E+02  0.51100000000E-03 0.  1.
    9900012    2    1    2    0    0 -0.19782921810E+01  0.28349690083E+02  0.34949890460E+02  0.46142318620E+02  0.10000007836E+02 0.  0.
        -12    1    1    2    0    0  0.19782921810E+01 -0.28349690083E+02 -0.34949890460E+02  0.45045681380E+02  0.00000000000E+00 0.  1.
         11    1    3    3    0    0  0.66406280831E+00  0.50124967427E+01  0.16841951629E+01  0.53294105319E+01  0.51100000000E-03 0. -1.
        -11    1    3    3    0    0  0.21634514895E+00  0.23114525283E+01  0.45487346549E+01  0.51069173907E+01  0.51100000000E-03 0.  1.
        -12    1    3    3    0    0 -0.28587001382E+01  0.21025740812E+02  0.28716960642E+02  0.35705990698E+02  0.00000000000E+00 0.  1.
</event>
<event>
 7    1  0.2001181E-008  0.4614232E+02  0.7816164E-02  0.1320468E+00
        -11   -1    0    0    0    0  0.00000000000E+00  0.00000000000E+00  0.45593999997E+02  0.45594000000E+02  0.51100000000E-03 0.  1.
         11   -1    0    0    0    0 -0.00000000000E+00 -0.00000000000E+00 -0.45593999997E+02  0.45594000000E+02  0.51100000000E-03 0. -1.
    9900012    2    1    2    0    0  0.22535682719E+02 -0.12808916799E+02 -0.36840034473E+02  0.46142317796E+02  0.10000000321E+02 0.  0.
        -12    1    1    2    0    0 -0.22535682719E+02  0.12808916799E+02  0.36840034473E+02  0.45045682204E+02  0.00000000000E+00 0.  1.
         11    1    3    3    0    0  0.11379694637E+01  0.83467445403E+00 -0.12697132431E+01  0.18983750750E+01  0.51100000000E-03 0. -1.
        -11    1    3    3    0    0  0.48827048147E+01 -0.49416636599E+01 -0.14600716100E+02  0.16169160675E+02  0.51100000000E-03 0.  1.
         12    1    3    3    0    0  0.16515008441E+02 -0.87019275932E+01 -0.20969605131E+02  0.28074782047E+02  0.00000000000E+00 0. -1.
</event>
<event>
 7    1  0.2001181E-008  0.4614232E+02  0.7816164E-02  0.1320468E+00
        -11   -1    0    0    0    0  0.00000000000E+00  0.00000000000E+00  0.45593999997E+02  0.45594000000E+02  0.51100000000E-03 0.  1.
         11   -1    0    0    0    0 -0.00000000000E+00 -0.00000000000E+00 -0.45593999997E+02  0.45594000000E+02  0.51100000000E-03 0. -1.
    9900012    2    1    2    0    0 -0.43225886448E+02  0.10845721854E+02 -0.65579421267E+01  0.46142317114E+02  0.99999940977E+01 0.  0.
        -12    1    1    2    0    0  0.43225886448E+02 -0.10845721854E+02  0.65579421267E+01  0.45045682886E+02  0.00000000000E+00 0.  1.
         11    1    3    3    0    0 -0.13307068087E+01  0.38232175876E-01  0.31410095736E+00  0.13678091908E+01  0.51100000000E-03 0. -1.
        -11    1    3    3    0    0 -0.18127219829E+02  0.47771792337E+01  0.16408649206E+01  0.18817810130E+02  0.51100000000E-03 0.  1.
         12    1    3    3    0    0 -0.23767959811E+02  0.60303104443E+01 -0.85129080046E+01  0.25956697793E+02  0.00000000000E+00 0. -1.
</event>
<event>
 7    1  0.2001181E-008  0.4614232E+02  0.7816164E-02  0.1320468E+00
        -11   -1    0    0    0    0  0.00000000000E+00  0.00000000000E+00  0.45593999997E+02  0.45594000000E+02  0.51100000000E-03 0.  1.
         11   -1    0    0    0    0 -0.00000000000E+00 -0.00000000000E+00 -0.45593999997E+02  0.45594000000E+02  0.51100000000E-03 0. -1.
    9900012    2    1    2    0    0  0.41537688182E+02 -0.14487623436E+02 -0.96872475020E+01  0.46142317227E+02  0.99999951288E+01 0.  0.
        -12    1    1    2    0    0 -0.41537688182E+02  0.14487623436E+02  0.96872475020E+01  0.45045682773E+02  0.00000000000E+00 0.  1.
         11    1    3    3    0    0  0.47438018174E+01 -0.27647440437E+01 -0.16690233998E+00  0.54932068923E+01  0.51100000000E-03 0. -1.
        -11    1    3    3    0    0  0.44930433337E+01 -0.42540892180E+01 -0.29351312681E+01  0.68483362428E+01  0.51100000000E-03 0.  1.
         12    1    3    3    0    0  0.32300843031E+02 -0.74687901748E+01 -0.65852138940E+01  0.33800774092E+02  0.00000000000E+00 0. -1.
</event>
<event>
 7    1  0.2001181E-008  0.4614232E+02  0.7816164E-02  0.1320468E+00
        -11   -1    0    0    0    0  0.00000000000E+00  0.00000000000E+00  0.45593999997E+02  0.45594000000E+02  0.51100000000E-03 0. -1.
         11   -1    0    0    0    0 -0.00000000000E+00 -0.00000000000E+00 -0.45593999997E+02  0.45594000000E+02  0.51100000000E-03 0.  1.
    9900012    2    1    2    0    0 -0.43031326843E+02  0.41271962740E+01  0.12664306963E+02  0.46142317523E+02  0.99999978333E+01 0.  0.
        -12    1    1    2    0    0  0.43031326843E+02 -0.41271962740E+01 -0.12664306963E+02  0.45045682477E+02  0.00000000000E+00 0.  1.
         11    1    3    3    0    0 -0.13767237429E+02  0.17955498490E+01  0.39304923123E+01  0.14429469698E+02  0.51100000000E-03 0. -1.
        -11    1    3    3    0    0 -0.21027063920E+02 -0.61422406657E+00  0.29892884038E+01  0.21247365336E+02  0.51100000000E-03 0.  1.
         12    1    3    3    0    0 -0.82370254937E+01  0.29458704916E+01  0.57445262472E+01  0.10465482490E+02  0.00000000000E+00 0. -1.
</event>
<event>
 7    1  0.2001181E-008  0.4614232E+02  0.7816164E-02  0.1320468E+00
        -11   -1    0    0    0    0  0.00000000000E+00  0.00000000000E+00  0.45593999997E+02  0.45594000000E+02  0.51100000000E-03 0. -1.
         11   -1    0    0    0    0 -0.00000000000E+00 -0.00000000000E+00 -0.45593999997E+02  0.45594000000E+02  0.51100000000E-03 0.  1.
    9900012    2    1    2    0    0  0.30173295483E+02  0.31233031160E+02  0.11965930779E+02  0.46142317686E+02  0.99999993116E+01 0.  0.
        -12    1    1    2    0    0 -0.30173295483E+02 -0.31233031160E+02 -0.11965930779E+02  0.45045682314E+02  0.00000000000E+00 0.  1.
         11    1    3    3    0    0  0.34234308142E+00  0.20813930874E+01  0.13208321230E+01  0.24887735389E+01  0.51100000000E-03 0. -1.
        -11    1    3    3    0    0  0.14287820701E+02  0.90052725306E+01  0.44231776154E+01  0.17458558194E+02  0.51100000000E-03 0.  1.
         12    1    3    3    0    0  0.15543131700E+02  0.20146365542E+02  0.62219210407E+01  0.26194985952E+02  0.00000000000E+00 0. -1.
</event>
<event>
 7    1  0.2001181E-008  0.4614232E+02  0.7816164E-02  0.1320468E+00
        -11   -1    0    0    0    0  0.00000000000E+00  0.00000000000E+00  0.45593999997E+02  0.45594000000E+02  0.51100000000E-03 0. -1.
         11   -1    0    0    0    0 -0.00000000000E+00 -0.00000000000E+00 -0.45593999997E+02  0.45594000000E+02  0.51100000000E-03 0.  1.
    9900012    2    1    2    0    0 -0.24362799052E+02  0.37888783303E+02  0.87421160035E-01  0.46142317406E+02  0.99999967653E+01 0.  0.
        -12    1    1    2    0    0  0.24362799052E+02 -0.37888783303E+02 -0.87421160035E-01  0.45045682594E+02  0.00000000000E+00 0.  1.
         11    1    3    3    0    0 -0.58741888588E+01  0.12110083283E+02  0.94777209350E+00  0.13492904953E+02  0.51100000000E-03 0. -1.
        -11    1    3    3    0    0 -0.15259118584E+02  0.16475996930E+02  0.15543839408E+01  0.22510337281E+02  0.51100000000E-03 0.  1.
        -12    1    3    3    0    0 -0.32294916095E+01  0.93027030901E+01 -0.24147348742E+01  0.10139075172E+02  0.00000000000E+00 0.  1.
</event>
<event>
 7    1  0.2001181E-008  0.4614231E+02  0.7816164E-02  0.1320468E+00
        -11   -1    0    0    0    0  0.00000000000E+00  0.00000000000E+00  0.45593999997E+02  0.45594000000E+02  0.51100000000E-03 0. -1.
         11   -1    0    0    0    0 -0.00000000000E+00 -0.00000000000E+00 -0.45593999997E+02  0.45594000000E+02  0.51100000000E-03 0.  1.
    9900012    2    1    2    0    0 -0.13219453269E+01  0.44859498014E+02 -0.38719070269E+01  0.46142314685E+02  0.99999719459E+01 0.  0.
        -12    1    1    2    0    0  0.13219453269E+01 -0.44859498014E+02  0.38719070269E+01  0.45045685315E+02  0.00000000000E+00 0.  1.
         11    1    3    3    0    0 -0.47913855400E-02  0.28077983850E+02 -0.58529716087E+01  0.28681535470E+02  0.51100000000E-03 0. -1.
        -11    1    3    3    0    0  0.80305752278E+00  0.56030297471E+00 -0.21770008632E-01  0.97944627354E+00  0.51100000000E-03 0.  1.
         12    1    3    3    0    0 -0.21202114641E+01  0.16221211189E+02  0.20028345904E+01  0.16481332941E+02  0.00000000000E+00 0. -1.
</event>
<event>
 7    1  0.2001181E-008  0.4614230E+02  0.7816164E-02  0.1320468E+00
        -11   -1    0    0    0    0  0.00000000000E+00  0.00000000000E+00  0.45593999997E+02  0.45594000000E+02  0.51100000000E-03 0.  1.
         11   -1    0    0    0    0 -0.00000000000E+00 -0.00000000000E+00 -0.45593999997E+02  0.45594000000E+02  0.51100000000E-03 0. -1.
    9900012    2    1    2    0    0 -0.11076236037E+02  0.32077601080E+01 -0.43544712538E+02  0.46142304094E+02  0.99998753709E+01 0.  0.
        -12    1    1    2    0    0  0.11076236037E+02 -0.32077601080E+01  0.43544712538E+02  0.45045695906E+02  0.00000000000E+00 0.  1.
         11    1    3    3    0    0 -0.44322221902E+01 -0.43925603750E+00 -0.24306382066E+02  0.24711085545E+02  0.51100000000E-03 0. -1.
        -11    1    3    3    0    0  0.50057188479E-01  0.18005349244E+01 -0.81601296747E+01  0.83565631874E+01  0.51100000000E-03 0.  1.
        -12    1    3    3    0    0 -0.66940710349E+01  0.18464812211E+01 -0.11078200798E+02  0.13074655362E+02  0.00000000000E+00 0.  1.
</event>
<event>
 7    1  0.2001181E-008  0.4614232E+02  0.7816164E-02  0.1320468E+00
        -11   -1    0    0    0    0  0.00000000000E+00  0.00000000000E+00  0.45593999997E+02  0.45594000000E+02  0.51100000000E-03 0. -1.
         11   -1    0    0    0    0 -0.00000000000E+00 -0.00000000000E+00 -0.45593999997E+02  0.45594000000E+02  0.51100000000E-03 0.  1.
    9900012    2    1    2    0    0 -0.19421421027E+02 -0.39758904877E+02  0.84351273830E+01  0.46142317790E+02  0.10000000267E+02 0.  0.
        -12    1    1    2    0    0  0.19421421027E+02  0.39758904877E+02 -0.84351273830E+01  0.45045682210E+02  0.00000000000E+00 0.  1.
         11    1    3    3    0    0 -0.38484716345E+01 -0.10333218398E+02 -0.27788065597E+00  0.11030111256E+02  0.51100000000E-03 0. -1.
        -11    1    3    3    0    0 -0.89176159119E+01 -0.20612265042E+02  0.86534181913E+01  0.24068049160E+02  0.51100000000E-03 0.  1.
        -12    1    3    3    0    0 -0.66553334810E+01 -0.88134214366E+01  0.59589847655E-01  0.11044157375E+02  0.00000000000E+00 0.  1.
</event>
<event>
 7    1  0.2001181E-008  0.4614232E+02  0.7816164E-02  0.1320468E+00
        -11   -1    0    0    0    0  0.00000000000E+00  0.00000000000E+00  0.45593999997E+02  0.45594000000E+02  0.51100000000E-03 0. -1.
         11   -1    0    0    0    0 -0.00000000000E+00 -0.00000000000E+00 -0.45593999997E+02  0.45594000000E+02  0.51100000000E-03 0.  1.
    9900012    2    1    2    0    0  0.33627410778E+02  0.21333830263E+01  0.29895809120E+02  0.46142317835E+02  0.10000000677E+02 0.  0.
        -12    1    1    2    0    0 -0.33627410778E+02 -0.21333830263E+01 -0.29895809120E+02  0.45045682165E+02  0.00000000000E+00 0.  1.
         11    1    3    3    0    0  0.10232292443E+02 -0.28847933981E+01  0.89545158719E+01  0.13899827206E+02  0.51100000000E-03 0. -1.
        -11    1    3    3    0    0  0.81012767909E+01  0.37009113434E+01  0.10002866841E+02  0.13393460185E+02  0.51100000000E-03 0.  1.
         12    1    3    3    0    0  0.15293841544E+02  0.13172650809E+01  0.10938426407E+02  0.18849030445E+02  0.00000000000E+00 0. -1.
</event>
<event>
 7    1  0.2001181E-008  0.4614232E+02  0.7816164E-02  0.1320468E+00
        -11   -1    0    0    0    0  0.00000000000E+00  0.00000000000E+00  0.45593999997E+02  0.45594000000E+02  0.51100000000E-03 0.  1.
         11   -1    0    0    0    0 -0.00000000000E+00 -0.00000000000E+00 -0.45593999997E+02  0.45594000000E+02  0.51100000000E-03 0. -1.
    9900012    2    1    2    0    0  0.21830085979E+02  0.11138391447E+02 -0.37795463517E+02  0.46142317850E+02  0.10000000814E+02 0.  0.
        -12    1    1    2    0    0 -0.21830085979E+02 -0.11138391447E+02  0.37795463517E+02  0.45045682150E+02  0.00000000000E+00 0.  1.
         11    1    3    3    0    0  0.14157325760E+02  0.49022625215E+01 -0.27978526363E+02  0.31737359503E+02  0.51100000000E-03 0. -1.
        -11    1    3    3    0    0  0.49266307883E+01  0.16684323765E+01 -0.45239862450E+01  0.68936064092E+01  0.51100000000E-03 0.  1.
         12    1    3    3    0    0  0.27461294302E+01  0.45676965495E+01 -0.52929509083E+01  0.75113519378E+01  0.00000000000E+00 0. -1.
</event>
<event>
 7    1  0.2001181E-008  0.4614232E+02  0.7816164E-02  0.1320468E+00
        -11   -1    0    0    0    0  0.00000000000E+00  0.00000000000E+00  0.45593999997E+02  0.45594000000E+02  0.51100000000E-03 0.  1.
         11   -1    0    0    0    0 -0.00000000000E+00 -0.00000000000E+00 -0.45593999997E+02  0.45594000000E+02  0.51100000000E-03 0. -1.
    9900012    2    1    2    0    0 -0.30216462434E+02 -0.23960361482E+02 -0.23280463834E+02  0.46142317402E+02  0.99999967224E+01 0.  0.
        -12    1    1    2    0    0  0.30216462434E+02  0.23960361482E+02  0.23280463834E+02  0.45045682598E+02  0.00000000000E+00 0.  1.
         11    1    3    3    0    0 -0.19403702388E+02 -0.19910608662E+02 -0.14887149569E+02  0.31536696501E+02  0.51100000000E-03 0. -1.
        -11    1    3    3    0    0 -0.27900330300E+01 -0.21425618681E+01 -0.37507513787E+01  0.51422749667E+01  0.51100000000E-03 0.  1.
        -12    1    3    3    0    0 -0.80227270167E+01 -0.19071909523E+01 -0.46425628864E+01  0.94633459340E+01  0.00000000000E+00 0.  1.
</event>
<event>
 7    1  0.2001181E-008  0.4614232E+02  0.7816164E-02  0.1320468E+00
        -11   -1    0    0    0    0  0.00000000000E+00  0.00000000000E+00  0.45593999997E+02  0.45594000000E+02  0.51100000000E-03 0.  1.
         11   -1    0    0    0    0 -0.00000000000E+00 -0.00000000000E+00 -0.45593999997E+02  0.45594000000E+02  0.51100000000E-03 0. -1.
    9900012    2    1    2    0    0  0.16843952103E+02 -0.33994463510E+02 -0.24285205377E+02  0.46142317943E+02  0.10000001663E+02 0.  0.
        -12    1    1    2    0    0 -0.16843952103E+02  0.33994463510E+02  0.24285205377E+02  0.45045682057E+02  0.00000000000E+00 0.  1.
         11    1    3    3    0    0  0.99383052124E+00 -0.38695639372E+01 -0.12663720255E+01  0.41910526765E+01  0.51100000000E-03 0. -1.
        -11    1    3    3    0    0 -0.18829529531E-01 -0.66274084926E+00 -0.27471761379E+01  0.28260497126E+01  0.51100000000E-03 0.  1.
        -12    1    3    3    0    0  0.15868951111E+02 -0.29462158723E+02 -0.20271657213E+02  0.39125215554E+02  0.00000000000E+00 0.  1.
</event>
<event>
 7    1  0.2001181E-008  0.4614232E+02  0.7816164E-02  0.1320468E+00
        -11   -1    0    0    0    0  0.00000000000E+00  0.00000000000E+00  0.45593999997E+02  0.45594000000E+02  0.51100000000E-03 0.  1.
         11   -1    0    0    0    0 -0.00000000000E+00 -0.00000000000E+00 -0.45593999997E+02  0.45594000000E+02  0.51100000000E-03 0. -1.
    9900012    2    1    2    0    0  0.34621750204E+02  0.16860237913E+02 -0.23370496424E+02  0.46142319710E+02  0.10000017767E+02 0.  0.
        -12    1    1    2    0    0 -0.34621750204E+02 -0.16860237913E+02  0.23370496424E+02  0.45045680290E+02  0.00000000000E+00 0.  1.
         11    1    3    3    0    0  0.11428601332E+02  0.37251383327E+01 -0.26660223885E+01  0.12312483894E+02  0.51100000000E-03 0. -1.
        -11    1    3    3    0    0  0.91636250899E+01  0.46688506682E+01 -0.92990185980E+01  0.13865133916E+02  0.51100000000E-03 0.  1.
         12    1    3    3    0    0  0.14029523783E+02  0.84662489121E+01 -0.11405455438E+02  0.19964701900E+02  0.00000000000E+00 0. -1.
</event>
<event>
 7    1  0.2001181E-008  0.4614232E+02  0.7816164E-02  0.1320468E+00
        -11   -1    0    0    0    0  0.00000000000E+00  0.00000000000E+00  0.45593999997E+02  0.45594000000E+02  0.51100000000E-03 0. -1.
         11   -1    0    0    0    0 -0.00000000000E+00 -0.00000000000E+00 -0.45593999997E+02  0.45594000000E+02  0.51100000000E-03 0.  1.
    9900012    2    1    2    0    0  0.44220514626E+02 -0.85640963859E+01 -0.56203142932E+00  0.46142317188E+02  0.99999947759E+01 0.  0.
        -12    1    1    2    0    0 -0.44220514626E+02  0.85640963859E+01  0.56203142932E+00  0.45045682812E+02  0.00000000000E+00 0.  1.
         11    1    3    3    0    0  0.62211150425E+01 -0.18024405670E+00 -0.17187815376E+01  0.64566996621E+01  0.51100000000E-03 0. -1.
        -11    1    3    3    0    0  0.47362559702E+01  0.14783220735E+01 -0.18837604055E+00  0.49651830341E+01  0.51100000000E-03 0.  1.
         12    1    3    3    0    0  0.33263143613E+02 -0.98621744027E+01  0.13451261488E+01  0.34720434492E+02  0.00000000000E+00 0. -1.
</event>
<event>
 7    1  0.2001181E-008  0.4614231E+02  0.7816164E-02  0.1320468E+00
        -11   -1    0    0    0    0  0.00000000000E+00  0.00000000000E+00  0.45593999997E+02  0.45594000000E+02  0.51100000000E-03 0.  1.
         11   -1    0    0    0    0 -0.00000000000E+00 -0.00000000000E+00 -0.45593999997E+02  0.45594000000E+02  0.51100000000E-03 0. -1.
    9900012    2    1    2    0    0 -0.49758494822E+01  0.43785435922E+02 -0.93375750365E+01  0.46142314474E+02  0.99999700291E+01 0.  0.
        -12    1    1    2    0    0  0.49758494822E+01 -0.43785435922E+02  0.93375750365E+01  0.45045685526E+02  0.00000000000E+00 0.  1.
         11    1    3    3    0    0  0.31032417365E+00 -0.29367023335E+00  0.24922714686E+00  0.49462888165E+00  0.51100000000E-03 0.  1.
        -11    1    3    3    0    0 -0.93350676455E+00  0.26302727129E+02 -0.52076053190E+01  0.26829536759E+02  0.51100000000E-03 0. -1.
        -12    1    3    3    0    0 -0.43526668913E+01  0.17776379026E+02 -0.43791968643E+01  0.18818148834E+02  0.00000000000E+00 0.  1.
</event>
<event>
 7    1  0.2001181E-008  0.4614232E+02  0.7816164E-02  0.1320468E+00
        -11   -1    0    0    0    0  0.00000000000E+00  0.00000000000E+00  0.45593999997E+02  0.45594000000E+02  0.51100000000E-03 0.  1.
         11   -1    0    0    0    0 -0.00000000000E+00 -0.00000000000E+00 -0.45593999997E+02  0.45594000000E+02  0.51100000000E-03 0. -1.
    9900012    2    1    2    0    0 -0.24172150869E+02 -0.36907967960E+02 -0.90896891608E+01  0.46142318457E+02  0.10000006350E+02 0.  0.
        -12    1    1    2    0    0  0.24172150869E+02  0.36907967960E+02  0.90896891608E+01  0.45045681543E+02  0.00000000000E+00 0.  1.
         11    1    3    3    0    0 -0.46032517594E+01 -0.64150748244E+01 -0.25010972685E+01  0.82824271545E+01  0.51100000000E-03 0. -1.
        -11    1    3    3    0    0  0.52156460387E-01 -0.29299613130E-01  0.86383578516E+00  0.86590489578E+00  0.51100000000E-03 0.  1.
        -12    1    3    3    0    0 -0.19621055570E+02 -0.30463593523E+02 -0.74524276774E+01  0.36993986407E+02  0.00000000000E+00 0.  1.
</event>
<event>
 7    1  0.2001181E-008  0.4614232E+02  0.7816164E-02  0.1320468E+00
        -11   -1    0    0    0    0  0.00000000000E+00  0.00000000000E+00  0.45593999997E+02  0.45594000000E+02  0.51100000000E-03 0.  1.
         11   -1    0    0    0    0 -0.00000000000E+00 -0.00000000000E+00 -0.45593999997E+02  0.45594000000E+02  0.51100000000E-03 0. -1.
    9900012    2    1    2    0    0  0.20967848992E+02 -0.26633177431E+02 -0.29667095599E+02  0.46142318823E+02  0.10000009679E+02 0.  0.
        -12    1    1    2    0    0 -0.20967848992E+02  0.26633177431E+02  0.29667095599E+02  0.45045681177E+02  0.00000000000E+00 0.  1.
         11    1    3    3    0    0  0.14148177250E+02 -0.17619279612E+02 -0.18876697847E+02  0.29443839005E+02  0.51100000000E-03 0. -1.
        -11    1    3    3    0    0  0.42283040180E+01 -0.55993122174E+01 -0.10187159368E+02  0.12369683441E+02  0.51100000000E-03 0.  1.
        -12    1    3    3    0    0  0.25913677241E+01 -0.34145856022E+01 -0.60323838461E+00  0.43287963760E+01  0.00000000000E+00 0.  1.
</event>
<event>
 7    1  0.2001181E-008  0.4614232E+02  0.7816164E-02  0.1320468E+00
        -11   -1    0    0    0    0  0.00000000000E+00  0.00000000000E+00  0.45593999997E+02  0.45594000000E+02  0.51100000000E-03 0. -1.
         11   -1    0    0    0    0 -0.00000000000E+00 -0.00000000000E+00 -0.45593999997E+02  0.45594000000E+02  0.51100000000E-03 0.  1.
    9900012    2    1    2    0    0  0.44570544931E+02  0.28692376775E+01  0.58606794569E+01  0.46142316921E+02  0.99999923431E+01 0.  0.
        -12    1    1    2    0    0 -0.44570544931E+02 -0.28692376775E+01 -0.58606794569E+01  0.45045683079E+02  0.00000000000E+00 0.  1.
         11    1    3    3    0    0  0.37020340054E+02  0.12476550806E+01  0.60549295452E+01  0.37532977406E+02  0.51100000000E-03 0. -1.
        -11    1    3    3    0    0 -0.29333822752E+00 -0.20117791836E+00  0.39952824306E+00  0.53492331103E+00  0.51100000000E-03 0.  1.
        -12    1    3    3    0    0  0.78435431050E+01  0.18227605152E+01 -0.59377833137E+00  0.80744162044E+01  0.00000000000E+00 0.  1.
</event>
<event>
 7    1  0.2001181E-008  0.4614232E+02  0.7816164E-02  0.1320468E+00
        -11   -1    0    0    0    0  0.00000000000E+00  0.00000000000E+00  0.45593999997E+02  0.45594000000E+02  0.51100000000E-03 0.  1.
         11   -1    0    0    0    0 -0.00000000000E+00 -0.00000000000E+00 -0.45593999997E+02  0.45594000000E+02  0.51100000000E-03 0. -1.
    9900012    2    1    2    0    0 -0.43183759155E+02 -0.12467363766E+02 -0.29734316838E+01  0.46142317521E+02  0.99999978077E+01 0.  0.
        -12    1    1    2    0    0  0.43183759155E+02  0.12467363766E+02  0.29734316838E+01  0.45045682479E+02  0.00000000000E+00 0.  1.
         11    1    3    3    0    0 -0.14197213569E+02 -0.45335616108E+01 -0.28319505417E+01  0.15170168033E+02  0.51100000000E-03 0. -1.
        -11    1    3    3    0    0 -0.23317792757E+01  0.74342490511E+00  0.15375290534E+01  0.28903063905E+01  0.51100000000E-03 0.  1.
         12    1    3    3    0    0 -0.26654766310E+02 -0.86772270603E+01 -0.16790101956E+01  0.28081843097E+02  0.00000000000E+00 0. -1.
</event>
<event>
 7    1  0.2001181E-008  0.4614232E+02  0.7816164E-02  0.1320468E+00
        -11   -1    0    0    0    0  0.00000000000E+00  0.00000000000E+00  0.45593999997E+02  0.45594000000E+02  0.51100000000E-03 0. -1.
         11   -1    0    0    0    0 -0.00000000000E+00 -0.00000000000E+00 -0.45593999997E+02  0.45594000000E+02  0.51100000000E-03 0.  1.
    9900012    2    1    2    0    0 -0.27945298395E+02  0.29262918889E+02 -0.19795341964E+02  0.46142315548E+02  0.99999798219E+01 0.  0.
        -12    1    1    2    0    0  0.27945298395E+02 -0.29262918889E+02  0.19795341964E+02  0.45045684452E+02  0.00000000000E+00 0.  1.
         11    1    3    3    0    0 -0.36968990276E+01  0.46577842331E+01 -0.11843636694E+01  0.60633929400E+01  0.51100000000E-03 0. -1.
        -11    1    3    3    0    0 -0.97006054534E+01  0.61372746362E+01 -0.93724189889E+01  0.14819248432E+02  0.51100000000E-03 0.  1.
        -12    1    3    3    0    0 -0.14547793914E+02  0.18467860020E+02 -0.92385593053E+01  0.25259674176E+02  0.00000000000E+00 0.  1.
</event>
<event>
 7    1  0.2001181E-008  0.4614232E+02  0.7816164E-02  0.1320468E+00
        -11   -1    0    0    0    0  0.00000000000E+00  0.00000000000E+00  0.45593999997E+02  0.45594000000E+02  0.51100000000E-03 0.  1.
         11   -1    0    0    0    0 -0.00000000000E+00 -0.00000000000E+00 -0.45593999997E+02  0.45594000000E+02  0.51100000000E-03 0. -1.
    9900012    2    1    2    0    0 -0.30474427411E+02  0.16513883026E+02 -0.28770025335E+02  0.46142318560E+02  0.10000007285E+02 0.  0.
        -12    1    1    2    0    0  0.30474427411E+02 -0.16513883026E+02  0.28770025335E+02  0.45045681440E+02  0.00000000000E+00 0.  1.
         11    1    3    3    0    0 -0.95845431127E+00  0.22085543807E+00  0.29256351652E+00  0.10261605448E+01  0.51100000000E-03 0. -1.
        -11    1    3    3    0    0 -0.63461931142E+01  0.15712771656E+01 -0.89589494913E+01  0.11090800477E+02  0.51100000000E-03 0.  1.
         12    1    3    3    0    0 -0.23169779986E+02  0.14721750422E+02 -0.20103639360E+02  0.34025357538E+02  0.00000000000E+00 0. -1.
</event>
<event>
 7    1  0.2001181E-008  0.4614232E+02  0.7816164E-02  0.1320468E+00
        -11   -1    0    0    0    0  0.00000000000E+00  0.00000000000E+00  0.45593999997E+02  0.45594000000E+02  0.51100000000E-03 0.  1.
         11   -1    0    0    0    0 -0.00000000000E+00 -0.00000000000E+00 -0.45593999997E+02  0.45594000000E+02  0.51100000000E-03 0. -1.
    9900012    2    1    2    0    0  0.85998810162E+01  0.30582006202E+02 -0.31935817595E+02  0.46142317606E+02  0.99999985888E+01 0.  0.
        -12    1    1    2    0    0 -0.85998810162E+01 -0.30582006202E+02  0.31935817595E+02  0.45045682394E+02  0.00000000000E+00 0.  1.
         11    1    3    3    0    0  0.88683806905E+01  0.24099776267E+02 -0.28594822686E+02  0.38433205394E+02  0.51100000000E-03 0. -1.
        -11    1    3    3    0    0  0.10615443501E+01  0.27066018136E+01 -0.18015572782E+01  0.34202600299E+01  0.51100000000E-03 0.  1.
        -12    1    3    3    0    0 -0.13300440244E+01  0.37756281217E+01 -0.15394376311E+01  0.42888521821E+01  0.00000000000E+00 0.  1.
</event>
<event>
 7    1  0.2001181E-008  0.4614233E+02  0.7816164E-02  0.1320468E+00
        -11   -1    0    0    0    0  0.00000000000E+00  0.00000000000E+00  0.45593999997E+02  0.45594000000E+02  0.51100000000E-03 0.  1.
         11   -1    0    0    0    0 -0.00000000000E+00 -0.00000000000E+00 -0.45593999997E+02  0.45594000000E+02  0.51100000000E-03 0. -1.
    9900012    2    1    2    0    0  0.88603222971E+01  0.23532240513E+02 -0.37374332760E+02  0.46142329797E+02  0.10000109751E+02 0.  0.
        -12    1    1    2    0    0 -0.88603222971E+01 -0.23532240513E+02  0.37374332760E+02  0.45045670203E+02  0.00000000000E+00 0.  1.
         11    1    3    3    0    0  0.46549069581E+01  0.11334104660E+02 -0.17467513733E+02  0.21336450583E+02  0.51100000000E-03 0. -1.
        -11    1    3    3    0    0 -0.47646416070E+00  0.76717157561E+01 -0.72216404259E+01  0.10546768768E+02  0.51100000000E-03 0.  1.
        -12    1    3    3    0    0  0.46818794997E+01  0.45264200969E+01 -0.12685178602E+02  0.14259110446E+02  0.00000000000E+00 0.  1.
</event>
<event>
 7    1  0.2001181E-008  0.4614232E+02  0.7816164E-02  0.1320468E+00
        -11   -1    0    0    0    0  0.00000000000E+00  0.00000000000E+00  0.45593999997E+02  0.45594000000E+02  0.51100000000E-03 0.  1.
         11   -1    0    0    0    0 -0.00000000000E+00 -0.00000000000E+00 -0.45593999997E+02  0.45594000000E+02  0.51100000000E-03 0. -1.
    9900012    2    1    2    0    0  0.10222778483E+02  0.12102632158E+02 -0.42167933646E+02  0.46142317265E+02  0.99999954784E+01 0.  0.
        -12    1    1    2    0    0 -0.10222778483E+02 -0.12102632158E+02  0.42167933646E+02  0.45045682735E+02  0.00000000000E+00 0.  1.
         11    1    3    3    0    0  0.84647441360E+01  0.71861834314E+01 -0.22309552146E+02  0.24920057039E+02  0.51100000000E-03 0. -1.
        -11    1    3    3    0    0  0.39371700182E-01 -0.11300819999E+01 -0.21152552981E+01  0.23985288605E+01  0.51100000000E-03 0.  1.
         12    1    3    3    0    0  0.17186626464E+01  0.60465307265E+01 -0.17743126202E+02  0.18823731366E+02  0.00000000000E+00 0. -1.
</event>
<event>
 7    1  0.2001181E-008  0.4614232E+02  0.7816164E-02  0.1320468E+00
        -11   -1    0    0    0    0  0.00000000000E+00  0.00000000000E+00  0.45593999997E+02  0.45594000000E+02  0.51100000000E-03 0.  1.
         11   -1    0    0    0    0 -0.00000000000E+00 -0.00000000000E+00 -0.45593999997E+02  0.45594000000E+02  0.51100000000E-03 0. -1.
    9900012    2    1    2    0    0  0.20856733867E+02  0.53170230415E+01 -0.39570687439E+02  0.46142318897E+02  0.10000010360E+02 0.  0.
        -12    1    1    2    0    0 -0.20856733867E+02 -0.53170230415E+01  0.39570687439E+02  0.45045681103E+02  0.00000000000E+00 0.  1.
         11    1    3    3    0    0  0.62190637385E+01  0.27277950855E+01 -0.72779285283E+01  0.99541882510E+01  0.51100000000E-03 0. -1.
        -11    1    3    3    0    0  0.88173422125E+01  0.46033578772E+01 -0.16913951638E+02  0.19621880331E+02  0.51100000000E-03 0.  1.
         12    1    3    3    0    0  0.58203279164E+01 -0.20141299212E+01 -0.15378807272E+02  0.16566250315E+02  0.00000000000E+00 0. -1.
</event>
<event>
 7    1  0.2001181E-008  0.4614232E+02  0.7816164E-02  0.1320468E+00
        -11   -1    0    0    0    0  0.00000000000E+00  0.00000000000E+00  0.45593999997E+02  0.45594000000E+02  0.51100000000E-03 0.  1.
         11   -1    0    0    0    0 -0.00000000000E+00 -0.00000000000E+00 -0.45593999997E+02  0.45594000000E+02  0.51100000000E-03 0. -1.
    9900012    2    1    2    0    0  0.41728479082E+02 -0.15958083134E+02  0.57608207708E+01  0.46142318301E+02  0.10000004920E+02 0.  0.
        -12    1    1    2    0    0 -0.41728479082E+02  0.15958083134E+02 -0.57608207708E+01  0.45045681699E+02  0.00000000000E+00 0.  1.
         11    1    3    3    0    0  0.35499614651E+02 -0.10850893399E+02  0.32886143537E+01  0.37266332159E+02  0.51100000000E-03 0. -1.
        -11    1    3    3    0    0  0.54134467351E+01 -0.36749419111E+01  0.29246916405E+01  0.71668978685E+01  0.51100000000E-03 0.  1.
         12    1    3    3    0    0  0.81541769557E+00 -0.14322478246E+01 -0.45248522345E+00  0.17090882735E+01  0.00000000000E+00 0. -1.
</event>
<event>
 7    1  0.2001181E-008  0.4614232E+02  0.7816164E-02  0.1320468E+00
        -11   -1    0    0    0    0  0.00000000000E+00  0.00000000000E+00  0.45593999997E+02  0.45594000000E+02  0.51100000000E-03 0.  1.
         11   -1    0    0    0    0 -0.00000000000E+00 -0.00000000000E+00 -0.45593999997E+02  0.45594000000E+02  0.51100000000E-03 0. -1.
    9900012    2    1    2    0    0 -0.11545370651E+02 -0.20673315566E+02 -0.38320125743E+02  0.46142316556E+02  0.99999890122E+01 0.  0.
        -12    1    1    2    0    0  0.11545370651E+02  0.20673315566E+02  0.38320125743E+02  0.45045683444E+02  0.00000000000E+00 0.  1.
         11    1    3    3    0    0 -0.10510078618E+02 -0.14742357139E+02 -0.25229678996E+02  0.31053752577E+02  0.51100000000E-03 0. -1.
        -11    1    3    3    0    0 -0.18390322273E+01 -0.52583807669E+01 -0.12861118577E+02  0.14015740406E+02  0.51100000000E-03 0.  1.
        -12    1    3    3    0    0  0.80374019477E+00 -0.67257766007E+00 -0.22932816965E+00  0.10728235731E+01  0.00000000000E+00 0.  1.
</event>
<event>
 7    1  0.2001181E-008  0.4614232E+02  0.7816164E-02  0.1320468E+00
        -11   -1    0    0    0    0  0.00000000000E+00  0.00000000000E+00  0.45593999997E+02  0.45594000000E+02  0.51100000000E-03 0. -1.
         11   -1    0    0    0    0 -0.00000000000E+00 -0.00000000000E+00 -0.45593999997E+02  0.45594000000E+02  0.51100000000E-03 0.  1.
    9900012    2    1    2    0    0  0.21698233452E+02  0.31989231868E+02  0.23129830580E+02  0.46142319262E+02  0.10000013691E+02 0.  0.
        -12    1    1    2    0    0 -0.21698233452E+02 -0.31989231868E+02 -0.23129830580E+02  0.45045680738E+02  0.00000000000E+00 0.  1.
         11    1    3    3    0    0  0.94717049741E+01  0.10701685627E+02  0.47558361588E+01  0.15061781043E+02  0.51100000000E-03 0. -1.
        -11    1    3    3    0    0 -0.48901680007E+00  0.11764288029E+01  0.91751598285E+00  0.15700184709E+01  0.51100000000E-03 0.  1.
        -12    1    3    3    0    0  0.12715545278E+02  0.20111117438E+02  0.17456478438E+02  0.29510519748E+02  0.00000000000E+00 0.  1.
</event>
<event>
 7    1  0.2001181E-008  0.4614231E+02  0.7816164E-02  0.1320468E+00
        -11   -1    0    0    0    0  0.00000000000E+00  0.00000000000E+00  0.45593999997E+02  0.45594000000E+02  0.51100000000E-03 0. -1.
         11   -1    0    0    0    0 -0.00000000000E+00 -0.00000000000E+00 -0.45593999997E+02  0.45594000000E+02  0.51100000000E-03 0.  1.
    9900012    2    1    2    0    0 -0.39768450322E+02 -0.33976282656E+01  0.20881577371E+02  0.46142314386E+02  0.99999692271E+01 0.  0.
        -12    1    1    2    0    0  0.39768450322E+02  0.33976282656E+01 -0.20881577371E+02  0.45045685614E+02  0.00000000000E+00 0.  1.
         11    1    3    3    0    0 -0.10768743454E+02 -0.18582249150E-01  0.39287999725E+01  0.11463055891E+02  0.51100000000E-03 0. -1.
        -11    1    3    3    0    0 -0.29479543708E+02 -0.29819443933E+01  0.16579832693E+02  0.33953296482E+02  0.51100000000E-03 0.  1.
        -12    1    3    3    0    0  0.47983683944E+00 -0.39710162306E+00  0.37294470591E+00  0.72596201360E+00  0.00000000000E+00 0.  1.
</event>
<event>
 7    1  0.2001181E-008  0.4614232E+02  0.7816164E-02  0.1320468E+00
        -11   -1    0    0    0    0  0.00000000000E+00  0.00000000000E+00  0.45593999997E+02  0.45594000000E+02  0.51100000000E-03 0.  1.
         11   -1    0    0    0    0 -0.00000000000E+00 -0.00000000000E+00 -0.45593999997E+02  0.45594000000E+02  0.51100000000E-03 0. -1.
    9900012    2    1    2    0    0  0.72879931845E+01 -0.27891819254E+02 -0.34612787651E+02  0.46142317688E+02  0.99999993326E+01 0.  0.
        -12    1    1    2    0    0 -0.72879931845E+01  0.27891819254E+02  0.34612787651E+02  0.45045682312E+02  0.00000000000E+00 0.  1.
         11    1    3    3    0    0  0.15412807962E+01 -0.54404771934E+01 -0.95273378100E+01  0.11079011896E+02  0.51100000000E-03 0. -1.
        -11    1    3    3    0    0  0.32380289674E+01 -0.42128080772E+01 -0.97449790038E+01  0.11099423387E+02  0.51100000000E-03 0.  1.
        -12    1    3    3    0    0  0.25086834209E+01 -0.18238533984E+02 -0.15340470838E+02  0.23963882405E+02  0.00000000000E+00 0.  1.
</event>
<event>
 7    1  0.2001181E-008  0.4614232E+02  0.7816164E-02  0.1320468E+00
        -11   -1    0    0    0    0  0.00000000000E+00  0.00000000000E+00  0.45593999997E+02  0.45594000000E+02  0.51100000000E-03 0.  1.
         11   -1    0    0    0    0 -0.00000000000E+00 -0.00000000000E+00 -0.45593999997E+02  0.45594000000E+02  0.51100000000E-03 0. -1.
    9900012    2    1    2    0    0  0.19317264501E+02  0.18755071798E+02 -0.36113766947E+02  0.46142316643E+02  0.99999898072E+01 0.  0.
        -12    1    1    2    0    0 -0.19317264501E+02 -0.18755071798E+02  0.36113766947E+02  0.45045683357E+02  0.00000000000E+00 0.  1.
         11    1    3    3    0    0  0.21055941501E+01  0.16552076269E+00 -0.67143258875E+00  0.22162458867E+01  0.51100000000E-03 0. -1.
        -11    1    3    3    0    0  0.55167457574E+01  0.99856136123E+01 -0.16489925741E+02  0.20051548922E+02  0.51100000000E-03 0.  1.
         12    1    3    3    0    0  0.11694924594E+02  0.86039374226E+01 -0.18952408617E+02  0.23874521834E+02  0.00000000000E+00 0. -1.
</event>
<event>
 7    1  0.2001181E-008  0.4614232E+02  0.7816164E-02  0.1320468E+00
        -11   -1    0    0    0    0  0.00000000000E+00  0.00000000000E+00  0.45593999997E+02  0.45594000000E+02  0.51100000000E-03 0.  1.
         11   -1    0    0    0    0 -0.00000000000E+00 -0.00000000000E+00 -0.45593999997E+02  0.45594000000E+02  0.51100000000E-03 0. -1.
    9900012    2    1    2    0    0 -0.39051011455E+02 -0.10609614494E+02 -0.19788077996E+02  0.46142318230E+02  0.10000004272E+02 0.  0.
        -12    1    1    2    0    0  0.39051011455E+02  0.10609614494E+02  0.19788077996E+02  0.45045681770E+02  0.00000000000E+00 0.  1.
         11    1    3    3    0    0 -0.13092800593E+02 -0.97022847027E+00 -0.70367481263E+01  0.14895589787E+02  0.51100000000E-03 0.  1.
        -11    1    3    3    0    0 -0.24779670107E+02 -0.75240385944E+01 -0.12654620115E+02  0.28823299913E+02  0.51100000000E-03 0. -1.
        -12    1    3    3    0    0 -0.11785407555E+01 -0.21153474295E+01 -0.96709754496E-01  0.24234285293E+01  0.00000000000E+00 0.  1.
</event>
<event>
 7    1  0.2001181E-008  0.4614232E+02  0.7816164E-02  0.1320468E+00
        -11   -1    0    0    0    0  0.00000000000E+00  0.00000000000E+00  0.45593999997E+02  0.45594000000E+02  0.51100000000E-03 0.  1.
         11   -1    0    0    0    0 -0.00000000000E+00 -0.00000000000E+00 -0.45593999997E+02  0.45594000000E+02  0.51100000000E-03 0. -1.
    9900012    2    1    2    0    0 -0.12500996507E+02  0.10356610518E+02 -0.42018795198E+02  0.46142318243E+02  0.10000004393E+02 0.  0.
        -12    1    1    2    0    0  0.12500996507E+02 -0.10356610518E+02  0.42018795198E+02  0.45045681757E+02  0.00000000000E+00 0.  1.
         11    1    3    3    0    0  0.17480196562E-01  0.12320351677E+01 -0.13091245972E+02  0.13149104059E+02  0.51100000000E-03 0.  1.
        -11    1    3    3    0    0 -0.54145964266E+00  0.16735942156E+01 -0.30431421449E+01  0.35149410406E+01  0.51100000000E-03 0. -1.
         12    1    3    3    0    0 -0.11977017061E+02  0.74509811351E+01 -0.25884407081E+02  0.29478273143E+02  0.00000000000E+00 0. -1.
</event>
<event>
 7    1  0.2001181E-008  0.4614232E+02  0.7816164E-02  0.1320468E+00
        -11   -1    0    0    0    0  0.00000000000E+00  0.00000000000E+00  0.45593999997E+02  0.45594000000E+02  0.51100000000E-03 0.  1.
         11   -1    0    0    0    0 -0.00000000000E+00 -0.00000000000E+00 -0.45593999997E+02  0.45594000000E+02  0.51100000000E-03 0. -1.
    9900012    2    1    2    0    0  0.94466102770E+01 -0.36722336382E+02 -0.24317584604E+02  0.46142319230E+02  0.10000013392E+02 0.  0.
        -12    1    1    2    0    0 -0.94466102770E+01  0.36722336382E+02  0.24317584604E+02  0.45045680770E+02  0.00000000000E+00 0.  1.
         11    1    3    3    0    0  0.74974859281E+01 -0.30967860653E+02 -0.21625182856E+02  0.38508041011E+02  0.51100000000E-03 0. -1.
        -11    1    3    3    0    0  0.18894814860E+01 -0.11330595577E+01 -0.19717184126E+01  0.29566261189E+01  0.51100000000E-03 0.  1.
         12    1    3    3    0    0  0.59642862917E-01 -0.46214161710E+01 -0.72068333505E+00  0.46776520997E+01  0.00000000000E+00 0. -1.
</event>
<event>
 7    1  0.2001181E-008  0.4614232E+02  0.7816164E-02  0.1320468E+00
        -11   -1    0    0    0    0  0.00000000000E+00  0.00000000000E+00  0.45593999997E+02  0.45594000000E+02  0.51100000000E-03 0. -1.
         11   -1    0    0    0    0 -0.00000000000E+00 -0.00000000000E+00 -0.45593999997E+02  0.45594000000E+02  0.51100000000E-03 0.  1.
    9900012    2    1    2    0    0 -0.27022549111E+02  0.33169406641E+02  0.14095596084E+02  0.46142317340E+02  0.99999961555E+01 0.  0.
        -12    1    1    2    0    0  0.27022549111E+02 -0.33169406641E+02 -0.14095596084E+02  0.45045682660E+02  0.00000000000E+00 0.  1.
         11    1    3    3    0    0 -0.15952406334E+02  0.15976811588E+02  0.11159612441E+02  0.25184811424E+02  0.51100000000E-03 0. -1.
        -11    1    3    3    0    0 -0.37922065016E+00  0.19915683569E+01 -0.42645152050E+00  0.20717176405E+01  0.51100000000E-03 0.  1.
        -12    1    3    3    0    0 -0.10690922127E+02  0.15201026696E+02  0.33624351641E+01  0.18885788275E+02  0.00000000000E+00 0.  1.
</event>
<event>
 7    1  0.2001181E-008  0.4614232E+02  0.7816164E-02  0.1320468E+00
        -11   -1    0    0    0    0  0.00000000000E+00  0.00000000000E+00  0.45593999997E+02  0.45594000000E+02  0.51100000000E-03 0. -1.
         11   -1    0    0    0    0 -0.00000000000E+00 -0.00000000000E+00 -0.45593999997E+02  0.45594000000E+02  0.51100000000E-03 0.  1.
    9900012    2    1    2    0    0 -0.18515851517E+02  0.35964390143E+01  0.40906508721E+02  0.46142316669E+02  0.99999900434E+01 0.  0.
        -12    1    1    2    0    0  0.18515851517E+02 -0.35964390143E+01 -0.40906508721E+02  0.45045683331E+02  0.00000000000E+00 0.  1.
         11    1    3    3    0    0 -0.15526096321E+01 -0.17530364670E+01  0.21070859423E+01  0.31501658613E+01  0.51100000000E-03 0. -1.
        -11    1    3    3    0    0 -0.15499459718E+01  0.23360847080E+01  0.53905975743E+01  0.60760321549E+01  0.51100000000E-03 0.  1.
        -12    1    3    3    0    0 -0.15413295913E+02  0.30133907733E+01  0.33408825204E+02  0.36916118653E+02  0.00000000000E+00 0.  1.
</event>
<event>
 7    1  0.2001181E-008  0.4614232E+02  0.7816164E-02  0.1320468E+00
        -11   -1    0    0    0    0  0.00000000000E+00  0.00000000000E+00  0.45593999997E+02  0.45594000000E+02  0.51100000000E-03 0.  1.
         11   -1    0    0    0    0 -0.00000000000E+00 -0.00000000000E+00 -0.45593999997E+02  0.45594000000E+02  0.51100000000E-03 0. -1.
    9900012    2    1    2    0    0 -0.19217082093E+02 -0.22199741030E+02 -0.34161215872E+02  0.46142318566E+02  0.10000007342E+02 0.  0.
        -12    1    1    2    0    0  0.19217082093E+02  0.22199741030E+02  0.34161215872E+02  0.45045681434E+02  0.00000000000E+00 0.  1.
         11    1    3    3    0    0 -0.43396629407E+01 -0.20405406186E+01 -0.32054161859E+01  0.57681169927E+01  0.51100000000E-03 0. -1.
        -11    1    3    3    0    0 -0.11292046294E+02 -0.11012186614E+02 -0.22073529290E+02  0.27129674880E+02  0.51100000000E-03 0.  1.
        -12    1    3    3    0    0 -0.35853728588E+01 -0.91470137974E+01 -0.88822703962E+01  0.13244526694E+02  0.00000000000E+00 0.  1.
</event>
<event>
 7    1  0.2001181E-008  0.4614232E+02  0.7816164E-02  0.1320468E+00
        -11   -1    0    0    0    0  0.00000000000E+00  0.00000000000E+00  0.45593999997E+02  0.45594000000E+02  0.51100000000E-03 0. -1.
         11   -1    0    0    0    0 -0.00000000000E+00 -0.00000000000E+00 -0.45593999997E+02  0.45594000000E+02  0.51100000000E-03 0.  1.
    9900012    2    1    2    0    0 -0.31190413475E+02 -0.32109186879E+02  0.50271125718E+01  0.46142316127E+02  0.99999850988E+01 0.  0.
        -12    1    1    2    0    0  0.31190413475E+02  0.32109186879E+02 -0.50271125718E+01  0.45045683873E+02  0.00000000000E+00 0.  1.
         11    1    3    3    0    0 -0.80572253531E+01 -0.90498531160E+01  0.27692550331E+01  0.12429299880E+02  0.51100000000E-03 0. -1.
        -11    1    3    3    0    0 -0.10212892817E+02 -0.15694205384E+02  0.43542424375E+00  0.18729678504E+02  0.51100000000E-03 0.  1.
        -12    1    3    3    0    0 -0.12920295305E+02 -0.73651283794E+01  0.18224332950E+01  0.14983337743E+02  0.00000000000E+00 0.  1.
</event>
<event>
 7    1  0.2001181E-008  0.4614232E+02  0.7816164E-02  0.1320468E+00
        -11   -1    0    0    0    0  0.00000000000E+00  0.00000000000E+00  0.45593999997E+02  0.45594000000E+02  0.51100000000E-03 0. -1.
         11   -1    0    0    0    0 -0.00000000000E+00 -0.00000000000E+00 -0.45593999997E+02  0.45594000000E+02  0.51100000000E-03 0.  1.
    9900012    2    1    2    0    0 -0.39698534967E+02 -0.14849834485E+02  0.15251957755E+02  0.46142317875E+02  0.10000001039E+02 0.  0.
        -12    1    1    2    0    0  0.39698534967E+02  0.14849834485E+02 -0.15251957755E+02  0.45045682125E+02  0.00000000000E+00 0.  1.
         11    1    3    3    0    0 -0.26814789351E+02 -0.13018485872E+02  0.95867021976E+01  0.31311639395E+02  0.51100000000E-03 0. -1.
        -11    1    3    3    0    0 -0.17200343282E+01 -0.16829590728E+01  0.18385363569E+01  0.30283800171E+01  0.51100000000E-03 0.  1.
         12    1    3    3    0    0 -0.11163711288E+02 -0.14838954071E+00  0.38267192008E+01  0.11802298463E+02  0.00000000000E+00 0. -1.
</event>
<event>
 7    1  0.2001181E-008  0.4614232E+02  0.7816164E-02  0.1320468E+00
        -11   -1    0    0    0    0  0.00000000000E+00  0.00000000000E+00  0.45593999997E+02  0.45594000000E+02  0.51100000000E-03 0. -1.
         11   -1    0    0    0    0 -0.00000000000E+00 -0.00000000000E+00 -0.45593999997E+02  0.45594000000E+02  0.51100000000E-03 0.  1.
    9900012    2    1    2    0    0  0.13328065511E+02 -0.18277782833E+02  0.38953803300E+02  0.46142317998E+02  0.10000002157E+02 0.  0.
        -12    1    1    2    0    0 -0.13328065511E+02  0.18277782833E+02 -0.38953803300E+02  0.45045682002E+02  0.00000000000E+00 0.  1.
         11    1    3    3    0    0  0.14876372417E+01 -0.83488067298E+01  0.11340397641E+02  0.14160517550E+02  0.51100000000E-03 0. -1.
        -11    1    3    3    0    0  0.56726178395E+01 -0.37047097084E+01  0.78919111877E+01  0.10401236928E+02  0.51100000000E-03 0.  1.
         12    1    3    3    0    0  0.61678104295E+01 -0.62242663947E+01  0.19721494471E+02  0.21580563520E+02  0.00000000000E+00 0. -1.
</event>
<event>
 7    1  0.2001181E-008  0.4614232E+02  0.7816164E-02  0.1320468E+00
        -11   -1    0    0    0    0  0.00000000000E+00  0.00000000000E+00  0.45593999997E+02  0.45594000000E+02  0.51100000000E-03 0.  1.
         11   -1    0    0    0    0 -0.00000000000E+00 -0.00000000000E+00 -0.45593999997E+02  0.45594000000E+02  0.51100000000E-03 0. -1.
    9900012    2    1    2    0    0 -0.22923223117E+02 -0.83558787389E+01 -0.37865797640E+02  0.46142317649E+02  0.99999989761E+01 0.  0.
        -12    1    1    2    0    0  0.22923223117E+02  0.83558787389E+01  0.37865797640E+02  0.45045682351E+02  0.00000000000E+00 0.  1.
         11    1    3    3    0    0 -0.29134116302E+01 -0.99622283816E+00 -0.42869100729E+01  0.52780702444E+01  0.51100000000E-03 0.  1.
        -11    1    3    3    0    0 -0.14212249436E+02 -0.94683508639E+01 -0.25720073920E+02  0.30873287885E+02  0.51100000000E-03 0. -1.
        -12    1    3    3    0    0 -0.57975620511E+01  0.21086949632E+01 -0.78588136469E+01  0.99909595195E+01  0.00000000000E+00 0.  1.
</event>
<event>
 7    1  0.2001181E-008  0.4614232E+02  0.7816164E-02  0.1320468E+00
        -11   -1    0    0    0    0  0.00000000000E+00  0.00000000000E+00  0.45593999997E+02  0.45594000000E+02  0.51100000000E-03 0. -1.
         11   -1    0    0    0    0 -0.00000000000E+00 -0.00000000000E+00 -0.45593999997E+02  0.45594000000E+02  0.51100000000E-03 0.  1.
    9900012    2    1    2    0    0 -0.40801016066E+02 -0.11345383763E+01 -0.19055272366E+02  0.46142317695E+02  0.99999993990E+01 0.  0.
        -12    1    1    2    0    0  0.40801016066E+02  0.11345383763E+01  0.19055272366E+02  0.45045682305E+02  0.00000000000E+00 0.  1.
         11    1    3    3    0    0  0.35670446742E+00  0.49103261488E+00 -0.43684225196E-02  0.60693529324E+00  0.51100000000E-03 0. -1.
        -11    1    3    3    0    0 -0.23941098058E+02 -0.10502643961E+01 -0.13095117979E+02  0.27308631359E+02  0.51100000000E-03 0.  1.
         12    1    3    3    0    0 -0.17216622476E+02 -0.57530659508E+00 -0.59557859641E+01  0.18226751043E+02  0.00000000000E+00 0. -1.
</event>
<event>
 7    1  0.2001181E-008  0.4614232E+02  0.7816164E-02  0.1320468E+00
        -11   -1    0    0    0    0  0.00000000000E+00  0.00000000000E+00  0.45593999997E+02  0.45594000000E+02  0.51100000000E-03 0. -1.
         11   -1    0    0    0    0 -0.00000000000E+00 -0.00000000000E+00 -0.45593999997E+02  0.45594000000E+02  0.51100000000E-03 0.  1.
    9900012    2    1    2    0    0  0.37062780813E+02 -0.62311879211E+00 -0.25594442126E+02  0.46142318005E+02  0.10000002224E+02 0.  0.
        -12    1    1    2    0    0 -0.37062780813E+02  0.62311879211E+00  0.25594442126E+02  0.45045681995E+02  0.00000000000E+00 0.  1.
         11    1    3    3    0    0  0.11320126214E+02  0.37366289166E+00 -0.36943629634E+01  0.11913572068E+02  0.51100000000E-03 0. -1.
        -11    1    3    3    0    0  0.20762979183E+02  0.99139016186E+00 -0.18845871261E+02  0.28057993920E+02  0.51100000000E-03 0.  1.
        -12    1    3    3    0    0  0.49796754167E+01 -0.19881718456E+01 -0.30542079021E+01  0.61707520168E+01  0.00000000000E+00 0.  1.
</event>
<event>
 7    1  0.2001181E-008  0.4614232E+02  0.7816164E-02  0.1320468E+00
        -11   -1    0    0    0    0  0.00000000000E+00  0.00000000000E+00  0.45593999997E+02  0.45594000000E+02  0.51100000000E-03 0. -1.
         11   -1    0    0    0    0 -0.00000000000E+00 -0.00000000000E+00 -0.45593999997E+02  0.45594000000E+02  0.51100000000E-03 0.  1.
    9900012    2    1    2    0    0 -0.39465840092E+02  0.10338006041E+02  0.19096768689E+02  0.46142317883E+02  0.10000001110E+02 0.  0.
        -12    1    1    2    0    0  0.39465840092E+02 -0.10338006041E+02 -0.19096768689E+02  0.45045682117E+02  0.00000000000E+00 0.  1.
         11    1    3    3    0    0 -0.25047892178E+02  0.54318964310E+01  0.95725331021E+01  0.27359382150E+02  0.51100000000E-03 0. -1.
        -11    1    3    3    0    0 -0.93996573353E+01  0.55513810859E+01  0.50469101359E+01  0.12026749027E+02  0.51100000000E-03 0.  1.
         12    1    3    3    0    0 -0.50182905788E+01 -0.64527147550E+00  0.44773254507E+01  0.67561867057E+01  0.00000000000E+00 0. -1.
</event>
<event>
 7    1  0.2001181E-008  0.4614232E+02  0.7816164E-02  0.1320468E+00
        -11   -1    0    0    0    0  0.00000000000E+00  0.00000000000E+00  0.45593999997E+02  0.45594000000E+02  0.51100000000E-03 0.  1.
         11   -1    0    0    0    0 -0.00000000000E+00 -0.00000000000E+00 -0.45593999997E+02  0.45594000000E+02  0.51100000000E-03 0. -1.
    9900012    2    1    2    0    0 -0.26273115703E+02  0.45878284621E+01 -0.36301359881E+02  0.46142317544E+02  0.99999980188E+01 0.  0.
        -12    1    1    2    0    0  0.26273115703E+02 -0.45878284621E+01  0.36301359881E+02  0.45045682456E+02  0.00000000000E+00 0.  1.
         11    1    3    3    0    0 -0.50367432650E+00 -0.55153106230E+00 -0.10720598485E+01  0.13065936322E+01  0.51100000000E-03 0. -1.
        -11    1    3    3    0    0 -0.74056844869E+01 -0.17150196239E+01 -0.62051566629E+01  0.98127174882E+01  0.51100000000E-03 0.  1.
         12    1    3    3    0    0 -0.18363756889E+02  0.68543791483E+01 -0.29024143370E+02  0.35023006424E+02  0.00000000000E+00 0. -1.
</event>
<event>
 7    1  0.2001181E-008  0.4614232E+02  0.7816164E-02  0.1320468E+00
        -11   -1    0    0    0    0  0.00000000000E+00  0.00000000000E+00  0.45593999997E+02  0.45594000000E+02  0.51100000000E-03 0.  1.
         11   -1    0    0    0    0 -0.00000000000E+00 -0.00000000000E+00 -0.45593999997E+02  0.45594000000E+02  0.51100000000E-03 0. -1.
    9900012    2    1    2    0    0 -0.23521633308E+02  0.15150739868E+02 -0.35302993342E+02  0.46142317733E+02  0.99999997418E+01 0.  0.
        -12    1    1    2    0    0  0.23521633308E+02 -0.15150739868E+02  0.35302993342E+02  0.45045682267E+02  0.00000000000E+00 0.  1.
         11    1    3    3    0    0 -0.16234429153E+02  0.93099330957E+01 -0.21681333268E+02  0.28641085118E+02  0.51100000000E-03 0. -1.
        -11    1    3    3    0    0 -0.35648299438E+01 -0.43861223835E+00 -0.34416458260E+01  0.49744667530E+01  0.51100000000E-03 0.  1.
         12    1    3    3    0    0 -0.37223742106E+01  0.62794190104E+01 -0.10180014248E+02  0.12526765862E+02  0.00000000000E+00 0. -1.
</event>
<event>
 7    1  0.2001181E-008  0.4614232E+02  0.7816164E-02  0.1320468E+00
        -11   -1    0    0    0    0  0.00000000000E+00  0.00000000000E+00  0.45593999997E+02  0.45594000000E+02  0.51100000000E-03 0.  1.
         11   -1    0    0    0    0 -0.00000000000E+00 -0.00000000000E+00 -0.45593999997E+02  0.45594000000E+02  0.51100000000E-03 0. -1.
    9900012    2    1    2    0    0  0.22422632610E+02  0.18863950491E+02 -0.34212432134E+02  0.46142316591E+02  0.99999893296E+01 0.  0.
        -12    1    1    2    0    0 -0.22422632610E+02 -0.18863950491E+02  0.34212432134E+02  0.45045683409E+02  0.00000000000E+00 0.  1.
         11    1    3    3    0    0  0.42527656734E+01  0.80842247460E+01 -0.10019333935E+02  0.13558309569E+02  0.51100000000E-03 0.  1.
        -11    1    3    3    0    0  0.11714154869E+02  0.97905763557E+01 -0.17700243405E+02  0.23374674897E+02  0.51100000000E-03 0. -1.
         12    1    3    3    0    0  0.64557120675E+01  0.98914938903E+00 -0.64928547942E+01  0.92093321251E+01  0.00000000000E+00 0. -1.
</event>
<event>
 7    1  0.2001181E-008  0.4614232E+02  0.7816164E-02  0.1320468E+00
        -11   -1    0    0    0    0  0.00000000000E+00  0.00000000000E+00  0.45593999997E+02  0.45594000000E+02  0.51100000000E-03 0.  1.
         11   -1    0    0    0    0 -0.00000000000E+00 -0.00000000000E+00 -0.45593999997E+02  0.45594000000E+02  0.51100000000E-03 0. -1.
    9900012    2    1    2    0    0 -0.93547006664E+01  0.42761427761E+02 -0.10633119395E+02  0.46142319221E+02  0.10000013316E+02 0.  0.
        -12    1    1    2    0    0  0.93547006664E+01 -0.42761427761E+02  0.10633119395E+02  0.45045680779E+02  0.00000000000E+00 0.  1.
         11    1    3    3    0    0 -0.10823557274E+01  0.10677081414E+02 -0.31588464714E+01  0.11187040392E+02  0.51100000000E-03 0. -1.
        -11    1    3    3    0    0 -0.21188680685E+01  0.58099481922E+01  0.17664547820E+01  0.64315987628E+01  0.51100000000E-03 0.  1.
         12    1    3    3    0    0 -0.61534768705E+01  0.26274398155E+02 -0.92407277057E+01  0.28523680067E+02  0.00000000000E+00 0. -1.
</event>
<event>
 7    1  0.2001181E-008  0.4614232E+02  0.7816164E-02  0.1320468E+00
        -11   -1    0    0    0    0  0.00000000000E+00  0.00000000000E+00  0.45593999997E+02  0.45594000000E+02  0.51100000000E-03 0.  1.
         11   -1    0    0    0    0 -0.00000000000E+00 -0.00000000000E+00 -0.45593999997E+02  0.45594000000E+02  0.51100000000E-03 0. -1.
    9900012    2    1    2    0    0  0.26954033397E+02  0.34794583502E+02 -0.95880423529E+01  0.46142317481E+02  0.99999974465E+01 0.  0.
        -12    1    1    2    0    0 -0.26954033397E+02 -0.34794583502E+02  0.95880423529E+01  0.45045682519E+02  0.00000000000E+00 0.  1.
         11    1    3    3    0    0  0.16173471931E+02  0.20556197985E+02 -0.23039007532E+01  0.26257311912E+02  0.51100000000E-03 0. -1.
        -11    1    3    3    0    0  0.11242987966E+01  0.48978973108E+01 -0.13874656976E+01  0.52133009863E+01  0.51100000000E-03 0.  1.
         12    1    3    3    0    0  0.96562626698E+01  0.93404882057E+01 -0.58966759021E+01  0.14671704583E+02  0.00000000000E+00 0. -1.
</event>
<event>
 7    1  0.2001181E-008  0.4614232E+02  0.7816164E-02  0.1320468E+00
        -11   -1    0    0    0    0  0.00000000000E+00  0.00000000000E+00  0.45593999997E+02  0.45594000000E+02  0.51100000000E-03 0. -1.
         11   -1    0    0    0    0 -0.00000000000E+00 -0.00000000000E+00 -0.45593999997E+02  0.45594000000E+02  0.51100000000E-03 0.  1.
    9900012    2    1    2    0    0 -0.42648026547E+02  0.42109388791E+01 -0.13875414835E+02  0.46142319725E+02  0.10000017906E+02 0.  0.
        -12    1    1    2    0    0  0.42648026547E+02 -0.42109388791E+01  0.13875414835E+02  0.45045680275E+02  0.00000000000E+00 0.  1.
         11    1    3    3    0    0 -0.11148970056E+01 -0.12373547615E+01 -0.18075203484E+00  0.16753249530E+01  0.51100000000E-03 0.  1.
        -11    1    3    3    0    0 -0.97695794996E+01  0.37861606084E+01 -0.40028988280E+01  0.11216188971E+02  0.51100000000E-03 0. -1.
         12    1    3    3    0    0 -0.31763550042E+02  0.16621330322E+01 -0.96917639720E+01  0.33250805800E+02  0.00000000000E+00 0. -1.
</event>
<event>
 7    1  0.2001181E-008  0.4614232E+02  0.7816164E-02  0.1320468E+00
        -11   -1    0    0    0    0  0.00000000000E+00  0.00000000000E+00  0.45593999997E+02  0.45594000000E+02  0.51100000000E-03 0. -1.
         11   -1    0    0    0    0 -0.00000000000E+00 -0.00000000000E+00 -0.45593999997E+02  0.45594000000E+02  0.51100000000E-03 0.  1.
    9900012    2    1    2    0    0 -0.47730087801E+01  0.17885970373E+02  0.41066092199E+02  0.46142317882E+02  0.10000001102E+02 0.  0.
        -12    1    1    2    0    0  0.47730087801E+01 -0.17885970373E+02 -0.41066092199E+02  0.45045682118E+02  0.00000000000E+00 0.  1.
         11    1    3    3    0    0 -0.59045922606E+01  0.64867125101E+01  0.14914246552E+02  0.17302496913E+02  0.51100000000E-03 0. -1.
        -11    1    3    3    0    0 -0.12235320460E+01  0.31046377088E+01  0.98208917532E+01  0.10372353689E+02  0.51100000000E-03 0.  1.
         12    1    3    3    0    0  0.23551155264E+01  0.82946201538E+01  0.16330953893E+02  0.18467467279E+02  0.00000000000E+00 0. -1.
</event>
<event>
 7    1  0.2001181E-008  0.4614232E+02  0.7816164E-02  0.1320468E+00
        -11   -1    0    0    0    0  0.00000000000E+00  0.00000000000E+00  0.45593999997E+02  0.45594000000E+02  0.51100000000E-03 0.  1.
         11   -1    0    0    0    0 -0.00000000000E+00 -0.00000000000E+00 -0.45593999997E+02  0.45594000000E+02  0.51100000000E-03 0. -1.
    9900012    2    1    2    0    0  0.24770925456E+02 -0.36922459063E+02 -0.72281937255E+01  0.46142317457E+02  0.99999972307E+01 0.  0.
        -12    1    1    2    0    0 -0.24770925456E+02  0.36922459063E+02  0.72281937255E+01  0.45045682543E+02  0.00000000000E+00 0.  1.
         11    1    3    3    0    0  0.74633819605E+01 -0.17504204882E+02 -0.53567095365E+01  0.19768500099E+02  0.51100000000E-03 0.  1.
        -11    1    3    3    0    0  0.15516358765E+02 -0.15761415466E+02 -0.24824462192E+01  0.22256283300E+02  0.51100000000E-03 0. -1.
         12    1    3    3    0    0  0.17911847301E+01 -0.36568387144E+01  0.61096203013E+00  0.41175340585E+01  0.00000000000E+00 0. -1.
</event>
<event>
 7    1  0.2001181E-008  0.4614232E+02  0.7816164E-02  0.1320468E+00
        -11   -1    0    0    0    0  0.00000000000E+00  0.00000000000E+00  0.45593999997E+02  0.45594000000E+02  0.51100000000E-03 0.  1.
         11   -1    0    0    0    0 -0.00000000000E+00 -0.00000000000E+00 -0.45593999997E+02  0.45594000000E+02  0.51100000000E-03 0. -1.
    9900012    2    1    2    0    0  0.35754645103E+02  0.16392813321E+02 -0.21954372975E+02  0.46142317989E+02  0.10000002081E+02 0.  0.
        -12    1    1    2    0    0 -0.35754645103E+02 -0.16392813321E+02  0.21954372975E+02  0.45045682011E+02  0.00000000000E+00 0.  1.
         11    1    3    3    0    0  0.14549743285E+02  0.11061163096E+02 -0.11352606458E+02  0.21515715939E+02  0.51100000000E-03 0. -1.
        -11    1    3    3    0    0  0.27666563631E+01  0.21778319316E+01 -0.17519873171E+01  0.39327851676E+01  0.51100000000E-03 0.  1.
        -12    1    3    3    0    0  0.18438245455E+02  0.31538182936E+01 -0.88497792006E+01  0.20693816883E+02  0.00000000000E+00 0.  1.
</event>
<event>
 7    1  0.2001181E-008  0.4614232E+02  0.7816164E-02  0.1320468E+00
        -11   -1    0    0    0    0  0.00000000000E+00  0.00000000000E+00  0.45593999997E+02  0.45594000000E+02  0.51100000000E-03 0.  1.
         11   -1    0    0    0    0 -0.00000000000E+00 -0.00000000000E+00 -0.45593999997E+02  0.45594000000E+02  0.51100000000E-03 0. -1.
    9900012    2    1    2    0    0 -0.28250279252E+02 -0.10109337047E+02 -0.33598158342E+02  0.46142320769E+02  0.10000027433E+02 0.  0.
        -12    1    1    2    0    0  0.28250279252E+02  0.10109337047E+02  0.33598158342E+02  0.45045679231E+02  0.00000000000E+00 0.  1.
         11    1    3    3    0    0 -0.56149412429E+01  0.96458459431E-01 -0.80941680151E+01  0.98515189445E+01  0.51100000000E-03 0. -1.
        -11    1    3    3    0    0 -0.22545376655E+02 -0.85944122192E+01 -0.23157681860E+02  0.33443028561E+02  0.51100000000E-03 0.  1.
        -12    1    3    3    0    0 -0.89961354439E-01 -0.16113832875E+01 -0.23463084667E+01  0.28477732644E+01  0.00000000000E+00 0.  1.
</event>
<event>
 7    1  0.2001181E-008  0.4614232E+02  0.7816164E-02  0.1320468E+00
        -11   -1    0    0    0    0  0.00000000000E+00  0.00000000000E+00  0.45593999997E+02  0.45594000000E+02  0.51100000000E-03 0.  1.
         11   -1    0    0    0    0 -0.00000000000E+00 -0.00000000000E+00 -0.45593999997E+02  0.45594000000E+02  0.51100000000E-03 0. -1.
    9900012    2    1    2    0    0  0.13349033606E+02  0.26196511252E+01 -0.42942453271E+02  0.46142316931E+02  0.99999924288E+01 0.  0.
        -12    1    1    2    0    0 -0.13349033606E+02 -0.26196511252E+01  0.42942453271E+02  0.45045683069E+02  0.00000000000E+00 0.  1.
         11    1    3    3    0    0  0.22590704066E+00  0.19732666931E+01 -0.32339938153E+01  0.37951985049E+01  0.51100000000E-03 0. -1.
        -11    1    3    3    0    0  0.59047949420E+01  0.30775494894E+00 -0.87776989184E+01  0.10583445327E+02  0.51100000000E-03 0.  1.
         12    1    3    3    0    0  0.72183316239E+01  0.33862948318E+00 -0.30930760537E+02  0.31763673099E+02  0.00000000000E+00 0. -1.
</event>
<event>
 7    1  0.2001181E-008  0.4614232E+02  0.7816164E-02  0.1320468E+00
        -11   -1    0    0    0    0  0.00000000000E+00  0.00000000000E+00  0.45593999997E+02  0.45594000000E+02  0.51100000000E-03 0. -1.
         11   -1    0    0    0    0 -0.00000000000E+00 -0.00000000000E+00 -0.45593999997E+02  0.45594000000E+02  0.51100000000E-03 0.  1.
    9900012    2    1    2    0    0 -0.37710285934E+02  0.22436241409E+02  0.10181501444E+02  0.46142316906E+02  0.99999922001E+01 0.  0.
        -12    1    1    2    0    0  0.37710285934E+02 -0.22436241409E+02 -0.10181501444E+02  0.45045683094E+02  0.00000000000E+00 0.  1.
         11    1    3    3    0    0 -0.59216732233E+01  0.59552697962E+01  0.18000706710E+01  0.85890457439E+01  0.51100000000E-03 0. -1.
        -11    1    3    3    0    0 -0.82996156701E+01  0.78331639675E+00  0.24055499609E+01  0.86766281310E+01  0.51100000000E-03 0.  1.
         12    1    3    3    0    0 -0.23488997040E+02  0.15697655216E+02  0.59758808120E+01  0.28876643031E+02  0.00000000000E+00 0. -1.
</event>
<event>
 7    1  0.2001181E-008  0.4614232E+02  0.7816164E-02  0.1320468E+00
        -11   -1    0    0    0    0  0.00000000000E+00  0.00000000000E+00  0.45593999997E+02  0.45594000000E+02  0.51100000000E-03 0. -1.
         11   -1    0    0    0    0 -0.00000000000E+00 -0.00000000000E+00 -0.45593999997E+02  0.45594000000E+02  0.51100000000E-03 0.  1.
    9900012    2    1    2    0    0 -0.54859170819E+01  0.40525847624E+02  0.18885813550E+02  0.46142316907E+02  0.99999922150E+01 0.  0.
        -12    1    1    2    0    0  0.54859170819E+01 -0.40525847624E+02 -0.18885813550E+02  0.45045683093E+02  0.00000000000E+00 0.  1.
         11    1    3    3    0    0  0.12259900209E+00  0.47770026630E+01  0.62889394859E+00  0.48197814077E+01  0.51100000000E-03 0.  1.
        -11    1    3    3    0    0 -0.26460460982E+01  0.32726784833E+02  0.15950149906E+02  0.36502757263E+02  0.51100000000E-03 0. -1.
         12    1    3    3    0    0 -0.29624699858E+01  0.30220601274E+01  0.23067696948E+01  0.48197782371E+01  0.00000000000E+00 0. -1.
</event>
<event>
 7    1  0.2001181E-008  0.4614232E+02  0.7816164E-02  0.1320468E+00
        -11   -1    0    0    0    0  0.00000000000E+00  0.00000000000E+00  0.45593999997E+02  0.45594000000E+02  0.51100000000E-03 0.  1.
         11   -1    0    0    0    0 -0.00000000000E+00 -0.00000000000E+00 -0.45593999997E+02  0.45594000000E+02  0.51100000000E-03 0. -1.
    9900012    2    1    2    0    0 -0.28124208399E+02  0.32428226800E+02  0.13658420922E+02  0.46142318147E+02  0.10000003522E+02 0.  0.
        -12    1    1    2    0    0  0.28124208399E+02 -0.32428226800E+02 -0.13658420922E+02  0.45045681853E+02  0.00000000000E+00 0.  1.
         11    1    3    3    0    0 -0.43506177466E+01  0.33589241562E+01  0.23201897346E+01  0.59660310869E+01  0.51100000000E-03 0. -1.
        -11    1    3    3    0    0 -0.23833799527E+01  0.49423702054E+01  0.47699344961E+01  0.72704744415E+01  0.51100000000E-03 0.  1.
         12    1    3    3    0    0 -0.21390210700E+02  0.24126932439E+02  0.65682966915E+01  0.32905812619E+02  0.00000000000E+00 0. -1.
</event>
<event>
 7    1  0.2001181E-008  0.4614233E+02  0.7816164E-02  0.1320468E+00
        -11   -1    0    0    0    0  0.00000000000E+00  0.00000000000E+00  0.45593999997E+02  0.45594000000E+02  0.51100000000E-03 0. -1.
         11   -1    0    0    0    0 -0.00000000000E+00 -0.00000000000E+00 -0.45593999997E+02  0.45594000000E+02  0.51100000000E-03 0.  1.
    9900012    2    1    2    0    0  0.40094680593E+02  0.18074549370E+02  0.97385694444E+01  0.46142328936E+02  0.10000101905E+02 0.  0.
        -12    1    1    2    0    0 -0.40094680593E+02 -0.18074549370E+02 -0.97385694444E+01  0.45045671064E+02  0.00000000000E+00 0.  1.
         11    1    3    3    0    0  0.11031719520E+02  0.32119523325E+01  0.10343440693E+01  0.11536262015E+02  0.51100000000E-03 0. -1.
        -11    1    3    3    0    0  0.47592887795E+01 -0.14075684142E+00  0.48469712262E-01  0.47616165059E+01  0.51100000000E-03 0.  1.
         12    1    3    3    0    0  0.24303672293E+02  0.15003353879E+02  0.86557556628E+01  0.29844450416E+02  0.00000000000E+00 0. -1.
</event>
<event>
 7    1  0.2001181E-008  0.4614232E+02  0.7816164E-02  0.1320468E+00
        -11   -1    0    0    0    0  0.00000000000E+00  0.00000000000E+00  0.45593999997E+02  0.45594000000E+02  0.51100000000E-03 0.  1.
         11   -1    0    0    0    0 -0.00000000000E+00 -0.00000000000E+00 -0.45593999997E+02  0.45594000000E+02  0.51100000000E-03 0. -1.
    9900012    2    1    2    0    0 -0.61327453183E+01 -0.34409992481E+02 -0.28415757858E+02  0.46142318272E+02  0.10000004662E+02 0.  0.
        -12    1    1    2    0    0  0.61327453183E+01  0.34409992481E+02  0.28415757858E+02  0.45045681728E+02  0.00000000000E+00 0.  1.
         11    1    3    3    0    0 -0.81554190717E+01 -0.19028243737E+02 -0.14591979638E+02  0.25328063289E+02  0.51100000000E-03 0.  1.
        -11    1    3    3    0    0  0.11751380522E+01 -0.61455442989E+01 -0.49525338330E+01  0.79797403341E+01  0.51100000000E-03 0. -1.
        -12    1    3    3    0    0  0.84753570124E+00 -0.92362044444E+01 -0.88712443872E+01  0.12834514649E+02  0.00000000000E+00 0.  1.
</event>
<event>
 7    1  0.2001181E-008  0.4614232E+02  0.7816164E-02  0.1320468E+00
        -11   -1    0    0    0    0  0.00000000000E+00  0.00000000000E+00  0.45593999997E+02  0.45594000000E+02  0.51100000000E-03 0. -1.
         11   -1    0    0    0    0 -0.00000000000E+00 -0.00000000000E+00 -0.45593999997E+02  0.45594000000E+02  0.51100000000E-03 0.  1.
    9900012    2    1    2    0    0  0.16263639288E+02  0.24939537678E+02  0.33802764610E+02  0.46142318766E+02  0.10000009167E+02 0.  0.
        -12    1    1    2    0    0 -0.16263639288E+02 -0.24939537678E+02 -0.33802764610E+02  0.45045681234E+02  0.00000000000E+00 0.  1.
         11    1    3    3    0    0  0.55640598866E+01  0.10545466227E+02  0.80890760197E+01  0.14408288291E+02  0.51100000000E-03 0.  1.
        -11    1    3    3    0    0  0.62217152096E+01  0.11450316706E+02  0.15952342184E+02  0.20598463880E+02  0.51100000000E-03 0. -1.
        -12    1    3    3    0    0  0.44778641919E+01  0.29437547459E+01  0.97613464065E+01  0.11135566595E+02  0.00000000000E+00 0.  1.
</event>
<event>
 7    1  0.2001181E-008  0.4614232E+02  0.7816164E-02  0.1320468E+00
        -11   -1    0    0    0    0  0.00000000000E+00  0.00000000000E+00  0.45593999997E+02  0.45594000000E+02  0.51100000000E-03 0.  1.
         11   -1    0    0    0    0 -0.00000000000E+00 -0.00000000000E+00 -0.45593999997E+02  0.45594000000E+02  0.51100000000E-03 0. -1.
    9900012    2    1    2    0    0 -0.38627491173E+02 -0.23145635978E+02  0.11444498532E+01  0.46142319801E+02  0.10000018598E+02 0.  0.
        -12    1    1    2    0    0  0.38627491173E+02  0.23145635978E+02 -0.11444498532E+01  0.45045680199E+02  0.00000000000E+00 0.  1.
         11    1    3    3    0    0 -0.18972829800E+02 -0.15391370910E+02 -0.23151492673E+01  0.24540221790E+02  0.51100000000E-03 0. -1.
        -11    1    3    3    0    0 -0.14409277035E+02 -0.69274044524E+01  0.30485960742E+01  0.16276060193E+02  0.51100000000E-03 0.  1.
         12    1    3    3    0    0 -0.52453843382E+01 -0.82686061546E+00  0.41100304635E+00  0.53260378178E+01  0.00000000000E+00 0. -1.
</event>
<event>
 7    1  0.2001181E-008  0.4614232E+02  0.7816164E-02  0.1320468E+00
        -11   -1    0    0    0    0  0.00000000000E+00  0.00000000000E+00  0.45593999997E+02  0.45594000000E+02  0.51100000000E-03 0.  1.
         11   -1    0    0    0    0 -0.00000000000E+00 -0.00000000000E+00 -0.45593999997E+02  0.45594000000E+02  0.51100000000E-03 0. -1.
    9900012    2    1    2    0    0 -0.30217312534E+01  0.13101711541E+02 -0.42992182990E+02  0.46142317595E+02  0.99999984884E+01 0.  0.
        -12    1    1    2    0    0  0.30217312534E+01 -0.13101711541E+02  0.42992182990E+02  0.45045682405E+02  0.00000000000E+00 0.  1.
         11    1    3    3    0    0 -0.53774548520E+01  0.49165828272E+01 -0.24351659161E+02  0.25418361701E+02  0.51100000000E-03 0. -1.
        -11    1    3    3    0    0  0.18268220006E+01  0.15732677044E+01 -0.45046281445E+01  0.51092195953E+01  0.51100000000E-03 0.  1.
         12    1    3    3    0    0  0.52890159806E+00  0.66118610091E+01 -0.14135895684E+02  0.15614736299E+02  0.00000000000E+00 0. -1.
</event>
<event>
 7    1  0.2001181E-008  0.4614232E+02  0.7816164E-02  0.1320468E+00
        -11   -1    0    0    0    0  0.00000000000E+00  0.00000000000E+00  0.45593999997E+02  0.45594000000E+02  0.51100000000E-03 0.  1.
         11   -1    0    0    0    0 -0.00000000000E+00 -0.00000000000E+00 -0.45593999997E+02  0.45594000000E+02  0.51100000000E-03 0. -1.
    9900012    2    1    2    0    0 -0.37363236949E+02  0.14549194444E+02 -0.20528591284E+02  0.46142316584E+02  0.99999892662E+01 0.  0.
        -12    1    1    2    0    0  0.37363236949E+02 -0.14549194444E+02  0.20528591284E+02  0.45045683416E+02  0.00000000000E+00 0.  1.
         11    1    3    3    0    0 -0.11113283671E+02  0.12662845785E+01 -0.69247390056E+01  0.13155248426E+02  0.51100000000E-03 0. -1.
        -11    1    3    3    0    0  0.11997822615E+00  0.89862256974E+00 -0.25879395656E+00  0.94281062291E+00  0.51100000000E-03 0.  1.
         12    1    3    3    0    0 -0.26369931504E+02  0.12384287296E+02 -0.13345058322E+02  0.32044257535E+02  0.00000000000E+00 0. -1.
</event>
<event>
 7    1  0.2001181E-008  0.4614232E+02  0.7816164E-02  0.1320468E+00
        -11   -1    0    0    0    0  0.00000000000E+00  0.00000000000E+00  0.45593999997E+02  0.45594000000E+02  0.51100000000E-03 0. -1.
         11   -1    0    0    0    0 -0.00000000000E+00 -0.00000000000E+00 -0.45593999997E+02  0.45594000000E+02  0.51100000000E-03 0.  1.
    9900012    2    1    2    0    0  0.42004050729E+02  0.58039393956E+01  0.15201561057E+02  0.46142318201E+02  0.10000004014E+02 0.  0.
        -12    1    1    2    0    0 -0.42004050729E+02 -0.58039393956E+01 -0.15201561057E+02  0.45045681799E+02  0.00000000000E+00 0.  1.
         11    1    3    3    0    0  0.17445096922E+02 -0.29345388652E+00  0.84350741939E+01  0.19379576846E+02  0.51100000000E-03 0. -1.
        -11    1    3    3    0    0  0.36868568466E+01  0.95218076484E+00 -0.94702881389E+00  0.39238279080E+01  0.51100000000E-03 0.  1.
        -12    1    3    3    0    0  0.20872096960E+02  0.51452125173E+01  0.77135156766E+01  0.22838913447E+02  0.00000000000E+00 0.  1.
</event>
<event>
 7    1  0.2001181E-008  0.4614232E+02  0.7816164E-02  0.1320468E+00
        -11   -1    0    0    0    0  0.00000000000E+00  0.00000000000E+00  0.45593999997E+02  0.45594000000E+02  0.51100000000E-03 0. -1.
         11   -1    0    0    0    0 -0.00000000000E+00 -0.00000000000E+00 -0.45593999997E+02  0.45594000000E+02  0.51100000000E-03 0.  1.
    9900012    2    1    2    0    0 -0.25033227863E+02 -0.37449207716E+02  0.88716332627E-01  0.46142317339E+02  0.99999961512E+01 0.  0.
        -12    1    1    2    0    0  0.25033227863E+02  0.37449207716E+02 -0.88716332627E-01  0.45045682661E+02  0.00000000000E+00 0.  1.
         11    1    3    3    0    0 -0.11471272626E+02 -0.17744531543E+02 -0.13687124743E+01  0.21173848716E+02  0.51100000000E-03 0. -1.
        -11    1    3    3    0    0 -0.94085249833E+01 -0.83602302864E+01 -0.10505329121E+01  0.12630020288E+02  0.51100000000E-03 0.  1.
         12    1    3    3    0    0 -0.41534302536E+01 -0.11344445887E+02  0.25079617190E+01  0.12338448336E+02  0.00000000000E+00 0. -1.
</event>
<event>
 7    1  0.2001181E-008  0.4614232E+02  0.7816164E-02  0.1320468E+00
        -11   -1    0    0    0    0  0.00000000000E+00  0.00000000000E+00  0.45593999997E+02  0.45594000000E+02  0.51100000000E-03 0.  1.
         11   -1    0    0    0    0 -0.00000000000E+00 -0.00000000000E+00 -0.45593999997E+02  0.45594000000E+02  0.51100000000E-03 0. -1.
    9900012    2    1    2    0    0 -0.90952464358E+01  0.18856482125E+02 -0.39885124373E+02  0.46142316832E+02  0.99999915271E+01 0.  0.
        -12    1    1    2    0    0  0.90952464358E+01 -0.18856482125E+02  0.39885124373E+02  0.45045683168E+02  0.00000000000E+00 0.  1.
         11    1    3    3    0    0 -0.83736488056E+00  0.35999032160E+01 -0.29515929448E+01  0.47299454839E+01  0.51100000000E-03 0. -1.
        -11    1    3    3    0    0 -0.47343365455E+01  0.53451358455E+01 -0.85331419238E+01  0.11126496802E+02  0.51100000000E-03 0.  1.
        -12    1    3    3    0    0 -0.35235450098E+01  0.99114430633E+01 -0.28400389504E+02  0.30285874546E+02  0.00000000000E+00 0.  1.
</event>
<event>
 7    1  0.2001181E-008  0.4614232E+02  0.7816164E-02  0.1320468E+00
        -11   -1    0    0    0    0  0.00000000000E+00  0.00000000000E+00  0.45593999997E+02  0.45594000000E+02  0.51100000000E-03 0.  1.
         11   -1    0    0    0    0 -0.00000000000E+00 -0.00000000000E+00 -0.45593999997E+02  0.45594000000E+02  0.51100000000E-03 0. -1.
    9900012    2    1    2    0    0 -0.18368662989E+02 -0.35224248091E+02 -0.21235774140E+02  0.46142317223E+02  0.99999950908E+01 0.  0.
        -12    1    1    2    0    0  0.18368662989E+02  0.35224248091E+02  0.21235774140E+02  0.45045682777E+02  0.00000000000E+00 0.  1.
         11    1    3    3    0    0 -0.66764964947E+00 -0.40891536737E+01 -0.43253953337E+01  0.59896559898E+01  0.51100000000E-03 0. -1.
        -11    1    3    3    0    0 -0.11703976340E+02 -0.17503427324E+02 -0.13035025352E+02  0.24764186165E+02  0.51100000000E-03 0.  1.
        -12    1    3    3    0    0 -0.59970369993E+01 -0.13631667093E+02 -0.38753534540E+01  0.15388475068E+02  0.00000000000E+00 0.  1.
</event>
<event>
 7    1  0.2001181E-008  0.4614232E+02  0.7816164E-02  0.1320468E+00
        -11   -1    0    0    0    0  0.00000000000E+00  0.00000000000E+00  0.45593999997E+02  0.45594000000E+02  0.51100000000E-03 0. -1.
         11   -1    0    0    0    0 -0.00000000000E+00 -0.00000000000E+00 -0.45593999997E+02  0.45594000000E+02  0.51100000000E-03 0.  1.
    9900012    2    1    2    0    0  0.43690284126E+02 -0.99902390402E+01 -0.45241149379E+01  0.46142318530E+02  0.10000007014E+02 0.  0.
        -12    1    1    2    0    0 -0.43690284126E+02  0.99902390402E+01  0.45241149379E+01  0.45045681470E+02  0.00000000000E+00 0.  1.
         11    1    3    3    0    0  0.19664499726E+02 -0.53623486908E+01 -0.36193653836E+01  0.20701380123E+02  0.51100000000E-03 0. -1.
        -11    1    3    3    0    0  0.84570257116E+01  0.16861364223E+01 -0.41249406901E+00  0.86333360608E+01  0.51100000000E-03 0.  1.
        -12    1    3    3    0    0  0.15568758689E+02 -0.63140267717E+01 -0.49225548524E+00  0.16807602347E+02  0.00000000000E+00 0.  1.
</event>
<event>
 7    1  0.2001181E-008  0.4614232E+02  0.7816164E-02  0.1320468E+00
        -11   -1    0    0    0    0  0.00000000000E+00  0.00000000000E+00  0.45593999997E+02  0.45594000000E+02  0.51100000000E-03 0. -1.
         11   -1    0    0    0    0 -0.00000000000E+00 -0.00000000000E+00 -0.45593999997E+02  0.45594000000E+02  0.51100000000E-03 0.  1.
    9900012    2    1    2    0    0 -0.23445362088E+01  0.16173581623E+02  0.41976563344E+02  0.46142318046E+02  0.10000002597E+02 0.  0.
        -12    1    1    2    0    0  0.23445362088E+01 -0.16173581623E+02 -0.41976563344E+02  0.45045681954E+02  0.00000000000E+00 0.  1.
         11    1    3    3    0    0 -0.11533787289E+00  0.12309139769E+02  0.23359291832E+02  0.26404256093E+02  0.51100000000E-03 0. -1.
        -11    1    3    3    0    0 -0.18927067400E+01  0.82406627643E+00  0.21178758146E+01  0.29575027065E+01  0.51100000000E-03 0.  1.
        -12    1    3    3    0    0 -0.33649159583E+00  0.30403755780E+01  0.16499395697E+02  0.16780559246E+02  0.00000000000E+00 0.  1.
</event>
<event>
 7    1  0.2001181E-008  0.4614232E+02  0.7816164E-02  0.1320468E+00
        -11   -1    0    0    0    0  0.00000000000E+00  0.00000000000E+00  0.45593999997E+02  0.45594000000E+02  0.51100000000E-03 0. -1.
         11   -1    0    0    0    0 -0.00000000000E+00 -0.00000000000E+00 -0.45593999997E+02  0.45594000000E+02  0.51100000000E-03 0.  1.
    9900012    2    1    2    0    0 -0.19687280713E+02  0.27722871752E+02  0.29546012219E+02  0.46142317875E+02  0.10000001037E+02 0.  0.
        -12    1    1    2    0    0  0.19687280713E+02 -0.27722871752E+02 -0.29546012219E+02  0.45045682125E+02  0.00000000000E+00 0.  1.
         11    1    3    3    0    0 -0.12440353523E+02  0.13804675168E+02  0.19745393321E+02  0.27114793193E+02  0.51100000000E-03 0. -1.
        -11    1    3    3    0    0 -0.71495067663E+01  0.14257421298E+02  0.95041496686E+01  0.18566592855E+02  0.51100000000E-03 0.  1.
         12    1    3    3    0    0 -0.97420423903E-01 -0.33922471264E+00  0.29646922931E+00  0.46093182640E+00  0.00000000000E+00 0. -1.
</event>
<event>
 7    1  0.2001181E-008  0.4614232E+02  0.7816164E-02  0.1320468E+00
        -11   -1    0    0    0    0  0.00000000000E+00  0.00000000000E+00  0.45593999997E+02  0.45594000000E+02  0.51100000000E-03 0.  1.
         11   -1    0    0    0    0 -0.00000000000E+00 -0.00000000000E+00 -0.45593999997E+02  0.45594000000E+02  0.51100000000E-03 0. -1.
    9900012    2    1    2    0    0  0.33092535981E+02  0.10282752475E+02 -0.28779551115E+02  0.46142317649E+02  0.99999989745E+01 0.  0.
        -12    1    1    2    0    0 -0.33092535981E+02 -0.10282752475E+02  0.28779551115E+02  0.45045682351E+02  0.00000000000E+00 0.  1.
         11    1    3    3    0    0  0.82393770540E+01  0.11627059507E+01 -0.88879751410E+01  0.12175192883E+02  0.51100000000E-03 0. -1.
        -11    1    3    3    0    0  0.14079571749E+02  0.81207634872E+01 -0.14906432972E+02  0.22054089972E+02  0.51100000000E-03 0.  1.
        -12    1    3    3    0    0  0.10773587177E+02  0.99928303743E+00 -0.49851430019E+01  0.11913034794E+02  0.00000000000E+00 0.  1.
</event>
<event>
 7    1  0.2001181E-008  0.4614232E+02  0.7816164E-02  0.1320468E+00
        -11   -1    0    0    0    0  0.00000000000E+00  0.00000000000E+00  0.45593999997E+02  0.45594000000E+02  0.51100000000E-03 0.  1.
         11   -1    0    0    0    0 -0.00000000000E+00 -0.00000000000E+00 -0.45593999997E+02  0.45594000000E+02  0.51100000000E-03 0. -1.
    9900012    2    1    2    0    0  0.17907303373E+02 -0.97164287023E+01 -0.40175029348E+02  0.46142317810E+02  0.10000000447E+02 0.  0.
        -12    1    1    2    0    0 -0.17907303373E+02  0.97164287023E+01  0.40175029348E+02  0.45045682190E+02  0.00000000000E+00 0.  1.
         11    1    3    3    0    0  0.51572656119E+01 -0.15488448694E+01 -0.77066839197E+01  0.94015576539E+01  0.51100000000E-03 0. -1.
        -11    1    3    3    0    0  0.76750764136E+01 -0.73835189943E+01 -0.14112205121E+02  0.17679860982E+02  0.51100000000E-03 0.  1.
        -12    1    3    3    0    0  0.50749613478E+01 -0.78406483862E+00 -0.18356140308E+02  0.19060899175E+02  0.00000000000E+00 0.  1.
</event>
<event>
 7    1  0.2001181E-008  0.4614232E+02  0.7816164E-02  0.1320468E+00
        -11   -1    0    0    0    0  0.00000000000E+00  0.00000000000E+00  0.45593999997E+02  0.45594000000E+02  0.51100000000E-03 0.  1.
         11   -1    0    0    0    0 -0.00000000000E+00 -0.00000000000E+00 -0.45593999997E+02  0.45594000000E+02  0.51100000000E-03 0. -1.
    9900012    2    1    2    0    0  0.38818148978E+02 -0.22603689838E+02  0.33672010443E+01  0.46142317330E+02  0.99999960665E+01 0.  0.
        -12    1    1    2    0    0 -0.38818148978E+02  0.22603689838E+02 -0.33672010443E+01  0.45045682670E+02  0.00000000000E+00 0.  1.
         11    1    3    3    0    0  0.26796993100E+02 -0.17289897984E+02  0.14571931358E+01  0.31924016408E+02  0.51100000000E-03 0. -1.
        -11    1    3    3    0    0  0.11278493007E+01 -0.15396636958E+01  0.18952402804E+01  0.26897108251E+01  0.51100000000E-03 0.  1.
         12    1    3    3    0    0  0.10893306578E+02 -0.37741281575E+01  0.14767628105E-01  0.11528590097E+02  0.00000000000E+00 0. -1.
</event>
<event>
 7    1  0.2001181E-008  0.4614232E+02  0.7816164E-02  0.1320468E+00
        -11   -1    0    0    0    0  0.00000000000E+00  0.00000000000E+00  0.45593999997E+02  0.45594000000E+02  0.51100000000E-03 0.  1.
         11   -1    0    0    0    0 -0.00000000000E+00 -0.00000000000E+00 -0.45593999997E+02  0.45594000000E+02  0.51100000000E-03 0. -1.
    9900012    2    1    2    0    0 -0.21995020788E+02 -0.39204270025E+02 -0.28909285048E+01  0.46142321014E+02  0.10000029666E+02 0.  0.
        -12    1    1    2    0    0  0.21995020788E+02  0.39204270025E+02  0.28909285048E+01  0.45045678986E+02  0.00000000000E+00 0.  1.
         11    1    3    3    0    0 -0.63026016840E+01 -0.10062438128E+02 -0.17190884054E+00  0.11874552706E+02  0.51100000000E-03 0. -1.
        -11    1    3    3    0    0 -0.93666008786E+01 -0.15858014325E+02  0.26465447440E+01  0.18606827502E+02  0.51100000000E-03 0.  1.
        -12    1    3    3    0    0 -0.63258182252E+01 -0.13283817572E+02 -0.53655644082E+01  0.15660940806E+02  0.00000000000E+00 0.  1.
</event>
<event>
 7    1  0.2001181E-008  0.4614232E+02  0.7816164E-02  0.1320468E+00
        -11   -1    0    0    0    0  0.00000000000E+00  0.00000000000E+00  0.45593999997E+02  0.45594000000E+02  0.51100000000E-03 0. -1.
         11   -1    0    0    0    0 -0.00000000000E+00 -0.00000000000E+00 -0.45593999997E+02  0.45594000000E+02  0.51100000000E-03 0.  1.
    9900012    2    1    2    0    0  0.16785588139E+02 -0.39401394186E+02  0.13960216831E+02  0.46142317777E+02  0.10000000145E+02 0.  0.
        -12    1    1    2    0    0 -0.16785588139E+02  0.39401394186E+02 -0.13960216831E+02  0.45045682223E+02  0.00000000000E+00 0.  1.
         11    1    3    3    0    0  0.64744562973E+01 -0.99583701020E+01  0.43538352117E+01  0.12650833994E+02  0.51100000000E-03 0. -1.
        -11    1    3    3    0    0  0.36354307705E+01 -0.19760931214E+02  0.79795202445E+01  0.21619054164E+02  0.51100000000E-03 0.  1.
        -12    1    3    3    0    0  0.66757010710E+01 -0.96820928702E+01  0.16268613744E+01  0.11872429619E+02  0.00000000000E+00 0.  1.
</event>
<event>
 7    1  0.2001181E-008  0.4614232E+02  0.7816164E-02  0.1320468E+00
        -11   -1    0    0    0    0  0.00000000000E+00  0.00000000000E+00  0.45593999997E+02  0.45594000000E+02  0.51100000000E-03 0. -1.
         11   -1    0    0    0    0 -0.00000000000E+00 -0.00000000000E+00 -0.45593999997E+02  0.45594000000E+02  0.51100000000E-03 0.  1.
    9900012    2    1    2    0    0 -0.29267688114E+02 -0.31981915518E+02 -0.12234090947E+02  0.46142317976E+02  0.10000001956E+02 0.  0.
        -12    1    1    2    0    0  0.29267688114E+02  0.31981915518E+02  0.12234090947E+02  0.45045682024E+02  0.00000000000E+00 0.  1.
         11    1    3    3    0    0 -0.57044211938E+01 -0.64824832658E+01 -0.67045966265E+01  0.10932274541E+02  0.51100000000E-03 0.  1.
        -11    1    3    3    0    0 -0.80760111233E+01 -0.74368008605E+01 -0.18969546199E+01  0.11141202798E+02  0.51100000000E-03 0. -1.
        -12    1    3    3    0    0 -0.15487255797E+02 -0.18062631392E+02 -0.36325397005E+01  0.24068840637E+02  0.00000000000E+00 0.  1.
</event>
<event>
 7    1  0.2001181E-008  0.4614232E+02  0.7816164E-02  0.1320468E+00
        -11   -1    0    0    0    0  0.00000000000E+00  0.00000000000E+00  0.45593999997E+02  0.45594000000E+02  0.51100000000E-03 0.  1.
         11   -1    0    0    0    0 -0.00000000000E+00 -0.00000000000E+00 -0.45593999997E+02  0.45594000000E+02  0.51100000000E-03 0. -1.
    9900012    2    1    2    0    0 -0.44202038751E+02 -0.72826778164E+01 -0.47176168598E+01  0.46142317246E+02  0.99999953051E+01 0.  0.
        -12    1    1    2    0    0  0.44202038751E+02  0.72826778164E+01  0.47176168598E+01  0.45045682754E+02  0.00000000000E+00 0.  1.
         11    1    3    3    0    0 -0.48992217151E+01  0.99572434231E+00 -0.17536177573E+01  0.52980199962E+01  0.51100000000E-03 0. -1.
        -11    1    3    3    0    0 -0.12131974110E+02  0.23634536784E+00 -0.23745219358E+01  0.12364425164E+02  0.51100000000E-03 0.  1.
        -12    1    3    3    0    0 -0.27170842925E+02 -0.85147475266E+01 -0.58947716674E+00  0.28479872086E+02  0.00000000000E+00 0.  1.
</event>
<event>
 7    1  0.2001181E-008  0.4614232E+02  0.7816164E-02  0.1320468E+00
        -11   -1    0    0    0    0  0.00000000000E+00  0.00000000000E+00  0.45593999997E+02  0.45594000000E+02  0.51100000000E-03 0. -1.
         11   -1    0    0    0    0 -0.00000000000E+00 -0.00000000000E+00 -0.45593999997E+02  0.45594000000E+02  0.51100000000E-03 0.  1.
    9900012    2    1    2    0    0 -0.15923139065E+02 -0.35484751637E+02  0.22724421398E+02  0.46142320027E+02  0.10000020658E+02 0.  0.
        -12    1    1    2    0    0  0.15923139065E+02  0.35484751637E+02 -0.22724421398E+02  0.45045679973E+02  0.00000000000E+00 0.  1.
         11    1    3    3    0    0 -0.63636310234E+01 -0.20566147153E+02  0.13423210384E+02  0.25370155415E+02  0.51100000000E-03 0. -1.
        -11    1    3    3    0    0  0.55356258041E+00 -0.18064496965E+01  0.26451688193E+00  0.19077896840E+01  0.51100000000E-03 0.  1.
        -12    1    3    3    0    0 -0.10113070622E+02 -0.13112154788E+02  0.90366941322E+01  0.18864374928E+02  0.00000000000E+00 0.  1.
</event>
<event>
 7    1  0.2001181E-008  0.4614232E+02  0.7816164E-02  0.1320468E+00
        -11   -1    0    0    0    0  0.00000000000E+00  0.00000000000E+00  0.45593999997E+02  0.45594000000E+02  0.51100000000E-03 0. -1.
         11   -1    0    0    0    0 -0.00000000000E+00 -0.00000000000E+00 -0.45593999997E+02  0.45594000000E+02  0.51100000000E-03 0.  1.
    9900012    2    1    2    0    0  0.26566752420E+02  0.35862132771E+02  0.61015095271E+01  0.46142319635E+02  0.10000017085E+02 0.  0.
        -12    1    1    2    0    0 -0.26566752420E+02 -0.35862132771E+02 -0.61015095271E+01  0.45045680365E+02  0.00000000000E+00 0.  1.
         11    1    3    3    0    0  0.27706438134E+01  0.45402500932E+01  0.14209537298E+01  0.55054016940E+01  0.51100000000E-03 0. -1.
        -11    1    3    3    0    0  0.52117089999E+01  0.11610812833E+02  0.46396356818E+01  0.13546184144E+02  0.51100000000E-03 0.  1.
         12    1    3    3    0    0  0.18584399607E+02  0.19711069845E+02  0.40920115415E-01  0.27090733796E+02  0.00000000000E+00 0. -1.
</event>
<event>
 7    1  0.2001181E-008  0.4614232E+02  0.7816164E-02  0.1320468E+00
        -11   -1    0    0    0    0  0.00000000000E+00  0.00000000000E+00  0.45593999997E+02  0.45594000000E+02  0.51100000000E-03 0.  1.
         11   -1    0    0    0    0 -0.00000000000E+00 -0.00000000000E+00 -0.45593999997E+02  0.45594000000E+02  0.51100000000E-03 0. -1.
    9900012    2    1    2    0    0 -0.18601623530E+02 -0.25062495595E+02 -0.32480217351E+02  0.46142316494E+02  0.99999884425E+01 0.  0.
        -12    1    1    2    0    0  0.18601623530E+02  0.25062495595E+02  0.32480217351E+02  0.45045683506E+02  0.00000000000E+00 0.  1.
         11    1    3    3    0    0 -0.37902713735E+01 -0.71034326305E+01 -0.43329603512E+01  0.91432739151E+01  0.51100000000E-03 0. -1.
        -11    1    3    3    0    0 -0.21712816378E+01 -0.66512679324E+01 -0.70875325523E+01  0.99592643804E+01  0.51100000000E-03 0.  1.
        -12    1    3    3    0    0 -0.12640070519E+02 -0.11307795032E+02 -0.21059724447E+02  0.27039778198E+02  0.00000000000E+00 0.  1.
</event>
<event>
 7    1  0.2001181E-008  0.4614232E+02  0.7816164E-02  0.1320468E+00
        -11   -1    0    0    0    0  0.00000000000E+00  0.00000000000E+00  0.45593999997E+02  0.45594000000E+02  0.51100000000E-03 0.  1.
         11   -1    0    0    0    0 -0.00000000000E+00 -0.00000000000E+00 -0.45593999997E+02  0.45594000000E+02  0.51100000000E-03 0. -1.
    9900012    2    1    2    0    0  0.26333195867E+02  0.22901341655E+02 -0.28481657738E+02  0.46142317835E+02  0.10000000676E+02 0.  0.
        -12    1    1    2    0    0 -0.26333195867E+02 -0.22901341655E+02  0.28481657738E+02  0.45045682165E+02  0.00000000000E+00 0.  1.
         11    1    3    3    0    0  0.78993503243E+01  0.53059816105E+01 -0.64075731067E+01  0.11472147566E+02  0.51100000000E-03 0. -1.
        -11    1    3    3    0    0  0.11957471425E+02  0.75790874527E+01 -0.15721510543E+02  0.21156313089E+02  0.51100000000E-03 0.  1.
        -12    1    3    3    0    0  0.64763741178E+01  0.10016272592E+02 -0.63525740883E+01  0.13513857180E+02  0.00000000000E+00 0.  1.
</event>
<event>
 7    1  0.2001181E-008  0.4614232E+02  0.7816164E-02  0.1320468E+00
        -11   -1    0    0    0    0  0.00000000000E+00  0.00000000000E+00  0.45593999997E+02  0.45594000000E+02  0.51100000000E-03 0. -1.
         11   -1    0    0    0    0 -0.00000000000E+00 -0.00000000000E+00 -0.45593999997E+02  0.45594000000E+02  0.51100000000E-03 0.  1.
    9900012    2    1    2    0    0  0.29249776459E+01  0.25023586896E+02  0.37341369805E+02  0.46142319915E+02  0.10000019643E+02 0.  0.
        -12    1    1    2    0    0 -0.29249776459E+01 -0.25023586896E+02 -0.37341369805E+02  0.45045680085E+02  0.00000000000E+00 0.  1.
         11    1    3    3    0    0  0.24310939175E+01  0.94813909237E+01  0.93328969435E+01  0.13524420768E+02  0.51100000000E-03 0. -1.
        -11    1    3    3    0    0  0.99875276442E+00  0.15992316001E+02  0.26556577888E+02  0.31016181382E+02  0.51100000000E-03 0.  1.
        -12    1    3    3    0    0 -0.50486903600E+00 -0.45012002907E+00  0.14518949740E+01  0.16017177653E+01  0.00000000000E+00 0.  1.
</event>
<event>
 7    1  0.2001181E-008  0.4614232E+02  0.7816164E-02  0.1320468E+00
        -11   -1    0    0    0    0  0.00000000000E+00  0.00000000000E+00  0.45593999997E+02  0.45594000000E+02  0.51100000000E-03 0.  1.
         11   -1    0    0    0    0 -0.00000000000E+00 -0.00000000000E+00 -0.45593999997E+02  0.45594000000E+02  0.51100000000E-03 0. -1.
    9900012    2    1    2    0    0 -0.25107385612E+02  0.14353589430E+02 -0.34535592479E+02  0.46142317747E+02  0.99999998670E+01 0.  0.
        -12    1    1    2    0    0  0.25107385612E+02 -0.14353589430E+02  0.34535592479E+02  0.45045682253E+02  0.00000000000E+00 0.  1.
         11    1    3    3    0    0 -0.15150091391E+02  0.67707020453E+01 -0.20954968160E+02  0.26729728135E+02  0.51100000000E-03 0. -1.
        -11    1    3    3    0    0 -0.61655308774E+01  0.16401624223E+01 -0.40450255356E+01  0.75542131037E+01  0.51100000000E-03 0.  1.
        -12    1    3    3    0    0 -0.37917633436E+01  0.59427249620E+01 -0.95355987837E+01  0.11858376507E+02  0.00000000000E+00 0.  1.
</event>
<event>
 7    1  0.2001181E-008  0.4614232E+02  0.7816164E-02  0.1320468E+00
        -11   -1    0    0    0    0  0.00000000000E+00  0.00000000000E+00  0.45593999997E+02  0.45594000000E+02  0.51100000000E-03 0.  1.
         11   -1    0    0    0    0 -0.00000000000E+00 -0.00000000000E+00 -0.45593999997E+02  0.45594000000E+02  0.51100000000E-03 0. -1.
    9900012    2    1    2    0    0 -0.11154910952E+02  0.36112105071E+02 -0.24507086699E+02  0.46142317971E+02  0.10000001912E+02 0.  0.
        -12    1    1    2    0    0  0.11154910952E+02 -0.36112105071E+02  0.24507086699E+02  0.45045682029E+02  0.00000000000E+00 0.  1.
         11    1    3    3    0    0 -0.76488943210E+01  0.15445854281E+02 -0.86787233146E+01  0.19297674405E+02  0.51100000000E-03 0.  1.
        -11    1    3    3    0    0 -0.67052667376E+00  0.15929002518E+01 -0.36485294845E+01  0.40371654527E+01  0.51100000000E-03 0. -1.
         12    1    3    3    0    0 -0.28354899569E+01  0.19073350538E+02 -0.12179833900E+02  0.22807478113E+02  0.00000000000E+00 0. -1.
</event>
<event>
 7    1  0.2001181E-008  0.4614232E+02  0.7816164E-02  0.1320468E+00
        -11   -1    0    0    0    0  0.00000000000E+00  0.00000000000E+00  0.45593999997E+02  0.45594000000E+02  0.51100000000E-03 0.  1.
         11   -1    0    0    0    0 -0.00000000000E+00 -0.00000000000E+00 -0.45593999997E+02  0.45594000000E+02  0.51100000000E-03 0. -1.
    9900012    2    1    2    0    0  0.18147340593E+02  0.22610436980E+02 -0.34475435698E+02  0.46142317659E+02  0.99999990721E+01 0.  0.
        -12    1    1    2    0    0 -0.18147340593E+02 -0.22610436980E+02  0.34475435698E+02  0.45045682341E+02  0.00000000000E+00 0.  1.
         11    1    3    3    0    0  0.44632897771E+01  0.55682226887E+01 -0.81678912390E+01  0.10846220867E+02  0.51100000000E-03 0. -1.
        -11    1    3    3    0    0  0.97225961093E+00  0.40572827336E+01 -0.10173536246E+02  0.10995802469E+02  0.51100000000E-03 0.  1.
        -12    1    3    3    0    0  0.12711791205E+02  0.12984931557E+02 -0.16134008212E+02  0.24300294323E+02  0.00000000000E+00 0.  1.
</event>
<event>
 7    1  0.2001181E-008  0.4614232E+02  0.7816164E-02  0.1320468E+00
        -11   -1    0    0    0    0  0.00000000000E+00  0.00000000000E+00  0.45593999997E+02  0.45594000000E+02  0.51100000000E-03 0.  1.
         11   -1    0    0    0    0 -0.00000000000E+00 -0.00000000000E+00 -0.45593999997E+02  0.45594000000E+02  0.51100000000E-03 0. -1.
    9900012    2    1    2    0    0 -0.24977039419E+02 -0.32216964637E+02 -0.19165808858E+02  0.46142317213E+02  0.99999950037E+01 0.  0.
        -12    1    1    2    0    0  0.24977039419E+02  0.32216964637E+02  0.19165808858E+02  0.45045682787E+02  0.00000000000E+00 0.  1.
         11    1    3    3    0    0 -0.87706281786E+01 -0.15112129582E+02 -0.62624229369E+01  0.18561204714E+02  0.51100000000E-03 0.  1.
        -11    1    3    3    0    0 -0.14090788940E+02 -0.17184587158E+02 -0.12191864532E+02  0.25347621777E+02  0.51100000000E-03 0. -1.
        -12    1    3    3    0    0 -0.21156223005E+01  0.79752102884E-01 -0.71152138877E+00  0.22334907215E+01  0.00000000000E+00 0.  1.
</event>
<event>
 7    1  0.2001181E-008  0.4614231E+02  0.7816164E-02  0.1320468E+00
        -11   -1    0    0    0    0  0.00000000000E+00  0.00000000000E+00  0.45593999997E+02  0.45594000000E+02  0.51100000000E-03 0. -1.
         11   -1    0    0    0    0 -0.00000000000E+00 -0.00000000000E+00 -0.45593999997E+02  0.45594000000E+02  0.51100000000E-03 0.  1.
    9900012    2    1    2    0    0 -0.33081556903E+02  0.15389072957E+02  0.26417815301E+02  0.46142312761E+02  0.99999544036E+01 0.  0.
        -12    1    1    2    0    0  0.33081556903E+02 -0.15389072957E+02 -0.26417815301E+02  0.45045687239E+02  0.00000000000E+00 0.  1.
         11    1    3    3    0    0 -0.10914795191E+02  0.32664923088E+01  0.11823894566E+02  0.16419720126E+02  0.51100000000E-03 0. -1.
        -11    1    3    3    0    0 -0.83128859398E+01  0.15293499626E+01  0.48778861129E+01  0.97589321725E+01  0.51100000000E-03 0.  1.
        -12    1    3    3    0    0 -0.13853875772E+02  0.10593230686E+02  0.97160346222E+01  0.19963660462E+02  0.00000000000E+00 0.  1.
</event>
<event>
 7    1  0.2001181E-008  0.4614232E+02  0.7816164E-02  0.1320468E+00
        -11   -1    0    0    0    0  0.00000000000E+00  0.00000000000E+00  0.45593999997E+02  0.45594000000E+02  0.51100000000E-03 0.  1.
         11   -1    0    0    0    0 -0.00000000000E+00 -0.00000000000E+00 -0.45593999997E+02  0.45594000000E+02  0.51100000000E-03 0. -1.
    9900012    2    1    2    0    0 -0.13186181461E+02  0.21915027090E+02 -0.37080577781E+02  0.46142322711E+02  0.10000045139E+02 0.  0.
        -12    1    1    2    0    0  0.13186181461E+02 -0.21915027090E+02  0.37080577781E+02  0.45045677289E+02  0.00000000000E+00 0.  1.
         11    1    3    3    0    0 -0.54940487299E+01  0.82705568565E+01 -0.12204943078E+02  0.15733636514E+02  0.51100000000E-03 0. -1.
        -11    1    3    3    0    0 -0.56391642639E+01  0.56772430172E+01 -0.66223604704E+01  0.10386862873E+02  0.51100000000E-03 0.  1.
         12    1    3    3    0    0 -0.20529684670E+01  0.79672272162E+01 -0.18253274233E+02  0.20021823325E+02  0.00000000000E+00 0. -1.
</event>
<event>
 7    1  0.2001181E-008  0.4614232E+02  0.7816164E-02  0.1320468E+00
        -11   -1    0    0    0    0  0.00000000000E+00  0.00000000000E+00  0.45593999997E+02  0.45594000000E+02  0.51100000000E-03 0.  1.
         11   -1    0    0    0    0 -0.00000000000E+00 -0.00000000000E+00 -0.45593999997E+02  0.45594000000E+02  0.51100000000E-03 0. -1.
    9900012    2    1    2    0    0 -0.22754931936E+02 -0.32945836050E+02 -0.20637309446E+02  0.46142316726E+02  0.99999905613E+01 0.  0.
        -12    1    1    2    0    0  0.22754931936E+02  0.32945836050E+02  0.20637309446E+02  0.45045683274E+02  0.00000000000E+00 0.  1.
         11    1    3    3    0    0 -0.14991245007E+02 -0.22232559428E+02 -0.13184979161E+02  0.29880893583E+02  0.51100000000E-03 0. -1.
        -11    1    3    3    0    0 -0.72827643628E+01 -0.64819161848E+01 -0.69503087147E+01  0.11973332271E+02  0.51100000000E-03 0.  1.
        -12    1    3    3    0    0 -0.48092256623E+00 -0.42313604371E+01 -0.50202156943E+00  0.42880908712E+01  0.00000000000E+00 0.  1.
</event>
<event>
 7    1  0.2001181E-008  0.4614231E+02  0.7816164E-02  0.1320468E+00
        -11   -1    0    0    0    0  0.00000000000E+00  0.00000000000E+00  0.45593999997E+02  0.45594000000E+02  0.51100000000E-03 0. -1.
         11   -1    0    0    0    0 -0.00000000000E+00 -0.00000000000E+00 -0.45593999997E+02  0.45594000000E+02  0.51100000000E-03 0.  1.
    9900012    2    1    2    0    0 -0.23528257213E+02  0.37779336120E+02  0.69467053657E+01  0.46142313852E+02  0.99999643539E+01 0.  0.
        -12    1    1    2    0    0  0.23528257213E+02 -0.37779336120E+02 -0.69467053657E+01  0.45045686148E+02  0.00000000000E+00 0.  1.
         11    1    3    3    0    0 -0.38734242454E+01  0.75609952915E+01  0.30851244161E+01  0.90382552579E+01  0.51100000000E-03 0. -1.
        -11    1    3    3    0    0 -0.16524035026E+01  0.80496162285E+01  0.21555947336E+01  0.84954898434E+01  0.51100000000E-03 0.  1.
        -12    1    3    3    0    0 -0.18002429465E+02  0.22168724600E+02  0.17059862161E+01  0.28608568751E+02  0.00000000000E+00 0.  1.
</event>
<event>
 7    1  0.2001181E-008  0.4614232E+02  0.7816164E-02  0.1320468E+00
        -11   -1    0    0    0    0  0.00000000000E+00  0.00000000000E+00  0.45593999997E+02  0.45594000000E+02  0.51100000000E-03 0.  1.
         11   -1    0    0    0    0 -0.00000000000E+00 -0.00000000000E+00 -0.45593999997E+02  0.45594000000E+02  0.51100000000E-03 0. -1.
    9900012    2    1    2    0    0  0.24549756224E+02 -0.38339753049E+01 -0.37572909954E+02  0.46142318079E+02  0.10000002901E+02 0.  0.
        -12    1    1    2    0    0 -0.24549756224E+02  0.38339753049E+01  0.37572909954E+02  0.45045681921E+02  0.00000000000E+00 0.  1.
         11    1    3    3    0    0  0.11777018950E+02 -0.20394780268E+01 -0.22273060385E+02  0.25277398307E+02  0.51100000000E-03 0. -1.
        -11    1    3    3    0    0  0.45256066389E+01 -0.24773524810E+01 -0.93282248358E+01  0.10659932909E+02  0.51100000000E-03 0.  1.
         12    1    3    3    0    0  0.82471306353E+01  0.68285520301E+00 -0.59716247327E+01  0.10204986864E+02  0.00000000000E+00 0. -1.
</event>
<event>
 7    1  0.2001181E-008  0.4614232E+02  0.7816164E-02  0.1320468E+00
        -11   -1    0    0    0    0  0.00000000000E+00  0.00000000000E+00  0.45593999997E+02  0.45594000000E+02  0.51100000000E-03 0.  1.
         11   -1    0    0    0    0 -0.00000000000E+00 -0.00000000000E+00 -0.45593999997E+02  0.45594000000E+02  0.51100000000E-03 0. -1.
    9900012    2    1    2    0    0 -0.37796395796E+02 -0.62519171254E+01 -0.23695136561E+02  0.46142317637E+02  0.99999988664E+01 0.  0.
        -12    1    1    2    0    0  0.37796395796E+02  0.62519171254E+01  0.23695136561E+02  0.45045682363E+02  0.00000000000E+00 0.  1.
         11    1    3    3    0    0 -0.13871863479E+02 -0.49206249024E+01 -0.77283325938E+01  0.16624327678E+02  0.51100000000E-03 0. -1.
        -11    1    3    3    0    0 -0.94555011385E+01 -0.36945614281E+01 -0.70291099918E+01  0.12347658623E+02  0.51100000000E-03 0.  1.
         12    1    3    3    0    0 -0.14469031179E+02  0.23632692051E+01 -0.89376939749E+01  0.17170331336E+02  0.00000000000E+00 0. -1.
</event>
<event>
 7    1  0.2001181E-008  0.4614232E+02  0.7816164E-02  0.1320468E+00
        -11   -1    0    0    0    0  0.00000000000E+00  0.00000000000E+00  0.45593999997E+02  0.45594000000E+02  0.51100000000E-03 0.  1.
         11   -1    0    0    0    0 -0.00000000000E+00 -0.00000000000E+00 -0.45593999997E+02  0.45594000000E+02  0.51100000000E-03 0. -1.
    9900012    2    1    2    0    0  0.34991554224E+02 -0.14283698377E+02 -0.24508785907E+02  0.46142317710E+02  0.99999995343E+01 0.  0.
        -12    1    1    2    0    0 -0.34991554224E+02  0.14283698377E+02  0.24508785907E+02  0.45045682290E+02  0.00000000000E+00 0.  1.
         11    1    3    3    0    0  0.34875319618E+01 -0.20395588711E+01 -0.16334960866E+01  0.43578652227E+01  0.51100000000E-03 0. -1.
        -11    1    3    3    0    0  0.11307115416E+02 -0.66921322306E+01 -0.44047563983E+01  0.13857754941E+02  0.51100000000E-03 0.  1.
         12    1    3    3    0    0  0.20196906847E+02 -0.55520072752E+01 -0.18470533422E+02  0.27926697546E+02  0.00000000000E+00 0. -1.
</event>
<event>
 7    1  0.2001181E-008  0.4614232E+02  0.7816164E-02  0.1320468E+00
        -11   -1    0    0    0    0  0.00000000000E+00  0.00000000000E+00  0.45593999997E+02  0.45594000000E+02  0.51100000000E-03 0.  1.
         11   -1    0    0    0    0 -0.00000000000E+00 -0.00000000000E+00 -0.45593999997E+02  0.45594000000E+02  0.51100000000E-03 0. -1.
    9900012    2    1    2    0    0  0.16029753919E+02  0.13293944582E+02 -0.39942853375E+02  0.46142317532E+02  0.99999979131E+01 0.  0.
        -12    1    1    2    0    0 -0.16029753919E+02 -0.13293944582E+02  0.39942853375E+02  0.45045682468E+02  0.00000000000E+00 0.  1.
         11    1    3    3    0    0  0.11703325814E+02  0.11135648742E+02 -0.21913620519E+02  0.27224571117E+02  0.51100000000E-03 0.  1.
        -11    1    3    3    0    0  0.24894173981E+01  0.25318037078E+01 -0.86030727139E+01  0.93069914247E+01  0.51100000000E-03 0. -1.
        -12    1    3    3    0    0  0.18370107077E+01 -0.37350786751E+00 -0.94261601417E+01  0.96107549903E+01  0.00000000000E+00 0.  1.
</event>
<event>
 7    1  0.2001181E-008  0.4614232E+02  0.7816164E-02  0.1320468E+00
        -11   -1    0    0    0    0  0.00000000000E+00  0.00000000000E+00  0.45593999997E+02  0.45594000000E+02  0.51100000000E-03 0.  1.
         11   -1    0    0    0    0 -0.00000000000E+00 -0.00000000000E+00 -0.45593999997E+02  0.45594000000E+02  0.51100000000E-03 0. -1.
    9900012    2    1    2    0    0  0.11372370946E+02 -0.20504956591E+02 -0.38462047010E+02  0.46142321784E+02  0.10000036683E+02 0.  0.
        -12    1    1    2    0    0 -0.11372370946E+02  0.20504956591E+02  0.38462047010E+02  0.45045678216E+02  0.00000000000E+00 0.  1.
         11    1    3    3    0    0  0.13308441787E+01 -0.19198225062E+00 -0.29912811080E+01  0.32795985030E+01  0.51100000000E-03 0. -1.
        -11    1    3    3    0    0  0.68130839235E+01 -0.66758632051E+01 -0.10192229445E+02  0.13959470026E+02  0.51100000000E-03 0.  1.
         12    1    3    3    0    0  0.32284428436E+01 -0.13637111135E+02 -0.25278536457E+02  0.28903253255E+02  0.00000000000E+00 0. -1.
</event>
<event>
 7    1  0.2001181E-008  0.4614232E+02  0.7816164E-02  0.1320468E+00
        -11   -1    0    0    0    0  0.00000000000E+00  0.00000000000E+00  0.45593999997E+02  0.45594000000E+02  0.51100000000E-03 0.  1.
         11   -1    0    0    0    0 -0.00000000000E+00 -0.00000000000E+00 -0.45593999997E+02  0.45594000000E+02  0.51100000000E-03 0. -1.
    9900012    2    1    2    0    0  0.28664771404E+02 -0.14339201360E+02 -0.31651723071E+02  0.46142318868E+02  0.10000010094E+02 0.  0.
        -12    1    1    2    0    0 -0.28664771404E+02  0.14339201360E+02  0.31651723071E+02  0.45045681132E+02  0.00000000000E+00 0.  1.
         11    1    3    3    0    0  0.79985799911E+01 -0.51363250585E+01 -0.10862620218E+02  0.14434529270E+02  0.51100000000E-03 0. -1.
        -11    1    3    3    0    0  0.23792953447E+01 -0.43766327583E+01 -0.51647629346E+01  0.71757046393E+01  0.51100000000E-03 0.  1.
        -12    1    3    3    0    0  0.18286896068E+02 -0.48262435429E+01 -0.15624339918E+02  0.24532084959E+02  0.00000000000E+00 0.  1.
</event>
<event>
 7    1  0.2001181E-008  0.4614232E+02  0.7816164E-02  0.1320468E+00
        -11   -1    0    0    0    0  0.00000000000E+00  0.00000000000E+00  0.45593999997E+02  0.45594000000E+02  0.51100000000E-03 0. -1.
         11   -1    0    0    0    0 -0.00000000000E+00 -0.00000000000E+00 -0.45593999997E+02  0.45594000000E+02  0.51100000000E-03 0.  1.
    9900012    2    1    2    0    0 -0.26924287422E+02 -0.20853545739E+02  0.29484332426E+02  0.46142317835E+02  0.10000000675E+02 0.  0.
        -12    1    1    2    0    0  0.26924287422E+02  0.20853545739E+02 -0.29484332426E+02  0.45045682165E+02  0.00000000000E+00 0.  1.
         11    1    3    3    0    0 -0.89625334942E+01 -0.10074010308E+02  0.74042740440E+01  0.15382976458E+02  0.51100000000E-03 0. -1.
        -11    1    3    3    0    0 -0.96033335087E+00 -0.20572696979E+01  0.29289623551E+01  0.37058628541E+01  0.51100000000E-03 0.  1.
         12    1    3    3    0    0 -0.17001420577E+02 -0.87222657328E+01  0.19151096027E+02  0.27053478523E+02  0.00000000000E+00 0. -1.
</event>
<event>
 7    1  0.2001181E-008  0.4614232E+02  0.7816164E-02  0.1320468E+00
        -11   -1    0    0    0    0  0.00000000000E+00  0.00000000000E+00  0.45593999997E+02  0.45594000000E+02  0.51100000000E-03 0. -1.
         11   -1    0    0    0    0 -0.00000000000E+00 -0.00000000000E+00 -0.45593999997E+02  0.45594000000E+02  0.51100000000E-03 0.  1.
    9900012    2    1    2    0    0  0.35943870103E+02 -0.24287698222E+02 -0.12135051571E+02  0.46142316971E+02  0.99999927947E+01 0.  0.
        -12    1    1    2    0    0 -0.35943870103E+02  0.24287698222E+02  0.12135051571E+02  0.45045683029E+02  0.00000000000E+00 0.  1.
         11    1    3    3    0    0  0.19027156561E+01 -0.17993980281E+01  0.13678639069E+01  0.29545239990E+01  0.51100000000E-03 0.  1.
        -11    1    3    3    0    0  0.69643296775E+00 -0.24726683050E+00  0.29788324537E+00  0.79680264371E+00  0.51100000000E-03 0. -1.
        -12    1    3    3    0    0  0.33344721479E+02 -0.22241033363E+02 -0.13800798723E+02  0.42390990328E+02  0.00000000000E+00 0.  1.
</event>
<event>
 7    1  0.2001181E-008  0.4614232E+02  0.7816164E-02  0.1320468E+00
        -11   -1    0    0    0    0  0.00000000000E+00  0.00000000000E+00  0.45593999997E+02  0.45594000000E+02  0.51100000000E-03 0.  1.
         11   -1    0    0    0    0 -0.00000000000E+00 -0.00000000000E+00 -0.45593999997E+02  0.45594000000E+02  0.51100000000E-03 0. -1.
    9900012    2    1    2    0    0 -0.18243385581E+01  0.21390057592E+02 -0.39601145582E+02  0.46142317561E+02  0.99999981774E+01 0.  0.
        -12    1    1    2    0    0  0.18243385581E+01 -0.21390057592E+02  0.39601145582E+02  0.45045682439E+02  0.00000000000E+00 0.  1.
         11    1    3    3    0    0  0.18818182930E+01  0.18444059296E+01 -0.83160273300E+01  0.87234960960E+01  0.51100000000E-03 0. -1.
        -11    1    3    3    0    0 -0.42472157923E+01  0.11623566189E+02 -0.16365168593E+02  0.20517428598E+02  0.51100000000E-03 0.  1.
        -12    1    3    3    0    0  0.54105894107E+00  0.79220854730E+01 -0.14919949660E+02  0.16901392868E+02  0.00000000000E+00 0.  1.
</event>
<event>
 7    1  0.2001181E-008  0.4614232E+02  0.7816164E-02  0.1320468E+00
        -11   -1    0    0    0    0  0.00000000000E+00  0.00000000000E+00  0.45593999997E+02  0.45594000000E+02  0.51100000000E-03 0.  1.
         11   -1    0    0    0    0 -0.00000000000E+00 -0.00000000000E+00 -0.45593999997E+02  0.45594000000E+02  0.51100000000E-03 0. -1.
    9900012    2    1    2    0    0 -0.33987220361E+02  0.57619301533E+01 -0.28996250385E+02  0.46142317373E+02  0.99999964579E+01 0.  0.
        -12    1    1    2    0    0  0.33987220361E+02 -0.57619301533E+01  0.28996250385E+02  0.45045682627E+02  0.00000000000E+00 0.  1.
         11    1    3    3    0    0 -0.22955972363E+01 -0.89279531317E+00 -0.18792830435E+01  0.30981535084E+01  0.51100000000E-03 0. -1.
        -11    1    3    3    0    0 -0.68960057213E+00 -0.12552008421E+01 -0.12375423017E+01  0.18927729163E+01  0.51100000000E-03 0.  1.
         12    1    3    3    0    0 -0.31002022552E+02  0.79099263085E+01 -0.25879425040E+02  0.41151390948E+02  0.00000000000E+00 0. -1.
</event>
<event>
 7    1  0.2001181E-008  0.4614232E+02  0.7816164E-02  0.1320468E+00
        -11   -1    0    0    0    0  0.00000000000E+00  0.00000000000E+00  0.45593999997E+02  0.45594000000E+02  0.51100000000E-03 0. -1.
         11   -1    0    0    0    0 -0.00000000000E+00 -0.00000000000E+00 -0.45593999997E+02  0.45594000000E+02  0.51100000000E-03 0.  1.
    9900012    2    1    2    0    0  0.33399407336E+01  0.44882528160E+02 -0.18753489385E+01  0.46142317945E+02  0.10000001677E+02 0.  0.
        -12    1    1    2    0    0 -0.33399407336E+01 -0.44882528160E+02  0.18753489385E+01  0.45045682055E+02  0.00000000000E+00 0.  1.
         11    1    3    3    0    0 -0.93856688440E+00  0.15068854858E+01 -0.64824548881E+00  0.18899296650E+01  0.51100000000E-03 0. -1.
        -11    1    3    3    0    0 -0.71288585171E+00  0.46873403092E+00  0.55767338332E+00  0.10192731199E+01  0.51100000000E-03 0.  1.
         12    1    3    3    0    0  0.49913934697E+01  0.42906908643E+02 -0.17847768330E+01  0.43233115160E+02  0.00000000000E+00 0. -1.
</event>
<event>
 7    1  0.2001181E-008  0.4614232E+02  0.7816164E-02  0.1320468E+00
        -11   -1    0    0    0    0  0.00000000000E+00  0.00000000000E+00  0.45593999997E+02  0.45594000000E+02  0.51100000000E-03 0.  1.
         11   -1    0    0    0    0 -0.00000000000E+00 -0.00000000000E+00 -0.45593999997E+02  0.45594000000E+02  0.51100000000E-03 0. -1.
    9900012    2    1    2    0    0  0.20854189757E+02  0.10430960005E+01 -0.39914008587E+02  0.46142319173E+02  0.10000012875E+02 0.  0.
        -12    1    1    2    0    0 -0.20854189757E+02 -0.10430960005E+01  0.39914008587E+02  0.45045680827E+02  0.00000000000E+00 0.  1.
         11    1    3    3    0    0  0.86891663406E+01  0.76135798438E-01 -0.24837438825E+02  0.26313604390E+02  0.51100000000E-03 0. -1.
        -11    1    3    3    0    0 -0.26018819083E+00  0.54986031068E-01  0.59420031998E-02  0.26600174207E+00  0.51100000000E-03 0.  1.
        -12    1    3    3    0    0  0.12425211607E+02  0.91197417102E+00 -0.15082511765E+02  0.19562713041E+02  0.00000000000E+00 0.  1.
</event>
<event>
 7    1  0.2001181E-008  0.4614232E+02  0.7816164E-02  0.1320468E+00
        -11   -1    0    0    0    0  0.00000000000E+00  0.00000000000E+00  0.45593999997E+02  0.45594000000E+02  0.51100000000E-03 0.  1.
         11   -1    0    0    0    0 -0.00000000000E+00 -0.00000000000E+00 -0.45593999997E+02  0.45594000000E+02  0.51100000000E-03 0. -1.
    9900012    2    1    2    0    0  0.76235362565E+01 -0.19862890625E+02 -0.39704668942E+02  0.46142318023E+02  0.10000002384E+02 0.  0.
        -12    1    1    2    0    0 -0.76235362565E+01  0.19862890625E+02  0.39704668942E+02  0.45045681977E+02  0.00000000000E+00 0.  1.
         11    1    3    3    0    0 -0.49934144048E+00 -0.82466921767E+01 -0.10413182663E+02  0.13292541035E+02  0.51100000000E-03 0. -1.
        -11    1    3    3    0    0  0.39549069099E+01 -0.90650906735E+01 -0.17815772930E+02  0.20376921331E+02  0.51100000000E-03 0.  1.
        -12    1    3    3    0    0  0.41679707871E+01 -0.25511077744E+01 -0.11475713349E+02  0.12472855656E+02  0.00000000000E+00 0.  1.
</event>
<event>
 7    1  0.2001181E-008  0.4614232E+02  0.7816164E-02  0.1320468E+00
        -11   -1    0    0    0    0  0.00000000000E+00  0.00000000000E+00  0.45593999997E+02  0.45594000000E+02  0.51100000000E-03 0.  1.
         11   -1    0    0    0    0 -0.00000000000E+00 -0.00000000000E+00 -0.45593999997E+02  0.45594000000E+02  0.51100000000E-03 0. -1.
    9900012    2    1    2    0    0 -0.43016686322E+02  0.55606386617E+01 -0.12155555580E+02  0.46142317233E+02  0.99999951868E+01 0.  0.
        -12    1    1    2    0    0  0.43016686322E+02 -0.55606386617E+01  0.12155555580E+02  0.45045682767E+02  0.00000000000E+00 0.  1.
         11    1    3    3    0    0  0.27183395554E+00  0.20504202126E-01  0.88537148083E-01  0.28662381164E+00  0.51100000000E-03 0.  1.
        -11    1    3    3    0    0 -0.11904437557E+02  0.73684232166E+00 -0.65243814065E+01  0.13595077166E+02  0.51100000000E-03 0. -1.
         12    1    3    3    0    0 -0.31384082721E+02  0.48032921379E+01 -0.57197113216E+01  0.32260616256E+02  0.00000000000E+00 0. -1.
</event>
<event>
 7    1  0.2001181E-008  0.4614232E+02  0.7816164E-02  0.1320468E+00
        -11   -1    0    0    0    0  0.00000000000E+00  0.00000000000E+00  0.45593999997E+02  0.45594000000E+02  0.51100000000E-03 0.  1.
         11   -1    0    0    0    0 -0.00000000000E+00 -0.00000000000E+00 -0.45593999997E+02  0.45594000000E+02  0.51100000000E-03 0. -1.
    9900012    2    1    2    0    0 -0.26586385950E+02  0.33467599380E+02 -0.14219606764E+02  0.46142319378E+02  0.10000014746E+02 0.  0.
        -12    1    1    2    0    0  0.26586385950E+02 -0.33467599380E+02  0.14219606764E+02  0.45045680622E+02  0.00000000000E+00 0.  1.
         11    1    3    3    0    0 -0.89274653698E+01  0.17313333041E+02 -0.53021645389E+01  0.20188216563E+02  0.51100000000E-03 0. -1.
        -11    1    3    3    0    0 -0.13379153444E+02  0.11830635744E+02 -0.44479547736E+01  0.18405162073E+02  0.51100000000E-03 0.  1.
         12    1    3    3    0    0 -0.42797671355E+01  0.43236305951E+01 -0.44694874516E+01  0.75489407427E+01  0.00000000000E+00 0. -1.
</event>
<event>
 7    1  0.2001181E-008  0.4614232E+02  0.7816164E-02  0.1320468E+00
        -11   -1    0    0    0    0  0.00000000000E+00  0.00000000000E+00  0.45593999997E+02  0.45594000000E+02  0.51100000000E-03 0.  1.
         11   -1    0    0    0    0 -0.00000000000E+00 -0.00000000000E+00 -0.45593999997E+02  0.45594000000E+02  0.51100000000E-03 0. -1.
    9900012    2    1    2    0    0  0.36753205300E+02  0.20515724909E+02 -0.16044327600E+02  0.46142317449E+02  0.99999971537E+01 0.  0.
        -12    1    1    2    0    0 -0.36753205300E+02 -0.20515724909E+02  0.16044327600E+02  0.45045682551E+02  0.00000000000E+00 0.  1.
         11    1    3    3    0    0  0.19280933614E+02  0.91095872986E+01 -0.38130088139E+01  0.21662825722E+02  0.51100000000E-03 0. -1.
        -11    1    3    3    0    0  0.37490446819E+01  0.74096481664E+00 -0.20496904466E+01  0.43365419489E+01  0.51100000000E-03 0.  1.
         12    1    3    3    0    0  0.13723227003E+02  0.10665172794E+02 -0.10181628339E+02  0.20142949778E+02  0.00000000000E+00 0. -1.
</event>
<event>
 7    1  0.2001181E-008  0.4614232E+02  0.7816164E-02  0.1320468E+00
        -11   -1    0    0    0    0  0.00000000000E+00  0.00000000000E+00  0.45593999997E+02  0.45594000000E+02  0.51100000000E-03 0.  1.
         11   -1    0    0    0    0 -0.00000000000E+00 -0.00000000000E+00 -0.45593999997E+02  0.45594000000E+02  0.51100000000E-03 0. -1.
    9900012    2    1    2    0    0 -0.27066915967E+02  0.21788063001E+02 -0.28666629131E+02  0.46142320351E+02  0.10000023616E+02 0.  0.
        -12    1    1    2    0    0  0.27066915967E+02 -0.21788063001E+02  0.28666629131E+02  0.45045679649E+02  0.00000000000E+00 0.  1.
         11    1    3    3    0    0 -0.12516893414E+02  0.73606894274E+01 -0.15201858856E+02  0.21022580301E+02  0.51100000000E-03 0. -1.
        -11    1    3    3    0    0 -0.78050885049E+00  0.60412923191E-01 -0.20131907104E+01  0.21600418710E+01  0.51100000000E-03 0.  1.
        -12    1    3    3    0    0 -0.13769513702E+02  0.14366960650E+02 -0.11451579565E+02  0.22959698179E+02  0.00000000000E+00 0.  1.
</event>
<event>
 7    1  0.2001181E-008  0.4614232E+02  0.7816164E-02  0.1320468E+00
        -11   -1    0    0    0    0  0.00000000000E+00  0.00000000000E+00  0.45593999997E+02  0.45594000000E+02  0.51100000000E-03 0.  1.
         11   -1    0    0    0    0 -0.00000000000E+00 -0.00000000000E+00 -0.45593999997E+02  0.45594000000E+02  0.51100000000E-03 0. -1.
    9900012    2    1    2    0    0 -0.13114366125E+01 -0.41354122107E+02 -0.17810958266E+02  0.46142317459E+02  0.99999972458E+01 0.  0.
        -12    1    1    2    0    0  0.13114366125E+01  0.41354122107E+02  0.17810958266E+02  0.45045682541E+02  0.00000000000E+00 0.  1.
         11    1    3    3    0    0 -0.10309394128E+01 -0.10320352186E+02 -0.46365264328E+01  0.11360892700E+02  0.51100000000E-03 0. -1.
        -11    1    3    3    0    0  0.36595767404E+00 -0.13547616191E+02 -0.12575118346E+01  0.13610773885E+02  0.51100000000E-03 0.  1.
         12    1    3    3    0    0 -0.64645487379E+00 -0.17486153730E+02 -0.11916919999E+02  0.21170650874E+02  0.00000000000E+00 0. -1.
</event>
<event>
 7    1  0.2001181E-008  0.4614232E+02  0.7816164E-02  0.1320468E+00
        -11   -1    0    0    0    0  0.00000000000E+00  0.00000000000E+00  0.45593999997E+02  0.45594000000E+02  0.51100000000E-03 0.  1.
         11   -1    0    0    0    0 -0.00000000000E+00 -0.00000000000E+00 -0.45593999997E+02  0.45594000000E+02  0.51100000000E-03 0. -1.
    9900012    2    1    2    0    0 -0.49459736415E+01  0.37452145044E+02 -0.24535425128E+02  0.46142324182E+02  0.10000058555E+02 0.  0.
        -12    1    1    2    0    0  0.49459736415E+01 -0.37452145044E+02  0.24535425128E+02  0.45045675818E+02  0.00000000000E+00 0.  1.
         11    1    3    3    0    0 -0.25415197922E+00 -0.30545547022E+00 -0.43252938756E-01  0.39970908254E+00  0.51100000000E-03 0. -1.
        -11    1    3    3    0    0 -0.15038874198E+01  0.49541076859E+01 -0.60966674234E+01  0.79983882294E+01  0.51100000000E-03 0.  1.
         12    1    3    3    0    0 -0.31879342425E+01  0.32803492828E+02 -0.18395504766E+02  0.37744226871E+02  0.00000000000E+00 0. -1.
</event>
<event>
 7    1  0.2001181E-008  0.4614232E+02  0.7816164E-02  0.1320468E+00
        -11   -1    0    0    0    0  0.00000000000E+00  0.00000000000E+00  0.45593999997E+02  0.45594000000E+02  0.51100000000E-03 0.  1.
         11   -1    0    0    0    0 -0.00000000000E+00 -0.00000000000E+00 -0.45593999997E+02  0.45594000000E+02  0.51100000000E-03 0. -1.
    9900012    2    1    2    0    0  0.20206912489E+02 -0.35819763741E+02 -0.18377667264E+02  0.46142318289E+02  0.10000004811E+02 0.  0.
        -12    1    1    2    0    0 -0.20206912489E+02  0.35819763741E+02  0.18377667264E+02  0.45045681711E+02  0.00000000000E+00 0.  1.
         11    1    3    3    0    0  0.53989786473E+01 -0.59121140040E+01 -0.47981839104E+01  0.93340576134E+01  0.51100000000E-03 0. -1.
        -11    1    3    3    0    0  0.13264421853E+02 -0.20922822147E+02 -0.12108177337E+02  0.27573852331E+02  0.51100000000E-03 0.  1.
        -12    1    3    3    0    0  0.15435119885E+01 -0.89848275895E+01 -0.14713060165E+01  0.92344083441E+01  0.00000000000E+00 0.  1.
</event>
<event>
 7    1  0.2001181E-008  0.4614231E+02  0.7816164E-02  0.1320468E+00
        -11   -1    0    0    0    0  0.00000000000E+00  0.00000000000E+00  0.45593999997E+02  0.45594000000E+02  0.51100000000E-03 0.  1.
         11   -1    0    0    0    0 -0.00000000000E+00 -0.00000000000E+00 -0.45593999997E+02  0.45594000000E+02  0.51100000000E-03 0. -1.
    9900012    2    1    2    0    0  0.20034156866E+01  0.38988084522E+02 -0.22472873094E+02  0.46142307262E+02  0.99999042596E+01 0.  0.
        -12    1    1    2    0    0 -0.20034156866E+01 -0.38988084522E+02  0.22472873094E+02  0.45045692738E+02  0.00000000000E+00 0.  1.
         11    1    3    3    0    0  0.27531865903E+01  0.28329408120E+02 -0.16061980207E+02  0.32682145114E+02  0.51100000000E-03 0. -1.
        -11    1    3    3    0    0  0.17095219764E+01  0.41901508066E+01 -0.42554996179E+01  0.62120130738E+01  0.51100000000E-03 0.  1.
        -12    1    3    3    0    0 -0.24592928801E+01  0.64685255960E+01 -0.21553932698E+01  0.72481490743E+01  0.00000000000E+00 0.  1.
</event>
<event>
 7    1  0.2001181E-008  0.4614232E+02  0.7816164E-02  0.1320468E+00
        -11   -1    0    0    0    0  0.00000000000E+00  0.00000000000E+00  0.45593999997E+02  0.45594000000E+02  0.51100000000E-03 0.  1.
         11   -1    0    0    0    0 -0.00000000000E+00 -0.00000000000E+00 -0.45593999997E+02  0.45594000000E+02  0.51100000000E-03 0. -1.
    9900012    2    1    2    0    0  0.22277522386E+02 -0.23643403550E+02 -0.31206009681E+02  0.46142316797E+02  0.99999912059E+01 0.  0.
        -12    1    1    2    0    0 -0.22277522386E+02  0.23643403550E+02  0.31206009681E+02  0.45045683203E+02  0.00000000000E+00 0.  1.
         11    1    3    3    0    0  0.10994020974E+02 -0.10479745005E+02 -0.14882422491E+02  0.21264525671E+02  0.51100000000E-03 0. -1.
        -11    1    3    3    0    0  0.22207709999E+01  0.75938686085E-01 -0.37165763292E+00  0.22529359013E+01  0.51100000000E-03 0.  1.
        -12    1    3    3    0    0  0.90627304120E+01 -0.13239597230E+02 -0.15951929557E+02  0.22624855225E+02  0.00000000000E+00 0.  1.
</event>
<event>
 7    1  0.2001181E-008  0.4614232E+02  0.7816164E-02  0.1320468E+00
        -11   -1    0    0    0    0  0.00000000000E+00  0.00000000000E+00  0.45593999997E+02  0.45594000000E+02  0.51100000000E-03 0.  1.
         11   -1    0    0    0    0 -0.00000000000E+00 -0.00000000000E+00 -0.45593999997E+02  0.45594000000E+02  0.51100000000E-03 0. -1.
    9900012    2    1    2    0    0 -0.44846862464E+02  0.42275118321E+01  0.25667208379E-01  0.46142316656E+02  0.99999899216E+01 0.  0.
        -12    1    1    2    0    0  0.44846862464E+02 -0.42275118321E+01 -0.25667208379E-01  0.45045683344E+02  0.00000000000E+00 0.  1.
         11    1    3    3    0    0 -0.20809657557E+01  0.15140398316E+00  0.12077382836E+01  0.24108035310E+01  0.51100000000E-03 0. -1.
        -11    1    3    3    0    0 -0.34330466930E+01 -0.12505299553E+01  0.14988185490E+01  0.39491887862E+01  0.51100000000E-03 0.  1.
         12    1    3    3    0    0 -0.39332850015E+02  0.53266378043E+01 -0.26808896242E+01  0.39782324339E+02  0.00000000000E+00 0. -1.
</event>
<event>
 7    1  0.2001181E-008  0.4614232E+02  0.7816164E-02  0.1320468E+00
        -11   -1    0    0    0    0  0.00000000000E+00  0.00000000000E+00  0.45593999997E+02  0.45594000000E+02  0.51100000000E-03 0.  1.
         11   -1    0    0    0    0 -0.00000000000E+00 -0.00000000000E+00 -0.45593999997E+02  0.45594000000E+02  0.51100000000E-03 0. -1.
    9900012    2    1    2    0    0  0.23530727518E+01 -0.40900909248E+02  0.18726775588E+02  0.46142318158E+02  0.10000003617E+02 0.  0.
        -12    1    1    2    0    0 -0.23530727518E+01  0.40900909248E+02 -0.18726775588E+02  0.45045681842E+02  0.00000000000E+00 0.  1.
         11    1    3    3    0    0  0.47117718636E+01 -0.28721556633E+02  0.15097530723E+02  0.32788169265E+02  0.51100000000E-03 0. -1.
        -11    1    3    3    0    0  0.64268065484E+00 -0.75979541625E+00  0.60858929888E+00  0.11664941897E+01  0.51100000000E-03 0.  1.
        -12    1    3    3    0    0 -0.30013797667E+01 -0.11419557199E+02  0.30206555660E+01  0.12187654703E+02  0.00000000000E+00 0.  1.
</event>
<event>
 7    1  0.2001181E-008  0.4614232E+02  0.7816164E-02  0.1320468E+00
        -11   -1    0    0    0    0  0.00000000000E+00  0.00000000000E+00  0.45593999997E+02  0.45594000000E+02  0.51100000000E-03 0.  1.
         11   -1    0    0    0    0 -0.00000000000E+00 -0.00000000000E+00 -0.45593999997E+02  0.45594000000E+02  0.51100000000E-03 0. -1.
    9900012    2    1    2    0    0  0.31105598467E+02 -0.93743875545E+01 -0.31203783758E+02  0.46142317423E+02  0.99999969174E+01 0.  0.
        -12    1    1    2    0    0 -0.31105598467E+02  0.93743875545E+01  0.31203783758E+02  0.45045682577E+02  0.00000000000E+00 0.  1.
         11    1    3    3    0    0  0.74129335153E+01 -0.31092095097E+01 -0.72850572897E+01  0.10848540319E+02  0.51100000000E-03 0. -1.
        -11    1    3    3    0    0 -0.66166629885E+00 -0.50231927759E+00 -0.13963277916E+01  0.16247641400E+01  0.51100000000E-03 0.  1.
        -12    1    3    3    0    0  0.24354331250E+02 -0.57628587673E+01 -0.22522398677E+02  0.33669012964E+02  0.00000000000E+00 0.  1.
</event>
<event>
 7    1  0.2001181E-008  0.4614232E+02  0.7816164E-02  0.1320468E+00
        -11   -1    0    0    0    0  0.00000000000E+00  0.00000000000E+00  0.45593999997E+02  0.45594000000E+02  0.51100000000E-03 0.  1.
         11   -1    0    0    0    0 -0.00000000000E+00 -0.00000000000E+00 -0.45593999997E+02  0.45594000000E+02  0.51100000000E-03 0. -1.
    9900012    2    1    2    0    0 -0.17079519135E+02 -0.41629111656E+02  0.21024879860E+01  0.46142319109E+02  0.10000012296E+02 0.  0.
        -12    1    1    2    0    0  0.17079519135E+02  0.41629111656E+02 -0.21024879860E+01  0.45045680891E+02  0.00000000000E+00 0.  1.
         11    1    3    3    0    0 -0.27750079943E+00 -0.93270864795E+00  0.72771665179E+00  0.12151229987E+01  0.51100000000E-03 0. -1.
        -11    1    3    3    0    0 -0.21916839863E+01 -0.14986462198E+01  0.15895542772E+01  0.30945277911E+01  0.51100000000E-03 0.  1.
         12    1    3    3    0    0 -0.14610334349E+02 -0.39197756788E+02 -0.21478294304E+00  0.41832668320E+02  0.00000000000E+00 0. -1.
</event>
<event>
 7    1  0.2001181E-008  0.4614232E+02  0.7816164E-02  0.1320468E+00
        -11   -1    0    0    0    0  0.00000000000E+00  0.00000000000E+00  0.45593999997E+02  0.45594000000E+02  0.51100000000E-03 0.  1.
         11   -1    0    0    0    0 -0.00000000000E+00 -0.00000000000E+00 -0.45593999997E+02  0.45594000000E+02  0.51100000000E-03 0. -1.
    9900012    2    1    2    0    0  0.12516428916E+02 -0.36261907610E+02 -0.23612001130E+02  0.46142317258E+02  0.99999954122E+01 0.  0.
        -12    1    1    2    0    0 -0.12516428916E+02  0.36261907610E+02  0.23612001130E+02  0.45045682742E+02  0.00000000000E+00 0.  1.
         11    1    3    3    0    0  0.56612484560E+01 -0.13624759584E+02 -0.92308352265E+01  0.17403796340E+02  0.51100000000E-03 0. -1.
        -11    1    3    3    0    0  0.22534173007E+01 -0.17791948262E+02 -0.85418079253E+01  0.19864385100E+02  0.51100000000E-03 0.  1.
         12    1    3    3    0    0  0.46017631590E+01 -0.48451997638E+01 -0.58393579780E+01  0.88741358181E+01  0.00000000000E+00 0. -1.
</event>
<event>
 7    1  0.2001181E-008  0.4614232E+02  0.7816164E-02  0.1320468E+00
        -11   -1    0    0    0    0  0.00000000000E+00  0.00000000000E+00  0.45593999997E+02  0.45594000000E+02  0.51100000000E-03 0. -1.
         11   -1    0    0    0    0 -0.00000000000E+00 -0.00000000000E+00 -0.45593999997E+02  0.45594000000E+02  0.51100000000E-03 0.  1.
    9900012    2    1    2    0    0 -0.18971153718E+02 -0.39206811225E+02  0.11490646135E+02  0.46142315763E+02  0.99999817810E+01 0.  0.
        -12    1    1    2    0    0  0.18971153718E+02  0.39206811225E+02 -0.11490646135E+02  0.45045684237E+02  0.00000000000E+00 0.  1.
         11    1    3    3    0    0  0.15337980035E+00 -0.14216342963E+01  0.47759608536E+00  0.15075369705E+01  0.51100000000E-03 0.  1.
        -11    1    3    3    0    0 -0.15820789899E+02 -0.23477806497E+02  0.49116985001E+01  0.28733770608E+02  0.51100000000E-03 0. -1.
         12    1    3    3    0    0 -0.33037436187E+01 -0.14307370431E+02  0.61013515494E+01  0.15901008185E+02  0.00000000000E+00 0. -1.
</event>
<event>
 7    1  0.2001181E-008  0.4614232E+02  0.7816164E-02  0.1320468E+00
        -11   -1    0    0    0    0  0.00000000000E+00  0.00000000000E+00  0.45593999997E+02  0.45594000000E+02  0.51100000000E-03 0.  1.
         11   -1    0    0    0    0 -0.00000000000E+00 -0.00000000000E+00 -0.45593999997E+02  0.45594000000E+02  0.51100000000E-03 0. -1.
    9900012    2    1    2    0    0  0.38034594488E+02 -0.53587894717E+01 -0.23532244311E+02  0.46142317357E+02  0.99999963123E+01 0.  0.
        -12    1    1    2    0    0 -0.38034594488E+02  0.53587894717E+01  0.23532244311E+02  0.45045682643E+02  0.00000000000E+00 0.  1.
         11    1    3    3    0    0  0.19415003694E+02 -0.18571170986E+01 -0.94836580358E+01  0.21687116507E+02  0.51100000000E-03 0. -1.
        -11    1    3    3    0    0  0.14804255219E+02 -0.31823827401E+01 -0.75684584142E+01  0.16928529042E+02  0.51100000000E-03 0.  1.
        -12    1    3    3    0    0  0.38153355756E+01 -0.31928963296E+00 -0.64801278607E+01  0.75266718086E+01  0.00000000000E+00 0.  1.
</event>
<event>
 7    1  0.2001181E-008  0.4614232E+02  0.7816164E-02  0.1320468E+00
        -11   -1    0    0    0    0  0.00000000000E+00  0.00000000000E+00  0.45593999997E+02  0.45594000000E+02  0.51100000000E-03 0.  1.
         11   -1    0    0    0    0 -0.00000000000E+00 -0.00000000000E+00 -0.45593999997E+02  0.45594000000E+02  0.51100000000E-03 0. -1.
    9900012    2    1    2    0    0  0.42540015814E+01  0.23642387546E+02 -0.38105832334E+02  0.46142317897E+02  0.10000001236E+02 0.  0.
        -12    1    1    2    0    0 -0.42540015814E+01 -0.23642387546E+02  0.38105832334E+02  0.45045682103E+02  0.00000000000E+00 0.  1.
         11    1    3    3    0    0 -0.61442884067E+00  0.50940568010E+01 -0.11755578725E+02  0.12826557173E+02  0.51100000000E-03 0.  1.
        -11    1    3    3    0    0 -0.86168777945E+00  0.10261918135E+02 -0.13929299122E+02  0.17322668499E+02  0.51100000000E-03 0. -1.
         12    1    3    3    0    0  0.57301182015E+01  0.82864126099E+01 -0.12420954487E+02  0.15993092225E+02  0.00000000000E+00 0. -1.
</event>
<event>
 7    1  0.2001181E-008  0.4614232E+02  0.7816164E-02  0.1320468E+00
        -11   -1    0    0    0    0  0.00000000000E+00  0.00000000000E+00  0.45593999997E+02  0.45594000000E+02  0.51100000000E-03 0. -1.
         11   -1    0    0    0    0 -0.00000000000E+00 -0.00000000000E+00 -0.45593999997E+02  0.45594000000E+02  0.51100000000E-03 0.  1.
    9900012    2    1    2    0    0  0.20638517793E+01 -0.36493673321E+02 -0.26326141744E+02  0.46142318567E+02  0.10000007352E+02 0.  0.
        -12    1    1    2    0    0 -0.20638517793E+01  0.36493673321E+02  0.26326141744E+02  0.45045681433E+02  0.00000000000E+00 0.  1.
         11    1    3    3    0    0 -0.22021564481E+01 -0.19934659387E+01 -0.14874549738E+01  0.33220358263E+01  0.51100000000E-03 0. -1.
        -11    1    3    3    0    0 -0.10846112750E+00 -0.11670342312E+01 -0.14565853187E+01  0.18695918712E+01  0.51100000000E-03 0.  1.
         12    1    3    3    0    0  0.43744693549E+01 -0.33333173151E+02 -0.23382101451E+02  0.40950690870E+02  0.00000000000E+00 0. -1.
</event>
<event>
 7    1  0.2001181E-008  0.4614231E+02  0.7816164E-02  0.1320468E+00
        -11   -1    0    0    0    0  0.00000000000E+00  0.00000000000E+00  0.45593999997E+02  0.45594000000E+02  0.51100000000E-03 0.  1.
         11   -1    0    0    0    0 -0.00000000000E+00 -0.00000000000E+00 -0.45593999997E+02  0.45594000000E+02  0.51100000000E-03 0. -1.
    9900012    2    1    2    0    0 -0.20180044605E+02  0.11179373694E+02 -0.38689811595E+02  0.46142310775E+02  0.99999362941E+01 0.  0.
        -12    1    1    2    0    0  0.20180044605E+02 -0.11179373694E+02  0.38689811595E+02  0.45045689225E+02  0.00000000000E+00 0.  1.
         11    1    3    3    0    0 -0.12293729865E+02  0.52272115597E+01 -0.28117081660E+02  0.31129243743E+02  0.51100000000E-03 0. -1.
        -11    1    3    3    0    0 -0.61167769842E+01  0.25574634400E+01 -0.52510125762E+01  0.84574649427E+01  0.51100000000E-03 0.  1.
         12    1    3    3    0    0 -0.17695377563E+01  0.33946986948E+01 -0.53217173592E+01  0.65556020891E+01  0.00000000000E+00 0. -1.
</event>
<event>
 7    1  0.2001181E-008  0.4614232E+02  0.7816164E-02  0.1320468E+00
        -11   -1    0    0    0    0  0.00000000000E+00  0.00000000000E+00  0.45593999997E+02  0.45594000000E+02  0.51100000000E-03 0. -1.
         11   -1    0    0    0    0 -0.00000000000E+00 -0.00000000000E+00 -0.45593999997E+02  0.45594000000E+02  0.51100000000E-03 0.  1.
    9900012    2    1    2    0    0  0.22012293406E+02  0.29099383593E+02  0.26415870858E+02  0.46142318524E+02  0.10000006956E+02 0.  0.
        -12    1    1    2    0    0 -0.22012293406E+02 -0.29099383593E+02 -0.26415870858E+02  0.45045681476E+02  0.00000000000E+00 0.  1.
         11    1    3    3    0    0  0.24509935454E+01  0.20888471689E+01  0.36430545132E+01  0.48623552217E+01  0.51100000000E-03 0. -1.
        -11    1    3    3    0    0  0.71632805735E+01  0.41520748703E+01  0.71789253483E+01  0.10958525618E+02  0.51100000000E-03 0.  1.
         12    1    3    3    0    0  0.12398019287E+02  0.22858461553E+02  0.15593890997E+02  0.30321437684E+02  0.00000000000E+00 0. -1.
</event>
<event>
 7    1  0.2001181E-008  0.4614232E+02  0.7816164E-02  0.1320468E+00
        -11   -1    0    0    0    0  0.00000000000E+00  0.00000000000E+00  0.45593999997E+02  0.45594000000E+02  0.51100000000E-03 0.  1.
         11   -1    0    0    0    0 -0.00000000000E+00 -0.00000000000E+00 -0.45593999997E+02  0.45594000000E+02  0.51100000000E-03 0. -1.
    9900012    2    1    2    0    0  0.86055100047E+01 -0.14183185458E+02 -0.41879543429E+02  0.46142315301E+02  0.99999775642E+01 0.  0.
        -12    1    1    2    0    0 -0.86055100047E+01  0.14183185458E+02  0.41879543429E+02  0.45045684699E+02  0.00000000000E+00 0.  1.
         11    1    3    3    0    0 -0.48098113757E-01 -0.39805854733E+01 -0.98027390774E+01  0.10580220594E+02  0.51100000000E-03 0. -1.
        -11    1    3    3    0    0 -0.32140655756E+00 -0.48609508171E+01 -0.11396037283E+02  0.12393619771E+02  0.51100000000E-03 0.  1.
         12    1    3    3    0    0  0.89750146760E+01 -0.53416491673E+01 -0.20680767070E+02  0.23168474936E+02  0.00000000000E+00 0. -1.
</event>
<event>
 7    1  0.2001181E-008  0.4614232E+02  0.7816164E-02  0.1320468E+00
        -11   -1    0    0    0    0  0.00000000000E+00  0.00000000000E+00  0.45593999997E+02  0.45594000000E+02  0.51100000000E-03 0.  1.
         11   -1    0    0    0    0 -0.00000000000E+00 -0.00000000000E+00 -0.45593999997E+02  0.45594000000E+02  0.51100000000E-03 0. -1.
    9900012    2    1    2    0    0  0.30182579943E+02  0.83475784894E+01 -0.32379673688E+02  0.46142318000E+02  0.10000002181E+02 0.  0.
        -12    1    1    2    0    0 -0.30182579943E+02 -0.83475784894E+01  0.32379673688E+02  0.45045682000E+02  0.00000000000E+00 0.  1.
         11    1    3    3    0    0  0.16439817527E+02  0.52702328345E+01 -0.16859425544E+02  0.24130544635E+02  0.51100000000E-03 0. -1.
        -11    1    3    3    0    0  0.95009946337E+01  0.46707870600E+01 -0.81525609192E+01  0.13362237859E+02  0.51100000000E-03 0.  1.
         12    1    3    3    0    0  0.42417677823E+01 -0.15934414051E+01 -0.73676872249E+01  0.86495355063E+01  0.00000000000E+00 0. -1.
</event>
<event>
 7    1  0.2001181E-008  0.4614232E+02  0.7816164E-02  0.1320468E+00
        -11   -1    0    0    0    0  0.00000000000E+00  0.00000000000E+00  0.45593999997E+02  0.45594000000E+02  0.51100000000E-03 0. -1.
         11   -1    0    0    0    0 -0.00000000000E+00 -0.00000000000E+00 -0.45593999997E+02  0.45594000000E+02  0.51100000000E-03 0.  1.
    9900012    2    1    2    0    0  0.39391601644E+02 -0.21849456424E+02  0.12825749385E+00  0.46142317897E+02  0.10000001242E+02 0.  0.
        -12    1    1    2    0    0 -0.39391601644E+02  0.21849456424E+02 -0.12825749385E+00  0.45045682103E+02  0.00000000000E+00 0.  1.
         11    1    3    3    0    0  0.98142705986E+01 -0.31668642601E+01 -0.15097082041E+01  0.10422483185E+02  0.51100000000E-03 0. -1.
        -11    1    3    3    0    0  0.16652349272E+02 -0.14537751266E+02  0.76896068093E+00  0.22118730726E+02  0.51100000000E-03 0.  1.
        -12    1    3    3    0    0  0.12924981773E+02 -0.41448408981E+01  0.86900501698E+00  0.13601103986E+02  0.00000000000E+00 0.  1.
</event>
<event>
 7    1  0.2001181E-008  0.4614232E+02  0.7816164E-02  0.1320468E+00
        -11   -1    0    0    0    0  0.00000000000E+00  0.00000000000E+00  0.45593999997E+02  0.45594000000E+02  0.51100000000E-03 0. -1.
         11   -1    0    0    0    0 -0.00000000000E+00 -0.00000000000E+00 -0.45593999997E+02  0.45594000000E+02  0.51100000000E-03 0.  1.
    9900012    2    1    2    0    0 -0.17901558120E+02 -0.40756320457E+02  0.68971039942E+01  0.46142317812E+02  0.10000000460E+02 0.  0.
        -12    1    1    2    0    0  0.17901558120E+02  0.40756320457E+02 -0.68971039942E+01  0.45045682188E+02  0.00000000000E+00 0.  1.
         11    1    3    3    0    0  0.75026276830E+00 -0.32975064463E+01 -0.54503965568E-01  0.33822202661E+01  0.51100000000E-03 0. -1.
        -11    1    3    3    0    0 -0.48141385548E+01 -0.15492881688E+02  0.23101017367E+01  0.16387247582E+02  0.51100000000E-03 0.  1.
         12    1    3    3    0    0 -0.13837682334E+02 -0.21965932323E+02  0.46415062231E+01  0.26372849964E+02  0.00000000000E+00 0. -1.
</event>
<event>
 7    1  0.2001181E-008  0.4614232E+02  0.7816164E-02  0.1320468E+00
        -11   -1    0    0    0    0  0.00000000000E+00  0.00000000000E+00  0.45593999997E+02  0.45594000000E+02  0.51100000000E-03 0.  1.
         11   -1    0    0    0    0 -0.00000000000E+00 -0.00000000000E+00 -0.45593999997E+02  0.45594000000E+02  0.51100000000E-03 0. -1.
    9900012    2    1    2    0    0 -0.42893654845E+02 -0.11577438373E+02  0.74303838787E+01  0.46142319743E+02  0.10000018071E+02 0.  0.
        -12    1    1    2    0    0  0.42893654845E+02  0.11577438373E+02 -0.74303838787E+01  0.45045680257E+02  0.00000000000E+00 0.  1.
         11    1    3    3    0    0 -0.18583788914E+02 -0.59840660713E+01  0.37636311518E+01  0.19882936827E+02  0.51100000000E-03 0. -1.
        -11    1    3    3    0    0 -0.17115937071E+02 -0.43046550433E+00  0.18598892930E+01  0.17222072780E+02  0.51100000000E-03 0.  1.
        -12    1    3    3    0    0 -0.71939288596E+01 -0.51629067971E+01  0.18068634338E+01  0.90373101363E+01  0.00000000000E+00 0.  1.
</event>
<event>
 7    1  0.2001181E-008  0.4614232E+02  0.7816164E-02  0.1320468E+00
        -11   -1    0    0    0    0  0.00000000000E+00  0.00000000000E+00  0.45593999997E+02  0.45594000000E+02  0.51100000000E-03 0. -1.
         11   -1    0    0    0    0 -0.00000000000E+00 -0.00000000000E+00 -0.45593999997E+02  0.45594000000E+02  0.51100000000E-03 0.  1.
    9900012    2    1    2    0    0  0.13503253619E+02 -0.41419149647E+02  0.11455554448E+02  0.46142317150E+02  0.99999944235E+01 0.  0.
        -12    1    1    2    0    0 -0.13503253619E+02  0.41419149647E+02 -0.11455554448E+02  0.45045682850E+02  0.00000000000E+00 0.  1.
         11    1    3    3    0    0 -0.55954956799E+00 -0.44445748599E+01  0.90976583441E-01  0.44805823733E+01  0.51100000000E-03 0. -1.
        -11    1    3    3    0    0  0.34655701074E+01 -0.87813861808E+01 -0.82172912688E-01  0.94408512367E+01  0.51100000000E-03 0.  1.
         12    1    3    3    0    0  0.10597233080E+02 -0.28193188606E+02  0.11446750777E+02  0.32220883540E+02  0.00000000000E+00 0. -1.
</event>
<event>
 7    1  0.2001181E-008  0.4614232E+02  0.7816164E-02  0.1320468E+00
        -11   -1    0    0    0    0  0.00000000000E+00  0.00000000000E+00  0.45593999997E+02  0.45594000000E+02  0.51100000000E-03 0. -1.
         11   -1    0    0    0    0 -0.00000000000E+00 -0.00000000000E+00 -0.45593999997E+02  0.45594000000E+02  0.51100000000E-03 0.  1.
    9900012    2    1    2    0    0 -0.14283524710E+02  0.12958133521E+02  0.40708491559E+02  0.46142316660E+02  0.99999899625E+01 0.  0.
        -12    1    1    2    0    0  0.14283524710E+02 -0.12958133521E+02 -0.40708491559E+02  0.45045683340E+02  0.00000000000E+00 0.  1.
         11    1    3    3    0    0 -0.80090395837E+01  0.61486739637E+01  0.25017822016E+02  0.26978553061E+02  0.51100000000E-03 0. -1.
        -11    1    3    3    0    0 -0.86167690141E+00  0.52477205223E+01  0.85406225360E+01  0.10060978646E+02  0.51100000000E-03 0.  1.
         12    1    3    3    0    0 -0.54128082249E+01  0.15617390352E+01  0.71500470070E+01  0.91027849528E+01  0.00000000000E+00 0. -1.
</event>
<event>
 7    1  0.2001181E-008  0.4614232E+02  0.7816164E-02  0.1320468E+00
        -11   -1    0    0    0    0  0.00000000000E+00  0.00000000000E+00  0.45593999997E+02  0.45594000000E+02  0.51100000000E-03 0. -1.
         11   -1    0    0    0    0 -0.00000000000E+00 -0.00000000000E+00 -0.45593999997E+02  0.45594000000E+02  0.51100000000E-03 0.  1.
    9900012    2    1    2    0    0  0.13941415855E+02 -0.41893240990E+02 -0.89278709149E+01  0.46142316569E+02  0.99999891332E+01 0.  0.
        -12    1    1    2    0    0 -0.13941415855E+02  0.41893240990E+02  0.89278709149E+01  0.45045683431E+02  0.00000000000E+00 0.  1.
         11    1    3    3    0    0  0.35990602956E+01 -0.39877700730E+01 -0.40839048603E+00  0.53872375311E+01  0.51100000000E-03 0. -1.
        -11    1    3    3    0    0  0.95452724680E+00 -0.26562825917E+00 -0.61165209837E+00  0.11643879025E+01  0.51100000000E-03 0.  1.
         12    1    3    3    0    0  0.93878283125E+01 -0.37639842657E+02 -0.79078283305E+01  0.39590691136E+02  0.00000000000E+00 0. -1.
</event>
<event>
 7    1  0.2001181E-008  0.4614232E+02  0.7816164E-02  0.1320468E+00
        -11   -1    0    0    0    0  0.00000000000E+00  0.00000000000E+00  0.45593999997E+02  0.45594000000E+02  0.51100000000E-03 0.  1.
         11   -1    0    0    0    0 -0.00000000000E+00 -0.00000000000E+00 -0.45593999997E+02  0.45594000000E+02  0.51100000000E-03 0. -1.
    9900012    2    1    2    0    0 -0.13025399254E+02 -0.17773275133E+02 -0.39288203716E+02  0.46142320008E+02  0.10000020491E+02 0.  0.
        -12    1    1    2    0    0  0.13025399254E+02  0.17773275133E+02  0.39288203716E+02  0.45045679992E+02  0.00000000000E+00 0.  1.
         11    1    3    3    0    0 -0.83293874828E+01 -0.10182695762E+02 -0.16738214880E+02  0.21289289008E+02  0.51100000000E-03 0. -1.
        -11    1    3    3    0    0 -0.55367968060E+01 -0.77692571011E+01 -0.19932313055E+02  0.22097841043E+02  0.51100000000E-03 0.  1.
        -12    1    3    3    0    0  0.84078503515E+00  0.17867773015E+00 -0.26176757812E+01  0.27551899575E+01  0.00000000000E+00 0.  1.
</event>
<event>
 7    1  0.2001181E-008  0.4614232E+02  0.7816164E-02  0.1320468E+00
        -11   -1    0    0    0    0  0.00000000000E+00  0.00000000000E+00  0.45593999997E+02  0.45594000000E+02  0.51100000000E-03 0.  1.
         11   -1    0    0    0    0 -0.00000000000E+00 -0.00000000000E+00 -0.45593999997E+02  0.45594000000E+02  0.51100000000E-03 0. -1.
    9900012    2    1    2    0    0 -0.33509455323E+02  0.56468812848E+01 -0.29569284045E+02  0.46142318484E+02  0.10000006595E+02 0.  0.
        -12    1    1    2    0    0  0.33509455323E+02 -0.56468812848E+01  0.29569284045E+02  0.45045681516E+02  0.00000000000E+00 0.  1.
         11    1    3    3    0    0 -0.16150589530E+02  0.18366842282E+01 -0.16097841787E+02  0.22876963557E+02  0.51100000000E-03 0. -1.
        -11    1    3    3    0    0 -0.24520831727E+01 -0.51447341712E+00 -0.49757663194E+01  0.55709645043E+01  0.51100000000E-03 0.  1.
        -12    1    3    3    0    0 -0.14906782621E+02  0.43246704737E+01 -0.84956759386E+01  0.17694390423E+02  0.00000000000E+00 0.  1.
</event>
<event>
 7    1  0.2001181E-008  0.4614232E+02  0.7816164E-02  0.1320468E+00
        -11   -1    0    0    0    0  0.00000000000E+00  0.00000000000E+00  0.45593999997E+02  0.45594000000E+02  0.51100000000E-03 0.  1.
         11   -1    0    0    0    0 -0.00000000000E+00 -0.00000000000E+00 -0.45593999997E+02  0.45594000000E+02  0.51100000000E-03 0. -1.
    9900012    2    1    2    0    0  0.36155246246E+02  0.17332408712E+02 -0.20530448565E+02  0.46142317175E+02  0.99999946536E+01 0.  0.
        -12    1    1    2    0    0 -0.36155246246E+02 -0.17332408712E+02  0.20530448565E+02  0.45045682825E+02  0.00000000000E+00 0.  1.
         11    1    3    3    0    0  0.37630817691E+00  0.68101023610E+00 -0.17182235294E+01  0.18861800401E+01  0.51100000000E-03 0. -1.
        -11    1    3    3    0    0  0.39226753109E+00  0.55319026430E+00  0.50452465869E+00  0.84524474373E+00  0.51100000000E-03 0.  1.
         12    1    3    3    0    0  0.35386670538E+02  0.16098208212E+02 -0.19316749695E+02  0.43410892391E+02  0.00000000000E+00 0. -1.
</event>
<event>
 7    1  0.2001181E-008  0.4614232E+02  0.7816164E-02  0.1320468E+00
        -11   -1    0    0    0    0  0.00000000000E+00  0.00000000000E+00  0.45593999997E+02  0.45594000000E+02  0.51100000000E-03 0.  1.
         11   -1    0    0    0    0 -0.00000000000E+00 -0.00000000000E+00 -0.45593999997E+02  0.45594000000E+02  0.51100000000E-03 0. -1.
    9900012    2    1    2    0    0  0.23414031406E+02  0.18491484235E+02 -0.33748505659E+02  0.46142317742E+02  0.99999998262E+01 0.  0.
        -12    1    1    2    0    0 -0.23414031406E+02 -0.18491484235E+02  0.33748505659E+02  0.45045682258E+02  0.00000000000E+00 0.  1.
         11    1    3    3    0    0  0.14437656631E+02  0.12900633513E+02 -0.25064532632E+02  0.31671802449E+02  0.51100000000E-03 0. -1.
        -11    1    3    3    0    0  0.63771380608E+01  0.41593049090E+01 -0.86220358948E+01  0.11502487140E+02  0.51100000000E-03 0.  1.
        -12    1    3    3    0    0  0.25992367140E+01  0.14315458127E+01 -0.61937131759E-01  0.29680281531E+01  0.00000000000E+00 0.  1.
</event>
<event>
 7    1  0.2001181E-008  0.4614232E+02  0.7816164E-02  0.1320468E+00
        -11   -1    0    0    0    0  0.00000000000E+00  0.00000000000E+00  0.45593999997E+02  0.45594000000E+02  0.51100000000E-03 0.  1.
         11   -1    0    0    0    0 -0.00000000000E+00 -0.00000000000E+00 -0.45593999997E+02  0.45594000000E+02  0.51100000000E-03 0. -1.
    9900012    2    1    2    0    0  0.31084798212E+02 -0.42065784262E+01 -0.32328834499E+02  0.46142317388E+02  0.99999965957E+01 0.  0.
        -12    1    1    2    0    0 -0.31084798212E+02  0.42065784262E+01  0.32328834499E+02  0.45045682612E+02  0.00000000000E+00 0.  1.
         11    1    3    3    0    0  0.72991232392E+01  0.61703250070E+00 -0.34098818686E+01  0.80799272142E+01  0.51100000000E-03 0. -1.
        -11    1    3    3    0    0  0.60661435580E+01 -0.34360633773E+01 -0.79285862228E+01  0.10557798490E+02  0.51100000000E-03 0.  1.
         12    1    3    3    0    0  0.17719531415E+02 -0.13875475496E+01 -0.20990366408E+02  0.27504591684E+02  0.00000000000E+00 0. -1.
</event>
<event>
 7    1  0.2001181E-008  0.4614232E+02  0.7816164E-02  0.1320468E+00
        -11   -1    0    0    0    0  0.00000000000E+00  0.00000000000E+00  0.45593999997E+02  0.45594000000E+02  0.51100000000E-03 0. -1.
         11   -1    0    0    0    0 -0.00000000000E+00 -0.00000000000E+00 -0.45593999997E+02  0.45594000000E+02  0.51100000000E-03 0.  1.
    9900012    2    1    2    0    0  0.26964483329E+02 -0.34517733198E+02 -0.10514573240E+02  0.46142317446E+02  0.99999971279E+01 0.  0.
        -12    1    1    2    0    0 -0.26964483329E+02  0.34517733198E+02  0.10514573240E+02  0.45045682554E+02  0.00000000000E+00 0.  1.
         11    1    3    3    0    0  0.29548762490E+01 -0.81852869738E+01 -0.45707919824E+01  0.98296671407E+01  0.51100000000E-03 0. -1.
        -11    1    3    3    0    0  0.10307420706E+02 -0.97425568206E+01 -0.89436228187E+00  0.14211270850E+02  0.51100000000E-03 0.  1.
         12    1    3    3    0    0  0.13702186374E+02 -0.16589889404E+02 -0.50494189759E+01  0.22101379456E+02  0.00000000000E+00 0. -1.
</event>
<event>
 7    1  0.2001181E-008  0.4614232E+02  0.7816164E-02  0.1320468E+00
        -11   -1    0    0    0    0  0.00000000000E+00  0.00000000000E+00  0.45593999997E+02  0.45594000000E+02  0.51100000000E-03 0.  1.
         11   -1    0    0    0    0 -0.00000000000E+00 -0.00000000000E+00 -0.45593999997E+02  0.45594000000E+02  0.51100000000E-03 0. -1.
    9900012    2    1    2    0    0  0.70391813701E+01  0.98447996003E+01 -0.43389438437E+02  0.46142317395E+02  0.99999966589E+01 0.  0.
        -12    1    1    2    0    0 -0.70391813701E+01 -0.98447996003E+01  0.43389438437E+02  0.45045682605E+02  0.00000000000E+00 0.  1.
         11    1    3    3    0    0  0.59786669236E+00  0.93798448432E-01 -0.12301647283E+02  0.12316524221E+02  0.51100000000E-03 0. -1.
        -11    1    3    3    0    0  0.10741523017E+01  0.18216216027E+01 -0.14655884805E+02  0.14807669233E+02  0.51100000000E-03 0.  1.
        -12    1    3    3    0    0  0.53671623761E+01  0.79293795492E+01 -0.16431906348E+02  0.19018123941E+02  0.00000000000E+00 0.  1.
</event>
<event>
 7    1  0.2001181E-008  0.4614232E+02  0.7816164E-02  0.1320468E+00
        -11   -1    0    0    0    0  0.00000000000E+00  0.00000000000E+00  0.45593999997E+02  0.45594000000E+02  0.51100000000E-03 0.  1.
         11   -1    0    0    0    0 -0.00000000000E+00 -0.00000000000E+00 -0.45593999997E+02  0.45594000000E+02  0.51100000000E-03 0. -1.
    9900012    2    1    2    0    0  0.18067353135E+02 -0.14208738737E+02 -0.38740107317E+02  0.46142318512E+02  0.10000006848E+02 0.  0.
        -12    1    1    2    0    0 -0.18067353135E+02  0.14208738737E+02  0.38740107317E+02  0.45045681488E+02  0.00000000000E+00 0.  1.
         11    1    3    3    0    0  0.76388386985E+01 -0.10816939076E+02 -0.25184750716E+02  0.28453992629E+02  0.51100000000E-03 0. -1.
        -11    1    3    3    0    0  0.22286141231E+01 -0.15980976511E+01 -0.19472801934E+01  0.33634115753E+01  0.51100000000E-03 0.  1.
         12    1    3    3    0    0  0.81999003133E+01 -0.17937020094E+01 -0.11608076408E+02  0.14324914308E+02  0.00000000000E+00 0. -1.
</event>
<event>
 7    1  0.2001181E-008  0.4614232E+02  0.7816164E-02  0.1320468E+00
        -11   -1    0    0    0    0  0.00000000000E+00  0.00000000000E+00  0.45593999997E+02  0.45594000000E+02  0.51100000000E-03 0. -1.
         11   -1    0    0    0    0 -0.00000000000E+00 -0.00000000000E+00 -0.45593999997E+02  0.45594000000E+02  0.51100000000E-03 0.  1.
    9900012    2    1    2    0    0  0.21451174609E+02  0.38362554069E+02  0.98628090456E+01  0.46142318197E+02  0.10000003979E+02 0.  0.
        -12    1    1    2    0    0 -0.21451174609E+02 -0.38362554069E+02 -0.98628090456E+01  0.45045681803E+02  0.00000000000E+00 0.  1.
         11    1    3    3    0    0  0.15817521083E+02  0.24967481438E+02  0.58077259704E+01  0.30121400761E+02  0.51100000000E-03 0. -1.
        -11    1    3    3    0    0  0.60063276205E+01  0.11975721171E+02  0.49722026931E+01  0.14290439774E+02  0.51100000000E-03 0.  1.
        -12    1    3    3    0    0 -0.37267409504E+00  0.14193514597E+01 -0.91711961790E+00  0.17304776626E+01  0.00000000000E+00 0.  1.
</event>
<event>
 7    1  0.2001181E-008  0.4614232E+02  0.7816164E-02  0.1320468E+00
        -11   -1    0    0    0    0  0.00000000000E+00  0.00000000000E+00  0.45593999997E+02  0.45594000000E+02  0.51100000000E-03 0. -1.
         11   -1    0    0    0    0 -0.00000000000E+00 -0.00000000000E+00 -0.45593999997E+02  0.45594000000E+02  0.51100000000E-03 0.  1.
    9900012    2    1    2    0    0 -0.42261662321E+02  0.10879318885E+02  0.11167178477E+02  0.46142317003E+02  0.99999930873E+01 0.  0.
        -12    1    1    2    0    0  0.42261662321E+02 -0.10879318885E+02 -0.11167178477E+02  0.45045682997E+02  0.00000000000E+00 0.  1.
         11    1    3    3    0    0 -0.35038579427E+01  0.53933565723E+00 -0.14212267575E+01  0.38193964433E+01  0.51100000000E-03 0. -1.
        -11    1    3    3    0    0 -0.60241089115E+01 -0.11257100053E+00  0.23597427023E+01  0.64707763282E+01  0.51100000000E-03 0.  1.
         12    1    3    3    0    0 -0.32733695467E+02  0.10452554228E+02  0.10228662532E+02  0.35852144232E+02  0.00000000000E+00 0. -1.
</event>
<event>
 7    1  0.2001181E-008  0.4614232E+02  0.7816164E-02  0.1320468E+00
        -11   -1    0    0    0    0  0.00000000000E+00  0.00000000000E+00  0.45593999997E+02  0.45594000000E+02  0.51100000000E-03 0.  1.
         11   -1    0    0    0    0 -0.00000000000E+00 -0.00000000000E+00 -0.45593999997E+02  0.45594000000E+02  0.51100000000E-03 0. -1.
    9900012    2    1    2    0    0 -0.76964769216E+01  0.29409074223E+02 -0.33241300377E+02  0.46142318138E+02  0.10000003438E+02 0.  0.
        -12    1    1    2    0    0  0.76964769216E+01 -0.29409074223E+02  0.33241300377E+02  0.45045681862E+02  0.00000000000E+00 0.  1.
         11    1    3    3    0    0 -0.73792092539E+00  0.87193392189E+01 -0.68832368077E+01  0.11133299283E+02  0.51100000000E-03 0.  1.
        -11    1    3    3    0    0 -0.63734399483E+01  0.11485962726E+02 -0.11182724436E+02  0.17251127574E+02  0.51100000000E-03 0. -1.
         12    1    3    3    0    0 -0.58511604794E+00  0.92037722779E+01 -0.15175339133E+02  0.17757891281E+02  0.00000000000E+00 0. -1.
</event>
<event>
 7    1  0.2001181E-008  0.4614232E+02  0.7816164E-02  0.1320468E+00
        -11   -1    0    0    0    0  0.00000000000E+00  0.00000000000E+00  0.45593999997E+02  0.45594000000E+02  0.51100000000E-03 0.  1.
         11   -1    0    0    0    0 -0.00000000000E+00 -0.00000000000E+00 -0.45593999997E+02  0.45594000000E+02  0.51100000000E-03 0. -1.
    9900012    2    1    2    0    0  0.38822007858E+02 -0.22733311722E+02  0.22719440145E+01  0.46142317792E+02  0.10000000285E+02 0.  0.
        -12    1    1    2    0    0 -0.38822007858E+02  0.22733311722E+02 -0.22719440145E+01  0.45045682208E+02  0.00000000000E+00 0.  1.
         11    1    3    3    0    0  0.14338590581E+02 -0.38572539423E+01  0.13123758207E+01  0.14906237566E+02  0.51100000000E-03 0. -1.
        -11    1    3    3    0    0  0.91017489125E+01 -0.54012233854E+01 -0.12966961216E+01  0.10662854609E+02  0.51100000000E-03 0.  1.
         12    1    3    3    0    0  0.15381668364E+02 -0.13474834394E+02  0.22562643153E+01  0.20573225617E+02  0.00000000000E+00 0. -1.
</event>
<event>
 7    1  0.2001181E-008  0.4614232E+02  0.7816164E-02  0.1320468E+00
        -11   -1    0    0    0    0  0.00000000000E+00  0.00000000000E+00  0.45593999997E+02  0.45594000000E+02  0.51100000000E-03 0.  1.
         11   -1    0    0    0    0 -0.00000000000E+00 -0.00000000000E+00 -0.45593999997E+02  0.45594000000E+02  0.51100000000E-03 0. -1.
    9900012    2    1    2    0    0  0.38340525900E+02  0.20712142300E+02  0.11407225165E+02  0.46142317067E+02  0.99999936688E+01 0.  0.
        -12    1    1    2    0    0 -0.38340525900E+02 -0.20712142300E+02 -0.11407225165E+02  0.45045682933E+02  0.00000000000E+00 0.  1.
         11    1    3    3    0    0  0.94620444948E+01  0.83851064310E+01  0.54594205205E+01  0.13771186171E+02  0.51100000000E-03 0. -1.
        -11    1    3    3    0    0  0.18643040036E+02  0.72144780090E+01  0.61918334345E+01  0.20927265380E+02  0.51100000000E-03 0.  1.
         12    1    3    3    0    0  0.10235441369E+02  0.51125578595E+01 -0.24402879025E+00  0.11443865516E+02  0.00000000000E+00 0. -1.
</event>
<event>
 7    1  0.2001181E-008  0.4614232E+02  0.7816164E-02  0.1320468E+00
        -11   -1    0    0    0    0  0.00000000000E+00  0.00000000000E+00  0.45593999997E+02  0.45594000000E+02  0.51100000000E-03 0.  1.
         11   -1    0    0    0    0 -0.00000000000E+00 -0.00000000000E+00 -0.45593999997E+02  0.45594000000E+02  0.51100000000E-03 0. -1.
    9900012    2    1    2    0    0 -0.11935763850E+02 -0.33591579836E+02 -0.27536464533E+02  0.46142316816E+02  0.99999913826E+01 0.  0.
        -12    1    1    2    0    0  0.11935763850E+02  0.33591579836E+02  0.27536464533E+02  0.45045683184E+02  0.00000000000E+00 0.  1.
         11    1    3    3    0    0 -0.88394901838E+01 -0.19233398715E+02 -0.17222299046E+02  0.27288601971E+02  0.51100000000E-03 0. -1.
        -11    1    3    3    0    0 -0.14626236761E+01 -0.13860763029E+00 -0.95870335224E+00  0.17543068352E+01  0.51100000000E-03 0.  1.
         12    1    3    3    0    0 -0.16336499898E+01 -0.14219573490E+02 -0.93554621344E+01  0.17099408010E+02  0.00000000000E+00 0. -1.
</event>
<event>
 7    1  0.2001181E-008  0.4614232E+02  0.7816164E-02  0.1320468E+00
        -11   -1    0    0    0    0  0.00000000000E+00  0.00000000000E+00  0.45593999997E+02  0.45594000000E+02  0.51100000000E-03 0.  1.
         11   -1    0    0    0    0 -0.00000000000E+00 -0.00000000000E+00 -0.45593999997E+02  0.45594000000E+02  0.51100000000E-03 0. -1.
    9900012    2    1    2    0    0 -0.21882553708E+02  0.39195307845E+02  0.37410204313E+01  0.46142317102E+02  0.99999939910E+01 0.  0.
        -12    1    1    2    0    0  0.21882553708E+02 -0.39195307845E+02 -0.37410204313E+01  0.45045682898E+02  0.00000000000E+00 0.  1.
         11    1    3    3    0    0 -0.16474074621E+02  0.21419929672E+02  0.38496720804E+01  0.27295210150E+02  0.51100000000E-03 0. -1.
        -11    1    3    3    0    0 -0.24008225281E+01  0.68855258262E+01 -0.15588860881E+01  0.74568452319E+01  0.51100000000E-03 0.  1.
        -12    1    3    3    0    0 -0.30076565589E+01  0.10889852347E+02  0.14502344390E+01  0.11390261720E+02  0.00000000000E+00 0.  1.
</event>
<event>
 7    1  0.2001181E-008  0.4614233E+02  0.7816164E-02  0.1320468E+00
        -11   -1    0    0    0    0  0.00000000000E+00  0.00000000000E+00  0.45593999997E+02  0.45594000000E+02  0.51100000000E-03 0.  1.
         11   -1    0    0    0    0 -0.00000000000E+00 -0.00000000000E+00 -0.45593999997E+02  0.45594000000E+02  0.51100000000E-03 0. -1.
    9900012    2    1    2    0    0 -0.15844679429E+02  0.35092002512E+02 -0.23379681555E+02  0.46142334103E+02  0.10000149017E+02 0.  0.
        -12    1    1    2    0    0  0.15844679429E+02 -0.35092002512E+02  0.23379681555E+02  0.45045665897E+02  0.00000000000E+00 0.  1.
         11    1    3    3    0    0 -0.95028406181E+01  0.21282396463E+02 -0.16108268978E+02  0.28332326215E+02  0.51100000000E-03 0. -1.
        -11    1    3    3    0    0 -0.66442847555E+01  0.80628770055E+01 -0.39775521668E+01  0.11179330348E+02  0.51100000000E-03 0.  1.
        -12    1    3    3    0    0  0.30244594444E+00  0.57467290429E+01 -0.32938604101E+01  0.66306775403E+01  0.00000000000E+00 0.  1.
</event>
<event>
 7    1  0.2001181E-008  0.4614232E+02  0.7816164E-02  0.1320468E+00
        -11   -1    0    0    0    0  0.00000000000E+00  0.00000000000E+00  0.45593999997E+02  0.45594000000E+02  0.51100000000E-03 0.  1.
         11   -1    0    0    0    0 -0.00000000000E+00 -0.00000000000E+00 -0.45593999997E+02  0.45594000000E+02  0.51100000000E-03 0. -1.
    9900012    2    1    2    0    0  0.97095054772E+01 -0.42245059063E+02 -0.12255362279E+02  0.46142318560E+02  0.10000007284E+02 0.  0.
        -12    1    1    2    0    0 -0.97095054772E+01  0.42245059063E+02  0.12255362279E+02  0.45045681440E+02  0.00000000000E+00 0.  1.
         11    1    3    3    0    0  0.36729597077E+00 -0.31284387998E+01 -0.27656151125E+01  0.41917374519E+01  0.51100000000E-03 0.  1.
        -11    1    3    3    0    0  0.40944985628E+01 -0.16343817872E+02 -0.76631010761E+01  0.18509684478E+02  0.51100000000E-03 0. -1.
        -12    1    3    3    0    0  0.52477109437E+01 -0.22772802390E+02 -0.18266460908E+01  0.23440896630E+02  0.00000000000E+00 0.  1.
</event>
<event>
 7    1  0.2001181E-008  0.4614232E+02  0.7816164E-02  0.1320468E+00
        -11   -1    0    0    0    0  0.00000000000E+00  0.00000000000E+00  0.45593999997E+02  0.45594000000E+02  0.51100000000E-03 0.  1.
         11   -1    0    0    0    0 -0.00000000000E+00 -0.00000000000E+00 -0.45593999997E+02  0.45594000000E+02  0.51100000000E-03 0. -1.
    9900012    2    1    2    0    0 -0.17367504952E+01  0.44183578507E+02 -0.85970153689E+01  0.46142316686E+02  0.99999901950E+01 0.  0.
        -12    1    1    2    0    0  0.17367504952E+01 -0.44183578507E+02  0.85970153689E+01  0.45045683314E+02  0.00000000000E+00 0.  1.
         11    1    3    3    0    0 -0.33178761525E+01  0.24775449112E+02 -0.24844427859E+01  0.25119785769E+02  0.51100000000E-03 0. -1.
        -11    1    3    3    0    0  0.95047599829E+00  0.30411977416E+00 -0.24113691708E+00  0.10266648598E+01  0.51100000000E-03 0.  1.
         12    1    3    3    0    0  0.63064965898E+00  0.19104009621E+02 -0.58714356659E+01  0.19995866057E+02  0.00000000000E+00 0. -1.
</event>
<event>
 7    1  0.2001181E-008  0.4614232E+02  0.7816164E-02  0.1320468E+00
        -11   -1    0    0    0    0  0.00000000000E+00  0.00000000000E+00  0.45593999997E+02  0.45594000000E+02  0.51100000000E-03 0. -1.
         11   -1    0    0    0    0 -0.00000000000E+00 -0.00000000000E+00 -0.45593999997E+02  0.45594000000E+02  0.51100000000E-03 0.  1.
    9900012    2    1    2    0    0 -0.21833426301E+02 -0.13532812075E+02  0.37003756071E+02  0.46142317965E+02  0.10000001855E+02 0.  0.
        -12    1    1    2    0    0  0.21833426301E+02  0.13532812075E+02 -0.37003756071E+02  0.45045682035E+02  0.00000000000E+00 0.  1.
         11    1    3    3    0    0 -0.10999878652E+02 -0.85099735748E+01  0.24407468387E+02  0.28091662356E+02  0.51100000000E-03 0. -1.
        -11    1    3    3    0    0 -0.27262246107E+01 -0.34824858833E+01  0.27689216417E+01  0.52179436442E+01  0.51100000000E-03 0.  1.
         12    1    3    3    0    0 -0.81073230388E+01 -0.15403526165E+01  0.98273660419E+01  0.12832711964E+02  0.00000000000E+00 0. -1.
</event>
<event>
 7    1  0.2001181E-008  0.4614231E+02  0.7816164E-02  0.1320468E+00
        -11   -1    0    0    0    0  0.00000000000E+00  0.00000000000E+00  0.45593999997E+02  0.45594000000E+02  0.51100000000E-03 0.  1.
         11   -1    0    0    0    0 -0.00000000000E+00 -0.00000000000E+00 -0.45593999997E+02  0.45594000000E+02  0.51100000000E-03 0. -1.
    9900012    2    1    2    0    0 -0.41861208712E+02 -0.12024528010E+02 -0.11496252670E+02  0.46142313258E+02  0.99999589336E+01 0.  0.
        -12    1    1    2    0    0  0.41861208712E+02  0.12024528010E+02  0.11496252670E+02  0.45045686742E+02  0.00000000000E+00 0.  1.
         11    1    3    3    0    0 -0.65619834464E+01 -0.11028384333E+01  0.10272098159E+00  0.66548051228E+01  0.51100000000E-03 0. -1.
        -11    1    3    3    0    0 -0.17710614619E+02 -0.16152989517E+01 -0.43412810392E+01  0.18306331751E+02  0.51100000000E-03 0.  1.
         12    1    3    3    0    0 -0.17588610647E+02 -0.93063906247E+01 -0.72576926119E+01  0.21181176383E+02  0.00000000000E+00 0. -1.
</event>
<event>
 7    1  0.2001181E-008  0.4614232E+02  0.7816164E-02  0.1320468E+00
        -11   -1    0    0    0    0  0.00000000000E+00  0.00000000000E+00  0.45593999997E+02  0.45594000000E+02  0.51100000000E-03 0.  1.
         11   -1    0    0    0    0 -0.00000000000E+00 -0.00000000000E+00 -0.45593999997E+02  0.45594000000E+02  0.51100000000E-03 0. -1.
    9900012    2    1    2    0    0  0.32374847966E+02  0.15884344643E+02 -0.26993892946E+02  0.46142318276E+02  0.10000004698E+02 0.  0.
        -12    1    1    2    0    0 -0.32374847966E+02 -0.15884344643E+02  0.26993892946E+02  0.45045681724E+02  0.00000000000E+00 0.  1.
         11    1    3    3    0    0  0.13178297668E+02  0.22698656274E+01 -0.83356982216E+01  0.15757654790E+02  0.51100000000E-03 0. -1.
        -11    1    3    3    0    0  0.12833210260E+01  0.10990677070E+01 -0.61951598501E-01  0.16907693344E+01  0.51100000000E-03 0.  1.
        -12    1    3    3    0    0  0.17913229272E+02  0.12515411308E+02 -0.18596243126E+02  0.28693894152E+02  0.00000000000E+00 0.  1.
</event>
<event>
 7    1  0.2001181E-008  0.4614232E+02  0.7816164E-02  0.1320468E+00
        -11   -1    0    0    0    0  0.00000000000E+00  0.00000000000E+00  0.45593999997E+02  0.45594000000E+02  0.51100000000E-03 0.  1.
         11   -1    0    0    0    0 -0.00000000000E+00 -0.00000000000E+00 -0.45593999997E+02  0.45594000000E+02  0.51100000000E-03 0. -1.
    9900012    2    1    2    0    0  0.61401275672E+01  0.73383479317E+01 -0.44017734471E+02  0.46142318022E+02  0.10000002377E+02 0.  0.
        -12    1    1    2    0    0 -0.61401275672E+01 -0.73383479317E+01  0.44017734471E+02  0.45045681978E+02  0.00000000000E+00 0.  1.
         11    1    3    3    0    0  0.13991012445E+01 -0.89673243985E+00 -0.12350893572E+02  0.12462190243E+02  0.51100000000E-03 0. -1.
        -11    1    3    3    0    0 -0.11193340402E+01  0.11899063819E+01 -0.10333296316E+02  0.10461634619E+02  0.51100000000E-03 0.  1.
         12    1    3    3    0    0  0.58603603629E+01  0.70451739896E+01 -0.21333544583E+02  0.23218493160E+02  0.00000000000E+00 0. -1.
</event>
<event>
 7    1  0.2001181E-008  0.4614232E+02  0.7816164E-02  0.1320468E+00
        -11   -1    0    0    0    0  0.00000000000E+00  0.00000000000E+00  0.45593999997E+02  0.45594000000E+02  0.51100000000E-03 0. -1.
         11   -1    0    0    0    0 -0.00000000000E+00 -0.00000000000E+00 -0.45593999997E+02  0.45594000000E+02  0.51100000000E-03 0.  1.
    9900012    2    1    2    0    0  0.26504788403E+02 -0.36086460572E+02  0.49373172614E+01  0.46142317114E+02  0.99999940963E+01 0.  0.
        -12    1    1    2    0    0 -0.26504788403E+02  0.36086460572E+02 -0.49373172614E+01  0.45045682886E+02  0.00000000000E+00 0.  1.
         11    1    3    3    0    0  0.51105486752E+01 -0.88367771670E+01  0.22689999805E+00  0.10210671982E+02  0.51100000000E-03 0. -1.
        -11    1    3    3    0    0  0.15517481853E+02 -0.14033232098E+02  0.75074373811E+00  0.20935316157E+02  0.51100000000E-03 0.  1.
        -12    1    3    3    0    0  0.58767578756E+01 -0.13216451307E+02  0.39596735253E+01  0.14996328974E+02  0.00000000000E+00 0.  1.
</event>
<event>
 7    1  0.2001181E-008  0.4614232E+02  0.7816164E-02  0.1320468E+00
        -11   -1    0    0    0    0  0.00000000000E+00  0.00000000000E+00  0.45593999997E+02  0.45594000000E+02  0.51100000000E-03 0.  1.
         11   -1    0    0    0    0 -0.00000000000E+00 -0.00000000000E+00 -0.45593999997E+02  0.45594000000E+02  0.51100000000E-03 0. -1.
    9900012    2    1    2    0    0  0.26818482376E+02 -0.27638854514E+02 -0.23366134935E+02  0.46142317214E+02  0.99999950153E+01 0.  0.
        -12    1    1    2    0    0 -0.26818482376E+02  0.27638854514E+02  0.23366134935E+02  0.45045682786E+02  0.00000000000E+00 0.  1.
         11    1    3    3    0    0  0.85264357532E+01 -0.78585122760E+01 -0.84434205721E+01  0.14343907176E+02  0.51100000000E-03 0. -1.
        -11    1    3    3    0    0  0.45054904068E+00 -0.38211157682E+01 -0.57554035695E+00  0.38903942108E+01  0.51100000000E-03 0.  1.
         12    1    3    3    0    0  0.17841497582E+02 -0.15959226470E+02 -0.14347174006E+02  0.27908015828E+02  0.00000000000E+00 0. -1.
</event>
<event>
 7    1  0.2001181E-008  0.4614232E+02  0.7816164E-02  0.1320468E+00
        -11   -1    0    0    0    0  0.00000000000E+00  0.00000000000E+00  0.45593999997E+02  0.45594000000E+02  0.51100000000E-03 0.  1.
         11   -1    0    0    0    0 -0.00000000000E+00 -0.00000000000E+00 -0.45593999997E+02  0.45594000000E+02  0.51100000000E-03 0. -1.
    9900012    2    1    2    0    0  0.11353362358E+02 -0.85151609663E+01 -0.42751686455E+02  0.46142317656E+02  0.99999990373E+01 0.  0.
        -12    1    1    2    0    0 -0.11353362358E+02  0.85151609663E+01  0.42751686455E+02  0.45045682344E+02  0.00000000000E+00 0.  1.
         11    1    3    3    0    0  0.54012733026E+01 -0.44101296744E+01 -0.17217175890E+02  0.18575633042E+02  0.51100000000E-03 0. -1.
        -11    1    3    3    0    0  0.30829599741E+01  0.18744568189E+01 -0.68874092167E+01  0.77752579731E+01  0.51100000000E-03 0.  1.
         12    1    3    3    0    0  0.28691290814E+01 -0.59794881108E+01 -0.18647101348E+02  0.19791426640E+02  0.00000000000E+00 0. -1.
</event>
<event>
 7    1  0.2001181E-008  0.4614232E+02  0.7816164E-02  0.1320468E+00
        -11   -1    0    0    0    0  0.00000000000E+00  0.00000000000E+00  0.45593999997E+02  0.45594000000E+02  0.51100000000E-03 0. -1.
         11   -1    0    0    0    0 -0.00000000000E+00 -0.00000000000E+00 -0.45593999997E+02  0.45594000000E+02  0.51100000000E-03 0.  1.
    9900012    2    1    2    0    0  0.37218337776E+02 -0.13647131572E+02  0.21393097798E+02  0.46142317628E+02  0.99999987846E+01 0.  0.
        -12    1    1    2    0    0 -0.37218337776E+02  0.13647131572E+02 -0.21393097798E+02  0.45045682372E+02  0.00000000000E+00 0.  1.
         11    1    3    3    0    0  0.10058839842E+02 -0.24352274435E+01  0.34911674668E+01  0.10922400936E+02  0.51100000000E-03 0. -1.
        -11    1    3    3    0    0  0.14723355602E+02 -0.53789056538E+01  0.52111621315E+01  0.16518657247E+02  0.51100000000E-03 0.  1.
        -12    1    3    3    0    0  0.12436142332E+02 -0.58329984742E+01  0.12690768200E+02  0.18701259445E+02  0.00000000000E+00 0.  1.
</event>
<event>
 7    1  0.2001181E-008  0.4614232E+02  0.7816164E-02  0.1320468E+00
        -11   -1    0    0    0    0  0.00000000000E+00  0.00000000000E+00  0.45593999997E+02  0.45594000000E+02  0.51100000000E-03 0. -1.
         11   -1    0    0    0    0 -0.00000000000E+00 -0.00000000000E+00 -0.45593999997E+02  0.45594000000E+02  0.51100000000E-03 0.  1.
    9900012    2    1    2    0    0 -0.37070284053E+02 -0.14487551195E+02  0.21095459757E+02  0.46142317390E+02  0.99999966165E+01 0.  0.
        -12    1    1    2    0    0  0.37070284053E+02  0.14487551195E+02 -0.21095459757E+02  0.45045682610E+02  0.00000000000E+00 0.  1.
         11    1    3    3    0    0 -0.31887532718E+01 -0.20574997992E+01  0.10586317325E+00  0.37964009436E+01  0.51100000000E-03 0.  1.
        -11    1    3    3    0    0 -0.32222286144E+02 -0.11371761536E+02  0.21423523603E+02  0.40330634121E+02  0.51100000000E-03 0. -1.
         12    1    3    3    0    0 -0.16592446373E+01 -0.10582898598E+01 -0.43392701853E+00  0.20152823255E+01  0.00000000000E+00 0. -1.
</event>
<event>
 7    1  0.2001181E-008  0.4614232E+02  0.7816164E-02  0.1320468E+00
        -11   -1    0    0    0    0  0.00000000000E+00  0.00000000000E+00  0.45593999997E+02  0.45594000000E+02  0.51100000000E-03 0.  1.
         11   -1    0    0    0    0 -0.00000000000E+00 -0.00000000000E+00 -0.45593999997E+02  0.45594000000E+02  0.51100000000E-03 0. -1.
    9900012    2    1    2    0    0 -0.36802774762E+00 -0.35986458527E+02 -0.27091563345E+02  0.46142318229E+02  0.10000004266E+02 0.  0.
        -12    1    1    2    0    0  0.36802774762E+00  0.35986458527E+02  0.27091563345E+02  0.45045681771E+02  0.00000000000E+00 0.  1.
         11    1    3    3    0    0  0.48185722563E+00 -0.32198941191E+00 -0.95467735686E+00  0.11168136300E+01  0.51100000000E-03 0. -1.
        -11    1    3    3    0    0 -0.10650214967E+01 -0.27765625453E+00 -0.12778699741E+00  0.11080133401E+01  0.51100000000E-03 0.  1.
         12    1    3    3    0    0  0.21513652343E+00 -0.35386812861E+02 -0.26009098991E+02  0.43917491259E+02  0.00000000000E+00 0. -1.
</event>
<event>
 7    1  0.2001181E-008  0.4614232E+02  0.7816164E-02  0.1320468E+00
        -11   -1    0    0    0    0  0.00000000000E+00  0.00000000000E+00  0.45593999997E+02  0.45594000000E+02  0.51100000000E-03 0.  1.
         11   -1    0    0    0    0 -0.00000000000E+00 -0.00000000000E+00 -0.45593999997E+02  0.45594000000E+02  0.51100000000E-03 0. -1.
    9900012    2    1    2    0    0 -0.38960079954E+02 -0.18784649133E+02 -0.12584222661E+02  0.46142317265E+02  0.99999954793E+01 0.  0.
        -12    1    1    2    0    0  0.38960079954E+02  0.18784649133E+02  0.12584222661E+02  0.45045682735E+02  0.00000000000E+00 0.  1.
         11    1    3    3    0    0 -0.90585313884E+01 -0.71810140536E+01 -0.30735529304E+01  0.11961215725E+02  0.51100000000E-03 0. -1.
        -11    1    3    3    0    0 -0.23027143897E+02 -0.94762124061E+01 -0.10289656028E+02  0.26942994990E+02  0.51100000000E-03 0.  1.
        -12    1    3    3    0    0 -0.68744046685E+01 -0.21274226735E+01  0.77898629686E+00  0.72381065500E+01  0.00000000000E+00 0.  1.
</event>
<event>
 7    1  0.2001181E-008  0.4614232E+02  0.7816164E-02  0.1320468E+00
        -11   -1    0    0    0    0  0.00000000000E+00  0.00000000000E+00  0.45593999997E+02  0.45594000000E+02  0.51100000000E-03 0. -1.
         11   -1    0    0    0    0 -0.00000000000E+00 -0.00000000000E+00 -0.45593999997E+02  0.45594000000E+02  0.51100000000E-03 0.  1.
    9900012    2    1    2    0    0  0.26862058931E+02  0.28569842599E+02  0.22165453607E+02  0.46142318190E+02  0.10000003912E+02 0.  0.
        -12    1    1    2    0    0 -0.26862058931E+02 -0.28569842599E+02 -0.22165453607E+02  0.45045681810E+02  0.00000000000E+00 0.  1.
         11    1    3    3    0    0 -0.62997047447E+00  0.62095418760E-01  0.31679165824E+00  0.70786711718E+00  0.51100000000E-03 0. -1.
        -11    1    3    3    0    0  0.10835683449E+02  0.83072715253E+01  0.73669815375E+01  0.15514355070E+02  0.51100000000E-03 0.  1.
         12    1    3    3    0    0  0.16656345956E+02  0.20200475655E+02  0.14481680411E+02  0.29920096003E+02  0.00000000000E+00 0. -1.
</event>
<event>
 7    1  0.2001181E-008  0.4614232E+02  0.7816164E-02  0.1320468E+00
        -11   -1    0    0    0    0  0.00000000000E+00  0.00000000000E+00  0.45593999997E+02  0.45594000000E+02  0.51100000000E-03 0. -1.
         11   -1    0    0    0    0 -0.00000000000E+00 -0.00000000000E+00 -0.45593999997E+02  0.45594000000E+02  0.51100000000E-03 0.  1.
    9900012    2    1    2    0    0  0.26331362745E+02  0.99942216450E+01  0.35155204255E+02  0.46142317449E+02  0.99999971513E+01 0.  0.
        -12    1    1    2    0    0 -0.26331362745E+02 -0.99942216450E+01 -0.35155204255E+02  0.45045682551E+02  0.00000000000E+00 0.  1.
         11    1    3    3    0    0  0.89162382332E+01  0.69851852453E+01  0.12466193711E+02  0.16843340020E+02  0.51100000000E-03 0. -1.
        -11    1    3    3    0    0  0.74257013720E+00  0.14211988245E+01  0.97566310311E+00  0.18770016674E+01  0.51100000000E-03 0.  1.
        -12    1    3    3    0    0  0.16672554375E+02  0.15878375752E+01  0.21713347441E+02  0.27421975761E+02  0.00000000000E+00 0.  1.
</event>
<event>
 7    1  0.2001181E-008  0.4614232E+02  0.7816164E-02  0.1320468E+00
        -11   -1    0    0    0    0  0.00000000000E+00  0.00000000000E+00  0.45593999997E+02  0.45594000000E+02  0.51100000000E-03 0. -1.
         11   -1    0    0    0    0 -0.00000000000E+00 -0.00000000000E+00 -0.45593999997E+02  0.45594000000E+02  0.51100000000E-03 0.  1.
    9900012    2    1    2    0    0 -0.82308930672E+00 -0.24934687521E+02  0.37505965390E+02  0.46142316992E+02  0.99999929891E+01 0.  0.
        -12    1    1    2    0    0  0.82308930672E+00  0.24934687521E+02 -0.37505965390E+02  0.45045683008E+02  0.00000000000E+00 0.  1.
         11    1    3    3    0    0  0.15497712398E+01 -0.75460270513E+01  0.82623322632E+01  0.11296479533E+02  0.51100000000E-03 0.  1.
        -11    1    3    3    0    0 -0.22400518150E+00 -0.14670098050E+02  0.26966252182E+02  0.30699197255E+02  0.51100000000E-03 0. -1.
        -12    1    3    3    0    0 -0.21488553650E+01 -0.27185624204E+01  0.22773809449E+01  0.41466402040E+01  0.00000000000E+00 0.  1.
</event>
<event>
 7    1  0.2001181E-008  0.4614232E+02  0.7816164E-02  0.1320468E+00
        -11   -1    0    0    0    0  0.00000000000E+00  0.00000000000E+00  0.45593999997E+02  0.45594000000E+02  0.51100000000E-03 0.  1.
         11   -1    0    0    0    0 -0.00000000000E+00 -0.00000000000E+00 -0.45593999997E+02  0.45594000000E+02  0.51100000000E-03 0. -1.
    9900012    2    1    2    0    0 -0.42946498054E+02 -0.85006112521E+01 -0.10604314279E+02  0.46142316876E+02  0.99999919304E+01 0.  0.
        -12    1    1    2    0    0  0.42946498054E+02  0.85006112521E+01  0.10604314279E+02  0.45045683124E+02  0.00000000000E+00 0.  1.
         11    1    3    3    0    0 -0.85220242230E+01  0.62549261283E+00 -0.54085391613E+00  0.85620477157E+01  0.51100000000E-03 0. -1.
        -11    1    3    3    0    0 -0.15434486002E+02 -0.59002926475E+01 -0.18036297939E+01  0.16621970165E+02  0.51100000000E-03 0.  1.
         12    1    3    3    0    0 -0.18989987829E+02 -0.32258112175E+01 -0.82598305687E+01  0.20958298996E+02  0.00000000000E+00 0. -1.
</event>
<event>
 7    1  0.2001181E-008  0.4614232E+02  0.7816164E-02  0.1320468E+00
        -11   -1    0    0    0    0  0.00000000000E+00  0.00000000000E+00  0.45593999997E+02  0.45594000000E+02  0.51100000000E-03 0. -1.
         11   -1    0    0    0    0 -0.00000000000E+00 -0.00000000000E+00 -0.45593999997E+02  0.45594000000E+02  0.51100000000E-03 0.  1.
    9900012    2    1    2    0    0 -0.35126327916E+01 -0.37827407164E+02  0.24204587005E+02  0.46142319253E+02  0.10000013608E+02 0.  0.
        -12    1    1    2    0    0  0.35126327916E+01  0.37827407164E+02 -0.24204587005E+02  0.45045680747E+02  0.00000000000E+00 0.  1.
         11    1    3    3    0    0 -0.15108616166E+01 -0.12238737196E+01  0.64422120679E+00  0.20483141679E+01  0.51100000000E-03 0. -1.
        -11    1    3    3    0    0  0.20596964959E+01 -0.52048651097E+01  0.39778467388E+01  0.68670397847E+01  0.51100000000E-03 0.  1.
         12    1    3    3    0    0 -0.40614676710E+01 -0.31398668334E+02  0.19582519059E+02  0.37226965301E+02  0.00000000000E+00 0. -1.
</event>
<event>
 7    1  0.2001181E-008  0.4614232E+02  0.7816164E-02  0.1320468E+00
        -11   -1    0    0    0    0  0.00000000000E+00  0.00000000000E+00  0.45593999997E+02  0.45594000000E+02  0.51100000000E-03 0. -1.
         11   -1    0    0    0    0 -0.00000000000E+00 -0.00000000000E+00 -0.45593999997E+02  0.45594000000E+02  0.51100000000E-03 0.  1.
    9900012    2    1    2    0    0 -0.30185721594E+01  0.35373691703E+02  0.27725504570E+02  0.46142318229E+02  0.10000004266E+02 0.  0.
        -12    1    1    2    0    0  0.30185721594E+01 -0.35373691703E+02 -0.27725504570E+02  0.45045681771E+02  0.00000000000E+00 0.  1.
         11    1    3    3    0    0 -0.22307085396E+00  0.24571932423E+01  0.50665317012E+00  0.25187808424E+01  0.51100000000E-03 0. -1.
        -11    1    3    3    0    0 -0.53792788540E+01  0.26613008118E+02  0.20191815197E+02  0.33836345005E+02  0.51100000000E-03 0.  1.
         12    1    3    3    0    0  0.25837775486E+01  0.63034903424E+01  0.70270362032E+01  0.97871923818E+01  0.00000000000E+00 0. -1.
</event>
<event>
 7    1  0.2001181E-008  0.4614232E+02  0.7816164E-02  0.1320468E+00
        -11   -1    0    0    0    0  0.00000000000E+00  0.00000000000E+00  0.45593999997E+02  0.45594000000E+02  0.51100000000E-03 0. -1.
         11   -1    0    0    0    0 -0.00000000000E+00 -0.00000000000E+00 -0.45593999997E+02  0.45594000000E+02  0.51100000000E-03 0.  1.
    9900012    2    1    2    0    0  0.11032798927E+02 -0.43378869331E+02  0.50660244553E+01  0.46142316962E+02  0.99999927111E+01 0.  0.
        -12    1    1    2    0    0 -0.11032798927E+02  0.43378869331E+02 -0.50660244553E+01  0.45045683038E+02  0.00000000000E+00 0.  1.
         11    1    3    3    0    0  0.44736431082E+01 -0.31607981639E+02  0.52793922620E+01  0.32356606263E+02  0.51100000000E-03 0. -1.
        -11    1    3    3    0    0  0.81064067795E+00 -0.24246811210E+01 -0.10877205945E+01  0.27783724012E+01  0.51100000000E-03 0.  1.
         12    1    3    3    0    0  0.57485151412E+01 -0.93462065706E+01  0.87435278784E+00  0.11007338297E+02  0.00000000000E+00 0. -1.
</event>
<event>
 7    1  0.2001181E-008  0.4614232E+02  0.7816164E-02  0.1320468E+00
        -11   -1    0    0    0    0  0.00000000000E+00  0.00000000000E+00  0.45593999997E+02  0.45594000000E+02  0.51100000000E-03 0.  1.
         11   -1    0    0    0    0 -0.00000000000E+00 -0.00000000000E+00 -0.45593999997E+02  0.45594000000E+02  0.51100000000E-03 0. -1.
    9900012    2    1    2    0    0 -0.30738937667E+02 -0.91280839891E+01 -0.31637150255E+02  0.46142317826E+02  0.10000000596E+02 0.  0.
        -12    1    1    2    0    0  0.30738937667E+02  0.91280839891E+01  0.31637150255E+02  0.45045682174E+02  0.00000000000E+00 0.  1.
         11    1    3    3    0    0 -0.58029350215E+01 -0.58715926398E+01 -0.73024791663E+01  0.11021608650E+02  0.51100000000E-03 0.  1.
        -11    1    3    3    0    0 -0.38025574831E+01 -0.13912356486E+01 -0.48191805869E+01  0.62944008319E+01  0.51100000000E-03 0. -1.
        -12    1    3    3    0    0 -0.21133445162E+02 -0.18652557006E+01 -0.19515490502E+02  0.28826308345E+02  0.00000000000E+00 0.  1.
</event>
<event>
 7    1  0.2001181E-008  0.4614232E+02  0.7816164E-02  0.1320468E+00
        -11   -1    0    0    0    0  0.00000000000E+00  0.00000000000E+00  0.45593999997E+02  0.45594000000E+02  0.51100000000E-03 0.  1.
         11   -1    0    0    0    0 -0.00000000000E+00 -0.00000000000E+00 -0.45593999997E+02  0.45594000000E+02  0.51100000000E-03 0. -1.
    9900012    2    1    2    0    0  0.12108332666E+02  0.33149953359E+02 -0.27992542083E+02  0.46142317189E+02  0.99999947793E+01 0.  0.
        -12    1    1    2    0    0 -0.12108332666E+02 -0.33149953359E+02  0.27992542083E+02  0.45045682811E+02  0.00000000000E+00 0.  1.
         11    1    3    3    0    0  0.10324094601E+02  0.16322162824E+02 -0.14977343900E+02  0.24440146463E+02  0.51100000000E-03 0. -1.
        -11    1    3    3    0    0 -0.10209692060E+01  0.26864715457E+01 -0.29561709694E+01  0.41229182077E+01  0.51100000000E-03 0.  1.
        -12    1    3    3    0    0  0.28052072715E+01  0.14141318990E+02 -0.10059027213E+02  0.17579252518E+02  0.00000000000E+00 0.  1.
</event>
<event>
 7    1  0.2001181E-008  0.4614231E+02  0.7816164E-02  0.1320468E+00
        -11   -1    0    0    0    0  0.00000000000E+00  0.00000000000E+00  0.45593999997E+02  0.45594000000E+02  0.51100000000E-03 0.  1.
         11   -1    0    0    0    0 -0.00000000000E+00 -0.00000000000E+00 -0.45593999997E+02  0.45594000000E+02  0.51100000000E-03 0. -1.
    9900012    2    1    2    0    0 -0.33963667894E+02 -0.15886168627E+02 -0.24964231237E+02  0.46142312840E+02  0.99999551240E+01 0.  0.
        -12    1    1    2    0    0  0.33963667894E+02  0.15886168627E+02  0.24964231237E+02  0.45045687160E+02  0.00000000000E+00 0.  1.
         11    1    3    3    0    0 -0.15476680007E+02 -0.60706622227E+01 -0.10761094164E+02  0.19803578256E+02  0.51100000000E-03 0. -1.
        -11    1    3    3    0    0 -0.11092144753E+02 -0.97207221843E+01 -0.10167201230E+02  0.17913684605E+02  0.51100000000E-03 0.  1.
         12    1    3    3    0    0 -0.73948431343E+01 -0.94784220060E-01 -0.40359358430E+01  0.84250499796E+01  0.00000000000E+00 0. -1.
</event>
<event>
 7    1  0.2001181E-008  0.4614232E+02  0.7816164E-02  0.1320468E+00
        -11   -1    0    0    0    0  0.00000000000E+00  0.00000000000E+00  0.45593999997E+02  0.45594000000E+02  0.51100000000E-03 0.  1.
         11   -1    0    0    0    0 -0.00000000000E+00 -0.00000000000E+00 -0.45593999997E+02  0.45594000000E+02  0.51100000000E-03 0. -1.
    9900012    2    1    2    0    0  0.36598818444E+00 -0.88085061110E+01 -0.44174538654E+02  0.46142316605E+02  0.99999894560E+01 0.  0.
        -12    1    1    2    0    0 -0.36598818444E+00  0.88085061110E+01  0.44174538654E+02  0.45045683395E+02  0.00000000000E+00 0.  1.
         11    1    3    3    0    0  0.12081252443E+01  0.13976109608E+01 -0.49654497446E+01  0.52979783343E+01  0.51100000000E-03 0. -1.
        -11    1    3    3    0    0  0.68271517286E+00 -0.72160854476E-01 -0.72486184255E+01  0.72810560042E+01  0.51100000000E-03 0.  1.
         12    1    3    3    0    0 -0.15248522327E+01 -0.10133956217E+02 -0.31960470484E+02  0.33563282266E+02  0.00000000000E+00 0. -1.
</event>
<event>
 7    1  0.2001181E-008  0.4614232E+02  0.7816164E-02  0.1320468E+00
        -11   -1    0    0    0    0  0.00000000000E+00  0.00000000000E+00  0.45593999997E+02  0.45594000000E+02  0.51100000000E-03 0.  1.
         11   -1    0    0    0    0 -0.00000000000E+00 -0.00000000000E+00 -0.45593999997E+02  0.45594000000E+02  0.51100000000E-03 0. -1.
    9900012    2    1    2    0    0  0.32683820523E+01 -0.44453197257E+02 -0.65072574834E+01  0.46142317992E+02  0.10000002106E+02 0.  0.
        -12    1    1    2    0    0 -0.32683820523E+01  0.44453197257E+02  0.65072574834E+01  0.45045682008E+02  0.00000000000E+00 0.  1.
         11    1    3    3    0    0 -0.74484955089E+00 -0.35500486088E+01 -0.11784872005E+00  0.36292608835E+01  0.51100000000E-03 0. -1.
        -11    1    3    3    0    0 -0.23330741119E+01 -0.44503576004E+01 -0.56846906653E+00  0.50568839145E+01  0.51100000000E-03 0.  1.
        -12    1    3    3    0    0  0.63463057151E+01 -0.36452791048E+02 -0.58209396968E+01  0.37456173194E+02  0.00000000000E+00 0.  1.
</event>
<event>
 7    1  0.2001181E-008  0.4614232E+02  0.7816164E-02  0.1320468E+00
        -11   -1    0    0    0    0  0.00000000000E+00  0.00000000000E+00  0.45593999997E+02  0.45594000000E+02  0.51100000000E-03 0.  1.
         11   -1    0    0    0    0 -0.00000000000E+00 -0.00000000000E+00 -0.45593999997E+02  0.45594000000E+02  0.51100000000E-03 0. -1.
    9900012    2    1    2    0    0 -0.30355709109E+02  0.33251888969E+02 -0.13986639237E+01  0.46142318117E+02  0.10000003243E+02 0.  0.
        -12    1    1    2    0    0  0.30355709109E+02 -0.33251888969E+02  0.13986639237E+01  0.45045681883E+02  0.00000000000E+00 0.  1.
         11    1    3    3    0    0 -0.68232650166E+01  0.27972656369E+01 -0.16203450073E-02  0.73743910540E+01  0.51100000000E-03 0. -1.
        -11    1    3    3    0    0 -0.15489898345E+02  0.19899747900E+02  0.12001781025E+01  0.25246333297E+02  0.51100000000E-03 0.  1.
         12    1    3    3    0    0 -0.80425457477E+01  0.10554875432E+02 -0.25972216812E+01  0.13521593765E+02  0.00000000000E+00 0. -1.
</event>
<event>
 7    1  0.2001181E-008  0.4614232E+02  0.7816164E-02  0.1320468E+00
        -11   -1    0    0    0    0  0.00000000000E+00  0.00000000000E+00  0.45593999997E+02  0.45594000000E+02  0.51100000000E-03 0. -1.
         11   -1    0    0    0    0 -0.00000000000E+00 -0.00000000000E+00 -0.45593999997E+02  0.45594000000E+02  0.51100000000E-03 0.  1.
    9900012    2    1    2    0    0  0.26125247412E+02 -0.13255731635E+02  0.34217987175E+02  0.46142316302E+02  0.99999866929E+01 0.  0.
        -12    1    1    2    0    0 -0.26125247412E+02  0.13255731635E+02 -0.34217987175E+02  0.45045683698E+02  0.00000000000E+00 0.  1.
         11    1    3    3    0    0  0.12715037360E+02 -0.90058188201E+01  0.15711518165E+02  0.22127556372E+02  0.51100000000E-03 0. -1.
        -11    1    3    3    0    0  0.32445674396E+01 -0.11904291676E+01  0.94444390266E+01  0.10056926382E+02  0.51100000000E-03 0.  1.
         12    1    3    3    0    0  0.10165642613E+02 -0.30594836471E+01  0.90620299839E+01  0.13957833548E+02  0.00000000000E+00 0. -1.
</event>
<event>
 7    1  0.2001181E-008  0.4614232E+02  0.7816164E-02  0.1320468E+00
        -11   -1    0    0    0    0  0.00000000000E+00  0.00000000000E+00  0.45593999997E+02  0.45594000000E+02  0.51100000000E-03 0.  1.
         11   -1    0    0    0    0 -0.00000000000E+00 -0.00000000000E+00 -0.45593999997E+02  0.45594000000E+02  0.51100000000E-03 0. -1.
    9900012    2    1    2    0    0  0.29198770661E+02  0.24093933912E+02 -0.24413673498E+02  0.46142319706E+02  0.10000017732E+02 0.  0.
        -12    1    1    2    0    0 -0.29198770661E+02 -0.24093933912E+02  0.24413673498E+02  0.45045680294E+02  0.00000000000E+00 0.  1.
         11    1    3    3    0    0  0.96187431912E+01  0.10788039647E+02 -0.11157199892E+02  0.18258837030E+02  0.51100000000E-03 0. -1.
        -11    1    3    3    0    0  0.33595795956E+01  0.56652579978E+01 -0.31435156088E+01  0.72981925081E+01  0.51100000000E-03 0.  1.
         12    1    3    3    0    0  0.16220447875E+02  0.76406362672E+01 -0.10112957998E+02  0.20585290168E+02  0.00000000000E+00 0. -1.
</event>
<event>
 7    1  0.2001181E-008  0.4614232E+02  0.7816164E-02  0.1320468E+00
        -11   -1    0    0    0    0  0.00000000000E+00  0.00000000000E+00  0.45593999997E+02  0.45594000000E+02  0.51100000000E-03 0.  1.
         11   -1    0    0    0    0 -0.00000000000E+00 -0.00000000000E+00 -0.45593999997E+02  0.45594000000E+02  0.51100000000E-03 0. -1.
    9900012    2    1    2    0    0 -0.35648130078E+02  0.21814133387E+02 -0.16806784479E+02  0.46142316544E+02  0.99999889020E+01 0.  0.
        -12    1    1    2    0    0  0.35648130078E+02 -0.21814133387E+02  0.16806784479E+02  0.45045683456E+02  0.00000000000E+00 0.  1.
         11    1    3    3    0    0 -0.32121334630E+02  0.20136471706E+02 -0.15876742594E+02  0.41101442637E+02  0.51100000000E-03 0.  1.
        -11    1    3    3    0    0 -0.39802386722E+01  0.11862266510E+01 -0.11948144671E+01  0.43216912693E+01  0.51100000000E-03 0. -1.
        -12    1    3    3    0    0  0.45344322395E+00  0.49143503027E+00  0.26477258249E+00  0.71918263797E+00  0.00000000000E+00 0.  1.
</event>
<event>
 7    1  0.2001181E-008  0.4614232E+02  0.7816164E-02  0.1320468E+00
        -11   -1    0    0    0    0  0.00000000000E+00  0.00000000000E+00  0.45593999997E+02  0.45594000000E+02  0.51100000000E-03 0.  1.
         11   -1    0    0    0    0 -0.00000000000E+00 -0.00000000000E+00 -0.45593999997E+02  0.45594000000E+02  0.51100000000E-03 0. -1.
    9900012    2    1    2    0    0  0.36695822361E+02  0.30903706618E+01 -0.25941853459E+02  0.46142317294E+02  0.99999957364E+01 0.  0.
        -12    1    1    2    0    0 -0.36695822361E+02 -0.30903706618E+01  0.25941853459E+02  0.45045682706E+02  0.00000000000E+00 0.  1.
         11    1    3    3    0    0  0.10648583327E+02  0.26244790696E+01 -0.77454997038E+01  0.13426577494E+02  0.51100000000E-03 0. -1.
        -11    1    3    3    0    0  0.14018420057E+02  0.10727868919E+01 -0.14307888504E+02  0.20059477718E+02  0.51100000000E-03 0.  1.
        -12    1    3    3    0    0  0.12028818977E+02 -0.60689529972E+00 -0.38884652518E+01  0.12656262083E+02  0.00000000000E+00 0.  1.
</event>
<event>
 7    1  0.2001181E-008  0.4614232E+02  0.7816164E-02  0.1320468E+00
        -11   -1    0    0    0    0  0.00000000000E+00  0.00000000000E+00  0.45593999997E+02  0.45594000000E+02  0.51100000000E-03 0.  1.
         11   -1    0    0    0    0 -0.00000000000E+00 -0.00000000000E+00 -0.45593999997E+02  0.45594000000E+02  0.51100000000E-03 0. -1.
    9900012    2    1    2    0    0  0.11352477484E+01  0.39799587626E+02 -0.21066973830E+02  0.46142319308E+02  0.10000014108E+02 0.  0.
        -12    1    1    2    0    0 -0.11352477484E+01 -0.39799587626E+02  0.21066973830E+02  0.45045680692E+02  0.00000000000E+00 0.  1.
         11    1    3    3    0    0  0.20330769537E+01  0.30125653023E+01 -0.26926357469E+01  0.45231890438E+01  0.51100000000E-03 0. -1.
        -11    1    3    3    0    0  0.61245382525E+00  0.23914674564E+01 -0.30771699256E+01  0.39450210766E+01  0.51100000000E-03 0.  1.
         12    1    3    3    0    0 -0.15102830306E+01  0.34395554867E+02 -0.15297168158E+02  0.37674109188E+02  0.00000000000E+00 0. -1.
</event>
<event>
 7    1  0.2001181E-008  0.4614232E+02  0.7816164E-02  0.1320468E+00
        -11   -1    0    0    0    0  0.00000000000E+00  0.00000000000E+00  0.45593999997E+02  0.45594000000E+02  0.51100000000E-03 0.  1.
         11   -1    0    0    0    0 -0.00000000000E+00 -0.00000000000E+00 -0.45593999997E+02  0.45594000000E+02  0.51100000000E-03 0. -1.
    9900012    2    1    2    0    0 -0.15451102894E+02  0.95022106524E+01 -0.41232088521E+02  0.46142315282E+02  0.99999773929E+01 0.  0.
        -12    1    1    2    0    0  0.15451102894E+02 -0.95022106524E+01  0.41232088521E+02  0.45045684718E+02  0.00000000000E+00 0.  1.
         11    1    3    3    0    0 -0.82758774640E+01 -0.51018324478E+00 -0.15319086817E+02  0.17419094578E+02  0.51100000000E-03 0. -1.
        -11    1    3    3    0    0 -0.43808835034E+01  0.70425667902E+01 -0.16603223207E+02  0.18559550329E+02  0.51100000000E-03 0.  1.
         12    1    3    3    0    0 -0.27943419266E+01  0.29698271070E+01 -0.93097784967E+01  0.10163670376E+02  0.00000000000E+00 0. -1.
</event>
<event>
 7    1  0.2001181E-008  0.4614232E+02  0.7816164E-02  0.1320468E+00
        -11   -1    0    0    0    0  0.00000000000E+00  0.00000000000E+00  0.45593999997E+02  0.45594000000E+02  0.51100000000E-03 0.  1.
         11   -1    0    0    0    0 -0.00000000000E+00 -0.00000000000E+00 -0.45593999997E+02  0.45594000000E+02  0.51100000000E-03 0. -1.
    9900012    2    1    2    0    0  0.68980283178E+01 -0.43370438765E+02 -0.10026751588E+02  0.46142317624E+02  0.99999987452E+01 0.  0.
        -12    1    1    2    0    0 -0.68980283178E+01  0.43370438765E+02  0.10026751588E+02  0.45045682376E+02  0.00000000000E+00 0.  1.
         11    1    3    3    0    0  0.30175056432E+01 -0.10979089575E+02 -0.11535710136E+01  0.11444495382E+02  0.51100000000E-03 0.  1.
        -11    1    3    3    0    0  0.49460057856E+01 -0.27412313218E+02 -0.49994960826E+01  0.28300050363E+02  0.51100000000E-03 0. -1.
         12    1    3    3    0    0 -0.10654831110E+01 -0.49790359725E+01 -0.38736844918E+01  0.63977718791E+01  0.00000000000E+00 0. -1.
</event>
<event>
 7    1  0.2001181E-008  0.4614232E+02  0.7816164E-02  0.1320468E+00
        -11   -1    0    0    0    0  0.00000000000E+00  0.00000000000E+00  0.45593999997E+02  0.45594000000E+02  0.51100000000E-03 0.  1.
         11   -1    0    0    0    0 -0.00000000000E+00 -0.00000000000E+00 -0.45593999997E+02  0.45594000000E+02  0.51100000000E-03 0. -1.
    9900012    2    1    2    0    0  0.16125240186E+02 -0.27687726330E+02 -0.31661962584E+02  0.46142318353E+02  0.10000005399E+02 0.  0.
        -12    1    1    2    0    0 -0.16125240186E+02  0.27687726330E+02  0.31661962584E+02  0.45045681647E+02  0.00000000000E+00 0.  1.
         11    1    3    3    0    0  0.46283566288E+01 -0.83788319639E+01 -0.78453881464E+01  0.12376454484E+02  0.51100000000E-03 0. -1.
        -11    1    3    3    0    0  0.84767993470E+01 -0.14704178230E+02 -0.22355755555E+02  0.28068644272E+02  0.51100000000E-03 0.  1.
         12    1    3    3    0    0  0.30200842107E+01 -0.46047161360E+01 -0.14608188823E+01  0.56972195973E+01  0.00000000000E+00 0. -1.
</event>
<event>
 7    1  0.2001181E-008  0.4614232E+02  0.7816164E-02  0.1320468E+00
        -11   -1    0    0    0    0  0.00000000000E+00  0.00000000000E+00  0.45593999997E+02  0.45594000000E+02  0.51100000000E-03 0. -1.
         11   -1    0    0    0    0 -0.00000000000E+00 -0.00000000000E+00 -0.45593999997E+02  0.45594000000E+02  0.51100000000E-03 0.  1.
    9900012    2    1    2    0    0  0.72193553354E+01  0.45743341832E+00  0.44461051599E+02  0.46142318231E+02  0.10000004282E+02 0.  0.
        -12    1    1    2    0    0 -0.72193553354E+01 -0.45743341832E+00 -0.44461051599E+02  0.45045681769E+02  0.00000000000E+00 0.  1.
         11    1    3    3    0    0  0.29685682268E+01 -0.12765772867E+01  0.54407511919E+01  0.63280187010E+01  0.51100000000E-03 0. -1.
        -11    1    3    3    0    0  0.28576361378E+01 -0.19375702202E+01  0.11254568419E+02  0.11772237392E+02  0.51100000000E-03 0.  1.
         12    1    3    3    0    0  0.13931509708E+01  0.36715809252E+01  0.27765731988E+02  0.28042062138E+02  0.00000000000E+00 0. -1.
</event>
<event>
 7    1  0.2001181E-008  0.4614232E+02  0.7816164E-02  0.1320468E+00
        -11   -1    0    0    0    0  0.00000000000E+00  0.00000000000E+00  0.45593999997E+02  0.45594000000E+02  0.51100000000E-03 0. -1.
         11   -1    0    0    0    0 -0.00000000000E+00 -0.00000000000E+00 -0.45593999997E+02  0.45594000000E+02  0.51100000000E-03 0.  1.
    9900012    2    1    2    0    0  0.53614964705E+01  0.20604260233E+02  0.39696753886E+02  0.46142318151E+02  0.10000003552E+02 0.  0.
        -12    1    1    2    0    0 -0.53614964705E+01 -0.20604260233E+02 -0.39696753886E+02  0.45045681849E+02  0.00000000000E+00 0.  1.
         11    1    3    3    0    0  0.11662434025E+01  0.12207108684E+01  0.35635912487E+01  0.39432780205E+01  0.51100000000E-03 0. -1.
        -11    1    3    3    0    0 -0.59237462447E-01  0.14086963967E+01 -0.21542697354E+00  0.14263041951E+01  0.51100000000E-03 0.  1.
         12    1    3    3    0    0  0.42544905304E+01  0.17974852968E+02  0.36348589611E+02  0.40772735935E+02  0.00000000000E+00 0. -1.
</event>
<event>
 7    1  0.2001181E-008  0.4614232E+02  0.7816164E-02  0.1320468E+00
        -11   -1    0    0    0    0  0.00000000000E+00  0.00000000000E+00  0.45593999997E+02  0.45594000000E+02  0.51100000000E-03 0.  1.
         11   -1    0    0    0    0 -0.00000000000E+00 -0.00000000000E+00 -0.45593999997E+02  0.45594000000E+02  0.51100000000E-03 0. -1.
    9900012    2    1    2    0    0 -0.25725307161E+02 -0.16138519829E+02 -0.33269661020E+02  0.46142316576E+02  0.99999891892E+01 0.  0.
        -12    1    1    2    0    0  0.25725307161E+02  0.16138519829E+02  0.33269661020E+02  0.45045683424E+02  0.00000000000E+00 0.  1.
         11    1    3    3    0    0 -0.31512081443E+01 -0.18947563300E+01 -0.52345982808E+01  0.63969706691E+01  0.51100000000E-03 0. -1.
        -11    1    3    3    0    0 -0.15031890498E+02 -0.42633249614E+01 -0.16599336056E+02  0.22796307364E+02  0.51100000000E-03 0.  1.
         12    1    3    3    0    0 -0.75422085185E+01 -0.99804385381E+01 -0.11435726683E+02  0.16949038543E+02  0.00000000000E+00 0. -1.
</event>
<event>
 7    1  0.2001181E-008  0.4614232E+02  0.7816164E-02  0.1320468E+00
        -11   -1    0    0    0    0  0.00000000000E+00  0.00000000000E+00  0.45593999997E+02  0.45594000000E+02  0.51100000000E-03 0.  1.
         11   -1    0    0    0    0 -0.00000000000E+00 -0.00000000000E+00 -0.45593999997E+02  0.45594000000E+02  0.51100000000E-03 0. -1.
    9900012    2    1    2    0    0  0.17479526476E+02 -0.51715540906E+01 -0.41192652789E+02  0.46142318061E+02  0.10000002738E+02 0.  0.
        -12    1    1    2    0    0 -0.17479526476E+02  0.51715540906E+01  0.41192652789E+02  0.45045681939E+02  0.00000000000E+00 0.  1.
         11    1    3    3    0    0  0.10884454670E+02 -0.42945181527E+01 -0.20414923226E+02  0.23530476625E+02  0.51100000000E-03 0. -1.
        -11    1    3    3    0    0  0.11431565886E-01 -0.22022177531E+01 -0.48855788652E+01  0.53589900935E+01  0.51100000000E-03 0.  1.
         12    1    3    3    0    0  0.65836402399E+01  0.13251818152E+01 -0.15892150698E+02  0.17252851343E+02  0.00000000000E+00 0. -1.
</event>
<event>
 7    1  0.2001181E-008  0.4614232E+02  0.7816164E-02  0.1320468E+00
        -11   -1    0    0    0    0  0.00000000000E+00  0.00000000000E+00  0.45593999997E+02  0.45594000000E+02  0.51100000000E-03 0. -1.
         11   -1    0    0    0    0 -0.00000000000E+00 -0.00000000000E+00 -0.45593999997E+02  0.45594000000E+02  0.51100000000E-03 0.  1.
    9900012    2    1    2    0    0  0.25791347102E+02  0.33478920704E+02  0.15591085313E+02  0.46142315877E+02  0.99999828229E+01 0.  0.
        -12    1    1    2    0    0 -0.25791347102E+02 -0.33478920704E+02 -0.15591085313E+02  0.45045684123E+02  0.00000000000E+00 0.  1.
         11    1    3    3    0    0  0.16256368447E+02  0.19860445332E+02  0.10751359636E+02  0.27826220335E+02  0.51100000000E-03 0. -1.
        -11    1    3    3    0    0  0.18955458840E+01  0.76792138613E+01  0.30389360289E+01  0.84734026327E+01  0.51100000000E-03 0.  1.
        -12    1    3    3    0    0  0.76394327710E+01  0.59392615114E+01  0.18007896483E+01  0.98426929100E+01  0.00000000000E+00 0.  1.
</event>
<event>
 7    1  0.2001181E-008  0.4614232E+02  0.7816164E-02  0.1320468E+00
        -11   -1    0    0    0    0  0.00000000000E+00  0.00000000000E+00  0.45593999997E+02  0.45594000000E+02  0.51100000000E-03 0.  1.
         11   -1    0    0    0    0 -0.00000000000E+00 -0.00000000000E+00 -0.45593999997E+02  0.45594000000E+02  0.51100000000E-03 0. -1.
    9900012    2    1    2    0    0  0.20388237263E+02  0.13652683913E+02 -0.37776149585E+02  0.46142317918E+02  0.10000001433E+02 0.  0.
        -12    1    1    2    0    0 -0.20388237263E+02 -0.13652683913E+02  0.37776149585E+02  0.45045682082E+02  0.00000000000E+00 0.  1.
         11    1    3    3    0    0  0.86873008084E+01  0.37719958797E+01 -0.90233026958E+01  0.13081175026E+02  0.51100000000E-03 0. -1.
        -11    1    3    3    0    0  0.97659617885E+00  0.39357085088E+01 -0.69165534450E+01  0.80176214292E+01  0.51100000000E-03 0.  1.
        -12    1    3    3    0    0  0.10724340275E+02  0.59449795245E+01 -0.21836293445E+02  0.25043521463E+02  0.00000000000E+00 0.  1.
</event>
<event>
 7    1  0.2001181E-008  0.4614232E+02  0.7816164E-02  0.1320468E+00
        -11   -1    0    0    0    0  0.00000000000E+00  0.00000000000E+00  0.45593999997E+02  0.45594000000E+02  0.51100000000E-03 0. -1.
         11   -1    0    0    0    0 -0.00000000000E+00 -0.00000000000E+00 -0.45593999997E+02  0.45594000000E+02  0.51100000000E-03 0.  1.
    9900012    2    1    2    0    0  0.35126172323E+02  0.26141510312E+02 -0.10577658758E+02  0.46142318651E+02  0.10000008111E+02 0.  0.
        -12    1    1    2    0    0 -0.35126172323E+02 -0.26141510312E+02  0.10577658758E+02  0.45045681349E+02  0.00000000000E+00 0.  1.
         11    1    3    3    0    0  0.16664160992E+02  0.17308054192E+02 -0.44792703615E+01  0.24440271372E+02  0.51100000000E-03 0. -1.
        -11    1    3    3    0    0  0.38451515843E+01  0.24189720477E+00 -0.76356050883E+00  0.39276875990E+01  0.51100000000E-03 0.  1.
        -12    1    3    3    0    0  0.14616859747E+02  0.85915589145E+01 -0.53348278873E+01  0.17774359680E+02  0.00000000000E+00 0.  1.
</event>
<event>
 7    1  0.2001181E-008  0.4614232E+02  0.7816164E-02  0.1320468E+00
        -11   -1    0    0    0    0  0.00000000000E+00  0.00000000000E+00  0.45593999997E+02  0.45594000000E+02  0.51100000000E-03 0.  1.
         11   -1    0    0    0    0 -0.00000000000E+00 -0.00000000000E+00 -0.45593999997E+02  0.45594000000E+02  0.51100000000E-03 0. -1.
    9900012    2    1    2    0    0 -0.31435643259E+02  0.16591024352E+02 -0.27670413008E+02  0.46142317497E+02  0.99999975876E+01 0.  0.
        -12    1    1    2    0    0  0.31435643259E+02 -0.16591024352E+02  0.27670413008E+02  0.45045682503E+02  0.00000000000E+00 0.  1.
         11    1    3    3    0    0 -0.29707783263E+01  0.17852287072E+01 -0.57244092480E+00  0.35128698061E+01  0.51100000000E-03 0. -1.
        -11    1    3    3    0    0 -0.63727528334E+01  0.15281198671E+01 -0.90082643424E+01  0.11139836432E+02  0.51100000000E-03 0.  1.
        -12    1    3    3    0    0 -0.22092112100E+02  0.13277675777E+02 -0.18089707741E+02  0.31489611259E+02  0.00000000000E+00 0.  1.
</event>
<event>
 7    1  0.2001181E-008  0.4614232E+02  0.7816164E-02  0.1320468E+00
        -11   -1    0    0    0    0  0.00000000000E+00  0.00000000000E+00  0.45593999997E+02  0.45594000000E+02  0.51100000000E-03 0. -1.
         11   -1    0    0    0    0 -0.00000000000E+00 -0.00000000000E+00 -0.45593999997E+02  0.45594000000E+02  0.51100000000E-03 0.  1.
    9900012    2    1    2    0    0 -0.19607627431E+02 -0.87267875091E+01  0.39604263109E+02  0.46142317298E+02  0.99999957773E+01 0.  0.
        -12    1    1    2    0    0  0.19607627431E+02  0.87267875091E+01 -0.39604263109E+02  0.45045682702E+02  0.00000000000E+00 0.  1.
         11    1    3    3    0    0 -0.13518364927E+02 -0.32683985772E+01  0.28503939057E+02  0.31715976441E+02  0.51100000000E-03 0. -1.
        -11    1    3    3    0    0 -0.60764575637E+01 -0.47784647713E+01  0.75290857155E+01  0.10790931103E+02  0.51100000000E-03 0.  1.
         12    1    3    3    0    0 -0.12804940681E-01 -0.67992416057E+00  0.35712383357E+01  0.36354097542E+01  0.00000000000E+00 0. -1.
</event>
<event>
 7    1  0.2001181E-008  0.4614232E+02  0.7816164E-02  0.1320468E+00
        -11   -1    0    0    0    0  0.00000000000E+00  0.00000000000E+00  0.45593999997E+02  0.45594000000E+02  0.51100000000E-03 0.  1.
         11   -1    0    0    0    0 -0.00000000000E+00 -0.00000000000E+00 -0.45593999997E+02  0.45594000000E+02  0.51100000000E-03 0. -1.
    9900012    2    1    2    0    0  0.35217655678E+02 -0.16361140481E+02 -0.22828565159E+02  0.46142316783E+02  0.99999910789E+01 0.  0.
        -12    1    1    2    0    0 -0.35217655678E+02  0.16361140481E+02  0.22828565159E+02  0.45045683217E+02  0.00000000000E+00 0.  1.
         11    1    3    3    0    0  0.11048928394E+02 -0.82335773662E+01 -0.11115990321E+02  0.17704119746E+02  0.51100000000E-03 0. -1.
        -11    1    3    3    0    0  0.50354887291E-01 -0.92880396515E-01 -0.74380296821E+00  0.75126925890E+00  0.51100000000E-03 0.  1.
         12    1    3    3    0    0  0.24118372397E+02 -0.80346827181E+01 -0.10968771870E+02  0.27686927778E+02  0.00000000000E+00 0. -1.
</event>
<event>
 7    1  0.2001181E-008  0.4614232E+02  0.7816164E-02  0.1320468E+00
        -11   -1    0    0    0    0  0.00000000000E+00  0.00000000000E+00  0.45593999997E+02  0.45594000000E+02  0.51100000000E-03 0.  1.
         11   -1    0    0    0    0 -0.00000000000E+00 -0.00000000000E+00 -0.45593999997E+02  0.45594000000E+02  0.51100000000E-03 0. -1.
    9900012    2    1    2    0    0  0.39434232569E+02  0.18105248972E+02 -0.12093583782E+02  0.46142317551E+02  0.99999980806E+01 0.  0.
        -12    1    1    2    0    0 -0.39434232569E+02 -0.18105248972E+02  0.12093583782E+02  0.45045682449E+02  0.00000000000E+00 0.  1.
         11    1    3    3    0    0  0.20218447199E+02  0.84107932890E+01 -0.49468565909E+01  0.22449909605E+02  0.51100000000E-03 0. -1.
        -11    1    3    3    0    0  0.92248002292E+01  0.37724194487E+01  0.16603346970E+00  0.99677306916E+01  0.51100000000E-03 0.  1.
         12    1    3    3    0    0  0.99909851410E+01  0.59220362342E+01 -0.73127606607E+01  0.13724677254E+02  0.00000000000E+00 0. -1.
</event>
<event>
 7    1  0.2001181E-008  0.4614232E+02  0.7816164E-02  0.1320468E+00
        -11   -1    0    0    0    0  0.00000000000E+00  0.00000000000E+00  0.45593999997E+02  0.45594000000E+02  0.51100000000E-03 0. -1.
         11   -1    0    0    0    0 -0.00000000000E+00 -0.00000000000E+00 -0.45593999997E+02  0.45594000000E+02  0.51100000000E-03 0.  1.
    9900012    2    1    2    0    0  0.15323532598E+02 -0.42347384972E+02 -0.10008173546E+01  0.46142319845E+02  0.10000019005E+02 0.  0.
        -12    1    1    2    0    0 -0.15323532598E+02  0.42347384972E+02  0.10008173546E+01  0.45045680155E+02  0.00000000000E+00 0.  1.
         11    1    3    3    0    0  0.11677436977E+02 -0.34276742742E+02 -0.11565435153E+01  0.36229756009E+02  0.51100000000E-03 0. -1.
        -11    1    3    3    0    0  0.11657697119E+01  0.15564267304E+00  0.57728188639E+00  0.13101520142E+01  0.51100000000E-03 0.  1.
        -12    1    3    3    0    0  0.24803259083E+01 -0.82262849033E+01 -0.42155572572E+00  0.86024118218E+01  0.00000000000E+00 0.  1.
</event>
<event>
 7    1  0.2001181E-008  0.4614232E+02  0.7816164E-02  0.1320468E+00
        -11   -1    0    0    0    0  0.00000000000E+00  0.00000000000E+00  0.45593999997E+02  0.45594000000E+02  0.51100000000E-03 0.  1.
         11   -1    0    0    0    0 -0.00000000000E+00 -0.00000000000E+00 -0.45593999997E+02  0.45594000000E+02  0.51100000000E-03 0. -1.
    9900012    2    1    2    0    0 -0.40600307868E+02  0.19299515106E+02  0.28735429598E+01  0.46142317283E+02  0.99999956372E+01 0.  0.
        -12    1    1    2    0    0  0.40600307868E+02 -0.19299515106E+02 -0.28735429598E+01  0.45045682717E+02  0.00000000000E+00 0.  1.
         11    1    3    3    0    0 -0.43292565208E+01  0.46348982611E+01 -0.37536636451E+00  0.63533962636E+01  0.51100000000E-03 0. -1.
        -11    1    3    3    0    0 -0.36165509507E+02  0.14012507383E+02  0.26148658984E+01  0.38873280862E+02  0.51100000000E-03 0.  1.
        -12    1    3    3    0    0 -0.10554184029E+00  0.65210946230E+00  0.63404342593E+00  0.91564015685E+00  0.00000000000E+00 0.  1.
</event>
<event>
 7    1  0.2001181E-008  0.4614232E+02  0.7816164E-02  0.1320468E+00
        -11   -1    0    0    0    0  0.00000000000E+00  0.00000000000E+00  0.45593999997E+02  0.45594000000E+02  0.51100000000E-03 0.  1.
         11   -1    0    0    0    0 -0.00000000000E+00 -0.00000000000E+00 -0.45593999997E+02  0.45594000000E+02  0.51100000000E-03 0. -1.
    9900012    2    1    2    0    0 -0.27312892540E+02 -0.31597234234E+02 -0.16874069312E+02  0.46142317351E+02  0.99999962592E+01 0.  0.
        -12    1    1    2    0    0  0.27312892540E+02  0.31597234234E+02  0.16874069312E+02  0.45045682649E+02  0.00000000000E+00 0.  1.
         11    1    3    3    0    0 -0.22205061762E+01 -0.52735225227E+01 -0.67329086657E+00  0.57614241580E+01  0.51100000000E-03 0. -1.
        -11    1    3    3    0    0 -0.11762107012E+02 -0.13023748397E+02 -0.41773713864E+01  0.18039279798E+02  0.51100000000E-03 0.  1.
         12    1    3    3    0    0 -0.13330279352E+02 -0.13299963315E+02 -0.12023407059E+02  0.22341613395E+02  0.00000000000E+00 0. -1.
</event>
<event>
 7    1  0.2001181E-008  0.4614232E+02  0.7816164E-02  0.1320468E+00
        -11   -1    0    0    0    0  0.00000000000E+00  0.00000000000E+00  0.45593999997E+02  0.45594000000E+02  0.51100000000E-03 0.  1.
         11   -1    0    0    0    0 -0.00000000000E+00 -0.00000000000E+00 -0.45593999997E+02  0.45594000000E+02  0.51100000000E-03 0. -1.
    9900012    2    1    2    0    0 -0.89213973406E+01  0.15122428006E+02 -0.41482941392E+02  0.46142316679E+02  0.99999901317E+01 0.  0.
        -12    1    1    2    0    0  0.89213973406E+01 -0.15122428006E+02  0.41482941392E+02  0.45045683321E+02  0.00000000000E+00 0.  1.
         11    1    3    3    0    0 -0.38232323741E+01  0.44953308683E+01 -0.54200413333E+01  0.80126121657E+01  0.51100000000E-03 0. -1.
        -11    1    3    3    0    0  0.42329287388E+00  0.26365899533E+01 -0.78567863664E+01  0.82981850851E+01  0.51100000000E-03 0.  1.
         12    1    3    3    0    0 -0.55214578404E+01  0.79905071839E+01 -0.28206113693E+02  0.29831519428E+02  0.00000000000E+00 0. -1.
</event>
<event>
 7    1  0.2001181E-008  0.4614232E+02  0.7816164E-02  0.1320468E+00
        -11   -1    0    0    0    0  0.00000000000E+00  0.00000000000E+00  0.45593999997E+02  0.45594000000E+02  0.51100000000E-03 0.  1.
         11   -1    0    0    0    0 -0.00000000000E+00 -0.00000000000E+00 -0.45593999997E+02  0.45594000000E+02  0.51100000000E-03 0. -1.
    9900012    2    1    2    0    0  0.13698279231E+02  0.69417777533E+01 -0.42347165428E+02  0.46142317054E+02  0.99999935543E+01 0.  0.
        -12    1    1    2    0    0 -0.13698279231E+02 -0.69417777533E+01  0.42347165428E+02  0.45045682946E+02  0.00000000000E+00 0.  1.
         11    1    3    3    0    0  0.18627793184E+01  0.12072442853E+01 -0.17467966442E+01  0.28246564979E+01  0.51100000000E-03 0.  1.
        -11    1    3    3    0    0  0.57655147158E+01 -0.11868470147E+01 -0.15141237225E+02  0.16245209470E+02  0.51100000000E-03 0. -1.
        -12    1    3    3    0    0  0.60699851965E+01  0.69213804827E+01 -0.25459131559E+02  0.27072451086E+02  0.00000000000E+00 0.  1.
</event>
<event>
 7    1  0.2001181E-008  0.4614232E+02  0.7816164E-02  0.1320468E+00
        -11   -1    0    0    0    0  0.00000000000E+00  0.00000000000E+00  0.45593999997E+02  0.45594000000E+02  0.51100000000E-03 0. -1.
         11   -1    0    0    0    0 -0.00000000000E+00 -0.00000000000E+00 -0.45593999997E+02  0.45594000000E+02  0.51100000000E-03 0.  1.
    9900012    2    1    2    0    0 -0.38070173505E+02  0.23042074694E+01  0.23968020856E+02  0.46142317560E+02  0.99999981669E+01 0.  0.
        -12    1    1    2    0    0  0.38070173505E+02 -0.23042074694E+01 -0.23968020856E+02  0.45045682440E+02  0.00000000000E+00 0.  1.
         11    1    3    3    0    0 -0.28984001879E+02  0.26069459561E+01  0.14701585139E+02  0.32603759569E+02  0.51100000000E-03 0. -1.
        -11    1    3    3    0    0 -0.88131701058E+01  0.57741517911E+00  0.76813438742E+01  0.11705059572E+02  0.51100000000E-03 0.  1.
        -12    1    3    3    0    0 -0.27300151953E+00 -0.88015366583E+00  0.15850918427E+01  0.18334984196E+01  0.00000000000E+00 0.  1.
</event>
<event>
 7    1  0.2001181E-008  0.4614232E+02  0.7816164E-02  0.1320468E+00
        -11   -1    0    0    0    0  0.00000000000E+00  0.00000000000E+00  0.45593999997E+02  0.45594000000E+02  0.51100000000E-03 0.  1.
         11   -1    0    0    0    0 -0.00000000000E+00 -0.00000000000E+00 -0.45593999997E+02  0.45594000000E+02  0.51100000000E-03 0. -1.
    9900012    2    1    2    0    0 -0.64535479747E+01  0.18462875720E+02 -0.40578167237E+02  0.46142315217E+02  0.99999767986E+01 0.  0.
        -12    1    1    2    0    0  0.64535479747E+01 -0.18462875720E+02  0.40578167237E+02  0.45045684783E+02  0.00000000000E+00 0.  1.
         11    1    3    3    0    0 -0.26159770817E+01  0.14680130974E+02 -0.34953299330E+02  0.38001088351E+02  0.51100000000E-03 0. -1.
        -11    1    3    3    0    0 -0.30327952956E+01  0.14188845287E+01 -0.36864687676E+01  0.49800735784E+01  0.51100000000E-03 0.  1.
         12    1    3    3    0    0 -0.80477559742E+00  0.23638602167E+01 -0.19383991390E+01  0.31611532877E+01  0.00000000000E+00 0. -1.
</event>
<event>
 7    1  0.2001181E-008  0.4614232E+02  0.7816164E-02  0.1320468E+00
        -11   -1    0    0    0    0  0.00000000000E+00  0.00000000000E+00  0.45593999997E+02  0.45594000000E+02  0.51100000000E-03 0.  1.
         11   -1    0    0    0    0 -0.00000000000E+00 -0.00000000000E+00 -0.45593999997E+02  0.45594000000E+02  0.51100000000E-03 0. -1.
    9900012    2    1    2    0    0 -0.34154931985E+02  0.28877126903E+02  0.53540399444E+01  0.46142316735E+02  0.99999906421E+01 0.  0.
        -12    1    1    2    0    0  0.34154931985E+02 -0.28877126903E+02 -0.53540399444E+01  0.45045683265E+02  0.00000000000E+00 0.  1.
         11    1    3    3    0    0 -0.14171616285E+02  0.85355051079E+01  0.40959575868E+01  0.17043075555E+02  0.51100000000E-03 0. -1.
        -11    1    3    3    0    0 -0.52472800295E+00  0.23877243368E+01 -0.72256938099E+00  0.25492496459E+01  0.51100000000E-03 0.  1.
        -12    1    3    3    0    0 -0.19458587698E+02  0.17953897458E+02  0.19806517385E+01  0.26549991534E+02  0.00000000000E+00 0.  1.
</event>
<event>
 7    1  0.2001181E-008  0.4614232E+02  0.7816164E-02  0.1320468E+00
        -11   -1    0    0    0    0  0.00000000000E+00  0.00000000000E+00  0.45593999997E+02  0.45594000000E+02  0.51100000000E-03 0.  1.
         11   -1    0    0    0    0 -0.00000000000E+00 -0.00000000000E+00 -0.45593999997E+02  0.45594000000E+02  0.51100000000E-03 0. -1.
    9900012    2    1    2    0    0  0.29722067698E+02 -0.26066678633E+02 -0.21592603691E+02  0.46142316774E+02  0.99999909990E+01 0.  0.
        -12    1    1    2    0    0 -0.29722067698E+02  0.26066678633E+02  0.21592603691E+02  0.45045683226E+02  0.00000000000E+00 0.  1.
         11    1    3    3    0    0  0.58620163055E+01 -0.39411264571E+01 -0.22834814471E+01  0.74236110282E+01  0.51100000000E-03 0. -1.
        -11    1    3    3    0    0  0.95491330261E+01 -0.66920948456E+01 -0.11184959719E+02  0.16157765908E+02  0.51100000000E-03 0.  1.
        -12    1    3    3    0    0  0.14310918366E+02 -0.15433457330E+02 -0.81241625249E+01  0.22560939838E+02  0.00000000000E+00 0.  1.
</event>
<event>
 7    1  0.2001181E-008  0.4614232E+02  0.7816164E-02  0.1320468E+00
        -11   -1    0    0    0    0  0.00000000000E+00  0.00000000000E+00  0.45593999997E+02  0.45594000000E+02  0.51100000000E-03 0.  1.
         11   -1    0    0    0    0 -0.00000000000E+00 -0.00000000000E+00 -0.45593999997E+02  0.45594000000E+02  0.51100000000E-03 0. -1.
    9900012    2    1    2    0    0 -0.12634763917E+02  0.38476805462E+02 -0.19723380921E+02  0.46142316825E+02  0.99999914593E+01 0.  0.
        -12    1    1    2    0    0  0.12634763917E+02 -0.38476805462E+02  0.19723380921E+02  0.45045683175E+02  0.00000000000E+00 0.  1.
         11    1    3    3    0    0 -0.52711796366E+01  0.14044201083E+02 -0.82078634892E+01  0.17099530465E+02  0.51100000000E-03 0. -1.
        -11    1    3    3    0    0 -0.48093565548E+01  0.13225407075E+02 -0.21921496757E+01  0.14242430383E+02  0.51100000000E-03 0.  1.
        -12    1    3    3    0    0 -0.25542277256E+01  0.11207197304E+02 -0.93233677564E+01  0.14800355976E+02  0.00000000000E+00 0.  1.
</event>
<event>
 7    1  0.2001181E-008  0.4614232E+02  0.7816164E-02  0.1320468E+00
        -11   -1    0    0    0    0  0.00000000000E+00  0.00000000000E+00  0.45593999997E+02  0.45594000000E+02  0.51100000000E-03 0.  1.
         11   -1    0    0    0    0 -0.00000000000E+00 -0.00000000000E+00 -0.45593999997E+02  0.45594000000E+02  0.51100000000E-03 0. -1.
    9900012    2    1    2    0    0 -0.33481287723E+01 -0.30913313320E+02 -0.32592494284E+02  0.46142316629E+02  0.99999896790E+01 0.  0.
        -12    1    1    2    0    0  0.33481287723E+01  0.30913313320E+02  0.32592494284E+02  0.45045683371E+02  0.00000000000E+00 0.  1.
         11    1    3    3    0    0 -0.31461245598E+00  0.20009983827E+00 -0.55945864075E+00  0.67232073786E+00  0.51100000000E-03 0.  1.
        -11    1    3    3    0    0  0.14121910869E+01 -0.84700403437E+00 -0.12116530092E+01  0.20444565967E+01  0.51100000000E-03 0. -1.
         12    1    3    3    0    0 -0.44457074032E+01 -0.30266409124E+02 -0.30821382634E+02  0.43425539295E+02  0.00000000000E+00 0. -1.
</event>
<event>
 7    1  0.2001181E-008  0.4614232E+02  0.7816164E-02  0.1320468E+00
        -11   -1    0    0    0    0  0.00000000000E+00  0.00000000000E+00  0.45593999997E+02  0.45594000000E+02  0.51100000000E-03 0.  1.
         11   -1    0    0    0    0 -0.00000000000E+00 -0.00000000000E+00 -0.45593999997E+02  0.45594000000E+02  0.51100000000E-03 0. -1.
    9900012    2    1    2    0    0  0.36416761411E+02 -0.15773718175E+02 -0.21310158287E+02  0.46142317155E+02  0.99999944721E+01 0.  0.
        -12    1    1    2    0    0 -0.36416761411E+02  0.15773718175E+02  0.21310158287E+02  0.45045682845E+02  0.00000000000E+00 0.  1.
         11    1    3    3    0    0  0.96749018687E+01 -0.23475644378E+00 -0.47303749317E+01  0.10771967509E+02  0.51100000000E-03 0. -1.
        -11    1    3    3    0    0  0.10182725984E+01 -0.12959345786E+01 -0.18699845278E+01  0.24926226975E+01  0.51100000000E-03 0.  1.
         12    1    3    3    0    0  0.25723586944E+02 -0.14243027153E+02 -0.14709798827E+02  0.32877726949E+02  0.00000000000E+00 0. -1.
</event>
<event>
 7    1  0.2001181E-008  0.4614233E+02  0.7816164E-02  0.1320468E+00
        -11   -1    0    0    0    0  0.00000000000E+00  0.00000000000E+00  0.45593999997E+02  0.45594000000E+02  0.51100000000E-03 0.  1.
         11   -1    0    0    0    0 -0.00000000000E+00 -0.00000000000E+00 -0.45593999997E+02  0.45594000000E+02  0.51100000000E-03 0. -1.
    9900012    2    1    2    0    0  0.40734402832E+02  0.71631392172E+00 -0.19217381543E+02  0.46142329475E+02  0.10000106812E+02 0.  0.
        -12    1    1    2    0    0 -0.40734402832E+02 -0.71631392172E+00  0.19217381543E+02  0.45045670525E+02  0.00000000000E+00 0.  1.
         11    1    3    3    0    0  0.12049587745E+02 -0.19065179545E+01 -0.45344586029E+01  0.13014941053E+02  0.51100000000E-03 0. -1.
        -11    1    3    3    0    0  0.18090248522E+02 -0.65759114176E+00 -0.60964317740E+01  0.19101204106E+02  0.51100000000E-03 0.  1.
        -12    1    3    3    0    0  0.10594566565E+02  0.32804230180E+01 -0.85864911663E+01  0.14026184315E+02  0.00000000000E+00 0.  1.
</event>
<event>
 7    1  0.2001181E-008  0.4614232E+02  0.7816164E-02  0.1320468E+00
        -11   -1    0    0    0    0  0.00000000000E+00  0.00000000000E+00  0.45593999997E+02  0.45594000000E+02  0.51100000000E-03 0.  1.
         11   -1    0    0    0    0 -0.00000000000E+00 -0.00000000000E+00 -0.45593999997E+02  0.45594000000E+02  0.51100000000E-03 0. -1.
    9900012    2    1    2    0    0 -0.13768248313E+02  0.28177542023E+02 -0.32335351241E+02  0.46142317899E+02  0.10000001261E+02 0.  0.
        -12    1    1    2    0    0  0.13768248313E+02 -0.28177542023E+02  0.32335351241E+02  0.45045682101E+02  0.00000000000E+00 0.  1.
         11    1    3    3    0    0 -0.55190156221E+01  0.67599888405E+01 -0.43295820530E+01  0.97417792818E+01  0.51100000000E-03 0.  1.
        -11    1    3    3    0    0 -0.13295366142E+01  0.14296001018E+01 -0.13566859318E+01  0.23773979554E+01  0.51100000000E-03 0. -1.
        -12    1    3    3    0    0 -0.69196960764E+01  0.19987953080E+02 -0.26649083256E+02  0.34023140662E+02  0.00000000000E+00 0.  1.
</event>
<event>
 7    1  0.2001181E-008  0.4614232E+02  0.7816164E-02  0.1320468E+00
        -11   -1    0    0    0    0  0.00000000000E+00  0.00000000000E+00  0.45593999997E+02  0.45594000000E+02  0.51100000000E-03 0.  1.
         11   -1    0    0    0    0 -0.00000000000E+00 -0.00000000000E+00 -0.45593999997E+02  0.45594000000E+02  0.51100000000E-03 0. -1.
    9900012    2    1    2    0    0  0.38872993478E+02 -0.82247564318E+01 -0.21221622197E+02  0.46142317755E+02  0.99999999422E+01 0.  0.
        -12    1    1    2    0    0 -0.38872993478E+02  0.82247564318E+01  0.21221622197E+02  0.45045682245E+02  0.00000000000E+00 0.  1.
         11    1    3    3    0    0  0.17453891492E+02 -0.71792700881E+01 -0.80105210881E+01  0.20502407068E+02  0.51100000000E-03 0. -1.
        -11    1    3    3    0    0  0.20302718076E+02 -0.21029769569E+01 -0.12587325154E+02  0.23980484319E+02  0.51100000000E-03 0.  1.
         12    1    3    3    0    0  0.11163839093E+01  0.10574906132E+01 -0.62377595499E+00  0.16594263683E+01  0.00000000000E+00 0. -1.
</event>
<event>
 7    1  0.2001181E-008  0.4614232E+02  0.7816164E-02  0.1320468E+00
        -11   -1    0    0    0    0  0.00000000000E+00  0.00000000000E+00  0.45593999997E+02  0.45594000000E+02  0.51100000000E-03 0. -1.
         11   -1    0    0    0    0 -0.00000000000E+00 -0.00000000000E+00 -0.45593999997E+02  0.45594000000E+02  0.51100000000E-03 0.  1.
    9900012    2    1    2    0    0  0.25285626163E+02  0.33790614366E+02  0.15746269954E+02  0.46142317331E+02  0.99999960742E+01 0.  0.
        -12    1    1    2    0    0 -0.25285626163E+02 -0.33790614366E+02 -0.15746269954E+02  0.45045682669E+02  0.00000000000E+00 0.  1.
         11    1    3    3    0    0  0.14290940080E+02  0.14696465256E+02  0.67542659558E+01  0.21583261298E+02  0.51100000000E-03 0. -1.
        -11    1    3    3    0    0  0.26073460131E+01  0.21927746875E+01 -0.49089358328E+00  0.34420184243E+01  0.51100000000E-03 0.  1.
        -12    1    3    3    0    0  0.83873400708E+01  0.16901374422E+02  0.94828975820E+01  0.21117037609E+02  0.00000000000E+00 0.  1.
</event>
<event>
 7    1  0.2001181E-008  0.4614232E+02  0.7816164E-02  0.1320468E+00
        -11   -1    0    0    0    0  0.00000000000E+00  0.00000000000E+00  0.45593999997E+02  0.45594000000E+02  0.51100000000E-03 0.  1.
         11   -1    0    0    0    0 -0.00000000000E+00 -0.00000000000E+00 -0.45593999997E+02  0.45594000000E+02  0.51100000000E-03 0. -1.
    9900012    2    1    2    0    0  0.39996544833E+02  0.15974286530E+02  0.13198944312E+02  0.46142316969E+02  0.99999927795E+01 0.  0.
        -12    1    1    2    0    0 -0.39996544833E+02 -0.15974286530E+02 -0.13198944312E+02  0.45045683031E+02  0.00000000000E+00 0.  1.
         11    1    3    3    0    0  0.17406976046E+02  0.10044760886E+02  0.82824312998E+01  0.21737035327E+02  0.51100000000E-03 0.  1.
        -11    1    3    3    0    0  0.12572050871E+02  0.48262954114E+01  0.71231964128E+00  0.13485436220E+02  0.51100000000E-03 0. -1.
         12    1    3    3    0    0  0.10017517916E+02  0.11032302331E+01  0.42041933706E+01  0.10919845422E+02  0.00000000000E+00 0. -1.
</event>
<event>
 7    1  0.2001181E-008  0.4614232E+02  0.7816164E-02  0.1320468E+00
        -11   -1    0    0    0    0  0.00000000000E+00  0.00000000000E+00  0.45593999997E+02  0.45594000000E+02  0.51100000000E-03 0. -1.
         11   -1    0    0    0    0 -0.00000000000E+00 -0.00000000000E+00 -0.45593999997E+02  0.45594000000E+02  0.51100000000E-03 0.  1.
    9900012    2    1    2    0    0 -0.43140275747E+02  0.12349900661E+02  0.39382800625E+01  0.46142317768E+02  0.10000000065E+02 0.  0.
        -12    1    1    2    0    0  0.43140275747E+02 -0.12349900661E+02 -0.39382800625E+01  0.45045682232E+02  0.00000000000E+00 0.  1.
         11    1    3    3    0    0 -0.16210785584E+02  0.85482034739E+01  0.36743579506E+01  0.18691234804E+02  0.51100000000E-03 0. -1.
        -11    1    3    3    0    0 -0.48582107372E+00 -0.54028792808E-01  0.53731437115E+00  0.72639398448E+00  0.51100000000E-03 0.  1.
        -12    1    3    3    0    0 -0.26443669090E+02  0.38557259795E+01 -0.27339225923E+00  0.26724688980E+02  0.00000000000E+00 0.  1.
</event>
<event>
 7    1  0.2001181E-008  0.4614232E+02  0.7816164E-02  0.1320468E+00
        -11   -1    0    0    0    0  0.00000000000E+00  0.00000000000E+00  0.45593999997E+02  0.45594000000E+02  0.51100000000E-03 0.  1.
         11   -1    0    0    0    0 -0.00000000000E+00 -0.00000000000E+00 -0.45593999997E+02  0.45594000000E+02  0.51100000000E-03 0. -1.
    9900012    2    1    2    0    0  0.10117880202E+00  0.38286951221E+02 -0.23732099973E+02  0.46142318297E+02  0.10000004886E+02 0.  0.
        -12    1    1    2    0    0 -0.10117880202E+00 -0.38286951221E+02  0.23732099973E+02  0.45045681703E+02  0.00000000000E+00 0.  1.
         11    1    3    3    0    0  0.81489248248E+00  0.15436740513E+02 -0.86454742228E+01  0.17711612920E+02  0.51100000000E-03 0. -1.
        -11    1    3    3    0    0 -0.28594288981E+01  0.11341163849E+02 -0.10927485606E+02  0.16006507208E+02  0.51100000000E-03 0.  1.
         12    1    3    3    0    0  0.21457152177E+01  0.11509046859E+02 -0.41591401444E+01  0.12424198169E+02  0.00000000000E+00 0. -1.
</event>
<event>
 7    1  0.2001181E-008  0.4614232E+02  0.7816164E-02  0.1320468E+00
        -11   -1    0    0    0    0  0.00000000000E+00  0.00000000000E+00  0.45593999997E+02  0.45594000000E+02  0.51100000000E-03 0.  1.
         11   -1    0    0    0    0 -0.00000000000E+00 -0.00000000000E+00 -0.45593999997E+02  0.45594000000E+02  0.51100000000E-03 0. -1.
    9900012    2    1    2    0    0  0.61825655731E+01  0.44013264167E+02  0.73295239923E+01  0.46142318058E+02  0.10000002707E+02 0.  0.
        -12    1    1    2    0    0 -0.61825655731E+01 -0.44013264167E+02 -0.73295239923E+01  0.45045681942E+02  0.00000000000E+00 0.  1.
         11    1    3    3    0    0  0.58940821932E+01  0.20283093572E+02  0.32080268603E+01  0.21364351765E+02  0.51100000000E-03 0. -1.
        -11    1    3    3    0    0  0.15490281773E+01  0.33996493887E+01 -0.80377317999E+00  0.38214075739E+01  0.51100000000E-03 0.  1.
        -12    1    3    3    0    0 -0.12605447974E+01  0.20330521206E+02  0.49252703120E+01  0.20956558719E+02  0.00000000000E+00 0.  1.
</event>
<event>
 7    1  0.2001181E-008  0.4614232E+02  0.7816164E-02  0.1320468E+00
        -11   -1    0    0    0    0  0.00000000000E+00  0.00000000000E+00  0.45593999997E+02  0.45594000000E+02  0.51100000000E-03 0.  1.
         11   -1    0    0    0    0 -0.00000000000E+00 -0.00000000000E+00 -0.45593999997E+02  0.45594000000E+02  0.51100000000E-03 0. -1.
    9900012    2    1    2    0    0  0.22703713511E+02  0.13729669713E+02 -0.36402624738E+02  0.46142317349E+02  0.99999962455E+01 0.  0.
        -12    1    1    2    0    0 -0.22703713511E+02 -0.13729669713E+02  0.36402624738E+02  0.45045682651E+02  0.00000000000E+00 0.  1.
         11    1    3    3    0    0  0.16906668459E+01 -0.16653265206E+00 -0.39284060279E+01  0.42800072067E+01  0.51100000000E-03 0.  1.
        -11    1    3    3    0    0  0.10490293259E+02  0.10529448574E+02 -0.22571090409E+02  0.27025352217E+02  0.51100000000E-03 0. -1.
        -12    1    3    3    0    0  0.10522753406E+02  0.33667537914E+01 -0.99031283009E+01  0.14836957926E+02  0.00000000000E+00 0.  1.
</event>
<event>
 7    1  0.2001181E-008  0.4614232E+02  0.7816164E-02  0.1320468E+00
        -11   -1    0    0    0    0  0.00000000000E+00  0.00000000000E+00  0.45593999997E+02  0.45594000000E+02  0.51100000000E-03 0.  1.
         11   -1    0    0    0    0 -0.00000000000E+00 -0.00000000000E+00 -0.45593999997E+02  0.45594000000E+02  0.51100000000E-03 0. -1.
    9900012    2    1    2    0    0  0.48984100938E+01  0.19061892266E+02 -0.40518680386E+02  0.46142316317E+02  0.99999868333E+01 0.  0.
        -12    1    1    2    0    0 -0.48984100938E+01 -0.19061892266E+02  0.40518680386E+02  0.45045683683E+02  0.00000000000E+00 0.  1.
         11    1    3    3    0    0  0.17548051204E+00 -0.69097392706E+00 -0.23746058969E+01  0.24793127686E+01  0.51100000000E-03 0. -1.
        -11    1    3    3    0    0  0.26285544432E+01  0.76074831779E+01 -0.21465058794E+02  0.22924481413E+02  0.51100000000E-03 0.  1.
         12    1    3    3    0    0  0.20943751385E+01  0.12145383015E+02 -0.16679015696E+02  0.20738522136E+02  0.00000000000E+00 0. -1.
</event>
<event>
 7    1  0.2001181E-008  0.4614232E+02  0.7816164E-02  0.1320468E+00
        -11   -1    0    0    0    0  0.00000000000E+00  0.00000000000E+00  0.45593999997E+02  0.45594000000E+02  0.51100000000E-03 0.  1.
         11   -1    0    0    0    0 -0.00000000000E+00 -0.00000000000E+00 -0.45593999997E+02  0.45594000000E+02  0.51100000000E-03 0. -1.
    9900012    2    1    2    0    0  0.27129124671E+02  0.11978159125E+02 -0.33906456268E+02  0.46142317875E+02  0.10000001039E+02 0.  0.
        -12    1    1    2    0    0 -0.27129124671E+02 -0.11978159125E+02  0.33906456268E+02  0.45045682125E+02  0.00000000000E+00 0.  1.
         11    1    3    3    0    0  0.27320622076E+01  0.31186065286E+01 -0.32880268434E+01  0.52915962970E+01  0.51100000000E-03 0. -1.
        -11    1    3    3    0    0  0.53147757975E+00  0.42201480484E+00 -0.42305571371E+01  0.42846445436E+01  0.51100000000E-03 0.  1.
         12    1    3    3    0    0  0.23865584884E+02  0.84375377917E+01 -0.26387872288E+02  0.36566077034E+02  0.00000000000E+00 0. -1.
</event>
<event>
 7    1  0.2001181E-008  0.4614231E+02  0.7816164E-02  0.1320468E+00
        -11   -1    0    0    0    0  0.00000000000E+00  0.00000000000E+00  0.45593999997E+02  0.45594000000E+02  0.51100000000E-03 0.  1.
         11   -1    0    0    0    0 -0.00000000000E+00 -0.00000000000E+00 -0.45593999997E+02  0.45594000000E+02  0.51100000000E-03 0. -1.
    9900012    2    1    2    0    0  0.29924998693E+02 -0.33536088952E+02 -0.29898071662E+01  0.46142314792E+02  0.99999729257E+01 0.  0.
        -12    1    1    2    0    0 -0.29924998693E+02  0.33536088952E+02  0.29898071662E+01  0.45045685208E+02  0.00000000000E+00 0.  1.
         11    1    3    3    0    0  0.26283026871E+02 -0.25374092824E+02  0.16719468643E+00  0.36533136226E+02  0.51100000000E-03 0. -1.
        -11    1    3    3    0    0  0.13746296414E+01 -0.14911708233E+01 -0.79115118988E+00  0.21769514330E+01  0.51100000000E-03 0.  1.
         12    1    3    3    0    0  0.22673421805E+01 -0.66708253042E+01 -0.23658506627E+01  0.74322271333E+01  0.00000000000E+00 0. -1.
</event>
<event>
 7    1  0.2001181E-008  0.4614232E+02  0.7816164E-02  0.1320468E+00
        -11   -1    0    0    0    0  0.00000000000E+00  0.00000000000E+00  0.45593999997E+02  0.45594000000E+02  0.51100000000E-03 0. -1.
         11   -1    0    0    0    0 -0.00000000000E+00 -0.00000000000E+00 -0.45593999997E+02  0.45594000000E+02  0.51100000000E-03 0.  1.
    9900012    2    1    2    0    0  0.17531561856E+02 -0.38830911385E+02  0.14625940705E+02  0.46142317836E+02  0.10000000683E+02 0.  0.
        -12    1    1    2    0    0 -0.17531561856E+02  0.38830911385E+02 -0.14625940705E+02  0.45045682164E+02  0.00000000000E+00 0.  1.
         11    1    3    3    0    0  0.15359766164E+02 -0.29490917805E+02  0.13042809674E+02  0.35717664174E+02  0.51100000000E-03 0. -1.
        -11    1    3    3    0    0  0.27667600731E+01 -0.92234089552E+01  0.11914904099E+01  0.97028801762E+01  0.51100000000E-03 0.  1.
         12    1    3    3    0    0 -0.59496438071E+00 -0.11658462535E+00  0.39164062114E+00  0.72177348615E+00  0.00000000000E+00 0. -1.
</event>
<event>
 7    1  0.2001181E-008  0.4614232E+02  0.7816164E-02  0.1320468E+00
        -11   -1    0    0    0    0  0.00000000000E+00  0.00000000000E+00  0.45593999997E+02  0.45594000000E+02  0.51100000000E-03 0.  1.
         11   -1    0    0    0    0 -0.00000000000E+00 -0.00000000000E+00 -0.45593999997E+02  0.45594000000E+02  0.51100000000E-03 0. -1.
    9900012    2    1    2    0    0  0.83031889321E+01 -0.74506909297E+01 -0.43642384389E+02  0.46142318111E+02  0.10000003186E+02 0.  0.
        -12    1    1    2    0    0 -0.83031889321E+01  0.74506909297E+01  0.43642384389E+02  0.45045681889E+02  0.00000000000E+00 0.  1.
         11    1    3    3    0    0  0.22111020275E+01 -0.61084258268E+01 -0.13196167391E+02  0.14708523798E+02  0.51100000000E-03 0. -1.
        -11    1    3    3    0    0  0.17590998343E+01  0.48431490034E+00 -0.18587309788E+02  0.18676645271E+02  0.51100000000E-03 0.  1.
         12    1    3    3    0    0  0.43329870702E+01 -0.18265800033E+01 -0.11858907209E+02  0.12757149041E+02  0.00000000000E+00 0. -1.
</event>
<event>
 7    1  0.2001181E-008  0.4614232E+02  0.7816164E-02  0.1320468E+00
        -11   -1    0    0    0    0  0.00000000000E+00  0.00000000000E+00  0.45593999997E+02  0.45594000000E+02  0.51100000000E-03 0.  1.
         11   -1    0    0    0    0 -0.00000000000E+00 -0.00000000000E+00 -0.45593999997E+02  0.45594000000E+02  0.51100000000E-03 0. -1.
    9900012    2    1    2    0    0  0.23693468983E+02  0.13939026288E+02 -0.35685242533E+02  0.46142318066E+02  0.10000002780E+02 0.  0.
        -12    1    1    2    0    0 -0.23693468983E+02 -0.13939026288E+02  0.35685242533E+02  0.45045681934E+02  0.00000000000E+00 0.  1.
         11    1    3    3    0    0  0.59070744786E+01  0.75800541791E+01 -0.91726678052E+01  0.13284900646E+02  0.51100000000E-03 0. -1.
        -11    1    3    3    0    0  0.34439449602E+01  0.24105369074E+01 -0.86056890881E+01  0.95775430051E+01  0.51100000000E-03 0.  1.
        -12    1    3    3    0    0  0.14342449544E+02  0.39484352011E+01 -0.17906885639E+02  0.23279874415E+02  0.00000000000E+00 0.  1.
</event>
<event>
 7    1  0.2001181E-008  0.4614232E+02  0.7816164E-02  0.1320468E+00
        -11   -1    0    0    0    0  0.00000000000E+00  0.00000000000E+00  0.45593999997E+02  0.45594000000E+02  0.51100000000E-03 0. -1.
         11   -1    0    0    0    0 -0.00000000000E+00 -0.00000000000E+00 -0.45593999997E+02  0.45594000000E+02  0.51100000000E-03 0.  1.
    9900012    2    1    2    0    0  0.10422704951E+02 -0.14126514254E+02  0.41483999763E+02  0.46142318522E+02  0.10000006941E+02 0.  0.
        -12    1    1    2    0    0 -0.10422704951E+02  0.14126514254E+02 -0.41483999763E+02  0.45045681478E+02  0.00000000000E+00 0.  1.
         11    1    3    3    0    0  0.20745118822E+01 -0.64476387470E+01  0.80071285833E+01  0.10487599982E+02  0.51100000000E-03 0. -1.
        -11    1    3    3    0    0  0.63112048963E+01 -0.61008721683E+01  0.18735871406E+02  0.20690210876E+02  0.51100000000E-03 0.  1.
        -12    1    3    3    0    0  0.20369881722E+01 -0.15780033388E+01  0.14740999773E+02  0.14964507665E+02  0.00000000000E+00 0.  1.
</event>
<event>
 7    1  0.2001181E-008  0.4614232E+02  0.7816164E-02  0.1320468E+00
        -11   -1    0    0    0    0  0.00000000000E+00  0.00000000000E+00  0.45593999997E+02  0.45594000000E+02  0.51100000000E-03 0. -1.
         11   -1    0    0    0    0 -0.00000000000E+00 -0.00000000000E+00 -0.45593999997E+02  0.45594000000E+02  0.51100000000E-03 0.  1.
    9900012    2    1    2    0    0  0.34174836562E+02 -0.28222656056E+02  0.80421213260E+01  0.46142317806E+02  0.10000000410E+02 0.  0.
        -12    1    1    2    0    0 -0.34174836562E+02  0.28222656056E+02 -0.80421213260E+01  0.45045682194E+02  0.00000000000E+00 0.  1.
         11    1    3    3    0    0  0.10713742584E+02 -0.86262093916E+01  0.56939271475E+01  0.14886791973E+02  0.51100000000E-03 0. -1.
        -11    1    3    3    0    0  0.51902959892E+01 -0.79571083150E+01  0.93754179038E+00  0.95463988007E+01  0.51100000000E-03 0.  1.
         12    1    3    3    0    0  0.18270797988E+02 -0.11639338350E+02  0.14106523881E+01  0.21709127032E+02  0.00000000000E+00 0. -1.
</event>
<event>
 7    1  0.2001181E-008  0.4614232E+02  0.7816164E-02  0.1320468E+00
        -11   -1    0    0    0    0  0.00000000000E+00  0.00000000000E+00  0.45593999997E+02  0.45594000000E+02  0.51100000000E-03 0.  1.
         11   -1    0    0    0    0 -0.00000000000E+00 -0.00000000000E+00 -0.45593999997E+02  0.45594000000E+02  0.51100000000E-03 0. -1.
    9900012    2    1    2    0    0  0.25031794849E+01  0.39325287555E+02 -0.21825886207E+02  0.46142318103E+02  0.10000003115E+02 0.  0.
        -12    1    1    2    0    0 -0.25031794849E+01 -0.39325287555E+02  0.21825886207E+02  0.45045681897E+02  0.00000000000E+00 0.  1.
         11    1    3    3    0    0 -0.86079856956E+00  0.35803956847E+01 -0.89048088092E+00  0.37885569676E+01  0.51100000000E-03 0. -1.
        -11    1    3    3    0    0  0.46074416915E+01  0.18036616662E+02 -0.14010654644E+02  0.23299066577E+02  0.51100000000E-03 0.  1.
        -12    1    3    3    0    0 -0.12434636370E+01  0.17708275209E+02 -0.69247506827E+01  0.19054694558E+02  0.00000000000E+00 0.  1.
</event>
<event>
 7    1  0.2001181E-008  0.4614232E+02  0.7816164E-02  0.1320468E+00
        -11   -1    0    0    0    0  0.00000000000E+00  0.00000000000E+00  0.45593999997E+02  0.45594000000E+02  0.51100000000E-03 0.  1.
         11   -1    0    0    0    0 -0.00000000000E+00 -0.00000000000E+00 -0.45593999997E+02  0.45594000000E+02  0.51100000000E-03 0. -1.
    9900012    2    1    2    0    0  0.67713692289E+01 -0.21978320153E+02 -0.38732610720E+02  0.46142321726E+02  0.10000036158E+02 0.  0.
        -12    1    1    2    0    0 -0.67713692289E+01  0.21978320153E+02  0.38732610720E+02  0.45045678274E+02  0.00000000000E+00 0.  1.
         11    1    3    3    0    0  0.45311311253E+01 -0.90959032488E+01 -0.21668991418E+02  0.23933486886E+02  0.51100000000E-03 0. -1.
        -11    1    3    3    0    0  0.16449407015E+01 -0.11412558427E+01 -0.83448377585E+00  0.21690224165E+01  0.51100000000E-03 0.  1.
         12    1    3    3    0    0  0.59529740211E+00 -0.11741161061E+02 -0.16229135525E+02  0.20039812423E+02  0.00000000000E+00 0. -1.
</event>
<event>
 7    1  0.2001181E-008  0.4614232E+02  0.7816164E-02  0.1320468E+00
        -11   -1    0    0    0    0  0.00000000000E+00  0.00000000000E+00  0.45593999997E+02  0.45594000000E+02  0.51100000000E-03 0.  1.
         11   -1    0    0    0    0 -0.00000000000E+00 -0.00000000000E+00 -0.45593999997E+02  0.45594000000E+02  0.51100000000E-03 0. -1.
    9900012    2    1    2    0    0 -0.33226273649E+02 -0.32833727205E+01 -0.30238185813E+02  0.46142315653E+02  0.99999807781E+01 0.  0.
        -12    1    1    2    0    0  0.33226273649E+02  0.32833727205E+01  0.30238185813E+02  0.45045684347E+02  0.00000000000E+00 0.  1.
         11    1    3    3    0    0 -0.11747684227E+02 -0.99855715267E+00 -0.14312026307E+02  0.18542904259E+02  0.51100000000E-03 0. -1.
        -11    1    3    3    0    0 -0.73836419292E+01  0.22269640391E+01 -0.47968684701E+01  0.90822620724E+01  0.51100000000E-03 0.  1.
         12    1    3    3    0    0 -0.14094947493E+02 -0.45117796070E+01 -0.11129291036E+02  0.18517149322E+02  0.00000000000E+00 0. -1.
</event>
<event>
 7    1  0.2001181E-008  0.4614232E+02  0.7816164E-02  0.1320468E+00
        -11   -1    0    0    0    0  0.00000000000E+00  0.00000000000E+00  0.45593999997E+02  0.45594000000E+02  0.51100000000E-03 0. -1.
         11   -1    0    0    0    0 -0.00000000000E+00 -0.00000000000E+00 -0.45593999997E+02  0.45594000000E+02  0.51100000000E-03 0.  1.
    9900012    2    1    2    0    0 -0.21123640705E+02  0.13664960608E+02  0.37365413311E+02  0.46142318109E+02  0.10000003176E+02 0.  0.
        -12    1    1    2    0    0  0.21123640705E+02 -0.13664960608E+02 -0.37365413311E+02  0.45045681891E+02  0.00000000000E+00 0.  1.
         11    1    3    3    0    0 -0.94639922510E+01  0.48886182141E+01  0.18721890460E+02  0.21540077066E+02  0.51100000000E-03 0. -1.
        -11    1    3    3    0    0 -0.11630009743E+02  0.58629442483E+01  0.14009876195E+02  0.19128718544E+02  0.51100000000E-03 0.  1.
        -12    1    3    3    0    0 -0.29638711206E-01  0.29133981459E+01  0.46336466564E+01  0.54735224989E+01  0.00000000000E+00 0.  1.
</event>
<event>
 7    1  0.2001181E-008  0.4614232E+02  0.7816164E-02  0.1320468E+00
        -11   -1    0    0    0    0  0.00000000000E+00  0.00000000000E+00  0.45593999997E+02  0.45594000000E+02  0.51100000000E-03 0.  1.
         11   -1    0    0    0    0 -0.00000000000E+00 -0.00000000000E+00 -0.45593999997E+02  0.45594000000E+02  0.51100000000E-03 0. -1.
    9900012    2    1    2    0    0  0.21179861231E+02 -0.38816142303E+02 -0.85926704912E+01  0.46142318618E+02  0.10000007812E+02 0.  0.
        -12    1    1    2    0    0 -0.21179861231E+02  0.38816142303E+02  0.85926704912E+01  0.45045681382E+02  0.00000000000E+00 0.  1.
         11    1    3    3    0    0  0.99119598100E+01 -0.11017530193E+02 -0.22030587304E+01  0.14982869781E+02  0.51100000000E-03 0. -1.
        -11    1    3    3    0    0  0.39142166515E+01 -0.11714708503E+02  0.11660532363E-01  0.12351340961E+02  0.51100000000E-03 0.  1.
         12    1    3    3    0    0  0.73536847695E+01 -0.16083903606E+02 -0.64012722932E+01  0.18808107876E+02  0.00000000000E+00 0. -1.
</event>
<event>
 7    1  0.2001181E-008  0.4614232E+02  0.7816164E-02  0.1320468E+00
        -11   -1    0    0    0    0  0.00000000000E+00  0.00000000000E+00  0.45593999997E+02  0.45594000000E+02  0.51100000000E-03 0.  1.
         11   -1    0    0    0    0 -0.00000000000E+00 -0.00000000000E+00 -0.45593999997E+02  0.45594000000E+02  0.51100000000E-03 0. -1.
    9900012    2    1    2    0    0 -0.23631163112E+02  0.33820439450E+02 -0.18079253486E+02  0.46142318729E+02  0.10000008822E+02 0.  0.
        -12    1    1    2    0    0  0.23631163112E+02 -0.33820439450E+02  0.18079253486E+02  0.45045681271E+02  0.00000000000E+00 0.  1.
         11    1    3    3    0    0 -0.11083678414E+02  0.14187956957E+02 -0.48068588394E+01  0.18634697260E+02  0.51100000000E-03 0.  1.
        -11    1    3    3    0    0 -0.93377356263E+01  0.18260247622E+02 -0.10447156743E+02  0.23016798955E+02  0.51100000000E-03 0. -1.
        -12    1    3    3    0    0 -0.32097490708E+01  0.13722348709E+01 -0.28252379036E+01  0.44908225138E+01  0.00000000000E+00 0.  1.
</event>
<event>
 7    1  0.2001181E-008  0.4614232E+02  0.7816164E-02  0.1320468E+00
        -11   -1    0    0    0    0  0.00000000000E+00  0.00000000000E+00  0.45593999997E+02  0.45594000000E+02  0.51100000000E-03 0.  1.
         11   -1    0    0    0    0 -0.00000000000E+00 -0.00000000000E+00 -0.45593999997E+02  0.45594000000E+02  0.51100000000E-03 0. -1.
    9900012    2    1    2    0    0  0.91177939591E+01 -0.34836885448E+02 -0.27062348134E+02  0.46142318288E+02  0.10000004804E+02 0.  0.
        -12    1    1    2    0    0 -0.91177939591E+01  0.34836885448E+02  0.27062348134E+02  0.45045681712E+02  0.00000000000E+00 0.  1.
         11    1    3    3    0    0  0.62087568834E+01 -0.16751621685E+02 -0.91400357066E+01  0.20067529596E+02  0.51100000000E-03 0. -1.
        -11    1    3    3    0    0  0.15422594052E+01 -0.34442941242E+01 -0.15812867602E+01  0.40917226404E+01  0.51100000000E-03 0.  1.
        -12    1    3    3    0    0  0.13667776705E+01 -0.14640969638E+02 -0.16341025667E+02  0.21983066051E+02  0.00000000000E+00 0.  1.
</event>
<event>
 7    1  0.2001181E-008  0.4614232E+02  0.7816164E-02  0.1320468E+00
        -11   -1    0    0    0    0  0.00000000000E+00  0.00000000000E+00  0.45593999997E+02  0.45594000000E+02  0.51100000000E-03 0. -1.
         11   -1    0    0    0    0 -0.00000000000E+00 -0.00000000000E+00 -0.45593999997E+02  0.45594000000E+02  0.51100000000E-03 0.  1.
    9900012    2    1    2    0    0 -0.34284613820E+01 -0.24329385305E+02  0.37754999931E+02  0.46142319224E+02  0.10000013336E+02 0.  0.
        -12    1    1    2    0    0  0.34284613820E+01  0.24329385305E+02 -0.37754999931E+02  0.45045680776E+02  0.00000000000E+00 0.  1.
         11    1    3    3    0    0  0.11161484303E+01 -0.10148639168E+02  0.13727402525E+02  0.17107958517E+02  0.51100000000E-03 0. -1.
        -11    1    3    3    0    0 -0.55032941130E+01 -0.12244124713E+02  0.23024292454E+02  0.26651883224E+02  0.51100000000E-03 0.  1.
        -12    1    3    3    0    0  0.95868430080E+00 -0.19366214243E+01  0.10033049524E+01  0.23824774830E+01  0.00000000000E+00 0.  1.
</event>
<event>
 7    1  0.2001181E-008  0.4614232E+02  0.7816164E-02  0.1320468E+00
        -11   -1    0    0    0    0  0.00000000000E+00  0.00000000000E+00  0.45593999997E+02  0.45594000000E+02  0.51100000000E-03 0.  1.
         11   -1    0    0    0    0 -0.00000000000E+00 -0.00000000000E+00 -0.45593999997E+02  0.45594000000E+02  0.51100000000E-03 0. -1.
    9900012    2    1    2    0    0 -0.33895157206E+02 -0.11073154912E+02 -0.27524837433E+02  0.46142321878E+02  0.10000037546E+02 0.  0.
        -12    1    1    2    0    0  0.33895157206E+02  0.11073154912E+02  0.27524837433E+02  0.45045678122E+02  0.00000000000E+00 0.  1.
         11    1    3    3    0    0 -0.42744952985E+01 -0.10618552050E+01 -0.67077209807E+01  0.80244855006E+01  0.51100000000E-03 0. -1.
        -11    1    3    3    0    0 -0.53082392434E+01  0.87326809986E-01 -0.55707745002E+01  0.76953595517E+01  0.51100000000E-03 0.  1.
         12    1    3    3    0    0 -0.24312422664E+02 -0.10098626517E+02 -0.15246341952E+02  0.30422476826E+02  0.00000000000E+00 0. -1.
</event>
<event>
 7    1  0.2001181E-008  0.4614232E+02  0.7816164E-02  0.1320468E+00
        -11   -1    0    0    0    0  0.00000000000E+00  0.00000000000E+00  0.45593999997E+02  0.45594000000E+02  0.51100000000E-03 0. -1.
         11   -1    0    0    0    0 -0.00000000000E+00 -0.00000000000E+00 -0.45593999997E+02  0.45594000000E+02  0.51100000000E-03 0.  1.
    9900012    2    1    2    0    0 -0.37029884348E+02 -0.45787573138E+01  0.25237594926E+02  0.46142317065E+02  0.99999936559E+01 0.  0.
        -12    1    1    2    0    0  0.37029884348E+02  0.45787573138E+01 -0.25237594926E+02  0.45045682935E+02  0.00000000000E+00 0.  1.
         11    1    3    3    0    0 -0.16967905992E+02 -0.59902361919E+01  0.13907388783E+02  0.22742212434E+02  0.51100000000E-03 0. -1.
        -11    1    3    3    0    0 -0.52781734166E+01 -0.12986558084E+01  0.27151400316E+01  0.60759861074E+01  0.51100000000E-03 0.  1.
        -12    1    3    3    0    0 -0.14783804940E+02  0.27101346865E+01  0.86150661119E+01  0.17324118524E+02  0.00000000000E+00 0.  1.
</event>
<event>
 7    1  0.2001181E-008  0.4614232E+02  0.7816164E-02  0.1320468E+00
        -11   -1    0    0    0    0  0.00000000000E+00  0.00000000000E+00  0.45593999997E+02  0.45594000000E+02  0.51100000000E-03 0. -1.
         11   -1    0    0    0    0 -0.00000000000E+00 -0.00000000000E+00 -0.45593999997E+02  0.45594000000E+02  0.51100000000E-03 0.  1.
    9900012    2    1    2    0    0  0.43603544767E+02  0.74934432575E+01  0.84671517620E+01  0.46142317997E+02  0.10000002154E+02 0.  0.
        -12    1    1    2    0    0 -0.43603544767E+02 -0.74934432575E+01 -0.84671517620E+01  0.45045682003E+02  0.00000000000E+00 0.  1.
         11    1    3    3    0    0  0.49953938472E+01 -0.14678140047E+01  0.50794230644E+00  0.52312946092E+01  0.51100000000E-03 0. -1.
        -11    1    3    3    0    0  0.80160503393E+01 -0.44765441970E+00  0.27321635750E+01  0.84806942866E+01  0.51100000000E-03 0.  1.
        -12    1    3    3    0    0  0.30592100581E+02  0.94089116819E+01  0.52270458805E+01  0.32430329101E+02  0.00000000000E+00 0.  1.
</event>
<event>
 7    1  0.2001181E-008  0.4614232E+02  0.7816164E-02  0.1320468E+00
        -11   -1    0    0    0    0  0.00000000000E+00  0.00000000000E+00  0.45593999997E+02  0.45594000000E+02  0.51100000000E-03 0.  1.
         11   -1    0    0    0    0 -0.00000000000E+00 -0.00000000000E+00 -0.45593999997E+02  0.45594000000E+02  0.51100000000E-03 0. -1.
    9900012    2    1    2    0    0  0.10833632483E+02 -0.95964053033E+01 -0.42657414226E+02  0.46142316788E+02  0.99999911295E+01 0.  0.
        -12    1    1    2    0    0 -0.10833632483E+02  0.95964053033E+01  0.42657414226E+02  0.45045683212E+02  0.00000000000E+00 0.  1.
         11    1    3    3    0    0  0.52300643408E+01 -0.46250786262E+01 -0.17904864173E+02  0.19217936586E+02  0.51100000000E-03 0. -1.
        -11    1    3    3    0    0  0.18793443519E+00 -0.11260635899E+01 -0.15460472639E+02  0.15502566014E+02  0.51100000000E-03 0.  1.
        -12    1    3    3    0    0  0.54156337074E+01 -0.38452630872E+01 -0.92920774142E+01  0.11421814188E+02  0.00000000000E+00 0.  1.
</event>
<event>
 7    1  0.2001181E-008  0.4614232E+02  0.7816164E-02  0.1320468E+00
        -11   -1    0    0    0    0  0.00000000000E+00  0.00000000000E+00  0.45593999997E+02  0.45594000000E+02  0.51100000000E-03 0.  1.
         11   -1    0    0    0    0 -0.00000000000E+00 -0.00000000000E+00 -0.45593999997E+02  0.45594000000E+02  0.51100000000E-03 0. -1.
    9900012    2    1    2    0    0 -0.35738367572E+02  0.20441048406E+02 -0.18276929424E+02  0.46142317345E+02  0.99999962067E+01 0.  0.
        -12    1    1    2    0    0  0.35738367572E+02 -0.20441048406E+02  0.18276929424E+02  0.45045682655E+02  0.00000000000E+00 0.  1.
         11    1    3    3    0    0 -0.28604091548E+01 -0.25597535645E+00 -0.23699867680E+01  0.37234797512E+01  0.51100000000E-03 0.  1.
        -11    1    3    3    0    0 -0.26042976350E+02  0.14417981100E+02 -0.14202831865E+02  0.32982347240E+02  0.51100000000E-03 0. -1.
         12    1    3    3    0    0 -0.68349820671E+01  0.62790426627E+01 -0.17041107904E+01  0.94364903541E+01  0.00000000000E+00 0. -1.
</event>
<event>
 7    1  0.2001181E-008  0.4614232E+02  0.7816164E-02  0.1320468E+00
        -11   -1    0    0    0    0  0.00000000000E+00  0.00000000000E+00  0.45593999997E+02  0.45594000000E+02  0.51100000000E-03 0. -1.
         11   -1    0    0    0    0 -0.00000000000E+00 -0.00000000000E+00 -0.45593999997E+02  0.45594000000E+02  0.51100000000E-03 0.  1.
    9900012    2    1    2    0    0 -0.42732556492E+02  0.13123728053E+02  0.55506455905E+01  0.46142319976E+02  0.10000020198E+02 0.  0.
        -12    1    1    2    0    0  0.42732556492E+02 -0.13123728053E+02 -0.55506455905E+01  0.45045680024E+02  0.00000000000E+00 0.  1.
         11    1    3    3    0    0 -0.25571850954E+02  0.70455646232E+01  0.73297250598E+01  0.27518801060E+02  0.51100000000E-03 0. -1.
        -11    1    3    3    0    0 -0.12531094575E+01  0.14017603735E+01 -0.70500013383E+00  0.20080440501E+01  0.51100000000E-03 0.  1.
         12    1    3    3    0    0 -0.15907596081E+02  0.46764030561E+01 -0.10740793355E+01  0.16615474866E+02  0.00000000000E+00 0. -1.
</event>
<event>
 7    1  0.2001181E-008  0.4614232E+02  0.7816164E-02  0.1320468E+00
        -11   -1    0    0    0    0  0.00000000000E+00  0.00000000000E+00  0.45593999997E+02  0.45594000000E+02  0.51100000000E-03 0.  1.
         11   -1    0    0    0    0 -0.00000000000E+00 -0.00000000000E+00 -0.45593999997E+02  0.45594000000E+02  0.51100000000E-03 0. -1.
    9900012    2    1    2    0    0  0.19313704939E+02  0.36309553265E+02 -0.18376899414E+02  0.46142319976E+02  0.10000020193E+02 0.  0.
        -12    1    1    2    0    0 -0.19313704939E+02 -0.36309553265E+02  0.18376899414E+02  0.45045680024E+02  0.00000000000E+00 0.  1.
         11    1    3    3    0    0  0.33713767251E+01  0.11397762226E+02 -0.82829700338E+01  0.14487330935E+02  0.51100000000E-03 0. -1.
        -11    1    3    3    0    0  0.63363409283E+01  0.59686877846E+01 -0.38375063825E+01  0.95131963990E+01  0.51100000000E-03 0.  1.
         12    1    3    3    0    0  0.96059872854E+01  0.18943103255E+02 -0.62564229980E+01  0.22141792642E+02  0.00000000000E+00 0. -1.
</event>
<event>
 7    1  0.2001181E-008  0.4614231E+02  0.7816164E-02  0.1320468E+00
        -11   -1    0    0    0    0  0.00000000000E+00  0.00000000000E+00  0.45593999997E+02  0.45594000000E+02  0.51100000000E-03 0.  1.
         11   -1    0    0    0    0 -0.00000000000E+00 -0.00000000000E+00 -0.45593999997E+02  0.45594000000E+02  0.51100000000E-03 0. -1.
    9900012    2    1    2    0    0 -0.17088792378E+02 -0.26729935705E+02 -0.31978079245E+02  0.46142313859E+02  0.99999644145E+01 0.  0.
        -12    1    1    2    0    0  0.17088792378E+02  0.26729935705E+02  0.31978079245E+02  0.45045686141E+02  0.00000000000E+00 0.  1.
         11    1    3    3    0    0 -0.44965057287E+01 -0.34677427117E+01 -0.78186990523E+01  0.96631184623E+01  0.51100000000E-03 0. -1.
        -11    1    3    3    0    0 -0.32779511246E+01 -0.38303439325E+01 -0.16179252633E+01  0.52947314035E+01  0.51100000000E-03 0.  1.
         12    1    3    3    0    0 -0.93143355247E+01 -0.19431849061E+02 -0.22541454929E+02  0.31184463993E+02  0.00000000000E+00 0. -1.
</event>
<event>
 7    1  0.2001181E-008  0.4614232E+02  0.7816164E-02  0.1320468E+00
        -11   -1    0    0    0    0  0.00000000000E+00  0.00000000000E+00  0.45593999997E+02  0.45594000000E+02  0.51100000000E-03 0.  1.
         11   -1    0    0    0    0 -0.00000000000E+00 -0.00000000000E+00 -0.45593999997E+02  0.45594000000E+02  0.51100000000E-03 0. -1.
    9900012    2    1    2    0    0 -0.21698747455E+02 -0.64132749170E+01 -0.38950581899E+02  0.46142316893E+02  0.99999920844E+01 0.  0.
        -12    1    1    2    0    0  0.21698747455E+02  0.64132749170E+01  0.38950581899E+02  0.45045683107E+02  0.00000000000E+00 0.  1.
         11    1    3    3    0    0 -0.11945967648E+01  0.14547803463E+00 -0.49565779433E+00  0.13014999805E+01  0.51100000000E-03 0. -1.
        -11    1    3    3    0    0 -0.35545661516E+01 -0.37791178278E+01 -0.48558474772E+01  0.71060486254E+01  0.51100000000E-03 0.  1.
        -12    1    3    3    0    0 -0.16949584538E+02 -0.27796351238E+01 -0.33599076628E+02  0.37734768287E+02  0.00000000000E+00 0.  1.
</event>
<event>
 7    1  0.2001181E-008  0.4614232E+02  0.7816164E-02  0.1320468E+00
        -11   -1    0    0    0    0  0.00000000000E+00  0.00000000000E+00  0.45593999997E+02  0.45594000000E+02  0.51100000000E-03 0.  1.
         11   -1    0    0    0    0 -0.00000000000E+00 -0.00000000000E+00 -0.45593999997E+02  0.45594000000E+02  0.51100000000E-03 0. -1.
    9900012    2    1    2    0    0  0.19527873467E+01 -0.98651701063E+00 -0.44992517747E+02  0.46142320435E+02  0.10000024385E+02 0.  0.
        -12    1    1    2    0    0 -0.19527873467E+01  0.98651701063E+00  0.44992517747E+02  0.45045679565E+02  0.00000000000E+00 0.  1.
         11    1    3    3    0    0 -0.18275541496E+01 -0.14449081398E+01 -0.20969995372E+02  0.21099014666E+02  0.51100000000E-03 0. -1.
        -11    1    3    3    0    0  0.17406092660E+01 -0.22754363535E+01 -0.54189640899E+01  0.61296413667E+01  0.51100000000E-03 0.  1.
        -12    1    3    3    0    0  0.20397322303E+01  0.27338274827E+01 -0.18603558285E+02  0.18913664403E+02  0.00000000000E+00 0.  1.
</event>
<event>
 7    1  0.2001181E-008  0.4614231E+02  0.7816164E-02  0.1320468E+00
        -11   -1    0    0    0    0  0.00000000000E+00  0.00000000000E+00  0.45593999997E+02  0.45594000000E+02  0.51100000000E-03 0. -1.
         11   -1    0    0    0    0 -0.00000000000E+00 -0.00000000000E+00 -0.45593999997E+02  0.45594000000E+02  0.51100000000E-03 0.  1.
    9900012    2    1    2    0    0  0.24720839506E+02  0.35683087895E+02  0.12029622213E+02  0.46142306774E+02  0.99998998095E+01 0.  0.
        -12    1    1    2    0    0 -0.24720839506E+02 -0.35683087895E+02 -0.12029622213E+02  0.45045693226E+02  0.00000000000E+00 0.  1.
         11    1    3    3    0    0  0.33222333588E+01  0.71448725327E+01  0.19214837567E+01  0.81103969131E+01  0.51100000000E-03 0. -1.
        -11    1    3    3    0    0  0.16069551449E+02  0.23753039996E+02  0.47079756713E+01  0.29062044456E+02  0.51100000000E-03 0.  1.
        -12    1    3    3    0    0  0.53290546991E+01  0.47851753670E+01  0.54001627846E+01  0.89698654047E+01  0.00000000000E+00 0.  1.
</event>
<event>
 7    1  0.2001181E-008  0.4614232E+02  0.7816164E-02  0.1320468E+00
        -11   -1    0    0    0    0  0.00000000000E+00  0.00000000000E+00  0.45593999997E+02  0.45594000000E+02  0.51100000000E-03 0.  1.
         11   -1    0    0    0    0 -0.00000000000E+00 -0.00000000000E+00 -0.45593999997E+02  0.45594000000E+02  0.51100000000E-03 0. -1.
    9900012    2    1    2    0    0  0.29466102932E+02 -0.32732480457E+02 -0.94576439699E+01  0.46142317318E+02  0.99999959586E+01 0.  0.
        -12    1    1    2    0    0 -0.29466102932E+02  0.32732480457E+02  0.94576439699E+01  0.45045682682E+02  0.00000000000E+00 0.  1.
         11    1    3    3    0    0  0.19515995363E+02 -0.16078563879E+02 -0.76866623556E+01  0.26428754603E+02  0.51100000000E-03 0. -1.
        -11    1    3    3    0    0  0.38025306250E+00 -0.13356556921E+01 -0.85003127849E+00  0.16282266288E+01  0.51100000000E-03 0.  1.
        -12    1    3    3    0    0  0.95698545060E+01 -0.15318260886E+02 -0.92095033580E+00  0.18085336086E+02  0.00000000000E+00 0.  1.
</event>
<event>
 7    1  0.2001181E-008  0.4614232E+02  0.7816164E-02  0.1320468E+00
        -11   -1    0    0    0    0  0.00000000000E+00  0.00000000000E+00  0.45593999997E+02  0.45594000000E+02  0.51100000000E-03 0. -1.
         11   -1    0    0    0    0 -0.00000000000E+00 -0.00000000000E+00 -0.45593999997E+02  0.45594000000E+02  0.51100000000E-03 0.  1.
    9900012    2    1    2    0    0  0.11771705453E+02 -0.37621052196E+02  0.21799008962E+02  0.46142318639E+02  0.10000008001E+02 0.  0.
        -12    1    1    2    0    0 -0.11771705453E+02  0.37621052196E+02 -0.21799008962E+02  0.45045681361E+02  0.00000000000E+00 0.  1.
         11    1    3    3    0    0  0.54742105815E+01 -0.12934274844E+02  0.54322492362E+01  0.15058943497E+02  0.51100000000E-03 0.  1.
        -11    1    3    3    0    0  0.24506539678E+01 -0.17409658686E+02  0.78992476409E+01  0.19274336149E+02  0.51100000000E-03 0. -1.
         12    1    3    3    0    0  0.38468409032E+01 -0.72771186665E+01  0.84675120846E+01  0.11809038992E+02  0.00000000000E+00 0. -1.
</event>
<event>
 7    1  0.2001181E-008  0.4614232E+02  0.7816164E-02  0.1320468E+00
        -11   -1    0    0    0    0  0.00000000000E+00  0.00000000000E+00  0.45593999997E+02  0.45594000000E+02  0.51100000000E-03 0.  1.
         11   -1    0    0    0    0 -0.00000000000E+00 -0.00000000000E+00 -0.45593999997E+02  0.45594000000E+02  0.51100000000E-03 0. -1.
    9900012    2    1    2    0    0 -0.35551248754E+01  0.93151162989E+01 -0.43928389279E+02  0.46142315532E+02  0.99999796749E+01 0.  0.
        -12    1    1    2    0    0  0.35551248754E+01 -0.93151162989E+01  0.43928389279E+02  0.45045684468E+02  0.00000000000E+00 0.  1.
         11    1    3    3    0    0 -0.12734478138E+01  0.63700839121E+01 -0.14906930580E+02  0.16260879988E+02  0.51100000000E-03 0. -1.
        -11    1    3    3    0    0  0.73046085132E+00  0.30944913460E+01 -0.74491720917E+01  0.80993589165E+01  0.51100000000E-03 0.  1.
         12    1    3    3    0    0 -0.30121379130E+01 -0.14945895920E+00 -0.21572286607E+02  0.21782076628E+02  0.00000000000E+00 0. -1.
</event>
<event>
 7    1  0.2001181E-008  0.4614232E+02  0.7816164E-02  0.1320468E+00
        -11   -1    0    0    0    0  0.00000000000E+00  0.00000000000E+00  0.45593999997E+02  0.45594000000E+02  0.51100000000E-03 0. -1.
         11   -1    0    0    0    0 -0.00000000000E+00 -0.00000000000E+00 -0.45593999997E+02  0.45594000000E+02  0.51100000000E-03 0.  1.
    9900012    2    1    2    0    0 -0.18591213775E+02 -0.11096586373E+02  0.39501215823E+02  0.46142317518E+02  0.99999977825E+01 0.  0.
        -12    1    1    2    0    0  0.18591213775E+02  0.11096586373E+02 -0.39501215823E+02  0.45045682482E+02  0.00000000000E+00 0.  1.
         11    1    3    3    0    0 -0.11013605236E+02 -0.75414907629E+01  0.19733156298E+02  0.23823749515E+02  0.51100000000E-03 0. -1.
        -11    1    3    3    0    0 -0.59521446520E+00 -0.32040082552E+01  0.48445133392E+01  0.58386007667E+01  0.51100000000E-03 0.  1.
         12    1    3    3    0    0 -0.69823940746E+01 -0.35108735488E+00  0.14923546186E+02  0.16479967236E+02  0.00000000000E+00 0. -1.
</event>
<event>
 7    1  0.2001181E-008  0.4614232E+02  0.7816164E-02  0.1320468E+00
        -11   -1    0    0    0    0  0.00000000000E+00  0.00000000000E+00  0.45593999997E+02  0.45594000000E+02  0.51100000000E-03 0. -1.
         11   -1    0    0    0    0 -0.00000000000E+00 -0.00000000000E+00 -0.45593999997E+02  0.45594000000E+02  0.51100000000E-03 0.  1.
    9900012    2    1    2    0    0  0.28259934342E+02  0.11759164942E+02  0.33048625504E+02  0.46142317667E+02  0.99999991428E+01 0.  0.
        -12    1    1    2    0    0 -0.28259934342E+02 -0.11759164942E+02 -0.33048625504E+02  0.45045682333E+02  0.00000000000E+00 0.  1.
         11    1    3    3    0    0  0.18245821545E+01  0.42193845549E+01  0.38750275578E+01  0.60123327332E+01  0.51100000000E-03 0. -1.
        -11    1    3    3    0    0  0.10323827919E+02  0.21613185039E+01  0.11970046900E+02  0.15954145029E+02  0.51100000000E-03 0.  1.
         12    1    3    3    0    0  0.16111524269E+02  0.53784618833E+01  0.17203551046E+02  0.24175839904E+02  0.00000000000E+00 0. -1.
</event>
<event>
 7    1  0.2001181E-008  0.4614232E+02  0.7816164E-02  0.1320468E+00
        -11   -1    0    0    0    0  0.00000000000E+00  0.00000000000E+00  0.45593999997E+02  0.45594000000E+02  0.51100000000E-03 0.  1.
         11   -1    0    0    0    0 -0.00000000000E+00 -0.00000000000E+00 -0.45593999997E+02  0.45594000000E+02  0.51100000000E-03 0. -1.
    9900012    2    1    2    0    0 -0.36861951886E+02  0.22208960712E+01 -0.25794912154E+02  0.46142319083E+02  0.10000012059E+02 0.  0.
        -12    1    1    2    0    0  0.36861951886E+02 -0.22208960712E+01  0.25794912154E+02  0.45045680917E+02  0.00000000000E+00 0.  1.
         11    1    3    3    0    0 -0.21429355728E+02  0.27602351775E+01 -0.10372872224E+02  0.23967324915E+02  0.51100000000E-03 0. -1.
        -11    1    3    3    0    0 -0.13264291712E+01 -0.70291202712E+00 -0.37113762279E+00  0.15463644655E+01  0.51100000000E-03 0.  1.
        -12    1    3    3    0    0 -0.14106166987E+02  0.16357292085E+00 -0.15050902307E+02  0.20628629702E+02  0.00000000000E+00 0.  1.
</event>
<event>
 7    1  0.2001181E-008  0.4614232E+02  0.7816164E-02  0.1320468E+00
        -11   -1    0    0    0    0  0.00000000000E+00  0.00000000000E+00  0.45593999997E+02  0.45594000000E+02  0.51100000000E-03 0.  1.
         11   -1    0    0    0    0 -0.00000000000E+00 -0.00000000000E+00 -0.45593999997E+02  0.45594000000E+02  0.51100000000E-03 0. -1.
    9900012    2    1    2    0    0 -0.94544890158E+01  0.72424306500E+01 -0.43442759287E+02  0.46142317646E+02  0.99999989526E+01 0.  0.
        -12    1    1    2    0    0  0.94544890158E+01 -0.72424306500E+01  0.43442759287E+02  0.45045682354E+02  0.00000000000E+00 0.  1.
         11    1    3    3    0    0 -0.37638791988E+01  0.73230842723E+00 -0.13765548478E+02  0.14289625167E+02  0.51100000000E-03 0. -1.
        -11    1    3    3    0    0  0.20324508840E+00  0.28592003812E+01 -0.24947620912E+01  0.38000228339E+01  0.51100000000E-03 0.  1.
        -12    1    3    3    0    0 -0.58938549054E+01  0.36509218416E+01 -0.27182448717E+02  0.28052669645E+02  0.00000000000E+00 0.  1.
</event>
<event>
 7    1  0.2001181E-008  0.4614232E+02  0.7816164E-02  0.1320468E+00
        -11   -1    0    0    0    0  0.00000000000E+00  0.00000000000E+00  0.45593999997E+02  0.45594000000E+02  0.51100000000E-03 0.  1.
         11   -1    0    0    0    0 -0.00000000000E+00 -0.00000000000E+00 -0.45593999997E+02  0.45594000000E+02  0.51100000000E-03 0. -1.
    9900012    2    1    2    0    0 -0.20775509493E+02 -0.20634141876E+02 -0.34230453296E+02  0.46142317204E+02  0.99999949221E+01 0.  0.
        -12    1    1    2    0    0  0.20775509493E+02  0.20634141876E+02  0.34230453296E+02  0.45045682796E+02  0.00000000000E+00 0.  1.
         11    1    3    3    0    0 -0.60352634837E+01 -0.56321215195E+01 -0.15963923047E+02  0.17971979230E+02  0.51100000000E-03 0. -1.
        -11    1    3    3    0    0 -0.24593693328E+00 -0.12456278387E+01 -0.31519594890E+00  0.13082134516E+01  0.51100000000E-03 0.  1.
         12    1    3    3    0    0 -0.14494309076E+02 -0.13756392518E+02 -0.17951334300E+02  0.26862124523E+02  0.00000000000E+00 0. -1.
</event>
<event>
 7    1  0.2001181E-008  0.4614232E+02  0.7816164E-02  0.1320468E+00
        -11   -1    0    0    0    0  0.00000000000E+00  0.00000000000E+00  0.45593999997E+02  0.45594000000E+02  0.51100000000E-03 0.  1.
         11   -1    0    0    0    0 -0.00000000000E+00 -0.00000000000E+00 -0.45593999997E+02  0.45594000000E+02  0.51100000000E-03 0. -1.
    9900012    2    1    2    0    0 -0.20942652246E+02  0.36521146503E+02 -0.16022631564E+02  0.46142317107E+02  0.99999940396E+01 0.  0.
        -12    1    1    2    0    0  0.20942652246E+02 -0.36521146503E+02  0.16022631564E+02  0.45045682893E+02  0.00000000000E+00 0.  1.
         11    1    3    3    0    0 -0.33701998771E+01  0.40808630112E+01 -0.34260871873E+01  0.63047413749E+01  0.51100000000E-03 0. -1.
        -11    1    3    3    0    0 -0.10220349683E+02  0.20244358663E+02 -0.35177564704E+01  0.22949165914E+02  0.51100000000E-03 0.  1.
        -12    1    3    3    0    0 -0.73521026861E+01  0.12195924830E+02 -0.90787879064E+01  0.16888409819E+02  0.00000000000E+00 0.  1.
</event>
<event>
 7    1  0.2001181E-008  0.4614232E+02  0.7816164E-02  0.1320468E+00
        -11   -1    0    0    0    0  0.00000000000E+00  0.00000000000E+00  0.45593999997E+02  0.45594000000E+02  0.51100000000E-03 0.  1.
         11   -1    0    0    0    0 -0.00000000000E+00 -0.00000000000E+00 -0.45593999997E+02  0.45594000000E+02  0.51100000000E-03 0. -1.
    9900012    2    1    2    0    0  0.32599937027E+02  0.26389953130E+01 -0.30974074749E+02  0.46142317666E+02  0.99999991289E+01 0.  0.
        -12    1    1    2    0    0 -0.32599937027E+02 -0.26389953130E+01  0.30974074749E+02  0.45045682334E+02  0.00000000000E+00 0.  1.
         11    1    3    3    0    0  0.16236698875E+02  0.26849040233E+01 -0.13835961278E+02  0.21500533126E+02  0.51100000000E-03 0. -1.
        -11    1    3    3    0    0  0.70914136385E+01  0.30334334063E+01 -0.56490699129E+01  0.95604318294E+01  0.51100000000E-03 0.  1.
         12    1    3    3    0    0  0.92718245136E+01 -0.30793421166E+01 -0.11489043558E+02  0.15081352710E+02  0.00000000000E+00 0. -1.
</event>
<event>
 7    1  0.2001181E-008  0.4614232E+02  0.7816164E-02  0.1320468E+00
        -11   -1    0    0    0    0  0.00000000000E+00  0.00000000000E+00  0.45593999997E+02  0.45594000000E+02  0.51100000000E-03 0.  1.
         11   -1    0    0    0    0 -0.00000000000E+00 -0.00000000000E+00 -0.45593999997E+02  0.45594000000E+02  0.51100000000E-03 0. -1.
    9900012    2    1    2    0    0 -0.14802162969E+01 -0.37640306154E+02 -0.24700805529E+02  0.46142317838E+02  0.10000000701E+02 0.  0.
        -12    1    1    2    0    0  0.14802162969E+01  0.37640306154E+02  0.24700805529E+02  0.45045682162E+02  0.00000000000E+00 0.  1.
         11    1    3    3    0    0 -0.16561656428E+01 -0.11255239993E+02 -0.12553708959E+02  0.16941632767E+02  0.51100000000E-03 0. -1.
        -11    1    3    3    0    0  0.38589607058E+00 -0.85979649031E+01 -0.24877818673E+01  0.89589606056E+01  0.51100000000E-03 0.  1.
         12    1    3    3    0    0 -0.20994672466E+00 -0.17787101258E+02 -0.96593147030E+01  0.20241724465E+02  0.00000000000E+00 0. -1.
</event>
<event>
 7    1  0.2001181E-008  0.4614232E+02  0.7816164E-02  0.1320468E+00
        -11   -1    0    0    0    0  0.00000000000E+00  0.00000000000E+00  0.45593999997E+02  0.45594000000E+02  0.51100000000E-03 0.  1.
         11   -1    0    0    0    0 -0.00000000000E+00 -0.00000000000E+00 -0.45593999997E+02  0.45594000000E+02  0.51100000000E-03 0. -1.
    9900012    2    1    2    0    0 -0.22845846507E+02 -0.20832074208E+02 -0.32759815357E+02  0.46142317403E+02  0.99999967307E+01 0.  0.
        -12    1    1    2    0    0  0.22845846507E+02  0.20832074208E+02  0.32759815357E+02  0.45045682597E+02  0.00000000000E+00 0.  1.
         11    1    3    3    0    0 -0.72973976969E+01 -0.69728765670E+01 -0.71893286449E+01  0.12391911370E+02  0.51100000000E-03 0. -1.
        -11    1    3    3    0    0 -0.52409001216E+01 -0.89542747877E+01 -0.14658562142E+02  0.17958828342E+02  0.51100000000E-03 0.  1.
         12    1    3    3    0    0 -0.10307548689E+02 -0.49049228530E+01 -0.10911924570E+02  0.15791577691E+02  0.00000000000E+00 0. -1.
</event>
<event>
 7    1  0.2001181E-008  0.4614232E+02  0.7816164E-02  0.1320468E+00
        -11   -1    0    0    0    0  0.00000000000E+00  0.00000000000E+00  0.45593999997E+02  0.45594000000E+02  0.51100000000E-03 0. -1.
         11   -1    0    0    0    0 -0.00000000000E+00 -0.00000000000E+00 -0.45593999997E+02  0.45594000000E+02  0.51100000000E-03 0.  1.
    9900012    2    1    2    0    0 -0.13605888657E+02 -0.36010777587E+02  0.23392676309E+02  0.46142316372E+02  0.99999873374E+01 0.  0.
        -12    1    1    2    0    0  0.13605888657E+02  0.36010777587E+02 -0.23392676309E+02  0.45045683628E+02  0.00000000000E+00 0.  1.
         11    1    3    3    0    0 -0.10333072556E+02 -0.19099321317E+02  0.10556616297E+02  0.24145364174E+02  0.51100000000E-03 0. -1.
        -11    1    3    3    0    0  0.81786729375E+00 -0.23855344830E+01  0.66093659075E+00  0.26070134480E+01  0.51100000000E-03 0.  1.
         12    1    3    3    0    0 -0.40906833942E+01 -0.14525921787E+02  0.12175123422E+02  0.19389938750E+02  0.00000000000E+00 0. -1.
</event>
<event>
 7    1  0.2001181E-008  0.4614232E+02  0.7816164E-02  0.1320468E+00
        -11   -1    0    0    0    0  0.00000000000E+00  0.00000000000E+00  0.45593999997E+02  0.45594000000E+02  0.51100000000E-03 0. -1.
         11   -1    0    0    0    0 -0.00000000000E+00 -0.00000000000E+00 -0.45593999997E+02  0.45594000000E+02  0.51100000000E-03 0.  1.
    9900012    2    1    2    0    0  0.13831551067E+02 -0.21721183143E+01  0.42814525555E+02  0.46142317617E+02  0.99999986842E+01 0.  0.
        -12    1    1    2    0    0 -0.13831551067E+02  0.21721183143E+01 -0.42814525555E+02  0.45045682383E+02  0.00000000000E+00 0.  1.
         11    1    3    3    0    0  0.33203749510E+01 -0.14281360074E+01  0.23453342739E+02  0.23730228574E+02  0.51100000000E-03 0. -1.
        -11    1    3    3    0    0  0.16659463683E+00 -0.41585455055E+00 -0.11414333714E-01  0.44812869621E+00  0.51100000000E-03 0.  1.
         12    1    3    3    0    0  0.10344581479E+02 -0.32812775635E+00  0.19372597149E+02  0.21963960347E+02  0.00000000000E+00 0. -1.
</event>
<event>
 7    1  0.2001181E-008  0.4614232E+02  0.7816164E-02  0.1320468E+00
        -11   -1    0    0    0    0  0.00000000000E+00  0.00000000000E+00  0.45593999997E+02  0.45594000000E+02  0.51100000000E-03 0. -1.
         11   -1    0    0    0    0 -0.00000000000E+00 -0.00000000000E+00 -0.45593999997E+02  0.45594000000E+02  0.51100000000E-03 0.  1.
    9900012    2    1    2    0    0  0.35470683960E+01  0.41615791229E+02  0.16871802176E+02  0.46142317827E+02  0.10000000600E+02 0.  0.
        -12    1    1    2    0    0 -0.35470683960E+01 -0.41615791229E+02 -0.16871802176E+02  0.45045682173E+02  0.00000000000E+00 0.  1.
         11    1    3    3    0    0  0.55141988818E+01  0.19830185737E+02  0.94792929580E+01  0.22660530685E+02  0.51100000000E-03 0. -1.
        -11    1    3    3    0    0 -0.12864423287E+01  0.58971735011E+01  0.39410000603E+01  0.72085415240E+01  0.51100000000E-03 0.  1.
        -12    1    3    3    0    0 -0.68068815711E+00  0.15888431990E+02  0.34515091576E+01  0.16273245618E+02  0.00000000000E+00 0.  1.
</event>
<event>
 7    1  0.2001181E-008  0.4614232E+02  0.7816164E-02  0.1320468E+00
        -11   -1    0    0    0    0  0.00000000000E+00  0.00000000000E+00  0.45593999997E+02  0.45594000000E+02  0.51100000000E-03 0. -1.
         11   -1    0    0    0    0 -0.00000000000E+00 -0.00000000000E+00 -0.45593999997E+02  0.45594000000E+02  0.51100000000E-03 0.  1.
    9900012    2    1    2    0    0 -0.20470805063E+02 -0.39027986965E+02  0.93207013306E+01  0.46142322075E+02  0.10000039338E+02 0.  0.
        -12    1    1    2    0    0  0.20470805063E+02  0.39027986965E+02 -0.93207013306E+01  0.45045677925E+02  0.00000000000E+00 0.  1.
         11    1    3    3    0    0 -0.28308740547E+01 -0.53430534388E+01 -0.39159559487E+00  0.60593246600E+01  0.51100000000E-03 0.  1.
        -11    1    3    3    0    0 -0.17163793842E+02 -0.32753913790E+02  0.76367429364E+01  0.37758900018E+02  0.51100000000E-03 0. -1.
         12    1    3    3    0    0 -0.47613716583E+00 -0.93101973532E+00  0.20755539891E+01  0.23240973968E+01  0.00000000000E+00 0. -1.
</event>
<event>
 7    1  0.2001181E-008  0.4614232E+02  0.7816164E-02  0.1320468E+00
        -11   -1    0    0    0    0  0.00000000000E+00  0.00000000000E+00  0.45593999997E+02  0.45594000000E+02  0.51100000000E-03 0.  1.
         11   -1    0    0    0    0 -0.00000000000E+00 -0.00000000000E+00 -0.45593999997E+02  0.45594000000E+02  0.51100000000E-03 0. -1.
    9900012    2    1    2    0    0 -0.10940188597E+02  0.54963741305E+01 -0.43349919599E+02  0.46142318916E+02  0.10000010532E+02 0.  0.
        -12    1    1    2    0    0  0.10940188597E+02 -0.54963741305E+01  0.43349919599E+02  0.45045681084E+02  0.00000000000E+00 0.  1.
         11    1    3    3    0    0 -0.36491532552E+01  0.21602987340E+01 -0.10601204724E+02  0.11417913643E+02  0.51100000000E-03 0. -1.
        -11    1    3    3    0    0 -0.24666315881E+01  0.15746985159E+01 -0.19878149002E+01  0.35377047850E+01  0.51100000000E-03 0.  1.
        -12    1    3    3    0    0 -0.48244037533E+01  0.17613768806E+01 -0.30760899975E+02  0.31186700488E+02  0.00000000000E+00 0.  1.
</event>
<event>
 7    1  0.2001181E-008  0.4614232E+02  0.7816164E-02  0.1320468E+00
        -11   -1    0    0    0    0  0.00000000000E+00  0.00000000000E+00  0.45593999997E+02  0.45594000000E+02  0.51100000000E-03 0.  1.
         11   -1    0    0    0    0 -0.00000000000E+00 -0.00000000000E+00 -0.45593999997E+02  0.45594000000E+02  0.51100000000E-03 0. -1.
    9900012    2    1    2    0    0  0.12881491643E+02  0.39814995072E+02  0.16671735675E+02  0.46142318409E+02  0.10000005910E+02 0.  0.
        -12    1    1    2    0    0 -0.12881491643E+02 -0.39814995072E+02 -0.16671735675E+02  0.45045681591E+02  0.00000000000E+00 0.  1.
         11    1    3    3    0    0  0.23889764563E+01  0.72699513210E+01  0.46236129373E+00  0.76663667369E+01  0.51100000000E-03 0. -1.
        -11    1    3    3    0    0  0.11222392690E+02  0.31082179804E+02  0.14429001709E+02  0.36058842045E+02  0.51100000000E-03 0.  1.
        -12    1    3    3    0    0 -0.72987750287E+00  0.14628639469E+01  0.17803726721E+01  0.24171096268E+01  0.00000000000E+00 0.  1.
</event>
<event>
 7    1  0.2001181E-008  0.4614232E+02  0.7816164E-02  0.1320468E+00
        -11   -1    0    0    0    0  0.00000000000E+00  0.00000000000E+00  0.45593999997E+02  0.45594000000E+02  0.51100000000E-03 0.  1.
         11   -1    0    0    0    0 -0.00000000000E+00 -0.00000000000E+00 -0.45593999997E+02  0.45594000000E+02  0.51100000000E-03 0. -1.
    9900012    2    1    2    0    0  0.36664544015E+02 -0.28468140746E+01 -0.26013849046E+02  0.46142317850E+02  0.10000000807E+02 0.  0.
        -12    1    1    2    0    0 -0.36664544015E+02  0.28468140746E+01  0.26013849046E+02  0.45045682150E+02  0.00000000000E+00 0.  1.
         11    1    3    3    0    0  0.54295790884E+00 -0.81909652053E+00  0.37435339372E+00  0.10516002687E+01  0.51100000000E-03 0.  1.
        -11    1    3    3    0    0  0.20462037825E+02 -0.36589540978E+01 -0.14079865638E+02  0.25106285143E+02  0.51100000000E-03 0. -1.
         12    1    3    3    0    0  0.15659548282E+02  0.16312365437E+01 -0.12308336802E+02  0.19984432438E+02  0.00000000000E+00 0. -1.
</event>
<event>
 7    1  0.2001181E-008  0.4614232E+02  0.7816164E-02  0.1320468E+00
        -11   -1    0    0    0    0  0.00000000000E+00  0.00000000000E+00  0.45593999997E+02  0.45594000000E+02  0.51100000000E-03 0. -1.
         11   -1    0    0    0    0 -0.00000000000E+00 -0.00000000000E+00 -0.45593999997E+02  0.45594000000E+02  0.51100000000E-03 0.  1.
    9900012    2    1    2    0    0 -0.29082909528E+02 -0.24523567590E+02  0.24122448608E+02  0.46142317401E+02  0.99999967188E+01 0.  0.
        -12    1    1    2    0    0  0.29082909528E+02  0.24523567590E+02 -0.24122448608E+02  0.45045682599E+02  0.00000000000E+00 0.  1.
         11    1    3    3    0    0 -0.12167789048E+02 -0.10352738174E+02  0.10872780748E+02  0.19324896881E+02  0.51100000000E-03 0. -1.
        -11    1    3    3    0    0 -0.17094288650E+01 -0.25946627706E+01  0.52486073919E+01  0.60993689635E+01  0.51100000000E-03 0.  1.
        -12    1    3    3    0    0 -0.15205691614E+02 -0.11576166646E+02  0.80010604680E+01  0.20718051557E+02  0.00000000000E+00 0.  1.
</event>
<event>
 7    1  0.2001181E-008  0.4614232E+02  0.7816164E-02  0.1320468E+00
        -11   -1    0    0    0    0  0.00000000000E+00  0.00000000000E+00  0.45593999997E+02  0.45594000000E+02  0.51100000000E-03 0.  1.
         11   -1    0    0    0    0 -0.00000000000E+00 -0.00000000000E+00 -0.45593999997E+02  0.45594000000E+02  0.51100000000E-03 0. -1.
    9900012    2    1    2    0    0 -0.11256964441E+02  0.24681474336E+02 -0.35961352891E+02  0.46142319568E+02  0.10000016475E+02 0.  0.
        -12    1    1    2    0    0  0.11256964441E+02 -0.24681474336E+02  0.35961352891E+02  0.45045680432E+02  0.00000000000E+00 0.  1.
         11    1    3    3    0    0  0.40097255263E+00  0.40722160496E+01 -0.54119422118E+01  0.67847506445E+01  0.51100000000E-03 0. -1.
        -11    1    3    3    0    0 -0.31373217770E+00  0.39119297631E+01 -0.20342205956E+01  0.44203705776E+01  0.51100000000E-03 0.  1.
         12    1    3    3    0    0 -0.11344204816E+02  0.16697328524E+02 -0.28515190084E+02  0.34937198346E+02  0.00000000000E+00 0. -1.
</event>
<event>
 7    1  0.2001181E-008  0.4614232E+02  0.7816164E-02  0.1320468E+00
        -11   -1    0    0    0    0  0.00000000000E+00  0.00000000000E+00  0.45593999997E+02  0.45594000000E+02  0.51100000000E-03 0. -1.
         11   -1    0    0    0    0 -0.00000000000E+00 -0.00000000000E+00 -0.45593999997E+02  0.45594000000E+02  0.51100000000E-03 0.  1.
    9900012    2    1    2    0    0  0.42159504687E+02 -0.95810533910E+01 -0.12644882360E+02  0.46142317971E+02  0.10000001916E+02 0.  0.
        -12    1    1    2    0    0 -0.42159504687E+02  0.95810533910E+01  0.12644882360E+02  0.45045682029E+02  0.00000000000E+00 0.  1.
         11    1    3    3    0    0  0.26680128426E+01 -0.17153848169E+01 -0.16315086422E+01  0.35668835570E+01  0.51100000000E-03 0. -1.
        -11    1    3    3    0    0  0.66507767893E+01  0.12956621595E+01 -0.36438619073E+01  0.76934584027E+01  0.51100000000E-03 0.  1.
         12    1    3    3    0    0  0.32840715055E+02 -0.91613307337E+01 -0.73695118102E+01  0.34881976012E+02  0.00000000000E+00 0. -1.
</event>
<event>
 7    1  0.2001181E-008  0.4614232E+02  0.7816164E-02  0.1320468E+00
        -11   -1    0    0    0    0  0.00000000000E+00  0.00000000000E+00  0.45593999997E+02  0.45594000000E+02  0.51100000000E-03 0.  1.
         11   -1    0    0    0    0 -0.00000000000E+00 -0.00000000000E+00 -0.45593999997E+02  0.45594000000E+02  0.51100000000E-03 0. -1.
    9900012    2    1    2    0    0  0.15835506441E+02  0.15559517836E+02 -0.39195046217E+02  0.46142317549E+02  0.99999980614E+01 0.  0.
        -12    1    1    2    0    0 -0.15835506441E+02 -0.15559517836E+02  0.39195046217E+02  0.45045682451E+02  0.00000000000E+00 0.  1.
         11    1    3    3    0    0  0.98952557298E+01  0.79138939810E+01 -0.17318010780E+02  0.21458315440E+02  0.51100000000E-03 0. -1.
        -11    1    3    3    0    0  0.52148285694E+01  0.71072803117E+01 -0.12682423483E+02  0.15445120139E+02  0.51100000000E-03 0.  1.
        -12    1    3    3    0    0  0.72542214197E+00  0.53834354341E+00 -0.91946119540E+01  0.92388819691E+01  0.00000000000E+00 0.  1.
</event>
<event>
 7    1  0.2001181E-008  0.4614232E+02  0.7816164E-02  0.1320468E+00
        -11   -1    0    0    0    0  0.00000000000E+00  0.00000000000E+00  0.45593999997E+02  0.45594000000E+02  0.51100000000E-03 0.  1.
         11   -1    0    0    0    0 -0.00000000000E+00 -0.00000000000E+00 -0.45593999997E+02  0.45594000000E+02  0.51100000000E-03 0. -1.
    9900012    2    1    2    0    0 -0.78938960393E+01 -0.28624940294E+02 -0.33873480073E+02  0.46142318145E+02  0.10000003501E+02 0.  0.
        -12    1    1    2    0    0  0.78938960393E+01  0.28624940294E+02  0.33873480073E+02  0.45045681855E+02  0.00000000000E+00 0.  1.
         11    1    3    3    0    0 -0.28829939118E+01 -0.11202183550E+02 -0.10653834799E+02  0.15725926566E+02  0.51100000000E-03 0. -1.
        -11    1    3    3    0    0 -0.27054249884E+01 -0.11526160137E+02 -0.20172035205E+02  0.23389798983E+02  0.51100000000E-03 0.  1.
        -12    1    3    3    0    0 -0.23054771391E+01 -0.58965966063E+01 -0.30476100693E+01  0.70265925961E+01  0.00000000000E+00 0.  1.
</event>
<event>
 7    1  0.2001181E-008  0.4614232E+02  0.7816164E-02  0.1320468E+00
        -11   -1    0    0    0    0  0.00000000000E+00  0.00000000000E+00  0.45593999997E+02  0.45594000000E+02  0.51100000000E-03 0.  1.
         11   -1    0    0    0    0 -0.00000000000E+00 -0.00000000000E+00 -0.45593999997E+02  0.45594000000E+02  0.51100000000E-03 0. -1.
    9900012    2    1    2    0    0  0.29117022211E+02  0.19438384284E+02 -0.28345399453E+02  0.46142318341E+02  0.10000005285E+02 0.  0.
        -12    1    1    2    0    0 -0.29117022211E+02 -0.19438384284E+02  0.28345399453E+02  0.45045681659E+02  0.00000000000E+00 0.  1.
         11    1    3    3    0    0  0.68015114038E+00  0.26386462772E+00  0.42333436386E+00  0.84347042643E+00  0.51100000000E-03 0. -1.
        -11    1    3    3    0    0  0.51426572860E+00  0.69185216622E+00  0.34319365834E+00  0.92785279423E+00  0.51100000000E-03 0.  1.
         12    1    3    3    0    0  0.27922605342E+02  0.18482667490E+02 -0.29111927475E+02  0.44370995120E+02  0.00000000000E+00 0. -1.
</event>
<event>
 7    1  0.2001181E-008  0.4614233E+02  0.7816164E-02  0.1320468E+00
        -11   -1    0    0    0    0  0.00000000000E+00  0.00000000000E+00  0.45593999997E+02  0.45594000000E+02  0.51100000000E-03 0.  1.
         11   -1    0    0    0    0 -0.00000000000E+00 -0.00000000000E+00 -0.45593999997E+02  0.45594000000E+02  0.51100000000E-03 0. -1.
    9900012    2    1    2    0    0 -0.22907242062E+02 -0.35121721786E+02  0.16457087533E+02  0.46142325289E+02  0.10000068646E+02 0.  0.
        -12    1    1    2    0    0  0.22907242062E+02  0.35121721786E+02 -0.16457087533E+02  0.45045674711E+02  0.00000000000E+00 0.  1.
         11    1    3    3    0    0 -0.14400813209E+01 -0.51358116759E+00 -0.30097966800E+00  0.15582646913E+01  0.51100000000E-03 0. -1.
        -11    1    3    3    0    0 -0.11481888398E+02 -0.15453055616E+02  0.11225020188E+02  0.22285236538E+02  0.51100000000E-03 0.  1.
         12    1    3    3    0    0 -0.99852723426E+01 -0.19155085003E+02  0.55330470125E+01  0.22298824060E+02  0.00000000000E+00 0. -1.
</event>
<event>
 7    1  0.2001181E-008  0.4614232E+02  0.7816164E-02  0.1320468E+00
        -11   -1    0    0    0    0  0.00000000000E+00  0.00000000000E+00  0.45593999997E+02  0.45594000000E+02  0.51100000000E-03 0.  1.
         11   -1    0    0    0    0 -0.00000000000E+00 -0.00000000000E+00 -0.45593999997E+02  0.45594000000E+02  0.51100000000E-03 0. -1.
    9900012    2    1    2    0    0 -0.10755739863E+02 -0.31671624314E+02 -0.30171771280E+02  0.46142317534E+02  0.99999979258E+01 0.  0.
        -12    1    1    2    0    0  0.10755739863E+02  0.31671624314E+02  0.30171771280E+02  0.45045682466E+02  0.00000000000E+00 0.  1.
         11    1    3    3    0    0 -0.81652359654E+01 -0.17965353883E+02 -0.16576144630E+02  0.25771953546E+02  0.51100000000E-03 0. -1.
        -11    1    3    3    0    0 -0.22724392521E+01 -0.79454615501E+01 -0.11646192875E+02  0.14280341318E+02  0.51100000000E-03 0.  1.
         12    1    3    3    0    0 -0.31806464508E+00 -0.57608088810E+01 -0.19494337748E+01  0.60900226703E+01  0.00000000000E+00 0. -1.
</event>
<event>
 7    1  0.2001181E-008  0.4614232E+02  0.7816164E-02  0.1320468E+00
        -11   -1    0    0    0    0  0.00000000000E+00  0.00000000000E+00  0.45593999997E+02  0.45594000000E+02  0.51100000000E-03 0.  1.
         11   -1    0    0    0    0 -0.00000000000E+00 -0.00000000000E+00 -0.45593999997E+02  0.45594000000E+02  0.51100000000E-03 0. -1.
    9900012    2    1    2    0    0  0.25124314173E+01  0.36455477656E+01 -0.44827573985E+02  0.46142315195E+02  0.99999766043E+01 0.  0.
        -12    1    1    2    0    0 -0.25124314173E+01 -0.36455477656E+01  0.44827573985E+02  0.45045684805E+02  0.00000000000E+00 0.  1.
         11    1    3    3    0    0 -0.64157794854E+00  0.38247010291E+01 -0.13851354063E+02  0.14384017863E+02  0.51100000000E-03 0. -1.
        -11    1    3    3    0    0  0.35048653201E+01  0.20739570553E+01 -0.12616249205E+02  0.13257266802E+02  0.51100000000E-03 0.  1.
        -12    1    3    3    0    0 -0.35085595429E+00 -0.22531103188E+01 -0.18359970716E+02  0.18501030531E+02  0.00000000000E+00 0.  1.
</event>
<event>
 7    1  0.2001181E-008  0.4614232E+02  0.7816164E-02  0.1320468E+00
        -11   -1    0    0    0    0  0.00000000000E+00  0.00000000000E+00  0.45593999997E+02  0.45594000000E+02  0.51100000000E-03 0.  1.
         11   -1    0    0    0    0 -0.00000000000E+00 -0.00000000000E+00 -0.45593999997E+02  0.45594000000E+02  0.51100000000E-03 0. -1.
    9900012    2    1    2    0    0  0.13384637992E+02 -0.42984407878E+02 -0.15184313919E+01  0.46142317758E+02  0.99999999681E+01 0.  0.
        -12    1    1    2    0    0 -0.13384637992E+02  0.42984407878E+02  0.15184313919E+01  0.45045682242E+02  0.00000000000E+00 0.  1.
         11    1    3    3    0    0  0.51643431318E+01 -0.10232584316E+02 -0.20696447277E+01  0.11647302320E+02  0.51100000000E-03 0. -1.
        -11    1    3    3    0    0  0.71779275622E+01 -0.14487844441E+02 -0.43998792048E+00  0.16174482071E+02  0.51100000000E-03 0.  1.
         12    1    3    3    0    0  0.10423672976E+01 -0.18263979121E+02  0.99120125628E+00  0.18320533367E+02  0.00000000000E+00 0. -1.
</event>
<event>
 7    1  0.2001181E-008  0.4614232E+02  0.7816164E-02  0.1320468E+00
        -11   -1    0    0    0    0  0.00000000000E+00  0.00000000000E+00  0.45593999997E+02  0.45594000000E+02  0.51100000000E-03 0. -1.
         11   -1    0    0    0    0 -0.00000000000E+00 -0.00000000000E+00 -0.45593999997E+02  0.45594000000E+02  0.51100000000E-03 0.  1.
    9900012    2    1    2    0    0 -0.74817486790E+01  0.37222136964E+02  0.24241480776E+02  0.46142318368E+02  0.10000005538E+02 0.  0.
        -12    1    1    2    0    0  0.74817486790E+01 -0.37222136964E+02 -0.24241480776E+02  0.45045681632E+02  0.00000000000E+00 0.  1.
         11    1    3    3    0    0 -0.37770698201E+01  0.19905204667E+02  0.12816027039E+02  0.23973610045E+02  0.51100000000E-03 0.  1.
        -11    1    3    3    0    0 -0.48805579982E+01  0.12144621844E+02  0.10509871253E+02  0.16785978676E+02  0.51100000000E-03 0. -1.
        -12    1    3    3    0    0  0.11758791393E+01  0.51723104522E+01  0.91558248390E+00  0.53827296467E+01  0.00000000000E+00 0.  1.
</event>
<event>
 7    1  0.2001181E-008  0.4614232E+02  0.7816164E-02  0.1320468E+00
        -11   -1    0    0    0    0  0.00000000000E+00  0.00000000000E+00  0.45593999997E+02  0.45594000000E+02  0.51100000000E-03 0.  1.
         11   -1    0    0    0    0 -0.00000000000E+00 -0.00000000000E+00 -0.45593999997E+02  0.45594000000E+02  0.51100000000E-03 0. -1.
    9900012    2    1    2    0    0  0.30404377230E+02 -0.13588490864E+02 -0.30332165468E+02  0.46142317625E+02  0.99999987550E+01 0.  0.
        -12    1    1    2    0    0 -0.30404377230E+02  0.13588490864E+02  0.30332165468E+02  0.45045682375E+02  0.00000000000E+00 0.  1.
         11    1    3    3    0    0  0.16952945277E+02 -0.67452442200E+01 -0.11000204519E+02  0.21305050408E+02  0.51100000000E-03 0. -1.
        -11    1    3    3    0    0  0.25833175931E+01 -0.32251621747E+01 -0.54576682922E+01  0.68455346240E+01  0.51100000000E-03 0.  1.
        -12    1    3    3    0    0  0.10868114359E+02 -0.36180844694E+01 -0.13874292657E+02  0.17991732593E+02  0.00000000000E+00 0.  1.
</event>
<event>
 7    1  0.2001181E-008  0.4614232E+02  0.7816164E-02  0.1320468E+00
        -11   -1    0    0    0    0  0.00000000000E+00  0.00000000000E+00  0.45593999997E+02  0.45594000000E+02  0.51100000000E-03 0. -1.
         11   -1    0    0    0    0 -0.00000000000E+00 -0.00000000000E+00 -0.45593999997E+02  0.45594000000E+02  0.51100000000E-03 0.  1.
    9900012    2    1    2    0    0 -0.86119217111E+00  0.36035524336E+02  0.27015048514E+02  0.46142317495E+02  0.99999975759E+01 0.  0.
        -12    1    1    2    0    0  0.86119217111E+00 -0.36035524336E+02 -0.27015048514E+02  0.45045682505E+02  0.00000000000E+00 0.  1.
         11    1    3    3    0    0  0.19322156310E+01  0.12771601400E+02  0.80181351834E+01  0.15203215175E+02  0.51100000000E-03 0. -1.
        -11    1    3    3    0    0  0.16813777008E+01  0.80001453792E+01  0.89698747468E+01  0.12136227185E+02  0.51100000000E-03 0.  1.
         12    1    3    3    0    0 -0.44747855029E+01  0.15263777557E+02  0.10027038584E+02  0.18802875135E+02  0.00000000000E+00 0. -1.
</event>
<event>
 7    1  0.2001181E-008  0.4614232E+02  0.7816164E-02  0.1320468E+00
        -11   -1    0    0    0    0  0.00000000000E+00  0.00000000000E+00  0.45593999997E+02  0.45594000000E+02  0.51100000000E-03 0.  1.
         11   -1    0    0    0    0 -0.00000000000E+00 -0.00000000000E+00 -0.45593999997E+02  0.45594000000E+02  0.51100000000E-03 0. -1.
    9900012    2    1    2    0    0 -0.22300143588E+02  0.31283714204E+02  0.23519061311E+02  0.46142318482E+02  0.10000006577E+02 0.  0.
        -12    1    1    2    0    0  0.22300143588E+02 -0.31283714204E+02 -0.23519061311E+02  0.45045681518E+02  0.00000000000E+00 0.  1.
         11    1    3    3    0    0 -0.11534215092E+02  0.17262488399E+02  0.14613156416E+02  0.25388500629E+02  0.51100000000E-03 0. -1.
        -11    1    3    3    0    0 -0.16604395990E+01  0.10736839421E+01 -0.85847156839E+00  0.21556508447E+01  0.51100000000E-03 0.  1.
        -12    1    3    3    0    0 -0.91054888975E+01  0.12947541862E+02  0.97643764640E+01  0.18598167008E+02  0.00000000000E+00 0.  1.
</event>
<event>
 7    1  0.2001181E-008  0.4614232E+02  0.7816164E-02  0.1320468E+00
        -11   -1    0    0    0    0  0.00000000000E+00  0.00000000000E+00  0.45593999997E+02  0.45594000000E+02  0.51100000000E-03 0.  1.
         11   -1    0    0    0    0 -0.00000000000E+00 -0.00000000000E+00 -0.45593999997E+02  0.45594000000E+02  0.51100000000E-03 0. -1.
    9900012    2    1    2    0    0  0.13147632702E+00 -0.28904043765E+02 -0.34549275729E+02  0.46142317794E+02  0.10000000301E+02 0.  0.
        -12    1    1    2    0    0 -0.13147632702E+00  0.28904043765E+02  0.34549275729E+02  0.45045682206E+02  0.00000000000E+00 0.  1.
         11    1    3    3    0    0  0.25896304318E+01 -0.34547885281E+01 -0.29822499173E+01  0.52474340756E+01  0.51100000000E-03 0.  1.
        -11    1    3    3    0    0  0.59271655932E+00 -0.16878825501E+02 -0.21101193629E+02  0.27027882566E+02  0.51100000000E-03 0. -1.
        -12    1    3    3    0    0 -0.30508706641E+01 -0.85704297360E+01 -0.10465832183E+02  0.13867001152E+02  0.00000000000E+00 0.  1.
</event>
<event>
 7    1  0.2001181E-008  0.4614232E+02  0.7816164E-02  0.1320468E+00
        -11   -1    0    0    0    0  0.00000000000E+00  0.00000000000E+00  0.45593999997E+02  0.45594000000E+02  0.51100000000E-03 0. -1.
         11   -1    0    0    0    0 -0.00000000000E+00 -0.00000000000E+00 -0.45593999997E+02  0.45594000000E+02  0.51100000000E-03 0.  1.
    9900012    2    1    2    0    0  0.30855026512E+02 -0.25853333878E+02  0.20215984712E+02  0.46142316838E+02  0.99999915865E+01 0.  0.
        -12    1    1    2    0    0 -0.30855026512E+02  0.25853333878E+02 -0.20215984712E+02  0.45045683162E+02  0.00000000000E+00 0.  1.
         11    1    3    3    0    0  0.58154418173E-01 -0.12770037981E+01  0.24356728282E+01  0.27507495385E+01  0.51100000000E-03 0.  1.
        -11    1    3    3    0    0  0.19177527067E+02 -0.13031500078E+02  0.98176039476E+01  0.25179016784E+02  0.51100000000E-03 0. -1.
        -12    1    3    3    0    0  0.11619345026E+02 -0.11544830002E+02  0.79627079359E+01  0.18212550516E+02  0.00000000000E+00 0.  1.
</event>
<event>
 7    1  0.2001181E-008  0.4614232E+02  0.7816164E-02  0.1320468E+00
        -11   -1    0    0    0    0  0.00000000000E+00  0.00000000000E+00  0.45593999997E+02  0.45594000000E+02  0.51100000000E-03 0.  1.
         11   -1    0    0    0    0 -0.00000000000E+00 -0.00000000000E+00 -0.45593999997E+02  0.45594000000E+02  0.51100000000E-03 0. -1.
    9900012    2    1    2    0    0 -0.19510580661E+02  0.11063061217E+02 -0.39064810267E+02  0.46142317827E+02  0.10000000600E+02 0.  0.
        -12    1    1    2    0    0  0.19510580661E+02 -0.11063061217E+02  0.39064810267E+02  0.45045682173E+02  0.00000000000E+00 0.  1.
         11    1    3    3    0    0 -0.24542583580E+01  0.46223884661E+01 -0.93492601316E+01  0.10714407333E+02  0.51100000000E-03 0. -1.
        -11    1    3    3    0    0 -0.50737598996E+01 -0.40066234434E+00 -0.50768963432E+01  0.71887722577E+01  0.51100000000E-03 0.  1.
        -12    1    3    3    0    0 -0.11982562404E+02  0.68413350951E+01 -0.24638653792E+02  0.28239138237E+02  0.00000000000E+00 0.  1.
</event>
<event>
 7    1  0.2001181E-008  0.4614232E+02  0.7816164E-02  0.1320468E+00
        -11   -1    0    0    0    0  0.00000000000E+00  0.00000000000E+00  0.45593999997E+02  0.45594000000E+02  0.51100000000E-03 0.  1.
         11   -1    0    0    0    0 -0.00000000000E+00 -0.00000000000E+00 -0.45593999997E+02  0.45594000000E+02  0.51100000000E-03 0. -1.
    9900012    2    1    2    0    0  0.31177700716E+02  0.18447298455E+02 -0.26772404885E+02  0.46142317570E+02  0.99999982608E+01 0.  0.
        -12    1    1    2    0    0 -0.31177700716E+02 -0.18447298455E+02  0.26772404885E+02  0.45045682430E+02  0.00000000000E+00 0.  1.
         11    1    3    3    0    0  0.84245383094E+01  0.18320733041E+01 -0.64783831573E+01  0.10784191528E+02  0.51100000000E-03 0. -1.
        -11    1    3    3    0    0  0.67073953287E+01  0.57805570529E+01 -0.28620163220E+01  0.93056504140E+01  0.51100000000E-03 0.  1.
         12    1    3    3    0    0  0.16045767078E+02  0.10834668098E+02 -0.17432005405E+02  0.26052475628E+02  0.00000000000E+00 0. -1.
</event>
<event>
 7    1  0.2001181E-008  0.4614232E+02  0.7816164E-02  0.1320468E+00
        -11   -1    0    0    0    0  0.00000000000E+00  0.00000000000E+00  0.45593999997E+02  0.45594000000E+02  0.51100000000E-03 0.  1.
         11   -1    0    0    0    0 -0.00000000000E+00 -0.00000000000E+00 -0.45593999997E+02  0.45594000000E+02  0.51100000000E-03 0. -1.
    9900012    2    1    2    0    0  0.94889259198E+01  0.10407458278E+02 -0.42787364206E+02  0.46142318313E+02  0.10000005033E+02 0.  0.
        -12    1    1    2    0    0 -0.94889259198E+01 -0.10407458278E+02  0.42787364206E+02  0.45045681687E+02  0.00000000000E+00 0.  1.
         11    1    3    3    0    0  0.21505860873E+00 -0.26306471541E-01  0.71196898895E-01  0.22806028845E+00  0.51100000000E-03 0. -1.
        -11    1    3    3    0    0  0.27480725047E+01 -0.88810228037E+00 -0.13071477682E+02  0.13386715698E+02  0.51100000000E-03 0.  1.
         12    1    3    3    0    0  0.65257948064E+01  0.11321867029E+02 -0.29787083424E+02  0.32527542326E+02  0.00000000000E+00 0. -1.
</event>
<event>
 7    1  0.2001181E-008  0.4614232E+02  0.7816164E-02  0.1320468E+00
        -11   -1    0    0    0    0  0.00000000000E+00  0.00000000000E+00  0.45593999997E+02  0.45594000000E+02  0.51100000000E-03 0. -1.
         11   -1    0    0    0    0 -0.00000000000E+00 -0.00000000000E+00 -0.45593999997E+02  0.45594000000E+02  0.51100000000E-03 0.  1.
    9900012    2    1    2    0    0  0.16926268491E+02 -0.38883694717E+02  0.15187931501E+02  0.46142317153E+02  0.99999944529E+01 0.  0.
        -12    1    1    2    0    0 -0.16926268491E+02  0.38883694717E+02 -0.15187931501E+02  0.45045682847E+02  0.00000000000E+00 0.  1.
         11    1    3    3    0    0  0.17033446870E+02 -0.34705966588E+02  0.15918021005E+02  0.41809398729E+02  0.51100000000E-03 0. -1.
        -11    1    3    3    0    0 -0.44955304757E+00 -0.19058333187E+01 -0.51866363600E+00  0.20256630543E+01  0.51100000000E-03 0.  1.
         12    1    3    3    0    0  0.34237466788E+00 -0.22718948107E+01 -0.21142586750E+00  0.23072553698E+01  0.00000000000E+00 0. -1.
</event>
<event>
 7    1  0.2001181E-008  0.4614232E+02  0.7816164E-02  0.1320468E+00
        -11   -1    0    0    0    0  0.00000000000E+00  0.00000000000E+00  0.45593999997E+02  0.45594000000E+02  0.51100000000E-03 0.  1.
         11   -1    0    0    0    0 -0.00000000000E+00 -0.00000000000E+00 -0.45593999997E+02  0.45594000000E+02  0.51100000000E-03 0. -1.
    9900012    2    1    2    0    0  0.43753086489E+02  0.71004251122E+01 -0.80227742138E+01  0.46142317408E+02  0.99999967787E+01 0.  0.
        -12    1    1    2    0    0 -0.43753086489E+02 -0.71004251122E+01  0.80227742138E+01  0.45045682592E+02  0.00000000000E+00 0.  1.
         11    1    3    3    0    0  0.39786468044E+02  0.54151950000E+01 -0.78092291774E+01  0.40905640649E+02  0.51100000000E-03 0. -1.
        -11    1    3    3    0    0  0.18127409686E+01 -0.15705991975E+00  0.10856494827E+01  0.21188045446E+01  0.51100000000E-03 0.  1.
         12    1    3    3    0    0  0.21538774769E+01  0.18422900319E+01 -0.12991945191E+01  0.31178722145E+01  0.00000000000E+00 0. -1.
</event>
<event>
 7    1  0.2001181E-008  0.4614232E+02  0.7816164E-02  0.1320468E+00
        -11   -1    0    0    0    0  0.00000000000E+00  0.00000000000E+00  0.45593999997E+02  0.45594000000E+02  0.51100000000E-03 0.  1.
         11   -1    0    0    0    0 -0.00000000000E+00 -0.00000000000E+00 -0.45593999997E+02  0.45594000000E+02  0.51100000000E-03 0. -1.
    9900012    2    1    2    0    0  0.66427422389E+01  0.35773295782E+02 -0.26556707607E+02  0.46142318360E+02  0.10000005457E+02 0.  0.
        -12    1    1    2    0    0 -0.66427422389E+01 -0.35773295782E+02  0.26556707607E+02  0.45045681640E+02  0.00000000000E+00 0.  1.
         11    1    3    3    0    0  0.55026871104E+01  0.15586096785E+02 -0.82002085911E+01  0.18451270949E+02  0.51100000000E-03 0. -1.
        -11    1    3    3    0    0  0.22843293170E+01  0.50676393540E+01 -0.45305715387E+01  0.71711371329E+01  0.51100000000E-03 0.  1.
        -12    1    3    3    0    0 -0.11442741885E+01  0.15119559643E+02 -0.13825927477E+02  0.20519910278E+02  0.00000000000E+00 0.  1.
</event>
<event>
 7    1  0.2001181E-008  0.4614232E+02  0.7816164E-02  0.1320468E+00
        -11   -1    0    0    0    0  0.00000000000E+00  0.00000000000E+00  0.45593999997E+02  0.45594000000E+02  0.51100000000E-03 0. -1.
         11   -1    0    0    0    0 -0.00000000000E+00 -0.00000000000E+00 -0.45593999997E+02  0.45594000000E+02  0.51100000000E-03 0.  1.
    9900012    2    1    2    0    0  0.31040567981E+02 -0.14080178063E+02  0.29450723901E+02  0.46142318596E+02  0.10000007612E+02 0.  0.
        -12    1    1    2    0    0 -0.31040567981E+02  0.14080178063E+02 -0.29450723901E+02  0.45045681404E+02  0.00000000000E+00 0.  1.
         11    1    3    3    0    0  0.74031312968E+01 -0.46082352868E+01  0.33298044783E+01  0.93343335907E+01  0.51100000000E-03 0. -1.
        -11    1    3    3    0    0  0.84829678175E+01 -0.10041323364E+01  0.94728272829E+01  0.12755527497E+02  0.51100000000E-03 0.  1.
         12    1    3    3    0    0  0.15154468867E+02 -0.84678104403E+01  0.16648092140E+02  0.24052457508E+02  0.00000000000E+00 0. -1.
</event>
<event>
 7    1  0.2001181E-008  0.4614232E+02  0.7816164E-02  0.1320468E+00
        -11   -1    0    0    0    0  0.00000000000E+00  0.00000000000E+00  0.45593999997E+02  0.45594000000E+02  0.51100000000E-03 0.  1.
         11   -1    0    0    0    0 -0.00000000000E+00 -0.00000000000E+00 -0.45593999997E+02  0.45594000000E+02  0.51100000000E-03 0. -1.
    9900012    2    1    2    0    0  0.28744565597E+02  0.42629221568E+01 -0.34419340444E+02  0.46142317041E+02  0.99999934338E+01 0.  0.
        -12    1    1    2    0    0 -0.28744565597E+02 -0.42629221568E+01  0.34419340444E+02  0.45045682959E+02  0.00000000000E+00 0.  1.
         11    1    3    3    0    0  0.31000776102E+01 -0.16575785504E+01 -0.54779530950E+01  0.65089183596E+01  0.51100000000E-03 0. -1.
        -11    1    3    3    0    0  0.12117654560E+02  0.49654833714E+01 -0.10743074761E+02  0.16938336186E+02  0.51100000000E-03 0.  1.
         12    1    3    3    0    0  0.13526833426E+02  0.95501733575E+00 -0.18198312587E+02  0.22695062496E+02  0.00000000000E+00 0. -1.
</event>
<event>
 7    1  0.2001181E-008  0.4614232E+02  0.7816164E-02  0.1320468E+00
        -11   -1    0    0    0    0  0.00000000000E+00  0.00000000000E+00  0.45593999997E+02  0.45594000000E+02  0.51100000000E-03 0.  1.
         11   -1    0    0    0    0 -0.00000000000E+00 -0.00000000000E+00 -0.45593999997E+02  0.45594000000E+02  0.51100000000E-03 0. -1.
    9900012    2    1    2    0    0  0.12115817488E+02 -0.27962991677E+02 -0.33172148817E+02  0.46142318808E+02  0.10000009548E+02 0.  0.
        -12    1    1    2    0    0 -0.12115817488E+02  0.27962991677E+02  0.33172148817E+02  0.45045681192E+02  0.00000000000E+00 0.  1.
         11    1    3    3    0    0  0.91603818477E+01 -0.11355614487E+02 -0.16937128417E+02  0.22354616866E+02  0.51100000000E-03 0. -1.
        -11    1    3    3    0    0  0.26245733739E+00 -0.19229825603E+01 -0.32117539574E+00  0.19672060586E+01  0.51100000000E-03 0.  1.
        -12    1    3    3    0    0  0.26929783031E+01 -0.14684394630E+02 -0.15913845004E+02  0.21820495883E+02  0.00000000000E+00 0.  1.
</event>
<event>
 7    1  0.2001181E-008  0.4614232E+02  0.7816164E-02  0.1320468E+00
        -11   -1    0    0    0    0  0.00000000000E+00  0.00000000000E+00  0.45593999997E+02  0.45594000000E+02  0.51100000000E-03 0.  1.
         11   -1    0    0    0    0 -0.00000000000E+00 -0.00000000000E+00 -0.45593999997E+02  0.45594000000E+02  0.51100000000E-03 0. -1.
    9900012    2    1    2    0    0 -0.35602457765E+01  0.18897059642E+02 -0.40734989110E+02  0.46142317067E+02  0.99999936689E+01 0.  0.
        -12    1    1    2    0    0  0.35602457765E+01 -0.18897059642E+02  0.40734989110E+02  0.45045682933E+02  0.00000000000E+00 0.  1.
         11    1    3    3    0    0  0.91314813777E+00  0.28328108842E+01 -0.88399939698E+01  0.93276015500E+01  0.51100000000E-03 0. -1.
        -11    1    3    3    0    0 -0.43146266707E+01  0.15952777271E+02 -0.25314071171E+02  0.30230932925E+02  0.51100000000E-03 0.  1.
        -12    1    3    3    0    0 -0.15876724358E+00  0.11147148617E+00 -0.65809239695E+01  0.65837825922E+01  0.00000000000E+00 0.  1.
</event>
<event>
 7    1  0.2001181E-008  0.4614232E+02  0.7816164E-02  0.1320468E+00
        -11   -1    0    0    0    0  0.00000000000E+00  0.00000000000E+00  0.45593999997E+02  0.45594000000E+02  0.51100000000E-03 0.  1.
         11   -1    0    0    0    0 -0.00000000000E+00 -0.00000000000E+00 -0.45593999997E+02  0.45594000000E+02  0.51100000000E-03 0. -1.
    9900012    2    1    2    0    0 -0.10699855000E+02  0.48945820893E+00 -0.43753706142E+02  0.46142320213E+02  0.10000022357E+02 0.  0.
        -12    1    1    2    0    0  0.10699855000E+02 -0.48945820893E+00  0.43753706142E+02  0.45045679787E+02  0.00000000000E+00 0.  1.
         11    1    3    3    0    0  0.61787936890E+00  0.23264650127E+00 -0.10290448960E+02  0.10311607021E+02  0.51100000000E-03 0. -1.
        -11    1    3    3    0    0 -0.47604683042E+01 -0.28489753187E+01 -0.14985908207E+02  0.15979867455E+02  0.51100000000E-03 0.  1.
        -12    1    3    3    0    0 -0.65572660649E+01  0.31057870264E+01 -0.18477348975E+02  0.19850845736E+02  0.00000000000E+00 0.  1.
</event>
<event>
 7    1  0.2001181E-008  0.4614232E+02  0.7816164E-02  0.1320468E+00
        -11   -1    0    0    0    0  0.00000000000E+00  0.00000000000E+00  0.45593999997E+02  0.45594000000E+02  0.51100000000E-03 0.  1.
         11   -1    0    0    0    0 -0.00000000000E+00 -0.00000000000E+00 -0.45593999997E+02  0.45594000000E+02  0.51100000000E-03 0. -1.
    9900012    2    1    2    0    0 -0.17843021764E+02  0.28928601630E+02 -0.29561395119E+02  0.46142317640E+02  0.99999988922E+01 0.  0.
        -12    1    1    2    0    0  0.17843021764E+02 -0.28928601630E+02  0.29561395119E+02  0.45045682360E+02  0.00000000000E+00 0.  1.
         11    1    3    3    0    0 -0.12143869106E+02  0.16367417043E+02 -0.18574959566E+02  0.27575261026E+02  0.51100000000E-03 0. -1.
        -11    1    3    3    0    0 -0.53547582935E+01  0.12347099784E+02 -0.82177265458E+01  0.15768809064E+02  0.51100000000E-03 0.  1.
        -12    1    3    3    0    0 -0.34439436456E+00  0.21408480286E+00 -0.27687090072E+01  0.27982475494E+01  0.00000000000E+00 0.  1.
</event>
<event>
 7    1  0.2001181E-008  0.4614232E+02  0.7816164E-02  0.1320468E+00
        -11   -1    0    0    0    0  0.00000000000E+00  0.00000000000E+00  0.45593999997E+02  0.45594000000E+02  0.51100000000E-03 0.  1.
         11   -1    0    0    0    0 -0.00000000000E+00 -0.00000000000E+00 -0.45593999997E+02  0.45594000000E+02  0.51100000000E-03 0. -1.
    9900012    2    1    2    0    0  0.12677231208E+02  0.40281276311E+02 -0.15678648707E+02  0.46142318324E+02  0.10000005134E+02 0.  0.
        -12    1    1    2    0    0 -0.12677231208E+02 -0.40281276311E+02  0.15678648707E+02  0.45045681676E+02  0.00000000000E+00 0.  1.
         11    1    3    3    0    0  0.12265030228E+02  0.30325005874E+02 -0.10622661753E+02  0.34392991884E+02  0.51100000000E-03 0. -1.
        -11    1    3    3    0    0 -0.52738985187E-02  0.25503886872E+01 -0.32203338518E+01  0.41079265631E+01  0.51100000000E-03 0.  1.
         12    1    3    3    0    0  0.41747487924E+00  0.74058817503E+01 -0.18356531020E+01  0.76413998773E+01  0.00000000000E+00 0. -1.
</event>
<event>
 7    1  0.2001181E-008  0.4614232E+02  0.7816164E-02  0.1320468E+00
        -11   -1    0    0    0    0  0.00000000000E+00  0.00000000000E+00  0.45593999997E+02  0.45594000000E+02  0.51100000000E-03 0. -1.
         11   -1    0    0    0    0 -0.00000000000E+00 -0.00000000000E+00 -0.45593999997E+02  0.45594000000E+02  0.51100000000E-03 0.  1.
    9900012    2    1    2    0    0  0.27668099232E+02 -0.27716206878E+02 -0.22257618075E+02  0.46142318729E+02  0.10000008828E+02 0.  0.
        -12    1    1    2    0    0 -0.27668099232E+02  0.27716206878E+02  0.22257618075E+02  0.45045681271E+02  0.00000000000E+00 0.  1.
         11    1    3    3    0    0  0.25097163558E+02 -0.20571196220E+02 -0.19632395962E+02  0.37927202692E+02  0.51100000000E-03 0. -1.
        -11    1    3    3    0    0  0.25740713704E+01 -0.53409217341E+01 -0.16038032531E+01  0.61419437905E+01  0.51100000000E-03 0.  1.
         12    1    3    3    0    0 -0.31356966380E-02 -0.18040889242E+01 -0.10214188594E+01  0.20731722469E+01  0.00000000000E+00 0. -1.
</event>
<event>
 7    1  0.2001181E-008  0.4614232E+02  0.7816164E-02  0.1320468E+00
        -11   -1    0    0    0    0  0.00000000000E+00  0.00000000000E+00  0.45593999997E+02  0.45594000000E+02  0.51100000000E-03 0.  1.
         11   -1    0    0    0    0 -0.00000000000E+00 -0.00000000000E+00 -0.45593999997E+02  0.45594000000E+02  0.51100000000E-03 0. -1.
    9900012    2    1    2    0    0  0.19332942855E+02 -0.16096701335E+02 -0.37366388712E+02  0.46142317869E+02  0.10000000981E+02 0.  0.
        -12    1    1    2    0    0 -0.19332942855E+02  0.16096701335E+02  0.37366388712E+02  0.45045682131E+02  0.00000000000E+00 0.  1.
         11    1    3    3    0    0  0.37523917870E+01 -0.31878341166E+01 -0.55152620748E+01  0.73932974033E+01  0.51100000000E-03 0. -1.
        -11    1    3    3    0    0  0.31014045577E+01  0.91409062724E+00 -0.68462074597E+01  0.75713161833E+01  0.51100000000E-03 0.  1.
        -12    1    3    3    0    0  0.12479146510E+02 -0.13822957846E+02 -0.25004919177E+02  0.31177704282E+02  0.00000000000E+00 0.  1.
</event>
<event>
 7    1  0.2001181E-008  0.4614232E+02  0.7816164E-02  0.1320468E+00
        -11   -1    0    0    0    0  0.00000000000E+00  0.00000000000E+00  0.45593999997E+02  0.45594000000E+02  0.51100000000E-03 0.  1.
         11   -1    0    0    0    0 -0.00000000000E+00 -0.00000000000E+00 -0.45593999997E+02  0.45594000000E+02  0.51100000000E-03 0. -1.
    9900012    2    1    2    0    0 -0.23626418960E+02 -0.28720141907E+02  0.25417696143E+02  0.46142317618E+02  0.99999986941E+01 0.  0.
        -12    1    1    2    0    0  0.23626418960E+02  0.28720141907E+02 -0.25417696143E+02  0.45045682382E+02  0.00000000000E+00 0.  1.
         11    1    3    3    0    0  0.24263407221E+00 -0.13068699076E-01  0.63048410541E+00  0.67568672636E+00  0.51100000000E-03 0.  1.
        -11    1    3    3    0    0 -0.21992376430E+02 -0.28614048079E+02  0.22592994296E+02  0.42577831791E+02  0.51100000000E-03 0. -1.
         12    1    3    3    0    0 -0.18766766024E+01 -0.93025128989E-01  0.21942177419E+01  0.28887991006E+01  0.00000000000E+00 0. -1.
</event>
<event>
 7    1  0.2001181E-008  0.4614232E+02  0.7816164E-02  0.1320468E+00
        -11   -1    0    0    0    0  0.00000000000E+00  0.00000000000E+00  0.45593999997E+02  0.45594000000E+02  0.51100000000E-03 0. -1.
         11   -1    0    0    0    0 -0.00000000000E+00 -0.00000000000E+00 -0.45593999997E+02  0.45594000000E+02  0.51100000000E-03 0.  1.
    9900012    2    1    2    0    0  0.38519595371E+02  0.17668962516E+02  0.15269641003E+02  0.46142318739E+02  0.10000008917E+02 0.  0.
        -12    1    1    2    0    0 -0.38519595371E+02 -0.17668962516E+02 -0.15269641003E+02  0.45045681261E+02  0.00000000000E+00 0.  1.
         11    1    3    3    0    0  0.16076966991E+02  0.40174307018E+01  0.68436874260E+01  0.17928878239E+02  0.51100000000E-03 0. -1.
        -11    1    3    3    0    0  0.15140826196E+02  0.67243433062E+01  0.32015389842E+01  0.16873389195E+02  0.51100000000E-03 0.  1.
        -12    1    3    3    0    0  0.73018021837E+01  0.69271885084E+01  0.52244145928E+01  0.11340051305E+02  0.00000000000E+00 0.  1.
</event>
<event>
 7    1  0.2001181E-008  0.4614232E+02  0.7816164E-02  0.1320468E+00
        -11   -1    0    0    0    0  0.00000000000E+00  0.00000000000E+00  0.45593999997E+02  0.45594000000E+02  0.51100000000E-03 0.  1.
         11   -1    0    0    0    0 -0.00000000000E+00 -0.00000000000E+00 -0.45593999997E+02  0.45594000000E+02  0.51100000000E-03 0. -1.
    9900012    2    1    2    0    0 -0.41156576240E+02 -0.71489573135E+01 -0.16856514887E+02  0.46142318158E+02  0.10000003623E+02 0.  0.
        -12    1    1    2    0    0  0.41156576240E+02  0.71489573135E+01  0.16856514887E+02  0.45045681842E+02  0.00000000000E+00 0.  1.
         11    1    3    3    0    0 -0.20937849308E+02 -0.42830851542E+01 -0.10788507983E+02  0.23940139031E+02  0.51100000000E-03 0. -1.
        -11    1    3    3    0    0 -0.14900929062E+01 -0.18409437054E+01 -0.17770165363E+01  0.29609523176E+01  0.51100000000E-03 0.  1.
         12    1    3    3    0    0 -0.18728634026E+02 -0.10249284539E+01 -0.42909903675E+01  0.19241226810E+02  0.00000000000E+00 0. -1.
</event>
<event>
 7    1  0.2001181E-008  0.4614232E+02  0.7816164E-02  0.1320468E+00
        -11   -1    0    0    0    0  0.00000000000E+00  0.00000000000E+00  0.45593999997E+02  0.45594000000E+02  0.51100000000E-03 0. -1.
         11   -1    0    0    0    0 -0.00000000000E+00 -0.00000000000E+00 -0.45593999997E+02  0.45594000000E+02  0.51100000000E-03 0.  1.
    9900012    2    1    2    0    0  0.41742943248E+02  0.13649096094E+02  0.10017101533E+02  0.46142318095E+02  0.10000003042E+02 0.  0.
        -12    1    1    2    0    0 -0.41742943248E+02 -0.13649096094E+02 -0.10017101533E+02  0.45045681905E+02  0.00000000000E+00 0.  1.
         11    1    3    3    0    0  0.27406012218E+02  0.11221888243E+02  0.59059260395E+01  0.30197686072E+02  0.51100000000E-03 0. -1.
        -11    1    3    3    0    0  0.31016577099E+01 -0.96251121501E+00 -0.59327764644E+00  0.33013159520E+01  0.51100000000E-03 0.  1.
        -12    1    3    3    0    0  0.11235273320E+02  0.33897190667E+01  0.47044531404E+01  0.12643316071E+02  0.00000000000E+00 0.  1.
</event>
<event>
 7    1  0.2001181E-008  0.4614232E+02  0.7816164E-02  0.1320468E+00
        -11   -1    0    0    0    0  0.00000000000E+00  0.00000000000E+00  0.45593999997E+02  0.45594000000E+02  0.51100000000E-03 0.  1.
         11   -1    0    0    0    0 -0.00000000000E+00 -0.00000000000E+00 -0.45593999997E+02  0.45594000000E+02  0.51100000000E-03 0. -1.
    9900012    2    1    2    0    0  0.25125230489E+02  0.31511345071E+02 -0.20121416652E+02  0.46142317817E+02  0.10000000506E+02 0.  0.
        -12    1    1    2    0    0 -0.25125230489E+02 -0.31511345071E+02  0.20121416652E+02  0.45045682183E+02  0.00000000000E+00 0.  1.
         11    1    3    3    0    0  0.13893938912E+02  0.11395821632E+02 -0.92562759573E+01  0.20213483966E+02  0.51100000000E-03 0. -1.
        -11    1    3    3    0    0  0.62561127992E+01  0.65333589445E+01 -0.35238431193E+01  0.97077905336E+01  0.51100000000E-03 0.  1.
        -12    1    3    3    0    0  0.49751787774E+01  0.13582164494E+02 -0.73412975752E+01  0.16221043317E+02  0.00000000000E+00 0.  1.
</event>
<event>
 7    1  0.2001181E-008  0.4614232E+02  0.7816164E-02  0.1320468E+00
        -11   -1    0    0    0    0  0.00000000000E+00  0.00000000000E+00  0.45593999997E+02  0.45594000000E+02  0.51100000000E-03 0.  1.
         11   -1    0    0    0    0 -0.00000000000E+00 -0.00000000000E+00 -0.45593999997E+02  0.45594000000E+02  0.51100000000E-03 0. -1.
    9900012    2    1    2    0    0  0.44393897211E+02  0.69621681170E+01 -0.31342849373E+01  0.46142316116E+02  0.99999849998E+01 0.  0.
        -12    1    1    2    0    0 -0.44393897211E+02 -0.69621681170E+01  0.31342849373E+01  0.45045683884E+02  0.00000000000E+00 0.  1.
         11    1    3    3    0    0  0.12668340950E+02  0.18251300871E+01 -0.42383453982E+01  0.13482638252E+02  0.51100000000E-03 0. -1.
        -11    1    3    3    0    0  0.29831935285E+02  0.56086957100E+01 -0.12230811198E+00  0.30354847882E+02  0.51100000000E-03 0.  1.
         12    1    3    3    0    0  0.18936209763E+01 -0.47165768006E+00  0.12263685729E+01  0.23048299819E+01  0.00000000000E+00 0. -1.
</event>
<event>
 7    1  0.2001181E-008  0.4614232E+02  0.7816164E-02  0.1320468E+00
        -11   -1    0    0    0    0  0.00000000000E+00  0.00000000000E+00  0.45593999997E+02  0.45594000000E+02  0.51100000000E-03 0.  1.
         11   -1    0    0    0    0 -0.00000000000E+00 -0.00000000000E+00 -0.45593999997E+02  0.45594000000E+02  0.51100000000E-03 0. -1.
    9900012    2    1    2    0    0 -0.26748240219E+02 -0.31668674324E+02 -0.17627825261E+02  0.46142317502E+02  0.99999976371E+01 0.  0.
        -12    1    1    2    0    0  0.26748240219E+02  0.31668674324E+02  0.17627825261E+02  0.45045682498E+02  0.00000000000E+00 0.  1.
         11    1    3    3    0    0  0.55979952522E-01  0.31969919860E+00  0.46364965797E-01  0.32785866443E+00  0.51100000000E-03 0. -1.
        -11    1    3    3    0    0 -0.24533688306E+01 -0.55545648376E+01 -0.85099764182E+00  0.61315908540E+01  0.51100000000E-03 0.  1.
         12    1    3    3    0    0 -0.24350851341E+02 -0.26433808685E+02 -0.16823192585E+02  0.39682867984E+02  0.00000000000E+00 0. -1.
</event>
<event>
 7    1  0.2001181E-008  0.4614232E+02  0.7816164E-02  0.1320468E+00
        -11   -1    0    0    0    0  0.00000000000E+00  0.00000000000E+00  0.45593999997E+02  0.45594000000E+02  0.51100000000E-03 0. -1.
         11   -1    0    0    0    0 -0.00000000000E+00 -0.00000000000E+00 -0.45593999997E+02  0.45594000000E+02  0.51100000000E-03 0.  1.
    9900012    2    1    2    0    0 -0.33528021630E+02  0.15630384424E+02  0.25703625345E+02  0.46142317548E+02  0.99999980593E+01 0.  0.
        -12    1    1    2    0    0  0.33528021630E+02 -0.15630384424E+02 -0.25703625345E+02  0.45045682452E+02  0.00000000000E+00 0.  1.
         11    1    3    3    0    0 -0.62576534160E+01  0.32100831302E+01  0.34825645839E+01  0.78480007849E+01  0.51100000000E-03 0. -1.
        -11    1    3    3    0    0 -0.85121836161E+01  0.84432235572E+01  0.92720773042E+01  0.15156408273E+02  0.51100000000E-03 0.  1.
        -12    1    3    3    0    0 -0.18758184598E+02  0.39770777370E+01  0.12948983457E+02  0.23137908490E+02  0.00000000000E+00 0.  1.
</event>
<event>
 7    1  0.2001181E-008  0.4614232E+02  0.7816164E-02  0.1320468E+00
        -11   -1    0    0    0    0  0.00000000000E+00  0.00000000000E+00  0.45593999997E+02  0.45594000000E+02  0.51100000000E-03 0.  1.
         11   -1    0    0    0    0 -0.00000000000E+00 -0.00000000000E+00 -0.45593999997E+02  0.45594000000E+02  0.51100000000E-03 0. -1.
    9900012    2    1    2    0    0  0.39636177549E+00  0.14242298475E+02 -0.42733047642E+02  0.46142317308E+02  0.99999958637E+01 0.  0.
        -12    1    1    2    0    0 -0.39636177549E+00 -0.14242298475E+02  0.42733047642E+02  0.45045682692E+02  0.00000000000E+00 0.  1.
         11    1    3    3    0    0  0.24241586326E+01  0.31079068977E+01 -0.17868803463E+02  0.18298354238E+02  0.51100000000E-03 0. -1.
        -11    1    3    3    0    0  0.42093850418E+00 -0.49182775062E+00 -0.14372067331E+01  0.15762763766E+01  0.51100000000E-03 0.  1.
        -12    1    3    3    0    0 -0.24487353613E+01  0.11626219328E+02 -0.23427037445E+02  0.26267686693E+02  0.00000000000E+00 0.  1.
</event>
<event>
 7    1  0.2001181E-008  0.4614232E+02  0.7816164E-02  0.1320468E+00
        -11   -1    0    0    0    0  0.00000000000E+00  0.00000000000E+00  0.45593999997E+02  0.45594000000E+02  0.51100000000E-03 0. -1.
         11   -1    0    0    0    0 -0.00000000000E+00 -0.00000000000E+00 -0.45593999997E+02  0.45594000000E+02  0.51100000000E-03 0.  1.
    9900012    2    1    2    0    0 -0.29232778326E+02  0.15303768784E+02  0.30665171534E+02  0.46142318599E+02  0.10000007642E+02 0.  0.
        -12    1    1    2    0    0  0.29232778326E+02 -0.15303768784E+02 -0.30665171534E+02  0.45045681401E+02  0.00000000000E+00 0.  1.
         11    1    3    3    0    0 -0.21136040961E+02  0.76413143557E+01  0.21923400065E+02  0.31396773453E+02  0.51100000000E-03 0. -1.
        -11    1    3    3    0    0 -0.50587293518E+01  0.30710724455E+01  0.25046090913E+01  0.64261415781E+01  0.51100000000E-03 0.  1.
         12    1    3    3    0    0 -0.30380080128E+01  0.45913819829E+01  0.62371623779E+01  0.83194035680E+01  0.00000000000E+00 0. -1.
</event>
<event>
 7    1  0.2001181E-008  0.4614232E+02  0.7816164E-02  0.1320468E+00
        -11   -1    0    0    0    0  0.00000000000E+00  0.00000000000E+00  0.45593999997E+02  0.45594000000E+02  0.51100000000E-03 0.  1.
         11   -1    0    0    0    0 -0.00000000000E+00 -0.00000000000E+00 -0.45593999997E+02  0.45594000000E+02  0.51100000000E-03 0. -1.
    9900012    2    1    2    0    0  0.55704449143E+01 -0.99264638894E+00 -0.44688906759E+02  0.46142316625E+02  0.99999896373E+01 0.  0.
        -12    1    1    2    0    0 -0.55704449143E+01  0.99264638894E+00  0.44688906759E+02  0.45045683375E+02  0.00000000000E+00 0.  1.
         11    1    3    3    0    0  0.40256784994E+00  0.13703315707E+01 -0.75744173761E+01  0.77078964923E+01  0.51100000000E-03 0. -1.
        -11    1    3    3    0    0 -0.91245969352E-01  0.24100467466E+01 -0.15407611143E+02  0.15595227877E+02  0.51100000000E-03 0.  1.
        -12    1    3    3    0    0  0.52591230338E+01 -0.47730247062E+01 -0.21706878241E+02  0.22839192256E+02  0.00000000000E+00 0.  1.
</event>
<event>
 7    1  0.2001181E-008  0.4614232E+02  0.7816164E-02  0.1320468E+00
        -11   -1    0    0    0    0  0.00000000000E+00  0.00000000000E+00  0.45593999997E+02  0.45594000000E+02  0.51100000000E-03 0.  1.
         11   -1    0    0    0    0 -0.00000000000E+00 -0.00000000000E+00 -0.45593999997E+02  0.45594000000E+02  0.51100000000E-03 0. -1.
    9900012    2    1    2    0    0 -0.27035862485E+02  0.31977376276E+02 -0.16601902452E+02  0.46142316313E+02  0.99999867963E+01 0.  0.
        -12    1    1    2    0    0  0.27035862485E+02 -0.31977376276E+02  0.16601902452E+02  0.45045683687E+02  0.00000000000E+00 0.  1.
         11    1    3    3    0    0 -0.78695002479E+01  0.96949658816E+01 -0.30497528102E+01  0.12853886185E+02  0.51100000000E-03 0. -1.
        -11    1    3    3    0    0 -0.34507773337E+01  0.55729161487E+00 -0.24439031675E+01  0.42651027074E+01  0.51100000000E-03 0.  1.
         12    1    3    3    0    0 -0.15715584903E+02  0.21725118779E+02 -0.11108246474E+02  0.29023327421E+02  0.00000000000E+00 0. -1.
</event>
<event>
 7    1  0.2001181E-008  0.4614232E+02  0.7816164E-02  0.1320468E+00
        -11   -1    0    0    0    0  0.00000000000E+00  0.00000000000E+00  0.45593999997E+02  0.45594000000E+02  0.51100000000E-03 0. -1.
         11   -1    0    0    0    0 -0.00000000000E+00 -0.00000000000E+00 -0.45593999997E+02  0.45594000000E+02  0.51100000000E-03 0.  1.
    9900012    2    1    2    0    0 -0.36313448105E+02 -0.16253708257E+02  0.21124953154E+02  0.46142321060E+02  0.10000030086E+02 0.  0.
        -12    1    1    2    0    0  0.36313448105E+02  0.16253708257E+02 -0.21124953154E+02  0.45045678940E+02  0.00000000000E+00 0.  1.
         11    1    3    3    0    0 -0.31934639837E+01 -0.14826672489E+00 -0.32593699540E+00  0.32134763766E+01  0.51100000000E-03 0. -1.
        -11    1    3    3    0    0 -0.17833678520E+02 -0.63997834790E+01  0.91682610028E+01  0.21048855746E+02  0.51100000000E-03 0.  1.
         12    1    3    3    0    0 -0.15286305601E+02 -0.97056580529E+01  0.12282629146E+02  0.21879988938E+02  0.00000000000E+00 0. -1.
</event>
<event>
 7    1  0.2001181E-008  0.4614232E+02  0.7816164E-02  0.1320468E+00
        -11   -1    0    0    0    0  0.00000000000E+00  0.00000000000E+00  0.45593999997E+02  0.45594000000E+02  0.51100000000E-03 0.  1.
         11   -1    0    0    0    0 -0.00000000000E+00 -0.00000000000E+00 -0.45593999997E+02  0.45594000000E+02  0.51100000000E-03 0. -1.
    9900012    2    1    2    0    0  0.81305081214E+01  0.27310945379E+00 -0.44305006506E+02  0.46142319268E+02  0.10000013745E+02 0.  0.
        -12    1    1    2    0    0 -0.81305081214E+01 -0.27310945379E+00  0.44305006506E+02  0.45045680732E+02  0.00000000000E+00 0.  1.
         11    1    3    3    0    0  0.34495685729E-01  0.29772637187E+01 -0.14867454460E+02  0.15162667693E+02  0.51100000000E-03 0.  1.
        -11    1    3    3    0    0  0.20819357944E+01  0.48158964487E+00 -0.13225543738E+02  0.13397066569E+02  0.51100000000E-03 0. -1.
        -12    1    3    3    0    0  0.60140766413E+01 -0.31857439098E+01 -0.16212008309E+02  0.17582585006E+02  0.00000000000E+00 0.  1.
</event>
<event>
 7    1  0.2001181E-008  0.4614232E+02  0.7816164E-02  0.1320468E+00
        -11   -1    0    0    0    0  0.00000000000E+00  0.00000000000E+00  0.45593999997E+02  0.45594000000E+02  0.51100000000E-03 0.  1.
         11   -1    0    0    0    0 -0.00000000000E+00 -0.00000000000E+00 -0.45593999997E+02  0.45594000000E+02  0.51100000000E-03 0. -1.
    9900012    2    1    2    0    0 -0.22661992858E+02 -0.31715398012E+02 -0.22576118384E+02  0.46142317492E+02  0.99999975434E+01 0.  0.
        -12    1    1    2    0    0  0.22661992858E+02  0.31715398012E+02  0.22576118384E+02  0.45045682508E+02  0.00000000000E+00 0.  1.
         11    1    3    3    0    0 -0.67867918645E+01 -0.61694132176E+01 -0.96625054723E+01  0.13322395262E+02  0.51100000000E-03 0.  1.
        -11    1    3    3    0    0 -0.64738540419E+01 -0.87019364077E+01 -0.54274689510E+01  0.12128145071E+02  0.51100000000E-03 0. -1.
        -12    1    3    3    0    0 -0.94013469514E+01 -0.16844048387E+02 -0.74861439608E+01  0.20691777158E+02  0.00000000000E+00 0.  1.
</event>
<event>
 7    1  0.2001181E-008  0.4614232E+02  0.7816164E-02  0.1320468E+00
        -11   -1    0    0    0    0  0.00000000000E+00  0.00000000000E+00  0.45593999997E+02  0.45594000000E+02  0.51100000000E-03 0. -1.
         11   -1    0    0    0    0 -0.00000000000E+00 -0.00000000000E+00 -0.45593999997E+02  0.45594000000E+02  0.51100000000E-03 0.  1.
    9900012    2    1    2    0    0 -0.28961842706E+02  0.32188325325E+02  0.12419211936E+02  0.46142318240E+02  0.10000004362E+02 0.  0.
        -12    1    1    2    0    0  0.28961842706E+02 -0.32188325325E+02 -0.12419211936E+02  0.45045681760E+02  0.00000000000E+00 0.  1.
         11    1    3    3    0    0  0.54097342227E+00  0.94227886359E+00  0.12474896309E+00  0.10936655180E+01  0.51100000000E-03 0.  1.
        -11    1    3    3    0    0 -0.15391436170E+02  0.13958737793E+02  0.83185863091E+01  0.22381723494E+02  0.51100000000E-03 0. -1.
         12    1    3    3    0    0 -0.14111379959E+02  0.17287308669E+02  0.39758766633E+01  0.22666929227E+02  0.00000000000E+00 0. -1.
</event>
<event>
 7    1  0.2001181E-008  0.4614232E+02  0.7816164E-02  0.1320468E+00
        -11   -1    0    0    0    0  0.00000000000E+00  0.00000000000E+00  0.45593999997E+02  0.45594000000E+02  0.51100000000E-03 0.  1.
         11   -1    0    0    0    0 -0.00000000000E+00 -0.00000000000E+00 -0.45593999997E+02  0.45594000000E+02  0.51100000000E-03 0. -1.
    9900012    2    1    2    0    0 -0.81104763830E+01  0.29881979963E+02 -0.32716977507E+02  0.46142321285E+02  0.10000032138E+02 0.  0.
        -12    1    1    2    0    0  0.81104763830E+01 -0.29881979963E+02  0.32716977507E+02  0.45045678715E+02  0.00000000000E+00 0.  1.
         11    1    3    3    0    0 -0.43026854442E+01  0.18575038141E+02 -0.16764742691E+02  0.25389008285E+02  0.51100000000E-03 0.  1.
        -11    1    3    3    0    0 -0.15860799104E+01  0.64411053935E+01 -0.42276089377E+01  0.78661404618E+01  0.51100000000E-03 0. -1.
        -12    1    3    3    0    0 -0.22217110284E+01  0.48658364284E+01 -0.11724625878E+02  0.12887172538E+02  0.00000000000E+00 0.  1.
</event>
<event>
 7    1  0.2001181E-008  0.4614232E+02  0.7816164E-02  0.1320468E+00
        -11   -1    0    0    0    0  0.00000000000E+00  0.00000000000E+00  0.45593999997E+02  0.45594000000E+02  0.51100000000E-03 0.  1.
         11   -1    0    0    0    0 -0.00000000000E+00 -0.00000000000E+00 -0.45593999997E+02  0.45594000000E+02  0.51100000000E-03 0. -1.
    9900012    2    1    2    0    0 -0.15829159379E+02  0.35920569790E+02 -0.22096694282E+02  0.46142317422E+02  0.99999969085E+01 0.  0.
        -12    1    1    2    0    0  0.15829159379E+02 -0.35920569790E+02  0.22096694282E+02  0.45045682578E+02  0.00000000000E+00 0.  1.
         11    1    3    3    0    0 -0.14601014152E+02  0.29001482586E+02 -0.21795991129E+02  0.39106787595E+02  0.51100000000E-03 0. -1.
        -11    1    3    3    0    0 -0.35287035847E+00  0.15986321951E+01 -0.63694206029E-01  0.16383527087E+01  0.51100000000E-03 0.  1.
         12    1    3    3    0    0 -0.87527486844E+00  0.53204550096E+01 -0.23700894666E+00  0.53971771182E+01  0.00000000000E+00 0. -1.
</event>
<event>
 7    1  0.2001181E-008  0.4614232E+02  0.7816164E-02  0.1320468E+00
        -11   -1    0    0    0    0  0.00000000000E+00  0.00000000000E+00  0.45593999997E+02  0.45594000000E+02  0.51100000000E-03 0. -1.
         11   -1    0    0    0    0 -0.00000000000E+00 -0.00000000000E+00 -0.45593999997E+02  0.45594000000E+02  0.51100000000E-03 0.  1.
    9900012    2    1    2    0    0  0.20570649578E+02  0.80268871418E+00  0.40066415699E+02  0.46142316520E+02  0.99999886844E+01 0.  0.
        -12    1    1    2    0    0 -0.20570649578E+02 -0.80268871418E+00 -0.40066415699E+02  0.45045683480E+02  0.00000000000E+00 0.  1.
         11    1    3    3    0    0  0.92102827474E+01 -0.38929736721E+01  0.19063547041E+02  0.21526806042E+02  0.51100000000E-03 0. -1.
        -11    1    3    3    0    0  0.43215222874E+01  0.25772888912E+01  0.54768790299E+01  0.74373501382E+01  0.51100000000E-03 0.  1.
         12    1    3    3    0    0  0.70388445429E+01  0.21183734951E+01  0.15525989628E+02  0.17178160340E+02  0.00000000000E+00 0. -1.
</event>
<event>
 7    1  0.2001181E-008  0.4614232E+02  0.7816164E-02  0.1320468E+00
        -11   -1    0    0    0    0  0.00000000000E+00  0.00000000000E+00  0.45593999997E+02  0.45594000000E+02  0.51100000000E-03 0.  1.
         11   -1    0    0    0    0 -0.00000000000E+00 -0.00000000000E+00 -0.45593999997E+02  0.45594000000E+02  0.51100000000E-03 0. -1.
    9900012    2    1    2    0    0 -0.20175840131E+02  0.55170859644E+01 -0.39894996540E+02  0.46142317505E+02  0.99999976651E+01 0.  0.
        -12    1    1    2    0    0  0.20175840131E+02 -0.55170859644E+01  0.39894996540E+02  0.45045682495E+02  0.00000000000E+00 0.  1.
         11    1    3    3    0    0 -0.15403549727E+02  0.35934216652E+01 -0.30933087300E+02  0.34742451175E+02  0.51100000000E-03 0. -1.
        -11    1    3    3    0    0 -0.23178767392E+01  0.18265441651E+01 -0.83674816076E+01  0.88726300993E+01  0.51100000000E-03 0.  1.
        -12    1    3    3    0    0 -0.24544136647E+01  0.97120134041E-01 -0.59442763230E+00  0.25272362311E+01  0.00000000000E+00 0.  1.
</event>
<event>
 7    1  0.2001181E-008  0.4614232E+02  0.7816164E-02  0.1320468E+00
        -11   -1    0    0    0    0  0.00000000000E+00  0.00000000000E+00  0.45593999997E+02  0.45594000000E+02  0.51100000000E-03 0.  1.
         11   -1    0    0    0    0 -0.00000000000E+00 -0.00000000000E+00 -0.45593999997E+02  0.45594000000E+02  0.51100000000E-03 0. -1.
    9900012    2    1    2    0    0  0.25854207473E+02 -0.17313738954E+02 -0.32571582000E+02  0.46142317026E+02  0.99999932969E+01 0.  0.
        -12    1    1    2    0    0 -0.25854207473E+02  0.17313738954E+02  0.32571582000E+02  0.45045682974E+02  0.00000000000E+00 0.  1.
         11    1    3    3    0    0  0.91138463698E+01 -0.66387534140E+01 -0.78753598974E+01  0.13753419077E+02  0.51100000000E-03 0. -1.
        -11    1    3    3    0    0  0.11777851944E+02 -0.36255239124E+01 -0.15053681205E+02  0.19454447773E+02  0.51100000000E-03 0.  1.
        -12    1    3    3    0    0  0.49625091589E+01 -0.70494616280E+01 -0.96425408972E+01  0.12934450176E+02  0.00000000000E+00 0.  1.
</event>
<event>
 7    1  0.2001181E-008  0.4614232E+02  0.7816164E-02  0.1320468E+00
        -11   -1    0    0    0    0  0.00000000000E+00  0.00000000000E+00  0.45593999997E+02  0.45594000000E+02  0.51100000000E-03 0.  1.
         11   -1    0    0    0    0 -0.00000000000E+00 -0.00000000000E+00 -0.45593999997E+02  0.45594000000E+02  0.51100000000E-03 0. -1.
    9900012    2    1    2    0    0  0.28001875572E+02 -0.22371292644E+02 -0.27286145058E+02  0.46142317829E+02  0.10000000618E+02 0.  0.
        -12    1    1    2    0    0 -0.28001875572E+02  0.22371292644E+02  0.27286145058E+02  0.45045682171E+02  0.00000000000E+00 0.  1.
         11    1    3    3    0    0  0.15234901339E+02 -0.80136865554E+01 -0.16010801474E+02  0.23508873965E+02  0.51100000000E-03 0. -1.
        -11    1    3    3    0    0 -0.27710700310E+00 -0.14798151439E+00 -0.32940922070E+00  0.45518953807E+00  0.51100000000E-03 0.  1.
         12    1    3    3    0    0  0.13044081236E+02 -0.14209624574E+02 -0.10945934364E+02  0.22178254326E+02  0.00000000000E+00 0. -1.
</event>
<event>
 7    1  0.2001181E-008  0.4614232E+02  0.7816164E-02  0.1320468E+00
        -11   -1    0    0    0    0  0.00000000000E+00  0.00000000000E+00  0.45593999997E+02  0.45594000000E+02  0.51100000000E-03 0. -1.
         11   -1    0    0    0    0 -0.00000000000E+00 -0.00000000000E+00 -0.45593999997E+02  0.45594000000E+02  0.51100000000E-03 0.  1.
    9900012    2    1    2    0    0  0.17803001299E+02 -0.17141731609E+02  0.37660690910E+02  0.46142318102E+02  0.10000003109E+02 0.  0.
        -12    1    1    2    0    0 -0.17803001299E+02  0.17141731609E+02 -0.37660690910E+02  0.45045681898E+02  0.00000000000E+00 0.  1.
         11    1    3    3    0    0  0.34058076946E+01 -0.53706921095E+01  0.57431254226E+01  0.85689759988E+01  0.51100000000E-03 0. -1.
        -11    1    3    3    0    0  0.28618046993E+01  0.58488249112E+00  0.47671280783E+01  0.55908428739E+01  0.51100000000E-03 0.  1.
         12    1    3    3    0    0  0.11535388905E+02 -0.12355921991E+02  0.27150437409E+02  0.31982499229E+02  0.00000000000E+00 0. -1.
</event>
<event>
 7    1  0.2001181E-008  0.4614232E+02  0.7816164E-02  0.1320468E+00
        -11   -1    0    0    0    0  0.00000000000E+00  0.00000000000E+00  0.45593999997E+02  0.45594000000E+02  0.51100000000E-03 0.  1.
         11   -1    0    0    0    0 -0.00000000000E+00 -0.00000000000E+00 -0.45593999997E+02  0.45594000000E+02  0.51100000000E-03 0. -1.
    9900012    2    1    2    0    0 -0.95348616456E+01  0.92015281590E+01 -0.43052663170E+02  0.46142317487E+02  0.99999975000E+01 0.  0.
        -12    1    1    2    0    0  0.95348616456E+01 -0.92015281590E+01  0.43052663170E+02  0.45045682513E+02  0.00000000000E+00 0.  1.
         11    1    3    3    0    0 -0.64977894653E+01  0.18649344461E+00 -0.15330911562E+02  0.16652113899E+02  0.51100000000E-03 0. -1.
        -11    1    3    3    0    0 -0.30469669120E+01  0.49014707722E+01 -0.18797214718E+02  0.19663257729E+02  0.51100000000E-03 0.  1.
        -12    1    3    3    0    0  0.98947316679E-02  0.41135639423E+01 -0.89245368901E+01  0.98269458590E+01  0.00000000000E+00 0.  1.
</event>
<event>
 7    1  0.2001181E-008  0.4614232E+02  0.7816164E-02  0.1320468E+00
        -11   -1    0    0    0    0  0.00000000000E+00  0.00000000000E+00  0.45593999997E+02  0.45594000000E+02  0.51100000000E-03 0.  1.
         11   -1    0    0    0    0 -0.00000000000E+00 -0.00000000000E+00 -0.45593999997E+02  0.45594000000E+02  0.51100000000E-03 0. -1.
    9900012    2    1    2    0    0  0.22961927237E+02  0.35086878895E+02 -0.16455221260E+02  0.46142317857E+02  0.10000000873E+02 0.  0.
        -12    1    1    2    0    0 -0.22961927237E+02 -0.35086878895E+02  0.16455221260E+02  0.45045682143E+02  0.00000000000E+00 0.  1.
         11    1    3    3    0    0  0.14131856085E+02  0.19996890505E+02 -0.13290276055E+02  0.27860660871E+02  0.51100000000E-03 0. -1.
        -11    1    3    3    0    0  0.92430350077E+00  0.35131067960E+01 -0.21613737271E+01  0.42270312242E+01  0.51100000000E-03 0.  1.
        -12    1    3    3    0    0  0.79057676516E+01  0.11576881593E+02 -0.10035714778E+01  0.14054625762E+02  0.00000000000E+00 0.  1.
</event>
<event>
 7    1  0.2001181E-008  0.4614232E+02  0.7816164E-02  0.1320468E+00
        -11   -1    0    0    0    0  0.00000000000E+00  0.00000000000E+00  0.45593999997E+02  0.45594000000E+02  0.51100000000E-03 0. -1.
         11   -1    0    0    0    0 -0.00000000000E+00 -0.00000000000E+00 -0.45593999997E+02  0.45594000000E+02  0.51100000000E-03 0.  1.
    9900012    2    1    2    0    0  0.40717519618E+02  0.16892314187E+02  0.92653556504E+01  0.46142317657E+02  0.99999990520E+01 0.  0.
        -12    1    1    2    0    0 -0.40717519618E+02 -0.16892314187E+02 -0.92653556504E+01  0.45045682343E+02  0.00000000000E+00 0.  1.
         11    1    3    3    0    0  0.22731830123E+01  0.28924994121E+01  0.23475213400E+01  0.43640314572E+01  0.51100000000E-03 0. -1.
        -11    1    3    3    0    0  0.17203654536E+02  0.37074284322E+01  0.29526798145E+01  0.17844581063E+02  0.51100000000E-03 0.  1.
         12    1    3    3    0    0  0.21240682070E+02  0.10292386342E+02  0.39651544958E+01  0.23933705137E+02  0.00000000000E+00 0. -1.
</event>
<event>
 7    1  0.2001181E-008  0.4614232E+02  0.7816164E-02  0.1320468E+00
        -11   -1    0    0    0    0  0.00000000000E+00  0.00000000000E+00  0.45593999997E+02  0.45594000000E+02  0.51100000000E-03 0. -1.
         11   -1    0    0    0    0 -0.00000000000E+00 -0.00000000000E+00 -0.45593999997E+02  0.45594000000E+02  0.51100000000E-03 0.  1.
    9900012    2    1    2    0    0  0.38013512860E+02  0.16595100543E+02 -0.17569541824E+02  0.46142319609E+02  0.10000016846E+02 0.  0.
        -12    1    1    2    0    0 -0.38013512860E+02 -0.16595100543E+02  0.17569541824E+02  0.45045680391E+02  0.00000000000E+00 0.  1.
         11    1    3    3    0    0  0.13395653572E+02  0.89200723466E+01 -0.76125810135E+01  0.17803443915E+02  0.51100000000E-03 0. -1.
        -11    1    3    3    0    0  0.13841675988E+02  0.64228210979E+01 -0.82811556960E+01  0.17361513901E+02  0.51100000000E-03 0.  1.
         12    1    3    3    0    0  0.10776183300E+02  0.12522070986E+01 -0.16758051149E+01  0.10977361793E+02  0.00000000000E+00 0. -1.
</event>
<event>
 7    1  0.2001181E-008  0.4614232E+02  0.7816164E-02  0.1320468E+00
        -11   -1    0    0    0    0  0.00000000000E+00  0.00000000000E+00  0.45593999997E+02  0.45594000000E+02  0.51100000000E-03 0.  1.
         11   -1    0    0    0    0 -0.00000000000E+00 -0.00000000000E+00 -0.45593999997E+02  0.45594000000E+02  0.51100000000E-03 0. -1.
    9900012    2    1    2    0    0 -0.40565040003E+02  0.18765363305E+02  0.56082209961E+01  0.46142317930E+02  0.10000001536E+02 0.  0.
        -12    1    1    2    0    0  0.40565040003E+02 -0.18765363305E+02 -0.56082209961E+01  0.45045682070E+02  0.00000000000E+00 0.  1.
         11    1    3    3    0    0 -0.16643885200E+02  0.95918117210E+01  0.64722802104E+01  0.20270968848E+02  0.51100000000E-03 0. -1.
        -11    1    3    3    0    0 -0.15595047860E+02  0.58530003271E+01 -0.22236948093E+01  0.16804997752E+02  0.51100000000E-03 0.  1.
         12    1    3    3    0    0 -0.83261069437E+01  0.33205512569E+01  0.13596355951E+01  0.90663513300E+01  0.00000000000E+00 0. -1.
</event>
<event>
 7    1  0.2001181E-008  0.4614232E+02  0.7816164E-02  0.1320468E+00
        -11   -1    0    0    0    0  0.00000000000E+00  0.00000000000E+00  0.45593999997E+02  0.45594000000E+02  0.51100000000E-03 0.  1.
         11   -1    0    0    0    0 -0.00000000000E+00 -0.00000000000E+00 -0.45593999997E+02  0.45594000000E+02  0.51100000000E-03 0. -1.
    9900012    2    1    2    0    0  0.13288019180E+02 -0.40955465559E+02 -0.13236009811E+02  0.46142316871E+02  0.99999918809E+01 0.  0.
        -12    1    1    2    0    0 -0.13288019180E+02  0.40955465559E+02  0.13236009811E+02  0.45045683129E+02  0.00000000000E+00 0.  1.
         11    1    3    3    0    0  0.28410757123E+01 -0.36704385148E+01  0.17989410641E+00  0.46450180026E+01  0.51100000000E-03 0. -1.
        -11    1    3    3    0    0  0.24911032154E+01 -0.20222177692E+02 -0.57587659667E+01  0.21173224874E+02  0.51100000000E-03 0.  1.
         12    1    3    3    0    0  0.79558402523E+01 -0.17062849352E+02 -0.76571379511E+01  0.20324073994E+02  0.00000000000E+00 0. -1.
</event>
<event>
 7    1  0.2001181E-008  0.4614232E+02  0.7816164E-02  0.1320468E+00
        -11   -1    0    0    0    0  0.00000000000E+00  0.00000000000E+00  0.45593999997E+02  0.45594000000E+02  0.51100000000E-03 0. -1.
         11   -1    0    0    0    0 -0.00000000000E+00 -0.00000000000E+00 -0.45593999997E+02  0.45594000000E+02  0.51100000000E-03 0.  1.
    9900012    2    1    2    0    0 -0.16338138645E+02  0.35403130919E+02  0.22556530300E+02  0.46142317493E+02  0.99999975592E+01 0.  0.
        -12    1    1    2    0    0  0.16338138645E+02 -0.35403130919E+02 -0.22556530300E+02  0.45045682507E+02  0.00000000000E+00 0.  1.
         11    1    3    3    0    0 -0.41800227983E+01  0.69355088410E+01  0.22184778872E+01  0.83961609010E+01  0.51100000000E-03 0. -1.
        -11    1    3    3    0    0 -0.19880861347E+01  0.67350345479E+01  0.13580575728E+01  0.71524469570E+01  0.51100000000E-03 0.  1.
         12    1    3    3    0    0 -0.10170029712E+02  0.21732587531E+02  0.18979994840E+02  0.30593709635E+02  0.00000000000E+00 0. -1.
</event>
<event>
 7    1  0.2001181E-008  0.4614232E+02  0.7816164E-02  0.1320468E+00
        -11   -1    0    0    0    0  0.00000000000E+00  0.00000000000E+00  0.45593999997E+02  0.45594000000E+02  0.51100000000E-03 0. -1.
         11   -1    0    0    0    0 -0.00000000000E+00 -0.00000000000E+00 -0.45593999997E+02  0.45594000000E+02  0.51100000000E-03 0.  1.
    9900012    2    1    2    0    0 -0.42874495181E+02  0.12056947189E+02  0.67469364642E+01  0.46142318029E+02  0.10000002444E+02 0.  0.
        -12    1    1    2    0    0  0.42874495181E+02 -0.12056947189E+02 -0.67469364642E+01  0.45045681971E+02  0.00000000000E+00 0.  1.
         11    1    3    3    0    0 -0.62996141651E+01  0.17432181781E+01 -0.49672233817E+00  0.65552026352E+01  0.51100000000E-03 0. -1.
        -11    1    3    3    0    0 -0.36920225191E+01  0.46513810717E-01  0.32297768586E+01  0.49055736294E+01  0.51100000000E-03 0.  1.
        -12    1    3    3    0    0 -0.32882858497E+02  0.10267215201E+02  0.40138819438E+01  0.34681541764E+02  0.00000000000E+00 0.  1.
</event>
<event>
 7    1  0.2001181E-008  0.4614232E+02  0.7816164E-02  0.1320468E+00
        -11   -1    0    0    0    0  0.00000000000E+00  0.00000000000E+00  0.45593999997E+02  0.45594000000E+02  0.51100000000E-03 0.  1.
         11   -1    0    0    0    0 -0.00000000000E+00 -0.00000000000E+00 -0.45593999997E+02  0.45594000000E+02  0.51100000000E-03 0. -1.
    9900012    2    1    2    0    0 -0.54848913304E+01  0.26303699733E+02  0.36154456942E+02  0.46142318638E+02  0.10000008000E+02 0.  0.
        -12    1    1    2    0    0  0.54848913304E+01 -0.26303699733E+02 -0.36154456942E+02  0.45045681362E+02  0.00000000000E+00 0.  1.
         11    1    3    3    0    0 -0.48160650826E+01  0.12509154810E+02  0.11102476370E+02  0.17405126221E+02  0.51100000000E-03 0. -1.
        -11    1    3    3    0    0  0.49660117913E+00  0.55915521800E+00  0.19267951236E+01  0.20668350197E+01  0.51100000000E-03 0.  1.
         12    1    3    3    0    0 -0.11654274270E+01  0.13235389705E+02  0.23125185448E+02  0.26670357398E+02  0.00000000000E+00 0. -1.
</event>
<event>
 7    1  0.2001181E-008  0.4614231E+02  0.7816164E-02  0.1320468E+00
        -11   -1    0    0    0    0  0.00000000000E+00  0.00000000000E+00  0.45593999997E+02  0.45594000000E+02  0.51100000000E-03 0. -1.
         11   -1    0    0    0    0 -0.00000000000E+00 -0.00000000000E+00 -0.45593999997E+02  0.45594000000E+02  0.51100000000E-03 0.  1.
    9900012    2    1    2    0    0 -0.42407494400E+02  0.15176360392E+02  0.62960307475E+00  0.46142313235E+02  0.99999587301E+01 0.  0.
        -12    1    1    2    0    0  0.42407494400E+02 -0.15176360392E+02 -0.62960307475E+00  0.45045686765E+02  0.00000000000E+00 0.  1.
         11    1    3    3    0    0  0.90110488988E-02 -0.64900069873E+00 -0.17599545631E+00  0.67250112841E+00  0.51100000000E-03 0. -1.
        -11    1    3    3    0    0 -0.20483674567E+02  0.60013815994E+01 -0.10119911802E+01  0.21368706822E+02  0.51100000000E-03 0.  1.
         12    1    3    3    0    0 -0.21932830883E+02  0.98239794912E+01  0.18175897113E+01  0.24101105285E+02  0.00000000000E+00 0. -1.
</event>
<event>
 7    1  0.2001181E-008  0.4614232E+02  0.7816164E-02  0.1320468E+00
        -11   -1    0    0    0    0  0.00000000000E+00  0.00000000000E+00  0.45593999997E+02  0.45594000000E+02  0.51100000000E-03 0.  1.
         11   -1    0    0    0    0 -0.00000000000E+00 -0.00000000000E+00 -0.45593999997E+02  0.45594000000E+02  0.51100000000E-03 0. -1.
    9900012    2    1    2    0    0  0.17783233617E+02  0.37012791967E+01 -0.41220998597E+02  0.46142316623E+02  0.99999896204E+01 0.  0.
        -12    1    1    2    0    0 -0.17783233617E+02 -0.37012791967E+01  0.41220998597E+02  0.45045683377E+02  0.00000000000E+00 0.  1.
         11    1    3    3    0    0  0.10328481467E+02  0.25294182982E+01 -0.20700187255E+02  0.23271726171E+02  0.51100000000E-03 0. -1.
        -11    1    3    3    0    0  0.37056204042E+01  0.37123447219E+01 -0.13828969165E+02  0.14790318264E+02  0.51100000000E-03 0.  1.
         12    1    3    3    0    0  0.37491317458E+01 -0.25404838234E+01 -0.66918421772E+01  0.80802721878E+01  0.00000000000E+00 0. -1.
</event>
<event>
 7    1  0.2001181E-008  0.4614232E+02  0.7816164E-02  0.1320468E+00
        -11   -1    0    0    0    0  0.00000000000E+00  0.00000000000E+00  0.45593999997E+02  0.45594000000E+02  0.51100000000E-03 0.  1.
         11   -1    0    0    0    0 -0.00000000000E+00 -0.00000000000E+00 -0.45593999997E+02  0.45594000000E+02  0.51100000000E-03 0. -1.
    9900012    2    1    2    0    0  0.91697618832E+01 -0.41267035872E+02 -0.15558300821E+02  0.46142317553E+02  0.99999981032E+01 0.  0.
        -12    1    1    2    0    0 -0.91697618832E+01  0.41267035872E+02  0.15558300821E+02  0.45045682447E+02  0.00000000000E+00 0.  1.
         11    1    3    3    0    0  0.22579263084E+01 -0.13206893580E+02 -0.73880072936E+01  0.15300422258E+02  0.51100000000E-03 0. -1.
        -11    1    3    3    0    0  0.64796902516E+01 -0.27324892563E+02 -0.62917903680E+01  0.28778859700E+02  0.51100000000E-03 0.  1.
        -12    1    3    3    0    0  0.43214532317E+00 -0.73524972871E+00 -0.18785031596E+01  0.20630355946E+01  0.00000000000E+00 0.  1.
</event>
<event>
 7    1  0.2001181E-008  0.4614232E+02  0.7816164E-02  0.1320468E+00
        -11   -1    0    0    0    0  0.00000000000E+00  0.00000000000E+00  0.45593999997E+02  0.45594000000E+02  0.51100000000E-03 0. -1.
         11   -1    0    0    0    0 -0.00000000000E+00 -0.00000000000E+00 -0.45593999997E+02  0.45594000000E+02  0.51100000000E-03 0.  1.
    9900012    2    1    2    0    0 -0.22741485876E+02 -0.35961099257E+02 -0.14789779282E+02  0.46142318621E+02  0.10000007845E+02 0.  0.
        -12    1    1    2    0    0  0.22741485876E+02  0.35961099257E+02  0.14789779282E+02  0.45045681379E+02  0.00000000000E+00 0.  1.
         11    1    3    3    0    0 -0.13564996934E+02 -0.21736013057E+02 -0.97586237294E+01  0.27417041102E+02  0.51100000000E-03 0. -1.
        -11    1    3    3    0    0 -0.46532476770E+01 -0.12242870096E+02 -0.35716652195E+01  0.13575616923E+02  0.51100000000E-03 0.  1.
         12    1    3    3    0    0 -0.45232412650E+01 -0.19822161039E+01 -0.14594903331E+01  0.51496605962E+01  0.00000000000E+00 0. -1.
</event>
<event>
 7    1  0.2001181E-008  0.4614232E+02  0.7816164E-02  0.1320468E+00
        -11   -1    0    0    0    0  0.00000000000E+00  0.00000000000E+00  0.45593999997E+02  0.45594000000E+02  0.51100000000E-03 0.  1.
         11   -1    0    0    0    0 -0.00000000000E+00 -0.00000000000E+00 -0.45593999997E+02  0.45594000000E+02  0.51100000000E-03 0. -1.
    9900012    2    1    2    0    0  0.12776235224E+02 -0.34470398469E+02 -0.26032143454E+02  0.46142322628E+02  0.10000044378E+02 0.  0.
        -12    1    1    2    0    0 -0.12776235224E+02  0.34470398469E+02  0.26032143454E+02  0.45045677372E+02  0.00000000000E+00 0.  1.
         11    1    3    3    0    0  0.18037562702E+01 -0.63950973267E+01 -0.30634594113E+01  0.73168019193E+01  0.51100000000E-03 0. -1.
        -11    1    3    3    0    0  0.11970386807E+02 -0.21401801844E+02 -0.17264336755E+02  0.29989741685E+02  0.51100000000E-03 0.  1.
        -12    1    3    3    0    0 -0.99790785372E+00 -0.66734992991E+01 -0.57043472879E+01  0.88357790240E+01  0.00000000000E+00 0.  1.
</event>
<event>
 7    1  0.2001181E-008  0.4614232E+02  0.7816164E-02  0.1320468E+00
        -11   -1    0    0    0    0  0.00000000000E+00  0.00000000000E+00  0.45593999997E+02  0.45594000000E+02  0.51100000000E-03 0.  1.
         11   -1    0    0    0    0 -0.00000000000E+00 -0.00000000000E+00 -0.45593999997E+02  0.45594000000E+02  0.51100000000E-03 0. -1.
    9900012    2    1    2    0    0 -0.31181087192E+02 -0.66010273848E+01 -0.31832054400E+02  0.46142318205E+02  0.10000004050E+02 0.  0.
        -12    1    1    2    0    0  0.31181087192E+02  0.66010273848E+01  0.31832054400E+02  0.45045681795E+02  0.00000000000E+00 0.  1.
         11    1    3    3    0    0 -0.27895614393E+01  0.71229337670E+00 -0.13687413873E+01  0.31878626264E+01  0.51100000000E-03 0. -1.
        -11    1    3    3    0    0 -0.28327865992E+01 -0.12118893993E+01 -0.73079833739E+01  0.79309505791E+01  0.51100000000E-03 0.  1.
         12    1    3    3    0    0 -0.25558739154E+02 -0.61014313621E+01 -0.23155329639E+02  0.35023505000E+02  0.00000000000E+00 0. -1.
</event>
<event>
 7    1  0.2001181E-008  0.4614232E+02  0.7816164E-02  0.1320468E+00
        -11   -1    0    0    0    0  0.00000000000E+00  0.00000000000E+00  0.45593999997E+02  0.45594000000E+02  0.51100000000E-03 0. -1.
         11   -1    0    0    0    0 -0.00000000000E+00 -0.00000000000E+00 -0.45593999997E+02  0.45594000000E+02  0.51100000000E-03 0.  1.
    9900012    2    1    2    0    0 -0.29674855474E+02 -0.29754304338E+02  0.16223368430E+02  0.46142319217E+02  0.10000013273E+02 0.  0.
        -12    1    1    2    0    0  0.29674855474E+02  0.29754304338E+02 -0.16223368430E+02  0.45045680783E+02  0.00000000000E+00 0.  1.
         11    1    3    3    0    0 -0.15507759963E+02 -0.14264730076E+02  0.11237337817E+02  0.23879926815E+02  0.51100000000E-03 0. -1.
        -11    1    3    3    0    0 -0.16292159043E+01 -0.24687756196E+01 -0.11496834633E+01  0.31734791396E+01  0.51100000000E-03 0.  1.
        -12    1    3    3    0    0 -0.12537879606E+02 -0.13020798642E+02  0.61357140763E+01  0.19088913262E+02  0.00000000000E+00 0.  1.
</event>
<event>
 7    1  0.2001181E-008  0.4614232E+02  0.7816164E-02  0.1320468E+00
        -11   -1    0    0    0    0  0.00000000000E+00  0.00000000000E+00  0.45593999997E+02  0.45594000000E+02  0.51100000000E-03 0.  1.
         11   -1    0    0    0    0 -0.00000000000E+00 -0.00000000000E+00 -0.45593999997E+02  0.45594000000E+02  0.51100000000E-03 0. -1.
    9900012    2    1    2    0    0 -0.21354410287E+02 -0.29729966059E+02 -0.26253223367E+02  0.46142318101E+02  0.10000003102E+02 0.  0.
        -12    1    1    2    0    0  0.21354410287E+02  0.29729966059E+02  0.26253223367E+02  0.45045681899E+02  0.00000000000E+00 0.  1.
         11    1    3    3    0    0 -0.64027510665E+01 -0.66277693565E+01 -0.59278446499E+01  0.10957275679E+02  0.51100000000E-03 0. -1.
        -11    1    3    3    0    0 -0.55413278290E+01 -0.69719246710E+01 -0.11458126682E+02  0.14512157491E+02  0.51100000000E-03 0.  1.
         12    1    3    3    0    0 -0.94103313911E+01 -0.16130272032E+02 -0.88672520355E+01  0.20672884931E+02  0.00000000000E+00 0. -1.
</event>
<event>
 7    1  0.2001181E-008  0.4614232E+02  0.7816164E-02  0.1320468E+00
        -11   -1    0    0    0    0  0.00000000000E+00  0.00000000000E+00  0.45593999997E+02  0.45594000000E+02  0.51100000000E-03 0.  1.
         11   -1    0    0    0    0 -0.00000000000E+00 -0.00000000000E+00 -0.45593999997E+02  0.45594000000E+02  0.51100000000E-03 0. -1.
    9900012    2    1    2    0    0  0.13532250640E+02 -0.36882628380E+02 -0.22037771676E+02  0.46142318031E+02  0.10000002462E+02 0.  0.
        -12    1    1    2    0    0 -0.13532250640E+02  0.36882628380E+02  0.22037771676E+02  0.45045681969E+02  0.00000000000E+00 0.  1.
         11    1    3    3    0    0  0.11888449553E+02 -0.30753527823E+02 -0.18672130645E+02  0.37891465654E+02  0.51100000000E-03 0. -1.
        -11    1    3    3    0    0  0.23532684274E+01 -0.37088621147E+01 -0.36523225086E+01  0.57125292511E+01  0.51100000000E-03 0.  1.
        -12    1    3    3    0    0 -0.70946734016E+00 -0.24202384415E+01  0.28668147703E+00  0.25383231255E+01  0.00000000000E+00 0.  1.
</event>
<event>
 7    1  0.2001181E-008  0.4614232E+02  0.7816164E-02  0.1320468E+00
        -11   -1    0    0    0    0  0.00000000000E+00  0.00000000000E+00  0.45593999997E+02  0.45594000000E+02  0.51100000000E-03 0.  1.
         11   -1    0    0    0    0 -0.00000000000E+00 -0.00000000000E+00 -0.45593999997E+02  0.45594000000E+02  0.51100000000E-03 0. -1.
    9900012    2    1    2    0    0 -0.81661682655E+01 -0.37482815699E+02 -0.23610708497E+02  0.46142319490E+02  0.10000015770E+02 0.  0.
        -12    1    1    2    0    0  0.81661682655E+01  0.37482815699E+02  0.23610708497E+02  0.45045680510E+02  0.00000000000E+00 0.  1.
         11    1    3    3    0    0 -0.13752430076E+01 -0.89901186522E+01 -0.31962005620E+01  0.96399805500E+01  0.51100000000E-03 0. -1.
        -11    1    3    3    0    0  0.33762737060E+00 -0.11285482118E+01 -0.31694459485E+01  0.33812721259E+01  0.51100000000E-03 0.  1.
        -12    1    3    3    0    0 -0.71285526286E+01 -0.27364148835E+02 -0.17245061986E+02  0.33121066815E+02  0.00000000000E+00 0.  1.
</event>
<event>
 7    1  0.2001181E-008  0.4614232E+02  0.7816164E-02  0.1320468E+00
        -11   -1    0    0    0    0  0.00000000000E+00  0.00000000000E+00  0.45593999997E+02  0.45594000000E+02  0.51100000000E-03 0.  1.
         11   -1    0    0    0    0 -0.00000000000E+00 -0.00000000000E+00 -0.45593999997E+02  0.45594000000E+02  0.51100000000E-03 0. -1.
    9900012    2    1    2    0    0 -0.18064917508E+02  0.11359978214E+02 -0.39670179836E+02  0.46142317435E+02  0.99999970252E+01 0.  0.
        -12    1    1    2    0    0  0.18064917508E+02 -0.11359978214E+02  0.39670179836E+02  0.45045682565E+02  0.00000000000E+00 0.  1.
         11    1    3    3    0    0  0.77295395371E-01  0.79300688100E+00 -0.43647845049E+01  0.44369109216E+01  0.51100000000E-03 0. -1.
        -11    1    3    3    0    0 -0.51757575250E+01  0.69976895440E+01 -0.15228631486E+02  0.17540448743E+02  0.51100000000E-03 0.  1.
         12    1    3    3    0    0 -0.12966455378E+02  0.35692817886E+01 -0.20076763844E+02  0.24164957770E+02  0.00000000000E+00 0. -1.
</event>
<event>
 7    1  0.2001181E-008  0.4614232E+02  0.7816164E-02  0.1320468E+00
        -11   -1    0    0    0    0  0.00000000000E+00  0.00000000000E+00  0.45593999997E+02  0.45594000000E+02  0.51100000000E-03 0. -1.
         11   -1    0    0    0    0 -0.00000000000E+00 -0.00000000000E+00 -0.45593999997E+02  0.45594000000E+02  0.51100000000E-03 0.  1.
    9900012    2    1    2    0    0  0.26079823038E+02 -0.12770109611E+02  0.34436612542E+02  0.46142321489E+02  0.10000033993E+02 0.  0.
        -12    1    1    2    0    0 -0.26079823038E+02  0.12770109611E+02 -0.34436612542E+02  0.45045678511E+02  0.00000000000E+00 0.  1.
         11    1    3    3    0    0  0.11440568770E+02 -0.20155220241E+01  0.14439340969E+02  0.18532228972E+02  0.51100000000E-03 0. -1.
        -11    1    3    3    0    0  0.62634246988E+01 -0.44297343955E+01  0.45025872854E+01  0.88952981005E+01  0.51100000000E-03 0.  1.
         12    1    3    3    0    0  0.83758295695E+01 -0.63248531910E+01  0.15494684288E+02  0.18714794416E+02  0.00000000000E+00 0. -1.
</event>
<event>
 7    1  0.2001181E-008  0.4614233E+02  0.7816164E-02  0.1320468E+00
        -11   -1    0    0    0    0  0.00000000000E+00  0.00000000000E+00  0.45593999997E+02  0.45594000000E+02  0.51100000000E-03 0. -1.
         11   -1    0    0    0    0 -0.00000000000E+00 -0.00000000000E+00 -0.45593999997E+02  0.45594000000E+02  0.51100000000E-03 0.  1.
    9900012    2    1    2    0    0  0.21267721904E+02 -0.40991013835E+01  0.39496761328E+02  0.46142325596E+02  0.10000071441E+02 0.  0.
        -12    1    1    2    0    0 -0.21267721904E+02  0.40991013835E+01 -0.39496761328E+02  0.45045674404E+02  0.00000000000E+00 0.  1.
         11    1    3    3    0    0  0.57208487745E+01  0.51534343599E+00  0.11385876727E+02  0.12752720442E+02  0.51100000000E-03 0. -1.
        -11    1    3    3    0    0  0.65208160100E+01  0.75169595227E-02  0.52188899584E+01  0.83521201261E+01  0.51100000000E-03 0.  1.
         12    1    3    3    0    0  0.90260571195E+01 -0.46219617791E+01  0.22891994642E+02  0.25037485028E+02  0.00000000000E+00 0. -1.
</event>
<event>
 7    1  0.2001181E-008  0.4614232E+02  0.7816164E-02  0.1320468E+00
        -11   -1    0    0    0    0  0.00000000000E+00  0.00000000000E+00  0.45593999997E+02  0.45594000000E+02  0.51100000000E-03 0.  1.
         11   -1    0    0    0    0 -0.00000000000E+00 -0.00000000000E+00 -0.45593999997E+02  0.45594000000E+02  0.51100000000E-03 0. -1.
    9900012    2    1    2    0    0 -0.33466440028E+01  0.22793818569E+02 -0.38708596795E+02  0.46142315891E+02  0.99999829435E+01 0.  0.
        -12    1    1    2    0    0  0.33466440028E+01 -0.22793818569E+02  0.38708596795E+02  0.45045684109E+02  0.00000000000E+00 0.  1.
         11    1    3    3    0    0 -0.35115195227E+01  0.32527036388E+01 -0.94503812293E+01  0.10593420409E+02  0.51100000000E-03 0. -1.
        -11    1    3    3    0    0  0.46722032712E+00  0.29492811243E+01 -0.82717819436E+01  0.87942555551E+01  0.51100000000E-03 0.  1.
        -12    1    3    3    0    0 -0.30234480721E+00  0.16591833806E+02 -0.20986433622E+02  0.26754639927E+02  0.00000000000E+00 0.  1.
</event>
<event>
 7    1  0.2001181E-008  0.4614232E+02  0.7816164E-02  0.1320468E+00
        -11   -1    0    0    0    0  0.00000000000E+00  0.00000000000E+00  0.45593999997E+02  0.45594000000E+02  0.51100000000E-03 0.  1.
         11   -1    0    0    0    0 -0.00000000000E+00 -0.00000000000E+00 -0.45593999997E+02  0.45594000000E+02  0.51100000000E-03 0. -1.
    9900012    2    1    2    0    0 -0.28970773386E+02 -0.13123434642E+02 -0.31899579705E+02  0.46142318378E+02  0.10000005628E+02 0.  0.
        -12    1    1    2    0    0  0.28970773386E+02  0.13123434642E+02  0.31899579705E+02  0.45045681622E+02  0.00000000000E+00 0.  1.
         11    1    3    3    0    0 -0.15345559084E+02 -0.42811113471E+01 -0.15765062880E+02  0.22413194904E+02  0.51100000000E-03 0. -1.
        -11    1    3    3    0    0 -0.53306450611E+01 -0.10141448357E+01 -0.25616348273E+01  0.60005199579E+01  0.51100000000E-03 0.  1.
         12    1    3    3    0    0 -0.82945692410E+01 -0.78281784593E+01 -0.13572881998E+02  0.17728603516E+02  0.00000000000E+00 0. -1.
</event>
<event>
 7    1  0.2001181E-008  0.4614232E+02  0.7816164E-02  0.1320468E+00
        -11   -1    0    0    0    0  0.00000000000E+00  0.00000000000E+00  0.45593999997E+02  0.45594000000E+02  0.51100000000E-03 0.  1.
         11   -1    0    0    0    0 -0.00000000000E+00 -0.00000000000E+00 -0.45593999997E+02  0.45594000000E+02  0.51100000000E-03 0. -1.
    9900012    2    1    2    0    0 -0.49784042955E+01 -0.44646322726E+02  0.33218764281E+01  0.46142317573E+02  0.99999982841E+01 0.  0.
        -12    1    1    2    0    0  0.49784042955E+01  0.44646322726E+02 -0.33218764281E+01  0.45045682427E+02  0.00000000000E+00 0.  1.
         11    1    3    3    0    0 -0.83454772826E+00 -0.67552709920E+00 -0.80190744928E+00  0.13400979781E+01  0.51100000000E-03 0. -1.
        -11    1    3    3    0    0  0.19062692641E+00 -0.39827884778E+01 -0.13490030289E+01  0.42093648116E+01  0.51100000000E-03 0.  1.
         12    1    3    3    0    0 -0.43344834936E+01 -0.39988007149E+02  0.54727869062E+01  0.40592854783E+02  0.00000000000E+00 0. -1.
</event>
<event>
 7    1  0.2001181E-008  0.4614232E+02  0.7816164E-02  0.1320468E+00
        -11   -1    0    0    0    0  0.00000000000E+00  0.00000000000E+00  0.45593999997E+02  0.45594000000E+02  0.51100000000E-03 0.  1.
         11   -1    0    0    0    0 -0.00000000000E+00 -0.00000000000E+00 -0.45593999997E+02  0.45594000000E+02  0.51100000000E-03 0. -1.
    9900012    2    1    2    0    0 -0.44382854290E+02  0.29842829940E+01 -0.70971673013E+01  0.46142317814E+02  0.10000000483E+02 0.  0.
        -12    1    1    2    0    0  0.44382854290E+02 -0.29842829940E+01  0.70971673013E+01  0.45045682186E+02  0.00000000000E+00 0.  1.
         11    1    3    3    0    0 -0.62489196842E+01  0.14712239182E+01 -0.33689865542E+01  0.72500736341E+01  0.51100000000E-03 0. -1.
        -11    1    3    3    0    0 -0.34611360796E+02  0.30795244053E+01 -0.24650437690E+01  0.34835415998E+02  0.51100000000E-03 0.  1.
        -12    1    3    3    0    0 -0.35225738099E+01 -0.15664653296E+01 -0.12631369781E+01  0.40568281822E+01  0.00000000000E+00 0.  1.
</event>
<event>
 7    1  0.2001181E-008  0.4614232E+02  0.7816164E-02  0.1320468E+00
        -11   -1    0    0    0    0  0.00000000000E+00  0.00000000000E+00  0.45593999997E+02  0.45594000000E+02  0.51100000000E-03 0. -1.
         11   -1    0    0    0    0 -0.00000000000E+00 -0.00000000000E+00 -0.45593999997E+02  0.45594000000E+02  0.51100000000E-03 0.  1.
    9900012    2    1    2    0    0  0.40051893375E+02  0.19333627828E+02 -0.71533285706E+01  0.46142318325E+02  0.10000005143E+02 0.  0.
        -12    1    1    2    0    0 -0.40051893375E+02 -0.19333627828E+02  0.71533285706E+01  0.45045681675E+02  0.00000000000E+00 0.  1.
         11    1    3    3    0    0  0.13312167786E+02  0.72603140507E+01  0.21649232680E+01  0.15317077538E+02  0.51100000000E-03 0. -1.
        -11    1    3    3    0    0  0.12646996216E+02  0.48348214782E+01 -0.43774115593E+01  0.14229678290E+02  0.51100000000E-03 0.  1.
         12    1    3    3    0    0  0.14092729373E+02  0.72384922993E+01 -0.49408402793E+01  0.16595562497E+02  0.00000000000E+00 0. -1.
</event>
<event>
 7    1  0.2001181E-008  0.4614232E+02  0.7816164E-02  0.1320468E+00
        -11   -1    0    0    0    0  0.00000000000E+00  0.00000000000E+00  0.45593999997E+02  0.45594000000E+02  0.51100000000E-03 0.  1.
         11   -1    0    0    0    0 -0.00000000000E+00 -0.00000000000E+00 -0.45593999997E+02  0.45594000000E+02  0.51100000000E-03 0. -1.
    9900012    2    1    2    0    0  0.47568258904E+01 -0.20591546850E+02 -0.39780321730E+02  0.46142321060E+02  0.10000030083E+02 0.  0.
        -12    1    1    2    0    0 -0.47568258904E+01  0.20591546850E+02  0.39780321730E+02  0.45045678940E+02  0.00000000000E+00 0.  1.
         11    1    3    3    0    0  0.31699205189E+01 -0.76385611676E+01 -0.22798275254E+02  0.24251955954E+02  0.51100000000E-03 0. -1.
        -11    1    3    3    0    0  0.16839406292E+01 -0.17550095536E+01 -0.45433619905E+01  0.51534311884E+01  0.51100000000E-03 0.  1.
        -12    1    3    3    0    0 -0.97035257687E-01 -0.11197976128E+02 -0.12438684486E+02  0.16736933917E+02  0.00000000000E+00 0.  1.
</event>
<event>
 7    1  0.2001181E-008  0.4614232E+02  0.7816164E-02  0.1320468E+00
        -11   -1    0    0    0    0  0.00000000000E+00  0.00000000000E+00  0.45593999997E+02  0.45594000000E+02  0.51100000000E-03 0.  1.
         11   -1    0    0    0    0 -0.00000000000E+00 -0.00000000000E+00 -0.45593999997E+02  0.45594000000E+02  0.51100000000E-03 0. -1.
    9900012    2    1    2    0    0  0.22545669545E+02 -0.99532782116E+01 -0.37705948117E+02  0.46142317790E+02  0.10000000261E+02 0.  0.
        -12    1    1    2    0    0 -0.22545669545E+02  0.99532782116E+01  0.37705948117E+02  0.45045682210E+02  0.00000000000E+00 0.  1.
         11    1    3    3    0    0  0.21939376757E+01  0.58818112287E+00 -0.76398562459E+01  0.79703653164E+01  0.51100000000E-03 0. -1.
        -11    1    3    3    0    0  0.12808894602E+02 -0.67363136808E+01 -0.22920022022E+02  0.27106698668E+02  0.51100000000E-03 0.  1.
        -12    1    3    3    0    0  0.75428372675E+01 -0.38051456536E+01 -0.71460698487E+01  0.11065253805E+02  0.00000000000E+00 0.  1.
</event>
<event>
 7    1  0.2001181E-008  0.4614232E+02  0.7816164E-02  0.1320468E+00
        -11   -1    0    0    0    0  0.00000000000E+00  0.00000000000E+00  0.45593999997E+02  0.45594000000E+02  0.51100000000E-03 0.  1.
         11   -1    0    0    0    0 -0.00000000000E+00 -0.00000000000E+00 -0.45593999997E+02  0.45594000000E+02  0.51100000000E-03 0. -1.
    9900012    2    1    2    0    0  0.38227616411E+02  0.19292854290E+02 -0.13983868505E+02  0.46142318060E+02  0.10000002724E+02 0.  0.
        -12    1    1    2    0    0 -0.38227616411E+02 -0.19292854290E+02  0.13983868505E+02  0.45045681940E+02  0.00000000000E+00 0.  1.
         11    1    3    3    0    0  0.10001489512E+01 -0.75340799092E+00 -0.19615824373E-01  0.12523204730E+01  0.51100000000E-03 0.  1.
        -11    1    3    3    0    0  0.29354676416E+02  0.14047599548E+02 -0.12608108774E+02  0.34899806413E+02  0.51100000000E-03 0. -1.
         12    1    3    3    0    0  0.78727910429E+01  0.59986627330E+01 -0.13561439072E+01  0.99901911737E+01  0.00000000000E+00 0. -1.
</event>
<event>
 7    1  0.2001181E-008  0.4614232E+02  0.7816164E-02  0.1320468E+00
        -11   -1    0    0    0    0  0.00000000000E+00  0.00000000000E+00  0.45593999997E+02  0.45594000000E+02  0.51100000000E-03 0.  1.
         11   -1    0    0    0    0 -0.00000000000E+00 -0.00000000000E+00 -0.45593999997E+02  0.45594000000E+02  0.51100000000E-03 0. -1.
    9900012    2    1    2    0    0  0.21970857838E+02  0.11754624843E+00 -0.39324052213E+02  0.46142317702E+02  0.99999994616E+01 0.  0.
        -12    1    1    2    0    0 -0.21970857838E+02 -0.11754624843E+00  0.39324052213E+02  0.45045682298E+02  0.00000000000E+00 0.  1.
         11    1    3    3    0    0  0.57256386825E+01  0.15071009801E+01 -0.18877414685E+02  0.19784111735E+02  0.51100000000E-03 0. -1.
        -11    1    3    3    0    0  0.21279108533E+01  0.85586246944E+00 -0.21919112969E+01  0.31725353522E+01  0.51100000000E-03 0.  1.
         12    1    3    3    0    0  0.14117308302E+02 -0.22454172011E+01 -0.18254726231E+02  0.23185670615E+02  0.00000000000E+00 0. -1.
</event>
<event>
 7    1  0.2001181E-008  0.4614232E+02  0.7816164E-02  0.1320468E+00
        -11   -1    0    0    0    0  0.00000000000E+00  0.00000000000E+00  0.45593999997E+02  0.45594000000E+02  0.51100000000E-03 0.  1.
         11   -1    0    0    0    0 -0.00000000000E+00 -0.00000000000E+00 -0.45593999997E+02  0.45594000000E+02  0.51100000000E-03 0. -1.
    9900012    2    1    2    0    0 -0.42069819584E+02  0.13951894673E+02 -0.80366914394E+01  0.46142317698E+02  0.99999994202E+01 0.  0.
        -12    1    1    2    0    0  0.42069819584E+02 -0.13951894673E+02  0.80366914394E+01  0.45045682302E+02  0.00000000000E+00 0.  1.
         11    1    3    3    0    0 -0.17363078174E+02  0.43051950963E+01 -0.48471498450E+01  0.18533916218E+02  0.51100000000E-03 0. -1.
        -11    1    3    3    0    0 -0.18698163307E+02  0.38822195071E+01 -0.22309466671E+01  0.19226805836E+02  0.51100000000E-03 0.  1.
        -12    1    3    3    0    0 -0.60085781023E+01  0.57644800701E+01 -0.95859492727E+00  0.83815956431E+01  0.00000000000E+00 0.  1.
</event>
<event>
 7    1  0.2001181E-008  0.4614232E+02  0.7816164E-02  0.1320468E+00
        -11   -1    0    0    0    0  0.00000000000E+00  0.00000000000E+00  0.45593999997E+02  0.45594000000E+02  0.51100000000E-03 0.  1.
         11   -1    0    0    0    0 -0.00000000000E+00 -0.00000000000E+00 -0.45593999997E+02  0.45594000000E+02  0.51100000000E-03 0. -1.
    9900012    2    1    2    0    0 -0.42810098987E+02 -0.71653462935E+01 -0.12044362632E+02  0.46142318364E+02  0.10000005500E+02 0.  0.
        -12    1    1    2    0    0  0.42810098987E+02  0.71653462935E+01  0.12044362632E+02  0.45045681636E+02  0.00000000000E+00 0.  1.
         11    1    3    3    0    0 -0.77972707140E+01  0.22277031254E+01 -0.13419027593E+01  0.82195374005E+01  0.51100000000E-03 0.  1.
        -11    1    3    3    0    0 -0.44544655946E+01 -0.22396005315E+01 -0.11489961032E+01  0.51164701289E+01  0.51100000000E-03 0. -1.
        -12    1    3    3    0    0 -0.30558362679E+02 -0.71534488873E+01 -0.95534637700E+01  0.32806310835E+02  0.00000000000E+00 0.  1.
</event>
<event>
 7    1  0.2001181E-008  0.4614232E+02  0.7816164E-02  0.1320468E+00
        -11   -1    0    0    0    0  0.00000000000E+00  0.00000000000E+00  0.45593999997E+02  0.45594000000E+02  0.51100000000E-03 0.  1.
         11   -1    0    0    0    0 -0.00000000000E+00 -0.00000000000E+00 -0.45593999997E+02  0.45594000000E+02  0.51100000000E-03 0. -1.
    9900012    2    1    2    0    0  0.15918607748E+02  0.88526736481E+01 -0.41198804726E+02  0.46142318584E+02  0.10000007507E+02 0.  0.
        -12    1    1    2    0    0 -0.15918607748E+02 -0.88526736481E+01  0.41198804726E+02  0.45045681416E+02  0.00000000000E+00 0.  1.
         11    1    3    3    0    0  0.20048296718E+01  0.60563826570E+00 -0.82314714173E+01  0.84937189544E+01  0.51100000000E-03 0. -1.
        -11    1    3    3    0    0  0.54648887308E+01  0.37924047956E+01 -0.22571278780E+02  0.23531042667E+02  0.51100000000E-03 0.  1.
         12    1    3    3    0    0  0.84488893458E+01  0.44546305868E+01 -0.10396054529E+02  0.14117556963E+02  0.00000000000E+00 0. -1.
</event>
<event>
 7    1  0.2001181E-008  0.4614232E+02  0.7816164E-02  0.1320468E+00
        -11   -1    0    0    0    0  0.00000000000E+00  0.00000000000E+00  0.45593999997E+02  0.45594000000E+02  0.51100000000E-03 0.  1.
         11   -1    0    0    0    0 -0.00000000000E+00 -0.00000000000E+00 -0.45593999997E+02  0.45594000000E+02  0.51100000000E-03 0. -1.
    9900012    2    1    2    0    0 -0.91273966628E+01 -0.13956171294E+02 -0.41845305137E+02  0.46142315978E+02  0.99999837377E+01 0.  0.
        -12    1    1    2    0    0  0.91273966628E+01  0.13956171294E+02  0.41845305137E+02  0.45045684022E+02  0.00000000000E+00 0.  1.
         11    1    3    3    0    0 -0.27911637845E+01 -0.52098232122E+00 -0.33511767172E+01  0.43923118630E+01  0.51100000000E-03 0. -1.
        -11    1    3    3    0    0 -0.39137953312E+01 -0.33121428247E+01 -0.77576616862E+01  0.92988923579E+01  0.51100000000E-03 0.  1.
         12    1    3    3    0    0 -0.24224375471E+01 -0.10123046148E+02 -0.30736466733E+02  0.32451111757E+02  0.00000000000E+00 0. -1.
</event>
<event>
 7    1  0.2001181E-008  0.4614232E+02  0.7816164E-02  0.1320468E+00
        -11   -1    0    0    0    0  0.00000000000E+00  0.00000000000E+00  0.45593999997E+02  0.45594000000E+02  0.51100000000E-03 0.  1.
         11   -1    0    0    0    0 -0.00000000000E+00 -0.00000000000E+00 -0.45593999997E+02  0.45594000000E+02  0.51100000000E-03 0. -1.
    9900012    2    1    2    0    0 -0.20179661989E+02  0.11237794879E+02 -0.38673075478E+02  0.46142316981E+02  0.99999928880E+01 0.  0.
        -12    1    1    2    0    0  0.20179661989E+02 -0.11237794879E+02  0.38673075478E+02  0.45045683019E+02  0.00000000000E+00 0.  1.
         11    1    3    3    0    0 -0.47086290173E+01  0.10862120096E+01 -0.57989865107E+01  0.75484626624E+01  0.51100000000E-03 0. -1.
        -11    1    3    3    0    0 -0.64898800359E+01  0.80377979538E+01 -0.12418869742E+02  0.16154041747E+02  0.51100000000E-03 0.  1.
         12    1    3    3    0    0 -0.89811529352E+01  0.21137849151E+01 -0.20455219225E+02  0.22439812572E+02  0.00000000000E+00 0. -1.
</event>
<event>
 7    1  0.2001181E-008  0.4614232E+02  0.7816164E-02  0.1320468E+00
        -11   -1    0    0    0    0  0.00000000000E+00  0.00000000000E+00  0.45593999997E+02  0.45594000000E+02  0.51100000000E-03 0. -1.
         11   -1    0    0    0    0 -0.00000000000E+00 -0.00000000000E+00 -0.45593999997E+02  0.45594000000E+02  0.51100000000E-03 0.  1.
    9900012    2    1    2    0    0 -0.36042253137E+02  0.28624268067E+01  0.26867750456E+02  0.46142317488E+02  0.99999975101E+01 0.  0.
        -12    1    1    2    0    0  0.36042253137E+02 -0.28624268067E+01 -0.26867750456E+02  0.45045682512E+02  0.00000000000E+00 0.  1.
         11    1    3    3    0    0 -0.13769384491E+02 -0.17719419428E+01  0.95729205876E+01  0.16863467506E+02  0.51100000000E-03 0. -1.
        -11    1    3    3    0    0 -0.22626596560E+02  0.46397010177E+01  0.16431332577E+02  0.28345694346E+02  0.51100000000E-03 0.  1.
        -12    1    3    3    0    0  0.35372791335E+00 -0.53322681902E-02  0.86349729098E+00  0.93315563616E+00  0.00000000000E+00 0.  1.
</event>
<event>
 7    1  0.2001181E-008  0.4614232E+02  0.7816164E-02  0.1320468E+00
        -11   -1    0    0    0    0  0.00000000000E+00  0.00000000000E+00  0.45593999997E+02  0.45594000000E+02  0.51100000000E-03 0.  1.
         11   -1    0    0    0    0 -0.00000000000E+00 -0.00000000000E+00 -0.45593999997E+02  0.45594000000E+02  0.51100000000E-03 0. -1.
    9900012    2    1    2    0    0  0.35645990102E+02  0.27527737315E+02  0.83700869253E+00  0.46142317459E+02  0.99999972408E+01 0.  0.
        -12    1    1    2    0    0 -0.35645990102E+02 -0.27527737315E+02 -0.83700869253E+00  0.45045682541E+02  0.00000000000E+00 0.  1.
         11    1    3    3    0    0  0.54517599526E+01  0.70724460495E+01  0.55067716811E-01  0.89299615015E+01  0.51100000000E-03 0. -1.
        -11    1    3    3    0    0  0.90595031554E+01  0.10386177488E+02  0.73160447192E+00  0.13801540696E+02  0.51100000000E-03 0.  1.
         12    1    3    3    0    0  0.21134726994E+02  0.10069113778E+02  0.50336503797E-01  0.23410815261E+02  0.00000000000E+00 0. -1.
</event>
<event>
 7    1  0.2001181E-008  0.4614232E+02  0.7816164E-02  0.1320468E+00
        -11   -1    0    0    0    0  0.00000000000E+00  0.00000000000E+00  0.45593999997E+02  0.45594000000E+02  0.51100000000E-03 0. -1.
         11   -1    0    0    0    0 -0.00000000000E+00 -0.00000000000E+00 -0.45593999997E+02  0.45594000000E+02  0.51100000000E-03 0.  1.
    9900012    2    1    2    0    0  0.17876558265E+01 -0.44183415307E+02  0.85874165265E+01  0.46142316254E+02  0.99999862532E+01 0.  0.
        -12    1    1    2    0    0 -0.17876558265E+01  0.44183415307E+02 -0.85874165265E+01  0.45045683746E+02  0.00000000000E+00 0.  1.
         11    1    3    3    0    0 -0.16357885872E+01 -0.22181413419E+01 -0.36929206338E+00  0.27807071409E+01  0.51100000000E-03 0.  1.
        -11    1    3    3    0    0 -0.33073734936E+00 -0.67254620685E+01  0.32096310868E+01  0.74594208357E+01  0.51100000000E-03 0. -1.
         12    1    3    3    0    0  0.37541817630E+01 -0.35239811897E+02  0.57470775031E+01  0.35902188277E+02  0.00000000000E+00 0. -1.
</event>
<event>
 7    1  0.2001181E-008  0.4614232E+02  0.7816164E-02  0.1320468E+00
        -11   -1    0    0    0    0  0.00000000000E+00  0.00000000000E+00  0.45593999997E+02  0.45594000000E+02  0.51100000000E-03 0.  1.
         11   -1    0    0    0    0 -0.00000000000E+00 -0.00000000000E+00 -0.45593999997E+02  0.45594000000E+02  0.51100000000E-03 0. -1.
    9900012    2    1    2    0    0  0.13682955312E+02  0.24978299364E+02 -0.34899495395E+02  0.46142317809E+02  0.10000000439E+02 0.  0.
        -12    1    1    2    0    0 -0.13682955312E+02 -0.24978299364E+02  0.34899495395E+02  0.45045682191E+02  0.00000000000E+00 0.  1.
         11    1    3    3    0    0  0.65120781127E+01  0.15991672334E+02 -0.16845736758E+02  0.24123009608E+02  0.51100000000E-03 0. -1.
        -11    1    3    3    0    0  0.16851196899E+01  0.10069276517E+01 -0.58873217290E+00  0.20494236988E+01  0.51100000000E-03 0.  1.
        -12    1    3    3    0    0  0.54857575098E+01  0.79796993780E+01 -0.17465026465E+02  0.19969884502E+02  0.00000000000E+00 0.  1.
</event>
<event>
 7    1  0.2001181E-008  0.4614232E+02  0.7816164E-02  0.1320468E+00
        -11   -1    0    0    0    0  0.00000000000E+00  0.00000000000E+00  0.45593999997E+02  0.45594000000E+02  0.51100000000E-03 0. -1.
         11   -1    0    0    0    0 -0.00000000000E+00 -0.00000000000E+00 -0.45593999997E+02  0.45594000000E+02  0.51100000000E-03 0.  1.
    9900012    2    1    2    0    0  0.69371908434E+00  0.15977713545E+02  0.42111101536E+02  0.46142318200E+02  0.10000004002E+02 0.  0.
        -12    1    1    2    0    0 -0.69371908434E+00 -0.15977713545E+02 -0.42111101536E+02  0.45045681800E+02  0.00000000000E+00 0.  1.
         11    1    3    3    0    0  0.21471655019E+01  0.73996231923E+01  0.11581645349E+02  0.13910400869E+02  0.51100000000E-03 0. -1.
        -11    1    3    3    0    0 -0.20337895086E+01  0.92358722174E+01  0.28126780405E+02  0.29674120233E+02  0.51100000000E-03 0.  1.
        -12    1    3    3    0    0  0.58034309096E+00 -0.65778186468E+00  0.24026757810E+01  0.25577970978E+01  0.00000000000E+00 0.  1.
</event>
<event>
 7    1  0.2001181E-008  0.4614232E+02  0.7816164E-02  0.1320468E+00
        -11   -1    0    0    0    0  0.00000000000E+00  0.00000000000E+00  0.45593999997E+02  0.45594000000E+02  0.51100000000E-03 0.  1.
         11   -1    0    0    0    0 -0.00000000000E+00 -0.00000000000E+00 -0.45593999997E+02  0.45594000000E+02  0.51100000000E-03 0. -1.
    9900012    2    1    2    0    0 -0.15621269208E+02 -0.29578504807E+02 -0.30169545703E+02  0.46142317785E+02  0.10000000214E+02 0.  0.
        -12    1    1    2    0    0  0.15621269208E+02  0.29578504807E+02  0.30169545703E+02  0.45045682215E+02  0.00000000000E+00 0.  1.
         11    1    3    3    0    0 -0.40210044643E+01 -0.56106060072E+01 -0.59853762196E+01  0.91363069903E+01  0.51100000000E-03 0. -1.
        -11    1    3    3    0    0  0.59085282625E+00 -0.15072980122E+01 -0.43958716610E+01  0.46845215637E+01  0.51100000000E-03 0.  1.
         12    1    3    3    0    0 -0.12191117570E+02 -0.22460600788E+02 -0.19788297823E+02  0.32321489231E+02  0.00000000000E+00 0. -1.
</event>
<event>
 7    1  0.2001181E-008  0.4614231E+02  0.7816164E-02  0.1320468E+00
        -11   -1    0    0    0    0  0.00000000000E+00  0.00000000000E+00  0.45593999997E+02  0.45594000000E+02  0.51100000000E-03 0.  1.
         11   -1    0    0    0    0 -0.00000000000E+00 -0.00000000000E+00 -0.45593999997E+02  0.45594000000E+02  0.51100000000E-03 0. -1.
    9900012    2    1    2    0    0  0.39773983166E+02  0.16632514583E+02 -0.13057711987E+02  0.46142310743E+02  0.99999360039E+01 0.  0.
        -12    1    1    2    0    0 -0.39773983166E+02 -0.16632514583E+02  0.13057711987E+02  0.45045689257E+02  0.00000000000E+00 0.  1.
         11    1    3    3    0    0  0.11942777231E+02  0.61208107263E+01 -0.72008358680E+01  0.15229782972E+02  0.51100000000E-03 0. -1.
        -11    1    3    3    0    0  0.23531781838E+02  0.11006197140E+02 -0.56127045866E+01  0.26577877736E+02  0.51100000000E-03 0.  1.
        -12    1    3    3    0    0  0.42994240983E+01 -0.49449328263E+00 -0.24417153256E+00  0.43346500344E+01  0.00000000000E+00 0.  1.
</event>
<event>
 7    1  0.2001181E-008  0.4614231E+02  0.7816164E-02  0.1320468E+00
        -11   -1    0    0    0    0  0.00000000000E+00  0.00000000000E+00  0.45593999997E+02  0.45594000000E+02  0.51100000000E-03 0. -1.
         11   -1    0    0    0    0 -0.00000000000E+00 -0.00000000000E+00 -0.45593999997E+02  0.45594000000E+02  0.51100000000E-03 0.  1.
    9900012    2    1    2    0    0  0.33290474041E+02  0.13932952476E+01  0.30313648059E+02  0.46142309949E+02  0.99999287630E+01 0.  0.
        -12    1    1    2    0    0 -0.33290474041E+02 -0.13932952476E+01 -0.30313648059E+02  0.45045690051E+02  0.00000000000E+00 0.  1.
         11    1    3    3    0    0  0.64447357436E+01 -0.18915854282E+01  0.87611954691E+01  0.11039531718E+02  0.51100000000E-03 0. -1.
        -11    1    3    3    0    0  0.17326567764E+02  0.44462750222E+01  0.16128322866E+02  0.24085309024E+02  0.51100000000E-03 0.  1.
         12    1    3    3    0    0  0.95191705332E+01 -0.11613943464E+01  0.54241297237E+01  0.11017469207E+02  0.00000000000E+00 0. -1.
</event>
<event>
 7    1  0.2001181E-008  0.4614232E+02  0.7816164E-02  0.1320468E+00
        -11   -1    0    0    0    0  0.00000000000E+00  0.00000000000E+00  0.45593999997E+02  0.45594000000E+02  0.51100000000E-03 0. -1.
         11   -1    0    0    0    0 -0.00000000000E+00 -0.00000000000E+00 -0.45593999997E+02  0.45594000000E+02  0.51100000000E-03 0.  1.
    9900012    2    1    2    0    0 -0.19365311460E+02  0.33610978407E+02  0.22899788690E+02  0.46142317860E+02  0.10000000898E+02 0.  0.
        -12    1    1    2    0    0  0.19365311460E+02 -0.33610978407E+02 -0.22899788690E+02  0.45045682140E+02  0.00000000000E+00 0.  1.
         11    1    3    3    0    0  0.38495950102E+00  0.31564291781E+01  0.10430985563E+01  0.33465346006E+01  0.51100000000E-03 0. -1.
        -11    1    3    3    0    0 -0.16039058455E+02  0.22638278598E+02  0.13858923425E+02  0.31013107112E+02  0.51100000000E-03 0.  1.
         12    1    3    3    0    0 -0.37112125061E+01  0.78162706314E+01  0.79977667087E+01  0.11782676147E+02  0.00000000000E+00 0. -1.
</event>
<event>
 7    1  0.2001181E-008  0.4614232E+02  0.7816164E-02  0.1320468E+00
        -11   -1    0    0    0    0  0.00000000000E+00  0.00000000000E+00  0.45593999997E+02  0.45594000000E+02  0.51100000000E-03 0.  1.
         11   -1    0    0    0    0 -0.00000000000E+00 -0.00000000000E+00 -0.45593999997E+02  0.45594000000E+02  0.51100000000E-03 0. -1.
    9900012    2    1    2    0    0  0.62909074780E+01  0.58941568694E+01 -0.44213085485E+02  0.46142317297E+02  0.99999957664E+01 0.  0.
        -12    1    1    2    0    0 -0.62909074780E+01 -0.58941568694E+01  0.44213085485E+02  0.45045682703E+02  0.00000000000E+00 0.  1.
         11    1    3    3    0    0  0.46865998392E+01  0.26011000909E+01 -0.84925757402E+01  0.10042598404E+02  0.51100000000E-03 0. -1.
        -11    1    3    3    0    0 -0.28649418108E+00  0.27639371375E+01 -0.12952966964E+02  0.13247670770E+02  0.51100000000E-03 0.  1.
         12    1    3    3    0    0  0.18908018199E+01  0.52911964097E+00 -0.22767542781E+02  0.22852048123E+02  0.00000000000E+00 0. -1.
</event>
<event>
 7    1  0.2001181E-008  0.4614232E+02  0.7816164E-02  0.1320468E+00
        -11   -1    0    0    0    0  0.00000000000E+00  0.00000000000E+00  0.45593999997E+02  0.45594000000E+02  0.51100000000E-03 0.  1.
         11   -1    0    0    0    0 -0.00000000000E+00 -0.00000000000E+00 -0.45593999997E+02  0.45594000000E+02  0.51100000000E-03 0. -1.
    9900012    2    1    2    0    0  0.10498469052E+02  0.36440584972E+02 -0.24310069239E+02  0.46142317055E+02  0.99999935614E+01 0.  0.
        -12    1    1    2    0    0 -0.10498469052E+02 -0.36440584972E+02  0.24310069239E+02  0.45045682945E+02  0.00000000000E+00 0.  1.
         11    1    3    3    0    0  0.61088192681E+01  0.75109994792E+01 -0.42822258767E+01  0.10586323476E+02  0.51100000000E-03 0. -1.
        -11    1    3    3    0    0  0.90177773828E+00  0.14046687730E+02 -0.89961810118E+01  0.16704906834E+02  0.51100000000E-03 0.  1.
         12    1    3    3    0    0  0.34878720459E+01  0.14882897763E+02 -0.11031662351E+02  0.18851086745E+02  0.00000000000E+00 0. -1.
</event>
<event>
 7    1  0.2001181E-008  0.4614232E+02  0.7816164E-02  0.1320468E+00
        -11   -1    0    0    0    0  0.00000000000E+00  0.00000000000E+00  0.45593999997E+02  0.45594000000E+02  0.51100000000E-03 0.  1.
         11   -1    0    0    0    0 -0.00000000000E+00 -0.00000000000E+00 -0.45593999997E+02  0.45594000000E+02  0.51100000000E-03 0. -1.
    9900012    2    1    2    0    0  0.24765921904E+02  0.30641499351E+02 -0.21837148980E+02  0.46142318234E+02  0.10000004308E+02 0.  0.
        -12    1    1    2    0    0 -0.24765921904E+02 -0.30641499351E+02  0.21837148980E+02  0.45045681766E+02  0.00000000000E+00 0.  1.
         11    1    3    3    0    0  0.85194233281E+01  0.51622553402E+01 -0.70044963777E+01  0.12177537674E+02  0.51100000000E-03 0. -1.
        -11    1    3    3    0    0  0.96432448911E+01  0.10923034210E+02 -0.71387856016E+01  0.16225507959E+02  0.51100000000E-03 0.  1.
         12    1    3    3    0    0  0.66032536849E+01  0.14556209800E+02 -0.76938670007E+01  0.17739272601E+02  0.00000000000E+00 0. -1.
</event>
<event>
 7    1  0.2001181E-008  0.4614232E+02  0.7816164E-02  0.1320468E+00
        -11   -1    0    0    0    0  0.00000000000E+00  0.00000000000E+00  0.45593999997E+02  0.45594000000E+02  0.51100000000E-03 0.  1.
         11   -1    0    0    0    0 -0.00000000000E+00 -0.00000000000E+00 -0.45593999997E+02  0.45594000000E+02  0.51100000000E-03 0. -1.
    9900012    2    1    2    0    0  0.41720036331E+01  0.11282354144E+02 -0.43409864640E+02  0.46142317883E+02  0.10000001107E+02 0.  0.
        -12    1    1    2    0    0 -0.41720036331E+01 -0.11282354144E+02  0.43409864640E+02  0.45045682117E+02  0.00000000000E+00 0.  1.
         11    1    3    3    0    0  0.10939037417E+01  0.76973346626E+00 -0.72584486940E+01  0.73806634329E+01  0.51100000000E-03 0. -1.
        -11    1    3    3    0    0 -0.17627780745E+00  0.14890197458E+01 -0.19402055582E+02  0.19459907881E+02  0.51100000000E-03 0.  1.
        -12    1    3    3    0    0  0.32543776988E+01  0.90236009323E+01 -0.16749360364E+02  0.19301746568E+02  0.00000000000E+00 0.  1.
</event>
<event>
 7    1  0.2001181E-008  0.4614232E+02  0.7816164E-02  0.1320468E+00
        -11   -1    0    0    0    0  0.00000000000E+00  0.00000000000E+00  0.45593999997E+02  0.45594000000E+02  0.51100000000E-03 0. -1.
         11   -1    0    0    0    0 -0.00000000000E+00 -0.00000000000E+00 -0.45593999997E+02  0.45594000000E+02  0.51100000000E-03 0.  1.
    9900012    2    1    2    0    0  0.15434622169E+02  0.22141336917E+02  0.36064486734E+02  0.46142316906E+02  0.99999922067E+01 0.  0.
        -12    1    1    2    0    0 -0.15434622169E+02 -0.22141336917E+02 -0.36064486734E+02  0.45045683094E+02  0.00000000000E+00 0.  1.
         11    1    3    3    0    0  0.65921170015E+01  0.46474298533E+01  0.76987204974E+01  0.11150107998E+02  0.51100000000E-03 0. -1.
        -11    1    3    3    0    0  0.46505476508E+01  0.83089520219E+01  0.87551214302E+01  0.12935162491E+02  0.51100000000E-03 0.  1.
         12    1    3    3    0    0  0.41919575168E+01  0.91849550418E+01  0.19610644806E+02  0.22057046418E+02  0.00000000000E+00 0. -1.
</event>
<event>
 7    1  0.2001181E-008  0.4614232E+02  0.7816164E-02  0.1320468E+00
        -11   -1    0    0    0    0  0.00000000000E+00  0.00000000000E+00  0.45593999997E+02  0.45594000000E+02  0.51100000000E-03 0.  1.
         11   -1    0    0    0    0 -0.00000000000E+00 -0.00000000000E+00 -0.45593999997E+02  0.45594000000E+02  0.51100000000E-03 0. -1.
    9900012    2    1    2    0    0  0.27288260230E+01  0.34520268517E+02 -0.28810037289E+02  0.46142315650E+02  0.99999807525E+01 0.  0.
        -12    1    1    2    0    0 -0.27288260230E+01 -0.34520268517E+02  0.28810037289E+02  0.45045684350E+02  0.00000000000E+00 0.  1.
         11    1    3    3    0    0 -0.60187797966E+00  0.30373276845E-01 -0.11105469931E+00  0.61279119258E+00  0.51100000000E-03 0. -1.
        -11    1    3    3    0    0  0.49921388727E+01  0.27823685735E+02 -0.24945574315E+02  0.37700936547E+02  0.51100000000E-03 0.  1.
         12    1    3    3    0    0 -0.16614348700E+01  0.66662095051E+01 -0.37534082750E+01  0.78285879104E+01  0.00000000000E+00 0. -1.
</event>
<event>
 7    1  0.2001181E-008  0.4614232E+02  0.7816164E-02  0.1320468E+00
        -11   -1    0    0    0    0  0.00000000000E+00  0.00000000000E+00  0.45593999997E+02  0.45594000000E+02  0.51100000000E-03 0.  1.
         11   -1    0    0    0    0 -0.00000000000E+00 -0.00000000000E+00 -0.45593999997E+02  0.45594000000E+02  0.51100000000E-03 0. -1.
    9900012    2    1    2    0    0  0.23106241310E+01  0.88711536136E+01 -0.44103028172E+02  0.46142318251E+02  0.10000004463E+02 0.  0.
        -12    1    1    2    0    0 -0.23106241310E+01 -0.88711536136E+01  0.44103028172E+02  0.45045681749E+02  0.00000000000E+00 0.  1.
         11    1    3    3    0    0  0.12645857364E+01  0.65405507836E+01 -0.19430688330E+02  0.20540925755E+02  0.51100000000E-03 0. -1.
        -11    1    3    3    0    0  0.27747069571E+01  0.69232927359E-01 -0.19508953104E+02  0.19705406450E+02  0.51100000000E-03 0.  1.
         12    1    3    3    0    0 -0.17286685625E+01  0.22613699026E+01 -0.51633867382E+01  0.58959860450E+01  0.00000000000E+00 0. -1.
</event>
<event>
 7    1  0.2001181E-008  0.4614232E+02  0.7816164E-02  0.1320468E+00
        -11   -1    0    0    0    0  0.00000000000E+00  0.00000000000E+00  0.45593999997E+02  0.45594000000E+02  0.51100000000E-03 0.  1.
         11   -1    0    0    0    0 -0.00000000000E+00 -0.00000000000E+00 -0.45593999997E+02  0.45594000000E+02  0.51100000000E-03 0. -1.
    9900012    2    1    2    0    0  0.14132942087E+02  0.42757569604E+02 -0.10787090552E+01  0.46142318479E+02  0.10000006544E+02 0.  0.
        -12    1    1    2    0    0 -0.14132942087E+02 -0.42757569604E+02  0.10787090552E+01  0.45045681521E+02  0.00000000000E+00 0.  1.
         11    1    3    3    0    0  0.42201001399E+01  0.11777225830E+02 -0.41826018915E+01  0.13191150529E+02  0.51100000000E-03 0. -1.
        -11    1    3    3    0    0  0.15781049198E+01  0.24236825219E+01  0.12337295462E+01  0.31443188387E+01  0.51100000000E-03 0.  1.
         12    1    3    3    0    0  0.83347370272E+01  0.28556661252E+02  0.18701632901E+01  0.29806849111E+02  0.00000000000E+00 0. -1.
</event>
<event>
 7    1  0.2001181E-008  0.4614232E+02  0.7816164E-02  0.1320468E+00
        -11   -1    0    0    0    0  0.00000000000E+00  0.00000000000E+00  0.45593999997E+02  0.45594000000E+02  0.51100000000E-03 0.  1.
         11   -1    0    0    0    0 -0.00000000000E+00 -0.00000000000E+00 -0.45593999997E+02  0.45594000000E+02  0.51100000000E-03 0. -1.
    9900012    2    1    2    0    0  0.43168670508E+02 -0.63110996504E+01  0.11213805077E+02  0.46142317449E+02  0.99999971507E+01 0.  0.
        -12    1    1    2    0    0 -0.43168670508E+02  0.63110996504E+01 -0.11213805077E+02  0.45045682551E+02  0.00000000000E+00 0.  1.
         11    1    3    3    0    0  0.25922552779E+02 -0.93763094743E+00  0.54755912861E+01  0.26511129636E+02  0.51100000000E-03 0. -1.
        -11    1    3    3    0    0  0.39773600478E+01 -0.24707857280E+01  0.35445272361E+01  0.58726355798E+01  0.51100000000E-03 0.  1.
        -12    1    3    3    0    0  0.13268757681E+02 -0.29026829750E+01  0.21936865551E+01  0.13758552233E+02  0.00000000000E+00 0.  1.
</event>
<event>
 7    1  0.2001181E-008  0.4614232E+02  0.7816164E-02  0.1320468E+00
        -11   -1    0    0    0    0  0.00000000000E+00  0.00000000000E+00  0.45593999997E+02  0.45594000000E+02  0.51100000000E-03 0.  1.
         11   -1    0    0    0    0 -0.00000000000E+00 -0.00000000000E+00 -0.45593999997E+02  0.45594000000E+02  0.51100000000E-03 0. -1.
    9900012    2    1    2    0    0  0.34326478412E+02  0.68219870486E+00 -0.29160603712E+02  0.46142319585E+02  0.10000016629E+02 0.  0.
        -12    1    1    2    0    0 -0.34326478412E+02 -0.68219870486E+00  0.29160603712E+02  0.45045680415E+02  0.00000000000E+00 0.  1.
         11    1    3    3    0    0  0.24798780532E+01  0.13442971254E+01 -0.16108148007E+01  0.32483310335E+01  0.51100000000E-03 0. -1.
        -11    1    3    3    0    0  0.42866094825E+01  0.27979525663E+00 -0.80353627461E+01  0.91115509637E+01  0.51100000000E-03 0.  1.
         12    1    3    3    0    0  0.27559990876E+02 -0.94189367717E+00 -0.19514426165E+02  0.33782437587E+02  0.00000000000E+00 0. -1.
</event>
<event>
 7    1  0.2001181E-008  0.4614232E+02  0.7816164E-02  0.1320468E+00
        -11   -1    0    0    0    0  0.00000000000E+00  0.00000000000E+00  0.45593999997E+02  0.45594000000E+02  0.51100000000E-03 0.  1.
         11   -1    0    0    0    0 -0.00000000000E+00 -0.00000000000E+00 -0.45593999997E+02  0.45594000000E+02  0.51100000000E-03 0. -1.
    9900012    2    1    2    0    0  0.14169871873E+02  0.34933077924E+02 -0.24657823514E+02  0.46142318048E+02  0.10000002613E+02 0.  0.
        -12    1    1    2    0    0 -0.14169871873E+02 -0.34933077924E+02  0.24657823514E+02  0.45045681952E+02  0.00000000000E+00 0.  1.
         11    1    3    3    0    0  0.15704845590E+01  0.41798611196E+01 -0.50728788539E+01  0.67580885505E+01  0.51100000000E-03 0. -1.
        -11    1    3    3    0    0  0.16110629692E+01  0.14032734082E+02 -0.90051074482E+01  0.16751271895E+02  0.51100000000E-03 0.  1.
         12    1    3    3    0    0  0.10988324345E+02  0.16720482723E+02 -0.10579837212E+02  0.22632957602E+02  0.00000000000E+00 0. -1.
</event>
<event>
 7    1  0.2001181E-008  0.4614232E+02  0.7816164E-02  0.1320468E+00
        -11   -1    0    0    0    0  0.00000000000E+00  0.00000000000E+00  0.45593999997E+02  0.45594000000E+02  0.51100000000E-03 0.  1.
         11   -1    0    0    0    0 -0.00000000000E+00 -0.00000000000E+00 -0.45593999997E+02  0.45594000000E+02  0.51100000000E-03 0. -1.
    9900012    2    1    2    0    0  0.17604865569E+02 -0.28866706787E+02 -0.29763995983E+02  0.46142317529E+02  0.99999978799E+01 0.  0.
        -12    1    1    2    0    0 -0.17604865569E+02  0.28866706787E+02  0.29763995983E+02  0.45045682471E+02  0.00000000000E+00 0.  1.
         11    1    3    3    0    0  0.86581898529E+01 -0.86672912539E+01 -0.14148928052E+02  0.18715724792E+02  0.51100000000E-03 0. -1.
        -11    1    3    3    0    0 -0.47653081215E+00 -0.50674440260E+00 -0.70034594154E+00  0.98709483002E+00  0.51100000000E-03 0.  1.
         12    1    3    3    0    0  0.94232065287E+01 -0.19692671130E+02 -0.14914721990E+02  0.26439497907E+02  0.00000000000E+00 0. -1.
</event>
<event>
 7    1  0.2001181E-008  0.4614232E+02  0.7816164E-02  0.1320468E+00
        -11   -1    0    0    0    0  0.00000000000E+00  0.00000000000E+00  0.45593999997E+02  0.45594000000E+02  0.51100000000E-03 0. -1.
         11   -1    0    0    0    0 -0.00000000000E+00 -0.00000000000E+00 -0.45593999997E+02  0.45594000000E+02  0.51100000000E-03 0.  1.
    9900012    2    1    2    0    0  0.55701096597E+01  0.40832847382E+02 -0.18186971643E+02  0.46142317804E+02  0.10000000394E+02 0.  0.
        -12    1    1    2    0    0 -0.55701096597E+01 -0.40832847382E+02  0.18186971643E+02  0.45045682196E+02  0.00000000000E+00 0.  1.
         11    1    3    3    0    0  0.54292183892E+01  0.30796524712E+02 -0.13144233787E+02  0.33921574680E+02  0.51100000000E-03 0. -1.
        -11    1    3    3    0    0 -0.10333064188E+01  0.94308654508E+01 -0.33236079529E+01  0.10052627288E+02  0.51100000000E-03 0.  1.
        -12    1    3    3    0    0  0.11741976894E+01  0.60545721906E+00 -0.17191299022E+01  0.21681158360E+01  0.00000000000E+00 0.  1.
</event>
<event>
 7    1  0.2001181E-008  0.4614232E+02  0.7816164E-02  0.1320468E+00
        -11   -1    0    0    0    0  0.00000000000E+00  0.00000000000E+00  0.45593999997E+02  0.45594000000E+02  0.51100000000E-03 0. -1.
         11   -1    0    0    0    0 -0.00000000000E+00 -0.00000000000E+00 -0.45593999997E+02  0.45594000000E+02  0.51100000000E-03 0.  1.
    9900012    2    1    2    0    0  0.81943016867E+01 -0.44293227487E+02 -0.27725245624E+00  0.46142318184E+02  0.10000003853E+02 0.  0.
        -12    1    1    2    0    0 -0.81943016867E+01  0.44293227487E+02  0.27725245624E+00  0.45045681816E+02  0.00000000000E+00 0.  1.
         11    1    3    3    0    0  0.19602044736E+01 -0.29148355098E+02 -0.33279716771E+01  0.29403135925E+02  0.51100000000E-03 0. -1.
        -11    1    3    3    0    0  0.42251474491E+01 -0.11509266550E+02  0.17375556596E+01  0.12382818234E+02  0.51100000000E-03 0.  1.
         12    1    3    3    0    0  0.20089497641E+01 -0.36356058393E+01  0.13131635613E+01  0.43563640243E+01  0.00000000000E+00 0. -1.
</event>
<event>
 7    1  0.2001181E-008  0.4614232E+02  0.7816164E-02  0.1320468E+00
        -11   -1    0    0    0    0  0.00000000000E+00  0.00000000000E+00  0.45593999997E+02  0.45594000000E+02  0.51100000000E-03 0. -1.
         11   -1    0    0    0    0 -0.00000000000E+00 -0.00000000000E+00 -0.45593999997E+02  0.45594000000E+02  0.51100000000E-03 0.  1.
    9900012    2    1    2    0    0  0.28564713042E+02  0.32229872001E+02  0.13206285471E+02  0.46142318116E+02  0.10000003240E+02 0.  0.
        -12    1    1    2    0    0 -0.28564713042E+02 -0.32229872001E+02 -0.13206285471E+02  0.45045681884E+02  0.00000000000E+00 0.  1.
         11    1    3    3    0    0  0.51965437421E+01  0.17719108905E+01  0.32428531253E+01  0.63765062315E+01  0.51100000000E-03 0.  1.
        -11    1    3    3    0    0  0.16461703105E+02  0.19434799317E+02  0.71964035824E+01  0.26466720960E+02  0.51100000000E-03 0. -1.
         12    1    3    3    0    0  0.69064661951E+01  0.11023161794E+02  0.27670287634E+01  0.13299090924E+02  0.00000000000E+00 0. -1.
</event>
<event>
 7    1  0.2001181E-008  0.4614232E+02  0.7816164E-02  0.1320468E+00
        -11   -1    0    0    0    0  0.00000000000E+00  0.00000000000E+00  0.45593999997E+02  0.45594000000E+02  0.51100000000E-03 0.  1.
         11   -1    0    0    0    0 -0.00000000000E+00 -0.00000000000E+00 -0.45593999997E+02  0.45594000000E+02  0.51100000000E-03 0. -1.
    9900012    2    1    2    0    0  0.24839750734E+02 -0.36880876178E+02  0.72042536429E+01  0.46142317468E+02  0.99999973299E+01 0.  0.
        -12    1    1    2    0    0 -0.24839750734E+02  0.36880876178E+02 -0.72042536429E+01  0.45045682532E+02  0.00000000000E+00 0.  1.
         11    1    3    3    0    0  0.76536335571E+01 -0.16261304785E+02  0.58907800911E+01  0.18913207827E+02  0.51100000000E-03 0. -1.
        -11    1    3    3    0    0  0.14708772586E+02 -0.16356590194E+02  0.25532336380E+01  0.22145090563E+02  0.51100000000E-03 0.  1.
         12    1    3    3    0    0  0.24773445904E+01 -0.42629811985E+01 -0.12397600862E+01  0.50840190784E+01  0.00000000000E+00 0. -1.
</event>
<event>
 7    1  0.2001181E-008  0.4614232E+02  0.7816164E-02  0.1320468E+00
        -11   -1    0    0    0    0  0.00000000000E+00  0.00000000000E+00  0.45593999997E+02  0.45594000000E+02  0.51100000000E-03 0. -1.
         11   -1    0    0    0    0 -0.00000000000E+00 -0.00000000000E+00 -0.45593999997E+02  0.45594000000E+02  0.51100000000E-03 0.  1.
    9900012    2    1    2    0    0  0.42691578147E+02  0.13651311223E+02  0.44927029043E+01  0.46142317386E+02  0.99999965825E+01 0.  0.
        -12    1    1    2    0    0 -0.42691578147E+02 -0.13651311223E+02 -0.44927029043E+01  0.45045682614E+02  0.00000000000E+00 0.  1.
         11    1    3    3    0    0  0.13205917561E+02  0.30811739233E+01  0.24996901233E+01  0.13789066043E+02  0.51100000000E-03 0. -1.
        -11    1    3    3    0    0  0.27072021077E+02  0.11540467630E+02  0.29606480519E+01  0.29577730735E+02  0.51100000000E-03 0.  1.
        -12    1    3    3    0    0  0.24136395088E+01 -0.97033032994E+00 -0.96763527094E+00  0.27755206080E+01  0.00000000000E+00 0.  1.
</event>
<event>
 7    1  0.2001181E-008  0.4614232E+02  0.7816164E-02  0.1320468E+00
        -11   -1    0    0    0    0  0.00000000000E+00  0.00000000000E+00  0.45593999997E+02  0.45594000000E+02  0.51100000000E-03 0. -1.
         11   -1    0    0    0    0 -0.00000000000E+00 -0.00000000000E+00 -0.45593999997E+02  0.45594000000E+02  0.51100000000E-03 0.  1.
    9900012    2    1    2    0    0 -0.14249037975E+02 -0.41430295201E+02  0.10469440689E+02  0.46142316167E+02  0.99999854596E+01 0.  0.
        -12    1    1    2    0    0  0.14249037975E+02  0.41430295201E+02 -0.10469440689E+02  0.45045683833E+02  0.00000000000E+00 0.  1.
         11    1    3    3    0    0 -0.52908837759E+01 -0.15198594585E+02  0.59574253471E+01  0.17160467520E+02  0.51100000000E-03 0. -1.
        -11    1    3    3    0    0 -0.36036625968E+01 -0.89551904170E+01 -0.18105271297E+01  0.98213964519E+01  0.51100000000E-03 0.  1.
        -12    1    3    3    0    0 -0.53544916027E+01 -0.17276510200E+02  0.63225424716E+01  0.19160452195E+02  0.00000000000E+00 0.  1.
</event>
<event>
 7    1  0.2001181E-008  0.4614232E+02  0.7816164E-02  0.1320468E+00
        -11   -1    0    0    0    0  0.00000000000E+00  0.00000000000E+00  0.45593999997E+02  0.45594000000E+02  0.51100000000E-03 0.  1.
         11   -1    0    0    0    0 -0.00000000000E+00 -0.00000000000E+00 -0.45593999997E+02  0.45594000000E+02  0.51100000000E-03 0. -1.
    9900012    2    1    2    0    0 -0.34625111393E+01 -0.30291794286E+02 -0.33159188987E+02  0.46142316536E+02  0.99999888268E+01 0.  0.
        -12    1    1    2    0    0  0.34625111393E+01  0.30291794286E+02  0.33159188987E+02  0.45045683464E+02  0.00000000000E+00 0.  1.
         11    1    3    3    0    0 -0.43985831454E+01 -0.94522346066E+01 -0.11961983084E+02  0.15867618356E+02  0.51100000000E-03 0. -1.
        -11    1    3    3    0    0  0.32172026550E+01 -0.14728193088E+02 -0.15338989117E+02  0.21507083762E+02  0.51100000000E-03 0.  1.
        -12    1    3    3    0    0 -0.22811306488E+01 -0.61113665918E+01 -0.58582167866E+01  0.87676144175E+01  0.00000000000E+00 0.  1.
</event>
<event>
 7    1  0.2001181E-008  0.4614232E+02  0.7816164E-02  0.1320468E+00
        -11   -1    0    0    0    0  0.00000000000E+00  0.00000000000E+00  0.45593999997E+02  0.45594000000E+02  0.51100000000E-03 0.  1.
         11   -1    0    0    0    0 -0.00000000000E+00 -0.00000000000E+00 -0.45593999997E+02  0.45594000000E+02  0.51100000000E-03 0. -1.
    9900012    2    1    2    0    0 -0.35063247003E+02 -0.11239103914E+01 -0.28256311664E+02  0.46142316369E+02  0.99999873017E+01 0.  0.
        -12    1    1    2    0    0  0.35063247003E+02  0.11239103914E+01  0.28256311664E+02  0.45045683631E+02  0.00000000000E+00 0.  1.
         11    1    3    3    0    0 -0.18632885710E+02 -0.16093702829E+01 -0.18756630795E+02  0.26487463103E+02  0.51100000000E-03 0. -1.
        -11    1    3    3    0    0 -0.19239172333E+00  0.91397411316E+00 -0.79130107668E+00  0.12241408864E+01  0.51100000000E-03 0.  1.
         12    1    3    3    0    0 -0.16237969570E+02 -0.42851422166E+00 -0.87083797914E+01  0.18430712379E+02  0.00000000000E+00 0. -1.
</event>
<event>
 7    1  0.2001181E-008  0.4614232E+02  0.7816164E-02  0.1320468E+00
        -11   -1    0    0    0    0  0.00000000000E+00  0.00000000000E+00  0.45593999997E+02  0.45594000000E+02  0.51100000000E-03 0.  1.
         11   -1    0    0    0    0 -0.00000000000E+00 -0.00000000000E+00 -0.45593999997E+02  0.45594000000E+02  0.51100000000E-03 0. -1.
    9900012    2    1    2    0    0 -0.38323639738E+01  0.13056168789E+02 -0.42941391512E+02  0.46142315833E+02  0.99999824138E+01 0.  0.
        -12    1    1    2    0    0  0.38323639738E+01 -0.13056168789E+02  0.42941391512E+02  0.45045684167E+02  0.00000000000E+00 0.  1.
         11    1    3    3    0    0 -0.18762727642E+01  0.94611557198E+01 -0.16237459211E+02  0.18886210550E+02  0.51100000000E-03 0. -1.
        -11    1    3    3    0    0 -0.21108367549E+01  0.64571218483E+00 -0.72289244136E+01  0.75584339959E+01  0.51100000000E-03 0.  1.
         12    1    3    3    0    0  0.15474554541E+00  0.29493008848E+01 -0.19475007888E+02  0.19697671287E+02  0.00000000000E+00 0. -1.
</event>
<event>
 7    1  0.2001181E-008  0.4614232E+02  0.7816164E-02  0.1320468E+00
        -11   -1    0    0    0    0  0.00000000000E+00  0.00000000000E+00  0.45593999997E+02  0.45594000000E+02  0.51100000000E-03 0.  1.
         11   -1    0    0    0    0 -0.00000000000E+00 -0.00000000000E+00 -0.45593999997E+02  0.45594000000E+02  0.51100000000E-03 0. -1.
    9900012    2    1    2    0    0  0.34355612132E+02  0.28599039591E+02  0.55588152913E+01  0.46142316767E+02  0.99999909343E+01 0.  0.
        -12    1    1    2    0    0 -0.34355612132E+02 -0.28599039591E+02 -0.55588152913E+01  0.45045683233E+02  0.00000000000E+00 0.  1.
         11    1    3    3    0    0  0.26129643274E+02  0.16981717867E+02  0.36494666980E+01  0.31376035549E+02  0.51100000000E-03 0.  1.
        -11    1    3    3    0    0  0.78325082000E+00  0.10880839737E+01 -0.84026052415E+00  0.15822283623E+01  0.51100000000E-03 0. -1.
        -12    1    3    3    0    0  0.74427180379E+01  0.10529237750E+02  0.27496091174E+01  0.13184052855E+02  0.00000000000E+00 0.  1.
</event>
<event>
 7    1  0.2001181E-008  0.4614232E+02  0.7816164E-02  0.1320468E+00
        -11   -1    0    0    0    0  0.00000000000E+00  0.00000000000E+00  0.45593999997E+02  0.45594000000E+02  0.51100000000E-03 0.  1.
         11   -1    0    0    0    0 -0.00000000000E+00 -0.00000000000E+00 -0.45593999997E+02  0.45594000000E+02  0.51100000000E-03 0. -1.
    9900012    2    1    2    0    0  0.29901420228E+01 -0.27794826454E+02 -0.35321666186E+02  0.46142318419E+02  0.10000006001E+02 0.  0.
        -12    1    1    2    0    0 -0.29901420228E+01  0.27794826454E+02  0.35321666186E+02  0.45045681581E+02  0.00000000000E+00 0.  1.
         11    1    3    3    0    0  0.19211878175E+01 -0.13481155780E+02 -0.17704138372E+02  0.22335376414E+02  0.51100000000E-03 0. -1.
        -11    1    3    3    0    0  0.26276412792E+01 -0.14028441988E+02 -0.14712076875E+02  0.20497484957E+02  0.51100000000E-03 0.  1.
        -12    1    3    3    0    0 -0.15586870739E+01 -0.28522868541E+00 -0.29054509387E+01  0.33094570483E+01  0.00000000000E+00 0.  1.
</event>
<event>
 7    1  0.2001181E-008  0.4614232E+02  0.7816164E-02  0.1320468E+00
        -11   -1    0    0    0    0  0.00000000000E+00  0.00000000000E+00  0.45593999997E+02  0.45594000000E+02  0.51100000000E-03 0. -1.
         11   -1    0    0    0    0 -0.00000000000E+00 -0.00000000000E+00 -0.45593999997E+02  0.45594000000E+02  0.51100000000E-03 0.  1.
    9900012    2    1    2    0    0 -0.15696878076E+01  0.32300030119E+02  0.31358532671E+02  0.46142318334E+02  0.10000005220E+02 0.  0.
        -12    1    1    2    0    0  0.15696878076E+01 -0.32300030119E+02 -0.31358532671E+02  0.45045681666E+02  0.00000000000E+00 0.  1.
         11    1    3    3    0    0 -0.20786333896E+01  0.39990090205E+01  0.23137263423E+01  0.50661740754E+01  0.51100000000E-03 0. -1.
        -11    1    3    3    0    0 -0.14172303857E+01  0.12276875515E+01  0.14506987810E+01  0.23707142182E+01  0.51100000000E-03 0.  1.
         12    1    3    3    0    0  0.19261759676E+01  0.27073333547E+02  0.27594107548E+02  0.38705430040E+02  0.00000000000E+00 0. -1.
</event>
<event>
 7    1  0.2001181E-008  0.4614232E+02  0.7816164E-02  0.1320468E+00
        -11   -1    0    0    0    0  0.00000000000E+00  0.00000000000E+00  0.45593999997E+02  0.45594000000E+02  0.51100000000E-03 0.  1.
         11   -1    0    0    0    0 -0.00000000000E+00 -0.00000000000E+00 -0.45593999997E+02  0.45594000000E+02  0.51100000000E-03 0. -1.
    9900012    2    1    2    0    0  0.35938613393E+02 -0.17287991643E+02 -0.20944089097E+02  0.46142318123E+02  0.10000003303E+02 0.  0.
        -12    1    1    2    0    0 -0.35938613393E+02  0.17287991643E+02  0.20944089097E+02  0.45045681877E+02  0.00000000000E+00 0.  1.
         11    1    3    3    0    0  0.65481079784E+01 -0.53875486818E+01 -0.84508728732E+01  0.11971660348E+02  0.51100000000E-03 0. -1.
        -11    1    3    3    0    0  0.39869167067E+01 -0.17102406314E+01 -0.82419293511E+00  0.44158489669E+01  0.51100000000E-03 0.  1.
         12    1    3    3    0    0  0.25403588707E+02 -0.10190202330E+02 -0.11669023288E+02  0.29754808809E+02  0.00000000000E+00 0. -1.
</event>
<event>
 7    1  0.2001181E-008  0.4614232E+02  0.7816164E-02  0.1320468E+00
        -11   -1    0    0    0    0  0.00000000000E+00  0.00000000000E+00  0.45593999997E+02  0.45594000000E+02  0.51100000000E-03 0.  1.
         11   -1    0    0    0    0 -0.00000000000E+00 -0.00000000000E+00 -0.45593999997E+02  0.45594000000E+02  0.51100000000E-03 0. -1.
    9900012    2    1    2    0    0 -0.19564729367E+02  0.33069416193E+02 -0.23510607680E+02  0.46142316566E+02  0.99999891036E+01 0.  0.
        -12    1    1    2    0    0  0.19564729367E+02 -0.33069416193E+02  0.23510607680E+02  0.45045683434E+02  0.00000000000E+00 0.  1.
         11    1    3    3    0    0 -0.50231218468E+01  0.11120312861E+02 -0.65913293492E+01  0.13868624087E+02  0.51100000000E-03 0. -1.
        -11    1    3    3    0    0 -0.58240825927E+01  0.30939819067E+01 -0.53799897192E+01  0.85109900555E+01  0.51100000000E-03 0.  1.
        -12    1    3    3    0    0 -0.87175249277E+01  0.18855121425E+02 -0.11539288612E+02  0.23762702424E+02  0.00000000000E+00 0.  1.
</event>
<event>
 7    1  0.2001181E-008  0.4614232E+02  0.7816164E-02  0.1320468E+00
        -11   -1    0    0    0    0  0.00000000000E+00  0.00000000000E+00  0.45593999997E+02  0.45594000000E+02  0.51100000000E-03 0.  1.
         11   -1    0    0    0    0 -0.00000000000E+00 -0.00000000000E+00 -0.45593999997E+02  0.45594000000E+02  0.51100000000E-03 0. -1.
    9900012    2    1    2    0    0 -0.27058333623E+02  0.34068202794E+02 -0.11675518803E+02  0.46142316529E+02  0.99999887623E+01 0.  0.
        -12    1    1    2    0    0  0.27058333623E+02 -0.34068202794E+02  0.11675518803E+02  0.45045683471E+02  0.00000000000E+00 0.  1.
         11    1    3    3    0    0 -0.82981207179E+01  0.15697252768E+02 -0.64798417245E+01  0.18901082005E+02  0.51100000000E-03 0. -1.
        -11    1    3    3    0    0 -0.30472318358E+01  0.52117019476E+01 -0.26323774783E+01  0.65861119411E+01  0.51100000000E-03 0.  1.
        -12    1    3    3    0    0 -0.15712981069E+02  0.13159248079E+02 -0.25632995998E+01  0.20655122583E+02  0.00000000000E+00 0.  1.
</event>
<event>
 7    1  0.2001181E-008  0.4614232E+02  0.7816164E-02  0.1320468E+00
        -11   -1    0    0    0    0  0.00000000000E+00  0.00000000000E+00  0.45593999997E+02  0.45594000000E+02  0.51100000000E-03 0. -1.
         11   -1    0    0    0    0 -0.00000000000E+00 -0.00000000000E+00 -0.45593999997E+02  0.45594000000E+02  0.51100000000E-03 0.  1.
    9900012    2    1    2    0    0  0.53957852136E+01 -0.11009784721E+02  0.43344939413E+02  0.46142316184E+02  0.99999856213E+01 0.  0.
        -12    1    1    2    0    0 -0.53957852136E+01  0.11009784721E+02 -0.43344939413E+02  0.45045683816E+02  0.00000000000E+00 0.  1.
         11    1    3    3    0    0  0.47429318722E-01 -0.24368534084E+01  0.11896491007E+01  0.27121521562E+01  0.51100000000E-03 0.  1.
        -11    1    3    3    0    0  0.73401948454E+00 -0.35214627085E+01  0.15274618420E+02  0.15692464827E+02  0.51100000000E-03 0. -1.
        -12    1    3    3    0    0  0.46143364104E+01 -0.50514686042E+01  0.26880671892E+02  0.27737699201E+02  0.00000000000E+00 0.  1.
</event>
<event>
 7    1  0.2001181E-008  0.4614232E+02  0.7816164E-02  0.1320468E+00
        -11   -1    0    0    0    0  0.00000000000E+00  0.00000000000E+00  0.45593999997E+02  0.45594000000E+02  0.51100000000E-03 0.  1.
         11   -1    0    0    0    0 -0.00000000000E+00 -0.00000000000E+00 -0.45593999997E+02  0.45594000000E+02  0.51100000000E-03 0. -1.
    9900012    2    1    2    0    0 -0.17293442214E+01 -0.19655536999E+02 -0.40494231153E+02  0.46142317379E+02  0.99999965163E+01 0.  0.
        -12    1    1    2    0    0  0.17293442214E+01  0.19655536999E+02  0.40494231153E+02  0.45045682621E+02  0.00000000000E+00 0.  1.
         11    1    3    3    0    0  0.67242712661E+00 -0.36129835468E+01 -0.49654369335E+01  0.61774891786E+01  0.51100000000E-03 0. -1.
        -11    1    3    3    0    0 -0.25027004906E+01 -0.11629651789E+02 -0.32507643478E+02  0.34615880679E+02  0.51100000000E-03 0.  1.
        -12    1    3    3    0    0  0.10092914259E+00 -0.44129016634E+01 -0.30211507415E+01  0.53489475213E+01  0.00000000000E+00 0.  1.
</event>
<event>
 7    1  0.2001181E-008  0.4614232E+02  0.7816164E-02  0.1320468E+00
        -11   -1    0    0    0    0  0.00000000000E+00  0.00000000000E+00  0.45593999997E+02  0.45594000000E+02  0.51100000000E-03 0.  1.
         11   -1    0    0    0    0 -0.00000000000E+00 -0.00000000000E+00 -0.45593999997E+02  0.45594000000E+02  0.51100000000E-03 0. -1.
    9900012    2    1    2    0    0 -0.32249615745E+02  0.81761921931E+01 -0.30368168354E+02  0.46142317813E+02  0.10000000477E+02 0.  0.
        -12    1    1    2    0    0  0.32249615745E+02 -0.81761921931E+01  0.30368168354E+02  0.45045682187E+02  0.00000000000E+00 0.  1.
         11    1    3    3    0    0 -0.63751020714E+01  0.32644318948E+01 -0.39631801936E+01  0.81856728206E+01  0.51100000000E-03 0. -1.
        -11    1    3    3    0    0 -0.14882717649E+01  0.22688276403E+01 -0.31310049888E+01  0.41431538963E+01  0.51100000000E-03 0.  1.
         12    1    3    3    0    0 -0.24386241909E+02  0.26429326580E+01 -0.23273983172E+02  0.33813491097E+02  0.00000000000E+00 0. -1.
</event>
<event>
 7    1  0.2001181E-008  0.4614232E+02  0.7816164E-02  0.1320468E+00
        -11   -1    0    0    0    0  0.00000000000E+00  0.00000000000E+00  0.45593999997E+02  0.45594000000E+02  0.51100000000E-03 0. -1.
         11   -1    0    0    0    0 -0.00000000000E+00 -0.00000000000E+00 -0.45593999997E+02  0.45594000000E+02  0.51100000000E-03 0.  1.
    9900012    2    1    2    0    0 -0.30849620792E+02  0.35487590532E+01  0.32631591681E+02  0.46142316861E+02  0.99999917951E+01 0.  0.
        -12    1    1    2    0    0  0.30849620792E+02 -0.35487590532E+01 -0.32631591681E+02  0.45045683139E+02  0.00000000000E+00 0.  1.
         11    1    3    3    0    0 -0.10671696939E+02  0.12124560975E+01  0.92333741793E+01  0.14163698823E+02  0.51100000000E-03 0. -1.
        -11    1    3    3    0    0 -0.20662848146E+02  0.28909911754E+01  0.21579958173E+02  0.30016757295E+02  0.51100000000E-03 0.  1.
        -12    1    3    3    0    0  0.48492429370E+00 -0.55468821966E+00  0.18182593282E+01  0.19618607433E+01  0.00000000000E+00 0.  1.
</event>
<event>
 7    1  0.2001181E-008  0.4614231E+02  0.7816164E-02  0.1320468E+00
        -11   -1    0    0    0    0  0.00000000000E+00  0.00000000000E+00  0.45593999997E+02  0.45594000000E+02  0.51100000000E-03 0. -1.
         11   -1    0    0    0    0 -0.00000000000E+00 -0.00000000000E+00 -0.45593999997E+02  0.45594000000E+02  0.51100000000E-03 0.  1.
    9900012    2    1    2    0    0  0.39849399168E+02  0.18985570115E+02 -0.89826137019E+01  0.46142313908E+02  0.99999648610E+01 0.  0.
        -12    1    1    2    0    0 -0.39849399168E+02 -0.18985570115E+02  0.89826137019E+01  0.45045686092E+02  0.00000000000E+00 0.  1.
         11    1    3    3    0    0  0.68805900055E+01  0.93145902869E+00 -0.21179090826E+01  0.72591785960E+01  0.51100000000E-03 0. -1.
        -11    1    3    3    0    0  0.38165058503E+01  0.55829144918E+00 -0.25197056476E+01  0.46072033881E+01  0.51100000000E-03 0.  1.
        -12    1    3    3    0    0  0.29152303312E+02  0.17495819637E+02 -0.43449989717E+01  0.34275931924E+02  0.00000000000E+00 0.  1.
</event>
<event>
 7    1  0.2001181E-008  0.4614232E+02  0.7816164E-02  0.1320468E+00
        -11   -1    0    0    0    0  0.00000000000E+00  0.00000000000E+00  0.45593999997E+02  0.45594000000E+02  0.51100000000E-03 0.  1.
         11   -1    0    0    0    0 -0.00000000000E+00 -0.00000000000E+00 -0.45593999997E+02  0.45594000000E+02  0.51100000000E-03 0. -1.
    9900012    2    1    2    0    0 -0.10851589235E+02 -0.18980968964E+01 -0.43677842110E+02  0.46142315943E+02  0.99999834234E+01 0.  0.
        -12    1    1    2    0    0  0.10851589235E+02  0.18980968964E+01  0.43677842110E+02  0.45045684057E+02  0.00000000000E+00 0.  1.
         11    1    3    3    0    0 -0.61594918162E+01 -0.46958035154E+01 -0.23691557818E+02  0.24925485396E+02  0.51100000000E-03 0. -1.
        -11    1    3    3    0    0 -0.38727137150E+01  0.12871251829E+01 -0.18499957066E+02  0.18944735798E+02  0.51100000000E-03 0.  1.
        -12    1    3    3    0    0 -0.81938370355E+00  0.15105814361E+01 -0.14863272257E+01  0.22720947495E+01  0.00000000000E+00 0.  1.
</event>
<event>
 7    1  0.2001181E-008  0.4614232E+02  0.7816164E-02  0.1320468E+00
        -11   -1    0    0    0    0  0.00000000000E+00  0.00000000000E+00  0.45593999997E+02  0.45594000000E+02  0.51100000000E-03 0.  1.
         11   -1    0    0    0    0 -0.00000000000E+00 -0.00000000000E+00 -0.45593999997E+02  0.45594000000E+02  0.51100000000E-03 0. -1.
    9900012    2    1    2    0    0  0.31121807197E+02 -0.17755564896E+02 -0.27299937111E+02  0.46142317251E+02  0.99999953512E+01 0.  0.
        -12    1    1    2    0    0 -0.31121807197E+02  0.17755564896E+02  0.27299937111E+02  0.45045682749E+02  0.00000000000E+00 0.  1.
         11    1    3    3    0    0  0.48528913365E+01 -0.21803588102E+01 -0.67789312946E+01  0.86173330343E+01  0.51100000000E-03 0.  1.
        -11    1    3    3    0    0  0.70849463497E+01 -0.80681190184E+01 -0.83089280879E+01  0.13576792534E+02  0.51100000000E-03 0. -1.
        -12    1    3    3    0    0  0.19183969511E+02 -0.75070870674E+01 -0.12212077729E+02  0.23948191683E+02  0.00000000000E+00 0.  1.
</event>
<event>
 7    1  0.2001181E-008  0.4614232E+02  0.7816164E-02  0.1320468E+00
        -11   -1    0    0    0    0  0.00000000000E+00  0.00000000000E+00  0.45593999997E+02  0.45594000000E+02  0.51100000000E-03 0. -1.
         11   -1    0    0    0    0 -0.00000000000E+00 -0.00000000000E+00 -0.45593999997E+02  0.45594000000E+02  0.51100000000E-03 0.  1.
    9900012    2    1    2    0    0  0.15416240233E+02  0.42296925732E+02 -0.15566117698E+01  0.46142318415E+02  0.10000005962E+02 0.  0.
        -12    1    1    2    0    0 -0.15416240233E+02 -0.42296925732E+02  0.15566117698E+01  0.45045681585E+02  0.00000000000E+00 0.  1.
         11    1    3    3    0    0  0.10127733590E+02  0.18964161106E+02 -0.26750642709E+01  0.21664864718E+02  0.51100000000E-03 0. -1.
        -11    1    3    3    0    0 -0.81494436752E+00  0.58561524965E+01 -0.22659146678E+00  0.59169249056E+01  0.51100000000E-03 0.  1.
        -12    1    3    3    0    0  0.61034510101E+01  0.17476612129E+02  0.13450439679E+01  0.18560528791E+02  0.00000000000E+00 0.  1.
</event>
<event>
 7    1  0.2001181E-008  0.4614232E+02  0.7816164E-02  0.1320468E+00
        -11   -1    0    0    0    0  0.00000000000E+00  0.00000000000E+00  0.45593999997E+02  0.45594000000E+02  0.51100000000E-03 0.  1.
         11   -1    0    0    0    0 -0.00000000000E+00 -0.00000000000E+00 -0.45593999997E+02  0.45594000000E+02  0.51100000000E-03 0. -1.
    9900012    2    1    2    0    0  0.28453488161E+02  0.12770894176E+01 -0.34898159485E+02  0.46142317839E+02  0.10000000707E+02 0.  0.
        -12    1    1    2    0    0 -0.28453488161E+02 -0.12770894176E+01  0.34898159485E+02  0.45045682161E+02  0.00000000000E+00 0.  1.
         11    1    3    3    0    0  0.64592792788E+01 -0.29763926436E+01 -0.71396096820E+01  0.10077461419E+02  0.51100000000E-03 0. -1.
        -11    1    3    3    0    0  0.17834835079E+02  0.29897195028E+01 -0.18680425427E+02  0.25999578062E+02  0.51100000000E-03 0.  1.
         12    1    3    3    0    0  0.41593738041E+01  0.12637625584E+01 -0.90781243759E+01  0.10065278358E+02  0.00000000000E+00 0. -1.
</event>
<event>
 7    1  0.2001181E-008  0.4614232E+02  0.7816164E-02  0.1320468E+00
        -11   -1    0    0    0    0  0.00000000000E+00  0.00000000000E+00  0.45593999997E+02  0.45594000000E+02  0.51100000000E-03 0. -1.
         11   -1    0    0    0    0 -0.00000000000E+00 -0.00000000000E+00 -0.45593999997E+02  0.45594000000E+02  0.51100000000E-03 0.  1.
    9900012    2    1    2    0    0  0.42062291403E+01  0.88827370361E+01  0.43960414955E+02  0.46142318033E+02  0.10000002479E+02 0.  0.
        -12    1    1    2    0    0 -0.42062291403E+01 -0.88827370361E+01 -0.43960414955E+02  0.45045681967E+02  0.00000000000E+00 0.  1.
         11    1    3    3    0    0  0.36323960816E+01  0.87036677806E+01  0.21167125401E+02  0.23173159736E+02  0.51100000000E-03 0. -1.
        -11    1    3    3    0    0  0.10578103048E+01  0.12240989372E+01  0.10769446185E+02  0.10890287059E+02  0.51100000000E-03 0.  1.
        -12    1    3    3    0    0 -0.48397724612E+00 -0.10450296816E+01  0.12023843369E+02  0.12078871238E+02  0.00000000000E+00 0.  1.
</event>
<event>
 7    1  0.2001181E-008  0.4614232E+02  0.7816164E-02  0.1320468E+00
        -11   -1    0    0    0    0  0.00000000000E+00  0.00000000000E+00  0.45593999997E+02  0.45594000000E+02  0.51100000000E-03 0.  1.
         11   -1    0    0    0    0 -0.00000000000E+00 -0.00000000000E+00 -0.45593999997E+02  0.45594000000E+02  0.51100000000E-03 0. -1.
    9900012    2    1    2    0    0  0.12852114695E+02 -0.12130907759E+02 -0.41434016174E+02  0.46142317949E+02  0.10000001709E+02 0.  0.
        -12    1    1    2    0    0 -0.12852114695E+02  0.12130907759E+02  0.41434016174E+02  0.45045682051E+02  0.00000000000E+00 0.  1.
         11    1    3    3    0    0  0.82869802865E+00 -0.95417198197E+00 -0.18890533033E+01  0.22728192268E+01  0.51100000000E-03 0. -1.
        -11    1    3    3    0    0  0.98957934507E+01 -0.87672200145E+01 -0.19442961340E+02  0.23512116467E+02  0.51100000000E-03 0.  1.
         12    1    3    3    0    0  0.21276232156E+01 -0.24095157627E+01 -0.20102001530E+02  0.20357382255E+02  0.00000000000E+00 0. -1.
</event>
<event>
 7    1  0.2001181E-008  0.4614231E+02  0.7816164E-02  0.1320468E+00
        -11   -1    0    0    0    0  0.00000000000E+00  0.00000000000E+00  0.45593999997E+02  0.45594000000E+02  0.51100000000E-03 0.  1.
         11   -1    0    0    0    0 -0.00000000000E+00 -0.00000000000E+00 -0.45593999997E+02  0.45594000000E+02  0.51100000000E-03 0. -1.
    9900012    2    1    2    0    0  0.34853071733E+02 -0.24108455818E+02 -0.15269574650E+02  0.46142310293E+02  0.99999319025E+01 0.  0.
        -12    1    1    2    0    0 -0.34853071733E+02  0.24108455818E+02  0.15269574650E+02  0.45045689707E+02  0.00000000000E+00 0.  1.
         11    1    3    3    0    0  0.19058611883E+02 -0.90277895712E+01 -0.81804263433E+01  0.22619704836E+02  0.51100000000E-03 0. -1.
        -11    1    3    3    0    0  0.92144686107E+01 -0.87870294075E+01 -0.14557074777E+01  0.12815514118E+02  0.51100000000E-03 0.  1.
        -12    1    3    3    0    0  0.65799912395E+01 -0.62936368394E+01 -0.56334408292E+01  0.10707091340E+02  0.00000000000E+00 0.  1.
</event>
<event>
 7    1  0.2001181E-008  0.4614232E+02  0.7816164E-02  0.1320468E+00
        -11   -1    0    0    0    0  0.00000000000E+00  0.00000000000E+00  0.45593999997E+02  0.45594000000E+02  0.51100000000E-03 0. -1.
         11   -1    0    0    0    0 -0.00000000000E+00 -0.00000000000E+00 -0.45593999997E+02  0.45594000000E+02  0.51100000000E-03 0.  1.
    9900012    2    1    2    0    0  0.46582240815E+01  0.36610083511E+02  0.25828594008E+02  0.46142317247E+02  0.99999953115E+01 0.  0.
        -12    1    1    2    0    0 -0.46582240815E+01 -0.36610083511E+02 -0.25828594008E+02  0.45045682753E+02  0.00000000000E+00 0.  1.
         11    1    3    3    0    0  0.12729037775E+01  0.27666543790E+02  0.22724831361E+02  0.35825631745E+02  0.51100000000E-03 0. -1.
        -11    1    3    3    0    0  0.10519623957E+01  0.59108679305E+01  0.21046006936E+01  0.63619438000E+01  0.51100000000E-03 0.  1.
         12    1    3    3    0    0  0.23333579083E+01  0.30326717905E+01  0.99916195302E+00  0.39547417015E+01  0.00000000000E+00 0. -1.
</event>
<event>
 7    1  0.2001181E-008  0.4614232E+02  0.7816164E-02  0.1320468E+00
        -11   -1    0    0    0    0  0.00000000000E+00  0.00000000000E+00  0.45593999997E+02  0.45594000000E+02  0.51100000000E-03 0. -1.
         11   -1    0    0    0    0 -0.00000000000E+00 -0.00000000000E+00 -0.45593999997E+02  0.45594000000E+02  0.51100000000E-03 0.  1.
    9900012    2    1    2    0    0 -0.16508040246E+02  0.62757782615E+01  0.41439267909E+02  0.46142315296E+02  0.99999775257E+01 0.  0.
        -12    1    1    2    0    0  0.16508040246E+02 -0.62757782615E+01 -0.41439267909E+02  0.45045684704E+02  0.00000000000E+00 0.  1.
         11    1    3    3    0    0 -0.26902216447E+00 -0.64189064838E+00  0.12030298044E+00  0.70630701375E+00  0.51100000000E-03 0. -1.
        -11    1    3    3    0    0 -0.23690664390E+01 -0.11359501814E+01  0.36734233886E+01  0.45162925348E+01  0.51100000000E-03 0.  1.
         12    1    3    3    0    0 -0.13869951642E+02  0.80536190913E+01  0.37645541540E+02  0.40919715748E+02  0.00000000000E+00 0. -1.
</event>
<event>
 7    1  0.2001181E-008  0.4614232E+02  0.7816164E-02  0.1320468E+00
        -11   -1    0    0    0    0  0.00000000000E+00  0.00000000000E+00  0.45593999997E+02  0.45594000000E+02  0.51100000000E-03 0. -1.
         11   -1    0    0    0    0 -0.00000000000E+00 -0.00000000000E+00 -0.45593999997E+02  0.45594000000E+02  0.51100000000E-03 0.  1.
    9900012    2    1    2    0    0  0.29419055776E+02 -0.30920802120E+02  0.14406132215E+02  0.46142317722E+02  0.99999996397E+01 0.  0.
        -12    1    1    2    0    0 -0.29419055776E+02  0.30920802120E+02 -0.14406132215E+02  0.45045682278E+02  0.00000000000E+00 0.  1.
         11    1    3    3    0    0  0.11525187069E+02 -0.11166965213E+02  0.61440499529E+00  0.16059531213E+02  0.51100000000E-03 0. -1.
        -11    1    3    3    0    0  0.76769987726E+01 -0.73195500700E+01  0.62304246612E+01  0.12301638716E+02  0.51100000000E-03 0.  1.
         12    1    3    3    0    0  0.10216869935E+02 -0.12434286838E+02  0.75613025582E+01  0.17781147792E+02  0.00000000000E+00 0. -1.
</event>
<event>
 7    1  0.2001181E-008  0.4614232E+02  0.7816164E-02  0.1320468E+00
        -11   -1    0    0    0    0  0.00000000000E+00  0.00000000000E+00  0.45593999997E+02  0.45594000000E+02  0.51100000000E-03 0. -1.
         11   -1    0    0    0    0 -0.00000000000E+00 -0.00000000000E+00 -0.45593999997E+02  0.45594000000E+02  0.51100000000E-03 0.  1.
    9900012    2    1    2    0    0  0.42784905958E+02 -0.12125094523E+02 -0.71796504935E+01  0.46142317896E+02  0.10000001226E+02 0.  0.
        -12    1    1    2    0    0 -0.42784905958E+02  0.12125094523E+02  0.71796504935E+01  0.45045682104E+02  0.00000000000E+00 0.  1.
         11    1    3    3    0    0  0.22781498035E+02 -0.72423419746E+01 -0.39137088297E+01  0.24223238575E+02  0.51100000000E-03 0. -1.
        -11    1    3    3    0    0  0.18860143337E+02 -0.62709650881E+01 -0.30418538845E+01  0.20106787042E+02  0.51100000000E-03 0.  1.
        -12    1    3    3    0    0  0.11432645863E+01  0.13882125401E+01 -0.22408777928E+00  0.18122922787E+01  0.00000000000E+00 0.  1.
</event>
<event>
 7    1  0.2001181E-008  0.4614232E+02  0.7816164E-02  0.1320468E+00
        -11   -1    0    0    0    0  0.00000000000E+00  0.00000000000E+00  0.45593999997E+02  0.45594000000E+02  0.51100000000E-03 0. -1.
         11   -1    0    0    0    0 -0.00000000000E+00 -0.00000000000E+00 -0.45593999997E+02  0.45594000000E+02  0.51100000000E-03 0.  1.
    9900012    2    1    2    0    0 -0.34712958780E+02  0.11709902326E+02  0.26210726070E+02  0.46142317845E+02  0.10000000761E+02 0.  0.
        -12    1    1    2    0    0  0.34712958780E+02 -0.11709902326E+02 -0.26210726070E+02  0.45045682155E+02  0.00000000000E+00 0.  1.
         11    1    3    3    0    0 -0.85714706943E+01  0.67458655196E+00  0.45196748220E+01  0.97135285883E+01  0.51100000000E-03 0. -1.
        -11    1    3    3    0    0 -0.11314100465E+02  0.65564016724E+01  0.60228001298E+01  0.14396853611E+02  0.51100000000E-03 0.  1.
         12    1    3    3    0    0 -0.14827387620E+02  0.44789141021E+01  0.15668251118E+02  0.22031935645E+02  0.00000000000E+00 0. -1.
</event>
<event>
 7    1  0.2001181E-008  0.4614232E+02  0.7816164E-02  0.1320468E+00
        -11   -1    0    0    0    0  0.00000000000E+00  0.00000000000E+00  0.45593999997E+02  0.45594000000E+02  0.51100000000E-03 0.  1.
         11   -1    0    0    0    0 -0.00000000000E+00 -0.00000000000E+00 -0.45593999997E+02  0.45594000000E+02  0.51100000000E-03 0. -1.
    9900012    2    1    2    0    0  0.16515805416E+02  0.23904303652E+02 -0.34422750504E+02  0.46142319698E+02  0.10000017659E+02 0.  0.
        -12    1    1    2    0    0 -0.16515805416E+02 -0.23904303652E+02  0.34422750504E+02  0.45045680302E+02  0.00000000000E+00 0.  1.
         11    1    3    3    0    0  0.53292655249E+01  0.82256548914E+01 -0.94406480327E+01  0.13608390976E+02  0.51100000000E-03 0. -1.
        -11    1    3    3    0    0  0.66834400739E+01  0.12917559509E+02 -0.22263641402E+02  0.26593259365E+02  0.51100000000E-03 0.  1.
         12    1    3    3    0    0  0.45030998170E+01  0.27610892512E+01 -0.27184610694E+01  0.59406693563E+01  0.00000000000E+00 0. -1.
</event>
<event>
 7    1  0.2001181E-008  0.4614232E+02  0.7816164E-02  0.1320468E+00
        -11   -1    0    0    0    0  0.00000000000E+00  0.00000000000E+00  0.45593999997E+02  0.45594000000E+02  0.51100000000E-03 0.  1.
         11   -1    0    0    0    0 -0.00000000000E+00 -0.00000000000E+00 -0.45593999997E+02  0.45594000000E+02  0.51100000000E-03 0. -1.
    9900012    2    1    2    0    0  0.11906788994E+02 -0.35051066995E+02 -0.25666409033E+02  0.46142317917E+02  0.10000001423E+02 0.  0.
        -12    1    1    2    0    0 -0.11906788994E+02  0.35051066995E+02  0.25666409033E+02  0.45045682083E+02  0.00000000000E+00 0.  1.
         11    1    3    3    0    0  0.87759683381E+01 -0.24212967636E+02 -0.17200118358E+02  0.30969815850E+02  0.51100000000E-03 0. -1.
        -11    1    3    3    0    0 -0.31400778038E+00 -0.98607595634E+00 -0.34324531606E+01  0.35850636868E+01  0.51100000000E-03 0.  1.
        -12    1    3    3    0    0  0.34448284361E+01 -0.98520234032E+01 -0.50338375139E+01  0.11587438380E+02  0.00000000000E+00 0.  1.
</event>
<event>
 7    1  0.2001181E-008  0.4614232E+02  0.7816164E-02  0.1320468E+00
        -11   -1    0    0    0    0  0.00000000000E+00  0.00000000000E+00  0.45593999997E+02  0.45594000000E+02  0.51100000000E-03 0.  1.
         11   -1    0    0    0    0 -0.00000000000E+00 -0.00000000000E+00 -0.45593999997E+02  0.45594000000E+02  0.51100000000E-03 0. -1.
    9900012    2    1    2    0    0 -0.27182621801E+02 -0.18964842843E+02 -0.30504971474E+02  0.46142317891E+02  0.10000001183E+02 0.  0.
        -12    1    1    2    0    0  0.27182621801E+02  0.18964842843E+02  0.30504971474E+02  0.45045682109E+02  0.00000000000E+00 0.  1.
         11    1    3    3    0    0 -0.20712036464E+02 -0.11483600349E+02 -0.17012022095E+02  0.29159396899E+02  0.51100000000E-03 0. -1.
        -11    1    3    3    0    0  0.16526045329E+00  0.12441247523E+00 -0.16718778944E+00  0.26597274197E+00  0.51100000000E-03 0.  1.
         12    1    3    3    0    0 -0.66358457908E+01 -0.76056549686E+01 -0.13325761590E+02  0.16716948250E+02  0.00000000000E+00 0. -1.
</event>
<event>
 7    1  0.2001181E-008  0.4614232E+02  0.7816164E-02  0.1320468E+00
        -11   -1    0    0    0    0  0.00000000000E+00  0.00000000000E+00  0.45593999997E+02  0.45594000000E+02  0.51100000000E-03 0. -1.
         11   -1    0    0    0    0 -0.00000000000E+00 -0.00000000000E+00 -0.45593999997E+02  0.45594000000E+02  0.51100000000E-03 0.  1.
    9900012    2    1    2    0    0  0.88969034045E+00 -0.41684770182E+02  0.17049972653E+02  0.46142321168E+02  0.10000031064E+02 0.  0.
        -12    1    1    2    0    0 -0.88969034045E+00  0.41684770182E+02 -0.17049972653E+02  0.45045678832E+02  0.00000000000E+00 0.  1.
         11    1    3    3    0    0  0.82870471530E+00 -0.33600076446E+02  0.92503418207E+01  0.34860015960E+02  0.51100000000E-03 0. -1.
        -11    1    3    3    0    0  0.36496428558E+00 -0.23547783949E+01  0.18515715988E+01  0.30176974443E+01  0.51100000000E-03 0.  1.
         12    1    3    3    0    0 -0.30397866042E+00 -0.57299153408E+01  0.59480592331E+01  0.82646077631E+01  0.00000000000E+00 0. -1.
</event>
<event>
 7    1  0.2001181E-008  0.4614232E+02  0.7816164E-02  0.1320468E+00
        -11   -1    0    0    0    0  0.00000000000E+00  0.00000000000E+00  0.45593999997E+02  0.45594000000E+02  0.51100000000E-03 0. -1.
         11   -1    0    0    0    0 -0.00000000000E+00 -0.00000000000E+00 -0.45593999997E+02  0.45594000000E+02  0.51100000000E-03 0.  1.
    9900012    2    1    2    0    0 -0.52518998833E+01 -0.33012002567E+02  0.30195011749E+02  0.46142317627E+02  0.99999987813E+01 0.  0.
        -12    1    1    2    0    0  0.52518998833E+01  0.33012002567E+02 -0.30195011749E+02  0.45045682373E+02  0.00000000000E+00 0.  1.
         11    1    3    3    0    0  0.11986689260E+01 -0.11992667664E+02  0.82829752845E+01  0.14624245783E+02  0.51100000000E-03 0. -1.
        -11    1    3    3    0    0 -0.23053159263E+01 -0.38569418214E+01  0.74278166936E+01  0.86811832620E+01  0.51100000000E-03 0.  1.
         12    1    3    3    0    0 -0.41452528830E+01 -0.17162393082E+02  0.14484219771E+02  0.22836888582E+02  0.00000000000E+00 0. -1.
</event>
<event>
 7    1  0.2001181E-008  0.4614232E+02  0.7816164E-02  0.1320468E+00
        -11   -1    0    0    0    0  0.00000000000E+00  0.00000000000E+00  0.45593999997E+02  0.45594000000E+02  0.51100000000E-03 0.  1.
         11   -1    0    0    0    0 -0.00000000000E+00 -0.00000000000E+00 -0.45593999997E+02  0.45594000000E+02  0.51100000000E-03 0. -1.
    9900012    2    1    2    0    0 -0.31646806965E+02  0.11488991432E+01 -0.32035496334E+02  0.46142318901E+02  0.10000010390E+02 0.  0.
        -12    1    1    2    0    0  0.31646806965E+02 -0.11488991432E+01  0.32035496334E+02  0.45045681099E+02  0.00000000000E+00 0.  1.
         11    1    3    3    0    0 -0.83317103912E+01  0.19531779474E+01 -0.10338115755E+02  0.13420467196E+02  0.51100000000E-03 0. -1.
        -11    1    3    3    0    0 -0.20628667527E+01 -0.10158265197E+01  0.68650530886E-01  0.23004425475E+01  0.51100000000E-03 0.  1.
        -12    1    3    3    0    0 -0.21252229821E+02  0.21154771560E+00 -0.21766031110E+02  0.30421409157E+02  0.00000000000E+00 0.  1.
</event>
<event>
 7    1  0.2001181E-008  0.4614232E+02  0.7816164E-02  0.1320468E+00
        -11   -1    0    0    0    0  0.00000000000E+00  0.00000000000E+00  0.45593999997E+02  0.45594000000E+02  0.51100000000E-03 0. -1.
         11   -1    0    0    0    0 -0.00000000000E+00 -0.00000000000E+00 -0.45593999997E+02  0.45594000000E+02  0.51100000000E-03 0.  1.
    9900012    2    1    2    0    0 -0.32977151445E+02 -0.30035226847E+02 -0.62853869123E+01  0.46142318101E+02  0.10000003096E+02 0.  0.
        -12    1    1    2    0    0  0.32977151445E+02  0.30035226847E+02  0.62853869123E+01  0.45045681899E+02  0.00000000000E+00 0.  1.
         11    1    3    3    0    0 -0.14008500809E+02 -0.14749483382E+02  0.59934361792E+00  0.20350542204E+02  0.51100000000E-03 0. -1.
        -11    1    3    3    0    0 -0.97407679949E+01 -0.10765204836E+02 -0.49272142551E+01  0.15331328607E+02  0.51100000000E-03 0.  1.
         12    1    3    3    0    0 -0.92278826411E+01 -0.45205386287E+01 -0.19575162751E+01  0.10460447290E+02  0.00000000000E+00 0. -1.
</event>
<event>
 7    1  0.2001181E-008  0.4614232E+02  0.7816164E-02  0.1320468E+00
        -11   -1    0    0    0    0  0.00000000000E+00  0.00000000000E+00  0.45593999997E+02  0.45594000000E+02  0.51100000000E-03 0.  1.
         11   -1    0    0    0    0 -0.00000000000E+00 -0.00000000000E+00 -0.45593999997E+02  0.45594000000E+02  0.51100000000E-03 0. -1.
    9900012    2    1    2    0    0  0.12606092496E+02  0.42907364575E+02  0.53998021691E+01  0.46142319117E+02  0.10000012362E+02 0.  0.
        -12    1    1    2    0    0 -0.12606092496E+02 -0.42907364575E+02 -0.53998021691E+01  0.45045680883E+02  0.00000000000E+00 0.  1.
         11    1    3    3    0    0  0.54153162969E-03  0.43945352166E+01  0.13182812985E+01  0.45880067466E+01  0.51100000000E-03 0. -1.
        -11    1    3    3    0    0 -0.75929904127E+00  0.62639963007E+01  0.18456510582E+01  0.65742385703E+01  0.51100000000E-03 0.  1.
         12    1    3    3    0    0  0.13364850005E+02  0.32248833058E+02  0.22358698123E+01  0.34980073800E+02  0.00000000000E+00 0. -1.
</event>
<event>
 7    1  0.2001181E-008  0.4614232E+02  0.7816164E-02  0.1320468E+00
        -11   -1    0    0    0    0  0.00000000000E+00  0.00000000000E+00  0.45593999997E+02  0.45594000000E+02  0.51100000000E-03 0. -1.
         11   -1    0    0    0    0 -0.00000000000E+00 -0.00000000000E+00 -0.45593999997E+02  0.45594000000E+02  0.51100000000E-03 0.  1.
    9900012    2    1    2    0    0 -0.43962312848E+02  0.34553480008E+01 -0.91917896224E+01  0.46142318995E+02  0.10000011255E+02 0.  0.
        -12    1    1    2    0    0  0.43962312848E+02 -0.34553480008E+01  0.91917896224E+01  0.45045681005E+02  0.00000000000E+00 0.  1.
         11    1    3    3    0    0 -0.16828880555E+02 -0.54812683923E+00 -0.67427529664E+01  0.18137706073E+02  0.51100000000E-03 0. -1.
        -11    1    3    3    0    0 -0.51460675437E+01 -0.11360710334E+01 -0.11050527458E+01  0.53845900856E+01  0.51100000000E-03 0.  1.
        -12    1    3    3    0    0 -0.21987364749E+02  0.51395458734E+01 -0.13439839102E+01  0.22620022837E+02  0.00000000000E+00 0.  1.
</event>
<event>
 7    1  0.2001181E-008  0.4614232E+02  0.7816164E-02  0.1320468E+00
        -11   -1    0    0    0    0  0.00000000000E+00  0.00000000000E+00  0.45593999997E+02  0.45594000000E+02  0.51100000000E-03 0. -1.
         11   -1    0    0    0    0 -0.00000000000E+00 -0.00000000000E+00 -0.45593999997E+02  0.45594000000E+02  0.51100000000E-03 0.  1.
    9900012    2    1    2    0    0  0.41288338741E+02  0.41175583502E+01  0.17533746042E+02  0.46142318153E+02  0.10000003576E+02 0.  0.
        -12    1    1    2    0    0 -0.41288338741E+02 -0.41175583502E+01 -0.17533746042E+02  0.45045681847E+02  0.00000000000E+00 0.  1.
         11    1    3    3    0    0  0.54595599260E+01  0.25106372994E+01  0.87947325092E+00  0.60731843126E+01  0.51100000000E-03 0. -1.
        -11    1    3    3    0    0  0.21720616245E+01 -0.64916025006E+00 -0.34916621162E+00  0.22937257977E+01  0.51100000000E-03 0.  1.
         12    1    3    3    0    0  0.33656717191E+02  0.22560813008E+01  0.17003439003E+02  0.37775408043E+02  0.00000000000E+00 0. -1.
</event>
<event>
 7    1  0.2001181E-008  0.4614232E+02  0.7816164E-02  0.1320468E+00
        -11   -1    0    0    0    0  0.00000000000E+00  0.00000000000E+00  0.45593999997E+02  0.45594000000E+02  0.51100000000E-03 0. -1.
         11   -1    0    0    0    0 -0.00000000000E+00 -0.00000000000E+00 -0.45593999997E+02  0.45594000000E+02  0.51100000000E-03 0.  1.
    9900012    2    1    2    0    0  0.43484613460E+02 -0.52960823354E+01 -0.10495397704E+02  0.46142317978E+02  0.10000001976E+02 0.  0.
        -12    1    1    2    0    0 -0.43484613460E+02  0.52960823354E+01  0.10495397704E+02  0.45045682022E+02  0.00000000000E+00 0.  1.
         11    1    3    3    0    0  0.33633333429E+02 -0.30216939657E+01 -0.76751519260E+01  0.34630040561E+02  0.51100000000E-03 0. -1.
        -11    1    3    3    0    0  0.45695967005E+01  0.12700945684E+01 -0.17860449113E+01  0.50679691104E+01  0.51100000000E-03 0.  1.
        -12    1    3    3    0    0  0.52816833313E+01 -0.35444829381E+01 -0.10342008661E+01  0.64443083059E+01  0.00000000000E+00 0.  1.
</event>
<event>
 7    1  0.2001181E-008  0.4614232E+02  0.7816164E-02  0.1320468E+00
        -11   -1    0    0    0    0  0.00000000000E+00  0.00000000000E+00  0.45593999997E+02  0.45594000000E+02  0.51100000000E-03 0.  1.
         11   -1    0    0    0    0 -0.00000000000E+00 -0.00000000000E+00 -0.45593999997E+02  0.45594000000E+02  0.51100000000E-03 0. -1.
    9900012    2    1    2    0    0  0.53691859116E+01  0.35176110442E+02 -0.27621125281E+02  0.46142318021E+02  0.10000002368E+02 0.  0.
        -12    1    1    2    0    0 -0.53691859116E+01 -0.35176110442E+02  0.27621125281E+02  0.45045681979E+02  0.00000000000E+00 0.  1.
         11    1    3    3    0    0 -0.68706540267E+00  0.13362816308E+01 -0.15337533812E+01  0.21471160098E+01  0.51100000000E-03 0. -1.
        -11    1    3    3    0    0  0.84030607945E+00 -0.22973419525E+00 -0.21148811932E+00  0.89644832164E+00  0.51100000000E-03 0.  1.
         12    1    3    3    0    0  0.52159452348E+01  0.34069563006E+02 -0.25875883781E+02  0.43098753689E+02  0.00000000000E+00 0. -1.
</event>
<event>
 7    1  0.2001181E-008  0.4614232E+02  0.7816164E-02  0.1320468E+00
        -11   -1    0    0    0    0  0.00000000000E+00  0.00000000000E+00  0.45593999997E+02  0.45594000000E+02  0.51100000000E-03 0.  1.
         11   -1    0    0    0    0 -0.00000000000E+00 -0.00000000000E+00 -0.45593999997E+02  0.45594000000E+02  0.51100000000E-03 0. -1.
    9900012    2    1    2    0    0  0.18425237983E+02 -0.37841036034E+02 -0.16052420296E+02  0.46142316519E+02  0.99999886777E+01 0.  0.
        -12    1    1    2    0    0 -0.18425237983E+02  0.37841036034E+02  0.16052420296E+02  0.45045683481E+02  0.00000000000E+00 0.  1.
         11    1    3    3    0    0  0.24285194683E+01 -0.25988869435E+01 -0.66899350982E-01  0.35575828785E+01  0.51100000000E-03 0. -1.
        -11    1    3    3    0    0  0.39663297583E+01 -0.13513959613E+02 -0.24370302012E+01  0.14293284879E+02  0.51100000000E-03 0.  1.
         12    1    3    3    0    0  0.12030388756E+02 -0.21728189478E+02 -0.13548490744E+02  0.28291448762E+02  0.00000000000E+00 0. -1.
</event>
<event>
 7    1  0.2001181E-008  0.4614232E+02  0.7816164E-02  0.1320468E+00
        -11   -1    0    0    0    0  0.00000000000E+00  0.00000000000E+00  0.45593999997E+02  0.45594000000E+02  0.51100000000E-03 0.  1.
         11   -1    0    0    0    0 -0.00000000000E+00 -0.00000000000E+00 -0.45593999997E+02  0.45594000000E+02  0.51100000000E-03 0. -1.
    9900012    2    1    2    0    0  0.28261226579E+02  0.16794091294E+02 -0.30795696598E+02  0.46142319196E+02  0.10000013084E+02 0.  0.
        -12    1    1    2    0    0 -0.28261226579E+02 -0.16794091294E+02  0.30795696598E+02  0.45045680804E+02  0.00000000000E+00 0.  1.
         11    1    3    3    0    0  0.16361830957E+02  0.10386714012E+02 -0.20164686129E+02  0.27967980034E+02  0.51100000000E-03 0. -1.
        -11    1    3    3    0    0  0.77386224805E+01  0.25142948834E+01 -0.30477662285E+01  0.86888915232E+01  0.51100000000E-03 0.  1.
        -12    1    3    3    0    0  0.41607731407E+01  0.38930823987E+01 -0.75832442407E+01  0.94854476386E+01  0.00000000000E+00 0.  1.
</event>
<event>
 7    1  0.2001181E-008  0.4614233E+02  0.7816164E-02  0.1320468E+00
        -11   -1    0    0    0    0  0.00000000000E+00  0.00000000000E+00  0.45593999997E+02  0.45594000000E+02  0.51100000000E-03 0.  1.
         11   -1    0    0    0    0 -0.00000000000E+00 -0.00000000000E+00 -0.45593999997E+02  0.45594000000E+02  0.51100000000E-03 0. -1.
    9900012    2    1    2    0    0  0.28633893031E+02  0.11050302807E+02 -0.32971250339E+02  0.46142330162E+02  0.10000113081E+02 0.  0.
        -12    1    1    2    0    0 -0.28633893031E+02 -0.11050302807E+02  0.32971250339E+02  0.45045669838E+02  0.00000000000E+00 0.  1.
         11    1    3    3    0    0  0.20079982894E+02  0.56666702780E+01 -0.22639308148E+02  0.30787256110E+02  0.51100000000E-03 0. -1.
        -11    1    3    3    0    0  0.36436621220E+01  0.38610056448E+01 -0.22265661075E+01  0.57568424628E+01  0.51100000000E-03 0.  1.
        -12    1    3    3    0    0  0.49102480143E+01  0.15226268845E+01 -0.81053760837E+01  0.95982315897E+01  0.00000000000E+00 0.  1.
</event>
<event>
 7    1  0.2001181E-008  0.4614232E+02  0.7816164E-02  0.1320468E+00
        -11   -1    0    0    0    0  0.00000000000E+00  0.00000000000E+00  0.45593999997E+02  0.45594000000E+02  0.51100000000E-03 0.  1.
         11   -1    0    0    0    0 -0.00000000000E+00 -0.00000000000E+00 -0.45593999997E+02  0.45594000000E+02  0.51100000000E-03 0. -1.
    9900012    2    1    2    0    0  0.16274542039E+02 -0.40826373688E+02 -0.98721765876E+01  0.46142318989E+02  0.10000011199E+02 0.  0.
        -12    1    1    2    0    0 -0.16274542039E+02  0.40826373688E+02  0.98721765876E+01  0.45045681011E+02  0.00000000000E+00 0.  1.
         11    1    3    3    0    0  0.23741332990E+01 -0.20808578373E+01 -0.22430988929E+01  0.38727214159E+01  0.51100000000E-03 0. -1.
        -11    1    3    3    0    0  0.65464698499E+01 -0.14338428252E+02 -0.37515348475E+00  0.15766658892E+02  0.51100000000E-03 0.  1.
         12    1    3    3    0    0  0.73539388905E+01 -0.24407087599E+02 -0.72539242099E+01  0.26502938681E+02  0.00000000000E+00 0. -1.
</event>
<event>
 7    1  0.2001181E-008  0.4614232E+02  0.7816164E-02  0.1320468E+00
        -11   -1    0    0    0    0  0.00000000000E+00  0.00000000000E+00  0.45593999997E+02  0.45594000000E+02  0.51100000000E-03 0.  1.
         11   -1    0    0    0    0 -0.00000000000E+00 -0.00000000000E+00 -0.45593999997E+02  0.45594000000E+02  0.51100000000E-03 0. -1.
    9900012    2    1    2    0    0 -0.17370350487E+02 -0.27410652811E+02 -0.31241646504E+02  0.46142318299E+02  0.10000004906E+02 0.  0.
        -12    1    1    2    0    0  0.17370350487E+02  0.27410652811E+02  0.31241646504E+02  0.45045681701E+02  0.00000000000E+00 0.  1.
         11    1    3    3    0    0 -0.11079861874E+02 -0.19202316341E+02 -0.22508015178E+02  0.31592768785E+02  0.51100000000E-03 0. -1.
        -11    1    3    3    0    0 -0.18066809019E+01  0.41736119822E+00 -0.19780138098E+01  0.27112405175E+01  0.51100000000E-03 0.  1.
        -12    1    3    3    0    0 -0.44838077115E+01 -0.86256976689E+01 -0.67556175170E+01  0.11838308997E+02  0.00000000000E+00 0.  1.
</event>
<event>
 7    1  0.2001181E-008  0.4614232E+02  0.7816164E-02  0.1320468E+00
        -11   -1    0    0    0    0  0.00000000000E+00  0.00000000000E+00  0.45593999997E+02  0.45594000000E+02  0.51100000000E-03 0. -1.
         11   -1    0    0    0    0 -0.00000000000E+00 -0.00000000000E+00 -0.45593999997E+02  0.45594000000E+02  0.51100000000E-03 0.  1.
    9900012    2    1    2    0    0  0.44169144467E+02  0.77375227778E+01  0.42814640090E+01  0.46142317457E+02  0.99999972305E+01 0.  0.
        -12    1    1    2    0    0 -0.44169144467E+02 -0.77375227778E+01 -0.42814640090E+01  0.45045682543E+02  0.00000000000E+00 0.  1.
         11    1    3    3    0    0  0.59727743602E+01  0.20225512223E+01  0.93077834812E+00  0.63742525522E+01  0.51100000000E-03 0. -1.
        -11    1    3    3    0    0  0.81401954231E+01  0.86212876945E+00 -0.29062875993E+01  0.86863430402E+01  0.51100000000E-03 0.  1.
         12    1    3    3    0    0  0.30056174684E+02  0.48528427860E+01  0.62569732602E+01  0.31081721865E+02  0.00000000000E+00 0. -1.
</event>
<event>
 7    1  0.2001181E-008  0.4614232E+02  0.7816164E-02  0.1320468E+00
        -11   -1    0    0    0    0  0.00000000000E+00  0.00000000000E+00  0.45593999997E+02  0.45594000000E+02  0.51100000000E-03 0.  1.
         11   -1    0    0    0    0 -0.00000000000E+00 -0.00000000000E+00 -0.45593999997E+02  0.45594000000E+02  0.51100000000E-03 0. -1.
    9900012    2    1    2    0    0 -0.15967339171E+02 -0.32289406920E+02 -0.27047212375E+02  0.46142318557E+02  0.10000007254E+02 0.  0.
        -12    1    1    2    0    0  0.15967339171E+02  0.32289406920E+02  0.27047212375E+02  0.45045681443E+02  0.00000000000E+00 0.  1.
         11    1    3    3    0    0 -0.92629411000E+00 -0.88778233391E+01 -0.43197924245E+01  0.99163690366E+01  0.51100000000E-03 0. -1.
        -11    1    3    3    0    0 -0.84448757302E+01 -0.14148063535E+02 -0.10553436825E+02  0.19566774312E+02  0.51100000000E-03 0.  1.
        -12    1    3    3    0    0 -0.65961693310E+01 -0.92635200460E+01 -0.12173983125E+02  0.16659175208E+02  0.00000000000E+00 0.  1.
</event>
<event>
 7    1  0.2001181E-008  0.4614232E+02  0.7816164E-02  0.1320468E+00
        -11   -1    0    0    0    0  0.00000000000E+00  0.00000000000E+00  0.45593999997E+02  0.45594000000E+02  0.51100000000E-03 0.  1.
         11   -1    0    0    0    0 -0.00000000000E+00 -0.00000000000E+00 -0.45593999997E+02  0.45594000000E+02  0.51100000000E-03 0. -1.
    9900012    2    1    2    0    0 -0.19784340992E+02 -0.40154052173E+02  0.50344240904E+01  0.46142317850E+02  0.10000000813E+02 0.  0.
        -12    1    1    2    0    0  0.19784340992E+02  0.40154052173E+02 -0.50344240904E+01  0.45045682150E+02  0.00000000000E+00 0.  1.
         11    1    3    3    0    0 -0.45449155021E+01 -0.57444117112E+01 -0.17791631110E+01  0.75379005343E+01  0.51100000000E-03 0. -1.
        -11    1    3    3    0    0 -0.95809482189E+00 -0.10969613806E+01  0.12811299084E+01  0.19397329872E+01  0.51100000000E-03 0.  1.
         12    1    3    3    0    0 -0.14281330669E+02 -0.33312679081E+02  0.55324572930E+01  0.36664684329E+02  0.00000000000E+00 0. -1.
</event>
<event>
 7    1  0.2001181E-008  0.4614232E+02  0.7816164E-02  0.1320468E+00
        -11   -1    0    0    0    0  0.00000000000E+00  0.00000000000E+00  0.45593999997E+02  0.45594000000E+02  0.51100000000E-03 0.  1.
         11   -1    0    0    0    0 -0.00000000000E+00 -0.00000000000E+00 -0.45593999997E+02  0.45594000000E+02  0.51100000000E-03 0. -1.
    9900012    2    1    2    0    0 -0.22276301976E+02 -0.10621937495E+02 -0.37683607773E+02  0.46142317847E+02  0.10000000782E+02 0.  0.
        -12    1    1    2    0    0  0.22276301976E+02  0.10621937495E+02  0.37683607773E+02  0.45045682153E+02  0.00000000000E+00 0.  1.
         11    1    3    3    0    0 -0.90513110328E+01 -0.45519861389E+01 -0.96220599410E+01  0.13972503247E+02  0.51100000000E-03 0. -1.
        -11    1    3    3    0    0 -0.32878572830E+01 -0.85905780448E+00 -0.23937719481E+01  0.41566970331E+01  0.51100000000E-03 0.  1.
        -12    1    3    3    0    0 -0.99371336601E+01 -0.52108935514E+01 -0.25667775884E+02  0.28013117567E+02  0.00000000000E+00 0.  1.
</event>
<event>
 7    1  0.2001181E-008  0.4614232E+02  0.7816164E-02  0.1320468E+00
        -11   -1    0    0    0    0  0.00000000000E+00  0.00000000000E+00  0.45593999997E+02  0.45594000000E+02  0.51100000000E-03 0.  1.
         11   -1    0    0    0    0 -0.00000000000E+00 -0.00000000000E+00 -0.45593999997E+02  0.45594000000E+02  0.51100000000E-03 0. -1.
    9900012    2    1    2    0    0  0.25200869059E+01 -0.43310157851E+02 -0.12124065334E+02  0.46142316840E+02  0.99999916042E+01 0.  0.
        -12    1    1    2    0    0 -0.25200869059E+01  0.43310157851E+02  0.12124065334E+02  0.45045683160E+02  0.00000000000E+00 0.  1.
         11    1    3    3    0    0 -0.29678640452E+01 -0.10313466804E+02 -0.14878959045E+01  0.10834650386E+02  0.51100000000E-03 0.  1.
        -11    1    3    3    0    0  0.18689985589E+01 -0.12479117518E+02 -0.20971117098E+01  0.12791380200E+02  0.51100000000E-03 0. -1.
        -12    1    3    3    0    0  0.36189523922E+01 -0.20517573530E+02 -0.85390577194E+01  0.22516286254E+02  0.00000000000E+00 0.  1.
</event>
<event>
 7    1  0.2001181E-008  0.4614232E+02  0.7816164E-02  0.1320468E+00
        -11   -1    0    0    0    0  0.00000000000E+00  0.00000000000E+00  0.45593999997E+02  0.45594000000E+02  0.51100000000E-03 0.  1.
         11   -1    0    0    0    0 -0.00000000000E+00 -0.00000000000E+00 -0.45593999997E+02  0.45594000000E+02  0.51100000000E-03 0. -1.
    9900012    2    1    2    0    0 -0.14509282296E+02 -0.42519854365E+02 -0.32643750788E+01  0.46142318380E+02  0.10000005640E+02 0.  0.
        -12    1    1    2    0    0  0.14509282296E+02  0.42519854365E+02  0.32643750788E+01  0.45045681620E+02  0.00000000000E+00 0.  1.
         11    1    3    3    0    0 -0.94853595364E+01 -0.14161366047E+02 -0.75674021272E+00  0.17061330249E+02  0.51100000000E-03 0.  1.
        -11    1    3    3    0    0 -0.30670589529E+01 -0.91352783889E+01 -0.41318217175E+00  0.96452517661E+01  0.51100000000E-03 0. -1.
        -12    1    3    3    0    0 -0.19568638069E+01 -0.19223209929E+02 -0.20944526943E+01  0.19435736365E+02  0.00000000000E+00 0.  1.
</event>
<event>
 7    1  0.2001181E-008  0.4614232E+02  0.7816164E-02  0.1320468E+00
        -11   -1    0    0    0    0  0.00000000000E+00  0.00000000000E+00  0.45593999997E+02  0.45594000000E+02  0.51100000000E-03 0.  1.
         11   -1    0    0    0    0 -0.00000000000E+00 -0.00000000000E+00 -0.45593999997E+02  0.45594000000E+02  0.51100000000E-03 0. -1.
    9900012    2    1    2    0    0  0.22738879110E+02 -0.34162566846E+02 -0.18573529841E+02  0.46142316440E+02  0.99999879499E+01 0.  0.
        -12    1    1    2    0    0 -0.22738879110E+02  0.34162566846E+02  0.18573529841E+02  0.45045683560E+02  0.00000000000E+00 0.  1.
         11    1    3    3    0    0  0.28454285507E+01 -0.90578586789E+01 -0.46295814810E+01  0.10562873304E+02  0.51100000000E-03 0. -1.
        -11    1    3    3    0    0  0.64054527666E+01 -0.79887556588E+01 -0.79924170572E+01  0.12989563996E+02  0.51100000000E-03 0.  1.
         12    1    3    3    0    0  0.13487997793E+02 -0.17115952508E+02 -0.59515313026E+01  0.22589879140E+02  0.00000000000E+00 0. -1.
</event>
<event>
 7    1  0.2001181E-008  0.4614232E+02  0.7816164E-02  0.1320468E+00
        -11   -1    0    0    0    0  0.00000000000E+00  0.00000000000E+00  0.45593999997E+02  0.45594000000E+02  0.51100000000E-03 0.  1.
         11   -1    0    0    0    0 -0.00000000000E+00 -0.00000000000E+00 -0.45593999997E+02  0.45594000000E+02  0.51100000000E-03 0. -1.
    9900012    2    1    2    0    0  0.36027457641E+02 -0.86868597905E+01 -0.25606136100E+02  0.46142318263E+02  0.10000004581E+02 0.  0.
        -12    1    1    2    0    0 -0.36027457641E+02  0.86868597905E+01  0.25606136100E+02  0.45045681737E+02  0.00000000000E+00 0.  1.
         11    1    3    3    0    0  0.32594786863E+01  0.57114262412E+00 -0.21775509475E+01  0.39613297760E+01  0.51100000000E-03 0. -1.
        -11    1    3    3    0    0  0.84860892159E+01 -0.63533959872E+01 -0.64318262300E+01  0.12399505622E+02  0.51100000000E-03 0.  1.
         12    1    3    3    0    0  0.24281889739E+02 -0.29046064275E+01 -0.16996758923E+02  0.29781482866E+02  0.00000000000E+00 0. -1.
</event>
<event>
 7    1  0.2001181E-008  0.4614233E+02  0.7816164E-02  0.1320468E+00
        -11   -1    0    0    0    0  0.00000000000E+00  0.00000000000E+00  0.45593999997E+02  0.45594000000E+02  0.51100000000E-03 0. -1.
         11   -1    0    0    0    0 -0.00000000000E+00 -0.00000000000E+00 -0.45593999997E+02  0.45594000000E+02  0.51100000000E-03 0.  1.
    9900012    2    1    2    0    0  0.39747881573E+02 -0.11554408475E+01  0.21163262745E+02  0.46142325145E+02  0.10000067334E+02 0.  0.
        -12    1    1    2    0    0 -0.39747881573E+02  0.11554408475E+01 -0.21163262745E+02  0.45045674855E+02  0.00000000000E+00 0.  1.
         11    1    3    3    0    0  0.71302879216E+01 -0.19274961614E+01  0.54994448693E+01  0.92086992257E+01  0.51100000000E-03 0. -1.
        -11    1    3    3    0    0  0.15855357988E+02 -0.11525165174E+01  0.39104442285E+01  0.16371079548E+02  0.51100000000E-03 0.  1.
         12    1    3    3    0    0  0.16762235664E+02  0.19245718314E+01  0.11753373647E+02  0.20562546371E+02  0.00000000000E+00 0. -1.
</event>
<event>
 7    1  0.2001181E-008  0.4614232E+02  0.7816164E-02  0.1320468E+00
        -11   -1    0    0    0    0  0.00000000000E+00  0.00000000000E+00  0.45593999997E+02  0.45594000000E+02  0.51100000000E-03 0.  1.
         11   -1    0    0    0    0 -0.00000000000E+00 -0.00000000000E+00 -0.45593999997E+02  0.45594000000E+02  0.51100000000E-03 0. -1.
    9900012    2    1    2    0    0 -0.31598890518E+01  0.27577453194E+02 -0.35476931273E+02  0.46142317898E+02  0.10000001245E+02 0.  0.
        -12    1    1    2    0    0  0.31598890518E+01 -0.27577453194E+02  0.35476931273E+02  0.45045682102E+02  0.00000000000E+00 0.  1.
         11    1    3    3    0    0  0.88724013974E+00  0.27270917015E+01 -0.21032297234E+01  0.35563745225E+01  0.51100000000E-03 0. -1.
        -11    1    3    3    0    0  0.27860195185E+00  0.24874941495E+00 -0.40424706780E+01  0.40596877667E+01  0.51100000000E-03 0.  1.
         12    1    3    3    0    0 -0.43257311433E+01  0.24601612078E+02 -0.29331230872E+02  0.38526255608E+02  0.00000000000E+00 0. -1.
</event>
<event>
 7    1  0.2001181E-008  0.4614232E+02  0.7816164E-02  0.1320468E+00
        -11   -1    0    0    0    0  0.00000000000E+00  0.00000000000E+00  0.45593999997E+02  0.45594000000E+02  0.51100000000E-03 0. -1.
         11   -1    0    0    0    0 -0.00000000000E+00 -0.00000000000E+00 -0.45593999997E+02  0.45594000000E+02  0.51100000000E-03 0.  1.
    9900012    2    1    2    0    0  0.19382974009E+02 -0.29064733900E+02  0.28436861932E+02  0.46142317025E+02  0.99999932911E+01 0.  0.
        -12    1    1    2    0    0 -0.19382974009E+02  0.29064733900E+02 -0.28436861932E+02  0.45045682975E+02  0.00000000000E+00 0.  1.
         11    1    3    3    0    0  0.14469519433E+02 -0.18548603272E+02  0.21430564950E+02  0.31822740145E+02  0.51100000000E-03 0. -1.
        -11    1    3    3    0    0  0.24895073951E+01 -0.12434147469E+01  0.77847936184E+00  0.28895947261E+01  0.51100000000E-03 0.  1.
         12    1    3    3    0    0  0.24239471809E+01 -0.92727158815E+01  0.62278176196E+01  0.11429982155E+02  0.00000000000E+00 0. -1.
</event>
<event>
 7    1  0.2001181E-008  0.4614232E+02  0.7816164E-02  0.1320468E+00
        -11   -1    0    0    0    0  0.00000000000E+00  0.00000000000E+00  0.45593999997E+02  0.45594000000E+02  0.51100000000E-03 0.  1.
         11   -1    0    0    0    0 -0.00000000000E+00 -0.00000000000E+00 -0.45593999997E+02  0.45594000000E+02  0.51100000000E-03 0. -1.
    9900012    2    1    2    0    0  0.32341255981E+02  0.27217663050E+02 -0.15567767881E+02  0.46142318551E+02  0.10000007207E+02 0.  0.
        -12    1    1    2    0    0 -0.32341255981E+02 -0.27217663050E+02  0.15567767881E+02  0.45045681449E+02  0.00000000000E+00 0.  1.
         11    1    3    3    0    0  0.24177767241E+02  0.23036068934E+02 -0.84805485123E+01  0.34454964868E+02  0.51100000000E-03 0. -1.
        -11    1    3    3    0    0  0.48691328427E+01  0.17506561462E+01 -0.35302157561E+01  0.62638386895E+01  0.51100000000E-03 0.  1.
        -12    1    3    3    0    0  0.32943558975E+01  0.24309379695E+01 -0.35570036125E+01  0.54235149940E+01  0.00000000000E+00 0.  1.
</event>
<event>
 7    1  0.2001181E-008  0.4614232E+02  0.7816164E-02  0.1320468E+00
        -11   -1    0    0    0    0  0.00000000000E+00  0.00000000000E+00  0.45593999997E+02  0.45594000000E+02  0.51100000000E-03 0. -1.
         11   -1    0    0    0    0 -0.00000000000E+00 -0.00000000000E+00 -0.45593999997E+02  0.45594000000E+02  0.51100000000E-03 0.  1.
    9900012    2    1    2    0    0  0.19830533350E+02 -0.26527984118E+02  0.30530789001E+02  0.46142322390E+02  0.10000042209E+02 0.  0.
        -12    1    1    2    0    0 -0.19830533350E+02  0.26527984118E+02 -0.30530789001E+02  0.45045677610E+02  0.00000000000E+00 0.  1.
         11    1    3    3    0    0  0.32953884805E+01 -0.39694768122E+01  0.44896653871E+01  0.68391100993E+01  0.51100000000E-03 0. -1.
        -11    1    3    3    0    0  0.13604883835E+02 -0.11358476420E+02  0.13867443526E+02  0.22503640616E+02  0.51100000000E-03 0.  1.
        -12    1    3    3    0    0  0.29302610343E+01 -0.11200030886E+02  0.12173680088E+02  0.16799571675E+02  0.00000000000E+00 0.  1.
</event>
<event>
 7    1  0.2001181E-008  0.4614232E+02  0.7816164E-02  0.1320468E+00
        -11   -1    0    0    0    0  0.00000000000E+00  0.00000000000E+00  0.45593999997E+02  0.45594000000E+02  0.51100000000E-03 0.  1.
         11   -1    0    0    0    0 -0.00000000000E+00 -0.00000000000E+00 -0.45593999997E+02  0.45594000000E+02  0.51100000000E-03 0. -1.
    9900012    2    1    2    0    0 -0.29486235597E+02  0.41210120662E+01 -0.33803735248E+02  0.46142319332E+02  0.10000014324E+02 0.  0.
        -12    1    1    2    0    0  0.29486235597E+02 -0.41210120662E+01  0.33803735248E+02  0.45045680668E+02  0.00000000000E+00 0.  1.
         11    1    3    3    0    0 -0.16719497137E+02  0.29222235632E+00 -0.14380263199E+02  0.22054907580E+02  0.51100000000E-03 0. -1.
        -11    1    3    3    0    0 -0.29950456413E+01  0.50233663749E+00 -0.14605620305E+01  0.33698489872E+01  0.51100000000E-03 0.  1.
        -12    1    3    3    0    0 -0.97716928185E+01  0.33264530723E+01 -0.17962910019E+02  0.20717562765E+02  0.00000000000E+00 0.  1.
</event>
<event>
 7    1  0.2001181E-008  0.4614232E+02  0.7816164E-02  0.1320468E+00
        -11   -1    0    0    0    0  0.00000000000E+00  0.00000000000E+00  0.45593999997E+02  0.45594000000E+02  0.51100000000E-03 0. -1.
         11   -1    0    0    0    0 -0.00000000000E+00 -0.00000000000E+00 -0.45593999997E+02  0.45594000000E+02  0.51100000000E-03 0.  1.
    9900012    2    1    2    0    0 -0.35551666253E+02  0.26321663533E+02  0.85066236106E+01  0.46142316636E+02  0.99999897359E+01 0.  0.
        -12    1    1    2    0    0  0.35551666253E+02 -0.26321663533E+02 -0.85066236106E+01  0.45045683364E+02  0.00000000000E+00 0.  1.
         11    1    3    3    0    0 -0.43763029509E+01  0.22163576776E+01  0.14458535697E+01  0.51141726290E+01  0.51100000000E-03 0. -1.
        -11    1    3    3    0    0 -0.17660304756E+02  0.16970124477E+02  0.78649199691E+01  0.25724083176E+02  0.51100000000E-03 0.  1.
         12    1    3    3    0    0 -0.13515058546E+02  0.71351813787E+01 -0.80414992827E+00  0.15304060831E+02  0.00000000000E+00 0. -1.
</event>
<event>
 7    1  0.2001181E-008  0.4614232E+02  0.7816164E-02  0.1320468E+00
        -11   -1    0    0    0    0  0.00000000000E+00  0.00000000000E+00  0.45593999997E+02  0.45594000000E+02  0.51100000000E-03 0.  1.
         11   -1    0    0    0    0 -0.00000000000E+00 -0.00000000000E+00 -0.45593999997E+02  0.45594000000E+02  0.51100000000E-03 0. -1.
    9900012    2    1    2    0    0  0.26035810324E+02 -0.71687726583E+01 -0.36053555294E+02  0.46142316856E+02  0.99999917424E+01 0.  0.
        -12    1    1    2    0    0 -0.26035810324E+02  0.71687726583E+01  0.36053555294E+02  0.45045683144E+02  0.00000000000E+00 0.  1.
         11    1    3    3    0    0  0.23613951561E+01 -0.16347830394E+01 -0.91066154689E+01  0.95487773159E+01  0.51100000000E-03 0. -1.
        -11    1    3    3    0    0  0.19129934603E+02 -0.37386727910E+01 -0.23877633639E+02  0.30823261680E+02  0.51100000000E-03 0.  1.
        -12    1    3    3    0    0  0.45444805642E+01 -0.17953168279E+01 -0.30693061863E+01  0.57702778595E+01  0.00000000000E+00 0.  1.
</event>
<event>
 7    1  0.2001181E-008  0.4614232E+02  0.7816164E-02  0.1320468E+00
        -11   -1    0    0    0    0  0.00000000000E+00  0.00000000000E+00  0.45593999997E+02  0.45594000000E+02  0.51100000000E-03 0.  1.
         11   -1    0    0    0    0 -0.00000000000E+00 -0.00000000000E+00 -0.45593999997E+02  0.45594000000E+02  0.51100000000E-03 0. -1.
    9900012    2    1    2    0    0  0.34024441351E+02 -0.29466854208E+02  0.17763433515E+01  0.46142317611E+02  0.99999986300E+01 0.  0.
        -12    1    1    2    0    0 -0.34024441351E+02  0.29466854208E+02 -0.17763433515E+01  0.45045682389E+02  0.00000000000E+00 0.  1.
         11    1    3    3    0    0  0.19872381863E+01 -0.33748785885E+01 -0.13963705820E+01  0.41579769311E+01  0.51100000000E-03 0. -1.
        -11    1    3    3    0    0  0.90547774642E+00 -0.25675330127E+01  0.10111115768E+01  0.29042146275E+01  0.51100000000E-03 0.  1.
        -12    1    3    3    0    0  0.31131725419E+02 -0.23524442607E+02  0.21616023567E+01  0.39080126052E+02  0.00000000000E+00 0.  1.
</event>
<event>
 7    1  0.2001181E-008  0.4614232E+02  0.7816164E-02  0.1320468E+00
        -11   -1    0    0    0    0  0.00000000000E+00  0.00000000000E+00  0.45593999997E+02  0.45594000000E+02  0.51100000000E-03 0. -1.
         11   -1    0    0    0    0 -0.00000000000E+00 -0.00000000000E+00 -0.45593999997E+02  0.45594000000E+02  0.51100000000E-03 0.  1.
    9900012    2    1    2    0    0  0.12781538027E+02 -0.38934400480E+02 -0.18704492098E+02  0.46142320077E+02  0.10000021122E+02 0.  0.
        -12    1    1    2    0    0 -0.12781538027E+02  0.38934400480E+02  0.18704492098E+02  0.45045679923E+02  0.00000000000E+00 0.  1.
         11    1    3    3    0    0  0.25335223835E+01 -0.11916279519E+02 -0.57110187206E+01  0.13454820264E+02  0.51100000000E-03 0. -1.
        -11    1    3    3    0    0  0.41319640463E+01 -0.20813295123E+02 -0.10156001496E+02  0.23524683789E+02  0.51100000000E-03 0.  1.
        -12    1    3    3    0    0  0.61160515970E+01 -0.62048258381E+01 -0.28374718814E+01  0.91628160243E+01  0.00000000000E+00 0.  1.
</event>
<event>
 7    1  0.2001181E-008  0.4614232E+02  0.7816164E-02  0.1320468E+00
        -11   -1    0    0    0    0  0.00000000000E+00  0.00000000000E+00  0.45593999997E+02  0.45594000000E+02  0.51100000000E-03 0.  1.
         11   -1    0    0    0    0 -0.00000000000E+00 -0.00000000000E+00 -0.45593999997E+02  0.45594000000E+02  0.51100000000E-03 0. -1.
    9900012    2    1    2    0    0  0.11693136550E+02  0.17934564849E+02 -0.39632505283E+02  0.46142317258E+02  0.99999954127E+01 0.  0.
        -12    1    1    2    0    0 -0.11693136550E+02 -0.17934564849E+02  0.39632505283E+02  0.45045682742E+02  0.00000000000E+00 0.  1.
         11    1    3    3    0    0  0.26984174919E+01  0.23654932282E+01 -0.28601374002E+01  0.45888344253E+01  0.51100000000E-03 0.  1.
        -11    1    3    3    0    0  0.50060920579E+01  0.48486184103E+01 -0.20583731006E+02  0.21731544827E+02  0.51100000000E-03 0. -1.
         12    1    3    3    0    0  0.39886270002E+01  0.10720453210E+02 -0.16188636877E+02  0.19821938006E+02  0.00000000000E+00 0. -1.
</event>
<event>
 7    1  0.2001181E-008  0.4614232E+02  0.7816164E-02  0.1320468E+00
        -11   -1    0    0    0    0  0.00000000000E+00  0.00000000000E+00  0.45593999997E+02  0.45594000000E+02  0.51100000000E-03 0.  1.
         11   -1    0    0    0    0 -0.00000000000E+00 -0.00000000000E+00 -0.45593999997E+02  0.45594000000E+02  0.51100000000E-03 0. -1.
    9900012    2    1    2    0    0  0.17949610572E+02  0.15077416487E+02 -0.38465523234E+02  0.46142317795E+02  0.10000000309E+02 0.  0.
        -12    1    1    2    0    0 -0.17949610572E+02 -0.15077416487E+02  0.38465523234E+02  0.45045682205E+02  0.00000000000E+00 0.  1.
         11    1    3    3    0    0  0.42900874239E+01  0.52836634900E+01 -0.11532704772E+02  0.13391237045E+02  0.51100000000E-03 0. -1.
        -11    1    3    3    0    0  0.42797387016E+01 -0.66382372931E+00 -0.42324549742E+01  0.60556172821E+01  0.51100000000E-03 0.  1.
        -12    1    3    3    0    0  0.93797844467E+01  0.10457576727E+02 -0.22700363488E+02  0.26695463467E+02  0.00000000000E+00 0.  1.
</event>
<event>
 7    1  0.2001181E-008  0.4614232E+02  0.7816164E-02  0.1320468E+00
        -11   -1    0    0    0    0  0.00000000000E+00  0.00000000000E+00  0.45593999997E+02  0.45594000000E+02  0.51100000000E-03 0.  1.
         11   -1    0    0    0    0 -0.00000000000E+00 -0.00000000000E+00 -0.45593999997E+02  0.45594000000E+02  0.51100000000E-03 0. -1.
    9900012    2    1    2    0    0  0.23695637019E+02  0.72042326083E+01 -0.37626178488E+02  0.46142317756E+02  0.99999999555E+01 0.  0.
        -12    1    1    2    0    0 -0.23695637019E+02 -0.72042326083E+01  0.37626178488E+02  0.45045682244E+02  0.00000000000E+00 0.  1.
         11    1    3    3    0    0  0.89798246742E+01  0.86594715592E+00 -0.12226423344E+02  0.15194490571E+02  0.51100000000E-03 0. -1.
        -11    1    3    3    0    0  0.72193002291E+01 -0.51373806991E+00 -0.13377826445E+02  0.15210143433E+02  0.51100000000E-03 0.  1.
         12    1    3    3    0    0  0.74965121156E+01  0.68520235223E+01 -0.12021928699E+02  0.15737683752E+02  0.00000000000E+00 0. -1.
</event>
<event>
 7    1  0.2001181E-008  0.4614232E+02  0.7816164E-02  0.1320468E+00
        -11   -1    0    0    0    0  0.00000000000E+00  0.00000000000E+00  0.45593999997E+02  0.45594000000E+02  0.51100000000E-03 0. -1.
         11   -1    0    0    0    0 -0.00000000000E+00 -0.00000000000E+00 -0.45593999997E+02  0.45594000000E+02  0.51100000000E-03 0.  1.
    9900012    2    1    2    0    0 -0.15914412248E+02  0.40596390531E+02  0.11303886739E+02  0.46142319888E+02  0.10000019396E+02 0.  0.
        -12    1    1    2    0    0  0.15914412248E+02 -0.40596390531E+02 -0.11303886739E+02  0.45045680112E+02  0.00000000000E+00 0.  1.
         11    1    3    3    0    0 -0.33788841936E+01  0.14883569278E+02  0.32879878951E+01  0.15612442394E+02  0.51100000000E-03 0. -1.
        -11    1    3    3    0    0 -0.18158496662E+00  0.71328109691E+01  0.23076016079E+01  0.74989993241E+01  0.51100000000E-03 0.  1.
        -12    1    3    3    0    0 -0.12353943087E+02  0.18580010284E+02  0.57082972361E+01  0.23030878170E+02  0.00000000000E+00 0.  1.
</event>
<event>
 7    1  0.2001181E-008  0.4614232E+02  0.7816164E-02  0.1320468E+00
        -11   -1    0    0    0    0  0.00000000000E+00  0.00000000000E+00  0.45593999997E+02  0.45594000000E+02  0.51100000000E-03 0.  1.
         11   -1    0    0    0    0 -0.00000000000E+00 -0.00000000000E+00 -0.45593999997E+02  0.45594000000E+02  0.51100000000E-03 0. -1.
    9900012    2    1    2    0    0  0.41804846166E+02  0.20691487639E+01 -0.16648932354E+02  0.46142317764E+02  0.10000000030E+02 0.  0.
        -12    1    1    2    0    0 -0.41804846166E+02 -0.20691487639E+01  0.16648932354E+02  0.45045682236E+02  0.00000000000E+00 0.  1.
         11    1    3    3    0    0  0.16342597702E+02  0.18318425789E+01 -0.20158009443E+01  0.16568029472E+02  0.51100000000E-03 0. -1.
        -11    1    3    3    0    0  0.10271391186E+01 -0.65985116189E+00 -0.10053766901E+01  0.15815185345E+01  0.51100000000E-03 0.  1.
        -12    1    3    3    0    0  0.24435109346E+02  0.89715734682E+00 -0.13627754719E+02  0.27992769758E+02  0.00000000000E+00 0.  1.
</event>
<event>
 7    1  0.2001181E-008  0.4614232E+02  0.7816164E-02  0.1320468E+00
        -11   -1    0    0    0    0  0.00000000000E+00  0.00000000000E+00  0.45593999997E+02  0.45594000000E+02  0.51100000000E-03 0. -1.
         11   -1    0    0    0    0 -0.00000000000E+00 -0.00000000000E+00 -0.45593999997E+02  0.45594000000E+02  0.51100000000E-03 0.  1.
    9900012    2    1    2    0    0 -0.55247010146E+01  0.41790119946E+02  0.15880083798E+02  0.46142317545E+02  0.99999980316E+01 0.  0.
        -12    1    1    2    0    0  0.55247010146E+01 -0.41790119946E+02 -0.15880083798E+02  0.45045682455E+02  0.00000000000E+00 0.  1.
         11    1    3    3    0    0 -0.64341638955E+01  0.29343105887E+02  0.13598067805E+02  0.32974592892E+02  0.51100000000E-03 0. -1.
        -11    1    3    3    0    0 -0.90730641904E+00  0.38881642714E+01 -0.40947116895E+00  0.40135636583E+01  0.51100000000E-03 0.  1.
         12    1    3    3    0    0  0.18167692999E+01  0.85588497874E+01  0.26914871619E+01  0.91541609946E+01  0.00000000000E+00 0. -1.
</event>
<event>
 7    1  0.2001181E-008  0.4614232E+02  0.7816164E-02  0.1320468E+00
        -11   -1    0    0    0    0  0.00000000000E+00  0.00000000000E+00  0.45593999997E+02  0.45594000000E+02  0.51100000000E-03 0. -1.
         11   -1    0    0    0    0 -0.00000000000E+00 -0.00000000000E+00 -0.45593999997E+02  0.45594000000E+02  0.51100000000E-03 0.  1.
    9900012    2    1    2    0    0 -0.11737714099E+02 -0.22377816298E+02  0.37290387265E+02  0.46142316778E+02  0.99999910380E+01 0.  0.
        -12    1    1    2    0    0  0.11737714099E+02  0.22377816298E+02 -0.37290387265E+02  0.45045683222E+02  0.00000000000E+00 0.  1.
         11    1    3    3    0    0 -0.55870074623E+01 -0.14574522301E+02  0.21506511265E+02  0.26573697141E+02  0.51100000000E-03 0. -1.
        -11    1    3    3    0    0 -0.49334713273E+01 -0.65912815804E+01  0.75941191414E+01  0.11200659713E+02  0.51100000000E-03 0.  1.
         12    1    3    3    0    0 -0.12172353092E+01 -0.12120124170E+01  0.81897568587E+01  0.83679599247E+01  0.00000000000E+00 0. -1.
</event>
<event>
 7    1  0.2001181E-008  0.4614232E+02  0.7816164E-02  0.1320468E+00
        -11   -1    0    0    0    0  0.00000000000E+00  0.00000000000E+00  0.45593999997E+02  0.45594000000E+02  0.51100000000E-03 0.  1.
         11   -1    0    0    0    0 -0.00000000000E+00 -0.00000000000E+00 -0.45593999997E+02  0.45594000000E+02  0.51100000000E-03 0. -1.
    9900012    2    1    2    0    0  0.40443179951E+02 -0.41422523136E+01 -0.19398566251E+02  0.46142318394E+02  0.10000005770E+02 0.  0.
        -12    1    1    2    0    0 -0.40443179951E+02  0.41422523136E+01  0.19398566251E+02  0.45045681606E+02  0.00000000000E+00 0.  1.
         11    1    3    3    0    0  0.31870380390E+02 -0.51546070736E+01 -0.12435184071E+02  0.34596602773E+02  0.51100000000E-03 0. -1.
        -11    1    3    3    0    0  0.18776065990E+01 -0.70677948887E+00 -0.29036655946E+01  0.35293367554E+01  0.51100000000E-03 0.  1.
         12    1    3    3    0    0  0.66951929619E+01  0.17191342489E+01 -0.40597165858E+01  0.80163788658E+01  0.00000000000E+00 0. -1.
</event>
<event>
 7    1  0.2001181E-008  0.4614232E+02  0.7816164E-02  0.1320468E+00
        -11   -1    0    0    0    0  0.00000000000E+00  0.00000000000E+00  0.45593999997E+02  0.45594000000E+02  0.51100000000E-03 0. -1.
         11   -1    0    0    0    0 -0.00000000000E+00 -0.00000000000E+00 -0.45593999997E+02  0.45594000000E+02  0.51100000000E-03 0.  1.
    9900012    2    1    2    0    0 -0.11003412797E+02  0.30981155690E+02  0.30792961314E+02  0.46142316882E+02  0.99999919847E+01 0.  0.
        -12    1    1    2    0    0  0.11003412797E+02 -0.30981155690E+02 -0.30792961314E+02  0.45045683118E+02  0.00000000000E+00 0.  1.
         11    1    3    3    0    0 -0.42446212772E+01  0.25499466233E+01  0.52040399765E+01  0.71833884696E+01  0.51100000000E-03 0. -1.
        -11    1    3    3    0    0 -0.13739799844E+01  0.12011547880E+02  0.10116426939E+02  0.15764111067E+02  0.51100000000E-03 0.  1.
         12    1    3    3    0    0 -0.53848115356E+01  0.16419661187E+02  0.15472494399E+02  0.23194817345E+02  0.00000000000E+00 0. -1.
</event>
<event>
 7    1  0.2001181E-008  0.4614232E+02  0.7816164E-02  0.1320468E+00
        -11   -1    0    0    0    0  0.00000000000E+00  0.00000000000E+00  0.45593999997E+02  0.45594000000E+02  0.51100000000E-03 0. -1.
         11   -1    0    0    0    0 -0.00000000000E+00 -0.00000000000E+00 -0.45593999997E+02  0.45594000000E+02  0.51100000000E-03 0.  1.
    9900012    2    1    2    0    0 -0.24439265907E+02  0.36578706235E+02  0.96867978435E+01  0.46142317406E+02  0.99999967612E+01 0.  0.
        -12    1    1    2    0    0  0.24439265907E+02 -0.36578706235E+02 -0.96867978435E+01  0.45045682594E+02  0.00000000000E+00 0.  1.
         11    1    3    3    0    0 -0.14331397414E+02  0.23611161632E+02  0.71537021673E+01  0.28531585312E+02  0.51100000000E-03 0. -1.
        -11    1    3    3    0    0 -0.20983881748E+00 -0.30608055371E+00  0.89891268692E+00  0.97250291234E+00  0.51100000000E-03 0.  1.
         12    1    3    3    0    0 -0.98980296754E+01  0.13273625157E+02  0.16341829892E+01  0.16638229182E+02  0.00000000000E+00 0. -1.
</event>
<event>
 7    1  0.2001181E-008  0.4614232E+02  0.7816164E-02  0.1320468E+00
        -11   -1    0    0    0    0  0.00000000000E+00  0.00000000000E+00  0.45593999997E+02  0.45594000000E+02  0.51100000000E-03 0. -1.
         11   -1    0    0    0    0 -0.00000000000E+00 -0.00000000000E+00 -0.45593999997E+02  0.45594000000E+02  0.51100000000E-03 0.  1.
    9900012    2    1    2    0    0 -0.10210092942E+02  0.43866306259E+02 -0.78412542965E+00  0.46142315685E+02  0.99999810694E+01 0.  0.
        -12    1    1    2    0    0  0.10210092942E+02 -0.43866306259E+02  0.78412542965E+00  0.45045684315E+02  0.00000000000E+00 0.  1.
         11    1    3    3    0    0 -0.40288842768E+01  0.24823362109E+02 -0.36764911783E+01  0.25415503193E+02  0.51100000000E-03 0. -1.
        -11    1    3    3    0    0  0.59724292304E+00  0.55729236439E+00  0.28755095125E+00  0.86600213580E+00  0.51100000000E-03 0.  1.
         12    1    3    3    0    0 -0.67784515882E+01  0.18485651786E+02  0.26048147974E+01  0.19860810356E+02  0.00000000000E+00 0. -1.
</event>
<event>
 7    1  0.2001181E-008  0.4614232E+02  0.7816164E-02  0.1320468E+00
        -11   -1    0    0    0    0  0.00000000000E+00  0.00000000000E+00  0.45593999997E+02  0.45594000000E+02  0.51100000000E-03 0. -1.
         11   -1    0    0    0    0 -0.00000000000E+00 -0.00000000000E+00 -0.45593999997E+02  0.45594000000E+02  0.51100000000E-03 0.  1.
    9900012    2    1    2    0    0  0.44526892242E+02 -0.58742621371E+01  0.34586829399E+01  0.46142316788E+02  0.99999911252E+01 0.  0.
        -12    1    1    2    0    0 -0.44526892242E+02  0.58742621371E+01 -0.34586829399E+01  0.45045683212E+02  0.00000000000E+00 0.  1.
         11    1    3    3    0    0  0.29017507229E+02 -0.55606083816E+01  0.25758680474E+01  0.29657565440E+02  0.51100000000E-03 0.  1.
        -11    1    3    3    0    0  0.13040490094E+02  0.56303037914E+00 -0.12418612175E+01  0.13111582843E+02  0.51100000000E-03 0. -1.
         12    1    3    3    0    0  0.24688949187E+01 -0.87668413462E+00  0.21246761100E+01  0.33731685051E+01  0.00000000000E+00 0. -1.
</event>
<event>
 7    1  0.2001181E-008  0.4614232E+02  0.7816164E-02  0.1320468E+00
        -11   -1    0    0    0    0  0.00000000000E+00  0.00000000000E+00  0.45593999997E+02  0.45594000000E+02  0.51100000000E-03 0.  1.
         11   -1    0    0    0    0 -0.00000000000E+00 -0.00000000000E+00 -0.45593999997E+02  0.45594000000E+02  0.51100000000E-03 0. -1.
    9900012    2    1    2    0    0  0.31196040136E+01  0.17352675900E+02 -0.41451974219E+02  0.46142318113E+02  0.10000003205E+02 0.  0.
        -12    1    1    2    0    0 -0.31196040136E+01 -0.17352675900E+02  0.41451974219E+02  0.45045681887E+02  0.00000000000E+00 0.  1.
         11    1    3    3    0    0  0.48634029710E+01  0.91415044243E+01 -0.17687455990E+02  0.20495509051E+02  0.51100000000E-03 0. -1.
        -11    1    3    3    0    0 -0.13012461714E+01 -0.72432068890E-01 -0.41628703560E+01  0.43621070442E+01  0.51100000000E-03 0.  1.
         12    1    3    3    0    0 -0.44255278602E+00  0.82836035443E+01 -0.19601647873E+02  0.21284702018E+02  0.00000000000E+00 0. -1.
</event>
<event>
 7    1  0.2001181E-008  0.4614232E+02  0.7816164E-02  0.1320468E+00
        -11   -1    0    0    0    0  0.00000000000E+00  0.00000000000E+00  0.45593999997E+02  0.45594000000E+02  0.51100000000E-03 0.  1.
         11   -1    0    0    0    0 -0.00000000000E+00 -0.00000000000E+00 -0.45593999997E+02  0.45594000000E+02  0.51100000000E-03 0. -1.
    9900012    2    1    2    0    0  0.33968172306E+02 -0.72685734159E+01 -0.28678295104E+02  0.46142317639E+02  0.99999988841E+01 0.  0.
        -12    1    1    2    0    0 -0.33968172306E+02  0.72685734159E+01  0.28678295104E+02  0.45045682361E+02  0.00000000000E+00 0.  1.
         11    1    3    3    0    0  0.88859198367E+01 -0.34503707319E+01 -0.95188618049E+01  0.13471204840E+02  0.51100000000E-03 0. -1.
        -11    1    3    3    0    0  0.20692403787E+02 -0.31766157436E+01 -0.18937088088E+02  0.28229058921E+02  0.51100000000E-03 0.  1.
        -12    1    3    3    0    0  0.43898486818E+01 -0.64158694041E+00 -0.22234521145E+00  0.44420538768E+01  0.00000000000E+00 0.  1.
</event>
<event>
 7    1  0.2001181E-008  0.4614232E+02  0.7816164E-02  0.1320468E+00
        -11   -1    0    0    0    0  0.00000000000E+00  0.00000000000E+00  0.45593999997E+02  0.45594000000E+02  0.51100000000E-03 0.  1.
         11   -1    0    0    0    0 -0.00000000000E+00 -0.00000000000E+00 -0.45593999997E+02  0.45594000000E+02  0.51100000000E-03 0. -1.
    9900012    2    1    2    0    0 -0.28316005134E+02 -0.68873242674E+01 -0.34349411836E+02  0.46142317901E+02  0.10000001276E+02 0.  0.
        -12    1    1    2    0    0  0.28316005134E+02  0.68873242674E+01  0.34349411836E+02  0.45045682099E+02  0.00000000000E+00 0.  1.
         11    1    3    3    0    0 -0.76008493591E+01 -0.46947697278E+01 -0.13575441700E+02  0.16251350448E+02  0.51100000000E-03 0. -1.
        -11    1    3    3    0    0 -0.35683676029E+01  0.10534436994E+01 -0.18726031182E+01  0.41652891468E+01  0.51100000000E-03 0.  1.
         12    1    3    3    0    0 -0.17146788172E+02 -0.32459982390E+01 -0.18901367017E+02  0.25725678306E+02  0.00000000000E+00 0. -1.
</event>
<event>
 7    1  0.2001181E-008  0.4614232E+02  0.7816164E-02  0.1320468E+00
        -11   -1    0    0    0    0  0.00000000000E+00  0.00000000000E+00  0.45593999997E+02  0.45594000000E+02  0.51100000000E-03 0.  1.
         11   -1    0    0    0    0 -0.00000000000E+00 -0.00000000000E+00 -0.45593999997E+02  0.45594000000E+02  0.51100000000E-03 0. -1.
    9900012    2    1    2    0    0 -0.11071829970E+02 -0.18188148729E+02 -0.39695330573E+02  0.46142318272E+02  0.10000004660E+02 0.  0.
        -12    1    1    2    0    0  0.11071829970E+02  0.18188148729E+02  0.39695330573E+02  0.45045681728E+02  0.00000000000E+00 0.  1.
         11    1    3    3    0    0 -0.13058282415E+01 -0.35588641966E+01 -0.10622693626E+02  0.11278843997E+02  0.51100000000E-03 0.  1.
        -11    1    3    3    0    0 -0.54490607124E+01 -0.12487708823E+02 -0.25330048184E+02  0.28761892768E+02  0.51100000000E-03 0. -1.
        -12    1    3    3    0    0 -0.43169410161E+01 -0.21415757088E+01 -0.37425887620E+01  0.61015815076E+01  0.00000000000E+00 0.  1.
</event>
<event>
 7    1  0.2001181E-008  0.4614231E+02  0.7816164E-02  0.1320468E+00
        -11   -1    0    0    0    0  0.00000000000E+00  0.00000000000E+00  0.45593999997E+02  0.45594000000E+02  0.51100000000E-03 0. -1.
         11   -1    0    0    0    0 -0.00000000000E+00 -0.00000000000E+00 -0.45593999997E+02  0.45594000000E+02  0.51100000000E-03 0.  1.
    9900012    2    1    2    0    0 -0.13895791309E+02 -0.36332676522E+02 -0.22714695690E+02  0.46142314306E+02  0.99999684973E+01 0.  0.
        -12    1    1    2    0    0  0.13895791309E+02  0.36332676522E+02  0.22714695690E+02  0.45045685694E+02  0.00000000000E+00 0.  1.
         11    1    3    3    0    0 -0.80682860400E+01 -0.21207508528E+02 -0.14682476681E+02  0.27026482925E+02  0.51100000000E-03 0. -1.
        -11    1    3    3    0    0 -0.22793771994E+01 -0.87780440740E+01 -0.75981090556E+01  0.11831351557E+02  0.51100000000E-03 0.  1.
        -12    1    3    3    0    0 -0.35481280698E+01 -0.63471239201E+01 -0.43410995317E+00  0.72844798241E+01  0.00000000000E+00 0.  1.
</event>
<event>
 7    1  0.2001181E-008  0.4614232E+02  0.7816164E-02  0.1320468E+00
        -11   -1    0    0    0    0  0.00000000000E+00  0.00000000000E+00  0.45593999997E+02  0.45594000000E+02  0.51100000000E-03 0.  1.
         11   -1    0    0    0    0 -0.00000000000E+00 -0.00000000000E+00 -0.45593999997E+02  0.45594000000E+02  0.51100000000E-03 0. -1.
    9900012    2    1    2    0    0  0.15583644453E+02 -0.35722697637E+02 -0.22586551215E+02  0.46142318779E+02  0.10000009282E+02 0.  0.
        -12    1    1    2    0    0 -0.15583644453E+02  0.35722697637E+02  0.22586551215E+02  0.45045681221E+02  0.00000000000E+00 0.  1.
         11    1    3    3    0    0  0.10313785755E+02 -0.19229317168E+02 -0.13803749350E+02  0.25820230667E+02  0.51100000000E-03 0. -1.
        -11    1    3    3    0    0  0.19602084686E+01 -0.84828803555E+00 -0.20847341374E+01  0.29846484745E+01  0.51100000000E-03 0.  1.
        -12    1    3    3    0    0  0.33096502289E+01 -0.15645092433E+02 -0.66980677277E+01  0.17337439637E+02  0.00000000000E+00 0.  1.
</event>
<event>
 7    1  0.2001181E-008  0.4614231E+02  0.7816164E-02  0.1320468E+00
        -11   -1    0    0    0    0  0.00000000000E+00  0.00000000000E+00  0.45593999997E+02  0.45594000000E+02  0.51100000000E-03 0.  1.
         11   -1    0    0    0    0 -0.00000000000E+00 -0.00000000000E+00 -0.45593999997E+02  0.45594000000E+02  0.51100000000E-03 0. -1.
    9900012    2    1    2    0    0 -0.18835187278E+02 -0.40862225060E+02 -0.21513228899E+01  0.46142313117E+02  0.99999576477E+01 0.  0.
        -12    1    1    2    0    0  0.18835187278E+02  0.40862225060E+02  0.21513228899E+01  0.45045686883E+02  0.00000000000E+00 0.  1.
         11    1    3    3    0    0 -0.55570171622E+01 -0.10882782702E+02 -0.31733842658E+01  0.12624807604E+02  0.51100000000E-03 0. -1.
        -11    1    3    3    0    0 -0.57943647236E+01 -0.74077569519E+01 -0.17841664707E+01  0.95725010246E+01  0.51100000000E-03 0.  1.
        -12    1    3    3    0    0 -0.74838053923E+01 -0.22571685406E+02  0.28062278467E+01  0.23945004488E+02  0.00000000000E+00 0.  1.
</event>
<event>
 7    1  0.2001181E-008  0.4614232E+02  0.7816164E-02  0.1320468E+00
        -11   -1    0    0    0    0  0.00000000000E+00  0.00000000000E+00  0.45593999997E+02  0.45594000000E+02  0.51100000000E-03 0.  1.
         11   -1    0    0    0    0 -0.00000000000E+00 -0.00000000000E+00 -0.45593999997E+02  0.45594000000E+02  0.51100000000E-03 0. -1.
    9900012    2    1    2    0    0 -0.39356557198E+01 -0.18148803672E+02 -0.41039554151E+02  0.46142318014E+02  0.10000002305E+02 0.  0.
        -12    1    1    2    0    0  0.39356557198E+01  0.18148803672E+02  0.41039554151E+02  0.45045681986E+02  0.00000000000E+00 0.  1.
         11    1    3    3    0    0 -0.51342449057E+01 -0.11598781108E+02 -0.18539109796E+02  0.22463098322E+02  0.51100000000E-03 0.  1.
        -11    1    3    3    0    0  0.16224658517E+00 -0.33238634425E+01 -0.62655474368E+01  0.70944680619E+01  0.51100000000E-03 0. -1.
        -12    1    3    3    0    0  0.10363426007E+01 -0.32261591212E+01 -0.16234896919E+02  0.16584751630E+02  0.00000000000E+00 0.  1.
</event>
<event>
 7    1  0.2001181E-008  0.4614231E+02  0.7816164E-02  0.1320468E+00
        -11   -1    0    0    0    0  0.00000000000E+00  0.00000000000E+00  0.45593999997E+02  0.45594000000E+02  0.51100000000E-03 0. -1.
         11   -1    0    0    0    0 -0.00000000000E+00 -0.00000000000E+00 -0.45593999997E+02  0.45594000000E+02  0.51100000000E-03 0.  1.
    9900012    2    1    2    0    0 -0.37682100461E+02  0.11520060616E+02 -0.21827993873E+02  0.46142314210E+02  0.99999676200E+01 0.  0.
        -12    1    1    2    0    0  0.37682100461E+02 -0.11520060616E+02  0.21827993873E+02  0.45045685790E+02  0.00000000000E+00 0.  1.
         11    1    3    3    0    0 -0.49834848064E+01 -0.76413295084E+00 -0.38441152280E+01  0.63400506409E+01  0.51100000000E-03 0. -1.
        -11    1    3    3    0    0 -0.22389235860E+02  0.10762293441E+02 -0.10485689970E+02  0.26963948837E+02  0.51100000000E-03 0.  1.
        -12    1    3    3    0    0 -0.10309379795E+02  0.15219001253E+01 -0.74981886749E+01  0.12838314732E+02  0.00000000000E+00 0.  1.
</event>
<event>
 7    1  0.2001181E-008  0.4614232E+02  0.7816164E-02  0.1320468E+00
        -11   -1    0    0    0    0  0.00000000000E+00  0.00000000000E+00  0.45593999997E+02  0.45594000000E+02  0.51100000000E-03 0.  1.
         11   -1    0    0    0    0 -0.00000000000E+00 -0.00000000000E+00 -0.45593999997E+02  0.45594000000E+02  0.51100000000E-03 0. -1.
    9900012    2    1    2    0    0 -0.41014275019E+02 -0.18626399537E+02  0.33783334207E-02  0.46142317338E+02  0.99999961413E+01 0.  0.
        -12    1    1    2    0    0  0.41014275019E+02  0.18626399537E+02 -0.33783334207E-02  0.45045682662E+02  0.00000000000E+00 0.  1.
         11    1    3    3    0    0 -0.16073163478E+02 -0.32865883311E+01 -0.19694190760E+01  0.16523524407E+02  0.51100000000E-03 0. -1.
        -11    1    3    3    0    0 -0.18623273179E+02 -0.93636790082E+01  0.17721099476E+01  0.20919970421E+02  0.51100000000E-03 0.  1.
        -12    1    3    3    0    0 -0.63178383617E+01 -0.59761321981E+01  0.20068746181E+00  0.86988225107E+01  0.00000000000E+00 0.  1.
</event>
<event>
 7    1  0.2001181E-008  0.4614232E+02  0.7816164E-02  0.1320468E+00
        -11   -1    0    0    0    0  0.00000000000E+00  0.00000000000E+00  0.45593999997E+02  0.45594000000E+02  0.51100000000E-03 0. -1.
         11   -1    0    0    0    0 -0.00000000000E+00 -0.00000000000E+00 -0.45593999997E+02  0.45594000000E+02  0.51100000000E-03 0.  1.
    9900012    2    1    2    0    0 -0.42543734976E+02 -0.14773498792E+02  0.94220563641E+00  0.46142318701E+02  0.10000008567E+02 0.  0.
        -12    1    1    2    0    0  0.42543734976E+02  0.14773498792E+02 -0.94220563641E+00  0.45045681299E+02  0.00000000000E+00 0.  1.
         11    1    3    3    0    0 -0.21690559931E+02 -0.38254433767E+01 -0.14603634415E+01  0.22073673658E+02  0.51100000000E-03 0. -1.
        -11    1    3    3    0    0 -0.12304536882E+02 -0.55164704798E+01 -0.62063704279E+00  0.13498824580E+02  0.51100000000E-03 0.  1.
        -12    1    3    3    0    0 -0.85486381631E+01 -0.54315849360E+01  0.30232061206E+01  0.10569820462E+02  0.00000000000E+00 0.  1.
</event>
<event>
 7    1  0.2001181E-008  0.4614232E+02  0.7816164E-02  0.1320468E+00
        -11   -1    0    0    0    0  0.00000000000E+00  0.00000000000E+00  0.45593999997E+02  0.45594000000E+02  0.51100000000E-03 0.  1.
         11   -1    0    0    0    0 -0.00000000000E+00 -0.00000000000E+00 -0.45593999997E+02  0.45594000000E+02  0.51100000000E-03 0. -1.
    9900012    2    1    2    0    0 -0.13058758015E+02 -0.40463097601E+02 -0.14876831128E+02  0.46142317268E+02  0.99999955000E+01 0.  0.
        -12    1    1    2    0    0  0.13058758015E+02  0.40463097601E+02  0.14876831128E+02  0.45045682732E+02  0.00000000000E+00 0.  1.
         11    1    3    3    0    0  0.99946693784E+00 -0.16105136843E+01 -0.70994926793E+00  0.20240347604E+01  0.51100000000E-03 0. -1.
        -11    1    3    3    0    0 -0.35856458134E+01 -0.93647705600E+01 -0.63336748899E+01  0.11860489931E+02  0.51100000000E-03 0.  1.
         12    1    3    3    0    0 -0.10472579140E+02 -0.29487813357E+02 -0.78332069705E+01  0.32257792576E+02  0.00000000000E+00 0. -1.
</event>
<event>
 7    1  0.2001181E-008  0.4614232E+02  0.7816164E-02  0.1320468E+00
        -11   -1    0    0    0    0  0.00000000000E+00  0.00000000000E+00  0.45593999997E+02  0.45594000000E+02  0.51100000000E-03 0.  1.
         11   -1    0    0    0    0 -0.00000000000E+00 -0.00000000000E+00 -0.45593999997E+02  0.45594000000E+02  0.51100000000E-03 0. -1.
    9900012    2    1    2    0    0 -0.25247121767E+01  0.29248998419E+02 -0.34164830149E+02  0.46142315421E+02  0.99999786585E+01 0.  0.
        -12    1    1    2    0    0  0.25247121767E+01 -0.29248998419E+02  0.34164830149E+02  0.45045684579E+02  0.00000000000E+00 0.  1.
         11    1    3    3    0    0 -0.44262351623E+01  0.24884051081E+02 -0.25237778226E+02  0.35717684779E+02  0.51100000000E-03 0. -1.
        -11    1    3    3    0    0  0.75405100721E-02  0.13126678568E+01 -0.79532002923E+00  0.15348250622E+01  0.51100000000E-03 0.  1.
        -12    1    3    3    0    0  0.18939824755E+01  0.30522794811E+01 -0.81317318937E+01  0.88898055794E+01  0.00000000000E+00 0.  1.
</event>
<event>
 7    1  0.2001181E-008  0.4614232E+02  0.7816164E-02  0.1320468E+00
        -11   -1    0    0    0    0  0.00000000000E+00  0.00000000000E+00  0.45593999997E+02  0.45594000000E+02  0.51100000000E-03 0.  1.
         11   -1    0    0    0    0 -0.00000000000E+00 -0.00000000000E+00 -0.45593999997E+02  0.45594000000E+02  0.51100000000E-03 0. -1.
    9900012    2    1    2    0    0  0.20679904871E+02  0.96661912131E+01 -0.38833228908E+02  0.46142318904E+02  0.10000010418E+02 0.  0.
        -12    1    1    2    0    0 -0.20679904871E+02 -0.96661912131E+01  0.38833228908E+02  0.45045681096E+02  0.00000000000E+00 0.  1.
         11    1    3    3    0    0  0.68223306939E+01 -0.52948506205E+00 -0.77297087734E+01  0.10323417482E+02  0.51100000000E-03 0. -1.
        -11    1    3    3    0    0  0.18255864971E+00  0.71779817080E+00 -0.28077194473E+00  0.79208271074E+00  0.51100000000E-03 0.  1.
         12    1    3    3    0    0  0.13675015527E+02  0.94778781044E+01 -0.30822748190E+02  0.35026818711E+02  0.00000000000E+00 0. -1.
</event>
<event>
 7    1  0.2001181E-008  0.4614232E+02  0.7816164E-02  0.1320468E+00
        -11   -1    0    0    0    0  0.00000000000E+00  0.00000000000E+00  0.45593999997E+02  0.45594000000E+02  0.51100000000E-03 0. -1.
         11   -1    0    0    0    0 -0.00000000000E+00 -0.00000000000E+00 -0.45593999997E+02  0.45594000000E+02  0.51100000000E-03 0.  1.
    9900012    2    1    2    0    0 -0.29014920401E+02 -0.12270313037E+02  0.32197628768E+02  0.46142317786E+02  0.10000000224E+02 0.  0.
        -12    1    1    2    0    0  0.29014920401E+02  0.12270313037E+02 -0.32197628768E+02  0.45045682214E+02  0.00000000000E+00 0.  1.
         11    1    3    3    0    0 -0.12650067494E+02 -0.34087799224E+01  0.17507115908E+02  0.21866483390E+02  0.51100000000E-03 0. -1.
        -11    1    3    3    0    0 -0.23740018808E+01  0.34135888207E+00  0.30555359903E+01  0.38844190383E+01  0.51100000000E-03 0.  1.
        -12    1    3    3    0    0 -0.13990851025E+02 -0.92028919965E+01  0.11634976870E+02  0.20391415357E+02  0.00000000000E+00 0.  1.
</event>
<event>
 7    1  0.2001181E-008  0.4614232E+02  0.7816164E-02  0.1320468E+00
        -11   -1    0    0    0    0  0.00000000000E+00  0.00000000000E+00  0.45593999997E+02  0.45594000000E+02  0.51100000000E-03 0. -1.
         11   -1    0    0    0    0 -0.00000000000E+00 -0.00000000000E+00 -0.45593999997E+02  0.45594000000E+02  0.51100000000E-03 0.  1.
    9900012    2    1    2    0    0  0.12964335729E+02 -0.39124959294E+02  0.18173527294E+02  0.46142317244E+02  0.99999952862E+01 0.  0.
        -12    1    1    2    0    0 -0.12964335729E+02  0.39124959294E+02 -0.18173527294E+02  0.45045682756E+02  0.00000000000E+00 0.  1.
         11    1    3    3    0    0 -0.28807923219E+00 -0.39392762993E+01  0.94792968853E+00  0.40619525307E+01  0.51100000000E-03 0. -1.
        -11    1    3    3    0    0  0.84373544255E+01 -0.23695623287E+02  0.15389985643E+02  0.29487678291E+02  0.51100000000E-03 0.  1.
        -12    1    3    3    0    0  0.48150605361E+01 -0.11490059708E+02  0.18356119619E+01  0.12592686422E+02  0.00000000000E+00 0.  1.
</event>
<event>
 7    1  0.2001181E-008  0.4614232E+02  0.7816164E-02  0.1320468E+00
        -11   -1    0    0    0    0  0.00000000000E+00  0.00000000000E+00  0.45593999997E+02  0.45594000000E+02  0.51100000000E-03 0.  1.
         11   -1    0    0    0    0 -0.00000000000E+00 -0.00000000000E+00 -0.45593999997E+02  0.45594000000E+02  0.51100000000E-03 0. -1.
    9900012    2    1    2    0    0  0.38810014247E+02 -0.17650040282E+02 -0.14538648591E+02  0.46142318401E+02  0.10000005839E+02 0.  0.
        -12    1    1    2    0    0 -0.38810014247E+02  0.17650040282E+02  0.14538648591E+02  0.45045681599E+02  0.00000000000E+00 0.  1.
         11    1    3    3    0    0 -0.14287675080E-01 -0.60810138590E+00  0.43664306820E+00  0.74876489189E+00  0.51100000000E-03 0. -1.
        -11    1    3    3    0    0  0.63474186959E+01 -0.20652414410E+01 -0.14423459122E+00  0.66765073346E+01  0.51100000000E-03 0.  1.
         12    1    3    3    0    0  0.32476883227E+02 -0.14976697455E+02 -0.14831057068E+02  0.38717046175E+02  0.00000000000E+00 0. -1.
</event>
<event>
 7    1  0.2001181E-008  0.4614232E+02  0.7816164E-02  0.1320468E+00
        -11   -1    0    0    0    0  0.00000000000E+00  0.00000000000E+00  0.45593999997E+02  0.45594000000E+02  0.51100000000E-03 0.  1.
         11   -1    0    0    0    0 -0.00000000000E+00 -0.00000000000E+00 -0.45593999997E+02  0.45594000000E+02  0.51100000000E-03 0. -1.
    9900012    2    1    2    0    0 -0.30195375309E+02 -0.23436298636E+02 -0.23834696155E+02  0.46142317359E+02  0.99999963312E+01 0.  0.
        -12    1    1    2    0    0  0.30195375309E+02  0.23436298636E+02  0.23834696155E+02  0.45045682641E+02  0.00000000000E+00 0.  1.
         11    1    3    3    0    0 -0.23883927165E+02 -0.19319482904E+02 -0.17134692034E+02  0.35175020510E+02  0.51100000000E-03 0. -1.
        -11    1    3    3    0    0 -0.18131788948E+01 -0.32105381588E+01 -0.13682283395E+01  0.39328389268E+01  0.51100000000E-03 0.  1.
        -12    1    3    3    0    0 -0.44982692493E+01 -0.90627757337E+00 -0.53317757809E+01  0.70344579221E+01  0.00000000000E+00 0.  1.
</event>
<event>
 7    1  0.2001181E-008  0.4614232E+02  0.7816164E-02  0.1320468E+00
        -11   -1    0    0    0    0  0.00000000000E+00  0.00000000000E+00  0.45593999997E+02  0.45594000000E+02  0.51100000000E-03 0.  1.
         11   -1    0    0    0    0 -0.00000000000E+00 -0.00000000000E+00 -0.45593999997E+02  0.45594000000E+02  0.51100000000E-03 0. -1.
    9900012    2    1    2    0    0  0.12051758754E+02 -0.42293977708E+02 -0.97513104959E+01  0.46142317679E+02  0.99999992474E+01 0.  0.
        -12    1    1    2    0    0 -0.12051758754E+02  0.42293977708E+02  0.97513104959E+01  0.45045682321E+02  0.00000000000E+00 0.  1.
         11    1    3    3    0    0  0.90297889147E+00 -0.33018417116E+01 -0.21764280482E+01  0.40563985106E+01  0.51100000000E-03 0. -1.
        -11    1    3    3    0    0  0.22394409577E+01 -0.76007678160E+01  0.18181415576E+01  0.81297236226E+01  0.51100000000E-03 0.  1.
        -12    1    3    3    0    0  0.89093389051E+01 -0.31391368180E+02 -0.93930240053E+01  0.33956195545E+02  0.00000000000E+00 0.  1.
</event>
<event>
 7    1  0.2001181E-008  0.4614232E+02  0.7816164E-02  0.1320468E+00
        -11   -1    0    0    0    0  0.00000000000E+00  0.00000000000E+00  0.45593999997E+02  0.45594000000E+02  0.51100000000E-03 0. -1.
         11   -1    0    0    0    0 -0.00000000000E+00 -0.00000000000E+00 -0.45593999997E+02  0.45594000000E+02  0.51100000000E-03 0.  1.
    9900012    2    1    2    0    0  0.27380782803E+02  0.20357270123E+02  0.29410663601E+02  0.46142324878E+02  0.10000064895E+02 0.  0.
        -12    1    1    2    0    0 -0.27380782803E+02 -0.20357270123E+02 -0.29410663601E+02  0.45045675122E+02  0.00000000000E+00 0.  1.
         11    1    3    3    0    0  0.50334707494E+01  0.83685148012E+01  0.91300085256E+01  0.13368804124E+02  0.51100000000E-03 0. -1.
        -11    1    3    3    0    0  0.74111215961E+01  0.49042284833E+01  0.96530367937E+01  0.13120872682E+02  0.51100000000E-03 0.  1.
        -12    1    3    3    0    0  0.14936190458E+02  0.70845268382E+01  0.10627618282E+02  0.19652648072E+02  0.00000000000E+00 0.  1.
</event>
<event>
 7    1  0.2001181E-008  0.4614232E+02  0.7816164E-02  0.1320468E+00
        -11   -1    0    0    0    0  0.00000000000E+00  0.00000000000E+00  0.45593999997E+02  0.45594000000E+02  0.51100000000E-03 0. -1.
         11   -1    0    0    0    0 -0.00000000000E+00 -0.00000000000E+00 -0.45593999997E+02  0.45594000000E+02  0.51100000000E-03 0.  1.
    9900012    2    1    2    0    0  0.50228928806E+01  0.42588760025E+02  0.13787002197E+02  0.46142319153E+02  0.10000012692E+02 0.  0.
        -12    1    1    2    0    0 -0.50228928806E+01 -0.42588760025E+02 -0.13787002197E+02  0.45045680847E+02  0.00000000000E+00 0.  1.
         11    1    3    3    0    0  0.23882965131E+01  0.89129482552E+01  0.43377869423E+01  0.10196126846E+02  0.51100000000E-03 0. -1.
        -11    1    3    3    0    0  0.34576714662E+00  0.28768506481E+02  0.56203709049E+01  0.29314417774E+02  0.51100000000E-03 0.  1.
        -12    1    3    3    0    0  0.22888292208E+01  0.49073052894E+01  0.38288443499E+01  0.66317745334E+01  0.00000000000E+00 0.  1.
</event>
<event>
 7    1  0.2001181E-008  0.4614232E+02  0.7816164E-02  0.1320468E+00
        -11   -1    0    0    0    0  0.00000000000E+00  0.00000000000E+00  0.45593999997E+02  0.45594000000E+02  0.51100000000E-03 0.  1.
         11   -1    0    0    0    0 -0.00000000000E+00 -0.00000000000E+00 -0.45593999997E+02  0.45594000000E+02  0.51100000000E-03 0. -1.
    9900012    2    1    2    0    0 -0.20165403725E+02 -0.21360869168E+01 -0.40223217729E+02  0.46142316309E+02  0.99999867591E+01 0.  0.
        -12    1    1    2    0    0  0.20165403725E+02  0.21360869168E+01  0.40223217729E+02  0.45045683691E+02  0.00000000000E+00 0.  1.
         11    1    3    3    0    0 -0.27022388576E+01 -0.14482092090E+01 -0.11783342878E+02  0.12175654989E+02  0.51100000000E-03 0. -1.
        -11    1    3    3    0    0 -0.38261250300E+00  0.11686019971E+01 -0.96964156381E+00  0.15659591242E+01  0.51100000000E-03 0.  1.
         12    1    3    3    0    0 -0.17080552364E+02 -0.18564797049E+01 -0.27470233287E+02  0.32400702196E+02  0.00000000000E+00 0. -1.
</event>
<event>
 7    1  0.2001181E-008  0.4614232E+02  0.7816164E-02  0.1320468E+00
        -11   -1    0    0    0    0  0.00000000000E+00  0.00000000000E+00  0.45593999997E+02  0.45594000000E+02  0.51100000000E-03 0.  1.
         11   -1    0    0    0    0 -0.00000000000E+00 -0.00000000000E+00 -0.45593999997E+02  0.45594000000E+02  0.51100000000E-03 0. -1.
    9900012    2    1    2    0    0  0.35106613945E+02  0.25652003658E+02 -0.11773433482E+02  0.46142319072E+02  0.10000011952E+02 0.  0.
        -12    1    1    2    0    0 -0.35106613945E+02 -0.25652003658E+02  0.11773433482E+02  0.45045680928E+02  0.00000000000E+00 0.  1.
         11    1    3    3    0    0  0.17859132294E+02  0.11844775125E+02 -0.78489689870E+01  0.22822217650E+02  0.51100000000E-03 0. -1.
        -11    1    3    3    0    0  0.14406571455E+02  0.14046010187E+02 -0.37220444258E+01  0.20461996926E+02  0.51100000000E-03 0.  1.
        -12    1    3    3    0    0  0.28409101965E+01 -0.23878165395E+00 -0.20242006951E+00  0.28581044955E+01  0.00000000000E+00 0.  1.
</event>
<event>
 7    1  0.2001181E-008  0.4614232E+02  0.7816164E-02  0.1320468E+00
        -11   -1    0    0    0    0  0.00000000000E+00  0.00000000000E+00  0.45593999997E+02  0.45594000000E+02  0.51100000000E-03 0.  1.
         11   -1    0    0    0    0 -0.00000000000E+00 -0.00000000000E+00 -0.45593999997E+02  0.45594000000E+02  0.51100000000E-03 0. -1.
    9900012    2    1    2    0    0 -0.32423770068E+01 -0.24552374243E+02 -0.37626870547E+02  0.46142317890E+02  0.10000001172E+02 0.  0.
        -12    1    1    2    0    0  0.32423770068E+01  0.24552374243E+02  0.37626870547E+02  0.45045682110E+02  0.00000000000E+00 0.  1.
         11    1    3    3    0    0 -0.22047519515E+01 -0.14528490738E+02 -0.22586139607E+02  0.26945717227E+02  0.51100000000E-03 0. -1.
        -11    1    3    3    0    0 -0.49154044404E+00 -0.10843435164E+02 -0.13039308620E+02  0.16966003292E+02  0.51100000000E-03 0.  1.
        -12    1    3    3    0    0 -0.54608461129E+00  0.81955165872E+00 -0.20014223210E+01  0.22305973709E+01  0.00000000000E+00 0.  1.
</event>
<event>
 7    1  0.2001181E-008  0.4614232E+02  0.7816164E-02  0.1320468E+00
        -11   -1    0    0    0    0  0.00000000000E+00  0.00000000000E+00  0.45593999997E+02  0.45594000000E+02  0.51100000000E-03 0.  1.
         11   -1    0    0    0    0 -0.00000000000E+00 -0.00000000000E+00 -0.45593999997E+02  0.45594000000E+02  0.51100000000E-03 0. -1.
    9900012    2    1    2    0    0 -0.35293854967E+01  0.18986769718E+02 -0.40695939759E+02  0.46142317641E+02  0.99999989047E+01 0.  0.
        -12    1    1    2    0    0  0.35293854967E+01 -0.18986769718E+02  0.40695939759E+02  0.45045682359E+02  0.00000000000E+00 0.  1.
         11    1    3    3    0    0 -0.21007604700E+01  0.13240255941E+02 -0.26035102922E+02  0.29283854875E+02  0.51100000000E-03 0. -1.
        -11    1    3    3    0    0 -0.13253771205E+01  0.61813750609E+01 -0.15012796069E+02  0.16289569307E+02  0.51100000000E-03 0.  1.
        -12    1    3    3    0    0 -0.10324790624E+00 -0.43486128444E+00  0.35195923114E+00  0.56889345860E+00  0.00000000000E+00 0.  1.
</event>
<event>
 7    1  0.2001181E-008  0.4614232E+02  0.7816164E-02  0.1320468E+00
        -11   -1    0    0    0    0  0.00000000000E+00  0.00000000000E+00  0.45593999997E+02  0.45594000000E+02  0.51100000000E-03 0. -1.
         11   -1    0    0    0    0 -0.00000000000E+00 -0.00000000000E+00 -0.45593999997E+02  0.45594000000E+02  0.51100000000E-03 0.  1.
    9900012    2    1    2    0    0  0.33106410315E+02 -0.17340786083E+02  0.25147087343E+02  0.46142320209E+02  0.10000022326E+02 0.  0.
        -12    1    1    2    0    0 -0.33106410315E+02  0.17340786083E+02 -0.25147087343E+02  0.45045679791E+02  0.00000000000E+00 0.  1.
         11    1    3    3    0    0  0.65988737758E+01 -0.52696750801E+01  0.86001965592E+01  0.12053132028E+02  0.51100000000E-03 0.  1.
        -11    1    3    3    0    0  0.20589810453E+02 -0.89710832263E+01  0.15591373123E+02  0.27340657360E+02  0.51100000000E-03 0. -1.
        -12    1    3    3    0    0  0.59177260867E+01 -0.31000277771E+01  0.95551766036E+00  0.67485308220E+01  0.00000000000E+00 0.  1.
</event>
<event>
 7    1  0.2001181E-008  0.4614232E+02  0.7816164E-02  0.1320468E+00
        -11   -1    0    0    0    0  0.00000000000E+00  0.00000000000E+00  0.45593999997E+02  0.45594000000E+02  0.51100000000E-03 0. -1.
         11   -1    0    0    0    0 -0.00000000000E+00 -0.00000000000E+00 -0.45593999997E+02  0.45594000000E+02  0.51100000000E-03 0.  1.
    9900012    2    1    2    0    0 -0.35852356187E+02 -0.15449218120E+02  0.22473178010E+02  0.46142317470E+02  0.99999973495E+01 0.  0.
        -12    1    1    2    0    0  0.35852356187E+02  0.15449218120E+02 -0.22473178010E+02  0.45045682530E+02  0.00000000000E+00 0.  1.
         11    1    3    3    0    0 -0.20935923045E+02 -0.10680525090E+02  0.17574129955E+02  0.29346831753E+02  0.51100000000E-03 0. -1.
        -11    1    3    3    0    0 -0.10230892834E+02 -0.36919646619E+01  0.50358187592E+01  0.11985876775E+02  0.51100000000E-03 0.  1.
        -12    1    3    3    0    0 -0.46855403075E+01 -0.10767283681E+01 -0.13677070428E+00  0.48096089422E+01  0.00000000000E+00 0.  1.
</event>
<event>
 7    1  0.2001181E-008  0.4614232E+02  0.7816164E-02  0.1320468E+00
        -11   -1    0    0    0    0  0.00000000000E+00  0.00000000000E+00  0.45593999997E+02  0.45594000000E+02  0.51100000000E-03 0.  1.
         11   -1    0    0    0    0 -0.00000000000E+00 -0.00000000000E+00 -0.45593999997E+02  0.45594000000E+02  0.51100000000E-03 0. -1.
    9900012    2    1    2    0    0 -0.87564273852E+01 -0.43997421619E+02  0.40823117826E+01  0.46142318751E+02  0.10000009027E+02 0.  0.
        -12    1    1    2    0    0  0.87564273852E+01  0.43997421619E+02 -0.40823117826E+01  0.45045681249E+02  0.00000000000E+00 0.  1.
         11    1    3    3    0    0 -0.43201717616E+01 -0.33223764923E+02  0.62793354203E+01  0.34086837537E+02  0.51100000000E-03 0. -1.
        -11    1    3    3    0    0 -0.30589644302E+01 -0.46262581299E+01 -0.81233200853E+00  0.56053020635E+01  0.51100000000E-03 0.  1.
        -12    1    3    3    0    0 -0.13772911934E+01 -0.61473985666E+01 -0.13846916292E+01  0.64501791507E+01  0.00000000000E+00 0.  1.
</event>
<event>
 7    1  0.2001181E-008  0.4614232E+02  0.7816164E-02  0.1320468E+00
        -11   -1    0    0    0    0  0.00000000000E+00  0.00000000000E+00  0.45593999997E+02  0.45594000000E+02  0.51100000000E-03 0. -1.
         11   -1    0    0    0    0 -0.00000000000E+00 -0.00000000000E+00 -0.45593999997E+02  0.45594000000E+02  0.51100000000E-03 0.  1.
    9900012    2    1    2    0    0  0.37622086290E+01 -0.44609589449E+02  0.49943687920E+01  0.46142318695E+02  0.10000008516E+02 0.  0.
        -12    1    1    2    0    0 -0.37622086290E+01  0.44609589449E+02 -0.49943687920E+01  0.45045681305E+02  0.00000000000E+00 0.  1.
         11    1    3    3    0    0  0.18026818263E+01 -0.25057795288E+02  0.13254124556E+00  0.25122904567E+02  0.51100000000E-03 0. -1.
        -11    1    3    3    0    0  0.35093414248E+01 -0.10517973066E+02  0.12133784994E+01  0.11154170624E+02  0.51100000000E-03 0.  1.
         12    1    3    3    0    0 -0.15498146221E+01 -0.90338210951E+01  0.36484490471E+01  0.98652435038E+01  0.00000000000E+00 0. -1.
</event>
<event>
 7    1  0.2001181E-008  0.4614232E+02  0.7816164E-02  0.1320468E+00
        -11   -1    0    0    0    0  0.00000000000E+00  0.00000000000E+00  0.45593999997E+02  0.45594000000E+02  0.51100000000E-03 0.  1.
         11   -1    0    0    0    0 -0.00000000000E+00 -0.00000000000E+00 -0.45593999997E+02  0.45594000000E+02  0.51100000000E-03 0. -1.
    9900012    2    1    2    0    0  0.27806314786E+02 -0.35001069273E+02 -0.55540479247E+01  0.46142318292E+02  0.10000004840E+02 0.  0.
        -12    1    1    2    0    0 -0.27806314786E+02  0.35001069273E+02  0.55540479247E+01  0.45045681708E+02  0.00000000000E+00 0.  1.
         11    1    3    3    0    0  0.81057024248E+01 -0.70402158361E+01 -0.29742976736E+01  0.11140623759E+02  0.51100000000E-03 0. -1.
        -11    1    3    3    0    0  0.45641755042E+00 -0.29253080712E+01  0.12090186108E+01  0.31980416748E+01  0.51100000000E-03 0.  1.
         12    1    3    3    0    0  0.19244194811E+02 -0.25035545365E+02 -0.37887688619E+01  0.31803652858E+02  0.00000000000E+00 0. -1.
</event>
<event>
 7    1  0.2001181E-008  0.4614232E+02  0.7816164E-02  0.1320468E+00
        -11   -1    0    0    0    0  0.00000000000E+00  0.00000000000E+00  0.45593999997E+02  0.45594000000E+02  0.51100000000E-03 0.  1.
         11   -1    0    0    0    0 -0.00000000000E+00 -0.00000000000E+00 -0.45593999997E+02  0.45594000000E+02  0.51100000000E-03 0. -1.
    9900012    2    1    2    0    0  0.22183735111E+02 -0.21649264424E+02 -0.32684930759E+02  0.46142318161E+02  0.10000003649E+02 0.  0.
        -12    1    1    2    0    0 -0.22183735111E+02  0.21649264424E+02  0.32684930759E+02  0.45045681839E+02  0.00000000000E+00 0.  1.
         11    1    3    3    0    0  0.27566713991E+01 -0.22057468682E+01 -0.50597599507E+01  0.61697429014E+01  0.51100000000E-03 0. -1.
        -11    1    3    3    0    0  0.17095529353E+02 -0.11985948680E+02 -0.22100611231E+02  0.30403241713E+02  0.51100000000E-03 0.  1.
         12    1    3    3    0    0  0.23315343587E+01 -0.74575688755E+01 -0.55245595778E+01  0.95693335466E+01  0.00000000000E+00 0. -1.
</event>
<event>
 7    1  0.2001181E-008  0.4614232E+02  0.7816164E-02  0.1320468E+00
        -11   -1    0    0    0    0  0.00000000000E+00  0.00000000000E+00  0.45593999997E+02  0.45594000000E+02  0.51100000000E-03 0. -1.
         11   -1    0    0    0    0 -0.00000000000E+00 -0.00000000000E+00 -0.45593999997E+02  0.45594000000E+02  0.51100000000E-03 0.  1.
    9900012    2    1    2    0    0 -0.16076452724E+02  0.41387659734E+02 -0.75975509372E+01  0.46142317735E+02  0.99999997612E+01 0.  0.
        -12    1    1    2    0    0  0.16076452724E+02 -0.41387659734E+02  0.75975509372E+01  0.45045682265E+02  0.00000000000E+00 0.  1.
         11    1    3    3    0    0 -0.10263309086E+02  0.16472020664E+02 -0.31738548530E+01  0.19665612958E+02  0.51100000000E-03 0. -1.
        -11    1    3    3    0    0 -0.52792238402E+01  0.11511699550E+02 -0.15639181432E+01  0.12760692422E+02  0.51100000000E-03 0.  1.
        -12    1    3    3    0    0 -0.53391979837E+00  0.13403939521E+02 -0.28597779410E+01  0.13716012354E+02  0.00000000000E+00 0.  1.
</event>
<event>
 7    1  0.2001181E-008  0.4614232E+02  0.7816164E-02  0.1320468E+00
        -11   -1    0    0    0    0  0.00000000000E+00  0.00000000000E+00  0.45593999997E+02  0.45594000000E+02  0.51100000000E-03 0.  1.
         11   -1    0    0    0    0 -0.00000000000E+00 -0.00000000000E+00 -0.45593999997E+02  0.45594000000E+02  0.51100000000E-03 0. -1.
    9900012    2    1    2    0    0 -0.12946389947E+02  0.15105811173E+02 -0.40414341121E+02  0.46142317497E+02  0.99999975949E+01 0.  0.
        -12    1    1    2    0    0  0.12946389947E+02 -0.15105811173E+02  0.40414341121E+02  0.45045682503E+02  0.00000000000E+00 0.  1.
         11    1    3    3    0    0 -0.22124771403E+01  0.17627036017E+01 -0.33593020287E+01  0.43917068966E+01  0.51100000000E-03 0. -1.
        -11    1    3    3    0    0 -0.48653766646E+01  0.15889062962E+01 -0.52170020679E+01  0.73084625020E+01  0.51100000000E-03 0.  1.
        -12    1    3    3    0    0 -0.58685361422E+01  0.11754201275E+02 -0.31838037025E+02  0.34442148099E+02  0.00000000000E+00 0.  1.
</event>
<event>
 7    1  0.2001181E-008  0.4614232E+02  0.7816164E-02  0.1320468E+00
        -11   -1    0    0    0    0  0.00000000000E+00  0.00000000000E+00  0.45593999997E+02  0.45594000000E+02  0.51100000000E-03 0.  1.
         11   -1    0    0    0    0 -0.00000000000E+00 -0.00000000000E+00 -0.45593999997E+02  0.45594000000E+02  0.51100000000E-03 0. -1.
    9900012    2    1    2    0    0 -0.52422321226E+01  0.22842205967E+02 -0.38469025213E+02  0.46142320163E+02  0.10000021906E+02 0.  0.
        -12    1    1    2    0    0  0.52422321226E+01 -0.22842205967E+02  0.38469025213E+02  0.45045679837E+02  0.00000000000E+00 0.  1.
         11    1    3    3    0    0 -0.14896874016E+01  0.15591860038E+02 -0.22588205711E+02  0.27487311718E+02  0.51100000000E-03 0. -1.
        -11    1    3    3    0    0 -0.86344640895E+00  0.56139295713E+01 -0.61421558541E+01  0.83658725623E+01  0.51100000000E-03 0.  1.
         12    1    3    3    0    0 -0.28890983120E+01  0.16364163575E+01 -0.97386636485E+01  0.10289135883E+02  0.00000000000E+00 0. -1.
</event>
<event>
 7    1  0.2001181E-008  0.4614232E+02  0.7816164E-02  0.1320468E+00
        -11   -1    0    0    0    0  0.00000000000E+00  0.00000000000E+00  0.45593999997E+02  0.45594000000E+02  0.51100000000E-03 0. -1.
         11   -1    0    0    0    0 -0.00000000000E+00 -0.00000000000E+00 -0.45593999997E+02  0.45594000000E+02  0.51100000000E-03 0.  1.
    9900012    2    1    2    0    0  0.40638440332E+02 -0.18130023359E+02  0.69951971003E+01  0.46142319163E+02  0.10000012787E+02 0.  0.
        -12    1    1    2    0    0 -0.40638440332E+02  0.18130023359E+02 -0.69951971003E+01  0.45045680837E+02  0.00000000000E+00 0.  1.
         11    1    3    3    0    0  0.10276224529E+02 -0.63301024966E+01  0.28655427375E+01  0.12404931424E+02  0.51100000000E-03 0. -1.
        -11    1    3    3    0    0  0.13112408489E+02 -0.91682137387E+01  0.12101231059E+01  0.16045429185E+02  0.51100000000E-03 0.  1.
        -12    1    3    3    0    0  0.17249807313E+02 -0.26317071233E+01  0.29195312569E+01  0.17691958554E+02  0.00000000000E+00 0.  1.
</event>
<event>
 7    1  0.2001181E-008  0.4614232E+02  0.7816164E-02  0.1320468E+00
        -11   -1    0    0    0    0  0.00000000000E+00  0.00000000000E+00  0.45593999997E+02  0.45594000000E+02  0.51100000000E-03 0. -1.
         11   -1    0    0    0    0 -0.00000000000E+00 -0.00000000000E+00 -0.45593999997E+02  0.45594000000E+02  0.51100000000E-03 0.  1.
    9900012    2    1    2    0    0 -0.29727218898E+01  0.36047629603E+02  0.26848553437E+02  0.46142317664E+02  0.99999991182E+01 0.  0.
        -12    1    1    2    0    0  0.29727218898E+01 -0.36047629603E+02 -0.26848553437E+02  0.45045682336E+02  0.00000000000E+00 0.  1.
         11    1    3    3    0    0 -0.17063654379E+00  0.11764957792E+02  0.12185714410E+02  0.16939155370E+02  0.51100000000E-03 0. -1.
        -11    1    3    3    0    0 -0.18599106958E+01  0.87305831334E+01  0.88599853634E+01  0.12577030275E+02  0.51100000000E-03 0.  1.
        -12    1    3    3    0    0 -0.94217465020E+00  0.15552088677E+02  0.58028536634E+01  0.16626132019E+02  0.00000000000E+00 0.  1.
</event>
<event>
 7    1  0.2001181E-008  0.4614232E+02  0.7816164E-02  0.1320468E+00
        -11   -1    0    0    0    0  0.00000000000E+00  0.00000000000E+00  0.45593999997E+02  0.45594000000E+02  0.51100000000E-03 0.  1.
         11   -1    0    0    0    0 -0.00000000000E+00 -0.00000000000E+00 -0.45593999997E+02  0.45594000000E+02  0.51100000000E-03 0. -1.
    9900012    2    1    2    0    0  0.23922259376E+02  0.29013010762E+02 -0.24800891258E+02  0.46142317695E+02  0.99999993939E+01 0.  0.
        -12    1    1    2    0    0 -0.23922259376E+02 -0.29013010762E+02  0.24800891258E+02  0.45045682305E+02  0.00000000000E+00 0.  1.
         11    1    3    3    0    0  0.15123495185E+02  0.14873884557E+02 -0.93362674809E+01  0.23175815825E+02  0.51100000000E-03 0. -1.
        -11    1    3    3    0    0  0.24425089379E+01  0.40374311848E+01 -0.24828912569E+01  0.53321149405E+01  0.51100000000E-03 0.  1.
        -12    1    3    3    0    0  0.63562552532E+01  0.10101695021E+02 -0.12981732520E+02  0.17634386929E+02  0.00000000000E+00 0.  1.
</event>
<event>
 7    1  0.2001181E-008  0.4614232E+02  0.7816164E-02  0.1320468E+00
        -11   -1    0    0    0    0  0.00000000000E+00  0.00000000000E+00  0.45593999997E+02  0.45594000000E+02  0.51100000000E-03 0.  1.
         11   -1    0    0    0    0 -0.00000000000E+00 -0.00000000000E+00 -0.45593999997E+02  0.45594000000E+02  0.51100000000E-03 0. -1.
    9900012    2    1    2    0    0  0.62418315591E+01  0.13767131360E+02 -0.42433701612E+02  0.46142318746E+02  0.10000008983E+02 0.  0.
        -12    1    1    2    0    0 -0.62418315591E+01 -0.13767131360E+02  0.42433701612E+02  0.45045681254E+02  0.00000000000E+00 0.  1.
         11    1    3    3    0    0  0.29848373715E+01  0.87888504614E+01 -0.32592011615E+02  0.33887938384E+02  0.51100000000E-03 0. -1.
        -11    1    3    3    0    0  0.98430990655E+00  0.37671654731E+01 -0.85027533877E+01  0.93518563465E+01  0.51100000000E-03 0.  1.
        -12    1    3    3    0    0  0.22726842811E+01  0.12111154258E+01 -0.13389366100E+01  0.29025240157E+01  0.00000000000E+00 0.  1.
</event>
<event>
 7    1  0.2001181E-008  0.4614232E+02  0.7816164E-02  0.1320468E+00
        -11   -1    0    0    0    0  0.00000000000E+00  0.00000000000E+00  0.45593999997E+02  0.45594000000E+02  0.51100000000E-03 0. -1.
         11   -1    0    0    0    0 -0.00000000000E+00 -0.00000000000E+00 -0.45593999997E+02  0.45594000000E+02  0.51100000000E-03 0.  1.
    9900012    2    1    2    0    0 -0.40261714439E+02 -0.13841329694E+02  0.14714797977E+02  0.46142319443E+02  0.10000015341E+02 0.  0.
        -12    1    1    2    0    0  0.40261714439E+02  0.13841329694E+02 -0.14714797977E+02  0.45045680557E+02  0.00000000000E+00 0.  1.
         11    1    3    3    0    0 -0.21602456727E+02 -0.10754419565E+02  0.82867376488E+01  0.25514578146E+02  0.51100000000E-03 0. -1.
        -11    1    3    3    0    0 -0.17171336096E+01  0.15864154975E+00 -0.82880059993E+00  0.19132761614E+01  0.51100000000E-03 0.  1.
        -12    1    3    3    0    0 -0.16942124102E+02 -0.32455516788E+01  0.72568609285E+01  0.18714465136E+02  0.00000000000E+00 0.  1.
</event>
<event>
 7    1  0.2001181E-008  0.4614232E+02  0.7816164E-02  0.1320468E+00
        -11   -1    0    0    0    0  0.00000000000E+00  0.00000000000E+00  0.45593999997E+02  0.45594000000E+02  0.51100000000E-03 0.  1.
         11   -1    0    0    0    0 -0.00000000000E+00 -0.00000000000E+00 -0.45593999997E+02  0.45594000000E+02  0.51100000000E-03 0. -1.
    9900012    2    1    2    0    0 -0.12300818020E+02 -0.29022297098E+02 -0.32179335207E+02  0.46142317996E+02  0.10000002143E+02 0.  0.
        -12    1    1    2    0    0  0.12300818020E+02  0.29022297098E+02  0.32179335207E+02  0.45045682004E+02  0.00000000000E+00 0.  1.
         11    1    3    3    0    0 -0.91105567284E+01 -0.19715243386E+02 -0.21873357065E+02  0.30824289371E+02  0.51100000000E-03 0. -1.
        -11    1    3    3    0    0 -0.22816461921E+00 -0.53746138055E+01 -0.85293271886E+01  0.10084044586E+02  0.51100000000E-03 0.  1.
         12    1    3    3    0    0 -0.29620966728E+01 -0.39324399058E+01 -0.17766509536E+01  0.52339840392E+01  0.00000000000E+00 0. -1.
</event>
<event>
 7    1  0.2001181E-008  0.4614232E+02  0.7816164E-02  0.1320468E+00
        -11   -1    0    0    0    0  0.00000000000E+00  0.00000000000E+00  0.45593999997E+02  0.45594000000E+02  0.51100000000E-03 0.  1.
         11   -1    0    0    0    0 -0.00000000000E+00 -0.00000000000E+00 -0.45593999997E+02  0.45594000000E+02  0.51100000000E-03 0. -1.
    9900012    2    1    2    0    0 -0.30554756179E+02  0.33084598630E+02 -0.96390479150E+00  0.46142324246E+02  0.10000059138E+02 0.  0.
        -12    1    1    2    0    0  0.30554756179E+02 -0.33084598630E+02  0.96390479150E+00  0.45045675754E+02  0.00000000000E+00 0.  1.
         11    1    3    3    0    0 -0.15148117928E+02  0.11930347855E+02  0.81242835926E+00  0.19299189538E+02  0.51100000000E-03 0. -1.
        -11    1    3    3    0    0 -0.15424394270E+02  0.20138837275E+02 -0.71916404887E+00  0.25377192567E+02  0.51100000000E-03 0.  1.
        -12    1    3    3    0    0  0.17756020167E-01  0.10154135001E+01 -0.10571691019E+01  0.14659421415E+01  0.00000000000E+00 0.  1.
</event>
<event>
 7    1  0.2001181E-008  0.4614232E+02  0.7816164E-02  0.1320468E+00
        -11   -1    0    0    0    0  0.00000000000E+00  0.00000000000E+00  0.45593999997E+02  0.45594000000E+02  0.51100000000E-03 0.  1.
         11   -1    0    0    0    0 -0.00000000000E+00 -0.00000000000E+00 -0.45593999997E+02  0.45594000000E+02  0.51100000000E-03 0. -1.
    9900012    2    1    2    0    0  0.93683859141E+01  0.19904515571E+02 -0.39308486399E+02  0.46142317657E+02  0.99999990472E+01 0.  0.
        -12    1    1    2    0    0 -0.93683859141E+01 -0.19904515571E+02  0.39308486399E+02  0.45045682343E+02  0.00000000000E+00 0.  1.
         11    1    3    3    0    0  0.77573272992E+01  0.12899301179E+02 -0.26436789969E+02  0.30421570668E+02  0.51100000000E-03 0. -1.
        -11    1    3    3    0    0  0.13586420163E+01  0.71668065694E+01 -0.13317032032E+02  0.15183950966E+02  0.51100000000E-03 0.  1.
        -12    1    3    3    0    0  0.25241659851E+00 -0.16159217737E+00  0.44533560250E+00  0.53679602257E+00  0.00000000000E+00 0.  1.
</event>
<event>
 7    1  0.2001181E-008  0.4614232E+02  0.7816164E-02  0.1320468E+00
        -11   -1    0    0    0    0  0.00000000000E+00  0.00000000000E+00  0.45593999997E+02  0.45594000000E+02  0.51100000000E-03 0.  1.
         11   -1    0    0    0    0 -0.00000000000E+00 -0.00000000000E+00 -0.45593999997E+02  0.45594000000E+02  0.51100000000E-03 0. -1.
    9900012    2    1    2    0    0  0.33366841696E+02  0.29783860336E+02  0.53562112604E+01  0.46142318072E+02  0.10000002833E+02 0.  0.
        -12    1    1    2    0    0 -0.33366841696E+02 -0.29783860336E+02 -0.53562112604E+01  0.45045681928E+02  0.00000000000E+00 0.  1.
         11    1    3    3    0    0  0.72158114234E+00  0.21865475184E+01  0.16665300646E+01  0.28423567884E+01  0.51100000000E-03 0. -1.
        -11    1    3    3    0    0  0.76543804120E+01  0.99248353650E+01  0.11809948913E+01  0.12589147934E+02  0.51100000000E-03 0.  1.
         12    1    3    3    0    0  0.24990880142E+02  0.17672477453E+02  0.25086863045E+01  0.30710813349E+02  0.00000000000E+00 0. -1.
</event>
<event>
 7    1  0.2001181E-008  0.4614232E+02  0.7816164E-02  0.1320468E+00
        -11   -1    0    0    0    0  0.00000000000E+00  0.00000000000E+00  0.45593999997E+02  0.45594000000E+02  0.51100000000E-03 0. -1.
         11   -1    0    0    0    0 -0.00000000000E+00 -0.00000000000E+00 -0.45593999997E+02  0.45594000000E+02  0.51100000000E-03 0.  1.
    9900012    2    1    2    0    0  0.21258456926E+00 -0.64798015908E+01  0.44576680897E+02  0.46142317624E+02  0.99999987531E+01 0.  0.
        -12    1    1    2    0    0 -0.21258456926E+00  0.64798015908E+01 -0.44576680897E+02  0.45045682376E+02  0.00000000000E+00 0.  1.
         11    1    3    3    0    0 -0.23163916985E+01 -0.81038484008E+01  0.29272116609E+02  0.30461366359E+02  0.51100000000E-03 0. -1.
        -11    1    3    3    0    0  0.20296188711E+00 -0.10337371915E+00  0.20662176535E+00  0.30752637036E+00  0.51100000000E-03 0.  1.
         12    1    3    3    0    0  0.23260143806E+01  0.17274205292E+01  0.15097942523E+02  0.15373424895E+02  0.00000000000E+00 0. -1.
</event>
<event>
 7    1  0.2001181E-008  0.4614232E+02  0.7816164E-02  0.1320468E+00
        -11   -1    0    0    0    0  0.00000000000E+00  0.00000000000E+00  0.45593999997E+02  0.45594000000E+02  0.51100000000E-03 0.  1.
         11   -1    0    0    0    0 -0.00000000000E+00 -0.00000000000E+00 -0.45593999997E+02  0.45594000000E+02  0.51100000000E-03 0. -1.
    9900012    2    1    2    0    0  0.23015034448E+02 -0.90516461363E+00 -0.38711783964E+02  0.46142319282E+02  0.10000013868E+02 0.  0.
        -12    1    1    2    0    0 -0.23015034448E+02  0.90516461363E+00  0.38711783964E+02  0.45045680718E+02  0.00000000000E+00 0.  1.
         11    1    3    3    0    0  0.15822003874E+02 -0.30066339654E+01 -0.19706830004E+02  0.25450634638E+02  0.51100000000E-03 0. -1.
        -11    1    3    3    0    0  0.90841544747E+00  0.70660778270E+00 -0.67636538586E+01  0.68608692572E+01  0.51100000000E-03 0.  1.
         12    1    3    3    0    0  0.62846151272E+01  0.13948615691E+01 -0.12241300102E+02  0.13830815387E+02  0.00000000000E+00 0. -1.
</event>
<event>
 7    1  0.2001181E-008  0.4614232E+02  0.7816164E-02  0.1320468E+00
        -11   -1    0    0    0    0  0.00000000000E+00  0.00000000000E+00  0.45593999997E+02  0.45594000000E+02  0.51100000000E-03 0. -1.
         11   -1    0    0    0    0 -0.00000000000E+00 -0.00000000000E+00 -0.45593999997E+02  0.45594000000E+02  0.51100000000E-03 0.  1.
    9900012    2    1    2    0    0 -0.55618186199E+01  0.23568254120E+02  0.37983116231E+02  0.46142317108E+02  0.99999940440E+01 0.  0.
        -12    1    1    2    0    0  0.55618186199E+01 -0.23568254120E+02 -0.37983116231E+02  0.45045682892E+02  0.00000000000E+00 0.  1.
         11    1    3    3    0    0  0.71267034507E-01  0.99019607766E+01  0.20406484708E+02  0.22682119050E+02  0.51100000000E-03 0. -1.
        -11    1    3    3    0    0 -0.18235103682E+01  0.29475342574E+01  0.75050331884E+01  0.82667207333E+01  0.51100000000E-03 0.  1.
        -12    1    3    3    0    0 -0.38095752862E+01  0.10718759086E+02  0.10071598334E+02  0.15193477325E+02  0.00000000000E+00 0.  1.
</event>
<event>
 7    1  0.2001181E-008  0.4614232E+02  0.7816164E-02  0.1320468E+00
        -11   -1    0    0    0    0  0.00000000000E+00  0.00000000000E+00  0.45593999997E+02  0.45594000000E+02  0.51100000000E-03 0. -1.
         11   -1    0    0    0    0 -0.00000000000E+00 -0.00000000000E+00 -0.45593999997E+02  0.45594000000E+02  0.51100000000E-03 0.  1.
    9900012    2    1    2    0    0 -0.27921016876E+02  0.28923067544E+02  0.20322070385E+02  0.46142316918E+02  0.99999923161E+01 0.  0.
        -12    1    1    2    0    0  0.27921016876E+02 -0.28923067544E+02 -0.20322070385E+02  0.45045683082E+02  0.00000000000E+00 0.  1.
         11    1    3    3    0    0 -0.11126497597E+02  0.91807248039E+01  0.67466871924E+01  0.15924900158E+02  0.51100000000E-03 0. -1.
        -11    1    3    3    0    0 -0.48461710323E+01  0.89129864852E+01  0.19320979703E+01  0.10327618534E+02  0.51100000000E-03 0.  1.
         12    1    3    3    0    0 -0.11948348247E+02  0.10829356255E+02  0.11643285222E+02  0.19889798226E+02  0.00000000000E+00 0. -1.
</event>
<event>
 7    1  0.2001181E-008  0.4614232E+02  0.7816164E-02  0.1320468E+00
        -11   -1    0    0    0    0  0.00000000000E+00  0.00000000000E+00  0.45593999997E+02  0.45594000000E+02  0.51100000000E-03 0.  1.
         11   -1    0    0    0    0 -0.00000000000E+00 -0.00000000000E+00 -0.45593999997E+02  0.45594000000E+02  0.51100000000E-03 0. -1.
    9900012    2    1    2    0    0 -0.23121369068E+02  0.43924820917E+01 -0.38408617909E+02  0.46142317230E+02  0.99999951549E+01 0.  0.
        -12    1    1    2    0    0  0.23121369068E+02 -0.43924820917E+01  0.38408617909E+02  0.45045682770E+02  0.00000000000E+00 0.  1.
         11    1    3    3    0    0 -0.80115223580E+01 -0.95407231359E-01 -0.14198651326E+02  0.16303229520E+02  0.51100000000E-03 0. -1.
        -11    1    3    3    0    0 -0.84993659502E+01  0.12459831309E+01 -0.18902561462E+02  0.20762912262E+02  0.51100000000E-03 0.  1.
        -12    1    3    3    0    0 -0.66104807603E+01  0.32419061921E+01 -0.53074051214E+01  0.90761754480E+01  0.00000000000E+00 0.  1.
</event>
<event>
 7    1  0.2001181E-008  0.4614232E+02  0.7816164E-02  0.1320468E+00
        -11   -1    0    0    0    0  0.00000000000E+00  0.00000000000E+00  0.45593999997E+02  0.45594000000E+02  0.51100000000E-03 0.  1.
         11   -1    0    0    0    0 -0.00000000000E+00 -0.00000000000E+00 -0.45593999997E+02  0.45594000000E+02  0.51100000000E-03 0. -1.
    9900012    2    1    2    0    0 -0.67202953264E+00  0.30352543915E+02 -0.33277392836E+02  0.46142318523E+02  0.10000006944E+02 0.  0.
        -12    1    1    2    0    0  0.67202953264E+00 -0.30352543915E+02  0.33277392836E+02  0.45045681477E+02  0.00000000000E+00 0.  1.
         11    1    3    3    0    0  0.10157555535E+01  0.10968291497E+01 -0.12757560169E+01  0.19652855273E+01  0.51100000000E-03 0. -1.
        -11    1    3    3    0    0 -0.14924334567E+01  0.14254354868E+02 -0.21595464193E+02  0.25918681763E+02  0.51100000000E-03 0.  1.
        -12    1    3    3    0    0 -0.19535162941E+00  0.15001359896E+02 -0.10406172626E+02  0.18258351233E+02  0.00000000000E+00 0.  1.
</event>
<event>
 7    1  0.2001181E-008  0.4614232E+02  0.7816164E-02  0.1320468E+00
        -11   -1    0    0    0    0  0.00000000000E+00  0.00000000000E+00  0.45593999997E+02  0.45594000000E+02  0.51100000000E-03 0.  1.
         11   -1    0    0    0    0 -0.00000000000E+00 -0.00000000000E+00 -0.45593999997E+02  0.45594000000E+02  0.51100000000E-03 0. -1.
    9900012    2    1    2    0    0 -0.32902365964E+02 -0.26288158406E+02 -0.15983762567E+02  0.46142316254E+02  0.99999862526E+01 0.  0.
        -12    1    1    2    0    0  0.32902365964E+02  0.26288158406E+02  0.15983762567E+02  0.45045683746E+02  0.00000000000E+00 0.  1.
         11    1    3    3    0    0 -0.22319324473E+02 -0.17303606325E+02 -0.10496802378E+02  0.30128888084E+02  0.51100000000E-03 0. -1.
        -11    1    3    3    0    0 -0.16801629436E+01 -0.49357164753E+01 -0.25342565102E+01  0.57971286826E+01  0.51100000000E-03 0.  1.
         12    1    3    3    0    0 -0.89028785468E+01 -0.40488356064E+01 -0.29527036786E+01  0.10216299487E+02  0.00000000000E+00 0. -1.
</event>
<event>
 7    1  0.2001181E-008  0.4614232E+02  0.7816164E-02  0.1320468E+00
        -11   -1    0    0    0    0  0.00000000000E+00  0.00000000000E+00  0.45593999997E+02  0.45594000000E+02  0.51100000000E-03 0. -1.
         11   -1    0    0    0    0 -0.00000000000E+00 -0.00000000000E+00 -0.45593999997E+02  0.45594000000E+02  0.51100000000E-03 0.  1.
    9900012    2    1    2    0    0 -0.43484443679E+02 -0.47225092503E+01  0.10766361533E+02  0.46142317895E+02  0.10000001219E+02 0.  0.
        -12    1    1    2    0    0  0.43484443679E+02  0.47225092503E+01 -0.10766361533E+02  0.45045682105E+02  0.00000000000E+00 0.  1.
         11    1    3    3    0    0 -0.11780782226E+02 -0.19505191555E+01 -0.19145499258E+00  0.11942696936E+02  0.51100000000E-03 0. -1.
        -11    1    3    3    0    0 -0.16309808702E+02  0.89588402285E+00  0.34982826723E+01  0.16704803202E+02  0.51100000000E-03 0.  1.
         12    1    3    3    0    0 -0.15393852750E+02 -0.36678741176E+01  0.74595338536E+01  0.17494817757E+02  0.00000000000E+00 0. -1.
</event>
<event>
 7    1  0.2001181E-008  0.4614232E+02  0.7816164E-02  0.1320468E+00
        -11   -1    0    0    0    0  0.00000000000E+00  0.00000000000E+00  0.45593999997E+02  0.45594000000E+02  0.51100000000E-03 0.  1.
         11   -1    0    0    0    0 -0.00000000000E+00 -0.00000000000E+00 -0.45593999997E+02  0.45594000000E+02  0.51100000000E-03 0. -1.
    9900012    2    1    2    0    0  0.22038606203E+02 -0.12142551421E+02 -0.37362704196E+02  0.46142318928E+02  0.10000010644E+02 0.  0.
        -12    1    1    2    0    0 -0.22038606203E+02  0.12142551421E+02  0.37362704196E+02  0.45045681072E+02  0.00000000000E+00 0.  1.
         11    1    3    3    0    0  0.38776926095E+01 -0.31520024708E+00 -0.10430162452E+02  0.11132122000E+02  0.51100000000E-03 0. -1.
        -11    1    3    3    0    0  0.61433224431E+01 -0.69244795539E+01 -0.93627109179E+01  0.13166213720E+02  0.51100000000E-03 0.  1.
        -12    1    3    3    0    0  0.12017591151E+02 -0.49028716196E+01 -0.17569830826E+02  0.21843983209E+02  0.00000000000E+00 0.  1.
</event>
<event>
 7    1  0.2001181E-008  0.4614232E+02  0.7816164E-02  0.1320468E+00
        -11   -1    0    0    0    0  0.00000000000E+00  0.00000000000E+00  0.45593999997E+02  0.45594000000E+02  0.51100000000E-03 0.  1.
         11   -1    0    0    0    0 -0.00000000000E+00 -0.00000000000E+00 -0.45593999997E+02  0.45594000000E+02  0.51100000000E-03 0. -1.
    9900012    2    1    2    0    0  0.26546601196E+02 -0.35689621381E+02 -0.71163441269E+01  0.46142318041E+02  0.10000002556E+02 0.  0.
        -12    1    1    2    0    0 -0.26546601196E+02  0.35689621381E+02  0.71163441269E+01  0.45045681959E+02  0.00000000000E+00 0.  1.
         11    1    3    3    0    0  0.57953759026E+01 -0.37243078804E+01 -0.94820345769E+00  0.69538436206E+01  0.51100000000E-03 0.  1.
        -11    1    3    3    0    0  0.20814056208E+01 -0.79991189084E+01 -0.21779976858E+01  0.85476211222E+01  0.51100000000E-03 0. -1.
         12    1    3    3    0    0  0.18669819673E+02 -0.23966194592E+02 -0.39901429834E+01  0.30640853299E+02  0.00000000000E+00 0. -1.
</event>
<event>
 7    1  0.2001181E-008  0.4614232E+02  0.7816164E-02  0.1320468E+00
        -11   -1    0    0    0    0  0.00000000000E+00  0.00000000000E+00  0.45593999997E+02  0.45594000000E+02  0.51100000000E-03 0. -1.
         11   -1    0    0    0    0 -0.00000000000E+00 -0.00000000000E+00 -0.45593999997E+02  0.45594000000E+02  0.51100000000E-03 0.  1.
    9900012    2    1    2    0    0  0.21463028392E+02  0.38604966391E+02  0.88378949487E+01  0.46142318687E+02  0.10000008447E+02 0.  0.
        -12    1    1    2    0    0 -0.21463028392E+02 -0.38604966391E+02 -0.88378949487E+01  0.45045681313E+02  0.00000000000E+00 0.  1.
         11    1    3    3    0    0  0.29341265561E+01  0.15481150524E+01 -0.37711999498E-01  0.33177072383E+01  0.51100000000E-03 0. -1.
        -11    1    3    3    0    0  0.69076381523E+01  0.12363497126E+02  0.11875499776E+00  0.14162825602E+02  0.51100000000E-03 0.  1.
         12    1    3    3    0    0  0.11621263684E+02  0.24693354212E+02  0.87568519504E+01  0.28661785847E+02  0.00000000000E+00 0. -1.
</event>
<event>
 7    1  0.2001181E-008  0.4614232E+02  0.7816164E-02  0.1320468E+00
        -11   -1    0    0    0    0  0.00000000000E+00  0.00000000000E+00  0.45593999997E+02  0.45594000000E+02  0.51100000000E-03 0.  1.
         11   -1    0    0    0    0 -0.00000000000E+00 -0.00000000000E+00 -0.45593999997E+02  0.45594000000E+02  0.51100000000E-03 0. -1.
    9900012    2    1    2    0    0 -0.27471178793E+01 -0.62872857085E+01 -0.44520071410E+02  0.46142319002E+02  0.10000011312E+02 0.  0.
        -12    1    1    2    0    0  0.27471178793E+01  0.62872857085E+01  0.44520071410E+02  0.45045680998E+02  0.00000000000E+00 0.  1.
         11    1    3    3    0    0  0.19441165469E+01 -0.45463502911E+01 -0.16624471695E+02  0.17344219485E+02  0.51100000000E-03 0. -1.
        -11    1    3    3    0    0 -0.19743494618E+01  0.12961921387E+01 -0.48442648492E+01  0.53893480169E+01  0.51100000000E-03 0.  1.
        -12    1    3    3    0    0 -0.27168849645E+01 -0.30371275561E+01 -0.23051334866E+02  0.23408751500E+02  0.00000000000E+00 0.  1.
</event>
<event>
 7    1  0.2001181E-008  0.4614232E+02  0.7816164E-02  0.1320468E+00
        -11   -1    0    0    0    0  0.00000000000E+00  0.00000000000E+00  0.45593999997E+02  0.45594000000E+02  0.51100000000E-03 0.  1.
         11   -1    0    0    0    0 -0.00000000000E+00 -0.00000000000E+00 -0.45593999997E+02  0.45594000000E+02  0.51100000000E-03 0. -1.
    9900012    2    1    2    0    0 -0.10598291124E+01 -0.16704848196E+02 -0.41820308871E+02  0.46142318464E+02  0.10000006408E+02 0.  0.
        -12    1    1    2    0    0  0.10598291124E+01  0.16704848196E+02  0.41820308871E+02  0.45045681536E+02  0.00000000000E+00 0.  1.
         11    1    3    3    0    0 -0.13169197453E+01 -0.30976853049E+01 -0.13638649295E+02  0.14047871252E+02  0.51100000000E-03 0. -1.
        -11    1    3    3    0    0 -0.18957714758E+01 -0.33121447027E+01 -0.31693677321E+01  0.49607604359E+01  0.51100000000E-03 0.  1.
         12    1    3    3    0    0  0.21528621088E+01 -0.10295018189E+02 -0.25012291844E+02  0.27133686775E+02  0.00000000000E+00 0. -1.
</event>
<event>
 7    1  0.2001181E-008  0.4614232E+02  0.7816164E-02  0.1320468E+00
        -11   -1    0    0    0    0  0.00000000000E+00  0.00000000000E+00  0.45593999997E+02  0.45594000000E+02  0.51100000000E-03 0.  1.
         11   -1    0    0    0    0 -0.00000000000E+00 -0.00000000000E+00 -0.45593999997E+02  0.45594000000E+02  0.51100000000E-03 0. -1.
    9900012    2    1    2    0    0 -0.35211994623E+02 -0.15667903185E+02 -0.23318356470E+02  0.46142317587E+02  0.99999984148E+01 0.  0.
        -12    1    1    2    0    0  0.35211994623E+02  0.15667903185E+02  0.23318356470E+02  0.45045682413E+02  0.00000000000E+00 0.  1.
         11    1    3    3    0    0 -0.18702938699E+02 -0.98908210315E+01 -0.11529059414E+02  0.24094552660E+02  0.51100000000E-03 0. -1.
        -11    1    3    3    0    0 -0.44513241551E+01 -0.41013676459E+01 -0.61585512922E+01  0.86350018865E+01  0.51100000000E-03 0.  1.
        -12    1    3    3    0    0 -0.12057731769E+02 -0.16757145074E+01 -0.56307457645E+01  0.13412763041E+02  0.00000000000E+00 0.  1.
</event>
<event>
 7    1  0.2001181E-008  0.4614232E+02  0.7816164E-02  0.1320468E+00
        -11   -1    0    0    0    0  0.00000000000E+00  0.00000000000E+00  0.45593999997E+02  0.45594000000E+02  0.51100000000E-03 0.  1.
         11   -1    0    0    0    0 -0.00000000000E+00 -0.00000000000E+00 -0.45593999997E+02  0.45594000000E+02  0.51100000000E-03 0. -1.
    9900012    2    1    2    0    0 -0.36093190823E+02  0.53780059970E+01 -0.26409694135E+02  0.46142319667E+02  0.10000017383E+02 0.  0.
        -12    1    1    2    0    0  0.36093190823E+02 -0.53780059970E+01  0.26409694135E+02  0.45045680333E+02  0.00000000000E+00 0.  1.
         11    1    3    3    0    0 -0.95947413176E+01  0.29534007366E-01 -0.76940389583E+01  0.12298705987E+02  0.51100000000E-03 0. -1.
        -11    1    3    3    0    0 -0.12690406002E+02 -0.59703603162E+00 -0.55648715684E+01  0.13869774776E+02  0.51100000000E-03 0.  1.
         12    1    3    3    0    0 -0.13808043504E+02  0.59455080213E+01 -0.13150783609E+02  0.19973838904E+02  0.00000000000E+00 0. -1.
</event>
<event>
 7    1  0.2001181E-008  0.4614232E+02  0.7816164E-02  0.1320468E+00
        -11   -1    0    0    0    0  0.00000000000E+00  0.00000000000E+00  0.45593999997E+02  0.45594000000E+02  0.51100000000E-03 0.  1.
         11   -1    0    0    0    0 -0.00000000000E+00 -0.00000000000E+00 -0.45593999997E+02  0.45594000000E+02  0.51100000000E-03 0. -1.
    9900012    2    1    2    0    0 -0.16800162533E+01 -0.73321347761E+01 -0.44413183376E+02  0.46142317492E+02  0.99999975455E+01 0.  0.
        -12    1    1    2    0    0  0.16800162533E+01  0.73321347761E+01  0.44413183376E+02  0.45045682508E+02  0.00000000000E+00 0.  1.
         11    1    3    3    0    0  0.11751180401E+01 -0.57819085608E+01 -0.37961029219E+02  0.38416807633E+02  0.51100000000E-03 0. -1.
        -11    1    3    3    0    0 -0.79939573236E+00 -0.19420971467E+01 -0.38565355425E+01  0.43913143267E+01  0.51100000000E-03 0.  1.
         12    1    3    3    0    0 -0.20557385611E+01  0.39187093141E+00 -0.25956186145E+01  0.33341955327E+01  0.00000000000E+00 0. -1.
</event>
<event>
 7    1  0.2001181E-008  0.4614233E+02  0.7816164E-02  0.1320468E+00
        -11   -1    0    0    0    0  0.00000000000E+00  0.00000000000E+00  0.45593999997E+02  0.45594000000E+02  0.51100000000E-03 0.  1.
         11   -1    0    0    0    0 -0.00000000000E+00 -0.00000000000E+00 -0.45593999997E+02  0.45594000000E+02  0.51100000000E-03 0. -1.
    9900012    2    1    2    0    0  0.10112950774E+02  0.43185480548E+02 -0.78648087973E+01  0.46142326279E+02  0.10000077677E+02 0.  0.
        -12    1    1    2    0    0 -0.10112950774E+02 -0.43185480548E+02  0.78648087973E+01  0.45045673721E+02  0.00000000000E+00 0.  1.
         11    1    3    3    0    0  0.60562551877E+01  0.35435710339E+02 -0.72831993610E+01  0.36679868965E+02  0.51100000000E-03 0. -1.
        -11    1    3    3    0    0 -0.10304243258E+00  0.27443223800E+01 -0.10434201094E+01  0.29377965985E+01  0.51100000000E-03 0.  1.
         12    1    3    3    0    0  0.41597380193E+01  0.50054478292E+01  0.46181067305E+00  0.65246607159E+01  0.00000000000E+00 0. -1.
</event>
<event>
 7    1  0.2001181E-008  0.4614232E+02  0.7816164E-02  0.1320468E+00
        -11   -1    0    0    0    0  0.00000000000E+00  0.00000000000E+00  0.45593999997E+02  0.45594000000E+02  0.51100000000E-03 0.  1.
         11   -1    0    0    0    0 -0.00000000000E+00 -0.00000000000E+00 -0.45593999997E+02  0.45594000000E+02  0.51100000000E-03 0. -1.
    9900012    2    1    2    0    0  0.34908058124E+02  0.22462292136E+02 -0.17492463811E+02  0.46142318962E+02  0.10000010952E+02 0.  0.
        -12    1    1    2    0    0 -0.34908058124E+02 -0.22462292136E+02  0.17492463811E+02  0.45045681038E+02  0.00000000000E+00 0.  1.
         11    1    3    3    0    0  0.13702333829E+02  0.76674865211E+01 -0.94895100841E+01  0.18346528386E+02  0.51100000000E-03 0. -1.
        -11    1    3    3    0    0  0.21328653923E+02  0.15183507853E+02 -0.77066489707E+01  0.27291808799E+02  0.51100000000E-03 0.  1.
         12    1    3    3    0    0 -0.12292962792E+00 -0.38870223838E+00 -0.29630475624E+00  0.50398177756E+00  0.00000000000E+00 0. -1.
</event>
<event>
 7    1  0.2001181E-008  0.4614232E+02  0.7816164E-02  0.1320468E+00
        -11   -1    0    0    0    0  0.00000000000E+00  0.00000000000E+00  0.45593999997E+02  0.45594000000E+02  0.51100000000E-03 0.  1.
         11   -1    0    0    0    0 -0.00000000000E+00 -0.00000000000E+00 -0.45593999997E+02  0.45594000000E+02  0.51100000000E-03 0. -1.
    9900012    2    1    2    0    0  0.13525116422E+02  0.31282613032E+02 -0.29454759219E+02  0.46142317710E+02  0.99999995362E+01 0.  0.
        -12    1    1    2    0    0 -0.13525116422E+02 -0.31282613032E+02  0.29454759219E+02  0.45045682290E+02  0.00000000000E+00 0.  1.
         11    1    3    3    0    0  0.43399401633E+01  0.17190734442E+02 -0.17295036907E+02  0.24768422096E+02  0.51100000000E-03 0.  1.
        -11    1    3    3    0    0  0.29810321886E+01  0.79193395468E+01 -0.81463572155E+01  0.11745877060E+02  0.51100000000E-03 0. -1.
        -12    1    3    3    0    0  0.62041440696E+01  0.61725390436E+01 -0.40133650964E+01  0.96280185541E+01  0.00000000000E+00 0.  1.
</event>
<event>
 7    1  0.2001181E-008  0.4614232E+02  0.7816164E-02  0.1320468E+00
        -11   -1    0    0    0    0  0.00000000000E+00  0.00000000000E+00  0.45593999997E+02  0.45594000000E+02  0.51100000000E-03 0.  1.
         11   -1    0    0    0    0 -0.00000000000E+00 -0.00000000000E+00 -0.45593999997E+02  0.45594000000E+02  0.51100000000E-03 0. -1.
    9900012    2    1    2    0    0 -0.18998866076E+02 -0.78712372919E+01 -0.40077427216E+02  0.46142318065E+02  0.10000002776E+02 0.  0.
        -12    1    1    2    0    0  0.18998866076E+02  0.78712372919E+01  0.40077427216E+02  0.45045681935E+02  0.00000000000E+00 0.  1.
         11    1    3    3    0    0  0.16608550568E+00 -0.30564016775E+00 -0.71028653668E+00  0.79089034173E+00  0.51100000000E-03 0. -1.
        -11    1    3    3    0    0  0.60303250709E+00 -0.17460773816E+01 -0.23982499337E+01  0.30272161193E+01  0.51100000000E-03 0.  1.
        -12    1    3    3    0    0 -0.19767984089E+02 -0.58195197426E+01 -0.36968890746E+02  0.42324211604E+02  0.00000000000E+00 0.  1.
</event>
<event>
 7    1  0.2001181E-008  0.4614232E+02  0.7816164E-02  0.1320468E+00
        -11   -1    0    0    0    0  0.00000000000E+00  0.00000000000E+00  0.45593999997E+02  0.45594000000E+02  0.51100000000E-03 0.  1.
         11   -1    0    0    0    0 -0.00000000000E+00 -0.00000000000E+00 -0.45593999997E+02  0.45594000000E+02  0.51100000000E-03 0. -1.
    9900012    2    1    2    0    0  0.29734129839E+02 -0.12688167743E+02 -0.31368860423E+02  0.46142317829E+02  0.10000000622E+02 0.  0.
        -12    1    1    2    0    0 -0.29734129839E+02  0.12688167743E+02  0.31368860423E+02  0.45045682171E+02  0.00000000000E+00 0.  1.
         11    1    3    3    0    0  0.91092421951E+01 -0.68230602798E+01 -0.12644358671E+02  0.17012120720E+02  0.51100000000E-03 0. -1.
        -11    1    3    3    0    0  0.91309832966E+01 -0.26607562274E+01 -0.12394245070E+02  0.15622797150E+02  0.51100000000E-03 0.  1.
         12    1    3    3    0    0  0.11493904347E+02 -0.32043512359E+01 -0.63302566824E+01  0.13507399959E+02  0.00000000000E+00 0. -1.
</event>
<event>
 7    1  0.2001181E-008  0.4614232E+02  0.7816164E-02  0.1320468E+00
        -11   -1    0    0    0    0  0.00000000000E+00  0.00000000000E+00  0.45593999997E+02  0.45594000000E+02  0.51100000000E-03 0.  1.
         11   -1    0    0    0    0 -0.00000000000E+00 -0.00000000000E+00 -0.45593999997E+02  0.45594000000E+02  0.51100000000E-03 0. -1.
    9900012    2    1    2    0    0  0.31421808781E+02  0.31993732633E+02  0.42643235185E+01  0.46142318188E+02  0.10000003894E+02 0.  0.
        -12    1    1    2    0    0 -0.31421808781E+02 -0.31993732633E+02 -0.42643235185E+01  0.45045681812E+02  0.00000000000E+00 0.  1.
         11    1    3    3    0    0  0.12622061577E+02  0.11117275432E+02 -0.79160281149E+00  0.16838553583E+02  0.51100000000E-03 0. -1.
        -11    1    3    3    0    0  0.18934016628E+02  0.18487899688E+02  0.44357280848E+01  0.26832351825E+02  0.51100000000E-03 0.  1.
        -12    1    3    3    0    0 -0.13426942423E+00  0.23885575125E+01  0.62019824522E+00  0.24714127806E+01  0.00000000000E+00 0.  1.
</event>
<event>
 7    1  0.2001181E-008  0.4614232E+02  0.7816164E-02  0.1320468E+00
        -11   -1    0    0    0    0  0.00000000000E+00  0.00000000000E+00  0.45593999997E+02  0.45594000000E+02  0.51100000000E-03 0.  1.
         11   -1    0    0    0    0 -0.00000000000E+00 -0.00000000000E+00 -0.45593999997E+02  0.45594000000E+02  0.51100000000E-03 0. -1.
    9900012    2    1    2    0    0  0.37049656761E+02  0.15601031044E+02 -0.20323489663E+02  0.46142317989E+02  0.10000002082E+02 0.  0.
        -12    1    1    2    0    0 -0.37049656761E+02 -0.15601031044E+02  0.20323489663E+02  0.45045682011E+02  0.00000000000E+00 0.  1.
         11    1    3    3    0    0  0.22068377290E+02  0.10042513692E+02 -0.12392202189E+02  0.27229249582E+02  0.51100000000E-03 0. -1.
        -11    1    3    3    0    0  0.22912735808E+01  0.61854186611E+00 -0.41491917811E+01  0.47799917740E+01  0.51100000000E-03 0.  1.
         12    1    3    3    0    0  0.12690005890E+02  0.49399754858E+01 -0.37820956931E+01  0.14133076633E+02  0.00000000000E+00 0. -1.
</event>
<event>
 7    1  0.2001181E-008  0.4614232E+02  0.7816164E-02  0.1320468E+00
        -11   -1    0    0    0    0  0.00000000000E+00  0.00000000000E+00  0.45593999997E+02  0.45594000000E+02  0.51100000000E-03 0.  1.
         11   -1    0    0    0    0 -0.00000000000E+00 -0.00000000000E+00 -0.45593999997E+02  0.45594000000E+02  0.51100000000E-03 0. -1.
    9900012    2    1    2    0    0  0.40132331650E+02 -0.29901709205E+01 -0.20237788652E+02  0.46142320347E+02  0.10000023584E+02 0.  0.
        -12    1    1    2    0    0 -0.40132331650E+02  0.29901709205E+01  0.20237788652E+02  0.45045679653E+02  0.00000000000E+00 0.  1.
         11    1    3    3    0    0  0.26503886417E+02 -0.97550144911E+00 -0.11915147650E+02  0.29075390660E+02  0.51100000000E-03 0. -1.
        -11    1    3    3    0    0  0.33938377815E+00 -0.31516613552E-01  0.77079473211E+00  0.84279263521E+00  0.51100000000E-03 0.  1.
        -12    1    3    3    0    0  0.13289061456E+02 -0.19831528578E+01 -0.90934357341E+01  0.16224137052E+02  0.00000000000E+00 0.  1.
</event>
<event>
 7    1  0.2001181E-008  0.4614232E+02  0.7816164E-02  0.1320468E+00
        -11   -1    0    0    0    0  0.00000000000E+00  0.00000000000E+00  0.45593999997E+02  0.45594000000E+02  0.51100000000E-03 0. -1.
         11   -1    0    0    0    0 -0.00000000000E+00 -0.00000000000E+00 -0.45593999997E+02  0.45594000000E+02  0.51100000000E-03 0.  1.
    9900012    2    1    2    0    0 -0.53734475666E+00 -0.33662962355E+02  0.29927071752E+02  0.46142318770E+02  0.10000009196E+02 0.  0.
        -12    1    1    2    0    0  0.53734475666E+00  0.33662962355E+02 -0.29927071752E+02  0.45045681230E+02  0.00000000000E+00 0.  1.
         11    1    3    3    0    0 -0.37556913461E+00 -0.17571761761E+02  0.13188217047E+02  0.21973550753E+02  0.51100000000E-03 0. -1.
        -11    1    3    3    0    0  0.10860152236E+01 -0.14255673239E+02  0.11072546440E+02  0.18083277731E+02  0.51100000000E-03 0.  1.
         12    1    3    3    0    0 -0.12477908457E+01 -0.18355273547E+01  0.56663082648E+01  0.60854902856E+01  0.00000000000E+00 0. -1.
</event>
<event>
 7    1  0.2001181E-008  0.4614232E+02  0.7816164E-02  0.1320468E+00
        -11   -1    0    0    0    0  0.00000000000E+00  0.00000000000E+00  0.45593999997E+02  0.45594000000E+02  0.51100000000E-03 0.  1.
         11   -1    0    0    0    0 -0.00000000000E+00 -0.00000000000E+00 -0.45593999997E+02  0.45594000000E+02  0.51100000000E-03 0. -1.
    9900012    2    1    2    0    0  0.10537635788E+02  0.13418153369E+02 -0.41689625768E+02  0.46142317582E+02  0.99999983695E+01 0.  0.
        -12    1    1    2    0    0 -0.10537635788E+02 -0.13418153369E+02  0.41689625768E+02  0.45045682418E+02  0.00000000000E+00 0.  1.
         11    1    3    3    0    0  0.40511101631E+01  0.58920359974E+01 -0.25046591073E+02  0.26047251417E+02  0.51100000000E-03 0. -1.
        -11    1    3    3    0    0  0.30891875470E+00 -0.48111895802E+00 -0.33174081429E+01  0.33663189535E+01  0.51100000000E-03 0.  1.
        -12    1    3    3    0    0  0.61776068704E+01  0.80072363291E+01 -0.13325626552E+02  0.16728747212E+02  0.00000000000E+00 0.  1.
</event>
<event>
 7    1  0.2001181E-008  0.4614232E+02  0.7816164E-02  0.1320468E+00
        -11   -1    0    0    0    0  0.00000000000E+00  0.00000000000E+00  0.45593999997E+02  0.45594000000E+02  0.51100000000E-03 0.  1.
         11   -1    0    0    0    0 -0.00000000000E+00 -0.00000000000E+00 -0.45593999997E+02  0.45594000000E+02  0.51100000000E-03 0. -1.
    9900012    2    1    2    0    0 -0.20367863700E+02  0.48477127977E+01 -0.39884374016E+02  0.46142317835E+02  0.10000000676E+02 0.  0.
        -12    1    1    2    0    0  0.20367863700E+02 -0.48477127977E+01  0.39884374016E+02  0.45045682165E+02  0.00000000000E+00 0.  1.
         11    1    3    3    0    0 -0.85944285664E+01 -0.54914138374E+00 -0.11008629445E+02  0.13976969670E+02  0.51100000000E-03 0. -1.
        -11    1    3    3    0    0 -0.95378892222E+00  0.48491762984E+00 -0.85847691380E+01  0.86511918155E+01  0.51100000000E-03 0.  1.
         12    1    3    3    0    0 -0.10819646211E+02  0.49119365516E+01 -0.20290975432E+02  0.23514156349E+02  0.00000000000E+00 0. -1.
</event>
<event>
 7    1  0.2001181E-008  0.4614232E+02  0.7816164E-02  0.1320468E+00
        -11   -1    0    0    0    0  0.00000000000E+00  0.00000000000E+00  0.45593999997E+02  0.45594000000E+02  0.51100000000E-03 0.  1.
         11   -1    0    0    0    0 -0.00000000000E+00 -0.00000000000E+00 -0.45593999997E+02  0.45594000000E+02  0.51100000000E-03 0. -1.
    9900012    2    1    2    0    0  0.12042097882E+02 -0.33760280894E+01 -0.43274747186E+02  0.46142318397E+02  0.10000005796E+02 0.  0.
        -12    1    1    2    0    0 -0.12042097882E+02  0.33760280894E+01  0.43274747186E+02  0.45045681603E+02  0.00000000000E+00 0.  1.
         11    1    3    3    0    0 -0.49399921595E+00 -0.14734040475E+00 -0.20379069081E+01  0.21020963935E+01  0.51100000000E-03 0. -1.
        -11    1    3    3    0    0  0.72315320528E+01 -0.34318751218E+01 -0.12687258575E+02  0.15001311713E+02  0.51100000000E-03 0.  1.
         12    1    3    3    0    0  0.53045650453E+01  0.20318743715E+00 -0.28549581703E+02  0.29038910290E+02  0.00000000000E+00 0. -1.
</event>
<event>
 7    1  0.2001181E-008  0.4614232E+02  0.7816164E-02  0.1320468E+00
        -11   -1    0    0    0    0  0.00000000000E+00  0.00000000000E+00  0.45593999997E+02  0.45594000000E+02  0.51100000000E-03 0.  1.
         11   -1    0    0    0    0 -0.00000000000E+00 -0.00000000000E+00 -0.45593999997E+02  0.45594000000E+02  0.51100000000E-03 0. -1.
    9900012    2    1    2    0    0 -0.30586293417E+02 -0.21286628446E+02 -0.25307540705E+02  0.46142317497E+02  0.99999975920E+01 0.  0.
        -12    1    1    2    0    0  0.30586293417E+02  0.21286628446E+02  0.25307540705E+02  0.45045682503E+02  0.00000000000E+00 0.  1.
         11    1    3    3    0    0 -0.18284410968E+01  0.36063310173E+00 -0.17736734532E+01  0.25727749335E+01  0.51100000000E-03 0. -1.
        -11    1    3    3    0    0 -0.57970232221E+01 -0.30472997914E+01 -0.15243291382E+01  0.67242169685E+01  0.51100000000E-03 0.  1.
         12    1    3    3    0    0 -0.22960829099E+02 -0.18599961756E+02 -0.22009538114E+02  0.36845325595E+02  0.00000000000E+00 0. -1.
</event>
<event>
 7    1  0.2001181E-008  0.4614232E+02  0.7816164E-02  0.1320468E+00
        -11   -1    0    0    0    0  0.00000000000E+00  0.00000000000E+00  0.45593999997E+02  0.45594000000E+02  0.51100000000E-03 0. -1.
         11   -1    0    0    0    0 -0.00000000000E+00 -0.00000000000E+00 -0.45593999997E+02  0.45594000000E+02  0.51100000000E-03 0.  1.
    9900012    2    1    2    0    0 -0.23198785579E+02  0.33752232307E+02  0.18754110610E+02  0.46142317601E+02  0.99999985356E+01 0.  0.
        -12    1    1    2    0    0  0.23198785579E+02 -0.33752232307E+02 -0.18754110610E+02  0.45045682399E+02  0.00000000000E+00 0.  1.
         11    1    3    3    0    0 -0.13437484427E+02  0.20560445382E+02  0.14726244770E+02  0.28638438982E+02  0.51100000000E-03 0. -1.
        -11    1    3    3    0    0 -0.16838254726E+01  0.53255441324E+00 -0.47093989140E+00  0.18277491807E+01  0.51100000000E-03 0.  1.
        -12    1    3    3    0    0 -0.80774756796E+01  0.12659232512E+02  0.44988057314E+01  0.15676129438E+02  0.00000000000E+00 0.  1.
</event>
<event>
 7    1  0.2001181E-008  0.4614232E+02  0.7816164E-02  0.1320468E+00
        -11   -1    0    0    0    0  0.00000000000E+00  0.00000000000E+00  0.45593999997E+02  0.45594000000E+02  0.51100000000E-03 0. -1.
         11   -1    0    0    0    0 -0.00000000000E+00 -0.00000000000E+00 -0.45593999997E+02  0.45594000000E+02  0.51100000000E-03 0.  1.
    9900012    2    1    2    0    0  0.15962154335E+02  0.18494250881E+01  0.42082094920E+02  0.46142318109E+02  0.10000003172E+02 0.  0.
        -12    1    1    2    0    0 -0.15962154335E+02 -0.18494250881E+01 -0.42082094920E+02  0.45045681891E+02  0.00000000000E+00 0.  1.
         11    1    3    3    0    0  0.55966792696E+01 -0.16510667469E+01  0.69733059348E+01  0.90926253729E+01  0.51100000000E-03 0. -1.
        -11    1    3    3    0    0  0.33135556165E+01  0.24505702744E+01  0.18868129395E+02  0.19312981453E+02  0.51100000000E-03 0.  1.
         12    1    3    3    0    0  0.70519194490E+01  0.10499215606E+01  0.16240659591E+02  0.17736711283E+02  0.00000000000E+00 0. -1.
</event>
<event>
 7    1  0.2001181E-008  0.4614232E+02  0.7816164E-02  0.1320468E+00
        -11   -1    0    0    0    0  0.00000000000E+00  0.00000000000E+00  0.45593999997E+02  0.45594000000E+02  0.51100000000E-03 0.  1.
         11   -1    0    0    0    0 -0.00000000000E+00 -0.00000000000E+00 -0.45593999997E+02  0.45594000000E+02  0.51100000000E-03 0. -1.
    9900012    2    1    2    0    0  0.95647491044E+01 -0.83668888310E+01 -0.43216017618E+02  0.46142318377E+02  0.10000005618E+02 0.  0.
        -12    1    1    2    0    0 -0.95647491044E+01  0.83668888310E+01  0.43216017618E+02  0.45045681623E+02  0.00000000000E+00 0.  1.
         11    1    3    3    0    0  0.89907585932E+01 -0.51834246069E+01 -0.37766363970E+02  0.39166310504E+02  0.51100000000E-03 0. -1.
        -11    1    3    3    0    0  0.46354463588E+00 -0.30995881906E+01 -0.24628055091E+01  0.39859417730E+01  0.51100000000E-03 0.  1.
         12    1    3    3    0    0  0.11044587533E+00 -0.83876033554E-01 -0.29868481387E+01  0.29900661003E+01  0.00000000000E+00 0. -1.
</event>
<event>
 7    1  0.2001181E-008  0.4614232E+02  0.7816164E-02  0.1320468E+00
        -11   -1    0    0    0    0  0.00000000000E+00  0.00000000000E+00  0.45593999997E+02  0.45594000000E+02  0.51100000000E-03 0.  1.
         11   -1    0    0    0    0 -0.00000000000E+00 -0.00000000000E+00 -0.45593999997E+02  0.45594000000E+02  0.51100000000E-03 0. -1.
    9900012    2    1    2    0    0  0.82053306569E+01  0.31114630191E+02 -0.31522460428E+02  0.46142321244E+02  0.10000031759E+02 0.  0.
        -12    1    1    2    0    0 -0.82053306569E+01 -0.31114630191E+02  0.31522460428E+02  0.45045678756E+02  0.00000000000E+00 0.  1.
         11    1    3    3    0    0  0.28971117432E+01  0.25556810547E+01 -0.22554815913E+01  0.44734728764E+01  0.51100000000E-03 0. -1.
        -11    1    3    3    0    0 -0.84054208284E+00  0.53292370443E+01 -0.75514702153E+01  0.92807317136E+01  0.51100000000E-03 0.  1.
        -12    1    3    3    0    0  0.61487609965E+01  0.23229712092E+02 -0.21715508622E+02  0.32388116654E+02  0.00000000000E+00 0.  1.
</event>
<event>
 7    1  0.2001181E-008  0.4614232E+02  0.7816164E-02  0.1320468E+00
        -11   -1    0    0    0    0  0.00000000000E+00  0.00000000000E+00  0.45593999997E+02  0.45594000000E+02  0.51100000000E-03 0. -1.
         11   -1    0    0    0    0 -0.00000000000E+00 -0.00000000000E+00 -0.45593999997E+02  0.45594000000E+02  0.51100000000E-03 0.  1.
    9900012    2    1    2    0    0  0.16329497749E+02  0.18149791869E+02  0.37855590970E+02  0.46142320859E+02  0.10000028250E+02 0.  0.
        -12    1    1    2    0    0 -0.16329497749E+02 -0.18149791869E+02 -0.37855590970E+02  0.45045679141E+02  0.00000000000E+00 0.  1.
         11    1    3    3    0    0  0.10867663788E+02  0.17118921321E+02  0.29738210252E+02  0.35993398459E+02  0.51100000000E-03 0. -1.
        -11    1    3    3    0    0  0.11467281841E+00  0.23500774212E+00 -0.12656806405E+00  0.29051373479E+00  0.51100000000E-03 0.  1.
         12    1    3    3    0    0  0.53471611430E+01  0.79586280586E+00  0.82439487814E+01  0.98584086649E+01  0.00000000000E+00 0. -1.
</event>
<event>
 7    1  0.2001181E-008  0.4614232E+02  0.7816164E-02  0.1320468E+00
        -11   -1    0    0    0    0  0.00000000000E+00  0.00000000000E+00  0.45593999997E+02  0.45594000000E+02  0.51100000000E-03 0.  1.
         11   -1    0    0    0    0 -0.00000000000E+00 -0.00000000000E+00 -0.45593999997E+02  0.45594000000E+02  0.51100000000E-03 0. -1.
    9900012    2    1    2    0    0  0.15733956201E+01  0.42609299751E+02 -0.14528780117E+02  0.46142318179E+02  0.10000003812E+02 0.  0.
        -12    1    1    2    0    0 -0.15733956201E+01 -0.42609299751E+02  0.14528780117E+02  0.45045681821E+02  0.00000000000E+00 0.  1.
         11    1    3    3    0    0 -0.23205918282E+01  0.13440168937E+02 -0.54487347091E+01  0.14687137151E+02  0.51100000000E-03 0. -1.
        -11    1    3    3    0    0 -0.39709546459E+00  0.99741824958E+00  0.75125499940E+00  0.13103100045E+01  0.51100000000E-03 0.  1.
         12    1    3    3    0    0  0.42910829129E+01  0.28171712564E+02 -0.98313004069E+01  0.30144871024E+02  0.00000000000E+00 0. -1.
</event>
<event>
 7    1  0.2001181E-008  0.4614232E+02  0.7816164E-02  0.1320468E+00
        -11   -1    0    0    0    0  0.00000000000E+00  0.00000000000E+00  0.45593999997E+02  0.45594000000E+02  0.51100000000E-03 0.  1.
         11   -1    0    0    0    0 -0.00000000000E+00 -0.00000000000E+00 -0.45593999997E+02  0.45594000000E+02  0.51100000000E-03 0. -1.
    9900012    2    1    2    0    0  0.25540591366E+01  0.28712851240E+02 -0.34614480734E+02  0.46142319620E+02  0.10000016949E+02 0.  0.
        -12    1    1    2    0    0 -0.25540591366E+01 -0.28712851240E+02  0.34614480734E+02  0.45045680380E+02  0.00000000000E+00 0.  1.
         11    1    3    3    0    0  0.10850611390E+01  0.15857738163E+02 -0.18572439222E+02  0.24445464124E+02  0.51100000000E-03 0. -1.
        -11    1    3    3    0    0  0.31734284495E+01  0.42339001138E+01 -0.89798345253E+01  0.10422762909E+02  0.51100000000E-03 0.  1.
         12    1    3    3    0    0 -0.17044304520E+01  0.86212129633E+01 -0.70622069871E+01  0.11274092587E+02  0.00000000000E+00 0. -1.
</event>
<event>
 7    1  0.2001181E-008  0.4614232E+02  0.7816164E-02  0.1320468E+00
        -11   -1    0    0    0    0  0.00000000000E+00  0.00000000000E+00  0.45593999997E+02  0.45594000000E+02  0.51100000000E-03 0. -1.
         11   -1    0    0    0    0 -0.00000000000E+00 -0.00000000000E+00 -0.45593999997E+02  0.45594000000E+02  0.51100000000E-03 0.  1.
    9900012    2    1    2    0    0 -0.15770176434E+01  0.31557172942E+02  0.32105626855E+02  0.46142318470E+02  0.10000006461E+02 0.  0.
        -12    1    1    2    0    0  0.15770176434E+01 -0.31557172942E+02 -0.32105626855E+02  0.45045681530E+02  0.00000000000E+00 0.  1.
         11    1    3    3    0    0 -0.38264039669E+01  0.15071732061E+02  0.18198603085E+02  0.23937160006E+02  0.51100000000E-03 0. -1.
        -11    1    3    3    0    0  0.25407016661E+01  0.35542783604E+01  0.37957955843E+01  0.57875836062E+01  0.51100000000E-03 0.  1.
         12    1    3    3    0    0 -0.29131534261E+00  0.12931162521E+02  0.10111228186E+02  0.16417574858E+02  0.00000000000E+00 0. -1.
</event>
<event>
 7    1  0.2001181E-008  0.4614232E+02  0.7816164E-02  0.1320468E+00
        -11   -1    0    0    0    0  0.00000000000E+00  0.00000000000E+00  0.45593999997E+02  0.45594000000E+02  0.51100000000E-03 0.  1.
         11   -1    0    0    0    0 -0.00000000000E+00 -0.00000000000E+00 -0.45593999997E+02  0.45594000000E+02  0.51100000000E-03 0. -1.
    9900012    2    1    2    0    0 -0.41660155496E+02 -0.14446690452E+02 -0.92107567363E+01  0.46142318069E+02  0.10000002805E+02 0.  0.
        -12    1    1    2    0    0  0.41660155496E+02  0.14446690452E+02  0.92107567363E+01  0.45045681931E+02  0.00000000000E+00 0.  1.
         11    1    3    3    0    0 -0.14154305253E+02 -0.53386699500E+01 -0.71595407998E+01  0.16736331102E+02  0.51100000000E-03 0. -1.
        -11    1    3    3    0    0 -0.30360983187E+01 -0.25159051510E+01  0.30323607734E+00  0.39546964624E+01  0.51100000000E-03 0.  1.
         12    1    3    3    0    0 -0.24469751924E+02 -0.65921153514E+01 -0.23544520139E+01  0.25451290504E+02  0.00000000000E+00 0. -1.
</event>
<event>
 7    1  0.2001181E-008  0.4614232E+02  0.7816164E-02  0.1320468E+00
        -11   -1    0    0    0    0  0.00000000000E+00  0.00000000000E+00  0.45593999997E+02  0.45594000000E+02  0.51100000000E-03 0. -1.
         11   -1    0    0    0    0 -0.00000000000E+00 -0.00000000000E+00 -0.45593999997E+02  0.45594000000E+02  0.51100000000E-03 0.  1.
    9900012    2    1    2    0    0  0.27933766960E+01 -0.44535725009E+02 -0.61546586032E+01  0.46142316767E+02  0.99999909343E+01 0.  0.
        -12    1    1    2    0    0 -0.27933766960E+01  0.44535725009E+02  0.61546586032E+01  0.45045683233E+02  0.00000000000E+00 0.  1.
         11    1    3    3    0    0 -0.60593351643E+00 -0.30984270665E+01  0.85590839899E+00  0.32710831786E+01  0.51100000000E-03 0. -1.
        -11    1    3    3    0    0 -0.24029203237E+00  0.28108065718E+00  0.12594954484E+00  0.39065348537E+00  0.51100000000E-03 0.  1.
         12    1    3    3    0    0  0.36396022448E+01 -0.41718378599E+02 -0.71365165470E+01  0.42480580103E+02  0.00000000000E+00 0. -1.
</event>
<event>
 7    1  0.2001181E-008  0.4614232E+02  0.7816164E-02  0.1320468E+00
        -11   -1    0    0    0    0  0.00000000000E+00  0.00000000000E+00  0.45593999997E+02  0.45594000000E+02  0.51100000000E-03 0. -1.
         11   -1    0    0    0    0 -0.00000000000E+00 -0.00000000000E+00 -0.45593999997E+02  0.45594000000E+02  0.51100000000E-03 0.  1.
    9900012    2    1    2    0    0  0.43408585458E+02 -0.35325637980E+01 -0.11503441832E+02  0.46142317938E+02  0.10000001613E+02 0.  0.
        -12    1    1    2    0    0 -0.43408585458E+02  0.35325637980E+01  0.11503441832E+02  0.45045682062E+02  0.00000000000E+00 0.  1.
         11    1    3    3    0    0  0.87277106528E+01 -0.28038043294E+01 -0.43665094896E+01  0.10153849385E+02  0.51100000000E-03 0. -1.
        -11    1    3    3    0    0  0.83146627612E+00  0.13366205108E+00 -0.14169830852E+01  0.16483455454E+01  0.51100000000E-03 0.  1.
         12    1    3    3    0    0  0.33849408529E+02 -0.86242151960E+00 -0.57199492573E+01  0.34340123007E+02  0.00000000000E+00 0. -1.
</event>
<event>
 7    1  0.2001181E-008  0.4614232E+02  0.7816164E-02  0.1320468E+00
        -11   -1    0    0    0    0  0.00000000000E+00  0.00000000000E+00  0.45593999997E+02  0.45594000000E+02  0.51100000000E-03 0.  1.
         11   -1    0    0    0    0 -0.00000000000E+00 -0.00000000000E+00 -0.45593999997E+02  0.45594000000E+02  0.51100000000E-03 0. -1.
    9900012    2    1    2    0    0 -0.29577502347E+01  0.62807895886E+01 -0.44507492444E+02  0.46142317766E+02  0.10000000044E+02 0.  0.
        -12    1    1    2    0    0  0.29577502347E+01 -0.62807895886E+01  0.44507492444E+02  0.45045682234E+02  0.00000000000E+00 0.  1.
         11    1    3    3    0    0 -0.37283734259E+01  0.66362666076E+01 -0.20363780041E+02  0.21739925039E+02  0.51100000000E-03 0. -1.
        -11    1    3    3    0    0 -0.78564261638E+00 -0.45047573013E+00 -0.19073240072E+01  0.21114089688E+01  0.51100000000E-03 0.  1.
        -12    1    3    3    0    0  0.15562658076E+01  0.94998711109E-01 -0.22236388396E+02  0.22290983758E+02  0.00000000000E+00 0.  1.
</event>
<event>
 7    1  0.2001181E-008  0.4614231E+02  0.7816164E-02  0.1320468E+00
        -11   -1    0    0    0    0  0.00000000000E+00  0.00000000000E+00  0.45593999997E+02  0.45594000000E+02  0.51100000000E-03 0.  1.
         11   -1    0    0    0    0 -0.00000000000E+00 -0.00000000000E+00 -0.45593999997E+02  0.45594000000E+02  0.51100000000E-03 0. -1.
    9900012    2    1    2    0    0 -0.62058054888E+01 -0.25588172303E+02 -0.36549251748E+02  0.46142307787E+02  0.99999090510E+01 0.  0.
        -12    1    1    2    0    0  0.62058054888E+01  0.25588172303E+02  0.36549251748E+02  0.45045692213E+02  0.00000000000E+00 0.  1.
         11    1    3    3    0    0 -0.30000777144E+01 -0.74544564519E+01 -0.11285996401E+02  0.13854353190E+02  0.51100000000E-03 0. -1.
        -11    1    3    3    0    0 -0.49324429873E+01 -0.14191273000E+02 -0.22869629132E+02  0.27363135056E+02  0.51100000000E-03 0.  1.
        -12    1    3    3    0    0  0.17267152129E+01 -0.39424428512E+01 -0.23936262151E+01  0.49248195418E+01  0.00000000000E+00 0.  1.
</event>
<event>
 7    1  0.2001181E-008  0.4614232E+02  0.7816164E-02  0.1320468E+00
        -11   -1    0    0    0    0  0.00000000000E+00  0.00000000000E+00  0.45593999997E+02  0.45594000000E+02  0.51100000000E-03 0.  1.
         11   -1    0    0    0    0 -0.00000000000E+00 -0.00000000000E+00 -0.45593999997E+02  0.45594000000E+02  0.51100000000E-03 0. -1.
    9900012    2    1    2    0    0  0.14448463470E+02  0.36200954884E+02 -0.22579773225E+02  0.46142318852E+02  0.10000009952E+02 0.  0.
        -12    1    1    2    0    0 -0.14448463470E+02 -0.36200954884E+02  0.22579773225E+02  0.45045681148E+02  0.00000000000E+00 0.  1.
         11    1    3    3    0    0  0.20983496473E+01  0.47950501855E+01 -0.80436920769E+00  0.52955252437E+01  0.51100000000E-03 0. -1.
        -11    1    3    3    0    0  0.13213009976E+01  0.80956947838E+01 -0.86135346409E+01  0.11894498292E+02  0.51100000000E-03 0.  1.
         12    1    3    3    0    0  0.11028812825E+02  0.23310209915E+02 -0.13161869376E+02  0.28952295316E+02  0.00000000000E+00 0. -1.
</event>
<event>
 7    1  0.2001181E-008  0.4614232E+02  0.7816164E-02  0.1320468E+00
        -11   -1    0    0    0    0  0.00000000000E+00  0.00000000000E+00  0.45593999997E+02  0.45594000000E+02  0.51100000000E-03 0. -1.
         11   -1    0    0    0    0 -0.00000000000E+00 -0.00000000000E+00 -0.45593999997E+02  0.45594000000E+02  0.51100000000E-03 0.  1.
    9900012    2    1    2    0    0  0.65027077491E+01  0.34356119299E+02  0.28398687191E+02  0.46142316794E+02  0.99999911774E+01 0.  0.
        -12    1    1    2    0    0 -0.65027077491E+01 -0.34356119299E+02 -0.28398687191E+02  0.45045683206E+02  0.00000000000E+00 0.  1.
         11    1    3    3    0    0  0.71192653341E+01  0.21105633486E+02  0.20967206536E+02  0.30590120201E+02  0.51100000000E-03 0. -1.
        -11    1    3    3    0    0 -0.18269355855E+00  0.21864696578E+01 -0.40361719007E-01  0.21944602595E+01  0.51100000000E-03 0.  1.
         12    1    3    3    0    0 -0.43386402648E+00  0.11064016155E+02  0.74718423739E+01  0.13357736333E+02  0.00000000000E+00 0. -1.
</event>
<event>
 7    1  0.2001181E-008  0.4614232E+02  0.7816164E-02  0.1320468E+00
        -11   -1    0    0    0    0  0.00000000000E+00  0.00000000000E+00  0.45593999997E+02  0.45594000000E+02  0.51100000000E-03 0.  1.
         11   -1    0    0    0    0 -0.00000000000E+00 -0.00000000000E+00 -0.45593999997E+02  0.45594000000E+02  0.51100000000E-03 0. -1.
    9900012    2    1    2    0    0  0.43365414966E+02 -0.11715267898E+02  0.33625566371E+01  0.46142317585E+02  0.99999983939E+01 0.  0.
        -12    1    1    2    0    0 -0.43365414966E+02  0.11715267898E+02 -0.33625566371E+01  0.45045682415E+02  0.00000000000E+00 0.  1.
         11    1    3    3    0    0  0.97055241808E+01 -0.45024301181E+01  0.16911049721E+00  0.10700358649E+02  0.51100000000E-03 0. -1.
        -11    1    3    3    0    0  0.13559583751E+02 -0.20564964320E+01 -0.24621750596E+01  0.13933908116E+02  0.51100000000E-03 0.  1.
        -12    1    3    3    0    0  0.20100307034E+02 -0.51563413477E+01  0.56556211996E+01  0.21508050821E+02  0.00000000000E+00 0.  1.
</event>
<event>
 7    1  0.2001181E-008  0.4614232E+02  0.7816164E-02  0.1320468E+00
        -11   -1    0    0    0    0  0.00000000000E+00  0.00000000000E+00  0.45593999997E+02  0.45594000000E+02  0.51100000000E-03 0.  1.
         11   -1    0    0    0    0 -0.00000000000E+00 -0.00000000000E+00 -0.45593999997E+02  0.45594000000E+02  0.51100000000E-03 0. -1.
    9900012    2    1    2    0    0  0.26719103855E+02  0.10085870931E+02 -0.34835014734E+02  0.46142317024E+02  0.99999932750E+01 0.  0.
        -12    1    1    2    0    0 -0.26719103855E+02 -0.10085870931E+02  0.34835014734E+02  0.45045682976E+02  0.00000000000E+00 0.  1.
         11    1    3    3    0    0  0.15372784427E+02  0.74652004822E+01 -0.20449435213E+02  0.26650161727E+02  0.51100000000E-03 0. -1.
        -11    1    3    3    0    0  0.91654536346E+00  0.25613685467E+01 -0.31333082135E+01  0.41494921203E+01  0.51100000000E-03 0.  1.
        -12    1    3    3    0    0  0.10429774065E+02  0.59301902413E-01 -0.11252271307E+02  0.15342663176E+02  0.00000000000E+00 0.  1.
</event>
<event>
 7    1  0.2001181E-008  0.4614232E+02  0.7816164E-02  0.1320468E+00
        -11   -1    0    0    0    0  0.00000000000E+00  0.00000000000E+00  0.45593999997E+02  0.45594000000E+02  0.51100000000E-03 0.  1.
         11   -1    0    0    0    0 -0.00000000000E+00 -0.00000000000E+00 -0.45593999997E+02  0.45594000000E+02  0.51100000000E-03 0. -1.
    9900012    2    1    2    0    0  0.15586779310E+01 -0.10338902364E+02 -0.43815419144E+02  0.46142319477E+02  0.10000015647E+02 0.  0.
        -12    1    1    2    0    0 -0.15586779310E+01  0.10338902364E+02  0.43815419144E+02  0.45045680523E+02  0.00000000000E+00 0.  1.
         11    1    3    3    0    0  0.30636680977E+01 -0.59823858431E+01 -0.15537442040E+02  0.16928883838E+02  0.51100000000E-03 0. -1.
        -11    1    3    3    0    0  0.31301739838E+00 -0.16316848970E+01 -0.15078784426E+01  0.22436740302E+01  0.51100000000E-03 0.  1.
         12    1    3    3    0    0 -0.18180075651E+01 -0.27248316235E+01 -0.26770098662E+02  0.26969761609E+02  0.00000000000E+00 0. -1.
</event>
<event>
 7    1  0.2001181E-008  0.4614232E+02  0.7816164E-02  0.1320468E+00
        -11   -1    0    0    0    0  0.00000000000E+00  0.00000000000E+00  0.45593999997E+02  0.45594000000E+02  0.51100000000E-03 0.  1.
         11   -1    0    0    0    0 -0.00000000000E+00 -0.00000000000E+00 -0.45593999997E+02  0.45594000000E+02  0.51100000000E-03 0. -1.
    9900012    2    1    2    0    0 -0.38756952896E+02 -0.21877763217E+01 -0.22852258601E+02  0.46142317785E+02  0.10000000217E+02 0.  0.
        -12    1    1    2    0    0  0.38756952896E+02  0.21877763217E+01  0.22852258601E+02  0.45045682215E+02  0.00000000000E+00 0.  1.
         11    1    3    3    0    0 -0.91965702862E+01  0.38868290418E+00 -0.77700794352E+01  0.12045833891E+02  0.51100000000E-03 0.  1.
        -11    1    3    3    0    0 -0.17895723661E+02 -0.50812045642E+01 -0.82747069620E+01  0.20360411115E+02  0.51100000000E-03 0. -1.
        -12    1    3    3    0    0 -0.11664658949E+02  0.25047453383E+01 -0.68074722041E+01  0.13736072780E+02  0.00000000000E+00 0.  1.
</event>
<event>
 7    1  0.2001181E-008  0.4614232E+02  0.7816164E-02  0.1320468E+00
        -11   -1    0    0    0    0  0.00000000000E+00  0.00000000000E+00  0.45593999997E+02  0.45594000000E+02  0.51100000000E-03 0. -1.
         11   -1    0    0    0    0 -0.00000000000E+00 -0.00000000000E+00 -0.45593999997E+02  0.45594000000E+02  0.51100000000E-03 0.  1.
    9900012    2    1    2    0    0 -0.33437792301E+02  0.23638175623E+02  0.18768700215E+02  0.46142318648E+02  0.10000008086E+02 0.  0.
        -12    1    1    2    0    0  0.33437792301E+02 -0.23638175623E+02 -0.18768700215E+02  0.45045681352E+02  0.00000000000E+00 0.  1.
         11    1    3    3    0    0 -0.27567182148E+01 -0.85293751156E-01  0.15947587930E+01  0.31859105776E+01  0.51100000000E-03 0. -1.
        -11    1    3    3    0    0 -0.27192742300E+01  0.21657638009E+01  0.39302875303E+01  0.52471082999E+01  0.51100000000E-03 0.  1.
         12    1    3    3    0    0 -0.27961799856E+02  0.21557705573E+02  0.13243653892E+02  0.37709299770E+02  0.00000000000E+00 0. -1.
</event>
<event>
 7    1  0.2001181E-008  0.4614232E+02  0.7816164E-02  0.1320468E+00
        -11   -1    0    0    0    0  0.00000000000E+00  0.00000000000E+00  0.45593999997E+02  0.45594000000E+02  0.51100000000E-03 0.  1.
         11   -1    0    0    0    0 -0.00000000000E+00 -0.00000000000E+00 -0.45593999997E+02  0.45594000000E+02  0.51100000000E-03 0. -1.
    9900012    2    1    2    0    0 -0.30349699802E+02  0.44243331502E+01 -0.32991428590E+02  0.46142319161E+02  0.10000012763E+02 0.  0.
        -12    1    1    2    0    0  0.30349699802E+02 -0.44243331502E+01  0.32991428590E+02  0.45045680839E+02  0.00000000000E+00 0.  1.
         11    1    3    3    0    0 -0.13643612873E+02  0.47281491974E+01 -0.17672800878E+02  0.22821732147E+02  0.51100000000E-03 0. -1.
        -11    1    3    3    0    0 -0.15595928112E+02  0.97586772636E+00 -0.14863528784E+02  0.21566403958E+02  0.51100000000E-03 0.  1.
         12    1    3    3    0    0 -0.11101588166E+01 -0.12796837736E+01 -0.45509892719E+00  0.17541830554E+01  0.00000000000E+00 0. -1.
</event>
<event>
 7    1  0.2001181E-008  0.4614230E+02  0.7816164E-02  0.1320468E+00
        -11   -1    0    0    0    0  0.00000000000E+00  0.00000000000E+00  0.45593999997E+02  0.45594000000E+02  0.51100000000E-03 0. -1.
         11   -1    0    0    0    0 -0.00000000000E+00 -0.00000000000E+00 -0.45593999997E+02  0.45594000000E+02  0.51100000000E-03 0.  1.
    9900012    2    1    2    0    0  0.29459197232E+02  0.28629264465E+02 -0.18483387013E+02  0.46142304525E+02  0.99998793014E+01 0.  0.
        -12    1    1    2    0    0 -0.29459197232E+02 -0.28629264465E+02  0.18483387013E+02  0.45045695475E+02  0.00000000000E+00 0.  1.
         11    1    3    3    0    0  0.28651424389E+02  0.28082425021E+02 -0.15931011154E+02  0.43166234851E+02  0.51100000000E-03 0. -1.
        -11    1    3    3    0    0  0.98695059190E+00  0.60952713845E+00 -0.14472455291E+01  0.18547546161E+01  0.51100000000E-03 0.  1.
         12    1    3    3    0    0 -0.17917774879E+00 -0.62687693945E-01 -0.11051303305E+01  0.11213150583E+01  0.00000000000E+00 0. -1.
</event>
<event>
 7    1  0.2001181E-008  0.4614232E+02  0.7816164E-02  0.1320468E+00
        -11   -1    0    0    0    0  0.00000000000E+00  0.00000000000E+00  0.45593999997E+02  0.45594000000E+02  0.51100000000E-03 0.  1.
         11   -1    0    0    0    0 -0.00000000000E+00 -0.00000000000E+00 -0.45593999997E+02  0.45594000000E+02  0.51100000000E-03 0. -1.
    9900012    2    1    2    0    0  0.27711882245E+02 -0.14055119886E+02 -0.32613167405E+02  0.46142317624E+02  0.99999987470E+01 0.  0.
        -12    1    1    2    0    0 -0.27711882245E+02  0.14055119886E+02  0.32613167405E+02  0.45045682376E+02  0.00000000000E+00 0.  1.
         11    1    3    3    0    0  0.12264035576E+02 -0.70127374643E+01 -0.18942668754E+02  0.23630695190E+02  0.51100000000E-03 0. -1.
        -11    1    3    3    0    0  0.27063652033E+01  0.90427300151E+00 -0.18467653754E+01  0.33989211359E+01  0.51100000000E-03 0.  1.
         12    1    3    3    0    0  0.12741481465E+02 -0.79466554232E+01 -0.11823733276E+02  0.19112701298E+02  0.00000000000E+00 0. -1.
</event>
<event>
 7    1  0.2001181E-008  0.4614232E+02  0.7816164E-02  0.1320468E+00
        -11   -1    0    0    0    0  0.00000000000E+00  0.00000000000E+00  0.45593999997E+02  0.45594000000E+02  0.51100000000E-03 0.  1.
         11   -1    0    0    0    0 -0.00000000000E+00 -0.00000000000E+00 -0.45593999997E+02  0.45594000000E+02  0.51100000000E-03 0. -1.
    9900012    2    1    2    0    0  0.34511476239E+02 -0.26194853145E+01 -0.28830710564E+02  0.46142316887E+02  0.99999920306E+01 0.  0.
        -12    1    1    2    0    0 -0.34511476239E+02  0.26194853145E+01  0.28830710564E+02  0.45045683113E+02  0.00000000000E+00 0.  1.
         11    1    3    3    0    0  0.11017394183E+02  0.83338976845E+00 -0.99759481391E+01  0.14886136323E+02  0.51100000000E-03 0. -1.
        -11    1    3    3    0    0  0.85900467737E+01 -0.45976689183E+01 -0.53717161053E+01  0.11125771759E+02  0.51100000000E-03 0.  1.
        -12    1    3    3    0    0  0.14904035282E+02  0.11447938354E+01 -0.13483046319E+02  0.20130408805E+02  0.00000000000E+00 0.  1.
</event>
<event>
 7    1  0.2001181E-008  0.4614232E+02  0.7816164E-02  0.1320468E+00
        -11   -1    0    0    0    0  0.00000000000E+00  0.00000000000E+00  0.45593999997E+02  0.45594000000E+02  0.51100000000E-03 0.  1.
         11   -1    0    0    0    0 -0.00000000000E+00 -0.00000000000E+00 -0.45593999997E+02  0.45594000000E+02  0.51100000000E-03 0. -1.
    9900012    2    1    2    0    0  0.30963857100E+02  0.32094756510E+02  0.63466197349E+01  0.46142318475E+02  0.10000006513E+02 0.  0.
        -12    1    1    2    0    0 -0.30963857100E+02 -0.32094756510E+02 -0.63466197349E+01  0.45045681525E+02  0.00000000000E+00 0.  1.
         11    1    3    3    0    0  0.40540091074E+01  0.26768364615E+01 -0.11473509714E+01  0.49916788555E+01  0.51100000000E-03 0. -1.
        -11    1    3    3    0    0  0.18375214284E+02  0.17099898534E+02  0.19659504840E+01  0.25177767801E+02  0.51100000000E-03 0.  1.
        -12    1    3    3    0    0  0.85346337091E+01  0.12318021514E+02  0.55280202223E+01  0.15972871819E+02  0.00000000000E+00 0.  1.
</event>
<event>
 7    1  0.2001181E-008  0.4614233E+02  0.7816164E-02  0.1320468E+00
        -11   -1    0    0    0    0  0.00000000000E+00  0.00000000000E+00  0.45593999997E+02  0.45594000000E+02  0.51100000000E-03 0. -1.
         11   -1    0    0    0    0 -0.00000000000E+00 -0.00000000000E+00 -0.45593999997E+02  0.45594000000E+02  0.51100000000E-03 0.  1.
    9900012    2    1    2    0    0  0.42077304162E+02  0.16029025067E+02 -0.12974908902E+01  0.46142327037E+02  0.10000084583E+02 0.  0.
        -12    1    1    2    0    0 -0.42077304162E+02 -0.16029025067E+02  0.12974908902E+01  0.45045672963E+02  0.00000000000E+00 0.  1.
         11    1    3    3    0    0  0.34102345594E+02  0.13738070412E+02 -0.99785985089E+00  0.36779073917E+02  0.51100000000E-03 0. -1.
        -11    1    3    3    0    0  0.55914310311E+01  0.14804401826E+01 -0.22214255001E+01  0.61960096533E+01  0.51100000000E-03 0.  1.
         12    1    3    3    0    0  0.23835275368E+01  0.81051447258E+00  0.19217944608E+01  0.31672434669E+01  0.00000000000E+00 0. -1.
</event>
<event>
 7    1  0.2001181E-008  0.4614232E+02  0.7816164E-02  0.1320468E+00
        -11   -1    0    0    0    0  0.00000000000E+00  0.00000000000E+00  0.45593999997E+02  0.45594000000E+02  0.51100000000E-03 0.  1.
         11   -1    0    0    0    0 -0.00000000000E+00 -0.00000000000E+00 -0.45593999997E+02  0.45594000000E+02  0.51100000000E-03 0. -1.
    9900012    2    1    2    0    0 -0.19746875259E+02  0.39683865215E+02 -0.80227879436E+01  0.46142319105E+02  0.10000012256E+02 0.  0.
        -12    1    1    2    0    0  0.19746875259E+02 -0.39683865215E+02  0.80227879436E+01  0.45045680895E+02  0.00000000000E+00 0.  1.
         11    1    3    3    0    0 -0.26697737985E+01  0.10830546423E+02 -0.14167910977E+01  0.11244364154E+02  0.51100000000E-03 0. -1.
        -11    1    3    3    0    0 -0.17628184127E+02  0.26784890556E+02 -0.56747026750E+01  0.32563560745E+02  0.51100000000E-03 0.  1.
        -12    1    3    3    0    0  0.55108266678E+00  0.20684282361E+01 -0.93129417097E+00  0.23343942054E+01  0.00000000000E+00 0.  1.
</event>
<event>
 7    1  0.2001181E-008  0.4614232E+02  0.7816164E-02  0.1320468E+00
        -11   -1    0    0    0    0  0.00000000000E+00  0.00000000000E+00  0.45593999997E+02  0.45594000000E+02  0.51100000000E-03 0. -1.
         11   -1    0    0    0    0 -0.00000000000E+00 -0.00000000000E+00 -0.45593999997E+02  0.45594000000E+02  0.51100000000E-03 0.  1.
    9900012    2    1    2    0    0 -0.70430624982E+00  0.38147767245E+02  0.23945047365E+02  0.46142317783E+02  0.10000000202E+02 0.  0.
        -12    1    1    2    0    0  0.70430624982E+00 -0.38147767245E+02 -0.23945047365E+02  0.45045682217E+02  0.00000000000E+00 0.  1.
         11    1    3    3    0    0 -0.29360102991E+01  0.20428475826E+02  0.12124615180E+02  0.23936354663E+02  0.51100000000E-03 0. -1.
        -11    1    3    3    0    0 -0.93786792774E-01  0.52065706827E+00  0.24026208197E+01  0.24601761745E+01  0.51100000000E-03 0.  1.
        -12    1    3    3    0    0  0.23254908421E+01  0.17198634351E+02  0.94178113657E+01  0.19745786946E+02  0.00000000000E+00 0.  1.
</event>
<event>
 7    1  0.2001181E-008  0.4614231E+02  0.7816164E-02  0.1320468E+00
        -11   -1    0    0    0    0  0.00000000000E+00  0.00000000000E+00  0.45593999997E+02  0.45594000000E+02  0.51100000000E-03 0. -1.
         11   -1    0    0    0    0 -0.00000000000E+00 -0.00000000000E+00 -0.45593999997E+02  0.45594000000E+02  0.51100000000E-03 0.  1.
    9900012    2    1    2    0    0 -0.32971166433E+02  0.27749527210E+02 -0.13114105468E+02  0.46142313875E+02  0.99999645597E+01 0.  0.
        -12    1    1    2    0    0  0.32971166433E+02 -0.27749527210E+02  0.13114105468E+02  0.45045686125E+02  0.00000000000E+00 0.  1.
         11    1    3    3    0    0 -0.41534010819E+01  0.70563640948E+00 -0.13601116032E+01  0.44270268944E+01  0.51100000000E-03 0. -1.
        -11    1    3    3    0    0 -0.12163163021E+02  0.86818761243E+01 -0.20067792835E+01  0.15077953146E+02  0.51100000000E-03 0.  1.
        -12    1    3    3    0    0 -0.16654602330E+02  0.18362014676E+02 -0.97472145811E+01  0.26637333835E+02  0.00000000000E+00 0.  1.
</event>
<event>
 7    1  0.2001181E-008  0.4614232E+02  0.7816164E-02  0.1320468E+00
        -11   -1    0    0    0    0  0.00000000000E+00  0.00000000000E+00  0.45593999997E+02  0.45594000000E+02  0.51100000000E-03 0. -1.
         11   -1    0    0    0    0 -0.00000000000E+00 -0.00000000000E+00 -0.45593999997E+02  0.45594000000E+02  0.51100000000E-03 0.  1.
    9900012    2    1    2    0    0  0.12005326862E+02 -0.20065102342E+02  0.38501653829E+02  0.46142317048E+02  0.99999934991E+01 0.  0.
        -12    1    1    2    0    0 -0.12005326862E+02  0.20065102342E+02 -0.38501653829E+02  0.45045682952E+02  0.00000000000E+00 0.  1.
         11    1    3    3    0    0  0.84904417878E+01 -0.19890903730E+02  0.34469025409E+02  0.40692129041E+02  0.51100000000E-03 0. -1.
        -11    1    3    3    0    0 -0.51799859690E-02 -0.28018523061E-02 -0.53714129931E-01  0.54038426201E-01  0.51100000000E-03 0.  1.
         12    1    3    3    0    0  0.35200650597E+01 -0.17139676026E+00  0.40863425491E+01  0.53961495812E+01  0.00000000000E+00 0. -1.
</event>
<event>
 7    1  0.2001181E-008  0.4614232E+02  0.7816164E-02  0.1320468E+00
        -11   -1    0    0    0    0  0.00000000000E+00  0.00000000000E+00  0.45593999997E+02  0.45594000000E+02  0.51100000000E-03 0.  1.
         11   -1    0    0    0    0 -0.00000000000E+00 -0.00000000000E+00 -0.45593999997E+02  0.45594000000E+02  0.51100000000E-03 0. -1.
    9900012    2    1    2    0    0  0.27964009708E+02  0.62990885861E+01 -0.34748368206E+02  0.46142318199E+02  0.10000003995E+02 0.  0.
        -12    1    1    2    0    0 -0.27964009708E+02 -0.62990885861E+01  0.34748368206E+02  0.45045681801E+02  0.00000000000E+00 0.  1.
         11    1    3    3    0    0  0.13550218731E+02  0.74788195746E+01 -0.17897427231E+02  0.23661341290E+02  0.51100000000E-03 0. -1.
        -11    1    3    3    0    0  0.13629620125E+02 -0.66656761250E+00 -0.16641092879E+02  0.21520614062E+02  0.51100000000E-03 0.  1.
         12    1    3    3    0    0  0.78417085171E+00 -0.51316337605E+00 -0.20984809520E+00  0.96036284718E+00  0.00000000000E+00 0. -1.
</event>
<event>
 7    1  0.2001181E-008  0.4614232E+02  0.7816164E-02  0.1320468E+00
        -11   -1    0    0    0    0  0.00000000000E+00  0.00000000000E+00  0.45593999997E+02  0.45594000000E+02  0.51100000000E-03 0.  1.
         11   -1    0    0    0    0 -0.00000000000E+00 -0.00000000000E+00 -0.45593999997E+02  0.45594000000E+02  0.51100000000E-03 0. -1.
    9900012    2    1    2    0    0  0.72719829736E+01  0.60145181343E+01 -0.44046081449E+02  0.46142318123E+02  0.10000003302E+02 0.  0.
        -12    1    1    2    0    0 -0.72719829736E+01 -0.60145181343E+01  0.44046081449E+02  0.45045681877E+02  0.00000000000E+00 0.  1.
         11    1    3    3    0    0  0.14233975351E+01  0.68660445028E+00 -0.15992555993E+02  0.16070449081E+02  0.51100000000E-03 0. -1.
        -11    1    3    3    0    0  0.34744562428E+01  0.28717526187E+01 -0.48618514340E+01  0.66299629647E+01  0.51100000000E-03 0.  1.
        -12    1    3    3    0    0  0.23741291958E+01  0.24561610654E+01 -0.23191674022E+02  0.23441906077E+02  0.00000000000E+00 0.  1.
</event>
<event>
 7    1  0.2001181E-008  0.4614232E+02  0.7816164E-02  0.1320468E+00
        -11   -1    0    0    0    0  0.00000000000E+00  0.00000000000E+00  0.45593999997E+02  0.45594000000E+02  0.51100000000E-03 0. -1.
         11   -1    0    0    0    0 -0.00000000000E+00 -0.00000000000E+00 -0.45593999997E+02  0.45594000000E+02  0.51100000000E-03 0.  1.
    9900012    2    1    2    0    0 -0.19427823900E+02 -0.38320828651E+02 -0.13534666874E+02  0.46142318105E+02  0.10000003138E+02 0.  0.
        -12    1    1    2    0    0  0.19427823900E+02  0.38320828651E+02  0.13534666874E+02  0.45045681895E+02  0.00000000000E+00 0.  1.
         11    1    3    3    0    0 -0.14040323621E+02 -0.17692652109E+02 -0.65122962791E+01  0.23506820906E+02  0.51100000000E-03 0.  1.
        -11    1    3    3    0    0 -0.28928342045E+01 -0.83525996412E+01 -0.15874839958E+01  0.89807859455E+01  0.51100000000E-03 0. -1.
        -12    1    3    3    0    0 -0.24946660742E+01 -0.12275576901E+02 -0.54348865995E+01  0.13654711253E+02  0.00000000000E+00 0.  1.
</event>
<event>
 7    1  0.2001181E-008  0.4614232E+02  0.7816164E-02  0.1320468E+00
        -11   -1    0    0    0    0  0.00000000000E+00  0.00000000000E+00  0.45593999997E+02  0.45594000000E+02  0.51100000000E-03 0. -1.
         11   -1    0    0    0    0 -0.00000000000E+00 -0.00000000000E+00 -0.45593999997E+02  0.45594000000E+02  0.51100000000E-03 0.  1.
    9900012    2    1    2    0    0 -0.36283350256E+01 -0.38054802384E+02  0.23828151052E+02  0.46142316720E+02  0.99999905105E+01 0.  0.
        -12    1    1    2    0    0  0.36283350256E+01  0.38054802384E+02 -0.23828151052E+02  0.45045683280E+02  0.00000000000E+00 0.  1.
         11    1    3    3    0    0  0.27303021924E+00 -0.97138969265E+01  0.23083558462E+01  0.99881352601E+01  0.51100000000E-03 0. -1.
        -11    1    3    3    0    0 -0.42720614552E+01 -0.21252254615E+02  0.18259698668E+02  0.28342996154E+02  0.51100000000E-03 0.  1.
        -12    1    3    3    0    0  0.37069621028E+00 -0.70886508428E+01  0.32600965378E+01  0.78111853061E+01  0.00000000000E+00 0.  1.
</event>
<event>
 7    1  0.2001181E-008  0.4614232E+02  0.7816164E-02  0.1320468E+00
        -11   -1    0    0    0    0  0.00000000000E+00  0.00000000000E+00  0.45593999997E+02  0.45594000000E+02  0.51100000000E-03 0.  1.
         11   -1    0    0    0    0 -0.00000000000E+00 -0.00000000000E+00 -0.45593999997E+02  0.45594000000E+02  0.51100000000E-03 0. -1.
    9900012    2    1    2    0    0 -0.13248238838E+02 -0.24946395744E+02 -0.35089528319E+02  0.46142317737E+02  0.99999997764E+01 0.  0.
        -12    1    1    2    0    0  0.13248238838E+02  0.24946395744E+02  0.35089528319E+02  0.45045682263E+02  0.00000000000E+00 0.  1.
         11    1    3    3    0    0 -0.87026992500E+01 -0.12409494217E+02 -0.23512648048E+02  0.27974580237E+02  0.51100000000E-03 0. -1.
        -11    1    3    3    0    0  0.71423481899E+00 -0.63309501483E+00 -0.49776318356E+00  0.10764335198E+01  0.51100000000E-03 0.  1.
         12    1    3    3    0    0 -0.52597744075E+01 -0.11903806512E+02 -0.11079117088E+02  0.17091303980E+02  0.00000000000E+00 0. -1.
</event>
<event>
 7    1  0.2001181E-008  0.4614232E+02  0.7816164E-02  0.1320468E+00
        -11   -1    0    0    0    0  0.00000000000E+00  0.00000000000E+00  0.45593999997E+02  0.45594000000E+02  0.51100000000E-03 0.  1.
         11   -1    0    0    0    0 -0.00000000000E+00 -0.00000000000E+00 -0.45593999997E+02  0.45594000000E+02  0.51100000000E-03 0. -1.
    9900012    2    1    2    0    0  0.29214246260E+02 -0.17494984903E+02 -0.29488416294E+02  0.46142318999E+02  0.10000011287E+02 0.  0.
        -12    1    1    2    0    0 -0.29214246260E+02  0.17494984903E+02  0.29488416294E+02  0.45045681001E+02  0.00000000000E+00 0.  1.
         11    1    3    3    0    0  0.15422185442E+02 -0.93901640537E+01 -0.95803758798E+01  0.20440219838E+02  0.51100000000E-03 0. -1.
        -11    1    3    3    0    0  0.54499229715E+01 -0.39529336347E+01 -0.63796771909E+01  0.92751078719E+01  0.51100000000E-03 0.  1.
        -12    1    3    3    0    0  0.83421378472E+01 -0.41518872143E+01 -0.13528363224E+02  0.16426991289E+02  0.00000000000E+00 0.  1.
</event>
<event>
 7    1  0.2001181E-008  0.4614232E+02  0.7816164E-02  0.1320468E+00
        -11   -1    0    0    0    0  0.00000000000E+00  0.00000000000E+00  0.45593999997E+02  0.45594000000E+02  0.51100000000E-03 0. -1.
         11   -1    0    0    0    0 -0.00000000000E+00 -0.00000000000E+00 -0.45593999997E+02  0.45594000000E+02  0.51100000000E-03 0.  1.
    9900012    2    1    2    0    0 -0.94439748961E+01  0.43405952529E+02  0.74731590897E+01  0.46142317814E+02  0.10000000483E+02 0.  0.
        -12    1    1    2    0    0  0.94439748961E+01 -0.43405952529E+02 -0.74731590897E+01  0.45045682186E+02  0.00000000000E+00 0.  1.
         11    1    3    3    0    0 -0.41937715648E+01  0.20033880061E+02  0.20978939458E+01  0.20575354906E+02  0.51100000000E-03 0. -1.
        -11    1    3    3    0    0  0.71186451125E+00  0.78059984136E+00 -0.88469249728E+00  0.13779580075E+01  0.51100000000E-03 0.  1.
        -12    1    3    3    0    0 -0.59620678425E+01  0.22591472627E+02  0.62599576412E+01  0.24189004901E+02  0.00000000000E+00 0.  1.
</event>
<event>
 7    1  0.2001181E-008  0.4614232E+02  0.7816164E-02  0.1320468E+00
        -11   -1    0    0    0    0  0.00000000000E+00  0.00000000000E+00  0.45593999997E+02  0.45594000000E+02  0.51100000000E-03 0.  1.
         11   -1    0    0    0    0 -0.00000000000E+00 -0.00000000000E+00 -0.45593999997E+02  0.45594000000E+02  0.51100000000E-03 0. -1.
    9900012    2    1    2    0    0  0.58819718809E+01  0.41835844313E+02 -0.15629398793E+02  0.46142316864E+02  0.99999918166E+01 0.  0.
        -12    1    1    2    0    0 -0.58819718809E+01 -0.41835844313E+02  0.15629398793E+02  0.45045683136E+02  0.00000000000E+00 0.  1.
         11    1    3    3    0    0  0.54734434223E+00  0.44613339449E+00 -0.13434008261E+01  0.15176781198E+01  0.51100000000E-03 0. -1.
        -11    1    3    3    0    0 -0.14850637785E+01  0.54882656414E+01 -0.12158029555E+01  0.58141767486E+01  0.51100000000E-03 0.  1.
        -12    1    3    3    0    0  0.68196913172E+01  0.35901445277E+02 -0.13070195011E+02  0.38810461995E+02  0.00000000000E+00 0.  1.
</event>
<event>
 7    1  0.2001181E-008  0.4614232E+02  0.7816164E-02  0.1320468E+00
        -11   -1    0    0    0    0  0.00000000000E+00  0.00000000000E+00  0.45593999997E+02  0.45594000000E+02  0.51100000000E-03 0.  1.
         11   -1    0    0    0    0 -0.00000000000E+00 -0.00000000000E+00 -0.45593999997E+02  0.45594000000E+02  0.51100000000E-03 0. -1.
    9900012    2    1    2    0    0  0.20282902194E+02  0.49489988278E+01 -0.39915216400E+02  0.46142320840E+02  0.10000028072E+02 0.  0.
        -12    1    1    2    0    0 -0.20282902194E+02 -0.49489988278E+01  0.39915216400E+02  0.45045679160E+02  0.00000000000E+00 0.  1.
         11    1    3    3    0    0  0.61005915351E+01 -0.56856478766E+00 -0.10425520633E+02  0.12092640891E+02  0.51100000000E-03 0. -1.
        -11    1    3    3    0    0  0.10795507555E+02  0.36314360368E+00 -0.20033040594E+02  0.22759560021E+02  0.51100000000E-03 0.  1.
        -12    1    3    3    0    0  0.33868031036E+01  0.51544200118E+01 -0.94566551721E+01  0.11290119927E+02  0.00000000000E+00 0.  1.
</event>
<event>
 7    1  0.2001181E-008  0.4614232E+02  0.7816164E-02  0.1320468E+00
        -11   -1    0    0    0    0  0.00000000000E+00  0.00000000000E+00  0.45593999997E+02  0.45594000000E+02  0.51100000000E-03 0.  1.
         11   -1    0    0    0    0 -0.00000000000E+00 -0.00000000000E+00 -0.45593999997E+02  0.45594000000E+02  0.51100000000E-03 0. -1.
    9900012    2    1    2    0    0 -0.20302999316E+02  0.30110228944E+02 -0.26651000092E+02  0.46142317919E+02  0.10000001435E+02 0.  0.
        -12    1    1    2    0    0  0.20302999316E+02 -0.30110228944E+02  0.26651000092E+02  0.45045682081E+02  0.00000000000E+00 0.  1.
         11    1    3    3    0    0 -0.13231385195E+02  0.19405916616E+02 -0.17031261612E+02  0.29012463292E+02  0.51100000000E-03 0. -1.
        -11    1    3    3    0    0 -0.42597818296E+00  0.23301221736E+00  0.79718262764E+00  0.93340907899E+00  0.51100000000E-03 0.  1.
        -12    1    3    3    0    0 -0.66456359385E+01  0.10471300110E+02 -0.10416921107E+02  0.16196445548E+02  0.00000000000E+00 0.  1.
</event>
<event>
 7    1  0.2001181E-008  0.4614232E+02  0.7816164E-02  0.1320468E+00
        -11   -1    0    0    0    0  0.00000000000E+00  0.00000000000E+00  0.45593999997E+02  0.45594000000E+02  0.51100000000E-03 0.  1.
         11   -1    0    0    0    0 -0.00000000000E+00 -0.00000000000E+00 -0.45593999997E+02  0.45594000000E+02  0.51100000000E-03 0. -1.
    9900012    2    1    2    0    0 -0.13542791638E+02  0.26773217072E+02 -0.33599125123E+02  0.46142316891E+02  0.99999920616E+01 0.  0.
        -12    1    1    2    0    0  0.13542791638E+02 -0.26773217072E+02  0.33599125123E+02  0.45045683109E+02  0.00000000000E+00 0.  1.
         11    1    3    3    0    0 -0.58191104987E+00  0.16548710619E+00 -0.12751318076E+01  0.14113709081E+01  0.51100000000E-03 0. -1.
        -11    1    3    3    0    0 -0.13523002690E+00  0.35363065671E+01 -0.83633180421E+01  0.90812356115E+01  0.51100000000E-03 0.  1.
         12    1    3    3    0    0 -0.12825650562E+02  0.23071423399E+02 -0.23960675274E+02  0.35649710371E+02  0.00000000000E+00 0. -1.
</event>
<event>
 7    1  0.2001181E-008  0.4614232E+02  0.7816164E-02  0.1320468E+00
        -11   -1    0    0    0    0  0.00000000000E+00  0.00000000000E+00  0.45593999997E+02  0.45594000000E+02  0.51100000000E-03 0. -1.
         11   -1    0    0    0    0 -0.00000000000E+00 -0.00000000000E+00 -0.45593999997E+02  0.45594000000E+02  0.51100000000E-03 0.  1.
    9900012    2    1    2    0    0 -0.32377115997E+02 -0.55262588591E+00  0.31313423035E+02  0.46142317656E+02  0.99999990431E+01 0.  0.
        -12    1    1    2    0    0  0.32377115997E+02  0.55262588591E+00 -0.31313423035E+02  0.45045682344E+02  0.00000000000E+00 0.  1.
         11    1    3    3    0    0 -0.10451371597E+02  0.16234786378E+01  0.12572649475E+02  0.16429801162E+02  0.51100000000E-03 0. -1.
        -11    1    3    3    0    0 -0.12433978062E+02 -0.44716693503E+01  0.95613650423E+01  0.16310099293E+02  0.51100000000E-03 0.  1.
        -12    1    3    3    0    0 -0.94917663372E+01  0.22955648265E+01  0.91794085182E+01  0.13402417201E+02  0.00000000000E+00 0.  1.
</event>
<event>
 7    1  0.2001181E-008  0.4614232E+02  0.7816164E-02  0.1320468E+00
        -11   -1    0    0    0    0  0.00000000000E+00  0.00000000000E+00  0.45593999997E+02  0.45594000000E+02  0.51100000000E-03 0.  1.
         11   -1    0    0    0    0 -0.00000000000E+00 -0.00000000000E+00 -0.45593999997E+02  0.45594000000E+02  0.51100000000E-03 0. -1.
    9900012    2    1    2    0    0  0.40618171501E+02 -0.16486377040E+02  0.10367102445E+02  0.46142319885E+02  0.10000019363E+02 0.  0.
        -12    1    1    2    0    0 -0.40618171501E+02  0.16486377040E+02 -0.10367102445E+02  0.45045680115E+02  0.00000000000E+00 0.  1.
         11    1    3    3    0    0  0.64686727694E+01 -0.51277518291E+01  0.16853377270E+01  0.84248400420E+01  0.51100000000E-03 0. -1.
        -11    1    3    3    0    0 -0.28359592177E+00  0.92155969757E-01 -0.20013225552E+00  0.35912748492E+00  0.51100000000E-03 0.  1.
        -12    1    3    3    0    0  0.34433094653E+02 -0.11450781181E+02  0.88818969738E+01  0.37358352358E+02  0.00000000000E+00 0.  1.
</event>
<event>
 7    1  0.2001181E-008  0.4614232E+02  0.7816164E-02  0.1320468E+00
        -11   -1    0    0    0    0  0.00000000000E+00  0.00000000000E+00  0.45593999997E+02  0.45594000000E+02  0.51100000000E-03 0.  1.
         11   -1    0    0    0    0 -0.00000000000E+00 -0.00000000000E+00 -0.45593999997E+02  0.45594000000E+02  0.51100000000E-03 0. -1.
    9900012    2    1    2    0    0  0.12172513198E+02 -0.28475057177E+02 -0.32712605002E+02  0.46142317800E+02  0.10000000357E+02 0.  0.
        -12    1    1    2    0    0 -0.12172513198E+02  0.28475057177E+02  0.32712605002E+02  0.45045682200E+02  0.00000000000E+00 0.  1.
         11    1    3    3    0    0  0.74759067412E+01 -0.18762828629E+02 -0.20151119737E+02  0.28530694816E+02  0.51100000000E-03 0. -1.
        -11    1    3    3    0    0  0.39147328207E+01 -0.10447815332E+02 -0.10676920752E+02  0.15442752840E+02  0.51100000000E-03 0.  1.
        -12    1    3    3    0    0  0.78187363645E+00  0.73558678370E+00 -0.18845645126E+01  0.21688701441E+01  0.00000000000E+00 0.  1.
</event>
<event>
 7    1  0.2001181E-008  0.4614232E+02  0.7816164E-02  0.1320468E+00
        -11   -1    0    0    0    0  0.00000000000E+00  0.00000000000E+00  0.45593999997E+02  0.45594000000E+02  0.51100000000E-03 0.  1.
         11   -1    0    0    0    0 -0.00000000000E+00 -0.00000000000E+00 -0.45593999997E+02  0.45594000000E+02  0.51100000000E-03 0. -1.
    9900012    2    1    2    0    0 -0.73422369559E+01  0.13336350785E+02 -0.42395126224E+02  0.46142318483E+02  0.10000006584E+02 0.  0.
        -12    1    1    2    0    0  0.73422369559E+01 -0.13336350785E+02  0.42395126224E+02  0.45045681517E+02  0.00000000000E+00 0.  1.
         11    1    3    3    0    0 -0.18567849142E+01  0.26747260372E+01 -0.14322758686E+02  0.14688200238E+02  0.51100000000E-03 0. -1.
        -11    1    3    3    0    0 -0.32448947386E+01  0.11234071094E+02 -0.25082631354E+02  0.27674394142E+02  0.51100000000E-03 0.  1.
        -12    1    3    3    0    0 -0.22405573032E+01 -0.57244634639E+00 -0.29897361840E+01  0.37797241034E+01  0.00000000000E+00 0.  1.
</event>
<event>
 7    1  0.2001181E-008  0.4614232E+02  0.7816164E-02  0.1320468E+00
        -11   -1    0    0    0    0  0.00000000000E+00  0.00000000000E+00  0.45593999997E+02  0.45594000000E+02  0.51100000000E-03 0. -1.
         11   -1    0    0    0    0 -0.00000000000E+00 -0.00000000000E+00 -0.45593999997E+02  0.45594000000E+02  0.51100000000E-03 0.  1.
    9900012    2    1    2    0    0  0.78847413953E+01 -0.43092760083E+02 -0.10486075685E+02  0.46142324273E+02  0.10000059379E+02 0.  0.
        -12    1    1    2    0    0 -0.78847413953E+01  0.43092760083E+02  0.10486075685E+02  0.45045675727E+02  0.00000000000E+00 0.  1.
         11    1    3    3    0    0  0.37798096950E+01 -0.28046425401E+02 -0.10547533527E+02  0.30201645698E+02  0.51100000000E-03 0.  1.
        -11    1    3    3    0    0  0.13620327791E+01 -0.76347605762E+01 -0.14631482346E+01  0.78921166594E+01  0.51100000000E-03 0. -1.
        -12    1    3    3    0    0  0.27428989212E+01 -0.74115741056E+01  0.15246060766E+01  0.80485619153E+01  0.00000000000E+00 0.  1.
</event>
<event>
 7    1  0.2001181E-008  0.4614233E+02  0.7816164E-02  0.1320468E+00
        -11   -1    0    0    0    0  0.00000000000E+00  0.00000000000E+00  0.45593999997E+02  0.45594000000E+02  0.51100000000E-03 0. -1.
         11   -1    0    0    0    0 -0.00000000000E+00 -0.00000000000E+00 -0.45593999997E+02  0.45594000000E+02  0.51100000000E-03 0.  1.
    9900012    2    1    2    0    0 -0.28924214930E+02 -0.25974665774E+02  0.22755637393E+02  0.46142328681E+02  0.10000099579E+02 0.  0.
        -12    1    1    2    0    0  0.28924214930E+02  0.25974665774E+02 -0.22755637393E+02  0.45045671319E+02  0.00000000000E+00 0.  1.
         11    1    3    3    0    0 -0.42340257875E+00 -0.18008627131E+01  0.11905189446E+01  0.21999345158E+01  0.51100000000E-03 0. -1.
        -11    1    3    3    0    0 -0.11287025038E+02 -0.14888911807E+02  0.11601224310E+02  0.21992385836E+02  0.51100000000E-03 0.  1.
         12    1    3    3    0    0 -0.17213787313E+02 -0.92848912534E+01  0.99638941384E+01  0.21950008329E+02  0.00000000000E+00 0. -1.
</event>
<event>
 7    1  0.2001181E-008  0.4614232E+02  0.7816164E-02  0.1320468E+00
        -11   -1    0    0    0    0  0.00000000000E+00  0.00000000000E+00  0.45593999997E+02  0.45594000000E+02  0.51100000000E-03 0. -1.
         11   -1    0    0    0    0 -0.00000000000E+00 -0.00000000000E+00 -0.45593999997E+02  0.45594000000E+02  0.51100000000E-03 0.  1.
    9900012    2    1    2    0    0 -0.37868221583E+02  0.23947484585E+02  0.46507237064E+01  0.46142318133E+02  0.10000003394E+02 0.  0.
        -12    1    1    2    0    0  0.37868221583E+02 -0.23947484585E+02 -0.46507237064E+01  0.45045681867E+02  0.00000000000E+00 0.  1.
         11    1    3    3    0    0 -0.11656927360E+02  0.52064669043E+01  0.75971659970E+00  0.12789387111E+02  0.51100000000E-03 0. -1.
        -11    1    3    3    0    0 -0.71013311381E+01  0.33067656962E+01 -0.20151533998E+01  0.80885379883E+01  0.51100000000E-03 0.  1.
         12    1    3    3    0    0 -0.19109963085E+02  0.15434251985E+02  0.59061605065E+01  0.25264393034E+02  0.00000000000E+00 0. -1.
</event>
<event>
 7    1  0.2001181E-008  0.4614232E+02  0.7816164E-02  0.1320468E+00
        -11   -1    0    0    0    0  0.00000000000E+00  0.00000000000E+00  0.45593999997E+02  0.45594000000E+02  0.51100000000E-03 0.  1.
         11   -1    0    0    0    0 -0.00000000000E+00 -0.00000000000E+00 -0.45593999997E+02  0.45594000000E+02  0.51100000000E-03 0. -1.
    9900012    2    1    2    0    0  0.44594996815E+02 -0.15732812265E+01 -0.61582926670E+01  0.46142317373E+02  0.99999964612E+01 0.  0.
        -12    1    1    2    0    0 -0.44594996815E+02  0.15732812265E+01  0.61582926670E+01  0.45045682627E+02  0.00000000000E+00 0.  1.
         11    1    3    3    0    0  0.19682604128E+02 -0.18915549449E+01 -0.23910380812E+01  0.19917327852E+02  0.51100000000E-03 0. -1.
        -11    1    3    3    0    0  0.16830151680E+02 -0.20346951277E+01 -0.50980545303E+01  0.17702659407E+02  0.51100000000E-03 0.  1.
        -12    1    3    3    0    0  0.80822410067E+01  0.23529688461E+01  0.13307999444E+01  0.85223301141E+01  0.00000000000E+00 0.  1.
</event>
<event>
 7    1  0.2001181E-008  0.4614231E+02  0.7816164E-02  0.1320468E+00
        -11   -1    0    0    0    0  0.00000000000E+00  0.00000000000E+00  0.45593999997E+02  0.45594000000E+02  0.51100000000E-03 0. -1.
         11   -1    0    0    0    0 -0.00000000000E+00 -0.00000000000E+00 -0.45593999997E+02  0.45594000000E+02  0.51100000000E-03 0.  1.
    9900012    2    1    2    0    0 -0.17201447584E+02 -0.26159275268E+02  0.32386977742E+02  0.46142314204E+02  0.99999675623E+01 0.  0.
        -12    1    1    2    0    0  0.17201447584E+02  0.26159275268E+02 -0.32386977742E+02  0.45045685796E+02  0.00000000000E+00 0.  1.
         11    1    3    3    0    0 -0.38956775742E+01 -0.28488606133E+01  0.37986457273E+01  0.61418254761E+01  0.51100000000E-03 0. -1.
        -11    1    3    3    0    0 -0.82430954983E+01 -0.67356534729E+01  0.10656958386E+02  0.15062815587E+02  0.51100000000E-03 0.  1.
         12    1    3    3    0    0 -0.50626745115E+01 -0.16574761182E+02  0.17931373630E+02  0.24937673141E+02  0.00000000000E+00 0. -1.
</event>
<event>
 7    1  0.2001181E-008  0.4614232E+02  0.7816164E-02  0.1320468E+00
        -11   -1    0    0    0    0  0.00000000000E+00  0.00000000000E+00  0.45593999997E+02  0.45594000000E+02  0.51100000000E-03 0.  1.
         11   -1    0    0    0    0 -0.00000000000E+00 -0.00000000000E+00 -0.45593999997E+02  0.45594000000E+02  0.51100000000E-03 0. -1.
    9900012    2    1    2    0    0  0.15694439896E+01 -0.44128103467E+02 -0.89084675166E+01  0.46142318037E+02  0.10000002518E+02 0.  0.
        -12    1    1    2    0    0 -0.15694439896E+01  0.44128103467E+02  0.89084675166E+01  0.45045681963E+02  0.00000000000E+00 0.  1.
         11    1    3    3    0    0  0.24591254285E+01 -0.67899319256E+01  0.76876738675E+00  0.72623327508E+01  0.51100000000E-03 0. -1.
        -11    1    3    3    0    0 -0.24477169967E+00 -0.36058624077E+00 -0.69710912955E+00  0.82212956498E+00  0.51100000000E-03 0.  1.
         12    1    3    3    0    0 -0.64490973917E+00 -0.36977585300E+02 -0.89801257738E+01  0.38057855721E+02  0.00000000000E+00 0. -1.
</event>
<event>
 7    1  0.2001181E-008  0.4614232E+02  0.7816164E-02  0.1320468E+00
        -11   -1    0    0    0    0  0.00000000000E+00  0.00000000000E+00  0.45593999997E+02  0.45594000000E+02  0.51100000000E-03 0. -1.
         11   -1    0    0    0    0 -0.00000000000E+00 -0.00000000000E+00 -0.45593999997E+02  0.45594000000E+02  0.51100000000E-03 0.  1.
    9900012    2    1    2    0    0  0.28943934326E+02 -0.26898251810E+02  0.21629754979E+02  0.46142316687E+02  0.99999902076E+01 0.  0.
        -12    1    1    2    0    0 -0.28943934326E+02  0.26898251810E+02 -0.21629754979E+02  0.45045683313E+02  0.00000000000E+00 0.  1.
         11    1    3    3    0    0  0.15458593150E+02 -0.17041674046E+02  0.12122955771E+02  0.26006783987E+02  0.51100000000E-03 0. -1.
        -11    1    3    3    0    0 -0.26920727623E+00  0.69814887439E-01  0.12309779788E+01  0.12620038516E+01  0.51100000000E-03 0.  1.
        -12    1    3    3    0    0  0.13754548452E+02 -0.99263926517E+01  0.82758212292E+01  0.18873528849E+02  0.00000000000E+00 0.  1.
</event>
<event>
 7    1  0.2001181E-008  0.4614232E+02  0.7816164E-02  0.1320468E+00
        -11   -1    0    0    0    0  0.00000000000E+00  0.00000000000E+00  0.45593999997E+02  0.45594000000E+02  0.51100000000E-03 0.  1.
         11   -1    0    0    0    0 -0.00000000000E+00 -0.00000000000E+00 -0.45593999997E+02  0.45594000000E+02  0.51100000000E-03 0. -1.
    9900012    2    1    2    0    0 -0.18742607165E+01 -0.18973869584E+02 -0.40811676166E+02  0.46142317724E+02  0.99999996648E+01 0.  0.
        -12    1    1    2    0    0  0.18742607165E+01  0.18973869584E+02  0.40811676166E+02  0.45045682276E+02  0.00000000000E+00 0.  1.
         11    1    3    3    0    0 -0.68673090443E+00 -0.10247862018E+02 -0.21583982596E+02  0.23903108171E+02  0.51100000000E-03 0. -1.
        -11    1    3    3    0    0 -0.29088685493E+01 -0.15490200441E+01 -0.93140336146E+01  0.98798887529E+01  0.51100000000E-03 0.  1.
        -12    1    3    3    0    0  0.17213387373E+01 -0.71769875225E+01 -0.99136599553E+01  0.12359320801E+02  0.00000000000E+00 0.  1.
</event>
<event>
 7    1  0.2001181E-008  0.4614232E+02  0.7816164E-02  0.1320468E+00
        -11   -1    0    0    0    0  0.00000000000E+00  0.00000000000E+00  0.45593999997E+02  0.45594000000E+02  0.51100000000E-03 0.  1.
         11   -1    0    0    0    0 -0.00000000000E+00 -0.00000000000E+00 -0.45593999997E+02  0.45594000000E+02  0.51100000000E-03 0. -1.
    9900012    2    1    2    0    0  0.17051295639E+02 -0.15016089046E+02 -0.38895808027E+02  0.46142317685E+02  0.99999993023E+01 0.  0.
        -12    1    1    2    0    0 -0.17051295639E+02  0.15016089046E+02  0.38895808027E+02  0.45045682315E+02  0.00000000000E+00 0.  1.
         11    1    3    3    0    0 -0.22013086629E+00 -0.38201131771E-02 -0.20820870531E+01  0.20936950469E+01  0.51100000000E-03 0. -1.
        -11    1    3    3    0    0  0.43716523834E+00 -0.16609423670E+00  0.38297418948E+00  0.60445862721E+00  0.51100000000E-03 0.  1.
         12    1    3    3    0    0  0.16834261267E+02 -0.14846174696E+02 -0.37196695163E+02  0.43444164011E+02  0.00000000000E+00 0. -1.
</event>
<event>
 7    1  0.2001181E-008  0.4614232E+02  0.7816164E-02  0.1320468E+00
        -11   -1    0    0    0    0  0.00000000000E+00  0.00000000000E+00  0.45593999997E+02  0.45594000000E+02  0.51100000000E-03 0. -1.
         11   -1    0    0    0    0 -0.00000000000E+00 -0.00000000000E+00 -0.45593999997E+02  0.45594000000E+02  0.51100000000E-03 0.  1.
    9900012    2    1    2    0    0 -0.28797445896E+02  0.32131642616E+01  0.34489071915E+02  0.46142318784E+02  0.10000009323E+02 0.  0.
        -12    1    1    2    0    0  0.28797445896E+02 -0.32131642616E+01 -0.34489071915E+02  0.45045681216E+02  0.00000000000E+00 0.  1.
         11    1    3    3    0    0 -0.27274557560E+02  0.42613301061E+01  0.34331709426E+02  0.44053679718E+02  0.51100000000E-03 0. -1.
        -11    1    3    3    0    0 -0.48478379221E-01  0.13092274084E+00 -0.11541817397E+00  0.18114230131E+00  0.51100000000E-03 0.  1.
         12    1    3    3    0    0 -0.14744099574E+01 -0.11790885854E+01  0.27278066265E+00  0.19074967640E+01  0.00000000000E+00 0. -1.
</event>
<event>
 7    1  0.2001181E-008  0.4614232E+02  0.7816164E-02  0.1320468E+00
        -11   -1    0    0    0    0  0.00000000000E+00  0.00000000000E+00  0.45593999997E+02  0.45594000000E+02  0.51100000000E-03 0.  1.
         11   -1    0    0    0    0 -0.00000000000E+00 -0.00000000000E+00 -0.45593999997E+02  0.45594000000E+02  0.51100000000E-03 0. -1.
    9900012    2    1    2    0    0  0.54311296966E+01 -0.16900246542E+02 -0.41400458095E+02  0.46142318370E+02  0.10000005557E+02 0.  0.
        -12    1    1    2    0    0 -0.54311296966E+01  0.16900246542E+02  0.41400458095E+02  0.45045681630E+02  0.00000000000E+00 0.  1.
         11    1    3    3    0    0  0.25499176438E+01  0.26970321960E-01 -0.10296147929E+02  0.10607236673E+02  0.51100000000E-03 0.  1.
        -11    1    3    3    0    0  0.61102677115E+00 -0.48312916751E+01 -0.92586841726E+01  0.10461260241E+02  0.51100000000E-03 0. -1.
        -12    1    3    3    0    0  0.22701852817E+01 -0.12095925189E+02 -0.21845625994E+02  0.25073821457E+02  0.00000000000E+00 0.  1.
</event>
<event>
 7    1  0.2001181E-008  0.4614232E+02  0.7816164E-02  0.1320468E+00
        -11   -1    0    0    0    0  0.00000000000E+00  0.00000000000E+00  0.45593999997E+02  0.45594000000E+02  0.51100000000E-03 0. -1.
         11   -1    0    0    0    0 -0.00000000000E+00 -0.00000000000E+00 -0.45593999997E+02  0.45594000000E+02  0.51100000000E-03 0.  1.
    9900012    2    1    2    0    0 -0.20887252642E+02 -0.39572793657E+02 -0.51797967124E+01  0.46142316358E+02  0.99999872082E+01 0.  0.
        -12    1    1    2    0    0  0.20887252642E+02  0.39572793657E+02  0.51797967124E+01  0.45045683642E+02  0.00000000000E+00 0.  1.
         11    1    3    3    0    0 -0.37985043171E+01 -0.40450081469E+01 -0.23351133071E+01  0.60202558395E+01  0.51100000000E-03 0. -1.
        -11    1    3    3    0    0 -0.91595584686E+01 -0.24174884582E+02 -0.42660018021E+01  0.26201552006E+02  0.51100000000E-03 0.  1.
         12    1    3    3    0    0 -0.79291898566E+01 -0.11352900928E+02  0.14213183968E+01  0.13920508513E+02  0.00000000000E+00 0. -1.
</event>
<event>
 7    1  0.2001181E-008  0.4614232E+02  0.7816164E-02  0.1320468E+00
        -11   -1    0    0    0    0  0.00000000000E+00  0.00000000000E+00  0.45593999997E+02  0.45594000000E+02  0.51100000000E-03 0.  1.
         11   -1    0    0    0    0 -0.00000000000E+00 -0.00000000000E+00 -0.45593999997E+02  0.45594000000E+02  0.51100000000E-03 0. -1.
    9900012    2    1    2    0    0  0.39351494055E+02  0.19889066924E+02 -0.92194573578E+01  0.46142318060E+02  0.10000002723E+02 0.  0.
        -12    1    1    2    0    0 -0.39351494055E+02 -0.19889066924E+02  0.92194573578E+01  0.45045681940E+02  0.00000000000E+00 0.  1.
         11    1    3    3    0    0  0.11173398826E+02  0.59648969301E+01 -0.15666902832E+01  0.12762419654E+02  0.51100000000E-03 0. -1.
        -11    1    3    3    0    0  0.11940915427E+02  0.17533010137E+01 -0.14210927656E+01  0.12152326139E+02  0.51100000000E-03 0.  1.
        -12    1    3    3    0    0  0.16237179803E+02  0.12170868980E+02 -0.62316743091E+01  0.21227572267E+02  0.00000000000E+00 0.  1.
</event>
<event>
 7    1  0.2001181E-008  0.4614232E+02  0.7816164E-02  0.1320468E+00
        -11   -1    0    0    0    0  0.00000000000E+00  0.00000000000E+00  0.45593999997E+02  0.45594000000E+02  0.51100000000E-03 0. -1.
         11   -1    0    0    0    0 -0.00000000000E+00 -0.00000000000E+00 -0.45593999997E+02  0.45594000000E+02  0.51100000000E-03 0.  1.
    9900012    2    1    2    0    0 -0.15403327189E+02  0.28200323107E+02  0.31568858007E+02  0.46142317546E+02  0.99999980418E+01 0.  0.
        -12    1    1    2    0    0  0.15403327189E+02 -0.28200323107E+02 -0.31568858007E+02  0.45045682454E+02  0.00000000000E+00 0.  1.
         11    1    3    3    0    0 -0.13812168660E+02  0.22278759286E+02  0.20242930360E+02  0.33119410445E+02  0.51100000000E-03 0. -1.
        -11    1    3    3    0    0 -0.13686180299E+01  0.21999795728E+01  0.35036602597E+01  0.43575980665E+01  0.51100000000E-03 0.  1.
        -12    1    3    3    0    0 -0.22254049958E+00  0.37215842485E+01  0.78222673870E+01  0.86653090347E+01  0.00000000000E+00 0.  1.
</event>
<event>
 7    1  0.2001181E-008  0.4614232E+02  0.7816164E-02  0.1320468E+00
        -11   -1    0    0    0    0  0.00000000000E+00  0.00000000000E+00  0.45593999997E+02  0.45594000000E+02  0.51100000000E-03 0.  1.
         11   -1    0    0    0    0 -0.00000000000E+00 -0.00000000000E+00 -0.45593999997E+02  0.45594000000E+02  0.51100000000E-03 0. -1.
    9900012    2    1    2    0    0 -0.30145310396E+02 -0.32954323397E+02 -0.58639712111E+01  0.46142319543E+02  0.10000016252E+02 0.  0.
        -12    1    1    2    0    0  0.30145310396E+02  0.32954323397E+02  0.58639712111E+01  0.45045680457E+02  0.00000000000E+00 0.  1.
         11    1    3    3    0    0 -0.19585299319E+02 -0.19574776162E+02 -0.73699068568E+01  0.28654342403E+02  0.51100000000E-03 0. -1.
        -11    1    3    3    0    0 -0.25156197655E+01 -0.16138856914E+01 -0.68883106719E+00  0.30671580217E+01  0.51100000000E-03 0.  1.
         12    1    3    3    0    0 -0.80443913116E+01 -0.11765661544E+02  0.21947667129E+01  0.14420819119E+02  0.00000000000E+00 0. -1.
</event>
<event>
 7    1  0.2001181E-008  0.4614232E+02  0.7816164E-02  0.1320468E+00
        -11   -1    0    0    0    0  0.00000000000E+00  0.00000000000E+00  0.45593999997E+02  0.45594000000E+02  0.51100000000E-03 0. -1.
         11   -1    0    0    0    0 -0.00000000000E+00 -0.00000000000E+00 -0.45593999997E+02  0.45594000000E+02  0.51100000000E-03 0.  1.
    9900012    2    1    2    0    0  0.78775915034E+01 -0.34544300687E+02  0.27816330946E+02  0.46142318463E+02  0.10000006403E+02 0.  0.
        -12    1    1    2    0    0 -0.78775915034E+01  0.34544300687E+02 -0.27816330946E+02  0.45045681537E+02  0.00000000000E+00 0.  1.
         11    1    3    3    0    0  0.56047854489E+01 -0.16702268341E+02  0.14141471830E+02  0.22591162286E+02  0.51100000000E-03 0. -1.
        -11    1    3    3    0    0 -0.91279950254E-01 -0.11404689621E+02  0.11867159698E+02  0.16459184577E+02  0.51100000000E-03 0.  1.
         12    1    3    3    0    0  0.23640860048E+01 -0.64373427250E+01  0.18076994184E+01  0.70919716006E+01  0.00000000000E+00 0. -1.
</event>
<event>
 7    1  0.2001181E-008  0.4614232E+02  0.7816164E-02  0.1320468E+00
        -11   -1    0    0    0    0  0.00000000000E+00  0.00000000000E+00  0.45593999997E+02  0.45594000000E+02  0.51100000000E-03 0.  1.
         11   -1    0    0    0    0 -0.00000000000E+00 -0.00000000000E+00 -0.45593999997E+02  0.45594000000E+02  0.51100000000E-03 0. -1.
    9900012    2    1    2    0    0 -0.41699597285E+02  0.52715021215E+01 -0.16200874606E+02  0.46142317783E+02  0.10000000202E+02 0.  0.
        -12    1    1    2    0    0  0.41699597285E+02 -0.52715021215E+01  0.16200874606E+02  0.45045682217E+02  0.00000000000E+00 0.  1.
         11    1    3    3    0    0 -0.11957745801E+02  0.44005679492E+00 -0.75398951523E+01  0.14143244104E+02  0.51100000000E-03 0. -1.
        -11    1    3    3    0    0 -0.17132491244E+01 -0.10713620435E+01 -0.13731145593E+01  0.24430479006E+01  0.51100000000E-03 0.  1.
         12    1    3    3    0    0 -0.28028602360E+02  0.59028073701E+01 -0.72878648948E+01  0.29556025779E+02  0.00000000000E+00 0. -1.
</event>
<event>
 7    1  0.2001181E-008  0.4614232E+02  0.7816164E-02  0.1320468E+00
        -11   -1    0    0    0    0  0.00000000000E+00  0.00000000000E+00  0.45593999997E+02  0.45594000000E+02  0.51100000000E-03 0.  1.
         11   -1    0    0    0    0 -0.00000000000E+00 -0.00000000000E+00 -0.45593999997E+02  0.45594000000E+02  0.51100000000E-03 0. -1.
    9900012    2    1    2    0    0  0.27883559074E+02 -0.11598632721E+02 -0.33422929504E+02  0.46142319139E+02  0.10000012564E+02 0.  0.
        -12    1    1    2    0    0 -0.27883559074E+02  0.11598632721E+02  0.33422929504E+02  0.45045680861E+02  0.00000000000E+00 0.  1.
         11    1    3    3    0    0  0.18638096705E+02 -0.95520784768E+01 -0.20848946706E+02  0.29551640074E+02  0.51100000000E-03 0. -1.
        -11    1    3    3    0    0  0.93229217267E+01 -0.29766495489E+01 -0.12038714308E+02  0.15514765693E+02  0.51100000000E-03 0.  1.
        -12    1    3    3    0    0 -0.77459358093E-01  0.93009530502E+00 -0.53526848971E+00  0.10759133723E+01  0.00000000000E+00 0.  1.
</event>
<event>
 7    1  0.2001181E-008  0.4614232E+02  0.7816164E-02  0.1320468E+00
        -11   -1    0    0    0    0  0.00000000000E+00  0.00000000000E+00  0.45593999997E+02  0.45594000000E+02  0.51100000000E-03 0.  1.
         11   -1    0    0    0    0 -0.00000000000E+00 -0.00000000000E+00 -0.45593999997E+02  0.45594000000E+02  0.51100000000E-03 0. -1.
    9900012    2    1    2    0    0  0.12227302955E+02 -0.36976810916E+02 -0.22634530985E+02  0.46142317898E+02  0.10000001252E+02 0.  0.
        -12    1    1    2    0    0 -0.12227302955E+02  0.36976810916E+02  0.22634530985E+02  0.45045682102E+02  0.00000000000E+00 0.  1.
         11    1    3    3    0    0  0.87740942990E+01 -0.17553114371E+02 -0.78746586587E+01  0.21144900192E+02  0.51100000000E-03 0. -1.
        -11    1    3    3    0    0  0.13164348407E+01 -0.11022855798E+02 -0.57779418255E+01  0.12514829709E+02  0.51100000000E-03 0.  1.
        -12    1    3    3    0    0  0.21367738149E+01 -0.84008407475E+01 -0.89819305006E+01  0.12482587998E+02  0.00000000000E+00 0.  1.
</event>
<event>
 7    1  0.2001181E-008  0.4614232E+02  0.7816164E-02  0.1320468E+00
        -11   -1    0    0    0    0  0.00000000000E+00  0.00000000000E+00  0.45593999997E+02  0.45594000000E+02  0.51100000000E-03 0.  1.
         11   -1    0    0    0    0 -0.00000000000E+00 -0.00000000000E+00 -0.45593999997E+02  0.45594000000E+02  0.51100000000E-03 0. -1.
    9900012    2    1    2    0    0 -0.23330518498E+02 -0.35815048878E+02  0.14215580691E+02  0.46142317034E+02  0.99999933715E+01 0.  0.
        -12    1    1    2    0    0  0.23330518498E+02  0.35815048878E+02 -0.14215580691E+02  0.45045682966E+02  0.00000000000E+00 0.  1.
         11    1    3    3    0    0 -0.66599559395E+01 -0.68891132175E+01  0.29159400121E+00  0.95864446675E+01  0.51100000000E-03 0. -1.
        -11    1    3    3    0    0 -0.10874737098E+02 -0.20863673278E+02  0.12112933388E+02  0.26462727092E+02  0.51100000000E-03 0.  1.
        -12    1    3    3    0    0 -0.57958254601E+01 -0.80622623823E+01  0.18110533016E+01  0.10093145275E+02  0.00000000000E+00 0.  1.
</event>
<event>
 7    1  0.2001181E-008  0.4614232E+02  0.7816164E-02  0.1320468E+00
        -11   -1    0    0    0    0  0.00000000000E+00  0.00000000000E+00  0.45593999997E+02  0.45594000000E+02  0.51100000000E-03 0. -1.
         11   -1    0    0    0    0 -0.00000000000E+00 -0.00000000000E+00 -0.45593999997E+02  0.45594000000E+02  0.51100000000E-03 0.  1.
    9900012    2    1    2    0    0  0.21124949356E+02 -0.32695292424E+02  0.22668654343E+02  0.46142317391E+02  0.99999966234E+01 0.  0.
        -12    1    1    2    0    0 -0.21124949356E+02  0.32695292424E+02 -0.22668654343E+02  0.45045682609E+02  0.00000000000E+00 0.  1.
         11    1    3    3    0    0  0.73435662675E+01 -0.66437698346E+01  0.38834127383E+01  0.10637130153E+02  0.51100000000E-03 0. -1.
        -11    1    3    3    0    0  0.28165252433E+01 -0.11786268891E+02  0.81660047458E+01  0.14612754107E+02  0.51100000000E-03 0.  1.
         12    1    3    3    0    0  0.10964857846E+02 -0.14265253698E+02  0.10619236859E+02  0.20892433130E+02  0.00000000000E+00 0. -1.
</event>
<event>
 7    1  0.2001181E-008  0.4614232E+02  0.7816164E-02  0.1320468E+00
        -11   -1    0    0    0    0  0.00000000000E+00  0.00000000000E+00  0.45593999997E+02  0.45594000000E+02  0.51100000000E-03 0. -1.
         11   -1    0    0    0    0 -0.00000000000E+00 -0.00000000000E+00 -0.45593999997E+02  0.45594000000E+02  0.51100000000E-03 0.  1.
    9900012    2    1    2    0    0  0.14670395543E+02  0.37727426671E+02  0.19761939771E+02  0.46142317719E+02  0.99999996149E+01 0.  0.
        -12    1    1    2    0    0 -0.14670395543E+02 -0.37727426671E+02 -0.19761939771E+02  0.45045682281E+02  0.00000000000E+00 0.  1.
         11    1    3    3    0    0 -0.86029275979E+00  0.37723146546E+01  0.14150586266E+01  0.41198122122E+01  0.51100000000E-03 0. -1.
        -11    1    3    3    0    0  0.64304321229E+01  0.90759981060E+01  0.35335936683E+01  0.11670924701E+02  0.51100000000E-03 0.  1.
         12    1    3    3    0    0  0.91002561803E+01  0.24879113911E+02  0.14813287476E+02  0.30351580806E+02  0.00000000000E+00 0. -1.
</event>
<event>
 7    1  0.2001181E-008  0.4614232E+02  0.7816164E-02  0.1320468E+00
        -11   -1    0    0    0    0  0.00000000000E+00  0.00000000000E+00  0.45593999997E+02  0.45594000000E+02  0.51100000000E-03 0. -1.
         11   -1    0    0    0    0 -0.00000000000E+00 -0.00000000000E+00 -0.45593999997E+02  0.45594000000E+02  0.51100000000E-03 0.  1.
    9900012    2    1    2    0    0  0.24413722488E+01  0.37408984134E+02  0.24974408737E+02  0.46142317808E+02  0.10000000425E+02 0.  0.
        -12    1    1    2    0    0 -0.24413722488E+01 -0.37408984134E+02 -0.24974408737E+02  0.45045682192E+02  0.00000000000E+00 0.  1.
         11    1    3    3    0    0  0.18216373800E+01  0.85774409152E+01  0.75792728534E+01  0.11590350842E+02  0.51100000000E-03 0. -1.
        -11    1    3    3    0    0  0.41674971020E+01  0.14475961341E+02  0.85597251065E+01  0.17326003088E+02  0.51100000000E-03 0.  1.
         12    1    3    3    0    0 -0.35477622331E+01  0.14355581878E+02  0.88354107773E+01  0.17225963878E+02  0.00000000000E+00 0. -1.
</event>
<event>
 7    1  0.2001181E-008  0.4614233E+02  0.7816164E-02  0.1320468E+00
        -11   -1    0    0    0    0  0.00000000000E+00  0.00000000000E+00  0.45593999997E+02  0.45594000000E+02  0.51100000000E-03 0. -1.
         11   -1    0    0    0    0 -0.00000000000E+00 -0.00000000000E+00 -0.45593999997E+02  0.45594000000E+02  0.51100000000E-03 0.  1.
    9900012    2    1    2    0    0  0.23784113119E+02  0.27512583830E+02  0.26579812648E+02  0.46142325998E+02  0.10000075112E+02 0.  0.
        -12    1    1    2    0    0 -0.23784113119E+02 -0.27512583830E+02 -0.26579812648E+02  0.45045674002E+02  0.00000000000E+00 0.  1.
         11    1    3    3    0    0  0.10718525097E+01  0.42646120467E+01  0.11671670382E+01  0.45495123769E+01  0.51100000000E-03 0. -1.
        -11    1    3    3    0    0  0.12264686346E+02  0.88985514835E+01  0.12495169629E+02  0.19640163288E+02  0.51100000000E-03 0.  1.
         12    1    3    3    0    0  0.10447574263E+02  0.14349420300E+02  0.12917475981E+02  0.21952650333E+02  0.00000000000E+00 0. -1.
</event>
<event>
 7    1  0.2001181E-008  0.4614232E+02  0.7816164E-02  0.1320468E+00
        -11   -1    0    0    0    0  0.00000000000E+00  0.00000000000E+00  0.45593999997E+02  0.45594000000E+02  0.51100000000E-03 0.  1.
         11   -1    0    0    0    0 -0.00000000000E+00 -0.00000000000E+00 -0.45593999997E+02  0.45594000000E+02  0.51100000000E-03 0. -1.
    9900012    2    1    2    0    0  0.28151228525E+02  0.62031017851E+01 -0.34614207646E+02  0.46142317519E+02  0.99999977932E+01 0.  0.
        -12    1    1    2    0    0 -0.28151228525E+02 -0.62031017851E+01  0.34614207646E+02  0.45045682481E+02  0.00000000000E+00 0.  1.
         11    1    3    3    0    0  0.68748522215E+00  0.11303617514E+01 -0.65625035262E+00  0.14768271416E+01  0.51100000000E-03 0. -1.
        -11    1    3    3    0    0  0.10357975096E+02  0.54059715141E+01 -0.11119710548E+02  0.16129480433E+02  0.51100000000E-03 0.  1.
        -12    1    3    3    0    0  0.17105768207E+02 -0.33323148045E+00 -0.22838246745E+02  0.28536009945E+02  0.00000000000E+00 0.  1.
</event>
<event>
 7    1  0.2001181E-008  0.4614232E+02  0.7816164E-02  0.1320468E+00
        -11   -1    0    0    0    0  0.00000000000E+00  0.00000000000E+00  0.45593999997E+02  0.45594000000E+02  0.51100000000E-03 0.  1.
         11   -1    0    0    0    0 -0.00000000000E+00 -0.00000000000E+00 -0.45593999997E+02  0.45594000000E+02  0.51100000000E-03 0. -1.
    9900012    2    1    2    0    0  0.12604048012E+02 -0.39950103072E+02 -0.16560214396E+02  0.46142318048E+02  0.10000002612E+02 0.  0.
        -12    1    1    2    0    0 -0.12604048012E+02  0.39950103072E+02  0.16560214396E+02  0.45045681952E+02  0.00000000000E+00 0.  1.
         11    1    3    3    0    0  0.86452577187E+01 -0.31656451953E+02 -0.16697414783E+02  0.36819493370E+02  0.51100000000E-03 0. -1.
        -11    1    3    3    0    0  0.12744175125E+01 -0.44611965091E+01 -0.51938992527E-01  0.46399474360E+01  0.51100000000E-03 0.  1.
        -12    1    3    3    0    0  0.26843727807E+01 -0.38324546089E+01  0.18913937973E+00  0.46828772416E+01  0.00000000000E+00 0.  1.
</event>
<event>
 7    1  0.2001181E-008  0.4614232E+02  0.7816164E-02  0.1320468E+00
        -11   -1    0    0    0    0  0.00000000000E+00  0.00000000000E+00  0.45593999997E+02  0.45594000000E+02  0.51100000000E-03 0. -1.
         11   -1    0    0    0    0 -0.00000000000E+00 -0.00000000000E+00 -0.45593999997E+02  0.45594000000E+02  0.51100000000E-03 0.  1.
    9900012    2    1    2    0    0 -0.22106089948E+02  0.26517979899E+02  0.28934946546E+02  0.46142316496E+02  0.99999884672E+01 0.  0.
        -12    1    1    2    0    0  0.22106089948E+02 -0.26517979899E+02 -0.28934946546E+02  0.45045683504E+02  0.00000000000E+00 0.  1.
         11    1    3    3    0    0 -0.29021853170E+01  0.65471427955E+01  0.75450479206E+01  0.10402668253E+02  0.51100000000E-03 0. -1.
        -11    1    3    3    0    0 -0.16278446425E+02  0.19832249938E+02  0.18556495790E+02  0.31664641035E+02  0.51100000000E-03 0.  1.
        -12    1    3    3    0    0 -0.29254582065E+01  0.13858716485E+00  0.28334028354E+01  0.40750072083E+01  0.00000000000E+00 0.  1.
</event>
<event>
 7    1  0.2001181E-008  0.4614232E+02  0.7816164E-02  0.1320468E+00
        -11   -1    0    0    0    0  0.00000000000E+00  0.00000000000E+00  0.45593999997E+02  0.45594000000E+02  0.51100000000E-03 0.  1.
         11   -1    0    0    0    0 -0.00000000000E+00 -0.00000000000E+00 -0.45593999997E+02  0.45594000000E+02  0.51100000000E-03 0. -1.
    9900012    2    1    2    0    0  0.32315257250E+02 -0.19997295291E+02 -0.24185654306E+02  0.46142317140E+02  0.99999943402E+01 0.  0.
        -12    1    1    2    0    0 -0.32315257250E+02  0.19997295291E+02  0.24185654306E+02  0.45045682860E+02  0.00000000000E+00 0.  1.
         11    1    3    3    0    0  0.28282965808E+02 -0.16252539678E+02 -0.16598906240E+02  0.36600476629E+02  0.51100000000E-03 0. -1.
        -11    1    3    3    0    0  0.12064634655E+01 -0.19293634300E+01 -0.20327345080E+01  0.30512304370E+01  0.51100000000E-03 0.  1.
         12    1    3    3    0    0  0.28258279769E+01 -0.18153921827E+01 -0.55540135582E+01  0.64906100743E+01  0.00000000000E+00 0. -1.
</event>
<event>
 7    1  0.2001181E-008  0.4614231E+02  0.7816164E-02  0.1320468E+00
        -11   -1    0    0    0    0  0.00000000000E+00  0.00000000000E+00  0.45593999997E+02  0.45594000000E+02  0.51100000000E-03 0.  1.
         11   -1    0    0    0    0 -0.00000000000E+00 -0.00000000000E+00 -0.45593999997E+02  0.45594000000E+02  0.51100000000E-03 0. -1.
    9900012    2    1    2    0    0  0.32493158640E+02 -0.16131370314E+02 -0.26703704448E+02  0.46142308776E+02  0.99999180637E+01 0.  0.
        -12    1    1    2    0    0 -0.32493158640E+02  0.16131370314E+02  0.26703704448E+02  0.45045691224E+02  0.00000000000E+00 0.  1.
         11    1    3    3    0    0  0.19182221005E+02 -0.78980112552E+01 -0.18065431475E+02  0.27508107880E+02  0.51100000000E-03 0. -1.
        -11    1    3    3    0    0  0.43630958154E+01 -0.43713317428E+01 -0.58269708180E+01  0.84910974246E+01  0.51100000000E-03 0.  1.
         12    1    3    3    0    0  0.89478418202E+01 -0.38620273163E+01 -0.28113021544E+01  0.10143103472E+02  0.00000000000E+00 0. -1.
</event>
<event>
 7    1  0.2001181E-008  0.4614232E+02  0.7816164E-02  0.1320468E+00
        -11   -1    0    0    0    0  0.00000000000E+00  0.00000000000E+00  0.45593999997E+02  0.45594000000E+02  0.51100000000E-03 0. -1.
         11   -1    0    0    0    0 -0.00000000000E+00 -0.00000000000E+00 -0.45593999997E+02  0.45594000000E+02  0.51100000000E-03 0.  1.
    9900012    2    1    2    0    0  0.38584855867E+02  0.22059510573E+02  0.73280603687E+01  0.46142316769E+02  0.99999909528E+01 0.  0.
        -12    1    1    2    0    0 -0.38584855867E+02 -0.22059510573E+02 -0.73280603687E+01  0.45045683231E+02  0.00000000000E+00 0.  1.
         11    1    3    3    0    0  0.53734297554E+01  0.33789382733E+01  0.46693196095E+01  0.78799439762E+01  0.51100000000E-03 0. -1.
        -11    1    3    3    0    0  0.30398109736E+01  0.10034630888E+01  0.20104865505E+00  0.32074615740E+01  0.51100000000E-03 0.  1.
         12    1    3    3    0    0  0.30171615138E+02  0.17677109211E+02  0.24576921042E+01  0.35054911219E+02  0.00000000000E+00 0. -1.
</event>
<event>
 7    1  0.2001181E-008  0.4614232E+02  0.7816164E-02  0.1320468E+00
        -11   -1    0    0    0    0  0.00000000000E+00  0.00000000000E+00  0.45593999997E+02  0.45594000000E+02  0.51100000000E-03 0. -1.
         11   -1    0    0    0    0 -0.00000000000E+00 -0.00000000000E+00 -0.45593999997E+02  0.45594000000E+02  0.51100000000E-03 0.  1.
    9900012    2    1    2    0    0 -0.25658513670E+02  0.16181541940E+01  0.36988316580E+02  0.46142319739E+02  0.10000018039E+02 0.  0.
        -12    1    1    2    0    0  0.25658513670E+02 -0.16181541940E+01 -0.36988316580E+02  0.45045680261E+02  0.00000000000E+00 0.  1.
         11    1    3    3    0    0 -0.35598314405E+01 -0.26827140068E+00  0.76195066702E+01  0.84143479597E+01  0.51100000000E-03 0. -1.
        -11    1    3    3    0    0 -0.71604388874E+00  0.38919728410E+00  0.58508122648E+01  0.59073003813E+01  0.51100000000E-03 0.  1.
        -12    1    3    3    0    0 -0.21382638340E+02  0.14972283106E+01  0.23517997645E+02  0.31820671398E+02  0.00000000000E+00 0.  1.
</event>
<event>
 7    1  0.2001181E-008  0.4614232E+02  0.7816164E-02  0.1320468E+00
        -11   -1    0    0    0    0  0.00000000000E+00  0.00000000000E+00  0.45593999997E+02  0.45594000000E+02  0.51100000000E-03 0. -1.
         11   -1    0    0    0    0 -0.00000000000E+00 -0.00000000000E+00 -0.45593999997E+02  0.45594000000E+02  0.51100000000E-03 0.  1.
    9900012    2    1    2    0    0  0.40813746985E+02 -0.16950679866E+02 -0.87192891250E+01  0.46142317702E+02  0.99999994621E+01 0.  0.
        -12    1    1    2    0    0 -0.40813746985E+02  0.16950679866E+02  0.87192891250E+01  0.45045682298E+02  0.00000000000E+00 0.  1.
         11    1    3    3    0    0  0.14881651901E+02 -0.10019083469E+02 -0.41858894149E+01  0.18421923551E+02  0.51100000000E-03 0. -1.
        -11    1    3    3    0    0  0.39974329793E+01  0.79558094248E+00 -0.10094888081E+01  0.41989864700E+01  0.51100000000E-03 0.  1.
         12    1    3    3    0    0  0.21934662104E+02 -0.77271773394E+01 -0.35239109021E+01  0.23521407681E+02  0.00000000000E+00 0. -1.
</event>
<event>
 7    1  0.2001181E-008  0.4614232E+02  0.7816164E-02  0.1320468E+00
        -11   -1    0    0    0    0  0.00000000000E+00  0.00000000000E+00  0.45593999997E+02  0.45594000000E+02  0.51100000000E-03 0.  1.
         11   -1    0    0    0    0 -0.00000000000E+00 -0.00000000000E+00 -0.45593999997E+02  0.45594000000E+02  0.51100000000E-03 0. -1.
    9900012    2    1    2    0    0  0.19516861891E+02  0.37515031720E+02 -0.15518632934E+02  0.46142317952E+02  0.10000001738E+02 0.  0.
        -12    1    1    2    0    0 -0.19516861891E+02 -0.37515031720E+02  0.15518632934E+02  0.45045682048E+02  0.00000000000E+00 0.  1.
         11    1    3    3    0    0  0.10917220312E+01  0.40426247654E+01 -0.13273696321E+01  0.43927875419E+01  0.51100000000E-03 0. -1.
        -11    1    3    3    0    0  0.65138858098E+01  0.51705719022E+01 -0.11779226855E+01  0.83995847667E+01  0.51100000000E-03 0.  1.
         12    1    3    3    0    0  0.11911254050E+02  0.28301835052E+02 -0.13013340617E+02  0.33349945643E+02  0.00000000000E+00 0. -1.
</event>
<event>
 7    1  0.2001181E-008  0.4614232E+02  0.7816164E-02  0.1320468E+00
        -11   -1    0    0    0    0  0.00000000000E+00  0.00000000000E+00  0.45593999997E+02  0.45594000000E+02  0.51100000000E-03 0.  1.
         11   -1    0    0    0    0 -0.00000000000E+00 -0.00000000000E+00 -0.45593999997E+02  0.45594000000E+02  0.51100000000E-03 0. -1.
    9900012    2    1    2    0    0 -0.13407630773E+02  0.21534086069E+02 -0.37224078887E+02  0.46142317912E+02  0.10000001380E+02 0.  0.
        -12    1    1    2    0    0  0.13407630773E+02 -0.21534086069E+02  0.37224078887E+02  0.45045682088E+02  0.00000000000E+00 0.  1.
         11    1    3    3    0    0 -0.82194670983E+01  0.17008527200E+02 -0.27875014717E+02  0.33672928038E+02  0.51100000000E-03 0. -1.
        -11    1    3    3    0    0 -0.19716744818E+01  0.40567196783E+01 -0.32539615540E+01  0.55617210346E+01  0.51100000000E-03 0.  1.
         12    1    3    3    0    0 -0.32164891926E+01  0.46883919122E+00 -0.60951026151E+01  0.69076688399E+01  0.00000000000E+00 0. -1.
</event>
<event>
 7    1  0.2001181E-008  0.4614232E+02  0.7816164E-02  0.1320468E+00
        -11   -1    0    0    0    0  0.00000000000E+00  0.00000000000E+00  0.45593999997E+02  0.45594000000E+02  0.51100000000E-03 0. -1.
         11   -1    0    0    0    0 -0.00000000000E+00 -0.00000000000E+00 -0.45593999997E+02  0.45594000000E+02  0.51100000000E-03 0.  1.
    9900012    2    1    2    0    0  0.26448373444E+02 -0.32976017476E+02  0.15562112145E+02  0.46142317401E+02  0.99999967160E+01 0.  0.
        -12    1    1    2    0    0 -0.26448373444E+02  0.32976017476E+02 -0.15562112145E+02  0.45045682599E+02  0.00000000000E+00 0.  1.
         11    1    3    3    0    0  0.23717878981E+02 -0.29210946608E+02  0.14626085417E+02  0.40370032946E+02  0.51100000000E-03 0. -1.
        -11    1    3    3    0    0  0.93067315961E+00 -0.37817568839E+01  0.58064901703E+00  0.39376377691E+01  0.51100000000E-03 0.  1.
         12    1    3    3    0    0  0.17998213031E+01  0.16686016570E-01  0.35537771097E+00  0.18346466863E+01  0.00000000000E+00 0. -1.
</event>
<event>
 7    1  0.2001181E-008  0.4614231E+02  0.7816164E-02  0.1320468E+00
        -11   -1    0    0    0    0  0.00000000000E+00  0.00000000000E+00  0.45593999997E+02  0.45594000000E+02  0.51100000000E-03 0.  1.
         11   -1    0    0    0    0 -0.00000000000E+00 -0.00000000000E+00 -0.45593999997E+02  0.45594000000E+02  0.51100000000E-03 0. -1.
    9900012    2    1    2    0    0 -0.16749215388E+02  0.11727833454E+02 -0.40137709741E+02  0.46142311673E+02  0.99999444811E+01 0.  0.
        -12    1    1    2    0    0  0.16749215388E+02 -0.11727833454E+02  0.40137709741E+02  0.45045688327E+02  0.00000000000E+00 0.  1.
         11    1    3    3    0    0 -0.38355212389E+01  0.15243835708E+01 -0.16793954269E+02  0.17293694478E+02  0.51100000000E-03 0. -1.
        -11    1    3    3    0    0 -0.11546328627E+01  0.15329433666E+01 -0.10320042715E+01  0.21790193873E+01  0.51100000000E-03 0.  1.
         12    1    3    3    0    0 -0.11759061286E+02  0.86705065162E+01 -0.22311751201E+02  0.26669597808E+02  0.00000000000E+00 0. -1.
</event>
<event>
 7    1  0.2001181E-008  0.4614232E+02  0.7816164E-02  0.1320468E+00
        -11   -1    0    0    0    0  0.00000000000E+00  0.00000000000E+00  0.45593999997E+02  0.45594000000E+02  0.51100000000E-03 0.  1.
         11   -1    0    0    0    0 -0.00000000000E+00 -0.00000000000E+00 -0.45593999997E+02  0.45594000000E+02  0.51100000000E-03 0. -1.
    9900012    2    1    2    0    0 -0.17702549728E+02  0.37713119667E+02 -0.17130496024E+02  0.46142317011E+02  0.99999931603E+01 0.  0.
        -12    1    1    2    0    0  0.17702549728E+02 -0.37713119667E+02  0.17130496024E+02  0.45045682989E+02  0.00000000000E+00 0.  1.
         11    1    3    3    0    0  0.43543456330E+00  0.86192889119E+00 -0.32607313987E+00  0.10192392389E+01  0.51100000000E-03 0. -1.
        -11    1    3    3    0    0 -0.58133639422E+01  0.48607648074E+01 -0.35428168185E+01  0.83650335390E+01  0.51100000000E-03 0.  1.
         12    1    3    3    0    0 -0.12324620349E+02  0.31990425969E+02 -0.13261606065E+02  0.36758044233E+02  0.00000000000E+00 0. -1.
</event>
<event>
 7    1  0.2001181E-008  0.4614232E+02  0.7816164E-02  0.1320468E+00
        -11   -1    0    0    0    0  0.00000000000E+00  0.00000000000E+00  0.45593999997E+02  0.45594000000E+02  0.51100000000E-03 0. -1.
         11   -1    0    0    0    0 -0.00000000000E+00 -0.00000000000E+00 -0.45593999997E+02  0.45594000000E+02  0.51100000000E-03 0.  1.
    9900012    2    1    2    0    0  0.27729270686E+01  0.43805721751E+02  0.10123386473E+02  0.46142319449E+02  0.10000015389E+02 0.  0.
        -12    1    1    2    0    0 -0.27729270686E+01 -0.43805721751E+02 -0.10123386473E+02  0.45045680551E+02  0.00000000000E+00 0.  1.
         11    1    3    3    0    0  0.49297022093E+01  0.25145625611E+02  0.91396060998E+01  0.27205456275E+02  0.51100000000E-03 0. -1.
        -11    1    3    3    0    0 -0.54346904110E+00  0.13038044951E+02  0.35477916069E+00  0.13054188725E+02  0.51100000000E-03 0.  1.
        -12    1    3    3    0    0 -0.16133060997E+01  0.56220511892E+01  0.62900121209E+00  0.58826744487E+01  0.00000000000E+00 0.  1.
</event>
<event>
 7    1  0.2001181E-008  0.4614232E+02  0.7816164E-02  0.1320468E+00
        -11   -1    0    0    0    0  0.00000000000E+00  0.00000000000E+00  0.45593999997E+02  0.45594000000E+02  0.51100000000E-03 0. -1.
         11   -1    0    0    0    0 -0.00000000000E+00 -0.00000000000E+00 -0.45593999997E+02  0.45594000000E+02  0.51100000000E-03 0.  1.
    9900012    2    1    2    0    0  0.11569910317E+02 -0.43006690263E+02  0.67583489366E+01  0.46142317493E+02  0.99999975587E+01 0.  0.
        -12    1    1    2    0    0 -0.11569910317E+02  0.43006690263E+02 -0.67583489366E+01  0.45045682507E+02  0.00000000000E+00 0.  1.
         11    1    3    3    0    0  0.19889861247E+01 -0.91405059059E+01  0.45363345859E+01  0.10396309237E+02  0.51100000000E-03 0. -1.
        -11    1    3    3    0    0  0.14752159679E+01 -0.15450055286E+02  0.17585007337E+01  0.15619628536E+02  0.51100000000E-03 0.  1.
        -12    1    3    3    0    0  0.81057082243E+01 -0.18416129071E+02  0.46351361692E+00  0.20126379721E+02  0.00000000000E+00 0.  1.
</event>
<event>
 7    1  0.2001181E-008  0.4614232E+02  0.7816164E-02  0.1320468E+00
        -11   -1    0    0    0    0  0.00000000000E+00  0.00000000000E+00  0.45593999997E+02  0.45594000000E+02  0.51100000000E-03 0.  1.
         11   -1    0    0    0    0 -0.00000000000E+00 -0.00000000000E+00 -0.45593999997E+02  0.45594000000E+02  0.51100000000E-03 0. -1.
    9900012    2    1    2    0    0 -0.18013867003E+02  0.16646205789E+02 -0.37782508144E+02  0.46142317708E+02  0.99999995117E+01 0.  0.
        -12    1    1    2    0    0  0.18013867003E+02 -0.16646205789E+02  0.37782508144E+02  0.45045682292E+02  0.00000000000E+00 0.  1.
         11    1    3    3    0    0 -0.12471991347E+01  0.48873250799E+01 -0.76957094451E+01  0.92013801270E+01  0.51100000000E-03 0. -1.
        -11    1    3    3    0    0 -0.16708022906E+01 -0.46561474407E+00 -0.11221628822E+01  0.20658236080E+01  0.51100000000E-03 0.  1.
         12    1    3    3    0    0 -0.15095865577E+02  0.12224495453E+02 -0.28964635817E+02  0.34875113973E+02  0.00000000000E+00 0. -1.
</event>
<event>
 7    1  0.2001181E-008  0.4614233E+02  0.7816164E-02  0.1320468E+00
        -11   -1    0    0    0    0  0.00000000000E+00  0.00000000000E+00  0.45593999997E+02  0.45594000000E+02  0.51100000000E-03 0.  1.
         11   -1    0    0    0    0 -0.00000000000E+00 -0.00000000000E+00 -0.45593999997E+02  0.45594000000E+02  0.51100000000E-03 0. -1.
    9900012    2    1    2    0    0 -0.40158533378E+02  0.10749379025E+02 -0.17345174500E+02  0.46142333938E+02  0.10000147516E+02 0.  0.
        -12    1    1    2    0    0  0.40158533378E+02 -0.10749379025E+02  0.17345174500E+02  0.45045666062E+02  0.00000000000E+00 0.  1.
         11    1    3    3    0    0 -0.31523540276E+00 -0.72483291595E-01 -0.97318390714E+00  0.10255312599E+01  0.51100000000E-03 0. -1.
        -11    1    3    3    0    0 -0.11995974310E+02  0.23084826240E+01 -0.87186851211E+01  0.15008263130E+02  0.51100000000E-03 0.  1.
         12    1    3    3    0    0 -0.27847323665E+02  0.85133796927E+01 -0.76533054717E+01  0.30108539549E+02  0.00000000000E+00 0. -1.
</event>
<event>
 7    1  0.2001181E-008  0.4614232E+02  0.7816164E-02  0.1320468E+00
        -11   -1    0    0    0    0  0.00000000000E+00  0.00000000000E+00  0.45593999997E+02  0.45594000000E+02  0.51100000000E-03 0.  1.
         11   -1    0    0    0    0 -0.00000000000E+00 -0.00000000000E+00 -0.45593999997E+02  0.45594000000E+02  0.51100000000E-03 0. -1.
    9900012    2    1    2    0    0 -0.14860744489E+02 -0.29295921892E+02 -0.30822405697E+02  0.46142318085E+02  0.10000002950E+02 0.  0.
        -12    1    1    2    0    0  0.14860744489E+02  0.29295921892E+02  0.30822405697E+02  0.45045681915E+02  0.00000000000E+00 0.  1.
         11    1    3    3    0    0 -0.48171776621E+01 -0.12576866719E+02 -0.85742898272E+01  0.15965626308E+02  0.51100000000E-03 0. -1.
        -11    1    3    3    0    0 -0.22271740337E+01 -0.35650460896E+01 -0.90156533573E+01  0.99474551277E+01  0.51100000000E-03 0.  1.
        -12    1    3    3    0    0 -0.78163927929E+01 -0.13154009084E+02 -0.13232462512E+02  0.20229236649E+02  0.00000000000E+00 0.  1.
</event>
<event>
 7    1  0.2001181E-008  0.4614232E+02  0.7816164E-02  0.1320468E+00
        -11   -1    0    0    0    0  0.00000000000E+00  0.00000000000E+00  0.45593999997E+02  0.45594000000E+02  0.51100000000E-03 0. -1.
         11   -1    0    0    0    0 -0.00000000000E+00 -0.00000000000E+00 -0.45593999997E+02  0.45594000000E+02  0.51100000000E-03 0.  1.
    9900012    2    1    2    0    0  0.15271079682E+02  0.18759691700E+02  0.37999757997E+02  0.46142317464E+02  0.99999972889E+01 0.  0.
        -12    1    1    2    0    0 -0.15271079682E+02 -0.18759691700E+02 -0.37999757997E+02  0.45045682536E+02  0.00000000000E+00 0.  1.
         11    1    3    3    0    0  0.21564241653E+01  0.68324881485E+01  0.11016059225E+02  0.13141028140E+02  0.51100000000E-03 0. -1.
        -11    1    3    3    0    0 -0.51905782357E+00  0.56542026446E+00  0.80655200488E-01  0.77176850296E+00  0.51100000000E-03 0.  1.
        -12    1    3    3    0    0  0.13633713340E+02  0.11361783288E+02  0.26903043572E+02  0.32229520821E+02  0.00000000000E+00 0.  1.
</event>
<event>
 7    1  0.2001181E-008  0.4614232E+02  0.7816164E-02  0.1320468E+00
        -11   -1    0    0    0    0  0.00000000000E+00  0.00000000000E+00  0.45593999997E+02  0.45594000000E+02  0.51100000000E-03 0.  1.
         11   -1    0    0    0    0 -0.00000000000E+00 -0.00000000000E+00 -0.45593999997E+02  0.45594000000E+02  0.51100000000E-03 0. -1.
    9900012    2    1    2    0    0  0.20220549905E+02  0.78965962400E+01 -0.39470072349E+02  0.46142317833E+02  0.10000000656E+02 0.  0.
        -12    1    1    2    0    0 -0.20220549905E+02 -0.78965962400E+01  0.39470072349E+02  0.45045682167E+02  0.00000000000E+00 0.  1.
         11    1    3    3    0    0  0.12874867907E+02  0.30031687643E+01 -0.20542323676E+02  0.24428841735E+02  0.51100000000E-03 0. -1.
        -11    1    3    3    0    0  0.57671770200E+01  0.10533674903E+01 -0.72751885403E+01  0.93433549867E+01  0.51100000000E-03 0.  1.
         12    1    3    3    0    0  0.15785049783E+01  0.38400599854E+01 -0.11652560133E+02  0.12370121112E+02  0.00000000000E+00 0. -1.
</event>
<event>
 7    1  0.2001181E-008  0.4614232E+02  0.7816164E-02  0.1320468E+00
        -11   -1    0    0    0    0  0.00000000000E+00  0.00000000000E+00  0.45593999997E+02  0.45594000000E+02  0.51100000000E-03 0. -1.
         11   -1    0    0    0    0 -0.00000000000E+00 -0.00000000000E+00 -0.45593999997E+02  0.45594000000E+02  0.51100000000E-03 0.  1.
    9900012    2    1    2    0    0 -0.37988677661E+02  0.17479934045E+02  0.16745918398E+02  0.46142317548E+02  0.99999980555E+01 0.  0.
        -12    1    1    2    0    0  0.37988677661E+02 -0.17479934045E+02 -0.16745918398E+02  0.45045682452E+02  0.00000000000E+00 0.  1.
         11    1    3    3    0    0 -0.93867246094E+01  0.65598198572E+01  0.23540348403E+01  0.11691164003E+02  0.51100000000E-03 0. -1.
        -11    1    3    3    0    0 -0.16838969333E+02  0.80353196487E+01  0.11766602742E+02  0.22058336075E+02  0.51100000000E-03 0.  1.
         12    1    3    3    0    0 -0.11762983718E+02  0.28847945386E+01  0.26252808154E+01  0.12392817470E+02  0.00000000000E+00 0. -1.
</event>
<event>
 7    1  0.2001181E-008  0.4614232E+02  0.7816164E-02  0.1320468E+00
        -11   -1    0    0    0    0  0.00000000000E+00  0.00000000000E+00  0.45593999997E+02  0.45594000000E+02  0.51100000000E-03 0.  1.
         11   -1    0    0    0    0 -0.00000000000E+00 -0.00000000000E+00 -0.45593999997E+02  0.45594000000E+02  0.51100000000E-03 0. -1.
    9900012    2    1    2    0    0 -0.21623881376E+01  0.44236017995E+02 -0.82226669159E+01  0.46142318057E+02  0.10000002701E+02 0.  0.
        -12    1    1    2    0    0  0.21623881376E+01 -0.44236017995E+02  0.82226669159E+01  0.45045681943E+02  0.00000000000E+00 0.  1.
         11    1    3    3    0    0 -0.44208464193E+00  0.10554795897E+01 -0.11106657990E+01  0.15946958247E+01  0.51100000000E-03 0. -1.
        -11    1    3    3    0    0 -0.15870735786E+01  0.29415951924E+02 -0.97113189532E+00  0.29474737108E+02  0.51100000000E-03 0.  1.
        -12    1    3    3    0    0 -0.13322991701E+00  0.13764586480E+02 -0.61408692216E+01  0.15072885125E+02  0.00000000000E+00 0.  1.
</event>
<event>
 7    1  0.2001181E-008  0.4614232E+02  0.7816164E-02  0.1320468E+00
        -11   -1    0    0    0    0  0.00000000000E+00  0.00000000000E+00  0.45593999997E+02  0.45594000000E+02  0.51100000000E-03 0.  1.
         11   -1    0    0    0    0 -0.00000000000E+00 -0.00000000000E+00 -0.45593999997E+02  0.45594000000E+02  0.51100000000E-03 0. -1.
    9900012    2    1    2    0    0  0.63966495285E+01 -0.39518316110E+02 -0.20651852655E+02  0.46142318171E+02  0.10000003735E+02 0.  0.
        -12    1    1    2    0    0 -0.63966495285E+01  0.39518316110E+02  0.20651852655E+02  0.45045681829E+02  0.00000000000E+00 0.  1.
         11    1    3    3    0    0  0.53071153879E+01 -0.15628298724E+02 -0.60239026255E+01  0.17569763739E+02  0.51100000000E-03 0. -1.
        -11    1    3    3    0    0 -0.11230055311E+01 -0.15388628953E+01 -0.29295153735E+00  0.19274494281E+01  0.51100000000E-03 0.  1.
        -12    1    3    3    0    0  0.22125396718E+01 -0.22351154491E+02 -0.14334998492E+02  0.26645105003E+02  0.00000000000E+00 0.  1.
</event>
<event>
 7    1  0.2001181E-008  0.4614232E+02  0.7816164E-02  0.1320468E+00
        -11   -1    0    0    0    0  0.00000000000E+00  0.00000000000E+00  0.45593999997E+02  0.45594000000E+02  0.51100000000E-03 0. -1.
         11   -1    0    0    0    0 -0.00000000000E+00 -0.00000000000E+00 -0.45593999997E+02  0.45594000000E+02  0.51100000000E-03 0.  1.
    9900012    2    1    2    0    0  0.60371273194E+01  0.21541025494E+02  0.39097965864E+02  0.46142316297E+02  0.99999866460E+01 0.  0.
        -12    1    1    2    0    0 -0.60371273194E+01 -0.21541025494E+02 -0.39097965864E+02  0.45045683703E+02  0.00000000000E+00 0.  1.
         11    1    3    3    0    0 -0.11630880353E+01  0.24204837055E+01  0.28122557291E+01  0.38884826981E+01  0.51100000000E-03 0.  1.
        -11    1    3    3    0    0  0.63037305354E+01  0.12455115689E+02  0.29814388653E+02  0.32920581655E+02  0.51100000000E-03 0. -1.
        -12    1    3    3    0    0  0.89648481922E+00  0.66654260998E+01  0.64713214817E+01  0.93332519436E+01  0.00000000000E+00 0.  1.
</event>
<event>
 7    1  0.2001181E-008  0.4614232E+02  0.7816164E-02  0.1320468E+00
        -11   -1    0    0    0    0  0.00000000000E+00  0.00000000000E+00  0.45593999997E+02  0.45594000000E+02  0.51100000000E-03 0.  1.
         11   -1    0    0    0    0 -0.00000000000E+00 -0.00000000000E+00 -0.45593999997E+02  0.45594000000E+02  0.51100000000E-03 0. -1.
    9900012    2    1    2    0    0  0.78980319306E+00 -0.72768716519E+01 -0.44447011470E+02  0.46142317868E+02  0.10000000975E+02 0.  0.
        -12    1    1    2    0    0 -0.78980319306E+00  0.72768716519E+01  0.44447011470E+02  0.45045682132E+02  0.00000000000E+00 0.  1.
         11    1    3    3    0    0 -0.47687701297E+00 -0.61313529341E+00 -0.48011964722E+00  0.91316028729E+00  0.51100000000E-03 0. -1.
        -11    1    3    3    0    0 -0.31379701638E+01 -0.46941471568E+01 -0.20019727825E+02  0.20800754235E+02  0.51100000000E-03 0.  1.
         12    1    3    3    0    0  0.44046503699E+01 -0.19695892018E+01 -0.23947163997E+02  0.24428403346E+02  0.00000000000E+00 0. -1.
</event>
<event>
 7    1  0.2001181E-008  0.4614232E+02  0.7816164E-02  0.1320468E+00
        -11   -1    0    0    0    0  0.00000000000E+00  0.00000000000E+00  0.45593999997E+02  0.45594000000E+02  0.51100000000E-03 0.  1.
         11   -1    0    0    0    0 -0.00000000000E+00 -0.00000000000E+00 -0.45593999997E+02  0.45594000000E+02  0.51100000000E-03 0. -1.
    9900012    2    1    2    0    0 -0.15658793359E+02  0.40729937403E+02 -0.11179791741E+02  0.46142319256E+02  0.10000013633E+02 0.  0.
        -12    1    1    2    0    0  0.15658793359E+02 -0.40729937403E+02  0.11179791741E+02  0.45045680744E+02  0.00000000000E+00 0.  1.
         11    1    3    3    0    0 -0.97778195633E+00  0.34412028057E+01  0.14108743113E+01  0.38455819960E+01  0.51100000000E-03 0. -1.
        -11    1    3    3    0    0 -0.19030560305E+01  0.90068621731E+01 -0.43793380099E+01  0.10194301846E+02  0.51100000000E-03 0.  1.
         12    1    3    3    0    0 -0.12777955373E+02  0.28281872424E+02 -0.82113280422E+01  0.32102435414E+02  0.00000000000E+00 0. -1.
</event>
<event>
 7    1  0.2001181E-008  0.4614232E+02  0.7816164E-02  0.1320468E+00
        -11   -1    0    0    0    0  0.00000000000E+00  0.00000000000E+00  0.45593999997E+02  0.45594000000E+02  0.51100000000E-03 0.  1.
         11   -1    0    0    0    0 -0.00000000000E+00 -0.00000000000E+00 -0.45593999997E+02  0.45594000000E+02  0.51100000000E-03 0. -1.
    9900012    2    1    2    0    0  0.40048782731E+02  0.82498311571E+00 -0.20604075165E+02  0.46142317535E+02  0.99999979344E+01 0.  0.
        -12    1    1    2    0    0 -0.40048782731E+02 -0.82498311571E+00  0.20604075165E+02  0.45045682465E+02  0.00000000000E+00 0.  1.
         11    1    3    3    0    0  0.76969952293E+01  0.35167556734E+01 -0.43747071415E+01  0.95262463154E+01  0.51100000000E-03 0. -1.
        -11    1    3    3    0    0  0.93731697910E+01  0.13632938671E+01 -0.41483731836E+01  0.10340400497E+02  0.51100000000E-03 0.  1.
         12    1    3    3    0    0  0.22978617711E+02 -0.40550664248E+01 -0.12080994840E+02  0.26275670723E+02  0.00000000000E+00 0. -1.
</event>
<event>
 7    1  0.2001181E-008  0.4614232E+02  0.7816164E-02  0.1320468E+00
        -11   -1    0    0    0    0  0.00000000000E+00  0.00000000000E+00  0.45593999997E+02  0.45594000000E+02  0.51100000000E-03 0. -1.
         11   -1    0    0    0    0 -0.00000000000E+00 -0.00000000000E+00 -0.45593999997E+02  0.45594000000E+02  0.51100000000E-03 0.  1.
    9900012    2    1    2    0    0 -0.29065871242E+02 -0.34225989525E+01  0.34242874045E+02  0.46142317882E+02  0.10000001100E+02 0.  0.
        -12    1    1    2    0    0  0.29065871242E+02  0.34225989525E+01 -0.34242874045E+02  0.45045682118E+02  0.00000000000E+00 0.  1.
         11    1    3    3    0    0  0.19052378001E+00 -0.40666224979E+00  0.25783953418E+00  0.51783683015E+00  0.51100000000E-03 0.  1.
        -11    1    3    3    0    0 -0.21547200338E+02 -0.65036793416E+00  0.29034267628E+02  0.36162045266E+02  0.51100000000E-03 0. -1.
         12    1    3    3    0    0 -0.77091946835E+01 -0.23655687685E+01  0.49507668825E+01  0.94624357854E+01  0.00000000000E+00 0. -1.
</event>
<event>
 7    1  0.2001181E-008  0.4614232E+02  0.7816164E-02  0.1320468E+00
        -11   -1    0    0    0    0  0.00000000000E+00  0.00000000000E+00  0.45593999997E+02  0.45594000000E+02  0.51100000000E-03 0. -1.
         11   -1    0    0    0    0 -0.00000000000E+00 -0.00000000000E+00 -0.45593999997E+02  0.45594000000E+02  0.51100000000E-03 0.  1.
    9900012    2    1    2    0    0 -0.10783797904E+02 -0.16208410396E+02  0.40621553271E+02  0.46142318132E+02  0.10000003382E+02 0.  0.
        -12    1    1    2    0    0  0.10783797904E+02  0.16208410396E+02 -0.40621553271E+02  0.45045681868E+02  0.00000000000E+00 0.  1.
         11    1    3    3    0    0 -0.84383650067E+01 -0.12334954859E+02  0.33859935913E+02  0.37011516798E+02  0.51100000000E-03 0. -1.
        -11    1    3    3    0    0 -0.20275764123E+01  0.11229680392E+00  0.15113974787E+01  0.25314026308E+01  0.51100000000E-03 0.  1.
        -12    1    3    3    0    0 -0.31785648489E+00 -0.39857523407E+01  0.52502198794E+01  0.65993987036E+01  0.00000000000E+00 0.  1.
</event>
<event>
 7    1  0.2001181E-008  0.4614232E+02  0.7816164E-02  0.1320468E+00
        -11   -1    0    0    0    0  0.00000000000E+00  0.00000000000E+00  0.45593999997E+02  0.45594000000E+02  0.51100000000E-03 0.  1.
         11   -1    0    0    0    0 -0.00000000000E+00 -0.00000000000E+00 -0.45593999997E+02  0.45594000000E+02  0.51100000000E-03 0. -1.
    9900012    2    1    2    0    0  0.33948169178E+02 -0.61807755319E+01 -0.28955714378E+02  0.46142316834E+02  0.99999915500E+01 0.  0.
        -12    1    1    2    0    0 -0.33948169178E+02  0.61807755319E+01  0.28955714378E+02  0.45045683166E+02  0.00000000000E+00 0.  1.
         11    1    3    3    0    0  0.85731805914E+01 -0.15395793048E+01 -0.49082692841E+01  0.99980416840E+01  0.51100000000E-03 0. -1.
        -11    1    3    3    0    0  0.16412472154E+02 -0.55847412809E+01 -0.19353728879E+02  0.25983175310E+02  0.51100000000E-03 0.  1.
        -12    1    3    3    0    0  0.89625164324E+01  0.94354505379E+00 -0.46937162150E+01  0.10161099841E+02  0.00000000000E+00 0.  1.
</event>
<event>
 7    1  0.2001181E-008  0.4614231E+02  0.7816164E-02  0.1320468E+00
        -11   -1    0    0    0    0  0.00000000000E+00  0.00000000000E+00  0.45593999997E+02  0.45594000000E+02  0.51100000000E-03 0.  1.
         11   -1    0    0    0    0 -0.00000000000E+00 -0.00000000000E+00 -0.45593999997E+02  0.45594000000E+02  0.51100000000E-03 0. -1.
    9900012    2    1    2    0    0 -0.19907999136E+02  0.23619119054E+02 -0.32786011117E+02  0.46142314974E+02  0.99999745859E+01 0.  0.
        -12    1    1    2    0    0  0.19907999136E+02 -0.23619119054E+02  0.32786011117E+02  0.45045685026E+02  0.00000000000E+00 0.  1.
         11    1    3    3    0    0 -0.33534705397E+01  0.59526738130E+01 -0.64500892864E+01  0.93959428610E+01  0.51100000000E-03 0. -1.
        -11    1    3    3    0    0 -0.17219514843E+02  0.15184118058E+02 -0.24579501351E+02  0.33633629295E+02  0.51100000000E-03 0.  1.
        -12    1    3    3    0    0  0.66498624668E+00  0.24823271827E+01 -0.17564204804E+01  0.31127428185E+01  0.00000000000E+00 0.  1.
</event>
<event>
 7    1  0.2001181E-008  0.4614232E+02  0.7816164E-02  0.1320468E+00
        -11   -1    0    0    0    0  0.00000000000E+00  0.00000000000E+00  0.45593999997E+02  0.45594000000E+02  0.51100000000E-03 0.  1.
         11   -1    0    0    0    0 -0.00000000000E+00 -0.00000000000E+00 -0.45593999997E+02  0.45594000000E+02  0.51100000000E-03 0. -1.
    9900012    2    1    2    0    0 -0.89099929542E+01 -0.23013387689E+02 -0.37684340297E+02  0.46142317732E+02  0.99999997377E+01 0.  0.
        -12    1    1    2    0    0  0.89099929542E+01  0.23013387689E+02  0.37684340297E+02  0.45045682268E+02  0.00000000000E+00 0.  1.
         11    1    3    3    0    0 -0.73782919854E+01 -0.10692731266E+02 -0.16704274159E+02  0.21161438278E+02  0.51100000000E-03 0.  1.
        -11    1    3    3    0    0 -0.20884975579E+01 -0.52061494170E+01 -0.51431153905E+01  0.76103515019E+01  0.51100000000E-03 0. -1.
         12    1    3    3    0    0  0.55679658910E+00 -0.71145070056E+01 -0.15836950748E+02  0.17370527953E+02  0.00000000000E+00 0. -1.
</event>
<event>
 7    1  0.2001181E-008  0.4614232E+02  0.7816164E-02  0.1320468E+00
        -11   -1    0    0    0    0  0.00000000000E+00  0.00000000000E+00  0.45593999997E+02  0.45594000000E+02  0.51100000000E-03 0.  1.
         11   -1    0    0    0    0 -0.00000000000E+00 -0.00000000000E+00 -0.45593999997E+02  0.45594000000E+02  0.51100000000E-03 0. -1.
    9900012    2    1    2    0    0 -0.12107601641E+02 -0.24619501891E+02 -0.35726734024E+02  0.46142318577E+02  0.10000007436E+02 0.  0.
        -12    1    1    2    0    0  0.12107601641E+02  0.24619501891E+02  0.35726734024E+02  0.45045681423E+02  0.00000000000E+00 0.  1.
         11    1    3    3    0    0 -0.59242485845E+00  0.62091473697E-02 -0.28822930168E+01  0.29425531537E+01  0.51100000000E-03 0. -1.
        -11    1    3    3    0    0 -0.61357196169E+00 -0.25224399426E+01 -0.71024531259E+01  0.75620112723E+01  0.51100000000E-03 0.  1.
         12    1    3    3    0    0 -0.10901604820E+02 -0.22103271096E+02 -0.25741987881E+02  0.35637754151E+02  0.00000000000E+00 0. -1.
</event>
<event>
 7    1  0.2001181E-008  0.4614232E+02  0.7816164E-02  0.1320468E+00
        -11   -1    0    0    0    0  0.00000000000E+00  0.00000000000E+00  0.45593999997E+02  0.45594000000E+02  0.51100000000E-03 0.  1.
         11   -1    0    0    0    0 -0.00000000000E+00 -0.00000000000E+00 -0.45593999997E+02  0.45594000000E+02  0.51100000000E-03 0. -1.
    9900012    2    1    2    0    0  0.21107903338E+02 -0.13558601779E+02 -0.37413022993E+02  0.46142317021E+02  0.99999932527E+01 0.  0.
        -12    1    1    2    0    0 -0.21107903338E+02  0.13558601779E+02  0.37413022993E+02  0.45045682979E+02  0.00000000000E+00 0.  1.
         11    1    3    3    0    0  0.25445760159E+01 -0.86773460267E+00 -0.77073916840E+01  0.81628253241E+01  0.51100000000E-03 0. -1.
        -11    1    3    3    0    0  0.42283828543E+00  0.88695919489E+00 -0.15968479253E+01  0.18749433023E+01  0.51100000000E-03 0.  1.
         12    1    3    3    0    0  0.18140489036E+02 -0.13577826371E+02 -0.28108783384E+02  0.36104548395E+02  0.00000000000E+00 0. -1.
</event>
<event>
 7    1  0.2001181E-008  0.4614232E+02  0.7816164E-02  0.1320468E+00
        -11   -1    0    0    0    0  0.00000000000E+00  0.00000000000E+00  0.45593999997E+02  0.45594000000E+02  0.51100000000E-03 0.  1.
         11   -1    0    0    0    0 -0.00000000000E+00 -0.00000000000E+00 -0.45593999997E+02  0.45594000000E+02  0.51100000000E-03 0. -1.
    9900012    2    1    2    0    0  0.34541928352E+02 -0.76018505821E+01 -0.27895887864E+02  0.46142317562E+02  0.99999981875E+01 0.  0.
        -12    1    1    2    0    0 -0.34541928352E+02  0.76018505821E+01  0.27895887864E+02  0.45045682438E+02  0.00000000000E+00 0.  1.
         11    1    3    3    0    0  0.18073569463E+02 -0.20709042176E+01 -0.14923699132E+02  0.23529967137E+02  0.51100000000E-03 0. -1.
        -11    1    3    3    0    0  0.14730537939E+02 -0.64618066869E+01 -0.96756732994E+01  0.18771317154E+02  0.51100000000E-03 0.  1.
        -12    1    3    3    0    0  0.17378209488E+01  0.93086032234E+00 -0.32965154328E+01  0.38410332710E+01  0.00000000000E+00 0.  1.
</event>
<event>
 7    1  0.2001181E-008  0.4614232E+02  0.7816164E-02  0.1320468E+00
        -11   -1    0    0    0    0  0.00000000000E+00  0.00000000000E+00  0.45593999997E+02  0.45594000000E+02  0.51100000000E-03 0.  1.
         11   -1    0    0    0    0 -0.00000000000E+00 -0.00000000000E+00 -0.45593999997E+02  0.45594000000E+02  0.51100000000E-03 0. -1.
    9900012    2    1    2    0    0 -0.40904597206E+02 -0.17655179301E+02 -0.66499434024E+01  0.46142321229E+02  0.10000031619E+02 0.  0.
        -12    1    1    2    0    0  0.40904597206E+02  0.17655179301E+02  0.66499434024E+01  0.45045678771E+02  0.00000000000E+00 0.  1.
         11    1    3    3    0    0 -0.10215568473E+01 -0.52804948271E+00 -0.94535030307E+00  0.14886578200E+01  0.51100000000E-03 0. -1.
        -11    1    3    3    0    0 -0.27786268653E+01 -0.40692318504E+01 -0.11127880229E+01  0.50515059689E+01  0.51100000000E-03 0.  1.
         12    1    3    3    0    0 -0.37104413493E+02 -0.13057897968E+02 -0.45918050765E+01  0.39602157440E+02  0.00000000000E+00 0. -1.
</event>
<event>
 7    1  0.2001181E-008  0.4614232E+02  0.7816164E-02  0.1320468E+00
        -11   -1    0    0    0    0  0.00000000000E+00  0.00000000000E+00  0.45593999997E+02  0.45594000000E+02  0.51100000000E-03 0.  1.
         11   -1    0    0    0    0 -0.00000000000E+00 -0.00000000000E+00 -0.45593999997E+02  0.45594000000E+02  0.51100000000E-03 0. -1.
    9900012    2    1    2    0    0 -0.50517527894E+01 -0.41877290659E+02 -0.15807777348E+02  0.46142317589E+02  0.99999984294E+01 0.  0.
        -12    1    1    2    0    0  0.50517527894E+01  0.41877290659E+02  0.15807777348E+02  0.45045682411E+02  0.00000000000E+00 0.  1.
         11    1    3    3    0    0  0.31399729680E+00 -0.11364479572E+02 -0.45335760924E+01  0.12239415946E+02  0.51100000000E-03 0. -1.
        -11    1    3    3    0    0  0.13689664105E+01 -0.14693021923E+02 -0.45655286150E+01  0.15446780055E+02  0.51100000000E-03 0.  1.
         12    1    3    3    0    0 -0.67347164967E+01 -0.15819789164E+02 -0.67086726408E+01  0.18456121589E+02  0.00000000000E+00 0. -1.
</event>
<event>
 7    1  0.2001181E-008  0.4614232E+02  0.7816164E-02  0.1320468E+00
        -11   -1    0    0    0    0  0.00000000000E+00  0.00000000000E+00  0.45593999997E+02  0.45594000000E+02  0.51100000000E-03 0.  1.
         11   -1    0    0    0    0 -0.00000000000E+00 -0.00000000000E+00 -0.45593999997E+02  0.45594000000E+02  0.51100000000E-03 0. -1.
    9900012    2    1    2    0    0 -0.10752004108E+02  0.40285008617E+02 -0.17047755286E+02  0.46142317943E+02  0.10000001663E+02 0.  0.
        -12    1    1    2    0    0  0.10752004108E+02 -0.40285008617E+02  0.17047755286E+02  0.45045682057E+02  0.00000000000E+00 0.  1.
         11    1    3    3    0    0 -0.37599013205E-01  0.86639625713E+01 -0.61224936630E+01  0.10608986287E+02  0.51100000000E-03 0.  1.
        -11    1    3    3    0    0 -0.40547389794E+01  0.17217362281E+02 -0.35798678021E+01  0.18046992155E+02  0.51100000000E-03 0. -1.
         12    1    3    3    0    0 -0.66596661153E+01  0.14403683765E+02 -0.73453938213E+01  0.17486339502E+02  0.00000000000E+00 0. -1.
</event>
<event>
 7    1  0.2001181E-008  0.4614232E+02  0.7816164E-02  0.1320468E+00
        -11   -1    0    0    0    0  0.00000000000E+00  0.00000000000E+00  0.45593999997E+02  0.45594000000E+02  0.51100000000E-03 0.  1.
         11   -1    0    0    0    0 -0.00000000000E+00 -0.00000000000E+00 -0.45593999997E+02  0.45594000000E+02  0.51100000000E-03 0. -1.
    9900012    2    1    2    0    0  0.17311365159E+02  0.41518644501E+02 -0.23732254648E+01  0.46142318698E+02  0.10000008540E+02 0.  0.
        -12    1    1    2    0    0 -0.17311365159E+02 -0.41518644501E+02  0.23732254648E+01  0.45045681302E+02  0.00000000000E+00 0.  1.
         11    1    3    3    0    0  0.28085294145E+01  0.13776951537E+02  0.22294716027E+01  0.14235967653E+02  0.51100000000E-03 0. -1.
        -11    1    3    3    0    0 -0.36163296847E-01  0.15388028852E+01 -0.68629564194E+00  0.16852964347E+01  0.51100000000E-03 0.  1.
        -12    1    3    3    0    0  0.14538999041E+02  0.26202890079E+02 -0.39164014256E+01  0.30221054610E+02  0.00000000000E+00 0.  1.
</event>
<event>
 7    1  0.2001181E-008  0.4614232E+02  0.7816164E-02  0.1320468E+00
        -11   -1    0    0    0    0  0.00000000000E+00  0.00000000000E+00  0.45593999997E+02  0.45594000000E+02  0.51100000000E-03 0.  1.
         11   -1    0    0    0    0 -0.00000000000E+00 -0.00000000000E+00 -0.45593999997E+02  0.45594000000E+02  0.51100000000E-03 0. -1.
    9900012    2    1    2    0    0  0.30576130328E+02 -0.30676403663E+02 -0.12376266094E+02  0.46142318187E+02  0.10000003882E+02 0.  0.
        -12    1    1    2    0    0 -0.30576130328E+02  0.30676403663E+02  0.12376266094E+02  0.45045681813E+02  0.00000000000E+00 0.  1.
         11    1    3    3    0    0  0.26518467230E+02 -0.24856460098E+02 -0.92320585567E+01  0.37500714903E+02  0.51100000000E-03 0. -1.
        -11    1    3    3    0    0  0.26944742348E+01 -0.43305426721E+01 -0.24194370113E+00  0.51061069567E+01  0.51100000000E-03 0.  1.
        -12    1    3    3    0    0  0.13631888635E+01 -0.14894008936E+01 -0.29022638365E+01  0.35354963267E+01  0.00000000000E+00 0.  1.
</event>
<event>
 7    1  0.2001181E-008  0.4614232E+02  0.7816164E-02  0.1320468E+00
        -11   -1    0    0    0    0  0.00000000000E+00  0.00000000000E+00  0.45593999997E+02  0.45594000000E+02  0.51100000000E-03 0.  1.
         11   -1    0    0    0    0 -0.00000000000E+00 -0.00000000000E+00 -0.45593999997E+02  0.45594000000E+02  0.51100000000E-03 0. -1.
    9900012    2    1    2    0    0 -0.33056839137E+00 -0.77313234451E+01 -0.44376016967E+02  0.46142317415E+02  0.99999968480E+01 0.  0.
        -12    1    1    2    0    0  0.33056839137E+00  0.77313234451E+01  0.44376016967E+02  0.45045682585E+02  0.00000000000E+00 0.  1.
         11    1    3    3    0    0 -0.11171122298E+01 -0.36350911831E+01 -0.19064662288E+02  0.19440246296E+02  0.51100000000E-03 0. -1.
        -11    1    3    3    0    0  0.10372410736E+01 -0.60961895649E+01 -0.21726967738E+02  0.22589832306E+02  0.51100000000E-03 0.  1.
        -12    1    3    3    0    0 -0.25069723518E+00  0.19999573029E+01 -0.35843869412E+01  0.41122388138E+01  0.00000000000E+00 0.  1.
</event>
<event>
 7    1  0.2001181E-008  0.4614231E+02  0.7816164E-02  0.1320468E+00
        -11   -1    0    0    0    0  0.00000000000E+00  0.00000000000E+00  0.45593999997E+02  0.45594000000E+02  0.51100000000E-03 0.  1.
         11   -1    0    0    0    0 -0.00000000000E+00 -0.00000000000E+00 -0.45593999997E+02  0.45594000000E+02  0.51100000000E-03 0. -1.
    9900012    2    1    2    0    0  0.29022758454E+02  0.22168119077E+02 -0.26369834186E+02  0.46142310232E+02  0.99999313416E+01 0.  0.
        -12    1    1    2    0    0 -0.29022758454E+02 -0.22168119077E+02  0.26369834186E+02  0.45045689768E+02  0.00000000000E+00 0.  1.
         11    1    3    3    0    0  0.19723102598E+02  0.17796151449E+02 -0.15665928629E+02  0.30840316188E+02  0.51100000000E-03 0. -1.
        -11    1    3    3    0    0  0.79002181919E+01  0.21105189376E+01 -0.71438596563E+01  0.10858290322E+02  0.51100000000E-03 0.  1.
         12    1    3    3    0    0  0.13994376639E+01  0.22614486908E+01 -0.35600459004E+01  0.44437037221E+01  0.00000000000E+00 0. -1.
</event>
<event>
 7    1  0.2001181E-008  0.4614232E+02  0.7816164E-02  0.1320468E+00
        -11   -1    0    0    0    0  0.00000000000E+00  0.00000000000E+00  0.45593999997E+02  0.45594000000E+02  0.51100000000E-03 0.  1.
         11   -1    0    0    0    0 -0.00000000000E+00 -0.00000000000E+00 -0.45593999997E+02  0.45594000000E+02  0.51100000000E-03 0. -1.
    9900012    2    1    2    0    0 -0.19688697252E+02  0.37354816672E+02 -0.15687143487E+02  0.46142316535E+02  0.99999888180E+01 0.  0.
        -12    1    1    2    0    0  0.19688697252E+02 -0.37354816672E+02  0.15687143487E+02  0.45045683465E+02  0.00000000000E+00 0.  1.
         11    1    3    3    0    0 -0.10185305826E+02  0.15145603381E+02 -0.87375160680E+01  0.20235462531E+02  0.51100000000E-03 0. -1.
        -11    1    3    3    0    0 -0.94123479374E+01  0.17664820791E+02 -0.73982721051E+01  0.21339461513E+02  0.51100000000E-03 0.  1.
        -12    1    3    3    0    0 -0.91043488192E-01  0.45443924999E+01  0.44864468575E+00  0.45673924907E+01  0.00000000000E+00 0.  1.
</event>
<event>
 7    1  0.2001181E-008  0.4614232E+02  0.7816164E-02  0.1320468E+00
        -11   -1    0    0    0    0  0.00000000000E+00  0.00000000000E+00  0.45593999997E+02  0.45594000000E+02  0.51100000000E-03 0. -1.
         11   -1    0    0    0    0 -0.00000000000E+00 -0.00000000000E+00 -0.45593999997E+02  0.45594000000E+02  0.51100000000E-03 0.  1.
    9900012    2    1    2    0    0 -0.28416885701E+02  0.34921402610E+02  0.14456045128E+01  0.46142317348E+02  0.99999962347E+01 0.  0.
        -12    1    1    2    0    0  0.28416885701E+02 -0.34921402610E+02 -0.14456045128E+01  0.45045682652E+02  0.00000000000E+00 0.  1.
         11    1    3    3    0    0 -0.61390516242E+01  0.29645197100E+01 -0.11792924131E+01  0.69186026633E+01  0.51100000000E-03 0. -1.
        -11    1    3    3    0    0 -0.20594749871E+01  0.19063679478E+01  0.96163833539E+00  0.29665509475E+01  0.51100000000E-03 0.  1.
        -12    1    3    3    0    0 -0.20218359090E+02  0.30050514952E+02  0.16632585905E+01  0.36257163737E+02  0.00000000000E+00 0.  1.
</event>
<event>
 7    1  0.2001181E-008  0.4614232E+02  0.7816164E-02  0.1320468E+00
        -11   -1    0    0    0    0  0.00000000000E+00  0.00000000000E+00  0.45593999997E+02  0.45594000000E+02  0.51100000000E-03 0.  1.
         11   -1    0    0    0    0 -0.00000000000E+00 -0.00000000000E+00 -0.45593999997E+02  0.45594000000E+02  0.51100000000E-03 0. -1.
    9900012    2    1    2    0    0 -0.94064577790E+00  0.15906213495E+02 -0.42133371600E+02  0.46142318246E+02  0.10000004425E+02 0.  0.
        -12    1    1    2    0    0  0.94064577790E+00 -0.15906213495E+02  0.42133371600E+02  0.45045681754E+02  0.00000000000E+00 0.  1.
         11    1    3    3    0    0 -0.36623263197E+01  0.10360244180E+02 -0.22303168306E+02  0.24863197909E+02  0.51100000000E-03 0. -1.
        -11    1    3    3    0    0  0.31720130709E+01  0.48261279905E+01 -0.11144515985E+02  0.12552028326E+02  0.51100000000E-03 0.  1.
        -12    1    3    3    0    0 -0.45033252914E+00  0.71984132417E+00 -0.86856873101E+01  0.87270920109E+01  0.00000000000E+00 0.  1.
</event>
<event>
 7    1  0.2001181E-008  0.4614232E+02  0.7816164E-02  0.1320468E+00
        -11   -1    0    0    0    0  0.00000000000E+00  0.00000000000E+00  0.45593999997E+02  0.45594000000E+02  0.51100000000E-03 0. -1.
         11   -1    0    0    0    0 -0.00000000000E+00 -0.00000000000E+00 -0.45593999997E+02  0.45594000000E+02  0.51100000000E-03 0.  1.
    9900012    2    1    2    0    0  0.42581026967E+02  0.70710292144E+00  0.14678883101E+02  0.46142318063E+02  0.10000002753E+02 0.  0.
        -12    1    1    2    0    0 -0.42581026967E+02 -0.70710292144E+00 -0.14678883101E+02  0.45045681937E+02  0.00000000000E+00 0.  1.
         11    1    3    3    0    0  0.16729293388E+02 -0.99974814575E+00  0.83659238659E+01  0.18731188857E+02  0.51100000000E-03 0. -1.
        -11    1    3    3    0    0  0.49168613355E+01  0.28309402995E+01  0.19296975814E+01  0.59927857787E+01  0.51100000000E-03 0.  1.
        -12    1    3    3    0    0  0.20934872243E+02 -0.11240892323E+01  0.43832616539E+01  0.21418343427E+02  0.00000000000E+00 0.  1.
</event>
<event>
 7    1  0.2001181E-008  0.4614232E+02  0.7816164E-02  0.1320468E+00
        -11   -1    0    0    0    0  0.00000000000E+00  0.00000000000E+00  0.45593999997E+02  0.45594000000E+02  0.51100000000E-03 0. -1.
         11   -1    0    0    0    0 -0.00000000000E+00 -0.00000000000E+00 -0.45593999997E+02  0.45594000000E+02  0.51100000000E-03 0.  1.
    9900012    2    1    2    0    0  0.91052260025E+01 -0.16933720038E+02  0.40736439364E+02  0.46142317555E+02  0.99999981191E+01 0.  0.
        -12    1    1    2    0    0 -0.91052260025E+01  0.16933720038E+02 -0.40736439364E+02  0.45045682445E+02  0.00000000000E+00 0.  1.
         11    1    3    3    0    0  0.80530621009E+01 -0.92238215201E+01  0.25401202302E+02  0.28198435618E+02  0.51100000000E-03 0. -1.
        -11    1    3    3    0    0 -0.15138090067E+01 -0.30253715783E+01  0.92383057937E+01  0.98382307909E+01  0.51100000000E-03 0.  1.
         12    1    3    3    0    0  0.25659729083E+01 -0.46845269393E+01  0.60969312682E+01  0.81056511460E+01  0.00000000000E+00 0. -1.
</event>
<event>
 7    1  0.2001181E-008  0.4614232E+02  0.7816164E-02  0.1320468E+00
        -11   -1    0    0    0    0  0.00000000000E+00  0.00000000000E+00  0.45593999997E+02  0.45594000000E+02  0.51100000000E-03 0. -1.
         11   -1    0    0    0    0 -0.00000000000E+00 -0.00000000000E+00 -0.45593999997E+02  0.45594000000E+02  0.51100000000E-03 0.  1.
    9900012    2    1    2    0    0  0.44040151133E+02  0.61071681665E+01 -0.72305681243E+01  0.46142317297E+02  0.99999957666E+01 0.  0.
        -12    1    1    2    0    0 -0.44040151133E+02 -0.61071681665E+01  0.72305681243E+01  0.45045682703E+02  0.00000000000E+00 0.  1.
         11    1    3    3    0    0  0.18097389187E+02  0.50168354670E+01 -0.44306837953E+01  0.19295468190E+02  0.51100000000E-03 0. -1.
        -11    1    3    3    0    0  0.10655713226E+02 -0.18432478429E+01  0.88673800696E+00  0.10850257671E+02  0.51100000000E-03 0.  1.
        -12    1    3    3    0    0  0.15287048719E+02  0.29335805424E+01 -0.36866223359E+01  0.15996591437E+02  0.00000000000E+00 0.  1.
</event>
<event>
 7    1  0.2001181E-008  0.4614232E+02  0.7816164E-02  0.1320468E+00
        -11   -1    0    0    0    0  0.00000000000E+00  0.00000000000E+00  0.45593999997E+02  0.45594000000E+02  0.51100000000E-03 0.  1.
         11   -1    0    0    0    0 -0.00000000000E+00 -0.00000000000E+00 -0.45593999997E+02  0.45594000000E+02  0.51100000000E-03 0. -1.
    9900012    2    1    2    0    0  0.42404685172E+02  0.15196579501E+02 -0.14241002464E+00  0.46142316148E+02  0.99999852926E+01 0.  0.
        -12    1    1    2    0    0 -0.42404685172E+02 -0.15196579501E+02  0.14241002464E+00  0.45045683852E+02  0.00000000000E+00 0.  1.
         11    1    3    3    0    0  0.13536968474E+02  0.74976738423E+01  0.14677975379E+01  0.15544100437E+02  0.51100000000E-03 0. -1.
        -11    1    3    3    0    0  0.29234183019E+01  0.19577481207E+01  0.15390952317E+01  0.38403081472E+01  0.51100000000E-03 0.  1.
         12    1    3    3    0    0  0.25944298396E+02  0.57411575380E+01 -0.31493027942E+01  0.26757907564E+02  0.00000000000E+00 0. -1.
</event>
<event>
 7    1  0.2001181E-008  0.4614232E+02  0.7816164E-02  0.1320468E+00
        -11   -1    0    0    0    0  0.00000000000E+00  0.00000000000E+00  0.45593999997E+02  0.45594000000E+02  0.51100000000E-03 0.  1.
         11   -1    0    0    0    0 -0.00000000000E+00 -0.00000000000E+00 -0.45593999997E+02  0.45594000000E+02  0.51100000000E-03 0. -1.
    9900012    2    1    2    0    0 -0.19388882756E+02 -0.19541157383E+02 -0.35655681132E+02  0.46142320924E+02  0.10000028846E+02 0.  0.
        -12    1    1    2    0    0  0.19388882756E+02  0.19541157383E+02  0.35655681132E+02  0.45045679076E+02  0.00000000000E+00 0.  1.
         11    1    3    3    0    0 -0.13256734248E+02 -0.11639213155E+02 -0.21737063574E+02  0.27994860580E+02  0.51100000000E-03 0. -1.
        -11    1    3    3    0    0 -0.33344334771E+01 -0.55089167432E+01 -0.12751716416E+02  0.14285408014E+02  0.51100000000E-03 0.  1.
        -12    1    3    3    0    0 -0.27977150300E+01 -0.23930274844E+01 -0.11669011420E+01  0.38620523308E+01  0.00000000000E+00 0.  1.
</event>
<event>
 7    1  0.2001181E-008  0.4614232E+02  0.7816164E-02  0.1320468E+00
        -11   -1    0    0    0    0  0.00000000000E+00  0.00000000000E+00  0.45593999997E+02  0.45594000000E+02  0.51100000000E-03 0.  1.
         11   -1    0    0    0    0 -0.00000000000E+00 -0.00000000000E+00 -0.45593999997E+02  0.45594000000E+02  0.51100000000E-03 0. -1.
    9900012    2    1    2    0    0  0.20968808433E+02 -0.21151203108E+02 -0.33794218443E+02  0.46142317408E+02  0.99999967761E+01 0.  0.
        -12    1    1    2    0    0 -0.20968808433E+02  0.21151203108E+02  0.33794218443E+02  0.45045682592E+02  0.00000000000E+00 0.  1.
         11    1    3    3    0    0  0.52165774145E+01 -0.49786949027E+01 -0.80043413938E+01  0.10773558570E+02  0.51100000000E-03 0. -1.
        -11    1    3    3    0    0  0.10533510171E+02 -0.90446541704E+01 -0.94532746188E+01  0.16796577237E+02  0.51100000000E-03 0.  1.
        -12    1    3    3    0    0  0.52187208472E+01 -0.71278540349E+01 -0.16336602431E+02  0.18572181601E+02  0.00000000000E+00 0.  1.
</event>
<event>
 7    1  0.2001181E-008  0.4614232E+02  0.7816164E-02  0.1320468E+00
        -11   -1    0    0    0    0  0.00000000000E+00  0.00000000000E+00  0.45593999997E+02  0.45594000000E+02  0.51100000000E-03 0.  1.
         11   -1    0    0    0    0 -0.00000000000E+00 -0.00000000000E+00 -0.45593999997E+02  0.45594000000E+02  0.51100000000E-03 0. -1.
    9900012    2    1    2    0    0 -0.23567288748E+02  0.33635110544E+02 -0.18503397810E+02  0.46142317735E+02  0.99999997581E+01 0.  0.
        -12    1    1    2    0    0  0.23567288748E+02 -0.33635110544E+02  0.18503397810E+02  0.45045682265E+02  0.00000000000E+00 0.  1.
         11    1    3    3    0    0 -0.26831113280E+00  0.30177932702E+01 -0.21528532642E+01  0.37166980674E+01  0.51100000000E-03 0. -1.
        -11    1    3    3    0    0 -0.17685212998E+02  0.19838709300E+02 -0.14030631048E+02  0.30053281906E+02  0.51100000000E-03 0.  1.
         12    1    3    3    0    0 -0.56137646177E+01  0.10778607974E+02 -0.23199134974E+01  0.12372337761E+02  0.00000000000E+00 0. -1.
</event>
<event>
 7    1  0.2001181E-008  0.4614232E+02  0.7816164E-02  0.1320468E+00
        -11   -1    0    0    0    0  0.00000000000E+00  0.00000000000E+00  0.45593999997E+02  0.45594000000E+02  0.51100000000E-03 0. -1.
         11   -1    0    0    0    0 -0.00000000000E+00 -0.00000000000E+00 -0.45593999997E+02  0.45594000000E+02  0.51100000000E-03 0.  1.
    9900012    2    1    2    0    0  0.14105709945E+02 -0.24194089664E+02  0.35281554466E+02  0.46142321925E+02  0.10000037968E+02 0.  0.
        -12    1    1    2    0    0 -0.14105709945E+02  0.24194089664E+02 -0.35281554466E+02  0.45045678075E+02  0.00000000000E+00 0.  1.
         11    1    3    3    0    0  0.66542475587E+01 -0.10815902444E+02  0.20684412628E+02  0.24271540583E+02  0.51100000000E-03 0. -1.
        -11    1    3    3    0    0  0.48383819544E+01 -0.12615434257E+02  0.11457142090E+02  0.17715112943E+02  0.51100000000E-03 0.  1.
         12    1    3    3    0    0  0.26130804316E+01 -0.76275296236E+00  0.31399997484E+01  0.41556683991E+01  0.00000000000E+00 0. -1.
</event>
<event>
 7    1  0.2001181E-008  0.4614232E+02  0.7816164E-02  0.1320468E+00
        -11   -1    0    0    0    0  0.00000000000E+00  0.00000000000E+00  0.45593999997E+02  0.45594000000E+02  0.51100000000E-03 0.  1.
         11   -1    0    0    0    0 -0.00000000000E+00 -0.00000000000E+00 -0.45593999997E+02  0.45594000000E+02  0.51100000000E-03 0. -1.
    9900012    2    1    2    0    0 -0.18663952858E+02 -0.89226594849E+01 -0.40014453488E+02  0.46142317892E+02  0.10000001197E+02 0.  0.
        -12    1    1    2    0    0  0.18663952858E+02  0.89226594849E+01  0.40014453488E+02  0.45045682108E+02  0.00000000000E+00 0.  1.
         11    1    3    3    0    0 -0.11639852146E+02 -0.52837803566E+01 -0.23247876554E+02  0.26530515588E+02  0.51100000000E-03 0. -1.
        -11    1    3    3    0    0 -0.51591384652E+01 -0.36416593232E+01 -0.16574763006E+02  0.17736999782E+02  0.51100000000E-03 0.  1.
        -12    1    3    3    0    0 -0.18649622475E+01  0.27801949663E-02 -0.19181392882E+00  0.18748025222E+01  0.00000000000E+00 0.  1.
</event>
<event>
 7    1  0.2001181E-008  0.4614232E+02  0.7816164E-02  0.1320468E+00
        -11   -1    0    0    0    0  0.00000000000E+00  0.00000000000E+00  0.45593999997E+02  0.45594000000E+02  0.51100000000E-03 0. -1.
         11   -1    0    0    0    0 -0.00000000000E+00 -0.00000000000E+00 -0.45593999997E+02  0.45594000000E+02  0.51100000000E-03 0.  1.
    9900012    2    1    2    0    0  0.42605976078E+02 -0.14530504496E+02 -0.16458519628E+01  0.46142316664E+02  0.99999899977E+01 0.  0.
        -12    1    1    2    0    0 -0.42605976078E+02  0.14530504496E+02  0.16458519628E+01  0.45045683336E+02  0.00000000000E+00 0.  1.
         11    1    3    3    0    0  0.20707619575E+02 -0.92014656069E+01  0.21435967750E+01  0.22761095869E+02  0.51100000000E-03 0. -1.
        -11    1    3    3    0    0  0.83029245502E+01 -0.30741256907E+01  0.71503923644E+00  0.88825720498E+01  0.51100000000E-03 0.  1.
        -12    1    3    3    0    0  0.13595431953E+02 -0.22549131988E+01 -0.45044879742E+01  0.14498648745E+02  0.00000000000E+00 0.  1.
</event>
<event>
 7    1  0.2001181E-008  0.4614232E+02  0.7816164E-02  0.1320468E+00
        -11   -1    0    0    0    0  0.00000000000E+00  0.00000000000E+00  0.45593999997E+02  0.45594000000E+02  0.51100000000E-03 0.  1.
         11   -1    0    0    0    0 -0.00000000000E+00 -0.00000000000E+00 -0.45593999997E+02  0.45594000000E+02  0.51100000000E-03 0. -1.
    9900012    2    1    2    0    0  0.23393420633E+02 -0.37872021481E+02  0.68971963212E+01  0.46142318109E+02  0.10000003169E+02 0.  0.
        -12    1    1    2    0    0 -0.23393420633E+02  0.37872021481E+02 -0.68971963212E+01  0.45045681891E+02  0.00000000000E+00 0.  1.
         11    1    3    3    0    0  0.65070924268E+01 -0.11986850606E+02  0.21195742637E+01  0.13802877766E+02  0.51100000000E-03 0. -1.
        -11    1    3    3    0    0  0.42464994772E+01 -0.61373469521E+01 -0.23651215718E+01  0.78290220162E+01  0.51100000000E-03 0.  1.
         12    1    3    3    0    0  0.12639828729E+02 -0.19747823923E+02  0.71427436293E+01  0.24510418327E+02  0.00000000000E+00 0. -1.
</event>
<event>
 7    1  0.2001181E-008  0.4614232E+02  0.7816164E-02  0.1320468E+00
        -11   -1    0    0    0    0  0.00000000000E+00  0.00000000000E+00  0.45593999997E+02  0.45594000000E+02  0.51100000000E-03 0.  1.
         11   -1    0    0    0    0 -0.00000000000E+00 -0.00000000000E+00 -0.45593999997E+02  0.45594000000E+02  0.51100000000E-03 0. -1.
    9900012    2    1    2    0    0  0.38041778134E+02  0.22270676380E+02 -0.92711138151E+01  0.46142318061E+02  0.10000002734E+02 0.  0.
        -12    1    1    2    0    0 -0.38041778134E+02 -0.22270676380E+02  0.92711138151E+01  0.45045681939E+02  0.00000000000E+00 0.  1.
         11    1    3    3    0    0  0.11676056273E+02  0.10834732540E+02 -0.26582004189E+01  0.16148924083E+02  0.51100000000E-03 0. -1.
        -11    1    3    3    0    0  0.64393743175E+01  0.50880929944E+01 -0.31748276147E+01  0.87996455931E+01  0.51100000000E-03 0.  1.
        -12    1    3    3    0    0  0.19926347543E+02  0.63478508454E+01 -0.34380857814E+01  0.21193748385E+02  0.00000000000E+00 0.  1.
</event>
<event>
 7    1  0.2001181E-008  0.4614232E+02  0.7816164E-02  0.1320468E+00
        -11   -1    0    0    0    0  0.00000000000E+00  0.00000000000E+00  0.45593999997E+02  0.45594000000E+02  0.51100000000E-03 0.  1.
         11   -1    0    0    0    0 -0.00000000000E+00 -0.00000000000E+00 -0.45593999997E+02  0.45594000000E+02  0.51100000000E-03 0. -1.
    9900012    2    1    2    0    0 -0.22649214969E+02 -0.11829613172E+01 -0.38919495686E+02  0.46142317847E+02  0.10000000781E+02 0.  0.
        -12    1    1    2    0    0  0.22649214969E+02  0.11829613172E+01  0.38919495686E+02  0.45045682153E+02  0.00000000000E+00 0.  1.
         11    1    3    3    0    0 -0.10026608747E+02  0.17825551691E+01 -0.20621822558E+02  0.22999346768E+02  0.51100000000E-03 0. -1.
        -11    1    3    3    0    0 -0.20463770129E+01  0.97555148905E+00 -0.97502789271E+00  0.24678004861E+01  0.51100000000E-03 0.  1.
         12    1    3    3    0    0 -0.10576229209E+02 -0.39410679753E+01 -0.17322645235E+02  0.20675170592E+02  0.00000000000E+00 0. -1.
</event>
<event>
 7    1  0.2001181E-008  0.4614232E+02  0.7816164E-02  0.1320468E+00
        -11   -1    0    0    0    0  0.00000000000E+00  0.00000000000E+00  0.45593999997E+02  0.45594000000E+02  0.51100000000E-03 0. -1.
         11   -1    0    0    0    0 -0.00000000000E+00 -0.00000000000E+00 -0.45593999997E+02  0.45594000000E+02  0.51100000000E-03 0.  1.
    9900012    2    1    2    0    0 -0.42728125288E+02 -0.12722036686E+02  0.64475251631E+01  0.46142317756E+02  0.99999999565E+01 0.  0.
        -12    1    1    2    0    0  0.42728125288E+02  0.12722036686E+02 -0.64475251631E+01  0.45045682244E+02  0.00000000000E+00 0.  1.
         11    1    3    3    0    0 -0.17206960713E+02 -0.22006788061E+01  0.48948577293E+01  0.18024486585E+02  0.51100000000E-03 0. -1.
        -11    1    3    3    0    0 -0.59891680331E+01 -0.20787802601E+01 -0.17683833366E+01  0.65816898274E+01  0.51100000000E-03 0.  1.
        -12    1    3    3    0    0 -0.19531996542E+02 -0.84425776202E+01  0.33210507705E+01  0.21536141344E+02  0.00000000000E+00 0.  1.
</event>
<event>
 7    1  0.2001181E-008  0.4614232E+02  0.7816164E-02  0.1320468E+00
        -11   -1    0    0    0    0  0.00000000000E+00  0.00000000000E+00  0.45593999997E+02  0.45594000000E+02  0.51100000000E-03 0. -1.
         11   -1    0    0    0    0 -0.00000000000E+00 -0.00000000000E+00 -0.45593999997E+02  0.45594000000E+02  0.51100000000E-03 0.  1.
    9900012    2    1    2    0    0 -0.13058452505E+02 -0.33390948494E+02  0.27269669064E+02  0.46142317920E+02  0.10000001448E+02 0.  0.
        -12    1    1    2    0    0  0.13058452505E+02  0.33390948494E+02 -0.27269669064E+02  0.45045682080E+02  0.00000000000E+00 0.  1.
         11    1    3    3    0    0 -0.58616534450E+01 -0.69444454168E+01  0.10159382713E+02  0.13630750552E+02  0.51100000000E-03 0. -1.
        -11    1    3    3    0    0 -0.18777775478E+01 -0.73456537694E+01  0.28998880533E+01  0.81175137082E+01  0.51100000000E-03 0.  1.
         12    1    3    3    0    0 -0.53190215121E+01 -0.19100849308E+02  0.14210398298E+02  0.24394053659E+02  0.00000000000E+00 0. -1.
</event>
<event>
 7    1  0.2001181E-008  0.4614232E+02  0.7816164E-02  0.1320468E+00
        -11   -1    0    0    0    0  0.00000000000E+00  0.00000000000E+00  0.45593999997E+02  0.45594000000E+02  0.51100000000E-03 0.  1.
         11   -1    0    0    0    0 -0.00000000000E+00 -0.00000000000E+00 -0.45593999997E+02  0.45594000000E+02  0.51100000000E-03 0. -1.
    9900012    2    1    2    0    0 -0.21988562123E+02 -0.24865352694E+02 -0.30452103699E+02  0.46142320423E+02  0.10000024276E+02 0.  0.
        -12    1    1    2    0    0  0.21988562123E+02  0.24865352694E+02  0.30452103699E+02  0.45045679577E+02  0.00000000000E+00 0.  1.
         11    1    3    3    0    0 -0.29430972108E+01 -0.66031141887E+01 -0.64106063545E+01  0.96622364013E+01  0.51100000000E-03 0. -1.
        -11    1    3    3    0    0 -0.19869549962E+00 -0.97580019927E+00 -0.36157957092E+01  0.37504192835E+01  0.51100000000E-03 0.  1.
         12    1    3    3    0    0 -0.18846769413E+02 -0.17286438306E+02 -0.20425701635E+02  0.32729664739E+02  0.00000000000E+00 0. -1.
</event>
<event>
 7    1  0.2001181E-008  0.4614232E+02  0.7816164E-02  0.1320468E+00
        -11   -1    0    0    0    0  0.00000000000E+00  0.00000000000E+00  0.45593999997E+02  0.45594000000E+02  0.51100000000E-03 0.  1.
         11   -1    0    0    0    0 -0.00000000000E+00 -0.00000000000E+00 -0.45593999997E+02  0.45594000000E+02  0.51100000000E-03 0. -1.
    9900012    2    1    2    0    0 -0.10848151705E+02  0.11461663568E+02 -0.42190773127E+02  0.46142318029E+02  0.10000002444E+02 0.  0.
        -12    1    1    2    0    0  0.10848151705E+02 -0.11461663568E+02  0.42190773127E+02  0.45045681971E+02  0.00000000000E+00 0.  1.
         11    1    3    3    0    0 -0.84418350088E+00  0.52960131077E+01 -0.13451849286E+02  0.14481458839E+02  0.51100000000E-03 0. -1.
        -11    1    3    3    0    0 -0.21812556717E+01  0.48956567253E+01 -0.11606838920E+02  0.12784523497E+02  0.51100000000E-03 0.  1.
        -12    1    3    3    0    0 -0.78227125327E+01  0.12699937346E+01 -0.17132084921E+02  0.18876335693E+02  0.00000000000E+00 0.  1.
</event>
<event>
 7    1  0.2001181E-008  0.4614232E+02  0.7816164E-02  0.1320468E+00
        -11   -1    0    0    0    0  0.00000000000E+00  0.00000000000E+00  0.45593999997E+02  0.45594000000E+02  0.51100000000E-03 0.  1.
         11   -1    0    0    0    0 -0.00000000000E+00 -0.00000000000E+00 -0.45593999997E+02  0.45594000000E+02  0.51100000000E-03 0. -1.
    9900012    2    1    2    0    0  0.15798334678E+02  0.42153524491E+02  0.16144519218E+01  0.46142318069E+02  0.10000002812E+02 0.  0.
        -12    1    1    2    0    0 -0.15798334678E+02 -0.42153524491E+02 -0.16144519218E+01  0.45045681931E+02  0.00000000000E+00 0.  1.
         11    1    3    3    0    0  0.10973358867E+02  0.24449467070E+02 -0.29791029366E+01  0.26964163243E+02  0.51100000000E-03 0. -1.
        -11    1    3    3    0    0  0.43003302388E+01  0.98640065566E+01  0.25277741965E+01  0.11053556358E+02  0.51100000000E-03 0.  1.
         12    1    3    3    0    0  0.52464557183E+00  0.78400508644E+01  0.20657806619E+01  0.81245984686E+01  0.00000000000E+00 0. -1.
</event>
<event>
 7    1  0.2001181E-008  0.4614232E+02  0.7816164E-02  0.1320468E+00
        -11   -1    0    0    0    0  0.00000000000E+00  0.00000000000E+00  0.45593999997E+02  0.45594000000E+02  0.51100000000E-03 0.  1.
         11   -1    0    0    0    0 -0.00000000000E+00 -0.00000000000E+00 -0.45593999997E+02  0.45594000000E+02  0.51100000000E-03 0. -1.
    9900012    2    1    2    0    0 -0.15871359179E+01  0.44582059243E+02 -0.62477721459E+01  0.46142315817E+02  0.99999822691E+01 0.  0.
        -12    1    1    2    0    0  0.15871359179E+01 -0.44582059243E+02  0.62477721459E+01  0.45045684183E+02  0.00000000000E+00 0.  1.
         11    1    3    3    0    0  0.96309420516E-01  0.15297325828E+02 -0.19880082267E+01  0.15426264290E+02  0.51100000000E-03 0. -1.
        -11    1    3    3    0    0 -0.45661621967E+01  0.11024754640E+02 -0.16202284312E+01  0.12042432998E+02  0.51100000000E-03 0.  1.
         12    1    3    3    0    0  0.28827168583E+01  0.18259978775E+02 -0.26395354880E+01  0.18673618528E+02  0.00000000000E+00 0. -1.
</event>
<event>
 7    1  0.2001181E-008  0.4614232E+02  0.7816164E-02  0.1320468E+00
        -11   -1    0    0    0    0  0.00000000000E+00  0.00000000000E+00  0.45593999997E+02  0.45594000000E+02  0.51100000000E-03 0.  1.
         11   -1    0    0    0    0 -0.00000000000E+00 -0.00000000000E+00 -0.45593999997E+02  0.45594000000E+02  0.51100000000E-03 0. -1.
    9900012    2    1    2    0    0  0.44278045249E+01 -0.16600316724E+02 -0.41640576631E+02  0.46142316628E+02  0.99999896716E+01 0.  0.
        -12    1    1    2    0    0 -0.44278045249E+01  0.16600316724E+02  0.41640576631E+02  0.45045683372E+02  0.00000000000E+00 0.  1.
         11    1    3    3    0    0  0.23564389295E+01 -0.44745425855E+01 -0.18158393397E+02  0.18849445265E+02  0.51100000000E-03 0. -1.
        -11    1    3    3    0    0  0.18485739485E+01 -0.10413407380E+02 -0.23260312066E+02  0.25551876577E+02  0.51100000000E-03 0.  1.
        -12    1    3    3    0    0  0.22279164693E+00 -0.17123667584E+01 -0.22187116798E+00  0.17409947870E+01  0.00000000000E+00 0.  1.
</event>
<event>
 7    1  0.2001181E-008  0.4614232E+02  0.7816164E-02  0.1320468E+00
        -11   -1    0    0    0    0  0.00000000000E+00  0.00000000000E+00  0.45593999997E+02  0.45594000000E+02  0.51100000000E-03 0. -1.
         11   -1    0    0    0    0 -0.00000000000E+00 -0.00000000000E+00 -0.45593999997E+02  0.45594000000E+02  0.51100000000E-03 0.  1.
    9900012    2    1    2    0    0 -0.15627872338E+02 -0.18284382903E+02  0.38086276753E+02  0.46142317312E+02  0.99999959040E+01 0.  0.
        -12    1    1    2    0    0  0.15627872338E+02  0.18284382903E+02 -0.38086276753E+02  0.45045682688E+02  0.00000000000E+00 0.  1.
         11    1    3    3    0    0 -0.37916049945E+01 -0.46349290291E+01  0.91806753419E+01  0.10961005225E+02  0.51100000000E-03 0. -1.
        -11    1    3    3    0    0 -0.17819250189E+01 -0.73338248355E+01  0.15718818527E+02  0.17436785817E+02  0.51100000000E-03 0.  1.
         12    1    3    3    0    0 -0.10054342324E+02 -0.63156290389E+01  0.13186782884E+02  0.17744526270E+02  0.00000000000E+00 0. -1.
</event>
<event>
 7    1  0.2001181E-008  0.4614232E+02  0.7816164E-02  0.1320468E+00
        -11   -1    0    0    0    0  0.00000000000E+00  0.00000000000E+00  0.45593999997E+02  0.45594000000E+02  0.51100000000E-03 0.  1.
         11   -1    0    0    0    0 -0.00000000000E+00 -0.00000000000E+00 -0.45593999997E+02  0.45594000000E+02  0.51100000000E-03 0. -1.
    9900012    2    1    2    0    0 -0.49251197544E+01 -0.31578605112E+02 -0.31743477198E+02  0.46142318187E+02  0.10000003880E+02 0.  0.
        -12    1    1    2    0    0  0.49251197544E+01  0.31578605112E+02  0.31743477198E+02  0.45045681813E+02  0.00000000000E+00 0.  1.
         11    1    3    3    0    0  0.19581932391E+01 -0.72078956706E+01 -0.88021196874E+01  0.11544071726E+02  0.51100000000E-03 0. -1.
        -11    1    3    3    0    0  0.36917412899E+00 -0.63049506668E+01 -0.42653007694E+01  0.76211208732E+01  0.51100000000E-03 0.  1.
        -12    1    3    3    0    0 -0.72524871225E+01 -0.18065758774E+02 -0.18676056742E+02  0.26977125587E+02  0.00000000000E+00 0.  1.
</event>
<event>
 7    1  0.2001181E-008  0.4614231E+02  0.7816164E-02  0.1320468E+00
        -11   -1    0    0    0    0  0.00000000000E+00  0.00000000000E+00  0.45593999997E+02  0.45594000000E+02  0.51100000000E-03 0.  1.
         11   -1    0    0    0    0 -0.00000000000E+00 -0.00000000000E+00 -0.45593999997E+02  0.45594000000E+02  0.51100000000E-03 0. -1.
    9900012    2    1    2    0    0 -0.31768631910E+02 -0.78553385672E+01 -0.30954182652E+02  0.46142314956E+02  0.99999744194E+01 0.  0.
        -12    1    1    2    0    0  0.31768631910E+02  0.78553385672E+01  0.30954182652E+02  0.45045685044E+02  0.00000000000E+00 0.  1.
         11    1    3    3    0    0 -0.13836823360E+02 -0.36830250219E+01 -0.18508825832E+02  0.23400833061E+02  0.51100000000E-03 0. -1.
        -11    1    3    3    0    0 -0.62120983889E+00 -0.13050273487E+01 -0.13734076347E+01  0.19938021058E+01  0.51100000000E-03 0.  1.
        -12    1    3    3    0    0 -0.17310598711E+02 -0.28672861966E+01 -0.11071949185E+02  0.20747679789E+02  0.00000000000E+00 0.  1.
</event>
<event>
 7    1  0.2001181E-008  0.4614232E+02  0.7816164E-02  0.1320468E+00
        -11   -1    0    0    0    0  0.00000000000E+00  0.00000000000E+00  0.45593999997E+02  0.45594000000E+02  0.51100000000E-03 0.  1.
         11   -1    0    0    0    0 -0.00000000000E+00 -0.00000000000E+00 -0.45593999997E+02  0.45594000000E+02  0.51100000000E-03 0. -1.
    9900012    2    1    2    0    0 -0.84202709030E+01  0.84167833543E+01 -0.43443871467E+02  0.46142321271E+02  0.10000032007E+02 0.  0.
        -12    1    1    2    0    0  0.84202709030E+01 -0.84167833543E+01  0.43443871467E+02  0.45045678729E+02  0.00000000000E+00 0.  1.
         11    1    3    3    0    0 -0.57204928544E+01  0.45850341199E+01 -0.34969831123E+02  0.35730038699E+02  0.51100000000E-03 0. -1.
        -11    1    3    3    0    0 -0.21161998096E+01  0.11827569789E+00 -0.19358474102E+01  0.28705045256E+01  0.51100000000E-03 0.  1.
         12    1    3    3    0    0 -0.58357823902E+00  0.37134735366E+01 -0.65381929334E+01  0.75417780465E+01  0.00000000000E+00 0. -1.
</event>
<event>
 7    1  0.2001181E-008  0.4614232E+02  0.7816164E-02  0.1320468E+00
        -11   -1    0    0    0    0  0.00000000000E+00  0.00000000000E+00  0.45593999997E+02  0.45594000000E+02  0.51100000000E-03 0.  1.
         11   -1    0    0    0    0 -0.00000000000E+00 -0.00000000000E+00 -0.45593999997E+02  0.45594000000E+02  0.51100000000E-03 0. -1.
    9900012    2    1    2    0    0 -0.93431944480E+01  0.41143243993E+02 -0.15781372558E+02  0.46142317315E+02  0.99999959289E+01 0.  0.
        -12    1    1    2    0    0  0.93431944480E+01 -0.41143243993E+02  0.15781372558E+02  0.45045682685E+02  0.00000000000E+00 0.  1.
         11    1    3    3    0    0 -0.54150447117E+01  0.21055236832E+02 -0.63794492860E+01  0.22657075732E+02  0.51100000000E-03 0. -1.
        -11    1    3    3    0    0 -0.26873075252E+01  0.11115147778E+02 -0.87585397828E+01  0.14404171314E+02  0.51100000000E-03 0.  1.
        -12    1    3    3    0    0 -0.12408422111E+01  0.89728593831E+01 -0.64338348954E+00  0.90810702683E+01  0.00000000000E+00 0.  1.
</event>
<event>
 7    1  0.2001181E-008  0.4614232E+02  0.7816164E-02  0.1320468E+00
        -11   -1    0    0    0    0  0.00000000000E+00  0.00000000000E+00  0.45593999997E+02  0.45594000000E+02  0.51100000000E-03 0.  1.
         11   -1    0    0    0    0 -0.00000000000E+00 -0.00000000000E+00 -0.45593999997E+02  0.45594000000E+02  0.51100000000E-03 0. -1.
    9900012    2    1    2    0    0  0.25680529324E+02  0.32800093018E+02 -0.17139948066E+02  0.46142317543E+02  0.99999980081E+01 0.  0.
        -12    1    1    2    0    0 -0.25680529324E+02 -0.32800093018E+02  0.17139948066E+02  0.45045682457E+02  0.00000000000E+00 0.  1.
         11    1    3    3    0    0  0.17060386887E+00 -0.18948745355E+00  0.35088696259E+00  0.43374312302E+00  0.51100000000E-03 0. -1.
        -11    1    3    3    0    0  0.30239851706E+01  0.49977952522E+01 -0.16931375961E+00  0.58438951997E+01  0.51100000000E-03 0.  1.
         12    1    3    3    0    0  0.22485940285E+02  0.27991785219E+02 -0.17321521269E+02  0.39864679220E+02  0.00000000000E+00 0. -1.
</event>
<event>
 7    1  0.2001181E-008  0.4614232E+02  0.7816164E-02  0.1320468E+00
        -11   -1    0    0    0    0  0.00000000000E+00  0.00000000000E+00  0.45593999997E+02  0.45594000000E+02  0.51100000000E-03 0.  1.
         11   -1    0    0    0    0 -0.00000000000E+00 -0.00000000000E+00 -0.45593999997E+02  0.45594000000E+02  0.51100000000E-03 0. -1.
    9900012    2    1    2    0    0  0.42861574945E+02 -0.99783929440E+01 -0.96140818166E+01  0.46142317613E+02  0.99999986526E+01 0.  0.
        -12    1    1    2    0    0 -0.42861574945E+02  0.99783929440E+01  0.96140818166E+01  0.45045682387E+02  0.00000000000E+00 0.  1.
         11    1    3    3    0    0  0.15168722310E+02 -0.50191878039E+01 -0.39117666217E+01  0.16449446832E+02  0.51100000000E-03 0. -1.
        -11    1    3    3    0    0  0.15564511161E+02 -0.65878937578E+01 -0.34639023879E+01  0.17252622174E+02  0.51100000000E-03 0.  1.
         12    1    3    3    0    0  0.12128341474E+02  0.16286886178E+01 -0.22384128070E+01  0.12440248608E+02  0.00000000000E+00 0. -1.
</event>
<event>
 7    1  0.2001181E-008  0.4614232E+02  0.7816164E-02  0.1320468E+00
        -11   -1    0    0    0    0  0.00000000000E+00  0.00000000000E+00  0.45593999997E+02  0.45594000000E+02  0.51100000000E-03 0. -1.
         11   -1    0    0    0    0 -0.00000000000E+00 -0.00000000000E+00 -0.45593999997E+02  0.45594000000E+02  0.51100000000E-03 0.  1.
    9900012    2    1    2    0    0  0.24589540044E+02 -0.10430551817E+01  0.37727710080E+02  0.46142317060E+02  0.99999936085E+01 0.  0.
        -12    1    1    2    0    0 -0.24589540044E+02  0.10430551817E+01 -0.37727710080E+02  0.45045682940E+02  0.00000000000E+00 0.  1.
         11    1    3    3    0    0  0.10568636778E+02 -0.10270985573E+01  0.21567182412E+02  0.24039433692E+02  0.51100000000E-03 0. -1.
        -11    1    3    3    0    0  0.50574149278E+01 -0.26854446791E+01  0.60786071614E+01  0.83509594754E+01  0.51100000000E-03 0.  1.
        -12    1    3    3    0    0  0.89634883374E+01  0.26694880547E+01  0.10081920506E+02  0.13751923892E+02  0.00000000000E+00 0.  1.
</event>
<event>
 7    1  0.2001181E-008  0.4614231E+02  0.7816164E-02  0.1320468E+00
        -11   -1    0    0    0    0  0.00000000000E+00  0.00000000000E+00  0.45593999997E+02  0.45594000000E+02  0.51100000000E-03 0.  1.
         11   -1    0    0    0    0 -0.00000000000E+00 -0.00000000000E+00 -0.45593999997E+02  0.45594000000E+02  0.51100000000E-03 0. -1.
    9900012    2    1    2    0    0 -0.32821232565E+01 -0.10891572572E+02 -0.43585722532E+02  0.46142313249E+02  0.99999588584E+01 0.  0.
        -12    1    1    2    0    0  0.32821232565E+01  0.10891572572E+02  0.43585722532E+02  0.45045686751E+02  0.00000000000E+00 0.  1.
         11    1    3    3    0    0 -0.48331363455E+01 -0.84497329448E+01 -0.39129026260E+02  0.40321680150E+02  0.51100000000E-03 0. -1.
        -11    1    3    3    0    0  0.17785671122E+01 -0.12225582256E+01 -0.39080081636E+01  0.44643563539E+01  0.51100000000E-03 0.  1.
         12    1    3    3    0    0 -0.22755402321E+00 -0.12192814017E+01 -0.54868810855E+00  0.13562767455E+01  0.00000000000E+00 0. -1.
</event>
<event>
 7    1  0.2001181E-008  0.4614232E+02  0.7816164E-02  0.1320468E+00
        -11   -1    0    0    0    0  0.00000000000E+00  0.00000000000E+00  0.45593999997E+02  0.45594000000E+02  0.51100000000E-03 0.  1.
         11   -1    0    0    0    0 -0.00000000000E+00 -0.00000000000E+00 -0.45593999997E+02  0.45594000000E+02  0.51100000000E-03 0. -1.
    9900012    2    1    2    0    0  0.42262983671E+02  0.14828487730E+02 -0.48030790046E+01  0.46142318686E+02  0.10000008435E+02 0.  0.
        -12    1    1    2    0    0 -0.42262983671E+02 -0.14828487730E+02  0.48030790046E+01  0.45045681314E+02  0.00000000000E+00 0.  1.
         11    1    3    3    0    0  0.19659168977E+02  0.58033637331E+01 -0.16465289092E+01  0.20563876415E+02  0.51100000000E-03 0. -1.
        -11    1    3    3    0    0  0.83068051593E+01  0.48199454110E+01 -0.45184381489E+01  0.10613725514E+02  0.51100000000E-03 0.  1.
        -12    1    3    3    0    0  0.14297009534E+02  0.42051785857E+01  0.13618880534E+01  0.14964716757E+02  0.00000000000E+00 0.  1.
</event>
<event>
 7    1  0.2001181E-008  0.4614232E+02  0.7816164E-02  0.1320468E+00
        -11   -1    0    0    0    0  0.00000000000E+00  0.00000000000E+00  0.45593999997E+02  0.45594000000E+02  0.51100000000E-03 0.  1.
         11   -1    0    0    0    0 -0.00000000000E+00 -0.00000000000E+00 -0.45593999997E+02  0.45594000000E+02  0.51100000000E-03 0. -1.
    9900012    2    1    2    0    0  0.41053441760E+02  0.60717189872E+01 -0.17517496522E+02  0.46142317230E+02  0.99999951554E+01 0.  0.
        -12    1    1    2    0    0 -0.41053441760E+02 -0.60717189872E+01  0.17517496522E+02  0.45045682770E+02  0.00000000000E+00 0.  1.
         11    1    3    3    0    0  0.15055845615E+02  0.20056335602E+01 -0.63792721886E+01  0.16474105956E+02  0.51100000000E-03 0. -1.
        -11    1    3    3    0    0  0.87443355055E+01 -0.20606654799E+01 -0.19922048885E+01  0.92020990123E+01  0.51100000000E-03 0.  1.
        -12    1    3    3    0    0  0.17253260640E+02  0.61267509069E+01 -0.91460194450E+01  0.20466112261E+02  0.00000000000E+00 0.  1.
</event>
<event>
 7    1  0.2001181E-008  0.4614232E+02  0.7816164E-02  0.1320468E+00
        -11   -1    0    0    0    0  0.00000000000E+00  0.00000000000E+00  0.45593999997E+02  0.45594000000E+02  0.51100000000E-03 0.  1.
         11   -1    0    0    0    0 -0.00000000000E+00 -0.00000000000E+00 -0.45593999997E+02  0.45594000000E+02  0.51100000000E-03 0. -1.
    9900012    2    1    2    0    0 -0.25199503314E+02 -0.25218699349E+02 -0.27533898685E+02  0.46142319398E+02  0.10000014927E+02 0.  0.
        -12    1    1    2    0    0  0.25199503314E+02  0.25218699349E+02  0.27533898685E+02  0.45045680602E+02  0.00000000000E+00 0.  1.
         11    1    3    3    0    0 -0.14900554794E+02 -0.14128871954E+02 -0.12205455905E+02  0.23887752301E+02  0.51100000000E-03 0. -1.
        -11    1    3    3    0    0 -0.25317579379E+01 -0.68032821154E+01 -0.71241048578E+01  0.10170905372E+02  0.51100000000E-03 0.  1.
        -12    1    3    3    0    0 -0.77671905819E+01 -0.42865452800E+01 -0.82043379213E+01  0.12083661726E+02  0.00000000000E+00 0.  1.
</event>
<event>
 7    1  0.2001181E-008  0.4614232E+02  0.7816164E-02  0.1320468E+00
        -11   -1    0    0    0    0  0.00000000000E+00  0.00000000000E+00  0.45593999997E+02  0.45594000000E+02  0.51100000000E-03 0.  1.
         11   -1    0    0    0    0 -0.00000000000E+00 -0.00000000000E+00 -0.45593999997E+02  0.45594000000E+02  0.51100000000E-03 0. -1.
    9900012    2    1    2    0    0  0.31440378611E+02  0.29266344748E+02 -0.13568241346E+02  0.46142317462E+02  0.99999972701E+01 0.  0.
        -12    1    1    2    0    0 -0.31440378611E+02 -0.29266344748E+02  0.13568241346E+02  0.45045682538E+02  0.00000000000E+00 0.  1.
         11    1    3    3    0    0  0.23175895490E+02  0.18609326670E+02 -0.83683351358E+01  0.30878118532E+02  0.51100000000E-03 0. -1.
        -11    1    3    3    0    0  0.79977895288E+00  0.36032610292E+01  0.13016092131E+00  0.36932476961E+01  0.51100000000E-03 0.  1.
         12    1    3    3    0    0  0.74647041675E+01  0.70537570492E+01 -0.53300671318E+01  0.11570951233E+02  0.00000000000E+00 0. -1.
</event>
<event>
 7    1  0.2001181E-008  0.4614232E+02  0.7816164E-02  0.1320468E+00
        -11   -1    0    0    0    0  0.00000000000E+00  0.00000000000E+00  0.45593999997E+02  0.45594000000E+02  0.51100000000E-03 0. -1.
         11   -1    0    0    0    0 -0.00000000000E+00 -0.00000000000E+00 -0.45593999997E+02  0.45594000000E+02  0.51100000000E-03 0.  1.
    9900012    2    1    2    0    0 -0.40788578691E+02  0.19002185981E+02 -0.20790204772E+01  0.46142317079E+02  0.99999937795E+01 0.  0.
        -12    1    1    2    0    0  0.40788578691E+02 -0.19002185981E+02  0.20790204772E+01  0.45045682921E+02  0.00000000000E+00 0.  1.
         11    1    3    3    0    0 -0.11679680796E+02  0.65080325288E+01 -0.23523041052E+01  0.13575815473E+02  0.51100000000E-03 0.  1.
        -11    1    3    3    0    0 -0.21926813890E+02  0.11509475335E+02 -0.23082500354E+01  0.24871292856E+02  0.51100000000E-03 0. -1.
        -12    1    3    3    0    0 -0.71820840049E+01  0.98467811752E+00  0.25815336635E+01  0.76952087499E+01  0.00000000000E+00 0.  1.
</event>
<event>
 7    1  0.2001181E-008  0.4614232E+02  0.7816164E-02  0.1320468E+00
        -11   -1    0    0    0    0  0.00000000000E+00  0.00000000000E+00  0.45593999997E+02  0.45594000000E+02  0.51100000000E-03 0.  1.
         11   -1    0    0    0    0 -0.00000000000E+00 -0.00000000000E+00 -0.45593999997E+02  0.45594000000E+02  0.51100000000E-03 0. -1.
    9900012    2    1    2    0    0  0.18528165200E+02 -0.69697110138E+01 -0.40462868938E+02  0.46142317188E+02  0.99999947745E+01 0.  0.
        -12    1    1    2    0    0 -0.18528165200E+02  0.69697110138E+01  0.40462868938E+02  0.45045682812E+02  0.00000000000E+00 0.  1.
         11    1    3    3    0    0  0.24320392060E+01 -0.17041534976E+01 -0.82634396300E+01  0.87808535247E+01  0.51100000000E-03 0. -1.
        -11    1    3    3    0    0 -0.19294381043E-01  0.14591063899E+01 -0.19808414434E+01  0.24603042120E+01  0.51100000000E-03 0.  1.
         12    1    3    3    0    0  0.16115420375E+02 -0.67246639062E+01 -0.30218587864E+02  0.34901159451E+02  0.00000000000E+00 0. -1.
</event>
<event>
 7    1  0.2001181E-008  0.4614232E+02  0.7816164E-02  0.1320468E+00
        -11   -1    0    0    0    0  0.00000000000E+00  0.00000000000E+00  0.45593999997E+02  0.45594000000E+02  0.51100000000E-03 0.  1.
         11   -1    0    0    0    0 -0.00000000000E+00 -0.00000000000E+00 -0.45593999997E+02  0.45594000000E+02  0.51100000000E-03 0. -1.
    9900012    2    1    2    0    0  0.12337978004E+02 -0.29615934904E+02 -0.31619364730E+02  0.46142317328E+02  0.99999960488E+01 0.  0.
        -12    1    1    2    0    0 -0.12337978004E+02  0.29615934904E+02  0.31619364730E+02  0.45045682672E+02  0.00000000000E+00 0.  1.
         11    1    3    3    0    0  0.53959014832E+01 -0.10614975911E+02 -0.12206476496E+02  0.17052610801E+02  0.51100000000E-03 0. -1.
        -11    1    3    3    0    0  0.43029293191E+01 -0.26906609373E+01 -0.36220044996E+01  0.62348836285E+01  0.51100000000E-03 0.  1.
        -12    1    3    3    0    0  0.26391472021E+01 -0.16310298055E+02 -0.15790883734E+02  0.22854822898E+02  0.00000000000E+00 0.  1.
</event>
<event>
 7    1  0.2001181E-008  0.4614232E+02  0.7816164E-02  0.1320468E+00
        -11   -1    0    0    0    0  0.00000000000E+00  0.00000000000E+00  0.45593999997E+02  0.45594000000E+02  0.51100000000E-03 0.  1.
         11   -1    0    0    0    0 -0.00000000000E+00 -0.00000000000E+00 -0.45593999997E+02  0.45594000000E+02  0.51100000000E-03 0. -1.
    9900012    2    1    2    0    0  0.13113425711E+02  0.18893121577E+02 -0.38732434056E+02  0.46142318468E+02  0.10000006446E+02 0.  0.
        -12    1    1    2    0    0 -0.13113425711E+02 -0.18893121577E+02  0.38732434056E+02  0.45045681532E+02  0.00000000000E+00 0.  1.
         11    1    3    3    0    0  0.26274019123E+01  0.45145854362E+01 -0.11676047656E+02  0.12791200554E+02  0.51100000000E-03 0. -1.
        -11    1    3    3    0    0  0.80239845622E+01  0.54221383053E+01 -0.17645501922E+02  0.20128279867E+02  0.51100000000E-03 0.  1.
         12    1    3    3    0    0  0.24620392365E+01  0.89563978353E+01 -0.94108844778E+01  0.13222838048E+02  0.00000000000E+00 0. -1.
</event>
<event>
 7    1  0.2001181E-008  0.4614232E+02  0.7816164E-02  0.1320468E+00
        -11   -1    0    0    0    0  0.00000000000E+00  0.00000000000E+00  0.45593999997E+02  0.45594000000E+02  0.51100000000E-03 0. -1.
         11   -1    0    0    0    0 -0.00000000000E+00 -0.00000000000E+00 -0.45593999997E+02  0.45594000000E+02  0.51100000000E-03 0.  1.
    9900012    2    1    2    0    0 -0.83421156182E+01  0.43420624556E+02 -0.86123087479E+01  0.46142318833E+02  0.10000009778E+02 0.  0.
        -12    1    1    2    0    0  0.83421156182E+01 -0.43420624556E+02  0.86123087479E+01  0.45045681167E+02  0.00000000000E+00 0.  1.
         11    1    3    3    0    0 -0.34752869680E+01  0.18765090463E+02 -0.46075854902E+01  0.19632526172E+02  0.51100000000E-03 0. -1.
        -11    1    3    3    0    0 -0.53112870436E+01  0.85537219685E+01 -0.21485759244E+01  0.10295256594E+02  0.51100000000E-03 0.  1.
         12    1    3    3    0    0  0.44445839339E+00  0.16101812124E+02 -0.18561473333E+01  0.16214536067E+02  0.00000000000E+00 0. -1.
</event>
<event>
 7    1  0.2001181E-008  0.4614232E+02  0.7816164E-02  0.1320468E+00
        -11   -1    0    0    0    0  0.00000000000E+00  0.00000000000E+00  0.45593999997E+02  0.45594000000E+02  0.51100000000E-03 0.  1.
         11   -1    0    0    0    0 -0.00000000000E+00 -0.00000000000E+00 -0.45593999997E+02  0.45594000000E+02  0.51100000000E-03 0. -1.
    9900012    2    1    2    0    0 -0.44538133366E+02  0.67277546256E+01 -0.45343106201E+00  0.46142316458E+02  0.99999881182E+01 0.  0.
        -12    1    1    2    0    0  0.44538133366E+02 -0.67277546256E+01  0.45343106201E+00  0.45045683542E+02  0.00000000000E+00 0.  1.
         11    1    3    3    0    0 -0.17762148002E+02  0.16283027268E+01 -0.17079165762E+01  0.17918210031E+02  0.51100000000E-03 0. -1.
        -11    1    3    3    0    0 -0.16542261078E+02  0.65253240962E+01  0.18226643739E+01  0.17875915692E+02  0.51100000000E-03 0.  1.
         12    1    3    3    0    0 -0.10233724286E+02 -0.14258721975E+01 -0.56817885968E+00  0.10348190735E+02  0.00000000000E+00 0. -1.
</event>
<event>
 7    1  0.2001181E-008  0.4614232E+02  0.7816164E-02  0.1320468E+00
        -11   -1    0    0    0    0  0.00000000000E+00  0.00000000000E+00  0.45593999997E+02  0.45594000000E+02  0.51100000000E-03 0.  1.
         11   -1    0    0    0    0 -0.00000000000E+00 -0.00000000000E+00 -0.45593999997E+02  0.45594000000E+02  0.51100000000E-03 0. -1.
    9900012    2    1    2    0    0  0.43666729721E+02  0.76656148761E+01  0.79729889781E+01  0.46142317751E+02  0.99999999116E+01 0.  0.
        -12    1    1    2    0    0 -0.43666729721E+02 -0.76656148761E+01 -0.79729889781E+01  0.45045682249E+02  0.00000000000E+00 0.  1.
         11    1    3    3    0    0  0.21724494996E+02  0.81612246407E+00  0.46554988795E+01  0.22232710334E+02  0.51100000000E-03 0. -1.
        -11    1    3    3    0    0  0.97447070241E+01  0.41162036234E+01  0.41927079225E+01  0.11378982698E+02  0.51100000000E-03 0.  1.
         12    1    3    3    0    0  0.12197527702E+02  0.27332887886E+01 -0.87521782388E+00  0.12530624720E+02  0.00000000000E+00 0. -1.
</event>
<event>
 7    1  0.2001181E-008  0.4614232E+02  0.7816164E-02  0.1320468E+00
        -11   -1    0    0    0    0  0.00000000000E+00  0.00000000000E+00  0.45593999997E+02  0.45594000000E+02  0.51100000000E-03 0.  1.
         11   -1    0    0    0    0 -0.00000000000E+00 -0.00000000000E+00 -0.45593999997E+02  0.45594000000E+02  0.51100000000E-03 0. -1.
    9900012    2    1    2    0    0  0.10945112464E+02  0.42542170941E+02 -0.99740489055E+01  0.46142318222E+02  0.10000004204E+02 0.  0.
        -12    1    1    2    0    0 -0.10945112464E+02 -0.42542170941E+02  0.99740489055E+01  0.45045681778E+02  0.00000000000E+00 0.  1.
         11    1    3    3    0    0  0.12055478374E+01  0.70861357769E+01 -0.18276720967E+01  0.74166738766E+01  0.51100000000E-03 0. -1.
        -11    1    3    3    0    0 -0.16576958224E+01  0.28484978136E+01 -0.10807454612E+01  0.34684155240E+01  0.51100000000E-03 0.  1.
         12    1    3    3    0    0  0.11397260449E+02  0.32607537351E+02 -0.70656313477E+01  0.35257228822E+02  0.00000000000E+00 0. -1.
</event>
<event>
 7    1  0.2001181E-008  0.4614232E+02  0.7816164E-02  0.1320468E+00
        -11   -1    0    0    0    0  0.00000000000E+00  0.00000000000E+00  0.45593999997E+02  0.45594000000E+02  0.51100000000E-03 0.  1.
         11   -1    0    0    0    0 -0.00000000000E+00 -0.00000000000E+00 -0.45593999997E+02  0.45594000000E+02  0.51100000000E-03 0. -1.
    9900012    2    1    2    0    0  0.30290226223E+02  0.23919616043E+02 -0.23226443392E+02  0.46142317533E+02  0.99999979225E+01 0.  0.
        -12    1    1    2    0    0 -0.30290226223E+02 -0.23919616043E+02  0.23226443392E+02  0.45045682467E+02  0.00000000000E+00 0.  1.
         11    1    3    3    0    0  0.36598643255E+01  0.58850620099E+01 -0.71828101488E+01  0.99810482234E+01  0.51100000000E-03 0. -1.
        -11    1    3    3    0    0  0.10264526160E+02  0.54272090158E+01 -0.41934494334E+01  0.12345044083E+02  0.51100000000E-03 0.  1.
         12    1    3    3    0    0  0.16365835737E+02  0.12607345017E+02 -0.11850183810E+02  0.23816225227E+02  0.00000000000E+00 0. -1.
</event>
<event>
 7    1  0.2001181E-008  0.4614232E+02  0.7816164E-02  0.1320468E+00
        -11   -1    0    0    0    0  0.00000000000E+00  0.00000000000E+00  0.45593999997E+02  0.45594000000E+02  0.51100000000E-03 0.  1.
         11   -1    0    0    0    0 -0.00000000000E+00 -0.00000000000E+00 -0.45593999997E+02  0.45594000000E+02  0.51100000000E-03 0. -1.
    9900012    2    1    2    0    0  0.12504930445E+02 -0.16118522948E+02 -0.40161342969E+02  0.46142317227E+02  0.99999951251E+01 0.  0.
        -12    1    1    2    0    0 -0.12504930445E+02  0.16118522948E+02  0.40161342969E+02  0.45045682773E+02  0.00000000000E+00 0.  1.
         11    1    3    3    0    0  0.16655318758E+01 -0.31587793890E+01 -0.10081616609E+02  0.10695367099E+02  0.51100000000E-03 0. -1.
        -11    1    3    3    0    0  0.11841398252E+01 -0.76175694170E+01 -0.11807801811E+02  0.14101550795E+02  0.51100000000E-03 0.  1.
        -12    1    3    3    0    0  0.96552587437E+01 -0.53421741416E+01 -0.18271924549E+02  0.21345399333E+02  0.00000000000E+00 0.  1.
</event>
<event>
 7    1  0.2001181E-008  0.4614232E+02  0.7816164E-02  0.1320468E+00
        -11   -1    0    0    0    0  0.00000000000E+00  0.00000000000E+00  0.45593999997E+02  0.45594000000E+02  0.51100000000E-03 0.  1.
         11   -1    0    0    0    0 -0.00000000000E+00 -0.00000000000E+00 -0.45593999997E+02  0.45594000000E+02  0.51100000000E-03 0. -1.
    9900012    2    1    2    0    0 -0.14730707467E+02  0.38633939123E+02 -0.17875637657E+02  0.46142318561E+02  0.10000007297E+02 0.  0.
        -12    1    1    2    0    0  0.14730707467E+02 -0.38633939123E+02  0.17875637657E+02  0.45045681439E+02  0.00000000000E+00 0.  1.
         11    1    3    3    0    0 -0.48388814762E+01  0.47683488038E+01 -0.22428327621E+01  0.71541752366E+01  0.51100000000E-03 0. -1.
        -11    1    3    3    0    0 -0.26482087310E+01  0.29580736183E+01 -0.16249295606E+01  0.42899423484E+01  0.51100000000E-03 0.  1.
         12    1    3    3    0    0 -0.72436172598E+01  0.30907516701E+02 -0.14007875334E+02  0.34698200976E+02  0.00000000000E+00 0. -1.
</event>
<event>
 7    1  0.2001181E-008  0.4614232E+02  0.7816164E-02  0.1320468E+00
        -11   -1    0    0    0    0  0.00000000000E+00  0.00000000000E+00  0.45593999997E+02  0.45594000000E+02  0.51100000000E-03 0.  1.
         11   -1    0    0    0    0 -0.00000000000E+00 -0.00000000000E+00 -0.45593999997E+02  0.45594000000E+02  0.51100000000E-03 0. -1.
    9900012    2    1    2    0    0 -0.10927071817E+02 -0.35756674102E+02 -0.25123154863E+02  0.46142317060E+02  0.99999936048E+01 0.  0.
        -12    1    1    2    0    0  0.10927071817E+02  0.35756674102E+02  0.25123154863E+02  0.45045682940E+02  0.00000000000E+00 0.  1.
         11    1    3    3    0    0 -0.32728827364E+01 -0.56272356154E+01 -0.40251541707E+01  0.76537186019E+01  0.51100000000E-03 0. -1.
        -11    1    3    3    0    0 -0.57363386860E+01 -0.81139364677E+01 -0.48361028104E+01  0.11051218809E+02  0.51100000000E-03 0.  1.
        -12    1    3    3    0    0 -0.19178503945E+01 -0.22015502019E+02 -0.16261897881E+02  0.27437379648E+02  0.00000000000E+00 0.  1.
</event>
<event>
 7    1  0.2001181E-008  0.4614232E+02  0.7816164E-02  0.1320468E+00
        -11   -1    0    0    0    0  0.00000000000E+00  0.00000000000E+00  0.45593999997E+02  0.45594000000E+02  0.51100000000E-03 0.  1.
         11   -1    0    0    0    0 -0.00000000000E+00 -0.00000000000E+00 -0.45593999997E+02  0.45594000000E+02  0.51100000000E-03 0. -1.
    9900012    2    1    2    0    0 -0.28257636805E+02  0.32178796478E+02  0.13969406967E+02  0.46142319723E+02  0.10000017888E+02 0.  0.
        -12    1    1    2    0    0  0.28257636805E+02 -0.32178796478E+02 -0.13969406967E+02  0.45045680277E+02  0.00000000000E+00 0.  1.
         11    1    3    3    0    0 -0.32322327714E+01  0.30531153479E+01  0.26068277197E+00  0.44538520165E+01  0.51100000000E-03 0. -1.
        -11    1    3    3    0    0 -0.22689943887E+02  0.28254166230E+02  0.14562152681E+02  0.39053652248E+02  0.51100000000E-03 0.  1.
        -12    1    3    3    0    0 -0.23354601472E+01  0.87151490092E+00 -0.85342848540E+00  0.26348154587E+01  0.00000000000E+00 0.  1.
</event>
<event>
 7    1  0.2001181E-008  0.4614232E+02  0.7816164E-02  0.1320468E+00
        -11   -1    0    0    0    0  0.00000000000E+00  0.00000000000E+00  0.45593999997E+02  0.45594000000E+02  0.51100000000E-03 0.  1.
         11   -1    0    0    0    0 -0.00000000000E+00 -0.00000000000E+00 -0.45593999997E+02  0.45594000000E+02  0.51100000000E-03 0. -1.
    9900012    2    1    2    0    0  0.19384987968E+02  0.28227623161E+02 -0.29266654007E+02  0.46142317581E+02  0.99999983593E+01 0.  0.
        -12    1    1    2    0    0 -0.19384987968E+02 -0.28227623161E+02  0.29266654007E+02  0.45045682419E+02  0.00000000000E+00 0.  1.
         11    1    3    3    0    0  0.68969669669E+00  0.27248351028E+01 -0.52079040364E+01  0.59179956560E+01  0.51100000000E-03 0.  1.
        -11    1    3    3    0    0  0.13588518963E+02  0.20451155161E+02 -0.21380786029E+02  0.32558188010E+02  0.51100000000E-03 0. -1.
         12    1    3    3    0    0  0.51067723077E+01  0.50516328974E+01 -0.26779639416E+01  0.76661339152E+01  0.00000000000E+00 0. -1.
</event>
<event>
 7    1  0.2001181E-008  0.4614232E+02  0.7816164E-02  0.1320468E+00
        -11   -1    0    0    0    0  0.00000000000E+00  0.00000000000E+00  0.45593999997E+02  0.45594000000E+02  0.51100000000E-03 0. -1.
         11   -1    0    0    0    0 -0.00000000000E+00 -0.00000000000E+00 -0.45593999997E+02  0.45594000000E+02  0.51100000000E-03 0.  1.
    9900012    2    1    2    0    0  0.24398360631E+02 -0.31514564870E+02  0.20992040813E+02  0.46142316767E+02  0.99999909331E+01 0.  0.
        -12    1    1    2    0    0 -0.24398360631E+02  0.31514564870E+02 -0.20992040813E+02  0.45045683233E+02  0.00000000000E+00 0.  1.
         11    1    3    3    0    0  0.14787589310E+02 -0.15278634132E+02  0.88080612000E+01  0.23015025546E+02  0.51100000000E-03 0. -1.
        -11    1    3    3    0    0 -0.57368031954E-01 -0.41882610004E+01  0.21618036203E+01  0.47136203127E+01  0.51100000000E-03 0.  1.
        -12    1    3    3    0    0  0.96681393535E+01 -0.12047669738E+02  0.10022175993E+02  0.18413670908E+02  0.00000000000E+00 0.  1.
</event>
<event>
 7    1  0.2001181E-008  0.4614232E+02  0.7816164E-02  0.1320468E+00
        -11   -1    0    0    0    0  0.00000000000E+00  0.00000000000E+00  0.45593999997E+02  0.45594000000E+02  0.51100000000E-03 0. -1.
         11   -1    0    0    0    0 -0.00000000000E+00 -0.00000000000E+00 -0.45593999997E+02  0.45594000000E+02  0.51100000000E-03 0.  1.
    9900012    2    1    2    0    0 -0.10452700759E+01  0.33660726405E+02  0.29916156536E+02  0.46142317482E+02  0.99999974512E+01 0.  0.
        -12    1    1    2    0    0  0.10452700759E+01 -0.33660726405E+02 -0.29916156536E+02  0.45045682518E+02  0.00000000000E+00 0.  1.
         11    1    3    3    0    0  0.18477524247E+00  0.25433309008E+02  0.19005966187E+02  0.31750812587E+02  0.51100000000E-03 0. -1.
        -11    1    3    3    0    0  0.10087629039E+01  0.49823550110E+01  0.80504922118E+01  0.95211285657E+01  0.51100000000E-03 0.  1.
        -12    1    3    3    0    0 -0.22388082222E+01  0.32450623864E+01  0.28596981369E+01  0.48703763286E+01  0.00000000000E+00 0.  1.
</event>
<event>
 7    1  0.2001181E-008  0.4614232E+02  0.7816164E-02  0.1320468E+00
        -11   -1    0    0    0    0  0.00000000000E+00  0.00000000000E+00  0.45593999997E+02  0.45594000000E+02  0.51100000000E-03 0.  1.
         11   -1    0    0    0    0 -0.00000000000E+00 -0.00000000000E+00 -0.45593999997E+02  0.45594000000E+02  0.51100000000E-03 0. -1.
    9900012    2    1    2    0    0 -0.28022800938E+02  0.30401609862E+01 -0.35136782784E+02  0.46142318124E+02  0.10000003309E+02 0.  0.
        -12    1    1    2    0    0  0.28022800938E+02 -0.30401609862E+01  0.35136782784E+02  0.45045681876E+02  0.00000000000E+00 0.  1.
         11    1    3    3    0    0 -0.40746408923E+01 -0.17271104188E+00 -0.90058343034E+01  0.98862318031E+01  0.51100000000E-03 0. -1.
        -11    1    3    3    0    0 -0.34093407621E+01  0.87908897021E+00 -0.80767301796E+01  0.88107872806E+01  0.51100000000E-03 0.  1.
         12    1    3    3    0    0 -0.20538819284E+02  0.23337830578E+01 -0.18054218301E+02  0.27445299040E+02  0.00000000000E+00 0. -1.
</event>
<event>
 7    1  0.2001181E-008  0.4614232E+02  0.7816164E-02  0.1320468E+00
        -11   -1    0    0    0    0  0.00000000000E+00  0.00000000000E+00  0.45593999997E+02  0.45594000000E+02  0.51100000000E-03 0. -1.
         11   -1    0    0    0    0 -0.00000000000E+00 -0.00000000000E+00 -0.45593999997E+02  0.45594000000E+02  0.51100000000E-03 0.  1.
    9900012    2    1    2    0    0 -0.14907360438E+02 -0.42274665665E+02 -0.44426048165E+01  0.46142317745E+02  0.99999998502E+01 0.  0.
        -12    1    1    2    0    0  0.14907360438E+02  0.42274665665E+02  0.44426048165E+01  0.45045682255E+02  0.00000000000E+00 0.  1.
         11    1    3    3    0    0 -0.94023562054E+01 -0.24199544124E+02 -0.27339892480E+01  0.26105496269E+02  0.51100000000E-03 0. -1.
        -11    1    3    3    0    0 -0.57241035685E+01 -0.95740477514E+01 -0.26957118983E+01  0.11475827417E+02  0.51100000000E-03 0.  1.
        -12    1    3    3    0    0  0.21909933607E+00 -0.85010737897E+01  0.98709632979E+00  0.85609940580E+01  0.00000000000E+00 0.  1.
</event>
<event>
 7    1  0.2001181E-008  0.4614232E+02  0.7816164E-02  0.1320468E+00
        -11   -1    0    0    0    0  0.00000000000E+00  0.00000000000E+00  0.45593999997E+02  0.45594000000E+02  0.51100000000E-03 0.  1.
         11   -1    0    0    0    0 -0.00000000000E+00 -0.00000000000E+00 -0.45593999997E+02  0.45594000000E+02  0.51100000000E-03 0. -1.
    9900012    2    1    2    0    0 -0.25360156789E+02 -0.27025305713E+02 -0.25604858341E+02  0.46142317944E+02  0.10000001667E+02 0.  0.
        -12    1    1    2    0    0  0.25360156789E+02  0.27025305713E+02  0.25604858341E+02  0.45045682056E+02  0.00000000000E+00 0.  1.
         11    1    3    3    0    0 -0.20573986997E+02 -0.19703170561E+02 -0.19192965618E+02  0.34349291122E+02  0.51100000000E-03 0. -1.
        -11    1    3    3    0    0 -0.51494126310E+01 -0.77278932242E+01 -0.56980406460E+01  0.10895157254E+02  0.51100000000E-03 0.  1.
        -12    1    3    3    0    0  0.36324283947E+00  0.40575807165E+00 -0.71385207702E+00  0.89786956792E+00  0.00000000000E+00 0.  1.
</event>
<event>
 7    1  0.2001181E-008  0.4614232E+02  0.7816164E-02  0.1320468E+00
        -11   -1    0    0    0    0  0.00000000000E+00  0.00000000000E+00  0.45593999997E+02  0.45594000000E+02  0.51100000000E-03 0. -1.
         11   -1    0    0    0    0 -0.00000000000E+00 -0.00000000000E+00 -0.45593999997E+02  0.45594000000E+02  0.51100000000E-03 0.  1.
    9900012    2    1    2    0    0  0.21448411091E+02  0.37252745464E+02  0.13465214761E+02  0.46142318836E+02  0.10000009805E+02 0.  0.
        -12    1    1    2    0    0 -0.21448411091E+02 -0.37252745464E+02 -0.13465214761E+02  0.45045681164E+02  0.00000000000E+00 0.  1.
         11    1    3    3    0    0 -0.35718981606E+00  0.30559330668E+00  0.87842343884E-01  0.47821373076E+00  0.51100000000E-03 0.  1.
        -11    1    3    3    0    0  0.18919616267E+02  0.26780889660E+02  0.77580335234E+01  0.33695029531E+02  0.51100000000E-03 0. -1.
         12    1    3    3    0    0  0.28859846397E+01  0.10166262497E+02  0.56193388938E+01  0.11969075575E+02  0.00000000000E+00 0. -1.
</event>
<event>
 7    1  0.2001181E-008  0.4614232E+02  0.7816164E-02  0.1320468E+00
        -11   -1    0    0    0    0  0.00000000000E+00  0.00000000000E+00  0.45593999997E+02  0.45594000000E+02  0.51100000000E-03 0. -1.
         11   -1    0    0    0    0 -0.00000000000E+00 -0.00000000000E+00 -0.45593999997E+02  0.45594000000E+02  0.51100000000E-03 0.  1.
    9900012    2    1    2    0    0 -0.27499450048E+02  0.30521493498E+02  0.18475178096E+02  0.46142317366E+02  0.99999963983E+01 0.  0.
        -12    1    1    2    0    0  0.27499450048E+02 -0.30521493498E+02 -0.18475178096E+02  0.45045682634E+02  0.00000000000E+00 0.  1.
         11    1    3    3    0    0 -0.21170039406E+02  0.19647981707E+02  0.14420855832E+02  0.32282732796E+02  0.51100000000E-03 0. -1.
        -11    1    3    3    0    0 -0.13160939090E+01  0.64852094693E-01  0.17513372694E+00  0.13292783964E+01  0.51100000000E-03 0.  1.
         12    1    3    3    0    0 -0.50133167327E+01  0.10808659697E+02  0.38791885370E+01  0.12530306174E+02  0.00000000000E+00 0. -1.
</event>
<event>
 7    1  0.2001181E-008  0.4614232E+02  0.7816164E-02  0.1320468E+00
        -11   -1    0    0    0    0  0.00000000000E+00  0.00000000000E+00  0.45593999997E+02  0.45594000000E+02  0.51100000000E-03 0.  1.
         11   -1    0    0    0    0 -0.00000000000E+00 -0.00000000000E+00 -0.45593999997E+02  0.45594000000E+02  0.51100000000E-03 0. -1.
    9900012    2    1    2    0    0 -0.63898567968E+01 -0.75727723623E+01 -0.43942420709E+02  0.46142317755E+02  0.99999999487E+01 0.  0.
        -12    1    1    2    0    0  0.63898567968E+01  0.75727723623E+01  0.43942420709E+02  0.45045682245E+02  0.00000000000E+00 0.  1.
         11    1    3    3    0    0 -0.36819969197E+01 -0.15808217403E+01 -0.12526314731E+02  0.13151602932E+02  0.51100000000E-03 0. -1.
        -11    1    3    3    0    0 -0.20053794299E+01  0.88572835847E+00 -0.28262035097E+01  0.35767985577E+01  0.51100000000E-03 0.  1.
        -12    1    3    3    0    0 -0.70248044720E+00 -0.68776789805E+01 -0.28589902468E+02  0.29413916266E+02  0.00000000000E+00 0.  1.
</event>
<event>
 7    1  0.2001181E-008  0.4614232E+02  0.7816164E-02  0.1320468E+00
        -11   -1    0    0    0    0  0.00000000000E+00  0.00000000000E+00  0.45593999997E+02  0.45594000000E+02  0.51100000000E-03 0.  1.
         11   -1    0    0    0    0 -0.00000000000E+00 -0.00000000000E+00 -0.45593999997E+02  0.45594000000E+02  0.51100000000E-03 0. -1.
    9900012    2    1    2    0    0  0.20426106035E+01 -0.44229622616E+02 -0.82874534020E+01  0.46142315870E+02  0.99999827548E+01 0.  0.
        -12    1    1    2    0    0 -0.20426106035E+01  0.44229622616E+02  0.82874534020E+01  0.45045684130E+02  0.00000000000E+00 0.  1.
         11    1    3    3    0    0  0.46673836681E+01 -0.14427840739E+02 -0.13230627909E+01  0.15221614701E+02  0.51100000000E-03 0.  1.
        -11    1    3    3    0    0 -0.15868871324E+01 -0.12661305991E+02 -0.12429522205E+01  0.12820757024E+02  0.51100000000E-03 0. -1.
        -12    1    3    3    0    0 -0.10378859322E+01 -0.17140475886E+02 -0.57214383906E+01  0.18099944146E+02  0.00000000000E+00 0.  1.
</event>
<event>
 7    1  0.2001181E-008  0.4614232E+02  0.7816164E-02  0.1320468E+00
        -11   -1    0    0    0    0  0.00000000000E+00  0.00000000000E+00  0.45593999997E+02  0.45594000000E+02  0.51100000000E-03 0. -1.
         11   -1    0    0    0    0 -0.00000000000E+00 -0.00000000000E+00 -0.45593999997E+02  0.45594000000E+02  0.51100000000E-03 0.  1.
    9900012    2    1    2    0    0  0.25354816296E+02  0.24017075559E+02  0.28450424674E+02  0.46142319941E+02  0.10000019880E+02 0.  0.
        -12    1    1    2    0    0 -0.25354816296E+02 -0.24017075559E+02 -0.28450424674E+02  0.45045680059E+02  0.00000000000E+00 0.  1.
         11    1    3    3    0    0  0.20442837675E+02  0.21036997738E+02  0.25675138721E+02  0.38983042911E+02  0.51100000000E-03 0. -1.
        -11    1    3    3    0    0  0.35728237629E+01  0.36330896786E+01  0.23397589218E+01  0.56070386415E+01  0.51100000000E-03 0.  1.
        -12    1    3    3    0    0  0.13391548579E+01 -0.65301185724E+00  0.43552703127E+00  0.15522383883E+01  0.00000000000E+00 0.  1.
</event>
<event>
 7    1  0.2001181E-008  0.4614232E+02  0.7816164E-02  0.1320468E+00
        -11   -1    0    0    0    0  0.00000000000E+00  0.00000000000E+00  0.45593999997E+02  0.45594000000E+02  0.51100000000E-03 0. -1.
         11   -1    0    0    0    0 -0.00000000000E+00 -0.00000000000E+00 -0.45593999997E+02  0.45594000000E+02  0.51100000000E-03 0.  1.
    9900012    2    1    2    0    0  0.29441911099E+02 -0.65722381437E+01  0.33452849023E+02  0.46142317064E+02  0.99999936419E+01 0.  0.
        -12    1    1    2    0    0 -0.29441911099E+02  0.65722381437E+01 -0.33452849023E+02  0.45045682936E+02  0.00000000000E+00 0.  1.
         11    1    3    3    0    0  0.10930556711E+02 -0.76252879678E+00  0.13056175610E+02  0.17044713022E+02  0.51100000000E-03 0. -1.
        -11    1    3    3    0    0  0.81713678791E+01 -0.74379975700E+00  0.13127172707E+02  0.15480541161E+02  0.51100000000E-03 0.  1.
         12    1    3    3    0    0  0.10339986509E+02 -0.50659095900E+01  0.72695007064E+01  0.13617062881E+02  0.00000000000E+00 0. -1.
</event>
<event>
 7    1  0.2001181E-008  0.4614232E+02  0.7816164E-02  0.1320468E+00
        -11   -1    0    0    0    0  0.00000000000E+00  0.00000000000E+00  0.45593999997E+02  0.45594000000E+02  0.51100000000E-03 0.  1.
         11   -1    0    0    0    0 -0.00000000000E+00 -0.00000000000E+00 -0.45593999997E+02  0.45594000000E+02  0.51100000000E-03 0. -1.
    9900012    2    1    2    0    0 -0.23441100113E+02 -0.21671873665E+02 -0.31779838913E+02  0.46142318253E+02  0.10000004488E+02 0.  0.
        -12    1    1    2    0    0  0.23441100113E+02  0.21671873665E+02  0.31779838913E+02  0.45045681747E+02  0.00000000000E+00 0.  1.
         11    1    3    3    0    0 -0.14759065907E+01 -0.55211999747E+01 -0.68907494574E+01  0.89523392346E+01  0.51100000000E-03 0. -1.
        -11    1    3    3    0    0 -0.15206729341E+02 -0.89885521061E+01 -0.17621567952E+02  0.24951119085E+02  0.51100000000E-03 0.  1.
         12    1    3    3    0    0 -0.67584641809E+01 -0.71621215844E+01 -0.72675215040E+01  0.12238859934E+02  0.00000000000E+00 0. -1.
</event>
<event>
 7    1  0.2001181E-008  0.4614232E+02  0.7816164E-02  0.1320468E+00
        -11   -1    0    0    0    0  0.00000000000E+00  0.00000000000E+00  0.45593999997E+02  0.45594000000E+02  0.51100000000E-03 0. -1.
         11   -1    0    0    0    0 -0.00000000000E+00 -0.00000000000E+00 -0.45593999997E+02  0.45594000000E+02  0.51100000000E-03 0.  1.
    9900012    2    1    2    0    0  0.27526532689E+02  0.17840452710E+02  0.30872668417E+02  0.46142318631E+02  0.10000007935E+02 0.  0.
        -12    1    1    2    0    0 -0.27526532689E+02 -0.17840452710E+02 -0.30872668417E+02  0.45045681369E+02  0.00000000000E+00 0.  1.
         11    1    3    3    0    0  0.19992594493E+02  0.13787191149E+02  0.22182384854E+02  0.32891468079E+02  0.51100000000E-03 0. -1.
        -11    1    3    3    0    0  0.59332990541E+01  0.39584033010E+01  0.91323179058E+01  0.11587589264E+02  0.51100000000E-03 0.  1.
        -12    1    3    3    0    0  0.16006391422E+01  0.94858260510E-01 -0.44203434266E+00  0.16632612883E+01  0.00000000000E+00 0.  1.
</event>
<event>
 7    1  0.2001181E-008  0.4614232E+02  0.7816164E-02  0.1320468E+00
        -11   -1    0    0    0    0  0.00000000000E+00  0.00000000000E+00  0.45593999997E+02  0.45594000000E+02  0.51100000000E-03 0.  1.
         11   -1    0    0    0    0 -0.00000000000E+00 -0.00000000000E+00 -0.45593999997E+02  0.45594000000E+02  0.51100000000E-03 0. -1.
    9900012    2    1    2    0    0  0.21887593698E+02  0.51970825847E+01 -0.39026106908E+02  0.46142318235E+02  0.10000004322E+02 0.  0.
        -12    1    1    2    0    0 -0.21887593698E+02 -0.51970825847E+01  0.39026106908E+02  0.45045681765E+02  0.00000000000E+00 0.  1.
         11    1    3    3    0    0  0.62805790460E+01  0.36396197733E+01 -0.16007121128E+02  0.17576132462E+02  0.51100000000E-03 0.  1.
        -11    1    3    3    0    0  0.10865697657E+02  0.38306229058E+01 -0.14052166332E+02  0.18171418115E+02  0.51100000000E-03 0. -1.
         12    1    3    3    0    0  0.47413169948E+01 -0.22731600944E+01 -0.89668194472E+01  0.10394767658E+02  0.00000000000E+00 0. -1.
</event>
<event>
 7    1  0.2001181E-008  0.4614232E+02  0.7816164E-02  0.1320468E+00
        -11   -1    0    0    0    0  0.00000000000E+00  0.00000000000E+00  0.45593999997E+02  0.45594000000E+02  0.51100000000E-03 0. -1.
         11   -1    0    0    0    0 -0.00000000000E+00 -0.00000000000E+00 -0.45593999997E+02  0.45594000000E+02  0.51100000000E-03 0.  1.
    9900012    2    1    2    0    0  0.32948610937E+02  0.30549345548E+02  0.32000023348E+01  0.46142317731E+02  0.99999997278E+01 0.  0.
        -12    1    1    2    0    0 -0.32948610937E+02 -0.30549345548E+02 -0.32000023348E+01  0.45045682269E+02  0.00000000000E+00 0.  1.
         11    1    3    3    0    0  0.23851383596E+02  0.25315707908E+02  0.16204030507E+01  0.34819524302E+02  0.51100000000E-03 0. -1.
        -11    1    3    3    0    0  0.99706907771E+00  0.17945516522E+01 -0.80549355198E+00  0.22053078020E+01  0.51100000000E-03 0.  1.
         12    1    3    3    0    0  0.81001582633E+01  0.34390859885E+01  0.23850928361E+01  0.91174856273E+01  0.00000000000E+00 0. -1.
</event>
<event>
 7    1  0.2001181E-008  0.4614232E+02  0.7816164E-02  0.1320468E+00
        -11   -1    0    0    0    0  0.00000000000E+00  0.00000000000E+00  0.45593999997E+02  0.45594000000E+02  0.51100000000E-03 0. -1.
         11   -1    0    0    0    0 -0.00000000000E+00 -0.00000000000E+00 -0.45593999997E+02  0.45594000000E+02  0.51100000000E-03 0.  1.
    9900012    2    1    2    0    0 -0.32649631394E+02  0.29840644146E+02  0.85235554589E+01  0.46142317955E+02  0.10000001772E+02 0.  0.
        -12    1    1    2    0    0  0.32649631394E+02 -0.29840644146E+02 -0.85235554589E+01  0.45045682045E+02  0.00000000000E+00 0.  1.
         11    1    3    3    0    0 -0.13870147336E+02  0.15313657733E+02  0.46402075949E+01  0.21175944538E+02  0.51100000000E-03 0. -1.
        -11    1    3    3    0    0 -0.10729507889E+02  0.11784903680E+02  0.41106475237E+01  0.16459153004E+02  0.51100000000E-03 0.  1.
        -12    1    3    3    0    0 -0.80499761684E+01  0.27420827336E+01 -0.22729965973E+00  0.85072204136E+01  0.00000000000E+00 0.  1.
</event>
<event>
 7    1  0.2001181E-008  0.4614233E+02  0.7816164E-02  0.1320468E+00
        -11   -1    0    0    0    0  0.00000000000E+00  0.00000000000E+00  0.45593999997E+02  0.45594000000E+02  0.51100000000E-03 0.  1.
         11   -1    0    0    0    0 -0.00000000000E+00 -0.00000000000E+00 -0.45593999997E+02  0.45594000000E+02  0.51100000000E-03 0. -1.
    9900012    2    1    2    0    0  0.39432215430E+02  0.13850362674E+01 -0.21732340584E+02  0.46142327994E+02  0.10000093316E+02 0.  0.
        -12    1    1    2    0    0 -0.39432215430E+02 -0.13850362674E+01  0.21732340584E+02  0.45045672006E+02  0.00000000000E+00 0.  1.
         11    1    3    3    0    0  0.15357870201E+02  0.39849529272E+00 -0.10206876156E+02  0.18444600747E+02  0.51100000000E-03 0. -1.
        -11    1    3    3    0    0  0.10087580553E+02  0.38971642242E+01 -0.38433358747E+01  0.11476863740E+02  0.51100000000E-03 0.  1.
        -12    1    3    3    0    0  0.13986764677E+02 -0.29106232495E+01 -0.76821285530E+01  0.16220863507E+02  0.00000000000E+00 0.  1.
</event>
<event>
 7    1  0.2001181E-008  0.4614232E+02  0.7816164E-02  0.1320468E+00
        -11   -1    0    0    0    0  0.00000000000E+00  0.00000000000E+00  0.45593999997E+02  0.45594000000E+02  0.51100000000E-03 0. -1.
         11   -1    0    0    0    0 -0.00000000000E+00 -0.00000000000E+00 -0.45593999997E+02  0.45594000000E+02  0.51100000000E-03 0.  1.
    9900012    2    1    2    0    0 -0.43871089597E+02 -0.87465058803E+01 -0.52857960182E+01  0.46142317553E+02  0.99999981063E+01 0.  0.
        -12    1    1    2    0    0  0.43871089597E+02  0.87465058803E+01  0.52857960182E+01  0.45045682447E+02  0.00000000000E+00 0.  1.
         11    1    3    3    0    0 -0.45314044537E+01 -0.14311279231E+00 -0.19950057064E+01  0.49531965057E+01  0.51100000000E-03 0. -1.
        -11    1    3    3    0    0 -0.10402727304E+02 -0.23826329093E+01  0.26603798598E+01  0.10998695205E+02  0.51100000000E-03 0.  1.
        -12    1    3    3    0    0 -0.28936957839E+02 -0.62207601786E+01 -0.59511701716E+01  0.30190425843E+02  0.00000000000E+00 0.  1.
</event>
<event>
 7    1  0.2001181E-008  0.4614232E+02  0.7816164E-02  0.1320468E+00
        -11   -1    0    0    0    0  0.00000000000E+00  0.00000000000E+00  0.45593999997E+02  0.45594000000E+02  0.51100000000E-03 0. -1.
         11   -1    0    0    0    0 -0.00000000000E+00 -0.00000000000E+00 -0.45593999997E+02  0.45594000000E+02  0.51100000000E-03 0.  1.
    9900012    2    1    2    0    0 -0.26454365512E+02  0.30870667837E+02  0.19397987368E+02  0.46142317619E+02  0.99999986997E+01 0.  0.
        -12    1    1    2    0    0  0.26454365512E+02 -0.30870667837E+02 -0.19397987368E+02  0.45045682381E+02  0.00000000000E+00 0.  1.
         11    1    3    3    0    0 -0.11077441450E+02  0.16850646647E+02  0.11748040418E+02  0.23338175923E+02  0.51100000000E-03 0. -1.
        -11    1    3    3    0    0 -0.14056615493E+02  0.12896599839E+02  0.84868621754E+01  0.20879117710E+02  0.51100000000E-03 0.  1.
        -12    1    3    3    0    0 -0.13203085681E+01  0.11234213511E+01 -0.83691522572E+00  0.19250239848E+01  0.00000000000E+00 0.  1.
</event>
<event>
 7    1  0.2001181E-008  0.4614232E+02  0.7816164E-02  0.1320468E+00
        -11   -1    0    0    0    0  0.00000000000E+00  0.00000000000E+00  0.45593999997E+02  0.45594000000E+02  0.51100000000E-03 0. -1.
         11   -1    0    0    0    0 -0.00000000000E+00 -0.00000000000E+00 -0.45593999997E+02  0.45594000000E+02  0.51100000000E-03 0.  1.
    9900012    2    1    2    0    0 -0.42639815775E+02  0.78782555203E+01  0.12202160545E+02  0.46142317395E+02  0.99999966625E+01 0.  0.
        -12    1    1    2    0    0  0.42639815775E+02 -0.78782555203E+01 -0.12202160545E+02  0.45045682605E+02  0.00000000000E+00 0.  1.
         11    1    3    3    0    0 -0.16693069060E+02  0.28021186145E+01  0.57165942449E+01  0.17865885743E+02  0.51100000000E-03 0. -1.
        -11    1    3    3    0    0 -0.10859741264E+01  0.19321492884E+01 -0.47947295683E+00  0.22676938183E+01  0.51100000000E-03 0.  1.
        -12    1    3    3    0    0 -0.24860772589E+02  0.31439876174E+01  0.69650392568E+01  0.26008737834E+02  0.00000000000E+00 0.  1.
</event>
<event>
 7    1  0.2001181E-008  0.4614232E+02  0.7816164E-02  0.1320468E+00
        -11   -1    0    0    0    0  0.00000000000E+00  0.00000000000E+00  0.45593999997E+02  0.45594000000E+02  0.51100000000E-03 0.  1.
         11   -1    0    0    0    0 -0.00000000000E+00 -0.00000000000E+00 -0.45593999997E+02  0.45594000000E+02  0.51100000000E-03 0. -1.
    9900012    2    1    2    0    0 -0.28527584169E+02  0.14877250283E+02 -0.31527097686E+02  0.46142317377E+02  0.99999964984E+01 0.  0.
        -12    1    1    2    0    0  0.28527584169E+02 -0.14877250283E+02  0.31527097686E+02  0.45045682623E+02  0.00000000000E+00 0.  1.
         11    1    3    3    0    0 -0.50127832239E+01  0.16427481881E+01 -0.11427424381E+01  0.53974510465E+01  0.51100000000E-03 0.  1.
        -11    1    3    3    0    0 -0.35651136429E+01  0.27847393285E+01 -0.38378268119E+01  0.59324297984E+01  0.51100000000E-03 0. -1.
        -12    1    3    3    0    0 -0.19949687302E+02  0.10449762766E+02 -0.26546528436E+02  0.34812436532E+02  0.00000000000E+00 0.  1.
</event>
<event>
 7    1  0.2001181E-008  0.4614232E+02  0.7816164E-02  0.1320468E+00
        -11   -1    0    0    0    0  0.00000000000E+00  0.00000000000E+00  0.45593999997E+02  0.45594000000E+02  0.51100000000E-03 0.  1.
         11   -1    0    0    0    0 -0.00000000000E+00 -0.00000000000E+00 -0.45593999997E+02  0.45594000000E+02  0.51100000000E-03 0. -1.
    9900012    2    1    2    0    0 -0.38401178666E+02  0.13011731092E+02 -0.19625441850E+02  0.46142316113E+02  0.99999849753E+01 0.  0.
        -12    1    1    2    0    0  0.38401178666E+02 -0.13011731092E+02  0.19625441850E+02  0.45045683887E+02  0.00000000000E+00 0.  1.
         11    1    3    3    0    0 -0.30840492761E+02  0.67882180316E+01 -0.14366889481E+02  0.34693276170E+02  0.51100000000E-03 0. -1.
        -11    1    3    3    0    0 -0.20962038675E+01  0.15427487164E+01 -0.11644964550E+00  0.26053224440E+01  0.51100000000E-03 0.  1.
        -12    1    3    3    0    0 -0.54644820380E+01  0.46807643443E+01 -0.51421027236E+01  0.88437174995E+01  0.00000000000E+00 0.  1.
</event>
<event>
 7    1  0.2001181E-008  0.4614232E+02  0.7816164E-02  0.1320468E+00
        -11   -1    0    0    0    0  0.00000000000E+00  0.00000000000E+00  0.45593999997E+02  0.45594000000E+02  0.51100000000E-03 0. -1.
         11   -1    0    0    0    0 -0.00000000000E+00 -0.00000000000E+00 -0.45593999997E+02  0.45594000000E+02  0.51100000000E-03 0.  1.
    9900012    2    1    2    0    0  0.76548225131E+01  0.40077618751E+02  0.19086686973E+02  0.46142318164E+02  0.10000003674E+02 0.  0.
        -12    1    1    2    0    0 -0.76548225131E+01 -0.40077618751E+02 -0.19086686973E+02  0.45045681836E+02  0.00000000000E+00 0.  1.
         11    1    3    3    0    0  0.35689937873E+01  0.13457653480E+02  0.63185339230E+01  0.15289539726E+02  0.51100000000E-03 0. -1.
        -11    1    3    3    0    0  0.15240010855E+01  0.20927903467E+00  0.48435535525E+00  0.16127545982E+01  0.51100000000E-03 0.  1.
         12    1    3    3    0    0  0.25618276403E+01  0.26410686237E+02  0.12283797695E+02  0.29240023840E+02  0.00000000000E+00 0. -1.
</event>
<event>
 7    1  0.2001181E-008  0.4614232E+02  0.7816164E-02  0.1320468E+00
        -11   -1    0    0    0    0  0.00000000000E+00  0.00000000000E+00  0.45593999997E+02  0.45594000000E+02  0.51100000000E-03 0.  1.
         11   -1    0    0    0    0 -0.00000000000E+00 -0.00000000000E+00 -0.45593999997E+02  0.45594000000E+02  0.51100000000E-03 0. -1.
    9900012    2    1    2    0    0 -0.16985945703E+02 -0.17805472030E+02 -0.37730044974E+02  0.46142317861E+02  0.10000000912E+02 0.  0.
        -12    1    1    2    0    0  0.16985945703E+02  0.17805472030E+02  0.37730044974E+02  0.45045682139E+02  0.00000000000E+00 0.  1.
         11    1    3    3    0    0  0.52799438789E+00 -0.19170971789E+00 -0.15740498076E+01  0.16712760836E+01  0.51100000000E-03 0. -1.
        -11    1    3    3    0    0 -0.13530462978E+02 -0.15885231719E+02 -0.25403223313E+02  0.32874576349E+02  0.51100000000E-03 0.  1.
         12    1    3    3    0    0 -0.39834771133E+01 -0.17285305935E+01 -0.10752771853E+02  0.11596465429E+02  0.00000000000E+00 0. -1.
</event>
<event>
 7    1  0.2001181E-008  0.4614232E+02  0.7816164E-02  0.1320468E+00
        -11   -1    0    0    0    0  0.00000000000E+00  0.00000000000E+00  0.45593999997E+02  0.45594000000E+02  0.51100000000E-03 0. -1.
         11   -1    0    0    0    0 -0.00000000000E+00 -0.00000000000E+00 -0.45593999997E+02  0.45594000000E+02  0.51100000000E-03 0.  1.
    9900012    2    1    2    0    0 -0.31786724481E+02  0.14220325009E+02  0.28574463701E+02  0.46142317939E+02  0.10000001620E+02 0.  0.
        -12    1    1    2    0    0  0.31786724481E+02 -0.14220325009E+02 -0.28574463701E+02  0.45045682061E+02  0.00000000000E+00 0.  1.
         11    1    3    3    0    0 -0.15445399297E+01  0.34518495305E+01  0.23646836944E+01  0.44601118832E+01  0.51100000000E-03 0.  1.
        -11    1    3    3    0    0 -0.25396200576E+02  0.97109194161E+01  0.20099190435E+02  0.33811927126E+02  0.51100000000E-03 0. -1.
         12    1    3    3    0    0 -0.48459839755E+01  0.10575560627E+01  0.61105895714E+01  0.78702789294E+01  0.00000000000E+00 0. -1.
</event>
<event>
 7    1  0.2001181E-008  0.4614232E+02  0.7816164E-02  0.1320468E+00
        -11   -1    0    0    0    0  0.00000000000E+00  0.00000000000E+00  0.45593999997E+02  0.45594000000E+02  0.51100000000E-03 0.  1.
         11   -1    0    0    0    0 -0.00000000000E+00 -0.00000000000E+00 -0.45593999997E+02  0.45594000000E+02  0.51100000000E-03 0. -1.
    9900012    2    1    2    0    0 -0.19921092080E+02 -0.38046019813E+02 -0.13592791235E+02  0.46142317556E+02  0.99999981325E+01 0.  0.
        -12    1    1    2    0    0  0.19921092080E+02  0.38046019813E+02  0.13592791235E+02  0.45045682444E+02  0.00000000000E+00 0.  1.
         11    1    3    3    0    0 -0.91219170051E+01 -0.18451255162E+02 -0.49991223343E+01  0.21181345833E+02  0.51100000000E-03 0. -1.
        -11    1    3    3    0    0 -0.40624750433E+00 -0.53974919426E+01 -0.76873962505E-01  0.54133045520E+01  0.51100000000E-03 0.  1.
         12    1    3    3    0    0 -0.10392927571E+02 -0.14197272708E+02 -0.85167949383E+01  0.19547667172E+02  0.00000000000E+00 0. -1.
</event>
<event>
 7    1  0.2001181E-008  0.4614232E+02  0.7816164E-02  0.1320468E+00
        -11   -1    0    0    0    0  0.00000000000E+00  0.00000000000E+00  0.45593999997E+02  0.45594000000E+02  0.51100000000E-03 0. -1.
         11   -1    0    0    0    0 -0.00000000000E+00 -0.00000000000E+00 -0.45593999997E+02  0.45594000000E+02  0.51100000000E-03 0.  1.
    9900012    2    1    2    0    0 -0.31816725057E+02  0.13167364546E+02  0.29041865791E+02  0.46142318176E+02  0.10000003780E+02 0.  0.
        -12    1    1    2    0    0  0.31816725057E+02 -0.13167364546E+02 -0.29041865791E+02  0.45045681824E+02  0.00000000000E+00 0.  1.
         11    1    3    3    0    0 -0.10078732586E+02  0.18267643201E+01  0.68975228426E+01  0.12348835574E+02  0.51100000000E-03 0. -1.
        -11    1    3    3    0    0 -0.19094843686E+02  0.71977794236E+01  0.16033143227E+02  0.25951546505E+02  0.51100000000E-03 0.  1.
        -12    1    3    3    0    0 -0.26431487847E+01  0.41428208028E+01  0.61111997208E+01  0.78419360958E+01  0.00000000000E+00 0.  1.
</event>
<event>
 7    1  0.2001181E-008  0.4614232E+02  0.7816164E-02  0.1320468E+00
        -11   -1    0    0    0    0  0.00000000000E+00  0.00000000000E+00  0.45593999997E+02  0.45594000000E+02  0.51100000000E-03 0. -1.
         11   -1    0    0    0    0 -0.00000000000E+00 -0.00000000000E+00 -0.45593999997E+02  0.45594000000E+02  0.51100000000E-03 0.  1.
    9900012    2    1    2    0    0 -0.40184610127E+02 -0.19006687529E+02 -0.72839912256E+01  0.46142316632E+02  0.99999897021E+01 0.  0.
        -12    1    1    2    0    0  0.40184610127E+02  0.19006687529E+02  0.72839912256E+01  0.45045683368E+02  0.00000000000E+00 0.  1.
         11    1    3    3    0    0 -0.15605477751E+02 -0.91269904867E+01 -0.20897414025E+01  0.18198898609E+02  0.51100000000E-03 0. -1.
        -11    1    3    3    0    0 -0.20282336753E+02 -0.10747837712E+02 -0.33901360273E+01  0.23203064931E+02  0.51100000000E-03 0.  1.
        -12    1    3    3    0    0 -0.42967956232E+01  0.86814066904E+00 -0.18041137958E+01  0.47403530920E+01  0.00000000000E+00 0.  1.
</event>
<event>
 7    1  0.2001181E-008  0.4614232E+02  0.7816164E-02  0.1320468E+00
        -11   -1    0    0    0    0  0.00000000000E+00  0.00000000000E+00  0.45593999997E+02  0.45594000000E+02  0.51100000000E-03 0. -1.
         11   -1    0    0    0    0 -0.00000000000E+00 -0.00000000000E+00 -0.45593999997E+02  0.45594000000E+02  0.51100000000E-03 0.  1.
    9900012    2    1    2    0    0  0.14202184973E+02 -0.42690091748E+02  0.22287843229E+01  0.46142317954E+02  0.10000001759E+02 0.  0.
        -12    1    1    2    0    0 -0.14202184973E+02  0.42690091748E+02 -0.22287843229E+01  0.45045682046E+02  0.00000000000E+00 0.  1.
         11    1    3    3    0    0  0.60309587683E+01 -0.12247185862E+02 -0.19560532186E+01  0.13791017717E+02  0.51100000000E-03 0. -1.
        -11    1    3    3    0    0 -0.49575812326E+00 -0.77052922122E+01  0.15541588369E+01  0.78760849502E+01  0.51100000000E-03 0.  1.
        -12    1    3    3    0    0  0.86669843277E+01 -0.22737613674E+02  0.26306787046E+01  0.24475215287E+02  0.00000000000E+00 0.  1.
</event>
<event>
 7    1  0.2001181E-008  0.4614232E+02  0.7816164E-02  0.1320468E+00
        -11   -1    0    0    0    0  0.00000000000E+00  0.00000000000E+00  0.45593999997E+02  0.45594000000E+02  0.51100000000E-03 0.  1.
         11   -1    0    0    0    0 -0.00000000000E+00 -0.00000000000E+00 -0.45593999997E+02  0.45594000000E+02  0.51100000000E-03 0. -1.
    9900012    2    1    2    0    0 -0.32464055608E+02 -0.28471844309E+02 -0.12827806318E+02  0.46142318300E+02  0.10000004915E+02 0.  0.
        -12    1    1    2    0    0  0.32464055608E+02  0.28471844309E+02  0.12827806318E+02  0.45045681700E+02  0.00000000000E+00 0.  1.
         11    1    3    3    0    0 -0.27090327883E+02 -0.18268544443E+02 -0.10205844885E+02  0.34231343107E+02  0.51100000000E-03 0. -1.
        -11    1    3    3    0    0 -0.17472876196E+01 -0.42542929966E+01 -0.15985378534E+01  0.48690190446E+01  0.51100000000E-03 0.  1.
         12    1    3    3    0    0 -0.36264401060E+01 -0.59490068688E+01 -0.10234235803E+01  0.70419561482E+01  0.00000000000E+00 0. -1.
</event>
<event>
 7    1  0.2001181E-008  0.4614232E+02  0.7816164E-02  0.1320468E+00
        -11   -1    0    0    0    0  0.00000000000E+00  0.00000000000E+00  0.45593999997E+02  0.45594000000E+02  0.51100000000E-03 0.  1.
         11   -1    0    0    0    0 -0.00000000000E+00 -0.00000000000E+00 -0.45593999997E+02  0.45594000000E+02  0.51100000000E-03 0. -1.
    9900012    2    1    2    0    0  0.30178561317E+02 -0.54802576228E+01 -0.32989916865E+02  0.46142318725E+02  0.10000008791E+02 0.  0.
        -12    1    1    2    0    0 -0.30178561317E+02  0.54802576228E+01  0.32989916865E+02  0.45045681275E+02  0.00000000000E+00 0.  1.
         11    1    3    3    0    0  0.11109202449E+02 -0.64932621598E+00 -0.74129260266E+01  0.13371143411E+02  0.51100000000E-03 0. -1.
        -11    1    3    3    0    0  0.12876683391E+02 -0.13311141860E+01 -0.13152306192E+02  0.18454376136E+02  0.51100000000E-03 0.  1.
        -12    1    3    3    0    0  0.61926754762E+01 -0.34998172208E+01 -0.12424684647E+02  0.14316799178E+02  0.00000000000E+00 0.  1.
</event>
<event>
 7    1  0.2001181E-008  0.4614232E+02  0.7816164E-02  0.1320468E+00
        -11   -1    0    0    0    0  0.00000000000E+00  0.00000000000E+00  0.45593999997E+02  0.45594000000E+02  0.51100000000E-03 0.  1.
         11   -1    0    0    0    0 -0.00000000000E+00 -0.00000000000E+00 -0.45593999997E+02  0.45594000000E+02  0.51100000000E-03 0. -1.
    9900012    2    1    2    0    0 -0.15311038937E+02  0.42023195846E+02 -0.53606109611E+01  0.46142322601E+02  0.10000044137E+02 0.  0.
        -12    1    1    2    0    0  0.15311038937E+02 -0.42023195846E+02  0.53606109611E+01  0.45045677399E+02  0.00000000000E+00 0.  1.
         11    1    3    3    0    0 -0.14232516299E+01  0.29159669679E+01 -0.25711805714E+01  0.41399853081E+01  0.51100000000E-03 0. -1.
        -11    1    3    3    0    0 -0.40739122665E+01  0.92153478289E+01  0.17125778290E+01  0.10220191771E+02  0.51100000000E-03 0.  1.
         12    1    3    3    0    0 -0.98138750403E+01  0.29891881049E+02 -0.45020082187E+01  0.31782145522E+02  0.00000000000E+00 0. -1.
</event>
<event>
 7    1  0.2001181E-008  0.4614232E+02  0.7816164E-02  0.1320468E+00
        -11   -1    0    0    0    0  0.00000000000E+00  0.00000000000E+00  0.45593999997E+02  0.45594000000E+02  0.51100000000E-03 0. -1.
         11   -1    0    0    0    0 -0.00000000000E+00 -0.00000000000E+00 -0.45593999997E+02  0.45594000000E+02  0.51100000000E-03 0.  1.
    9900012    2    1    2    0    0  0.33659277132E+02  0.24616162878E+02 -0.17035583768E+02  0.46142317341E+02  0.99999961712E+01 0.  0.
        -12    1    1    2    0    0 -0.33659277132E+02 -0.24616162878E+02  0.17035583768E+02  0.45045682659E+02  0.00000000000E+00 0.  1.
         11    1    3    3    0    0  0.20171937736E+02  0.10372406035E+02 -0.74440506512E+01  0.23872741136E+02  0.51100000000E-03 0. -1.
        -11    1    3    3    0    0  0.50078063500E+01  0.53327962093E+01 -0.12867069902E+01  0.74278163001E+01  0.51100000000E-03 0.  1.
        -12    1    3    3    0    0  0.84795330458E+01  0.89109606339E+01 -0.83048261262E+01  0.14841759905E+02  0.00000000000E+00 0.  1.
</event>
<event>
 7    1  0.2001181E-008  0.4614232E+02  0.7816164E-02  0.1320468E+00
        -11   -1    0    0    0    0  0.00000000000E+00  0.00000000000E+00  0.45593999997E+02  0.45594000000E+02  0.51100000000E-03 0.  1.
         11   -1    0    0    0    0 -0.00000000000E+00 -0.00000000000E+00 -0.45593999997E+02  0.45594000000E+02  0.51100000000E-03 0. -1.
    9900012    2    1    2    0    0 -0.16183677086E+02  0.42018191845E+02 -0.12937206532E+01  0.46142316932E+02  0.99999924390E+01 0.  0.
        -12    1    1    2    0    0  0.16183677086E+02 -0.42018191845E+02  0.12937206532E+01  0.45045683068E+02  0.00000000000E+00 0.  1.
         11    1    3    3    0    0 -0.85079401929E+01  0.15197358248E+02 -0.32388958585E+01  0.17715394173E+02  0.51100000000E-03 0.  1.
        -11    1    3    3    0    0 -0.67327432208E+01  0.26492402152E+02  0.21057983371E+01  0.27415535558E+02  0.51100000000E-03 0. -1.
         12    1    3    3    0    0 -0.94299367224E+00  0.32843144499E+00 -0.16062313178E+00  0.10113872010E+01  0.00000000000E+00 0. -1.
</event>
<event>
 7    1  0.2001181E-008  0.4614232E+02  0.7816164E-02  0.1320468E+00
        -11   -1    0    0    0    0  0.00000000000E+00  0.00000000000E+00  0.45593999997E+02  0.45594000000E+02  0.51100000000E-03 0.  1.
         11   -1    0    0    0    0 -0.00000000000E+00 -0.00000000000E+00 -0.45593999997E+02  0.45594000000E+02  0.51100000000E-03 0. -1.
    9900012    2    1    2    0    0  0.13207942248E+02 -0.45378511583E+01 -0.42826063080E+02  0.46142317515E+02  0.99999977575E+01 0.  0.
        -12    1    1    2    0    0 -0.13207942248E+02  0.45378511583E+01  0.42826063080E+02  0.45045682485E+02  0.00000000000E+00 0.  1.
         11    1    3    3    0    0  0.10567182943E+02  0.18719300252E+00 -0.22340685714E+02  0.24714502524E+02  0.51100000000E-03 0. -1.
        -11    1    3    3    0    0 -0.13424323631E-01 -0.10197497229E+01 -0.92066793259E+01  0.92629916432E+01  0.51100000000E-03 0.  1.
        -12    1    3    3    0    0  0.26541836289E+01 -0.37052944379E+01 -0.11278698041E+02  0.12164823348E+02  0.00000000000E+00 0.  1.
</event>
<event>
 7    1  0.2001181E-008  0.4614232E+02  0.7816164E-02  0.1320468E+00
        -11   -1    0    0    0    0  0.00000000000E+00  0.00000000000E+00  0.45593999997E+02  0.45594000000E+02  0.51100000000E-03 0.  1.
         11   -1    0    0    0    0 -0.00000000000E+00 -0.00000000000E+00 -0.45593999997E+02  0.45594000000E+02  0.51100000000E-03 0. -1.
    9900012    2    1    2    0    0  0.19741873518E+02  0.18786493419E+02 -0.35866970873E+02  0.46142317581E+02  0.99999983586E+01 0.  0.
        -12    1    1    2    0    0 -0.19741873518E+02 -0.18786493419E+02  0.35866970873E+02  0.45045682419E+02  0.00000000000E+00 0.  1.
         11    1    3    3    0    0  0.69615924701E+01  0.33067090571E+01 -0.61689279809E+01  0.98718674628E+01  0.51100000000E-03 0. -1.
        -11    1    3    3    0    0  0.51909805526E+01  0.57727149507E+01 -0.70464287384E+01  0.10484401520E+02  0.51100000000E-03 0.  1.
         12    1    3    3    0    0  0.75893004951E+01  0.97070694110E+01 -0.22651614154E+02  0.25786048599E+02  0.00000000000E+00 0. -1.
</event>
<event>
 7    1  0.2001181E-008  0.4614232E+02  0.7816164E-02  0.1320468E+00
        -11   -1    0    0    0    0  0.00000000000E+00  0.00000000000E+00  0.45593999997E+02  0.45594000000E+02  0.51100000000E-03 0.  1.
         11   -1    0    0    0    0 -0.00000000000E+00 -0.00000000000E+00 -0.45593999997E+02  0.45594000000E+02  0.51100000000E-03 0. -1.
    9900012    2    1    2    0    0 -0.14952116370E+01  0.13677097291E+02 -0.42893062984E+02  0.46142317628E+02  0.99999987899E+01 0.  0.
        -12    1    1    2    0    0  0.14952116370E+01 -0.13677097291E+02  0.42893062984E+02  0.45045682372E+02  0.00000000000E+00 0.  1.
         11    1    3    3    0    0  0.92133025205E+00  0.52019988921E+01 -0.19664390037E+02  0.20361676691E+02  0.51100000000E-03 0. -1.
        -11    1    3    3    0    0 -0.44552702001E+01  0.64056567527E+01 -0.13140094153E+02  0.15282144666E+02  0.51100000000E-03 0.  1.
         12    1    3    3    0    0  0.20387283110E+01  0.20694416462E+01 -0.10088578794E+02  0.10498496271E+02  0.00000000000E+00 0. -1.
</event>
<event>
 7    1  0.2001181E-008  0.4614232E+02  0.7816164E-02  0.1320468E+00
        -11   -1    0    0    0    0  0.00000000000E+00  0.00000000000E+00  0.45593999997E+02  0.45594000000E+02  0.51100000000E-03 0. -1.
         11   -1    0    0    0    0 -0.00000000000E+00 -0.00000000000E+00 -0.45593999997E+02  0.45594000000E+02  0.51100000000E-03 0.  1.
    9900012    2    1    2    0    0  0.13644174021E+02  0.30295698402E+02  0.30415794763E+02  0.46142318770E+02  0.10000009200E+02 0.  0.
        -12    1    1    2    0    0 -0.13644174021E+02 -0.30295698402E+02 -0.30415794763E+02  0.45045681230E+02  0.00000000000E+00 0.  1.
         11    1    3    3    0    0  0.23913200016E+01  0.13545080647E+01  0.29381838681E+01  0.40231863182E+01  0.51100000000E-03 0. -1.
        -11    1    3    3    0    0  0.26947264831E+01  0.14930897879E+01  0.36594964434E+01  0.47835951348E+01  0.51100000000E-03 0.  1.
         12    1    3    3    0    0  0.85581275369E+01  0.27448100550E+02  0.23818114451E+02  0.37335537317E+02  0.00000000000E+00 0. -1.
</event>
<event>
 7    1  0.2001181E-008  0.4614232E+02  0.7816164E-02  0.1320468E+00
        -11   -1    0    0    0    0  0.00000000000E+00  0.00000000000E+00  0.45593999997E+02  0.45594000000E+02  0.51100000000E-03 0. -1.
         11   -1    0    0    0    0 -0.00000000000E+00 -0.00000000000E+00 -0.45593999997E+02  0.45594000000E+02  0.51100000000E-03 0.  1.
    9900012    2    1    2    0    0 -0.39401392929E+02  0.20158314239E+02  0.83836786467E+01  0.46142318017E+02  0.10000002329E+02 0.  0.
        -12    1    1    2    0    0  0.39401392929E+02 -0.20158314239E+02 -0.83836786467E+01  0.45045681983E+02  0.00000000000E+00 0.  1.
         11    1    3    3    0    0 -0.16274111936E+02  0.10407462168E+02  0.61840592158E+01  0.20283110628E+02  0.51100000000E-03 0. -1.
        -11    1    3    3    0    0 -0.21941275682E+02  0.10237697570E+02  0.12149206143E+01  0.24242649658E+02  0.51100000000E-03 0.  1.
         12    1    3    3    0    0 -0.11860053104E+01 -0.48684549892E+00  0.98469881650E+00  0.16165577303E+01  0.00000000000E+00 0. -1.
</event>
<event>
 7    1  0.2001181E-008  0.4614231E+02  0.7816164E-02  0.1320468E+00
        -11   -1    0    0    0    0  0.00000000000E+00  0.00000000000E+00  0.45593999997E+02  0.45594000000E+02  0.51100000000E-03 0. -1.
         11   -1    0    0    0    0 -0.00000000000E+00 -0.00000000000E+00 -0.45593999997E+02  0.45594000000E+02  0.51100000000E-03 0.  1.
    9900012    2    1    2    0    0 -0.22298233999E+02 -0.16628529185E+02  0.35431557111E+02  0.46142306958E+02  0.99999014839E+01 0.  0.
        -12    1    1    2    0    0  0.22298233999E+02  0.16628529185E+02 -0.35431557111E+02  0.45045693042E+02  0.00000000000E+00 0.  1.
         11    1    3    3    0    0 -0.78595805871E+01 -0.57196866720E+01  0.10194214104E+02  0.14085802217E+02  0.51100000000E-03 0. -1.
        -11    1    3    3    0    0 -0.58032513321E+01 -0.10750308188E+01  0.40668467828E+01  0.71674723788E+01  0.51100000000E-03 0.  1.
         12    1    3    3    0    0 -0.86354020800E+01 -0.98338116946E+01  0.21170496224E+02  0.24889032362E+02  0.00000000000E+00 0. -1.
</event>
<event>
 7    1  0.2001181E-008  0.4614232E+02  0.7816164E-02  0.1320468E+00
        -11   -1    0    0    0    0  0.00000000000E+00  0.00000000000E+00  0.45593999997E+02  0.45594000000E+02  0.51100000000E-03 0.  1.
         11   -1    0    0    0    0 -0.00000000000E+00 -0.00000000000E+00 -0.45593999997E+02  0.45594000000E+02  0.51100000000E-03 0. -1.
    9900012    2    1    2    0    0 -0.12688538096E+02 -0.88623295967E+01 -0.42303352176E+02  0.46142317741E+02  0.99999998172E+01 0.  0.
        -12    1    1    2    0    0  0.12688538096E+02  0.88623295967E+01  0.42303352176E+02  0.45045682259E+02  0.00000000000E+00 0.  1.
         11    1    3    3    0    0 -0.23200442866E+01 -0.21979111912E-02 -0.35695007352E+01  0.42572228134E+01  0.51100000000E-03 0. -1.
        -11    1    3    3    0    0 -0.64759864269E+00  0.11491048342E+01 -0.10030996775E+01  0.16571165155E+01  0.51100000000E-03 0.  1.
         12    1    3    3    0    0 -0.97208951663E+01 -0.10009236520E+02 -0.37730751763E+02  0.40227978412E+02  0.00000000000E+00 0. -1.
</event>
<event>
 7    1  0.2001181E-008  0.4614232E+02  0.7816164E-02  0.1320468E+00
        -11   -1    0    0    0    0  0.00000000000E+00  0.00000000000E+00  0.45593999997E+02  0.45594000000E+02  0.51100000000E-03 0. -1.
         11   -1    0    0    0    0 -0.00000000000E+00 -0.00000000000E+00 -0.45593999997E+02  0.45594000000E+02  0.51100000000E-03 0.  1.
    9900012    2    1    2    0    0 -0.41110267486E+02  0.18394454913E+02  0.83871760865E+00  0.46142317504E+02  0.99999976579E+01 0.  0.
        -12    1    1    2    0    0  0.41110267486E+02 -0.18394454913E+02 -0.83871760865E+00  0.45045682496E+02  0.00000000000E+00 0.  1.
         11    1    3    3    0    0 -0.23284686707E+02  0.81642409105E+01 -0.15951440874E+01  0.24726017666E+02  0.51100000000E-03 0. -1.
        -11    1    3    3    0    0 -0.12856356750E+02  0.96687450459E+01  0.30651595669E+01  0.16375766946E+02  0.51100000000E-03 0.  1.
        -12    1    3    3    0    0 -0.49692240287E+01  0.56146895621E+00 -0.63129787091E+00  0.50405328923E+01  0.00000000000E+00 0.  1.
</event>
<event>
 7    1  0.2001181E-008  0.4614232E+02  0.7816164E-02  0.1320468E+00
        -11   -1    0    0    0    0  0.00000000000E+00  0.00000000000E+00  0.45593999997E+02  0.45594000000E+02  0.51100000000E-03 0. -1.
         11   -1    0    0    0    0 -0.00000000000E+00 -0.00000000000E+00 -0.45593999997E+02  0.45594000000E+02  0.51100000000E-03 0.  1.
    9900012    2    1    2    0    0 -0.23363090882E+02  0.22486434117E+02  0.31267230579E+02  0.46142318265E+02  0.10000004596E+02 0.  0.
        -12    1    1    2    0    0  0.23363090882E+02 -0.22486434117E+02 -0.31267230579E+02  0.45045681735E+02  0.00000000000E+00 0.  1.
         11    1    3    3    0    0 -0.58670230567E+01  0.76077248344E+01  0.11246863842E+02  0.14791598401E+02  0.51100000000E-03 0. -1.
        -11    1    3    3    0    0 -0.16908494873E+02  0.14975991942E+02  0.20562800332E+02  0.30545151682E+02  0.51100000000E-03 0.  1.
        -12    1    3    3    0    0 -0.58757295288E+00 -0.97282659684E-01 -0.54243359543E+00  0.80556818227E+00  0.00000000000E+00 0.  1.
</event>
<event>
 7    1  0.2001181E-008  0.4614233E+02  0.7816164E-02  0.1320468E+00
        -11   -1    0    0    0    0  0.00000000000E+00  0.00000000000E+00  0.45593999997E+02  0.45594000000E+02  0.51100000000E-03 0.  1.
         11   -1    0    0    0    0 -0.00000000000E+00 -0.00000000000E+00 -0.45593999997E+02  0.45594000000E+02  0.51100000000E-03 0. -1.
    9900012    2    1    2    0    0 -0.17457416578E+02 -0.21750294087E+02 -0.35373378247E+02  0.46142327898E+02  0.10000092437E+02 0.  0.
        -12    1    1    2    0    0  0.17457416578E+02  0.21750294087E+02  0.35373378247E+02  0.45045672102E+02  0.00000000000E+00 0.  1.
         11    1    3    3    0    0 -0.38744446610E+01 -0.23261151060E+01 -0.36451485836E+01  0.58059660157E+01  0.51100000000E-03 0. -1.
        -11    1    3    3    0    0 -0.10584303330E+00 -0.49093295724E+01 -0.44591729629E+01  0.66330191747E+01  0.51100000000E-03 0.  1.
         12    1    3    3    0    0 -0.13477128884E+02 -0.14514849409E+02 -0.27269056701E+02  0.33703342708E+02  0.00000000000E+00 0. -1.
</event>
<event>
 7    1  0.2001181E-008  0.4614232E+02  0.7816164E-02  0.1320468E+00
        -11   -1    0    0    0    0  0.00000000000E+00  0.00000000000E+00  0.45593999997E+02  0.45594000000E+02  0.51100000000E-03 0.  1.
         11   -1    0    0    0    0 -0.00000000000E+00 -0.00000000000E+00 -0.45593999997E+02  0.45594000000E+02  0.51100000000E-03 0. -1.
    9900012    2    1    2    0    0 -0.28563960109E+02  0.92873459648E+01 -0.33570208457E+02  0.46142317543E+02  0.99999980123E+01 0.  0.
        -12    1    1    2    0    0  0.28563960109E+02 -0.92873459648E+01  0.33570208457E+02  0.45045682457E+02  0.00000000000E+00 0.  1.
         11    1    3    3    0    0 -0.12988021142E+02  0.64247859866E+01 -0.10462437717E+02  0.17872581553E+02  0.51100000000E-03 0.  1.
        -11    1    3    3    0    0 -0.34469081189E+01  0.20387611690E+01 -0.73183753337E+01  0.83424421167E+01  0.51100000000E-03 0. -1.
        -12    1    3    3    0    0 -0.12129030848E+02  0.82379880921E+00 -0.15789395406E+02  0.19927293873E+02  0.00000000000E+00 0.  1.
</event>
<event>
 7    1  0.2001181E-008  0.4614231E+02  0.7816164E-02  0.1320468E+00
        -11   -1    0    0    0    0  0.00000000000E+00  0.00000000000E+00  0.45593999997E+02  0.45594000000E+02  0.51100000000E-03 0.  1.
         11   -1    0    0    0    0 -0.00000000000E+00 -0.00000000000E+00 -0.45593999997E+02  0.45594000000E+02  0.51100000000E-03 0. -1.
    9900012    2    1    2    0    0  0.20132428019E+02 -0.38024245983E+02 -0.13340022748E+02  0.46142310445E+02  0.99999332886E+01 0.  0.
        -12    1    1    2    0    0 -0.20132428019E+02  0.38024245983E+02  0.13340022748E+02  0.45045689555E+02  0.00000000000E+00 0.  1.
         11    1    3    3    0    0  0.43124469965E+01 -0.12715115847E+02 -0.20687970788E+01  0.13584965650E+02  0.51100000000E-03 0. -1.
        -11    1    3    3    0    0  0.36315030777E+01 -0.34406426632E+01  0.22630597474E+00  0.50076991917E+01  0.51100000000E-03 0.  1.
         12    1    3    3    0    0  0.12188477945E+02 -0.21868487473E+02 -0.11497531644E+02  0.27549645604E+02  0.00000000000E+00 0. -1.
</event>
<event>
 7    1  0.2001181E-008  0.4614232E+02  0.7816164E-02  0.1320468E+00
        -11   -1    0    0    0    0  0.00000000000E+00  0.00000000000E+00  0.45593999997E+02  0.45594000000E+02  0.51100000000E-03 0.  1.
         11   -1    0    0    0    0 -0.00000000000E+00 -0.00000000000E+00 -0.45593999997E+02  0.45594000000E+02  0.51100000000E-03 0. -1.
    9900012    2    1    2    0    0 -0.24195407299E+02  0.23714128164E+02 -0.29687302939E+02  0.46142316913E+02  0.99999922696E+01 0.  0.
        -12    1    1    2    0    0  0.24195407299E+02 -0.23714128164E+02  0.29687302939E+02  0.45045683087E+02  0.00000000000E+00 0.  1.
         11    1    3    3    0    0 -0.69619627906E+01  0.40650979249E+01 -0.79901009155E+01  0.11350579718E+02  0.51100000000E-03 0. -1.
        -11    1    3    3    0    0 -0.90877492314E+01  0.49318655040E+01 -0.73909612301E+01  0.12709712491E+02  0.51100000000E-03 0.  1.
        -12    1    3    3    0    0 -0.81456952767E+01  0.14717164735E+02 -0.14306240794E+02  0.22082024704E+02  0.00000000000E+00 0.  1.
</event>
<event>
 7    1  0.2001181E-008  0.4614232E+02  0.7816164E-02  0.1320468E+00
        -11   -1    0    0    0    0  0.00000000000E+00  0.00000000000E+00  0.45593999997E+02  0.45594000000E+02  0.51100000000E-03 0.  1.
         11   -1    0    0    0    0 -0.00000000000E+00 -0.00000000000E+00 -0.45593999997E+02  0.45594000000E+02  0.51100000000E-03 0. -1.
    9900012    2    1    2    0    0 -0.18631971441E+02  0.50890871005E+01 -0.40694771664E+02  0.46142316432E+02  0.99999878832E+01 0.  0.
        -12    1    1    2    0    0  0.18631971441E+02 -0.50890871005E+01  0.40694771664E+02  0.45045683568E+02  0.00000000000E+00 0.  1.
         11    1    3    3    0    0 -0.24618480243E+01  0.52799695898E+00 -0.12005054599E+01  0.27893888406E+01  0.51100000000E-03 0. -1.
        -11    1    3    3    0    0 -0.12539444308E+01 -0.13068324494E+01 -0.49530360500E+01  0.52737798646E+01  0.51100000000E-03 0.  1.
        -12    1    3    3    0    0 -0.14916178986E+02  0.58679225909E+01 -0.34541230154E+02  0.38079147727E+02  0.00000000000E+00 0.  1.
</event>
<event>
 7    1  0.2001181E-008  0.4614232E+02  0.7816164E-02  0.1320468E+00
        -11   -1    0    0    0    0  0.00000000000E+00  0.00000000000E+00  0.45593999997E+02  0.45594000000E+02  0.51100000000E-03 0. -1.
         11   -1    0    0    0    0 -0.00000000000E+00 -0.00000000000E+00 -0.45593999997E+02  0.45594000000E+02  0.51100000000E-03 0.  1.
    9900012    2    1    2    0    0  0.16224915487E+02  0.41009271060E+02  0.91708830683E+01  0.46142319944E+02  0.10000019904E+02 0.  0.
        -12    1    1    2    0    0 -0.16224915487E+02 -0.41009271060E+02 -0.91708830683E+01  0.45045680056E+02  0.00000000000E+00 0.  1.
         11    1    3    3    0    0  0.10137419527E+02  0.24902001847E+02  0.82998846669E+01  0.28138320071E+02  0.51100000000E-03 0. -1.
        -11    1    3    3    0    0  0.57739049360E+01  0.16374002039E+02  0.12982633312E+01  0.17410669399E+02  0.51100000000E-03 0.  1.
         12    1    3    3    0    0  0.31359102468E+00 -0.26673282597E+00 -0.42726492980E+00  0.59333047406E+00  0.00000000000E+00 0. -1.
</event>
<event>
 7    1  0.2001181E-008  0.4614232E+02  0.7816164E-02  0.1320468E+00
        -11   -1    0    0    0    0  0.00000000000E+00  0.00000000000E+00  0.45593999997E+02  0.45594000000E+02  0.51100000000E-03 0.  1.
         11   -1    0    0    0    0 -0.00000000000E+00 -0.00000000000E+00 -0.45593999997E+02  0.45594000000E+02  0.51100000000E-03 0. -1.
    9900012    2    1    2    0    0  0.10144687743E+02 -0.35833597166E+02 -0.25340720277E+02  0.46142317861E+02  0.10000000909E+02 0.  0.
        -12    1    1    2    0    0 -0.10144687743E+02  0.35833597166E+02  0.25340720277E+02  0.45045682139E+02  0.00000000000E+00 0.  1.
         11    1    3    3    0    0  0.56113820452E+01 -0.74833007426E+01 -0.45591855885E+01  0.10405458757E+02  0.51100000000E-03 0. -1.
        -11    1    3    3    0    0 -0.11997755992E+00 -0.85210299521E+00  0.14106399352E+00  0.87199394535E+00  0.51100000000E-03 0.  1.
         12    1    3    3    0    0  0.46532832574E+01 -0.27498193428E+02 -0.20922598682E+02  0.34864865158E+02  0.00000000000E+00 0. -1.
</event>
<event>
 7    1  0.2001181E-008  0.4614232E+02  0.7816164E-02  0.1320468E+00
        -11   -1    0    0    0    0  0.00000000000E+00  0.00000000000E+00  0.45593999997E+02  0.45594000000E+02  0.51100000000E-03 0.  1.
         11   -1    0    0    0    0 -0.00000000000E+00 -0.00000000000E+00 -0.45593999997E+02  0.45594000000E+02  0.51100000000E-03 0. -1.
    9900012    2    1    2    0    0 -0.64373699477E+01 -0.19273746845E+02 -0.40201941905E+02  0.46142321159E+02  0.10000030984E+02 0.  0.
        -12    1    1    2    0    0  0.64373699477E+01  0.19273746845E+02  0.40201941905E+02  0.45045678841E+02  0.00000000000E+00 0.  1.
         11    1    3    3    0    0 -0.41847831506E+01 -0.18044593062E+02 -0.28732909689E+02  0.34186252329E+02  0.51100000000E-03 0. -1.
        -11    1    3    3    0    0 -0.41857899610E+00  0.44754715789E+00 -0.48030397758E+01  0.48419725508E+01  0.51100000000E-03 0.  1.
         12    1    3    3    0    0 -0.18340078011E+01 -0.16767009403E+01 -0.66659924404E+01  0.71140962794E+01  0.00000000000E+00 0. -1.
</event>
<event>
 7    1  0.2001181E-008  0.4614232E+02  0.7816164E-02  0.1320468E+00
        -11   -1    0    0    0    0  0.00000000000E+00  0.00000000000E+00  0.45593999997E+02  0.45594000000E+02  0.51100000000E-03 0.  1.
         11   -1    0    0    0    0 -0.00000000000E+00 -0.00000000000E+00 -0.45593999997E+02  0.45594000000E+02  0.51100000000E-03 0. -1.
    9900012    2    1    2    0    0  0.41489199036E+01  0.12508794560E+02 -0.43074699636E+02  0.46142320668E+02  0.10000026508E+02 0.  0.
        -12    1    1    2    0    0 -0.41489199036E+01 -0.12508794560E+02  0.43074699636E+02  0.45045679332E+02  0.00000000000E+00 0.  1.
         11    1    3    3    0    0  0.16461936121E+01  0.16820094642E+01 -0.10920078287E+02  0.11170819992E+02  0.51100000000E-03 0. -1.
        -11    1    3    3    0    0  0.44096739228E+00  0.90439594287E+01 -0.14409495863E+02  0.17018261535E+02  0.51100000000E-03 0.  1.
        -12    1    3    3    0    0  0.20617588992E+01  0.17828256671E+01 -0.17745125486E+02  0.17953239141E+02  0.00000000000E+00 0.  1.
</event>
<event>
 7    1  0.2001181E-008  0.4614232E+02  0.7816164E-02  0.1320468E+00
        -11   -1    0    0    0    0  0.00000000000E+00  0.00000000000E+00  0.45593999997E+02  0.45594000000E+02  0.51100000000E-03 0. -1.
         11   -1    0    0    0    0 -0.00000000000E+00 -0.00000000000E+00 -0.45593999997E+02  0.45594000000E+02  0.51100000000E-03 0.  1.
    9900012    2    1    2    0    0 -0.41325373416E+02  0.52361218968E+01  0.17143805040E+02  0.46142317502E+02  0.99999976360E+01 0.  0.
        -12    1    1    2    0    0  0.41325373416E+02 -0.52361218968E+01 -0.17143805040E+02  0.45045682498E+02  0.00000000000E+00 0.  1.
         11    1    3    3    0    0 -0.22003652387E+02  0.47060388648E+01  0.10306579397E+02  0.24749406040E+02  0.51100000000E-03 0. -1.
        -11    1    3    3    0    0 -0.86343493816E+01  0.29005226910E+01  0.15634754734E+01  0.92417247818E+01  0.51100000000E-03 0.  1.
        -12    1    3    3    0    0 -0.10687371647E+02 -0.23704396591E+01  0.52737501693E+01  0.12151186680E+02  0.00000000000E+00 0.  1.
</event>
<event>
 7    1  0.2001181E-008  0.4614232E+02  0.7816164E-02  0.1320468E+00
        -11   -1    0    0    0    0  0.00000000000E+00  0.00000000000E+00  0.45593999997E+02  0.45594000000E+02  0.51100000000E-03 0.  1.
         11   -1    0    0    0    0 -0.00000000000E+00 -0.00000000000E+00 -0.45593999997E+02  0.45594000000E+02  0.51100000000E-03 0. -1.
    9900012    2    1    2    0    0 -0.26437532209E+01  0.33000534959E+02 -0.30546501556E+02  0.46142317676E+02  0.99999992274E+01 0.  0.
        -12    1    1    2    0    0  0.26437532209E+01 -0.33000534959E+02  0.30546501556E+02  0.45045682324E+02  0.00000000000E+00 0.  1.
         11    1    3    3    0    0  0.97599873012E+00  0.72235775257E+01 -0.57086219755E+01  0.92585641928E+01  0.51100000000E-03 0. -1.
        -11    1    3    3    0    0 -0.62166845701E+01  0.16790043567E+02 -0.15875982498E+02  0.23929052438E+02  0.51100000000E-03 0.  1.
        -12    1    3    3    0    0  0.25969326191E+01  0.89869138659E+01 -0.89618970831E+01  0.12954701046E+02  0.00000000000E+00 0.  1.
</event>
<event>
 7    1  0.2001181E-008  0.4614232E+02  0.7816164E-02  0.1320468E+00
        -11   -1    0    0    0    0  0.00000000000E+00  0.00000000000E+00  0.45593999997E+02  0.45594000000E+02  0.51100000000E-03 0.  1.
         11   -1    0    0    0    0 -0.00000000000E+00 -0.00000000000E+00 -0.45593999997E+02  0.45594000000E+02  0.51100000000E-03 0. -1.
    9900012    2    1    2    0    0 -0.13481054790E+01  0.11624601189E+02 -0.43499020574E+02  0.46142317275E+02  0.99999955709E+01 0.  0.
        -12    1    1    2    0    0  0.13481054790E+01 -0.11624601189E+02  0.43499020574E+02  0.45045682725E+02  0.00000000000E+00 0.  1.
         11    1    3    3    0    0  0.66425941195E+00  0.50961014427E+00 -0.78380692468E+01  0.78826564586E+01  0.51100000000E-03 0. -1.
        -11    1    3    3    0    0 -0.19946695881E+01 -0.57581682681E+00 -0.71379610537E+01  0.74337581376E+01  0.51100000000E-03 0.  1.
         12    1    3    3    0    0 -0.17695302814E-01  0.11690807872E+02 -0.28522990274E+02  0.30825902679E+02  0.00000000000E+00 0. -1.
</event>
<event>
 7    1  0.2001181E-008  0.4614232E+02  0.7816164E-02  0.1320468E+00
        -11   -1    0    0    0    0  0.00000000000E+00  0.00000000000E+00  0.45593999997E+02  0.45594000000E+02  0.51100000000E-03 0.  1.
         11   -1    0    0    0    0 -0.00000000000E+00 -0.00000000000E+00 -0.45593999997E+02  0.45594000000E+02  0.51100000000E-03 0. -1.
    9900012    2    1    2    0    0  0.45006565969E+02  0.14529292679E+01 -0.11880498165E+01  0.46142318230E+02  0.10000004278E+02 0.  0.
        -12    1    1    2    0    0 -0.45006565969E+02 -0.14529292679E+01  0.11880498165E+01  0.45045681770E+02  0.00000000000E+00 0.  1.
         11    1    3    3    0    0  0.32618502389E+02  0.40548940184E+01 -0.52283511158E+00  0.32873731465E+02  0.51100000000E-03 0. -1.
        -11    1    3    3    0    0  0.70487186914E+01 -0.19671456699E+01 -0.22617664644E+01  0.76596138987E+01  0.51100000000E-03 0.  1.
        -12    1    3    3    0    0  0.53393448878E+01 -0.63481908062E+00  0.15965517594E+01  0.56089728664E+01  0.00000000000E+00 0.  1.
</event>
<event>
 7    1  0.2001181E-008  0.4614232E+02  0.7816164E-02  0.1320468E+00
        -11   -1    0    0    0    0  0.00000000000E+00  0.00000000000E+00  0.45593999997E+02  0.45594000000E+02  0.51100000000E-03 0. -1.
         11   -1    0    0    0    0 -0.00000000000E+00 -0.00000000000E+00 -0.45593999997E+02  0.45594000000E+02  0.51100000000E-03 0.  1.
    9900012    2    1    2    0    0  0.19880051889E+02 -0.52113784725E+01  0.40084140108E+02  0.46142320775E+02  0.10000027481E+02 0.  0.
        -12    1    1    2    0    0 -0.19880051889E+02  0.52113784725E+01 -0.40084140108E+02  0.45045679225E+02  0.00000000000E+00 0.  1.
         11    1    3    3    0    0  0.17168828669E+02 -0.29928948219E+01  0.26240150140E+02  0.31500342489E+02  0.51100000000E-03 0. -1.
        -11    1    3    3    0    0 -0.11232470758E-01 -0.13308232807E+01  0.16683957882E+01  0.21341887312E+01  0.51100000000E-03 0.  1.
         12    1    3    3    0    0  0.27224556907E+01 -0.88766036984E+00  0.12175594180E+02  0.12507789555E+02  0.00000000000E+00 0. -1.
</event>
<event>
 7    1  0.2001181E-008  0.4614232E+02  0.7816164E-02  0.1320468E+00
        -11   -1    0    0    0    0  0.00000000000E+00  0.00000000000E+00  0.45593999997E+02  0.45594000000E+02  0.51100000000E-03 0. -1.
         11   -1    0    0    0    0 -0.00000000000E+00 -0.00000000000E+00 -0.45593999997E+02  0.45594000000E+02  0.51100000000E-03 0.  1.
    9900012    2    1    2    0    0 -0.35509698863E+02 -0.26209929062E+02  0.90119028630E+01  0.46142317765E+02  0.10000000037E+02 0.  0.
        -12    1    1    2    0    0  0.35509698863E+02  0.26209929062E+02 -0.90119028630E+01  0.45045682235E+02  0.00000000000E+00 0.  1.
         11    1    3    3    0    0 -0.12438826650E+02 -0.44432084787E+01  0.47889371305E+01  0.14049926303E+02  0.51100000000E-03 0. -1.
        -11    1    3    3    0    0 -0.10617763277E+01 -0.11622596133E+01 -0.31103525415E+00  0.16046680557E+01  0.51100000000E-03 0.  1.
         12    1    3    3    0    0 -0.22009095885E+02 -0.20604460970E+02  0.45340009866E+01  0.30487723406E+02  0.00000000000E+00 0. -1.
</event>
<event>
 7    1  0.2001181E-008  0.4614232E+02  0.7816164E-02  0.1320468E+00
        -11   -1    0    0    0    0  0.00000000000E+00  0.00000000000E+00  0.45593999997E+02  0.45594000000E+02  0.51100000000E-03 0.  1.
         11   -1    0    0    0    0 -0.00000000000E+00 -0.00000000000E+00 -0.45593999997E+02  0.45594000000E+02  0.51100000000E-03 0. -1.
    9900012    2    1    2    0    0 -0.44591413880E+02 -0.54216341728E+01 -0.33652966542E+01  0.46142317294E+02  0.99999957366E+01 0.  0.
        -12    1    1    2    0    0  0.44591413880E+02  0.54216341728E+01  0.33652966542E+01  0.45045682706E+02  0.00000000000E+00 0.  1.
         11    1    3    3    0    0 -0.10164203471E+02  0.14986499972E+01 -0.27748962239E+01  0.10642228776E+02  0.51100000000E-03 0. -1.
        -11    1    3    3    0    0 -0.19601549930E+01 -0.14934544651E+01  0.68569392150E+00  0.25578878496E+01  0.51100000000E-03 0.  1.
        -12    1    3    3    0    0 -0.32467055416E+02 -0.54268297048E+01 -0.12760943518E+01  0.32942200668E+02  0.00000000000E+00 0.  1.
</event>
<event>
 7    1  0.2001181E-008  0.4614232E+02  0.7816164E-02  0.1320468E+00
        -11   -1    0    0    0    0  0.00000000000E+00  0.00000000000E+00  0.45593999997E+02  0.45594000000E+02  0.51100000000E-03 0.  1.
         11   -1    0    0    0    0 -0.00000000000E+00 -0.00000000000E+00 -0.45593999997E+02  0.45594000000E+02  0.51100000000E-03 0. -1.
    9900012    2    1    2    0    0  0.34527197207E+01  0.32807205230E+02 -0.30673759020E+02  0.46142317845E+02  0.10000000762E+02 0.  0.
        -12    1    1    2    0    0 -0.34527197207E+01 -0.32807205230E+02  0.30673759020E+02  0.45045682155E+02  0.00000000000E+00 0.  1.
         11    1    3    3    0    0 -0.23665260944E+01  0.13102272452E+02 -0.14991074062E+02  0.20049994787E+02  0.51100000000E-03 0. -1.
        -11    1    3    3    0    0  0.32189495180E+01  0.14999420880E+02 -0.10255959226E+02  0.18453426854E+02  0.51100000000E-03 0.  1.
         12    1    3    3    0    0  0.26002962971E+01  0.47055118970E+01 -0.54267257320E+01  0.76388962040E+01  0.00000000000E+00 0. -1.
</event>
<event>
 7    1  0.2001181E-008  0.4614232E+02  0.7816164E-02  0.1320468E+00
        -11   -1    0    0    0    0  0.00000000000E+00  0.00000000000E+00  0.45593999997E+02  0.45594000000E+02  0.51100000000E-03 0. -1.
         11   -1    0    0    0    0 -0.00000000000E+00 -0.00000000000E+00 -0.45593999997E+02  0.45594000000E+02  0.51100000000E-03 0.  1.
    9900012    2    1    2    0    0 -0.49317889846E+01 -0.35399683869E+02  0.27416298801E+02  0.46142316515E+02  0.99999886400E+01 0.  0.
        -12    1    1    2    0    0  0.49317889846E+01  0.35399683869E+02 -0.27416298801E+02  0.45045683485E+02  0.00000000000E+00 0.  1.
         11    1    3    3    0    0 -0.27483224558E+00 -0.72301522794E+01  0.64777265600E+01  0.97114147473E+01  0.51100000000E-03 0. -1.
        -11    1    3    3    0    0 -0.49274656845E+01 -0.28397062680E+02  0.19139876553E+02  0.34597802844E+02  0.51100000000E-03 0.  1.
        -12    1    3    3    0    0  0.27050894549E+00  0.22753108965E+00  0.17986956884E+01  0.18330989242E+01  0.00000000000E+00 0.  1.
</event>
<event>
 7    1  0.2001181E-008  0.4614232E+02  0.7816164E-02  0.1320468E+00
        -11   -1    0    0    0    0  0.00000000000E+00  0.00000000000E+00  0.45593999997E+02  0.45594000000E+02  0.51100000000E-03 0.  1.
         11   -1    0    0    0    0 -0.00000000000E+00 -0.00000000000E+00 -0.45593999997E+02  0.45594000000E+02  0.51100000000E-03 0. -1.
    9900012    2    1    2    0    0  0.38899642955E+01  0.35605017830E+02 -0.27317839786E+02  0.46142317771E+02  0.10000000094E+02 0.  0.
        -12    1    1    2    0    0 -0.38899642955E+01 -0.35605017830E+02  0.27317839786E+02  0.45045682229E+02  0.00000000000E+00 0.  1.
         11    1    3    3    0    0 -0.37816435698E+00  0.10958864329E+02 -0.81100561826E+01  0.13638648291E+02  0.51100000000E-03 0. -1.
        -11    1    3    3    0    0 -0.13897872143E+01  0.12636883048E+02 -0.72396900931E+01  0.14629949917E+02  0.51100000000E-03 0.  1.
        -12    1    3    3    0    0  0.56579158668E+01  0.12009270453E+02 -0.11968093510E+02  0.17873719563E+02  0.00000000000E+00 0.  1.
</event>
<event>
 7    1  0.2001181E-008  0.4614232E+02  0.7816164E-02  0.1320468E+00
        -11   -1    0    0    0    0  0.00000000000E+00  0.00000000000E+00  0.45593999997E+02  0.45594000000E+02  0.51100000000E-03 0. -1.
         11   -1    0    0    0    0 -0.00000000000E+00 -0.00000000000E+00 -0.45593999997E+02  0.45594000000E+02  0.51100000000E-03 0.  1.
    9900012    2    1    2    0    0 -0.10584900004E+02 -0.40991446754E+02  0.15387470894E+02  0.46142322343E+02  0.10000041778E+02 0.  0.
        -12    1    1    2    0    0  0.10584900004E+02  0.40991446754E+02 -0.15387470894E+02  0.45045677657E+02  0.00000000000E+00 0.  1.
         11    1    3    3    0    0 -0.21441627405E+01 -0.23441191183E+01  0.64135459973E+00  0.32409357109E+01  0.51100000000E-03 0. -1.
        -11    1    3    3    0    0 -0.25838436990E+01 -0.65219199292E+01 -0.13305324675E+00  0.70163659577E+01  0.51100000000E-03 0.  1.
        -12    1    3    3    0    0 -0.58568935642E+01 -0.32125407707E+02  0.14879169541E+02  0.35885020674E+02  0.00000000000E+00 0.  1.
</event>
<event>
 7    1  0.2001181E-008  0.4614232E+02  0.7816164E-02  0.1320468E+00
        -11   -1    0    0    0    0  0.00000000000E+00  0.00000000000E+00  0.45593999997E+02  0.45594000000E+02  0.51100000000E-03 0.  1.
         11   -1    0    0    0    0 -0.00000000000E+00 -0.00000000000E+00 -0.45593999997E+02  0.45594000000E+02  0.51100000000E-03 0. -1.
    9900012    2    1    2    0    0 -0.40680843857E+02 -0.21663647859E+01 -0.19222102109E+02  0.46142318711E+02  0.10000008660E+02 0.  0.
        -12    1    1    2    0    0  0.40680843857E+02  0.21663647859E+01  0.19222102109E+02  0.45045681289E+02  0.00000000000E+00 0.  1.
         11    1    3    3    0    0 -0.15371657897E+02 -0.47536480267E+01 -0.72470340118E+01  0.17646657992E+02  0.51100000000E-03 0. -1.
        -11    1    3    3    0    0 -0.10308514908E+02  0.20910639061E+00 -0.25514103638E+01  0.10621624179E+02  0.51100000000E-03 0.  1.
        -12    1    3    3    0    0 -0.15000671052E+02  0.23781768503E+01 -0.94236577333E+01  0.17874036539E+02  0.00000000000E+00 0.  1.
</event>
<event>
 7    1  0.2001181E-008  0.4614232E+02  0.7816164E-02  0.1320468E+00
        -11   -1    0    0    0    0  0.00000000000E+00  0.00000000000E+00  0.45593999997E+02  0.45594000000E+02  0.51100000000E-03 0. -1.
         11   -1    0    0    0    0 -0.00000000000E+00 -0.00000000000E+00 -0.45593999997E+02  0.45594000000E+02  0.51100000000E-03 0.  1.
    9900012    2    1    2    0    0 -0.13753392026E+02 -0.63086470778E+01  0.42428276348E+02  0.46142318142E+02  0.10000003474E+02 0.  0.
        -12    1    1    2    0    0  0.13753392026E+02  0.63086470778E+01 -0.42428276348E+02  0.45045681858E+02  0.00000000000E+00 0.  1.
         11    1    3    3    0    0 -0.52113986701E+01  0.24786432714E+00  0.23926293602E+02  0.24488520547E+02  0.51100000000E-03 0. -1.
        -11    1    3    3    0    0 -0.43913738408E+01 -0.27164848328E+01  0.11831101316E+02  0.12908850169E+02  0.51100000000E-03 0.  1.
        -12    1    3    3    0    0 -0.41506195147E+01 -0.38400265722E+01  0.66708814303E+01  0.87449474263E+01  0.00000000000E+00 0.  1.
</event>
<event>
 7    1  0.2001181E-008  0.4614232E+02  0.7816164E-02  0.1320468E+00
        -11   -1    0    0    0    0  0.00000000000E+00  0.00000000000E+00  0.45593999997E+02  0.45594000000E+02  0.51100000000E-03 0.  1.
         11   -1    0    0    0    0 -0.00000000000E+00 -0.00000000000E+00 -0.45593999997E+02  0.45594000000E+02  0.51100000000E-03 0. -1.
    9900012    2    1    2    0    0  0.25126363308E+02  0.38555493284E+01 -0.37187552871E+02  0.46142317829E+02  0.10000000622E+02 0.  0.
        -12    1    1    2    0    0 -0.25126363308E+02 -0.38555493284E+01  0.37187552871E+02  0.45045682171E+02  0.00000000000E+00 0.  1.
         11    1    3    3    0    0  0.14942658254E+01  0.16253980703E+01 -0.48635664063E+01  0.53412571267E+01  0.51100000000E-03 0. -1.
        -11    1    3    3    0    0  0.72932891579E+01 -0.26000859035E+01 -0.11987473441E+02  0.14270670384E+02  0.51100000000E-03 0.  1.
        -12    1    3    3    0    0  0.16338808325E+02  0.48302371615E+01 -0.20336513023E+02  0.26530390318E+02  0.00000000000E+00 0.  1.
</event>
<event>
 7    1  0.2001181E-008  0.4614232E+02  0.7816164E-02  0.1320468E+00
        -11   -1    0    0    0    0  0.00000000000E+00  0.00000000000E+00  0.45593999997E+02  0.45594000000E+02  0.51100000000E-03 0. -1.
         11   -1    0    0    0    0 -0.00000000000E+00 -0.00000000000E+00 -0.45593999997E+02  0.45594000000E+02  0.51100000000E-03 0.  1.
    9900012    2    1    2    0    0  0.56252274595E+01  0.44293947067E+02  0.59595626492E+01  0.46142319655E+02  0.10000017271E+02 0.  0.
        -12    1    1    2    0    0 -0.56252274595E+01 -0.44293947067E+02 -0.59595626492E+01  0.45045680345E+02  0.00000000000E+00 0.  1.
         11    1    3    3    0    0  0.18367876459E+00  0.52092314087E+01  0.21717584548E+01  0.56468012897E+01  0.51100000000E-03 0. -1.
        -11    1    3    3    0    0 -0.70796965721E+00  0.79087707555E+00  0.12330595348E+01  0.16270045057E+01  0.51100000000E-03 0.  1.
         12    1    3    3    0    0  0.61495183521E+01  0.38293838583E+02  0.25547446596E+01  0.38868513860E+02  0.00000000000E+00 0. -1.
</event>
<event>
 7    1  0.2001181E-008  0.4614232E+02  0.7816164E-02  0.1320468E+00
        -11   -1    0    0    0    0  0.00000000000E+00  0.00000000000E+00  0.45593999997E+02  0.45594000000E+02  0.51100000000E-03 0.  1.
         11   -1    0    0    0    0 -0.00000000000E+00 -0.00000000000E+00 -0.45593999997E+02  0.45594000000E+02  0.51100000000E-03 0. -1.
    9900012    2    1    2    0    0 -0.13460165602E+02 -0.22216788353E+02 -0.36801518177E+02  0.46142317822E+02  0.10000000554E+02 0.  0.
        -12    1    1    2    0    0  0.13460165602E+02  0.22216788353E+02  0.36801518177E+02  0.45045682178E+02  0.00000000000E+00 0.  1.
         11    1    3    3    0    0 -0.80374779573E+01 -0.14582315678E+02 -0.21501081785E+02  0.27194512326E+02  0.51100000000E-03 0. -1.
        -11    1    3    3    0    0 -0.49976399512E+01 -0.65914496766E+01 -0.15705667445E+02  0.17750819814E+02  0.51100000000E-03 0.  1.
        -12    1    3    3    0    0 -0.42504769364E+00 -0.10430229980E+01  0.40523105297E+00  0.11969856819E+01  0.00000000000E+00 0.  1.
</event>
<event>
 7    1  0.2001181E-008  0.4614232E+02  0.7816164E-02  0.1320468E+00
        -11   -1    0    0    0    0  0.00000000000E+00  0.00000000000E+00  0.45593999997E+02  0.45594000000E+02  0.51100000000E-03 0.  1.
         11   -1    0    0    0    0 -0.00000000000E+00 -0.00000000000E+00 -0.45593999997E+02  0.45594000000E+02  0.51100000000E-03 0. -1.
    9900012    2    1    2    0    0 -0.32686529968E+02  0.30658044207E+02 -0.45594547617E+01  0.46142317147E+02  0.99999944005E+01 0.  0.
        -12    1    1    2    0    0  0.32686529968E+02 -0.30658044207E+02  0.45594547617E+01  0.45045682853E+02  0.00000000000E+00 0.  1.
         11    1    3    3    0    0 -0.83872084603E+01  0.88510389994E+01  0.88018093231E-01  0.12194011012E+02  0.51100000000E-03 0. -1.
        -11    1    3    3    0    0 -0.19679317544E+01  0.34490939825E+00  0.13352115842E+01  0.24030206239E+01  0.51100000000E-03 0.  1.
        -12    1    3    3    0    0 -0.22331389754E+02  0.21462095809E+02 -0.59826844392E+01  0.31545285511E+02  0.00000000000E+00 0.  1.
</event>
<event>
 7    1  0.2001181E-008  0.4614232E+02  0.7816164E-02  0.1320468E+00
        -11   -1    0    0    0    0  0.00000000000E+00  0.00000000000E+00  0.45593999997E+02  0.45594000000E+02  0.51100000000E-03 0.  1.
         11   -1    0    0    0    0 -0.00000000000E+00 -0.00000000000E+00 -0.45593999997E+02  0.45594000000E+02  0.51100000000E-03 0. -1.
    9900012    2    1    2    0    0  0.23674046074E+01  0.43592339451E+02 -0.11100304062E+02  0.46142318590E+02  0.10000007559E+02 0.  0.
        -12    1    1    2    0    0 -0.23674046074E+01 -0.43592339451E+02  0.11100304062E+02  0.45045681410E+02  0.00000000000E+00 0.  1.
         11    1    3    3    0    0  0.20733481493E+01  0.20686549321E+02 -0.17139398415E+01  0.20860721114E+02  0.51100000000E-03 0. -1.
        -11    1    3    3    0    0 -0.18193658555E+01  0.18446798395E+02 -0.75969771730E+01  0.20032686429E+02  0.51100000000E-03 0.  1.
        -12    1    3    3    0    0  0.21134223136E+01  0.44589917356E+01 -0.17893870472E+01  0.52489110470E+01  0.00000000000E+00 0.  1.
</event>
<event>
 7    1  0.2001181E-008  0.4614232E+02  0.7816164E-02  0.1320468E+00
        -11   -1    0    0    0    0  0.00000000000E+00  0.00000000000E+00  0.45593999997E+02  0.45594000000E+02  0.51100000000E-03 0. -1.
         11   -1    0    0    0    0 -0.00000000000E+00 -0.00000000000E+00 -0.45593999997E+02  0.45594000000E+02  0.51100000000E-03 0.  1.
    9900012    2    1    2    0    0 -0.57992253295E+01  0.33926219477E+02  0.29060181416E+02  0.46142317340E+02  0.99999961590E+01 0.  0.
        -12    1    1    2    0    0  0.57992253295E+01 -0.33926219477E+02 -0.29060181416E+02  0.45045682660E+02  0.00000000000E+00 0.  1.
         11    1    3    3    0    0 -0.12052941639E+01  0.63426110815E+01  0.10210366797E+02  0.12080274820E+02  0.51100000000E-03 0. -1.
        -11    1    3    3    0    0 -0.13979638415E+01  0.14553068254E+01  0.17622334755E+01  0.26791207403E+01  0.51100000000E-03 0.  1.
         12    1    3    3    0    0 -0.31959673241E+01  0.26128301570E+02  0.17087581144E+02  0.31382921779E+02  0.00000000000E+00 0. -1.
</event>
<event>
 7    1  0.2001181E-008  0.4614231E+02  0.7816164E-02  0.1320468E+00
        -11   -1    0    0    0    0  0.00000000000E+00  0.00000000000E+00  0.45593999997E+02  0.45594000000E+02  0.51100000000E-03 0. -1.
         11   -1    0    0    0    0 -0.00000000000E+00 -0.00000000000E+00 -0.45593999997E+02  0.45594000000E+02  0.51100000000E-03 0.  1.
    9900012    2    1    2    0    0 -0.11975144613E+01  0.27405678225E+02  0.35729663328E+02  0.46142311178E+02  0.99999399741E+01 0.  0.
        -12    1    1    2    0    0  0.11975144613E+01 -0.27405678225E+02 -0.35729663328E+02  0.45045688822E+02  0.00000000000E+00 0.  1.
         11    1    3    3    0    0  0.71150674137E+00  0.49248625956E+01  0.31068205039E+01  0.58662464432E+01  0.51100000000E-03 0. -1.
        -11    1    3    3    0    0  0.94864535713E+00  0.38231907829E+00  0.39772673116E+00  0.10973981525E+01  0.51100000000E-03 0.  1.
         12    1    3    3    0    0 -0.28576665598E+01  0.22098496552E+02  0.32225116093E+02  0.39178666583E+02  0.00000000000E+00 0. -1.
</event>
<event>
 7    1  0.2001181E-008  0.4614232E+02  0.7816164E-02  0.1320468E+00
        -11   -1    0    0    0    0  0.00000000000E+00  0.00000000000E+00  0.45593999997E+02  0.45594000000E+02  0.51100000000E-03 0. -1.
         11   -1    0    0    0    0 -0.00000000000E+00 -0.00000000000E+00 -0.45593999997E+02  0.45594000000E+02  0.51100000000E-03 0.  1.
    9900012    2    1    2    0    0  0.88099602604E+01  0.44160471943E+02  0.11622686486E+01  0.46142317073E+02  0.99999937207E+01 0.  0.
        -12    1    1    2    0    0 -0.88099602604E+01 -0.44160471943E+02 -0.11622686486E+01  0.45045682927E+02  0.00000000000E+00 0.  1.
         11    1    3    3    0    0  0.15419902442E+01  0.19839988416E+02  0.23985571558E+01  0.20043850702E+02  0.51100000000E-03 0. -1.
        -11    1    3    3    0    0  0.18851054176E+01  0.11802761721E+01 -0.70967824277E+00  0.23345915589E+01  0.51100000000E-03 0.  1.
         12    1    3    3    0    0  0.53828645986E+01  0.23140207355E+02 -0.52661026451E+00  0.23763874812E+02  0.00000000000E+00 0. -1.
</event>
<event>
 7    1  0.2001181E-008  0.4614232E+02  0.7816164E-02  0.1320468E+00
        -11   -1    0    0    0    0  0.00000000000E+00  0.00000000000E+00  0.45593999997E+02  0.45594000000E+02  0.51100000000E-03 0.  1.
         11   -1    0    0    0    0 -0.00000000000E+00 -0.00000000000E+00 -0.45593999997E+02  0.45594000000E+02  0.51100000000E-03 0. -1.
    9900012    2    1    2    0    0  0.17446856616E+02  0.31196806030E+02 -0.27413135400E+02  0.46142317580E+02  0.99999983456E+01 0.  0.
        -12    1    1    2    0    0 -0.17446856616E+02 -0.31196806030E+02  0.27413135400E+02  0.45045682420E+02  0.00000000000E+00 0.  1.
         11    1    3    3    0    0  0.73587205004E+01  0.12156760731E+02 -0.82422721952E+01  0.16427801133E+02  0.51100000000E-03 0. -1.
        -11    1    3    3    0    0 -0.76799318995E+00  0.43342036947E+01 -0.32088324896E+01  0.54471773805E+01  0.51100000000E-03 0.  1.
         12    1    3    3    0    0  0.10856129305E+02  0.14705841605E+02 -0.15962030715E+02  0.24267339066E+02  0.00000000000E+00 0. -1.
</event>
<event>
 7    1  0.2001181E-008  0.4614232E+02  0.7816164E-02  0.1320468E+00
        -11   -1    0    0    0    0  0.00000000000E+00  0.00000000000E+00  0.45593999997E+02  0.45594000000E+02  0.51100000000E-03 0.  1.
         11   -1    0    0    0    0 -0.00000000000E+00 -0.00000000000E+00 -0.45593999997E+02  0.45594000000E+02  0.51100000000E-03 0. -1.
    9900012    2    1    2    0    0 -0.55094628311E+00  0.90460378417E+01 -0.44124587682E+02  0.46142316738E+02  0.99999906718E+01 0.  0.
        -12    1    1    2    0    0  0.55094628311E+00 -0.90460378417E+01  0.44124587682E+02  0.45045683262E+02  0.00000000000E+00 0.  1.
         11    1    3    3    0    0  0.19021953153E+01  0.69489931921E+01 -0.34594094960E+02  0.35336358892E+02  0.51100000000E-03 0. -1.
        -11    1    3    3    0    0  0.33881051109E+00 -0.85037524383E+00 -0.27998331285E+01  0.29456741887E+01  0.51100000000E-03 0.  1.
        -12    1    3    3    0    0 -0.27919521095E+01  0.29474198935E+01 -0.67306595935E+01  0.78602836574E+01  0.00000000000E+00 0.  1.
</event>
<event>
 7    1  0.2001181E-008  0.4614232E+02  0.7816164E-02  0.1320468E+00
        -11   -1    0    0    0    0  0.00000000000E+00  0.00000000000E+00  0.45593999997E+02  0.45594000000E+02  0.51100000000E-03 0. -1.
         11   -1    0    0    0    0 -0.00000000000E+00 -0.00000000000E+00 -0.45593999997E+02  0.45594000000E+02  0.51100000000E-03 0.  1.
    9900012    2    1    2    0    0 -0.27098425148E+00  0.43729603335E+02  0.10805644363E+02  0.46142316629E+02  0.99999896757E+01 0.  0.
        -12    1    1    2    0    0  0.27098425148E+00 -0.43729603335E+02 -0.10805644363E+02  0.45045683371E+02  0.00000000000E+00 0.  1.
         11    1    3    3    0    0 -0.35713349367E+00  0.21842376631E+02  0.34235987445E+01  0.22111942245E+02  0.51100000000E-03 0.  1.
        -11    1    3    3    0    0  0.92666285357E+00  0.28601523760E+01  0.34624483332E+01  0.45855996750E+01  0.51100000000E-03 0. -1.
         12    1    3    3    0    0 -0.84051361137E+00  0.19027074328E+02  0.39195972851E+01  0.19444774709E+02  0.00000000000E+00 0. -1.
</event>
<event>
 7    1  0.2001181E-008  0.4614232E+02  0.7816164E-02  0.1320468E+00
        -11   -1    0    0    0    0  0.00000000000E+00  0.00000000000E+00  0.45593999997E+02  0.45594000000E+02  0.51100000000E-03 0. -1.
         11   -1    0    0    0    0 -0.00000000000E+00 -0.00000000000E+00 -0.45593999997E+02  0.45594000000E+02  0.51100000000E-03 0.  1.
    9900012    2    1    2    0    0  0.41928287353E+02 -0.98091727358E+01 -0.13225443591E+02  0.46142317540E+02  0.99999979866E+01 0.  0.
        -12    1    1    2    0    0 -0.41928287353E+02  0.98091727358E+01  0.13225443591E+02  0.45045682460E+02  0.00000000000E+00 0.  1.
         11    1    3    3    0    0  0.17173281847E+02 -0.54839446843E+01 -0.73377596816E+01  0.19463760585E+02  0.51100000000E-03 0. -1.
        -11    1    3    3    0    0  0.46698312624E+01  0.18102509354E+01 -0.14405816328E+01  0.52114880956E+01  0.51100000000E-03 0.  1.
         12    1    3    3    0    0  0.20085174243E+02 -0.61354789869E+01 -0.44471022761E+01  0.21467068860E+02  0.00000000000E+00 0. -1.
</event>
<event>
 7    1  0.2001181E-008  0.4614232E+02  0.7816164E-02  0.1320468E+00
        -11   -1    0    0    0    0  0.00000000000E+00  0.00000000000E+00  0.45593999997E+02  0.45594000000E+02  0.51100000000E-03 0. -1.
         11   -1    0    0    0    0 -0.00000000000E+00 -0.00000000000E+00 -0.45593999997E+02  0.45594000000E+02  0.51100000000E-03 0.  1.
    9900012    2    1    2    0    0 -0.30204663584E+02  0.32019273916E+02  0.95685948423E+01  0.46142316393E+02  0.99999875257E+01 0.  0.
        -12    1    1    2    0    0  0.30204663584E+02 -0.32019273916E+02 -0.95685948423E+01  0.45045683607E+02  0.00000000000E+00 0.  1.
         11    1    3    3    0    0 -0.57245180607E+01  0.34279124084E+01  0.26286603326E+01  0.71715093190E+01  0.51100000000E-03 0. -1.
        -11    1    3    3    0    0  0.48774120940E+00  0.11330586111E+01  0.28638174875E+00  0.12663838559E+01  0.51100000000E-03 0.  1.
         12    1    3    3    0    0 -0.24967886733E+02  0.27458302897E+02  0.66535527609E+01  0.37704423218E+02  0.00000000000E+00 0. -1.
</event>
<event>
 7    1  0.2001181E-008  0.4614232E+02  0.7816164E-02  0.1320468E+00
        -11   -1    0    0    0    0  0.00000000000E+00  0.00000000000E+00  0.45593999997E+02  0.45594000000E+02  0.51100000000E-03 0.  1.
         11   -1    0    0    0    0 -0.00000000000E+00 -0.00000000000E+00 -0.45593999997E+02  0.45594000000E+02  0.51100000000E-03 0. -1.
    9900012    2    1    2    0    0 -0.22803666213E+02 -0.21326657201E+02 -0.32469680049E+02  0.46142316271E+02  0.99999864095E+01 0.  0.
        -12    1    1    2    0    0  0.22803666213E+02  0.21326657201E+02  0.32469680049E+02  0.45045683729E+02  0.00000000000E+00 0.  1.
         11    1    3    3    0    0 -0.26136768454E+01 -0.62987594148E+01 -0.66645574217E+01  0.95353029688E+01  0.51100000000E-03 0.  1.
        -11    1    3    3    0    0 -0.41705866605E+01 -0.58344135982E+01 -0.99492909626E+01  0.12264687768E+02  0.51100000000E-03 0. -1.
         12    1    3    3    0    0 -0.16019402707E+02 -0.91934841880E+01 -0.15855831665E+02  0.24342325534E+02  0.00000000000E+00 0. -1.
</event>
<event>
 7    1  0.2001181E-008  0.4614231E+02  0.7816164E-02  0.1320468E+00
        -11   -1    0    0    0    0  0.00000000000E+00  0.00000000000E+00  0.45593999997E+02  0.45594000000E+02  0.51100000000E-03 0.  1.
         11   -1    0    0    0    0 -0.00000000000E+00 -0.00000000000E+00 -0.45593999997E+02  0.45594000000E+02  0.51100000000E-03 0. -1.
    9900012    2    1    2    0    0 -0.83196771982E+01  0.40758202745E+02 -0.17281954472E+02  0.46142311304E+02  0.99999411213E+01 0.  0.
        -12    1    1    2    0    0  0.83196771982E+01 -0.40758202745E+02  0.17281954472E+02  0.45045688696E+02  0.00000000000E+00 0.  1.
         11    1    3    3    0    0 -0.28382494442E+01  0.11067122382E+02 -0.54876388572E+01  0.12674819060E+02  0.51100000000E-03 0. -1.
        -11    1    3    3    0    0  0.22071322294E+01  0.52167833082E+01 -0.22919771958E+01  0.61105990288E+01  0.51100000000E-03 0.  1.
        -12    1    3    3    0    0 -0.76885599835E+01  0.24474297055E+02 -0.95023384186E+01  0.27356893215E+02  0.00000000000E+00 0.  1.
</event>
<event>
 7    1  0.2001181E-008  0.4614232E+02  0.7816164E-02  0.1320468E+00
        -11   -1    0    0    0    0  0.00000000000E+00  0.00000000000E+00  0.45593999997E+02  0.45594000000E+02  0.51100000000E-03 0.  1.
         11   -1    0    0    0    0 -0.00000000000E+00 -0.00000000000E+00 -0.45593999997E+02  0.45594000000E+02  0.51100000000E-03 0. -1.
    9900012    2    1    2    0    0 -0.30664705170E+00  0.79516703900E+01 -0.44337234812E+02  0.46142317796E+02  0.10000000322E+02 0.  0.
        -12    1    1    2    0    0  0.30664705170E+00 -0.79516703900E+01  0.44337234812E+02  0.45045682204E+02  0.00000000000E+00 0.  1.
         11    1    3    3    0    0 -0.79253652885E+00  0.73445770081E+01 -0.22926927403E+02  0.24087650902E+02  0.51100000000E-03 0. -1.
        -11    1    3    3    0    0  0.14697404599E+01  0.12415237684E+00 -0.14637011968E+01  0.20779731199E+01  0.51100000000E-03 0.  1.
         12    1    3    3    0    0 -0.98385098280E+00  0.48294100501E+00 -0.19946606212E+02  0.19976693774E+02  0.00000000000E+00 0. -1.
</event>
<event>
 7    1  0.2001181E-008  0.4614232E+02  0.7816164E-02  0.1320468E+00
        -11   -1    0    0    0    0  0.00000000000E+00  0.00000000000E+00  0.45593999997E+02  0.45594000000E+02  0.51100000000E-03 0.  1.
         11   -1    0    0    0    0 -0.00000000000E+00 -0.00000000000E+00 -0.45593999997E+02  0.45594000000E+02  0.51100000000E-03 0. -1.
    9900012    2    1    2    0    0 -0.19564157639E+02  0.28752673153E+02 -0.28629375559E+02  0.46142316272E+02  0.99999864232E+01 0.  0.
        -12    1    1    2    0    0  0.19564157639E+02 -0.28752673153E+02  0.28629375559E+02  0.45045683728E+02  0.00000000000E+00 0.  1.
         11    1    3    3    0    0 -0.13064821951E+01  0.27516731619E+01  0.24722360539E-01  0.30461799638E+01  0.51100000000E-03 0. -1.
        -11    1    3    3    0    0 -0.40642804481E+01  0.99432800116E+01 -0.89081948143E+01  0.13955039522E+02  0.51100000000E-03 0.  1.
         12    1    3    3    0    0 -0.14193394996E+02  0.16057719980E+02 -0.19745903105E+02  0.29141096786E+02  0.00000000000E+00 0. -1.
</event>
<event>
 7    1  0.2001181E-008  0.4614232E+02  0.7816164E-02  0.1320468E+00
        -11   -1    0    0    0    0  0.00000000000E+00  0.00000000000E+00  0.45593999997E+02  0.45594000000E+02  0.51100000000E-03 0. -1.
         11   -1    0    0    0    0 -0.00000000000E+00 -0.00000000000E+00 -0.45593999997E+02  0.45594000000E+02  0.51100000000E-03 0.  1.
    9900012    2    1    2    0    0 -0.41479036625E+02 -0.26306267126E+01  0.17369018881E+02  0.46142317708E+02  0.99999995169E+01 0.  0.
        -12    1    1    2    0    0  0.41479036625E+02  0.26306267126E+01 -0.17369018881E+02  0.45045682292E+02  0.00000000000E+00 0.  1.
         11    1    3    3    0    0 -0.22088900102E+02 -0.58145861618E+01  0.10634292530E+02  0.25195576950E+02  0.51100000000E-03 0. -1.
        -11    1    3    3    0    0 -0.23972720813E-01  0.17541833167E+00 -0.84000562527E-01  0.19596591044E+00  0.51100000000E-03 0.  1.
         12    1    3    3    0    0 -0.19366163802E+02  0.30085411175E+01  0.68187269133E+01  0.20750774848E+02  0.00000000000E+00 0. -1.
</event>
<event>
 7    1  0.2001181E-008  0.4614232E+02  0.7816164E-02  0.1320468E+00
        -11   -1    0    0    0    0  0.00000000000E+00  0.00000000000E+00  0.45593999997E+02  0.45594000000E+02  0.51100000000E-03 0.  1.
         11   -1    0    0    0    0 -0.00000000000E+00 -0.00000000000E+00 -0.45593999997E+02  0.45594000000E+02  0.51100000000E-03 0. -1.
    9900012    2    1    2    0    0 -0.30143256869E+02  0.32846379292E+02 -0.64508073952E+01  0.46142317817E+02  0.10000000509E+02 0.  0.
        -12    1    1    2    0    0  0.30143256869E+02 -0.32846379292E+02  0.64508073952E+01  0.45045682183E+02  0.00000000000E+00 0.  1.
         11    1    3    3    0    0 -0.13193480613E+02  0.15224890539E+02 -0.70851538641E+00  0.20158551955E+02  0.51100000000E-03 0. -1.
        -11    1    3    3    0    0 -0.78331905209E+01  0.52684356341E+01 -0.48296532923E+01  0.10603812473E+02  0.51100000000E-03 0.  1.
        -12    1    3    3    0    0 -0.91165857351E+01  0.12353053119E+02 -0.91263871649E+00  0.15379953390E+02  0.00000000000E+00 0.  1.
</event>
<event>
 7    1  0.2001181E-008  0.4614232E+02  0.7816164E-02  0.1320468E+00
        -11   -1    0    0    0    0  0.00000000000E+00  0.00000000000E+00  0.45593999997E+02  0.45594000000E+02  0.51100000000E-03 0.  1.
         11   -1    0    0    0    0 -0.00000000000E+00 -0.00000000000E+00 -0.45593999997E+02  0.45594000000E+02  0.51100000000E-03 0. -1.
    9900012    2    1    2    0    0 -0.31053558175E+02  0.10117953763E+02 -0.31022846927E+02  0.46142317686E+02  0.99999993192E+01 0.  0.
        -12    1    1    2    0    0  0.31053558175E+02 -0.10117953763E+02  0.31022846927E+02  0.45045682314E+02  0.00000000000E+00 0.  1.
         11    1    3    3    0    0 -0.15256163607E+02  0.18253178683E+01 -0.16681418193E+02  0.22679330380E+02  0.51100000000E-03 0. -1.
        -11    1    3    3    0    0 -0.23396436385E+01 -0.59215755655E+00 -0.14329312879E+01  0.28067552911E+01  0.51100000000E-03 0.  1.
         12    1    3    3    0    0 -0.13457750929E+02  0.88847934509E+01 -0.12908497446E+02  0.20656232015E+02  0.00000000000E+00 0. -1.
</event>
<event>
 7    1  0.2001181E-008  0.4614232E+02  0.7816164E-02  0.1320468E+00
        -11   -1    0    0    0    0  0.00000000000E+00  0.00000000000E+00  0.45593999997E+02  0.45594000000E+02  0.51100000000E-03 0.  1.
         11   -1    0    0    0    0 -0.00000000000E+00 -0.00000000000E+00 -0.45593999997E+02  0.45594000000E+02  0.51100000000E-03 0. -1.
    9900012    2    1    2    0    0  0.28673945156E+02 -0.54412477834E+01 -0.34311969812E+02  0.46142316737E+02  0.99999906628E+01 0.  0.
        -12    1    1    2    0    0 -0.28673945156E+02  0.54412477834E+01  0.34311969812E+02  0.45045683263E+02  0.00000000000E+00 0.  1.
         11    1    3    3    0    0  0.38697699610E+01 -0.72533189591E+00 -0.35108569098E+01  0.52751627854E+01  0.51100000000E-03 0. -1.
        -11    1    3    3    0    0  0.19212997854E+02 -0.63411665222E+01 -0.19227451892E+02  0.27911370190E+02  0.51100000000E-03 0.  1.
        -12    1    3    3    0    0  0.55911773406E+01  0.16252506348E+01 -0.11573661011E+02  0.12955783761E+02  0.00000000000E+00 0.  1.
</event>
<event>
 7    1  0.2001181E-008  0.4614232E+02  0.7816164E-02  0.1320468E+00
        -11   -1    0    0    0    0  0.00000000000E+00  0.00000000000E+00  0.45593999997E+02  0.45594000000E+02  0.51100000000E-03 0.  1.
         11   -1    0    0    0    0 -0.00000000000E+00 -0.00000000000E+00 -0.45593999997E+02  0.45594000000E+02  0.51100000000E-03 0. -1.
    9900012    2    1    2    0    0 -0.20736896908E+02  0.96603834425E+00 -0.39977011450E+02  0.46142316878E+02  0.99999919450E+01 0.  0.
        -12    1    1    2    0    0  0.20736896908E+02 -0.96603834425E+00  0.39977011450E+02  0.45045683122E+02  0.00000000000E+00 0.  1.
         11    1    3    3    0    0 -0.93756794254E+01 -0.17684491308E+01 -0.14049128002E+02  0.16982602124E+02  0.51100000000E-03 0. -1.
        -11    1    3    3    0    0 -0.11597853525E+00 -0.13662907107E+01 -0.25107438670E+01  0.28607754811E+01  0.51100000000E-03 0.  1.
        -12    1    3    3    0    0 -0.11245238947E+02  0.41007781857E+01 -0.23417139581E+02  0.26298939273E+02  0.00000000000E+00 0.  1.
</event>
<event>
 7    1  0.2001181E-008  0.4614232E+02  0.7816164E-02  0.1320468E+00
        -11   -1    0    0    0    0  0.00000000000E+00  0.00000000000E+00  0.45593999997E+02  0.45594000000E+02  0.51100000000E-03 0. -1.
         11   -1    0    0    0    0 -0.00000000000E+00 -0.00000000000E+00 -0.45593999997E+02  0.45594000000E+02  0.51100000000E-03 0.  1.
    9900012    2    1    2    0    0  0.15385479453E+02 -0.22883037839E+02  0.35619759944E+02  0.46142315443E+02  0.99999788658E+01 0.  0.
        -12    1    1    2    0    0 -0.15385479453E+02  0.22883037839E+02 -0.35619759944E+02  0.45045684557E+02  0.00000000000E+00 0.  1.
         11    1    3    3    0    0  0.77923079606E+01 -0.11968297377E+02  0.15483062606E+02  0.21063841848E+02  0.51100000000E-03 0. -1.
        -11    1    3    3    0    0  0.29044011529E+01 -0.23411257358E+01  0.14719117440E+01  0.40103541254E+01  0.51100000000E-03 0.  1.
         12    1    3    3    0    0  0.46887703394E+01 -0.85736147256E+01  0.18664785593E+02  0.21068119470E+02  0.00000000000E+00 0. -1.
</event>
<event>
 7    1  0.2001181E-008  0.4614232E+02  0.7816164E-02  0.1320468E+00
        -11   -1    0    0    0    0  0.00000000000E+00  0.00000000000E+00  0.45593999997E+02  0.45594000000E+02  0.51100000000E-03 0.  1.
         11   -1    0    0    0    0 -0.00000000000E+00 -0.00000000000E+00 -0.45593999997E+02  0.45594000000E+02  0.51100000000E-03 0. -1.
    9900012    2    1    2    0    0 -0.22697434020E+02  0.38371046373E+02 -0.64500305940E+01  0.46142316461E+02  0.99999881411E+01 0.  0.
        -12    1    1    2    0    0  0.22697434020E+02 -0.38371046373E+02  0.64500305940E+01  0.45045683539E+02  0.00000000000E+00 0.  1.
         11    1    3    3    0    0 -0.11193574347E+02  0.21527505968E+02 -0.61067914234E+01  0.25020442075E+02  0.51100000000E-03 0. -1.
        -11    1    3    3    0    0 -0.24040886210E+01  0.13808789162E+01 -0.14829654717E+01  0.31441462323E+01  0.51100000000E-03 0.  1.
         12    1    3    3    0    0 -0.90997710518E+01  0.15462661489E+02  0.11397263011E+01  0.17977728154E+02  0.00000000000E+00 0. -1.
</event>
<event>
 7    1  0.2001181E-008  0.4614232E+02  0.7816164E-02  0.1320468E+00
        -11   -1    0    0    0    0  0.00000000000E+00  0.00000000000E+00  0.45593999997E+02  0.45594000000E+02  0.51100000000E-03 0.  1.
         11   -1    0    0    0    0 -0.00000000000E+00 -0.00000000000E+00 -0.45593999997E+02  0.45594000000E+02  0.51100000000E-03 0. -1.
    9900012    2    1    2    0    0 -0.31528951740E+02 -0.31868183312E+02 -0.44110611850E+01  0.46142319117E+02  0.10000012367E+02 0.  0.
        -12    1    1    2    0    0  0.31528951740E+02  0.31868183312E+02  0.44110611850E+01  0.45045680883E+02  0.00000000000E+00 0.  1.
         11    1    3    3    0    0 -0.24905266358E+02 -0.19373405964E+02 -0.18119763147E+01  0.31605132644E+02  0.51100000000E-03 0. -1.
        -11    1    3    3    0    0 -0.50063979571E+01 -0.83338642148E+01 -0.91131316891E+00  0.97646200750E+01  0.51100000000E-03 0.  1.
        -12    1    3    3    0    0 -0.16172874252E+01 -0.41609131323E+01 -0.16877717013E+01  0.47725663983E+01  0.00000000000E+00 0.  1.
</event>
<event>
 7    1  0.2001181E-008  0.4614232E+02  0.7816164E-02  0.1320468E+00
        -11   -1    0    0    0    0  0.00000000000E+00  0.00000000000E+00  0.45593999997E+02  0.45594000000E+02  0.51100000000E-03 0.  1.
         11   -1    0    0    0    0 -0.00000000000E+00 -0.00000000000E+00 -0.45593999997E+02  0.45594000000E+02  0.51100000000E-03 0. -1.
    9900012    2    1    2    0    0  0.31677650374E+02 -0.30576009203E+02  0.95261535106E+01  0.46142317935E+02  0.10000001583E+02 0.  0.
        -12    1    1    2    0    0 -0.31677650374E+02  0.30576009203E+02 -0.95261535106E+01  0.45045682065E+02  0.00000000000E+00 0.  1.
         11    1    3    3    0    0  0.42983241332E+01 -0.91375705576E+01  0.19565356719E+01  0.10285855246E+02  0.51100000000E-03 0. -1.
        -11    1    3    3    0    0  0.17840032882E+02 -0.14714658267E+02  0.70413778326E+01  0.24173724231E+02  0.51100000000E-03 0.  1.
         12    1    3    3    0    0  0.95392933589E+01 -0.67237803782E+01  0.52824000611E+00  0.11682738457E+02  0.00000000000E+00 0. -1.
</event>
<event>
 7    1  0.2001181E-008  0.4614232E+02  0.7816164E-02  0.1320468E+00
        -11   -1    0    0    0    0  0.00000000000E+00  0.00000000000E+00  0.45593999997E+02  0.45594000000E+02  0.51100000000E-03 0.  1.
         11   -1    0    0    0    0 -0.00000000000E+00 -0.00000000000E+00 -0.45593999997E+02  0.45594000000E+02  0.51100000000E-03 0. -1.
    9900012    2    1    2    0    0 -0.97794219906E+01 -0.43971221622E+02  0.89359839715E-01  0.46142318625E+02  0.10000007874E+02 0.  0.
        -12    1    1    2    0    0  0.97794219906E+01  0.43971221622E+02 -0.89359839715E-01  0.45045681375E+02  0.00000000000E+00 0.  1.
         11    1    3    3    0    0 -0.73925562564E+01 -0.22277314521E+02 -0.34625031431E+00  0.23474422673E+02  0.51100000000E-03 0. -1.
        -11    1    3    3    0    0 -0.34602684743E+01 -0.21026737198E+02  0.88128577667E+00  0.21327770629E+02  0.51100000000E-03 0.  1.
        -12    1    3    3    0    0  0.10734027401E+01 -0.66716990280E+00 -0.44567562265E+00  0.13401253233E+01  0.00000000000E+00 0.  1.
</event>
<event>
 7    1  0.2001181E-008  0.4614232E+02  0.7816164E-02  0.1320468E+00
        -11   -1    0    0    0    0  0.00000000000E+00  0.00000000000E+00  0.45593999997E+02  0.45594000000E+02  0.51100000000E-03 0.  1.
         11   -1    0    0    0    0 -0.00000000000E+00 -0.00000000000E+00 -0.45593999997E+02  0.45594000000E+02  0.51100000000E-03 0. -1.
    9900012    2    1    2    0    0 -0.11420326948E+02  0.21645074181E+02 -0.37817725295E+02  0.46142318183E+02  0.10000003843E+02 0.  0.
        -12    1    1    2    0    0  0.11420326948E+02 -0.21645074181E+02  0.37817725295E+02  0.45045681817E+02  0.00000000000E+00 0.  1.
         11    1    3    3    0    0  0.36051750394E+00  0.21962472931E+01 -0.31685467857E+01  0.38721007267E+01  0.51100000000E-03 0. -1.
        -11    1    3    3    0    0 -0.37779812936E+01  0.88131536306E+00 -0.41793524815E+01  0.57023545005E+01  0.51100000000E-03 0.  1.
         12    1    3    3    0    0 -0.80028631587E+01  0.18567511525E+02 -0.30469826028E+02  0.36567862955E+02  0.00000000000E+00 0. -1.
</event>
<event>
 7    1  0.2001181E-008  0.4614232E+02  0.7816164E-02  0.1320468E+00
        -11   -1    0    0    0    0  0.00000000000E+00  0.00000000000E+00  0.45593999997E+02  0.45594000000E+02  0.51100000000E-03 0.  1.
         11   -1    0    0    0    0 -0.00000000000E+00 -0.00000000000E+00 -0.45593999997E+02  0.45594000000E+02  0.51100000000E-03 0. -1.
    9900012    2    1    2    0    0 -0.20561953233E+02  0.39780398895E+02 -0.48825690424E+01  0.46142317216E+02  0.99999950272E+01 0.  0.
        -12    1    1    2    0    0  0.20561953233E+02 -0.39780398895E+02  0.48825690424E+01  0.45045682784E+02  0.00000000000E+00 0.  1.
         11    1    3    3    0    0 -0.44379646624E+01  0.16825083021E+02  0.27053789550E+00  0.17402647500E+02  0.51100000000E-03 0. -1.
        -11    1    3    3    0    0 -0.64911002300E+01  0.93002990957E+01 -0.32832904808E+00  0.11346265716E+02  0.51100000000E-03 0.  1.
         12    1    3    3    0    0 -0.96328883408E+01  0.13655016779E+02 -0.48247778898E+01  0.17393404000E+02  0.00000000000E+00 0. -1.
</event>
<event>
 7    1  0.2001181E-008  0.4614232E+02  0.7816164E-02  0.1320468E+00
        -11   -1    0    0    0    0  0.00000000000E+00  0.00000000000E+00  0.45593999997E+02  0.45594000000E+02  0.51100000000E-03 0.  1.
         11   -1    0    0    0    0 -0.00000000000E+00 -0.00000000000E+00 -0.45593999997E+02  0.45594000000E+02  0.51100000000E-03 0. -1.
    9900012    2    1    2    0    0  0.38852592964E+02  0.61648105422E+01 -0.21945036985E+02  0.46142317440E+02  0.99999970701E+01 0.  0.
        -12    1    1    2    0    0 -0.38852592964E+02 -0.61648105422E+01  0.21945036985E+02  0.45045682560E+02  0.00000000000E+00 0.  1.
         11    1    3    3    0    0  0.20102100883E+02  0.58205248167E+01 -0.11324722569E+02  0.23795426253E+02  0.51100000000E-03 0. -1.
        -11    1    3    3    0    0  0.12138682771E+02  0.37924415972E+00 -0.99518242387E+01  0.15701281842E+02  0.51100000000E-03 0.  1.
        -12    1    3    3    0    0  0.66118093101E+01 -0.34958434220E-01 -0.66849017798E+00  0.66456093448E+01  0.00000000000E+00 0.  1.
</event>
<event>
 7    1  0.2001181E-008  0.4614232E+02  0.7816164E-02  0.1320468E+00
        -11   -1    0    0    0    0  0.00000000000E+00  0.00000000000E+00  0.45593999997E+02  0.45594000000E+02  0.51100000000E-03 0.  1.
         11   -1    0    0    0    0 -0.00000000000E+00 -0.00000000000E+00 -0.45593999997E+02  0.45594000000E+02  0.51100000000E-03 0. -1.
    9900012    2    1    2    0    0 -0.24972957018E+02 -0.36376439246E+02 -0.90675089165E+01  0.46142316162E+02  0.99999854212E+01 0.  0.
        -12    1    1    2    0    0  0.24972957018E+02  0.36376439246E+02  0.90675089165E+01  0.45045683838E+02  0.00000000000E+00 0.  1.
         11    1    3    3    0    0 -0.75564947499E+01 -0.60900237663E+01 -0.23689263149E+01  0.99900357620E+01  0.51100000000E-03 0. -1.
        -11    1    3    3    0    0 -0.38108931122E+01 -0.99139386877E+01  0.45606731455E+00  0.10630949359E+02  0.51100000000E-03 0.  1.
        -12    1    3    3    0    0 -0.13605569156E+02 -0.20372476792E+02 -0.71546499162E+01  0.25521331041E+02  0.00000000000E+00 0.  1.
</event>
<event>
 7    1  0.2001181E-008  0.4614232E+02  0.7816164E-02  0.1320468E+00
        -11   -1    0    0    0    0  0.00000000000E+00  0.00000000000E+00  0.45593999997E+02  0.45594000000E+02  0.51100000000E-03 0. -1.
         11   -1    0    0    0    0 -0.00000000000E+00 -0.00000000000E+00 -0.45593999997E+02  0.45594000000E+02  0.51100000000E-03 0.  1.
    9900012    2    1    2    0    0  0.28544041412E+02 -0.26587595984E+02  0.22526675025E+02  0.46142315989E+02  0.99999838440E+01 0.  0.
        -12    1    1    2    0    0 -0.28544041412E+02  0.26587595984E+02 -0.22526675025E+02  0.45045684011E+02  0.00000000000E+00 0.  1.
         11    1    3    3    0    0  0.16987024746E+02 -0.13396025048E+02  0.12243985549E+02  0.24858151162E+02  0.51100000000E-03 0. -1.
        -11    1    3    3    0    0  0.11906718682E+02 -0.10901379955E+02  0.79436159107E+01  0.17991972341E+02  0.51100000000E-03 0.  1.
        -12    1    3    3    0    0 -0.34970201634E+00 -0.22901909799E+01  0.23390735658E+01  0.32921924869E+01  0.00000000000E+00 0.  1.
</event>
<event>
 7    1  0.2001181E-008  0.4614232E+02  0.7816164E-02  0.1320468E+00
        -11   -1    0    0    0    0  0.00000000000E+00  0.00000000000E+00  0.45593999997E+02  0.45594000000E+02  0.51100000000E-03 0.  1.
         11   -1    0    0    0    0 -0.00000000000E+00 -0.00000000000E+00 -0.45593999997E+02  0.45594000000E+02  0.51100000000E-03 0. -1.
    9900012    2    1    2    0    0  0.48435532010E+01 -0.15783037110E+02 -0.41911206446E+02  0.46142317701E+02  0.99999994525E+01 0.  0.
        -12    1    1    2    0    0 -0.48435532010E+01  0.15783037110E+02  0.41911206446E+02  0.45045682299E+02  0.00000000000E+00 0.  1.
         11    1    3    3    0    0  0.35875076650E+01 -0.14572323715E+02 -0.34385010899E+02  0.37517353378E+02  0.51100000000E-03 0. -1.
        -11    1    3    3    0    0  0.66971810430E+00 -0.22917773786E+01 -0.25263662639E+01  0.34761030843E+01  0.51100000000E-03 0.  1.
         12    1    3    3    0    0  0.58632743164E+00  0.10810639842E+01 -0.49998292831E+01  0.51488612387E+01  0.00000000000E+00 0. -1.
</event>
<event>
 7    1  0.2001181E-008  0.4614232E+02  0.7816164E-02  0.1320468E+00
        -11   -1    0    0    0    0  0.00000000000E+00  0.00000000000E+00  0.45593999997E+02  0.45594000000E+02  0.51100000000E-03 0.  1.
         11   -1    0    0    0    0 -0.00000000000E+00 -0.00000000000E+00 -0.45593999997E+02  0.45594000000E+02  0.51100000000E-03 0. -1.
    9900012    2    1    2    0    0 -0.24307144615E+02 -0.35649781706E+02 -0.12937127730E+02  0.46142317755E+02  0.99999999434E+01 0.  0.
        -12    1    1    2    0    0  0.24307144615E+02  0.35649781706E+02  0.12937127730E+02  0.45045682245E+02  0.00000000000E+00 0.  1.
         11    1    3    3    0    0 -0.36179103905E+01 -0.29691701648E+01 -0.36517153700E+01  0.59363517808E+01  0.51100000000E-03 0. -1.
        -11    1    3    3    0    0 -0.36716483209E+01 -0.55256381805E+01 -0.39413791813E+01  0.77167447027E+01  0.51100000000E-03 0.  1.
        -12    1    3    3    0    0 -0.17017585904E+02 -0.27154973361E+02 -0.53440331790E+01  0.32489221271E+02  0.00000000000E+00 0.  1.
</event>
<event>
 7    1  0.2001181E-008  0.4614233E+02  0.7816164E-02  0.1320468E+00
        -11   -1    0    0    0    0  0.00000000000E+00  0.00000000000E+00  0.45593999997E+02  0.45594000000E+02  0.51100000000E-03 0. -1.
         11   -1    0    0    0    0 -0.00000000000E+00 -0.00000000000E+00 -0.45593999997E+02  0.45594000000E+02  0.51100000000E-03 0.  1.
    9900012    2    1    2    0    0 -0.23221129680E+02 -0.13653918365E+02  0.36103488034E+02  0.46142332078E+02  0.10000130548E+02 0.  0.
        -12    1    1    2    0    0  0.23221129680E+02  0.13653918365E+02 -0.36103488034E+02  0.45045667922E+02  0.00000000000E+00 0.  1.
         11    1    3    3    0    0 -0.10489210044E+02 -0.77845398983E+01  0.16532742681E+02  0.21070219970E+02  0.51100000000E-03 0. -1.
        -11    1    3    3    0    0 -0.22425375966E+01 -0.29100279917E+01  0.96824753889E+01  0.10356040156E+02  0.51100000000E-03 0.  1.
        -12    1    3    3    0    0 -0.10489382039E+02 -0.29593504753E+01  0.98882699644E+01  0.14716071952E+02  0.00000000000E+00 0.  1.
</event>
<event>
 7    1  0.2001181E-008  0.4614232E+02  0.7816164E-02  0.1320468E+00
        -11   -1    0    0    0    0  0.00000000000E+00  0.00000000000E+00  0.45593999997E+02  0.45594000000E+02  0.51100000000E-03 0.  1.
         11   -1    0    0    0    0 -0.00000000000E+00 -0.00000000000E+00 -0.45593999997E+02  0.45594000000E+02  0.51100000000E-03 0. -1.
    9900012    2    1    2    0    0 -0.24296199454E+02  0.35963151541E+02  0.12060680970E+02  0.46142316498E+02  0.99999884845E+01 0.  0.
        -12    1    1    2    0    0  0.24296199454E+02 -0.35963151541E+02 -0.12060680970E+02  0.45045683502E+02  0.00000000000E+00 0.  1.
         11    1    3    3    0    0 -0.39595299825E+01  0.18551738385E+01 -0.12362580574E+00  0.43743378075E+01  0.51100000000E-03 0. -1.
        -11    1    3    3    0    0 -0.57687250836E+00  0.12080393773E+01  0.13246356671E+01  0.18832952344E+01  0.51100000000E-03 0.  1.
        -12    1    3    3    0    0 -0.19759796963E+02  0.32899938325E+02  0.10859671108E+02  0.39884683456E+02  0.00000000000E+00 0.  1.
</event>
<event>
 7    1  0.2001181E-008  0.4614232E+02  0.7816164E-02  0.1320468E+00
        -11   -1    0    0    0    0  0.00000000000E+00  0.00000000000E+00  0.45593999997E+02  0.45594000000E+02  0.51100000000E-03 0.  1.
         11   -1    0    0    0    0 -0.00000000000E+00 -0.00000000000E+00 -0.45593999997E+02  0.45594000000E+02  0.51100000000E-03 0. -1.
    9900012    2    1    2    0    0 -0.32636797485E+02  0.18914230801E+02 -0.24621225563E+02  0.46142318463E+02  0.10000006403E+02 0.  0.
        -12    1    1    2    0    0  0.32636797485E+02 -0.18914230801E+02  0.24621225563E+02  0.45045681537E+02  0.00000000000E+00 0.  1.
         11    1    3    3    0    0 -0.97240197291E+01  0.34280772501E+01 -0.67772785689E+01  0.12338548472E+02  0.51100000000E-03 0. -1.
        -11    1    3    3    0    0 -0.12280964039E+02  0.71400426269E+01 -0.13524044291E+02  0.19613823204E+02  0.51100000000E-03 0.  1.
        -12    1    3    3    0    0 -0.10631813717E+02  0.83461109241E+01 -0.43199027038E+01  0.14189946788E+02  0.00000000000E+00 0.  1.
</event>
<event>
 7    1  0.2001181E-008  0.4614232E+02  0.7816164E-02  0.1320468E+00
        -11   -1    0    0    0    0  0.00000000000E+00  0.00000000000E+00  0.45593999997E+02  0.45594000000E+02  0.51100000000E-03 0. -1.
         11   -1    0    0    0    0 -0.00000000000E+00 -0.00000000000E+00 -0.45593999997E+02  0.45594000000E+02  0.51100000000E-03 0.  1.
    9900012    2    1    2    0    0  0.11678655811E+02  0.24389253113E+02  0.36026195361E+02  0.46142318507E+02  0.10000006802E+02 0.  0.
        -12    1    1    2    0    0 -0.11678655811E+02 -0.24389253113E+02 -0.36026195361E+02  0.45045681493E+02  0.00000000000E+00 0.  1.
         11    1    3    3    0    0  0.22321840294E+01  0.11703680335E+02  0.21020584162E+02  0.24162444779E+02  0.51100000000E-03 0. -1.
        -11    1    3    3    0    0  0.28801909188E+01  0.54592693067E+01  0.71679400209E+01  0.94593068190E+01  0.51100000000E-03 0.  1.
        -12    1    3    3    0    0  0.65662808628E+01  0.72263034707E+01  0.78376711786E+01  0.12520566909E+02  0.00000000000E+00 0.  1.
</event>
<event>
 7    1  0.2001181E-008  0.4614232E+02  0.7816164E-02  0.1320468E+00
        -11   -1    0    0    0    0  0.00000000000E+00  0.00000000000E+00  0.45593999997E+02  0.45594000000E+02  0.51100000000E-03 0. -1.
         11   -1    0    0    0    0 -0.00000000000E+00 -0.00000000000E+00 -0.45593999997E+02  0.45594000000E+02  0.51100000000E-03 0.  1.
    9900012    2    1    2    0    0 -0.11056634940E+01 -0.36801865960E+02  0.25952140707E+02  0.46142318329E+02  0.10000005177E+02 0.  0.
        -12    1    1    2    0    0  0.11056634940E+01  0.36801865960E+02 -0.25952140707E+02  0.45045681671E+02  0.00000000000E+00 0.  1.
         11    1    3    3    0    0 -0.27766988945E+00 -0.86704154122E+01  0.80183133536E+01  0.11812982404E+02  0.51100000000E-03 0. -1.
        -11    1    3    3    0    0 -0.40493693375E+01 -0.10354798552E+02  0.81365387805E+01  0.13777608960E+02  0.51100000000E-03 0.  1.
        -12    1    3    3    0    0  0.32213757330E+01 -0.17776651996E+02  0.97972885733E+01  0.20551726964E+02  0.00000000000E+00 0.  1.
</event>
<event>
 7    1  0.2001181E-008  0.4614232E+02  0.7816164E-02  0.1320468E+00
        -11   -1    0    0    0    0  0.00000000000E+00  0.00000000000E+00  0.45593999997E+02  0.45594000000E+02  0.51100000000E-03 0.  1.
         11   -1    0    0    0    0 -0.00000000000E+00 -0.00000000000E+00 -0.45593999997E+02  0.45594000000E+02  0.51100000000E-03 0. -1.
    9900012    2    1    2    0    0 -0.42683324739E+02  0.74329406836E+01  0.12328774658E+02  0.46142317604E+02  0.99999985664E+01 0.  0.
        -12    1    1    2    0    0  0.42683324739E+02 -0.74329406836E+01 -0.12328774658E+02  0.45045682396E+02  0.00000000000E+00 0.  1.
         11    1    3    3    0    0 -0.13653282809E+02  0.52154374379E+00  0.50681395974E+01  0.14572926218E+02  0.51100000000E-03 0.  1.
        -11    1    3    3    0    0 -0.12600361976E+02  0.24645342950E+01 -0.53061505268E+00  0.12850081860E+02  0.51100000000E-03 0. -1.
        -12    1    3    3    0    0 -0.16429679954E+02  0.44468626449E+01  0.77912501129E+01  0.18719309525E+02  0.00000000000E+00 0.  1.
</event>
<event>
 7    1  0.2001181E-008  0.4614232E+02  0.7816164E-02  0.1320468E+00
        -11   -1    0    0    0    0  0.00000000000E+00  0.00000000000E+00  0.45593999997E+02  0.45594000000E+02  0.51100000000E-03 0. -1.
         11   -1    0    0    0    0 -0.00000000000E+00 -0.00000000000E+00 -0.45593999997E+02  0.45594000000E+02  0.51100000000E-03 0.  1.
    9900012    2    1    2    0    0  0.25229060320E+00 -0.27846544938E+00  0.45044115173E+02  0.46142317573E+02  0.99999982868E+01 0.  0.
        -12    1    1    2    0    0 -0.25229060320E+00  0.27846544938E+00 -0.45044115173E+02  0.45045682427E+02  0.00000000000E+00 0.  1.
         11    1    3    3    0    0  0.10609236769E+01  0.20703248549E+01  0.42214232507E+01  0.48199811800E+01  0.51100000000E-03 0. -1.
        -11    1    3    3    0    0 -0.13899788501E+01 -0.28971170777E+01  0.10309084308E+02  0.10798265977E+02  0.51100000000E-03 0.  1.
         12    1    3    3    0    0  0.58134577635E+00  0.54832677351E+00  0.30513607614E+02  0.30524070417E+02  0.00000000000E+00 0. -1.
</event>
<event>
 7    1  0.2001181E-008  0.4614232E+02  0.7816164E-02  0.1320468E+00
        -11   -1    0    0    0    0  0.00000000000E+00  0.00000000000E+00  0.45593999997E+02  0.45594000000E+02  0.51100000000E-03 0. -1.
         11   -1    0    0    0    0 -0.00000000000E+00 -0.00000000000E+00 -0.45593999997E+02  0.45594000000E+02  0.51100000000E-03 0.  1.
    9900012    2    1    2    0    0 -0.14274623978E+02  0.25501166111E+02  0.34278834220E+02  0.46142324977E+02  0.10000065804E+02 0.  0.
        -12    1    1    2    0    0  0.14274623978E+02 -0.25501166111E+02 -0.34278834220E+02  0.45045675023E+02  0.00000000000E+00 0.  1.
         11    1    3    3    0    0 -0.71168018253E+01  0.16636577011E+02  0.18854698208E+02  0.26132818594E+02  0.51100000000E-03 0. -1.
        -11    1    3    3    0    0 -0.74467082014E+01  0.74983388164E+01  0.10523693321E+02  0.14913975641E+02  0.51100000000E-03 0.  1.
         12    1    3    3    0    0  0.28888604888E+00  0.13662502842E+01  0.49004426904E+01  0.50955307428E+01  0.00000000000E+00 0. -1.
</event>
<event>
 7    1  0.2001181E-008  0.4614232E+02  0.7816164E-02  0.1320468E+00
        -11   -1    0    0    0    0  0.00000000000E+00  0.00000000000E+00  0.45593999997E+02  0.45594000000E+02  0.51100000000E-03 0.  1.
         11   -1    0    0    0    0 -0.00000000000E+00 -0.00000000000E+00 -0.45593999997E+02  0.45594000000E+02  0.51100000000E-03 0. -1.
    9900012    2    1    2    0    0  0.31905898744E+02 -0.58824292101E+01 -0.31249382638E+02  0.46142320259E+02  0.10000022776E+02 0.  0.
        -12    1    1    2    0    0 -0.31905898744E+02  0.58824292101E+01  0.31249382638E+02  0.45045679741E+02  0.00000000000E+00 0.  1.
         11    1    3    3    0    0  0.87401260338E+01 -0.17677824401E+01 -0.80625656424E+01  0.12021639773E+02  0.51100000000E-03 0. -1.
        -11    1    3    3    0    0  0.18063403592E+02 -0.81743685925E+00 -0.20883152677E+02  0.27623555497E+02  0.51100000000E-03 0.  1.
        -12    1    3    3    0    0  0.51023691182E+01 -0.32972099107E+01 -0.23036643194E+01  0.64971249881E+01  0.00000000000E+00 0.  1.
</event>
<event>
 7    1  0.2001181E-008  0.4614231E+02  0.7816164E-02  0.1320468E+00
        -11   -1    0    0    0    0  0.00000000000E+00  0.00000000000E+00  0.45593999997E+02  0.45594000000E+02  0.51100000000E-03 0.  1.
         11   -1    0    0    0    0 -0.00000000000E+00 -0.00000000000E+00 -0.45593999997E+02  0.45594000000E+02  0.51100000000E-03 0. -1.
    9900012    2    1    2    0    0  0.32115233934E+02  0.14388474202E+02 -0.28119340887E+02  0.46142314608E+02  0.99999712492E+01 0.  0.
        -12    1    1    2    0    0 -0.32115233934E+02 -0.14388474202E+02  0.28119340887E+02  0.45045685392E+02  0.00000000000E+00 0.  1.
         11    1    3    3    0    0  0.20168511797E+02  0.10636101373E+02 -0.19848252405E+02  0.30229929611E+02  0.51100000000E-03 0. -1.
        -11    1    3    3    0    0  0.52846410284E+01  0.34941081360E+01 -0.17183705404E+01  0.65642227294E+01  0.51100000000E-03 0.  1.
         12    1    3    3    0    0  0.66620811091E+01  0.25826469221E+00 -0.65527179421E+01  0.93481622677E+01  0.00000000000E+00 0. -1.
</event>
<event>
 7    1  0.2001181E-008  0.4614231E+02  0.7816164E-02  0.1320468E+00
        -11   -1    0    0    0    0  0.00000000000E+00  0.00000000000E+00  0.45593999997E+02  0.45594000000E+02  0.51100000000E-03 0.  1.
         11   -1    0    0    0    0 -0.00000000000E+00 -0.00000000000E+00 -0.45593999997E+02  0.45594000000E+02  0.51100000000E-03 0. -1.
    9900012    2    1    2    0    0 -0.27290419697E+02 -0.20162648995E+02 -0.29627934403E+02  0.46142312984E+02  0.99999564401E+01 0.  0.
        -12    1    1    2    0    0  0.27290419697E+02  0.20162648995E+02  0.29627934403E+02  0.45045687016E+02  0.00000000000E+00 0.  1.
         11    1    3    3    0    0 -0.20099881445E+01 -0.17169100689E+01  0.16558901751E+00  0.26486321960E+01  0.51100000000E-03 0. -1.
        -11    1    3    3    0    0 -0.76197558522E+01 -0.29144205113E+01 -0.81569946209E+01  0.11536511070E+02  0.51100000000E-03 0.  1.
         12    1    3    3    0    0 -0.17660675700E+02 -0.15531318415E+02 -0.21636528799E+02  0.31957169718E+02  0.00000000000E+00 0. -1.
</event>
<event>
 7    1  0.2001181E-008  0.4614232E+02  0.7816164E-02  0.1320468E+00
        -11   -1    0    0    0    0  0.00000000000E+00  0.00000000000E+00  0.45593999997E+02  0.45594000000E+02  0.51100000000E-03 0.  1.
         11   -1    0    0    0    0 -0.00000000000E+00 -0.00000000000E+00 -0.45593999997E+02  0.45594000000E+02  0.51100000000E-03 0. -1.
    9900012    2    1    2    0    0 -0.35777811193E+02 -0.25321948448E+02 -0.10385601647E+02  0.46142316871E+02  0.99999918856E+01 0.  0.
        -12    1    1    2    0    0  0.35777811193E+02  0.25321948448E+02  0.10385601647E+02  0.45045683129E+02  0.00000000000E+00 0.  1.
         11    1    3    3    0    0 -0.17589096077E+02 -0.14094357815E+02 -0.90260866138E+01  0.24279568836E+02  0.51100000000E-03 0. -1.
        -11    1    3    3    0    0 -0.46311111529E+01 -0.26915334280E+01 -0.22661597722E+01  0.58161003326E+01  0.51100000000E-03 0.  1.
        -12    1    3    3    0    0 -0.13557603962E+02 -0.85360572054E+01  0.90664473879E+00  0.16046647703E+02  0.00000000000E+00 0.  1.
</event>
<event>
 7    1  0.2001181E-008  0.4614232E+02  0.7816164E-02  0.1320468E+00
        -11   -1    0    0    0    0  0.00000000000E+00  0.00000000000E+00  0.45593999997E+02  0.45594000000E+02  0.51100000000E-03 0.  1.
         11   -1    0    0    0    0 -0.00000000000E+00 -0.00000000000E+00 -0.45593999997E+02  0.45594000000E+02  0.51100000000E-03 0. -1.
    9900012    2    1    2    0    0  0.14910232756E+02 -0.27805821500E+02 -0.32150185768E+02  0.46142321017E+02  0.10000029691E+02 0.  0.
        -12    1    1    2    0    0 -0.14910232756E+02  0.27805821500E+02  0.32150185768E+02  0.45045678983E+02  0.00000000000E+00 0.  1.
         11    1    3    3    0    0  0.11499972095E+02 -0.14669115557E+02 -0.13828343823E+02  0.23208950915E+02  0.51100000000E-03 0. -1.
        -11    1    3    3    0    0  0.30035655759E+00 -0.60088043322E+01 -0.79878196745E+01  0.10000060349E+02  0.51100000000E-03 0.  1.
         12    1    3    3    0    0  0.31099041031E+01 -0.71279016112E+01 -0.10334022270E+02  0.12933309754E+02  0.00000000000E+00 0. -1.
</event>
<event>
 7    1  0.2001181E-008  0.4614232E+02  0.7816164E-02  0.1320468E+00
        -11   -1    0    0    0    0  0.00000000000E+00  0.00000000000E+00  0.45593999997E+02  0.45594000000E+02  0.51100000000E-03 0.  1.
         11   -1    0    0    0    0 -0.00000000000E+00 -0.00000000000E+00 -0.45593999997E+02  0.45594000000E+02  0.51100000000E-03 0. -1.
    9900012    2    1    2    0    0 -0.23370464137E+02 -0.69046727078E+01 -0.37884832760E+02  0.46142315940E+02  0.99999833908E+01 0.  0.
        -12    1    1    2    0    0  0.23370464137E+02  0.69046727078E+01  0.37884832760E+02  0.45045684060E+02  0.00000000000E+00 0.  1.
         11    1    3    3    0    0 -0.30428808086E+01 -0.29999940011E+01 -0.31798997073E+01  0.53264293886E+01  0.51100000000E-03 0. -1.
        -11    1    3    3    0    0 -0.80528657938E+01 -0.43018584627E+01 -0.16462703493E+02  0.18824856979E+02  0.51100000000E-03 0.  1.
        -12    1    3    3    0    0 -0.12274717535E+02  0.39717975599E+00 -0.18242229560E+02  0.21991029572E+02  0.00000000000E+00 0.  1.
</event>
<event>
 7    1  0.2001181E-008  0.4614231E+02  0.7816164E-02  0.1320468E+00
        -11   -1    0    0    0    0  0.00000000000E+00  0.00000000000E+00  0.45593999997E+02  0.45594000000E+02  0.51100000000E-03 0. -1.
         11   -1    0    0    0    0 -0.00000000000E+00 -0.00000000000E+00 -0.45593999997E+02  0.45594000000E+02  0.51100000000E-03 0.  1.
    9900012    2    1    2    0    0  0.78695788947E+01  0.36448572542E+02  0.25272221091E+02  0.46142313512E+02  0.99999612533E+01 0.  0.
        -12    1    1    2    0    0 -0.78695788947E+01 -0.36448572542E+02 -0.25272221091E+02  0.45045686488E+02  0.00000000000E+00 0.  1.
         11    1    3    3    0    0  0.19747200716E+01  0.25835361269E+02  0.16570379596E+02  0.30756184606E+02  0.51100000000E-03 0. -1.
        -11    1    3    3    0    0  0.21113703735E+01  0.95951962766E+00  0.16729641861E+01  0.28596104977E+01  0.51100000000E-03 0.  1.
        -12    1    3    3    0    0  0.37834884496E+01  0.96536916444E+01  0.70288773095E+01  0.12526518409E+02  0.00000000000E+00 0.  1.
</event>
<event>
 7    1  0.2001181E-008  0.4614232E+02  0.7816164E-02  0.1320468E+00
        -11   -1    0    0    0    0  0.00000000000E+00  0.00000000000E+00  0.45593999997E+02  0.45594000000E+02  0.51100000000E-03 0.  1.
         11   -1    0    0    0    0 -0.00000000000E+00 -0.00000000000E+00 -0.45593999997E+02  0.45594000000E+02  0.51100000000E-03 0. -1.
    9900012    2    1    2    0    0  0.11319608428E+02 -0.18874139514E+02 -0.39303267597E+02  0.46142317397E+02  0.99999966803E+01 0.  0.
        -12    1    1    2    0    0 -0.11319608428E+02  0.18874139514E+02  0.39303267597E+02  0.45045682603E+02  0.00000000000E+00 0.  1.
         11    1    3    3    0    0  0.79283436502E+00 -0.50921356961E+01 -0.49802645552E+01  0.71666915364E+01  0.51100000000E-03 0. -1.
        -11    1    3    3    0    0  0.15140371724E+01 -0.52156319028E+01 -0.62995929995E+01  0.83174513479E+01  0.51100000000E-03 0.  1.
         12    1    3    3    0    0  0.90127368906E+01 -0.85663719153E+01 -0.28023410042E+02  0.30658174513E+02  0.00000000000E+00 0. -1.
</event>
<event>
 7    1  0.2001181E-008  0.4614232E+02  0.7816164E-02  0.1320468E+00
        -11   -1    0    0    0    0  0.00000000000E+00  0.00000000000E+00  0.45593999997E+02  0.45594000000E+02  0.51100000000E-03 0.  1.
         11   -1    0    0    0    0 -0.00000000000E+00 -0.00000000000E+00 -0.45593999997E+02  0.45594000000E+02  0.51100000000E-03 0. -1.
    9900012    2    1    2    0    0 -0.42323834862E+02 -0.11382178027E+02 -0.10404445572E+02  0.46142318057E+02  0.10000002697E+02 0.  0.
        -12    1    1    2    0    0  0.42323834862E+02  0.11382178027E+02  0.10404445572E+02  0.45045681943E+02  0.00000000000E+00 0.  1.
         11    1    3    3    0    0 -0.14366749608E+02 -0.61427426589E+01 -0.42394201095E+00  0.15630627267E+02  0.51100000000E-03 0.  1.
        -11    1    3    3    0    0 -0.79533514856E+01 -0.15499925789E+01 -0.63910060827E+00  0.81281441115E+01  0.51100000000E-03 0. -1.
        -12    1    3    3    0    0 -0.20003733768E+02 -0.36894427894E+01 -0.93414029530E+01  0.22383546678E+02  0.00000000000E+00 0.  1.
</event>
<event>
 7    1  0.2001181E-008  0.4614232E+02  0.7816164E-02  0.1320468E+00
        -11   -1    0    0    0    0  0.00000000000E+00  0.00000000000E+00  0.45593999997E+02  0.45594000000E+02  0.51100000000E-03 0.  1.
         11   -1    0    0    0    0 -0.00000000000E+00 -0.00000000000E+00 -0.45593999997E+02  0.45594000000E+02  0.51100000000E-03 0. -1.
    9900012    2    1    2    0    0 -0.25822974875E+02 -0.36807828826E+02  0.27333502852E+01  0.46142317654E+02  0.99999990193E+01 0.  0.
        -12    1    1    2    0    0  0.25822974875E+02  0.36807828826E+02 -0.27333502852E+01  0.45045682346E+02  0.00000000000E+00 0.  1.
         11    1    3    3    0    0 -0.94835572915E+01 -0.11799929439E+02  0.15524978260E+01  0.15217964497E+02  0.51100000000E-03 0. -1.
        -11    1    3    3    0    0 -0.73136468641E+01 -0.13763122978E+02  0.43079759931E+01  0.16170084785E+02  0.51100000000E-03 0.  1.
        -12    1    3    3    0    0 -0.90257707197E+01 -0.11244776409E+02 -0.31271235339E+01  0.14754268372E+02  0.00000000000E+00 0.  1.
</event>
<event>
 7    1  0.2001181E-008  0.4614232E+02  0.7816164E-02  0.1320468E+00
        -11   -1    0    0    0    0  0.00000000000E+00  0.00000000000E+00  0.45593999997E+02  0.45594000000E+02  0.51100000000E-03 0.  1.
         11   -1    0    0    0    0 -0.00000000000E+00 -0.00000000000E+00 -0.45593999997E+02  0.45594000000E+02  0.51100000000E-03 0. -1.
    9900012    2    1    2    0    0 -0.21581989458E+02  0.33602718431E+02 -0.20837191239E+02  0.46142317702E+02  0.99999994624E+01 0.  0.
        -12    1    1    2    0    0  0.21581989458E+02 -0.33602718431E+02  0.20837191239E+02  0.45045682298E+02  0.00000000000E+00 0.  1.
         11    1    3    3    0    0 -0.46232650554E+01  0.65871562894E+01 -0.13571970732E+01  0.81613229265E+01  0.51100000000E-03 0. -1.
        -11    1    3    3    0    0 -0.22955717000E+01  0.63834153464E+00 -0.93541772504E+00  0.25597140321E+01  0.51100000000E-03 0.  1.
         12    1    3    3    0    0 -0.14663152703E+02  0.26377220607E+02 -0.18544576441E+02  0.35421280744E+02  0.00000000000E+00 0. -1.
</event>
<event>
 7    1  0.2001181E-008  0.4614232E+02  0.7816164E-02  0.1320468E+00
        -11   -1    0    0    0    0  0.00000000000E+00  0.00000000000E+00  0.45593999997E+02  0.45594000000E+02  0.51100000000E-03 0.  1.
         11   -1    0    0    0    0 -0.00000000000E+00 -0.00000000000E+00 -0.45593999997E+02  0.45594000000E+02  0.51100000000E-03 0. -1.
    9900012    2    1    2    0    0  0.65727278801E+01  0.39194389730E+02 -0.21206426238E+02  0.46142318166E+02  0.10000003696E+02 0.  0.
        -12    1    1    2    0    0 -0.65727278801E+01 -0.39194389730E+02  0.21206426238E+02  0.45045681834E+02  0.00000000000E+00 0.  1.
         11    1    3    3    0    0  0.28304340651E+01  0.10232113709E+02 -0.60609166627E+01  0.12224656192E+02  0.51100000000E-03 0. -1.
        -11    1    3    3    0    0 -0.24123055001E+01  0.43155943607E+01 -0.23775775371E+01  0.54860229418E+01  0.51100000000E-03 0.  1.
        -12    1    3    3    0    0  0.61545993151E+01  0.24646681660E+02 -0.12767932038E+02  0.28431639033E+02  0.00000000000E+00 0.  1.
</event>
<event>
 7    1  0.2001181E-008  0.4614232E+02  0.7816164E-02  0.1320468E+00
        -11   -1    0    0    0    0  0.00000000000E+00  0.00000000000E+00  0.45593999997E+02  0.45594000000E+02  0.51100000000E-03 0.  1.
         11   -1    0    0    0    0 -0.00000000000E+00 -0.00000000000E+00 -0.45593999997E+02  0.45594000000E+02  0.51100000000E-03 0. -1.
    9900012    2    1    2    0    0 -0.17770287081E+02 -0.17937113479E+02 -0.37304025081E+02  0.46142318407E+02  0.10000005892E+02 0.  0.
        -12    1    1    2    0    0  0.17770287081E+02  0.17937113479E+02  0.37304025081E+02  0.45045681593E+02  0.00000000000E+00 0.  1.
         11    1    3    3    0    0 -0.54283458266E+01 -0.11080765185E+01 -0.62721916819E+01  0.83687012576E+01  0.51100000000E-03 0. -1.
        -11    1    3    3    0    0 -0.95155917285E+01 -0.10693190147E+02 -0.24510167404E+02  0.28383782481E+02  0.51100000000E-03 0.  1.
        -12    1    3    3    0    0 -0.28263495262E+01 -0.61358468134E+01 -0.65216659949E+01  0.93898346690E+01  0.00000000000E+00 0.  1.
</event>
<event>
 7    1  0.2001181E-008  0.4614232E+02  0.7816164E-02  0.1320468E+00
        -11   -1    0    0    0    0  0.00000000000E+00  0.00000000000E+00  0.45593999997E+02  0.45594000000E+02  0.51100000000E-03 0.  1.
         11   -1    0    0    0    0 -0.00000000000E+00 -0.00000000000E+00 -0.45593999997E+02  0.45594000000E+02  0.51100000000E-03 0. -1.
    9900012    2    1    2    0    0 -0.25745562924E+02  0.73152391720E+01 -0.36232123344E+02  0.46142317671E+02  0.99999991828E+01 0.  0.
        -12    1    1    2    0    0  0.25745562924E+02 -0.73152391720E+01  0.36232123344E+02  0.45045682329E+02  0.00000000000E+00 0.  1.
         11    1    3    3    0    0 -0.16908078880E+01  0.42313069008E+00 -0.82585446119E+01  0.84404638654E+01  0.51100000000E-03 0. -1.
        -11    1    3    3    0    0 -0.13497998369E+02  0.50743714310E+01 -0.18016160652E+02  0.23076551959E+02  0.51100000000E-03 0.  1.
         12    1    3    3    0    0 -0.10556756667E+02  0.18177370509E+01 -0.99574180801E+01  0.14625301847E+02  0.00000000000E+00 0. -1.
</event>
<event>
 7    1  0.2001181E-008  0.4614232E+02  0.7816164E-02  0.1320468E+00
        -11   -1    0    0    0    0  0.00000000000E+00  0.00000000000E+00  0.45593999997E+02  0.45594000000E+02  0.51100000000E-03 0. -1.
         11   -1    0    0    0    0 -0.00000000000E+00 -0.00000000000E+00 -0.45593999997E+02  0.45594000000E+02  0.51100000000E-03 0.  1.
    9900012    2    1    2    0    0  0.15578699057E+02 -0.41826797969E+02 -0.60775474691E+01  0.46142317899E+02  0.10000001260E+02 0.  0.
        -12    1    1    2    0    0 -0.15578699057E+02  0.41826797969E+02  0.60775474691E+01  0.45045682101E+02  0.00000000000E+00 0.  1.
         11    1    3    3    0    0  0.11679698249E+02 -0.35266488606E+02 -0.16788642968E+01  0.37188158806E+02  0.51100000000E-03 0. -1.
        -11    1    3    3    0    0  0.14114813978E+01 -0.39137495379E+01 -0.25331629512E+01  0.48709988689E+01  0.51100000000E-03 0.  1.
         12    1    3    3    0    0  0.24875194097E+01 -0.26465598260E+01 -0.18655202212E+01  0.40831602249E+01  0.00000000000E+00 0. -1.
</event>
<event>
 7    1  0.2001181E-008  0.4614232E+02  0.7816164E-02  0.1320468E+00
        -11   -1    0    0    0    0  0.00000000000E+00  0.00000000000E+00  0.45593999997E+02  0.45594000000E+02  0.51100000000E-03 0.  1.
         11   -1    0    0    0    0 -0.00000000000E+00 -0.00000000000E+00 -0.45593999997E+02  0.45594000000E+02  0.51100000000E-03 0. -1.
    9900012    2    1    2    0    0  0.39959134276E+02  0.19721077329E+02  0.65924381126E+01  0.46142317151E+02  0.99999944323E+01 0.  0.
        -12    1    1    2    0    0 -0.39959134276E+02 -0.19721077329E+02 -0.65924381126E+01  0.45045682849E+02  0.00000000000E+00 0.  1.
         11    1    3    3    0    0  0.10466629286E+02  0.50005140419E+01 -0.45755716312E+00  0.11608825441E+02  0.51100000000E-03 0. -1.
        -11    1    3    3    0    0  0.15439335882E+02  0.10940041178E+02  0.15860547608E+01  0.18988764136E+02  0.51100000000E-03 0.  1.
        -12    1    3    3    0    0  0.14053169107E+02  0.37805221097E+01  0.54639405149E+01  0.15544727573E+02  0.00000000000E+00 0.  1.
</event>
<event>
 7    1  0.2001181E-008  0.4614232E+02  0.7816164E-02  0.1320468E+00
        -11   -1    0    0    0    0  0.00000000000E+00  0.00000000000E+00  0.45593999997E+02  0.45594000000E+02  0.51100000000E-03 0.  1.
         11   -1    0    0    0    0 -0.00000000000E+00 -0.00000000000E+00 -0.45593999997E+02  0.45594000000E+02  0.51100000000E-03 0. -1.
    9900012    2    1    2    0    0  0.20395063232E+02 -0.50744206282E+01 -0.39842252519E+02  0.46142318356E+02  0.10000005428E+02 0.  0.
        -12    1    1    2    0    0 -0.20395063232E+02  0.50744206282E+01  0.39842252519E+02  0.45045681644E+02  0.00000000000E+00 0.  1.
         11    1    3    3    0    0  0.96276812753E+01 -0.15332386852E+01 -0.23579456651E+02  0.25515364858E+02  0.51100000000E-03 0. -1.
        -11    1    3    3    0    0  0.73760644431E+01  0.49179693179E+00 -0.88322559709E+01  0.11517679310E+02  0.51100000000E-03 0.  1.
        -12    1    3    3    0    0  0.33913175132E+01 -0.40329788747E+01 -0.74305398974E+01  0.91092741888E+01  0.00000000000E+00 0.  1.
</event>
<event>
 7    1  0.2001181E-008  0.4614232E+02  0.7816164E-02  0.1320468E+00
        -11   -1    0    0    0    0  0.00000000000E+00  0.00000000000E+00  0.45593999997E+02  0.45594000000E+02  0.51100000000E-03 0. -1.
         11   -1    0    0    0    0 -0.00000000000E+00 -0.00000000000E+00 -0.45593999997E+02  0.45594000000E+02  0.51100000000E-03 0.  1.
    9900012    2    1    2    0    0 -0.21515110371E+02  0.34199512782E+02  0.19914988860E+02  0.46142318408E+02  0.10000005898E+02 0.  0.
        -12    1    1    2    0    0  0.21515110371E+02 -0.34199512782E+02 -0.19914988860E+02  0.45045681592E+02  0.00000000000E+00 0.  1.
         11    1    3    3    0    0 -0.54705897947E+01  0.78286555901E+01  0.60003616560E+01  0.11279164034E+02  0.51100000000E-03 0. -1.
        -11    1    3    3    0    0 -0.12354997426E+02  0.15253806884E+02  0.53287417218E+01  0.20340109991E+02  0.51100000000E-03 0.  1.
        -12    1    3    3    0    0 -0.36895231504E+01  0.11117050308E+02  0.85858854821E+01  0.14523044382E+02  0.00000000000E+00 0.  1.
</event>
<event>
 7    1  0.2001181E-008  0.4614232E+02  0.7816164E-02  0.1320468E+00
        -11   -1    0    0    0    0  0.00000000000E+00  0.00000000000E+00  0.45593999997E+02  0.45594000000E+02  0.51100000000E-03 0. -1.
         11   -1    0    0    0    0 -0.00000000000E+00 -0.00000000000E+00 -0.45593999997E+02  0.45594000000E+02  0.51100000000E-03 0.  1.
    9900012    2    1    2    0    0 -0.85498809375E+01 -0.34604478176E+02  0.27541662367E+02  0.46142317190E+02  0.99999947962E+01 0.  0.
        -12    1    1    2    0    0  0.85498809375E+01  0.34604478176E+02 -0.27541662367E+02  0.45045682810E+02  0.00000000000E+00 0.  1.
         11    1    3    3    0    0 -0.79518694490E+01 -0.20216795138E+02  0.16377557156E+02  0.27206164964E+02  0.51100000000E-03 0. -1.
        -11    1    3    3    0    0  0.10155016239E+01 -0.12511373483E+02  0.78683316387E+01  0.14814734322E+02  0.51100000000E-03 0.  1.
         12    1    3    3    0    0 -0.16135131124E+01 -0.18763095544E+01  0.32957735718E+01  0.41214179046E+01  0.00000000000E+00 0. -1.
</event>
<event>
 7    1  0.2001181E-008  0.4614232E+02  0.7816164E-02  0.1320468E+00
        -11   -1    0    0    0    0  0.00000000000E+00  0.00000000000E+00  0.45593999997E+02  0.45594000000E+02  0.51100000000E-03 0.  1.
         11   -1    0    0    0    0 -0.00000000000E+00 -0.00000000000E+00 -0.45593999997E+02  0.45594000000E+02  0.51100000000E-03 0. -1.
    9900012    2    1    2    0    0  0.14243601546E+02 -0.27124759095E+01 -0.42648279314E+02  0.46142318309E+02  0.10000004994E+02 0.  0.
        -12    1    1    2    0    0 -0.14243601546E+02  0.27124759095E+01  0.42648279314E+02  0.45045681691E+02  0.00000000000E+00 0.  1.
         11    1    3    3    0    0  0.75134282100E+00 -0.55338678233E+00 -0.13326083705E+02  0.13358714764E+02  0.51100000000E-03 0. -1.
        -11    1    3    3    0    0  0.52044511244E+01  0.10472093096E+01 -0.15176832588E+02  0.16078532474E+02  0.51100000000E-03 0.  1.
         12    1    3    3    0    0  0.82878076002E+01 -0.32062984368E+01 -0.14145363021E+02  0.16705071071E+02  0.00000000000E+00 0. -1.
</event>
<event>
 7    1  0.2001181E-008  0.4614232E+02  0.7816164E-02  0.1320468E+00
        -11   -1    0    0    0    0  0.00000000000E+00  0.00000000000E+00  0.45593999997E+02  0.45594000000E+02  0.51100000000E-03 0.  1.
         11   -1    0    0    0    0 -0.00000000000E+00 -0.00000000000E+00 -0.45593999997E+02  0.45594000000E+02  0.51100000000E-03 0. -1.
    9900012    2    1    2    0    0  0.18606426144E+02 -0.17285590855E+02 -0.37203800638E+02  0.46142317333E+02  0.99999960926E+01 0.  0.
        -12    1    1    2    0    0 -0.18606426144E+02  0.17285590855E+02  0.37203800638E+02  0.45045682667E+02  0.00000000000E+00 0.  1.
         11    1    3    3    0    0  0.39042725949E+01 -0.88992689607E+01 -0.96772316371E+01  0.13714559597E+02  0.51100000000E-03 0.  1.
        -11    1    3    3    0    0  0.20594543126E+01 -0.73969863017E+00 -0.21783753670E+01  0.30876893674E+01  0.51100000000E-03 0. -1.
        -12    1    3    3    0    0  0.12642699236E+02 -0.76466232644E+01 -0.25348193634E+02  0.29340068368E+02  0.00000000000E+00 0.  1.
</event>
<event>
 7    1  0.2001181E-008  0.4614232E+02  0.7816164E-02  0.1320468E+00
        -11   -1    0    0    0    0  0.00000000000E+00  0.00000000000E+00  0.45593999997E+02  0.45594000000E+02  0.51100000000E-03 0.  1.
         11   -1    0    0    0    0 -0.00000000000E+00 -0.00000000000E+00 -0.45593999997E+02  0.45594000000E+02  0.51100000000E-03 0. -1.
    9900012    2    1    2    0    0 -0.32759559852E+01 -0.40802909484E+02 -0.18801708305E+02  0.46142317130E+02  0.99999942485E+01 0.  0.
        -12    1    1    2    0    0  0.32759559852E+01  0.40802909484E+02  0.18801708305E+02  0.45045682870E+02  0.00000000000E+00 0.  1.
         11    1    3    3    0    0 -0.11532220084E+01 -0.67184202935E+00 -0.17163913554E+01  0.21742337177E+01  0.51100000000E-03 0. -1.
        -11    1    3    3    0    0  0.16642096080E+01 -0.12279185320E+02 -0.57461891208E+01  0.13658941226E+02  0.51100000000E-03 0.  1.
         12    1    3    3    0    0 -0.37869435849E+01 -0.27851882135E+02 -0.11339127829E+02  0.30309142187E+02  0.00000000000E+00 0. -1.
</event>
<event>
 7    1  0.2001181E-008  0.4614232E+02  0.7816164E-02  0.1320468E+00
        -11   -1    0    0    0    0  0.00000000000E+00  0.00000000000E+00  0.45593999997E+02  0.45594000000E+02  0.51100000000E-03 0.  1.
         11   -1    0    0    0    0 -0.00000000000E+00 -0.00000000000E+00 -0.45593999997E+02  0.45594000000E+02  0.51100000000E-03 0. -1.
    9900012    2    1    2    0    0 -0.42403649597E+02  0.14106473276E+02  0.56613933306E+01  0.46142318055E+02  0.10000002684E+02 0.  0.
        -12    1    1    2    0    0  0.42403649597E+02 -0.14106473276E+02 -0.56613933306E+01  0.45045681945E+02  0.00000000000E+00 0.  1.
         11    1    3    3    0    0 -0.11616549030E+02  0.15395639338E+01  0.42703853412E+00  0.11725904257E+02  0.51100000000E-03 0. -1.
        -11    1    3    3    0    0 -0.12881904299E+02  0.18297712728E+01  0.56860996146E+00  0.13023626178E+02  0.51100000000E-03 0.  1.
         12    1    3    3    0    0 -0.17905196268E+02  0.10737138070E+02  0.46657448350E+01  0.21392787621E+02  0.00000000000E+00 0. -1.
</event>
<event>
 7    1  0.2001181E-008  0.4614232E+02  0.7816164E-02  0.1320468E+00
        -11   -1    0    0    0    0  0.00000000000E+00  0.00000000000E+00  0.45593999997E+02  0.45594000000E+02  0.51100000000E-03 0. -1.
         11   -1    0    0    0    0 -0.00000000000E+00 -0.00000000000E+00 -0.45593999997E+02  0.45594000000E+02  0.51100000000E-03 0.  1.
    9900012    2    1    2    0    0  0.41670363170E+02 -0.24736846286E+01  0.16928532958E+02  0.46142317516E+02  0.99999977609E+01 0.  0.
        -12    1    1    2    0    0 -0.41670363170E+02  0.24736846286E+01 -0.16928532958E+02  0.45045682484E+02  0.00000000000E+00 0.  1.
         11    1    3    3    0    0  0.40815226266E+00 -0.59496372001E+00  0.72766041205E+00  0.10247243698E+01  0.51100000000E-03 0. -1.
        -11    1    3    3    0    0  0.33344345256E+01 -0.18738863008E+01  0.33122229279E+01  0.50597158477E+01  0.51100000000E-03 0.  1.
         12    1    3    3    0    0  0.37927776382E+02 -0.48346077565E-02  0.12888649618E+02  0.40057877298E+02  0.00000000000E+00 0. -1.
</event>
<event>
 7    1  0.2001181E-008  0.4614232E+02  0.7816164E-02  0.1320468E+00
        -11   -1    0    0    0    0  0.00000000000E+00  0.00000000000E+00  0.45593999997E+02  0.45594000000E+02  0.51100000000E-03 0. -1.
         11   -1    0    0    0    0 -0.00000000000E+00 -0.00000000000E+00 -0.45593999997E+02  0.45594000000E+02  0.51100000000E-03 0.  1.
    9900012    2    1    2    0    0 -0.44439233431E+02 -0.97117754644E+00 -0.73023886201E+01  0.46142317262E+02  0.99999954510E+01 0.  0.
        -12    1    1    2    0    0  0.44439233431E+02  0.97117754644E+00  0.73023886201E+01  0.45045682738E+02  0.00000000000E+00 0.  1.
         11    1    3    3    0    0 -0.26097474654E+02  0.17074187975E+01 -0.48283020845E+01  0.26595224450E+02  0.51100000000E-03 0. -1.
        -11    1    3    3    0    0 -0.92509812054E+01 -0.17252432082E+00  0.13896371740E+01  0.93563619874E+01  0.51100000000E-03 0.  1.
         12    1    3    3    0    0 -0.90907775714E+01 -0.25060720231E+01 -0.38637237096E+01  0.10190730825E+02  0.00000000000E+00 0. -1.
</event>
<event>
 7    1  0.2001181E-008  0.4614232E+02  0.7816164E-02  0.1320468E+00
        -11   -1    0    0    0    0  0.00000000000E+00  0.00000000000E+00  0.45593999997E+02  0.45594000000E+02  0.51100000000E-03 0.  1.
         11   -1    0    0    0    0 -0.00000000000E+00 -0.00000000000E+00 -0.45593999997E+02  0.45594000000E+02  0.51100000000E-03 0. -1.
    9900012    2    1    2    0    0 -0.36449199837E+02  0.13302217789E+02 -0.22882753325E+02  0.46142316892E+02  0.99999920769E+01 0.  0.
        -12    1    1    2    0    0  0.36449199837E+02 -0.13302217789E+02  0.22882753325E+02  0.45045683108E+02  0.00000000000E+00 0.  1.
         11    1    3    3    0    0 -0.57254687040E+01  0.23038376028E+01 -0.41415391303E+01  0.74324293612E+01  0.51100000000E-03 0.  1.
        -11    1    3    3    0    0 -0.25881436722E+02  0.72965625891E+01 -0.11503488523E+02  0.29247544185E+02  0.51100000000E-03 0. -1.
         12    1    3    3    0    0 -0.48422944115E+01  0.37018175974E+01 -0.72377256718E+01  0.94623433457E+01  0.00000000000E+00 0. -1.
</event>
<event>
 7    1  0.2001181E-008  0.4614232E+02  0.7816164E-02  0.1320468E+00
        -11   -1    0    0    0    0  0.00000000000E+00  0.00000000000E+00  0.45593999997E+02  0.45594000000E+02  0.51100000000E-03 0. -1.
         11   -1    0    0    0    0 -0.00000000000E+00 -0.00000000000E+00 -0.45593999997E+02  0.45594000000E+02  0.51100000000E-03 0.  1.
    9900012    2    1    2    0    0  0.30900981997E+02 -0.17826336414E+02  0.27503901077E+02  0.46142317268E+02  0.99999955032E+01 0.  0.
        -12    1    1    2    0    0 -0.30900981997E+02  0.17826336414E+02 -0.27503901077E+02  0.45045682732E+02  0.00000000000E+00 0.  1.
         11    1    3    3    0    0  0.10205116223E+02 -0.70031410229E+01  0.70336136011E+01  0.14235873766E+02  0.51100000000E-03 0. -1.
        -11    1    3    3    0    0  0.72251527321E+01 -0.17828639168E+00  0.49286017872E+01  0.87478988265E+01  0.51100000000E-03 0.  1.
        -12    1    3    3    0    0  0.13470713042E+02 -0.10644909000E+02  0.15541685689E+02  0.23158544676E+02  0.00000000000E+00 0.  1.
</event>
<event>
 7    1  0.2001181E-008  0.4614232E+02  0.7816164E-02  0.1320468E+00
        -11   -1    0    0    0    0  0.00000000000E+00  0.00000000000E+00  0.45593999997E+02  0.45594000000E+02  0.51100000000E-03 0. -1.
         11   -1    0    0    0    0 -0.00000000000E+00 -0.00000000000E+00 -0.45593999997E+02  0.45594000000E+02  0.51100000000E-03 0.  1.
    9900012    2    1    2    0    0  0.43517529108E+02 -0.48996229220E+01  0.10551391382E+02  0.46142317582E+02  0.99999983681E+01 0.  0.
        -12    1    1    2    0    0 -0.43517529108E+02  0.48996229220E+01 -0.10551391382E+02  0.45045682418E+02  0.00000000000E+00 0.  1.
         11    1    3    3    0    0  0.36959074821E+02 -0.68347456870E+01  0.65609384680E+01  0.38154067596E+02  0.51100000000E-03 0. -1.
        -11    1    3    3    0    0  0.18457681740E+01  0.43022367219E+00  0.16610969748E+01  0.25201579278E+01  0.51100000000E-03 0.  1.
         12    1    3    3    0    0  0.47126861122E+01  0.15048990928E+01  0.23293559389E+01  0.54680920586E+01  0.00000000000E+00 0. -1.
</event>
<event>
 7    1  0.2001181E-008  0.4614232E+02  0.7816164E-02  0.1320468E+00
        -11   -1    0    0    0    0  0.00000000000E+00  0.00000000000E+00  0.45593999997E+02  0.45594000000E+02  0.51100000000E-03 0.  1.
         11   -1    0    0    0    0 -0.00000000000E+00 -0.00000000000E+00 -0.45593999997E+02  0.45594000000E+02  0.51100000000E-03 0. -1.
    9900012    2    1    2    0    0  0.38090136226E+01 -0.31588633980E+02 -0.31886722878E+02  0.46142317883E+02  0.10000001112E+02 0.  0.
        -12    1    1    2    0    0 -0.38090136226E+01  0.31588633980E+02  0.31886722878E+02  0.45045682117E+02  0.00000000000E+00 0.  1.
         11    1    3    3    0    0 -0.23727379566E+00 -0.23557824145E+01 -0.37736424165E+01  0.44549283931E+01  0.51100000000E-03 0. -1.
        -11    1    3    3    0    0 -0.19019504033E+01 -0.17276601874E+02 -0.14760348959E+02  0.22802769334E+02  0.51100000000E-03 0.  1.
        -12    1    3    3    0    0  0.59482378215E+01 -0.11956249692E+02 -0.13352731502E+02  0.18884620156E+02  0.00000000000E+00 0.  1.
</event>
<event>
 7    1  0.2001181E-008  0.4614232E+02  0.7816164E-02  0.1320468E+00
        -11   -1    0    0    0    0  0.00000000000E+00  0.00000000000E+00  0.45593999997E+02  0.45594000000E+02  0.51100000000E-03 0.  1.
         11   -1    0    0    0    0 -0.00000000000E+00 -0.00000000000E+00 -0.45593999997E+02  0.45594000000E+02  0.51100000000E-03 0. -1.
    9900012    2    1    2    0    0  0.37482842753E+02  0.23942756705E+02  0.71340240948E+01  0.46142318751E+02  0.10000009022E+02 0.  0.
        -12    1    1    2    0    0 -0.37482842753E+02 -0.23942756705E+02 -0.71340240948E+01  0.45045681249E+02  0.00000000000E+00 0.  1.
         11    1    3    3    0    0  0.95455738329E+00  0.10129266127E+01 -0.86066864844E+00  0.16364445924E+01  0.51100000000E-03 0. -1.
        -11    1    3    3    0    0  0.13619776215E+02  0.46500262189E+01  0.13553129688E+01  0.14455376906E+02  0.51100000000E-03 0.  1.
        -12    1    3    3    0    0  0.22908509154E+02  0.18279803873E+02  0.66393797744E+01  0.30050497252E+02  0.00000000000E+00 0.  1.
</event>
<event>
 7    1  0.2001181E-008  0.4614232E+02  0.7816164E-02  0.1320468E+00
        -11   -1    0    0    0    0  0.00000000000E+00  0.00000000000E+00  0.45593999997E+02  0.45594000000E+02  0.51100000000E-03 0. -1.
         11   -1    0    0    0    0 -0.00000000000E+00 -0.00000000000E+00 -0.45593999997E+02  0.45594000000E+02  0.51100000000E-03 0.  1.
    9900012    2    1    2    0    0  0.23626840784E+01  0.33392850765E+02  0.30140483367E+02  0.46142317678E+02  0.99999992430E+01 0.  0.
        -12    1    1    2    0    0 -0.23626840784E+01 -0.33392850765E+02 -0.30140483367E+02  0.45045682322E+02  0.00000000000E+00 0.  1.
         11    1    3    3    0    0  0.13182404435E+01  0.17576126110E+02  0.12182553535E+02  0.21425979039E+02  0.51100000000E-03 0. -1.
        -11    1    3    3    0    0 -0.14957789540E+01  0.13067795350E+02  0.12891226927E+02  0.18417067137E+02  0.51100000000E-03 0.  1.
        -12    1    3    3    0    0  0.25402225888E+01  0.27489293051E+01  0.50667029056E+01  0.62992715022E+01  0.00000000000E+00 0.  1.
</event>
<event>
 7    1  0.2001181E-008  0.4614232E+02  0.7816164E-02  0.1320468E+00
        -11   -1    0    0    0    0  0.00000000000E+00  0.00000000000E+00  0.45593999997E+02  0.45594000000E+02  0.51100000000E-03 0.  1.
         11   -1    0    0    0    0 -0.00000000000E+00 -0.00000000000E+00 -0.45593999997E+02  0.45594000000E+02  0.51100000000E-03 0. -1.
    9900012    2    1    2    0    0  0.25748849483E+02  0.30550238070E+02 -0.20803681837E+02  0.46142317923E+02  0.10000001475E+02 0.  0.
        -12    1    1    2    0    0 -0.25748849483E+02 -0.30550238070E+02  0.20803681837E+02  0.45045682077E+02  0.00000000000E+00 0.  1.
         11    1    3    3    0    0  0.14917569299E+02  0.18861745412E+02 -0.11888347146E+02  0.26825959664E+02  0.51100000000E-03 0. -1.
        -11    1    3    3    0    0  0.29415640701E+01  0.17127117841E+01  0.56861468979E+00  0.34510148885E+01  0.51100000000E-03 0.  1.
         12    1    3    3    0    0  0.78897161139E+01  0.99757808742E+01 -0.94839493808E+01  0.15865343371E+02  0.00000000000E+00 0. -1.
</event>
<event>
 7    1  0.2001181E-008  0.4614232E+02  0.7816164E-02  0.1320468E+00
        -11   -1    0    0    0    0  0.00000000000E+00  0.00000000000E+00  0.45593999997E+02  0.45594000000E+02  0.51100000000E-03 0.  1.
         11   -1    0    0    0    0 -0.00000000000E+00 -0.00000000000E+00 -0.45593999997E+02  0.45594000000E+02  0.51100000000E-03 0. -1.
    9900012    2    1    2    0    0 -0.17575741298E+02  0.22059344926E+02 -0.35122529752E+02  0.46142317888E+02  0.10000001160E+02 0.  0.
        -12    1    1    2    0    0  0.17575741298E+02 -0.22059344926E+02  0.35122529752E+02  0.45045682112E+02  0.00000000000E+00 0.  1.
         11    1    3    3    0    0  0.99391460800E+00  0.71685606959E+00 -0.88770076863E+00  0.15131958856E+01  0.51100000000E-03 0.  1.
        -11    1    3    3    0    0 -0.35959988842E+01  0.68439857447E+01 -0.10546948960E+02  0.13077059359E+02  0.51100000000E-03 0. -1.
         12    1    3    3    0    0 -0.14973657022E+02  0.14498503111E+02 -0.23687880024E+02  0.31552062644E+02  0.00000000000E+00 0. -1.
</event>
<event>
 7    1  0.2001181E-008  0.4614232E+02  0.7816164E-02  0.1320468E+00
        -11   -1    0    0    0    0  0.00000000000E+00  0.00000000000E+00  0.45593999997E+02  0.45594000000E+02  0.51100000000E-03 0.  1.
         11   -1    0    0    0    0 -0.00000000000E+00 -0.00000000000E+00 -0.45593999997E+02  0.45594000000E+02  0.51100000000E-03 0. -1.
    9900012    2    1    2    0    0 -0.15789471856E+02 -0.16650835028E+02 -0.38762814386E+02  0.46142317546E+02  0.99999980419E+01 0.  0.
        -12    1    1    2    0    0  0.15789471856E+02  0.16650835028E+02  0.38762814386E+02  0.45045682454E+02  0.00000000000E+00 0.  1.
         11    1    3    3    0    0 -0.33554255113E+01 -0.78570628600E+00 -0.89282979177E+01  0.95703040024E+01  0.51100000000E-03 0. -1.
        -11    1    3    3    0    0 -0.28162123092E+01 -0.87207754163E+01 -0.12467560902E+02  0.15473301223E+02  0.51100000000E-03 0.  1.
        -12    1    3    3    0    0 -0.96178340353E+01 -0.71443533253E+01 -0.17366955566E+02  0.21098712321E+02  0.00000000000E+00 0.  1.
</event>
<event>
 7    1  0.2001181E-008  0.4614233E+02  0.7816164E-02  0.1320468E+00
        -11   -1    0    0    0    0  0.00000000000E+00  0.00000000000E+00  0.45593999997E+02  0.45594000000E+02  0.51100000000E-03 0. -1.
         11   -1    0    0    0    0 -0.00000000000E+00 -0.00000000000E+00 -0.45593999997E+02  0.45594000000E+02  0.51100000000E-03 0.  1.
    9900012    2    1    2    0    0  0.14367555647E+02 -0.41859109865E+02  0.83964754623E+01  0.46142328353E+02  0.10000096583E+02 0.  0.
        -12    1    1    2    0    0 -0.14367555647E+02  0.41859109865E+02 -0.83964754623E+01  0.45045671647E+02  0.00000000000E+00 0.  1.
         11    1    3    3    0    0  0.56481172809E+01 -0.85458314313E+01  0.21159948052E+01  0.10459918640E+02  0.51100000000E-03 0. -1.
        -11    1    3    3    0    0  0.90967241026E+00 -0.68235253827E+01  0.40231062259E+01  0.79732920746E+01  0.51100000000E-03 0.  1.
        -12    1    3    3    0    0  0.78097659563E+01 -0.26489753051E+02  0.22573744312E+01  0.27709117639E+02  0.00000000000E+00 0.  1.
</event>
<event>
 7    1  0.2001181E-008  0.4614232E+02  0.7816164E-02  0.1320468E+00
        -11   -1    0    0    0    0  0.00000000000E+00  0.00000000000E+00  0.45593999997E+02  0.45594000000E+02  0.51100000000E-03 0.  1.
         11   -1    0    0    0    0 -0.00000000000E+00 -0.00000000000E+00 -0.45593999997E+02  0.45594000000E+02  0.51100000000E-03 0. -1.
    9900012    2    1    2    0    0 -0.36314067881E+02  0.25920737285E+02 -0.62062255944E+01  0.46142318924E+02  0.10000010606E+02 0.  0.
        -12    1    1    2    0    0  0.36314067881E+02 -0.25920737285E+02  0.62062255944E+01  0.45045681076E+02  0.00000000000E+00 0.  1.
         11    1    3    3    0    0 -0.30534873345E+01  0.60027256948E+00 -0.10593498787E+01  0.32872989652E+01  0.51100000000E-03 0. -1.
        -11    1    3    3    0    0 -0.13960942831E+02  0.13100740673E+02 -0.57948504008E+01  0.20002940342E+02  0.51100000000E-03 0.  1.
         12    1    3    3    0    0 -0.19299637715E+02  0.12219724043E+02  0.64797468513E+00  0.22852079617E+02  0.00000000000E+00 0. -1.
</event>
<event>
 7    1  0.2001181E-008  0.4614232E+02  0.7816164E-02  0.1320468E+00
        -11   -1    0    0    0    0  0.00000000000E+00  0.00000000000E+00  0.45593999997E+02  0.45594000000E+02  0.51100000000E-03 0.  1.
         11   -1    0    0    0    0 -0.00000000000E+00 -0.00000000000E+00 -0.45593999997E+02  0.45594000000E+02  0.51100000000E-03 0. -1.
    9900012    2    1    2    0    0 -0.52890336341E+01 -0.39842049664E+02 -0.20340865159E+02  0.46142316592E+02  0.99999893427E+01 0.  0.
        -12    1    1    2    0    0  0.52890336341E+01  0.39842049664E+02  0.20340865159E+02  0.45045683408E+02  0.00000000000E+00 0.  1.
         11    1    3    3    0    0 -0.44160765077E+01 -0.12243204094E+02 -0.62917932784E+01  0.14456294170E+02  0.51100000000E-03 0. -1.
        -11    1    3    3    0    0  0.84397955666E+00 -0.25761185647E+02 -0.13558853748E+02  0.29123761822E+02  0.51100000000E-03 0.  1.
        -12    1    3    3    0    0 -0.17169366831E+01 -0.18376599231E+01 -0.49021813249E+00  0.25622606004E+01  0.00000000000E+00 0.  1.
</event>
<event>
 7    1  0.2001181E-008  0.4614232E+02  0.7816164E-02  0.1320468E+00
        -11   -1    0    0    0    0  0.00000000000E+00  0.00000000000E+00  0.45593999997E+02  0.45594000000E+02  0.51100000000E-03 0. -1.
         11   -1    0    0    0    0 -0.00000000000E+00 -0.00000000000E+00 -0.45593999997E+02  0.45594000000E+02  0.51100000000E-03 0.  1.
    9900012    2    1    2    0    0 -0.44476508583E+02 -0.40517148997E+01  0.58768435152E+01  0.46142317642E+02  0.99999989146E+01 0.  0.
        -12    1    1    2    0    0  0.44476508583E+02  0.40517148997E+01 -0.58768435152E+01  0.45045682358E+02  0.00000000000E+00 0.  1.
         11    1    3    3    0    0 -0.15568584306E+02 -0.15737387742E+00  0.54397005798E+01  0.16492299006E+02  0.51100000000E-03 0. -1.
        -11    1    3    3    0    0 -0.10917432465E+02  0.11072928523E+01  0.24788254531E+00  0.10976241393E+02  0.51100000000E-03 0.  1.
         12    1    3    3    0    0 -0.17990491812E+02 -0.50016338746E+01  0.18926039011E+00  0.18673777244E+02  0.00000000000E+00 0. -1.
</event>
<event>
 7    1  0.2001181E-008  0.4614232E+02  0.7816164E-02  0.1320468E+00
        -11   -1    0    0    0    0  0.00000000000E+00  0.00000000000E+00  0.45593999997E+02  0.45594000000E+02  0.51100000000E-03 0.  1.
         11   -1    0    0    0    0 -0.00000000000E+00 -0.00000000000E+00 -0.45593999997E+02  0.45594000000E+02  0.51100000000E-03 0. -1.
    9900012    2    1    2    0    0 -0.28006172130E+02 -0.33891145181E+02 -0.98060217343E+01  0.46142318061E+02  0.10000002734E+02 0.  0.
        -12    1    1    2    0    0  0.28006172130E+02  0.33891145181E+02  0.98060217343E+01  0.45045681939E+02  0.00000000000E+00 0.  1.
         11    1    3    3    0    0 -0.29118799286E+01 -0.89184433599E+01 -0.27567357918E+01  0.97784083148E+01  0.51100000000E-03 0. -1.
        -11    1    3    3    0    0 -0.54834186997E+01 -0.37856042912E+01 -0.26023580144E+01  0.71533871684E+01  0.51100000000E-03 0.  1.
        -12    1    3    3    0    0 -0.19610873502E+02 -0.21187097530E+02 -0.44469279281E+01  0.29210522578E+02  0.00000000000E+00 0.  1.
</event>
<event>
 7    1  0.2001181E-008  0.4614232E+02  0.7816164E-02  0.1320468E+00
        -11   -1    0    0    0    0  0.00000000000E+00  0.00000000000E+00  0.45593999997E+02  0.45594000000E+02  0.51100000000E-03 0. -1.
         11   -1    0    0    0    0 -0.00000000000E+00 -0.00000000000E+00 -0.45593999997E+02  0.45594000000E+02  0.51100000000E-03 0.  1.
    9900012    2    1    2    0    0  0.32423114592E+02 -0.24606197549E+02  0.19297417679E+02  0.46142316003E+02  0.99999839684E+01 0.  0.
        -12    1    1    2    0    0 -0.32423114592E+02  0.24606197549E+02 -0.19297417679E+02  0.45045683997E+02  0.00000000000E+00 0.  1.
         11    1    3    3    0    0  0.16537697025E+02 -0.13309206523E+02  0.67741270132E+01  0.22282710746E+02  0.51100000000E-03 0. -1.
        -11    1    3    3    0    0  0.13923006786E+02 -0.10793495914E+02  0.89690603188E+01  0.19768503111E+02  0.51100000000E-03 0.  1.
        -12    1    3    3    0    0  0.19624107817E+01 -0.50349511220E+00  0.35542303472E+01  0.40911021455E+01  0.00000000000E+00 0.  1.
</event>
<event>
 7    1  0.2001181E-008  0.4614232E+02  0.7816164E-02  0.1320468E+00
        -11   -1    0    0    0    0  0.00000000000E+00  0.00000000000E+00  0.45593999997E+02  0.45594000000E+02  0.51100000000E-03 0.  1.
         11   -1    0    0    0    0 -0.00000000000E+00 -0.00000000000E+00 -0.45593999997E+02  0.45594000000E+02  0.51100000000E-03 0. -1.
    9900012    2    1    2    0    0 -0.28271069359E+02  0.17203893463E+02 -0.30559550124E+02  0.46142318556E+02  0.10000007250E+02 0.  0.
        -12    1    1    2    0    0  0.28271069359E+02 -0.17203893463E+02  0.30559550124E+02  0.45045681444E+02  0.00000000000E+00 0.  1.
         11    1    3    3    0    0 -0.22734242921E+01  0.24063359199E+01 -0.48506400364E+01  0.58726160776E+01  0.51100000000E-03 0. -1.
        -11    1    3    3    0    0 -0.34097337624E+01  0.25622937038E+00 -0.61616317850E+01  0.70468180292E+01  0.51100000000E-03 0.  1.
         12    1    3    3    0    0 -0.22587911305E+02  0.14541328172E+02 -0.19547278302E+02  0.33222884449E+02  0.00000000000E+00 0. -1.
</event>
<event>
 7    1  0.2001181E-008  0.4614232E+02  0.7816164E-02  0.1320468E+00
        -11   -1    0    0    0    0  0.00000000000E+00  0.00000000000E+00  0.45593999997E+02  0.45594000000E+02  0.51100000000E-03 0. -1.
         11   -1    0    0    0    0 -0.00000000000E+00 -0.00000000000E+00 -0.45593999997E+02  0.45594000000E+02  0.51100000000E-03 0.  1.
    9900012    2    1    2    0    0  0.40933487408E+02  0.33281459188E+01 -0.18506391326E+02  0.46142318003E+02  0.10000002207E+02 0.  0.
        -12    1    1    2    0    0 -0.40933487408E+02 -0.33281459188E+01  0.18506391326E+02  0.45045681997E+02  0.00000000000E+00 0.  1.
         11    1    3    3    0    0  0.27256924436E+02  0.20174917434E+01 -0.14801303256E+02  0.31081968743E+02  0.51100000000E-03 0. -1.
        -11    1    3    3    0    0  0.13391114751E+02  0.34826175302E+00 -0.40571643684E+01  0.13996564704E+02  0.51100000000E-03 0.  1.
        -12    1    3    3    0    0  0.28544822096E+00  0.96239242235E+00  0.35207629840E+00  0.10637845559E+01  0.00000000000E+00 0.  1.
</event>
<event>
 7    1  0.2001181E-008  0.4614232E+02  0.7816164E-02  0.1320468E+00
        -11   -1    0    0    0    0  0.00000000000E+00  0.00000000000E+00  0.45593999997E+02  0.45594000000E+02  0.51100000000E-03 0.  1.
         11   -1    0    0    0    0 -0.00000000000E+00 -0.00000000000E+00 -0.45593999997E+02  0.45594000000E+02  0.51100000000E-03 0. -1.
    9900012    2    1    2    0    0 -0.28762920181E+02  0.32425281389E+02  0.12264139195E+02  0.46142316958E+02  0.99999926803E+01 0.  0.
        -12    1    1    2    0    0  0.28762920181E+02 -0.32425281389E+02 -0.12264139195E+02  0.45045683042E+02  0.00000000000E+00 0.  1.
         11    1    3    3    0    0 -0.18375388924E+02  0.14645275389E+02  0.78179694411E+01  0.24764079950E+02  0.51100000000E-03 0. -1.
        -11    1    3    3    0    0 -0.70854125439E+00  0.30465147267E+01  0.16276916810E+01  0.35259981790E+01  0.51100000000E-03 0.  1.
         12    1    3    3    0    0 -0.96789900026E+01  0.14733491274E+02  0.28184780727E+01  0.17852238830E+02  0.00000000000E+00 0. -1.
</event>
<event>
 7    1  0.2001181E-008  0.4614232E+02  0.7816164E-02  0.1320468E+00
        -11   -1    0    0    0    0  0.00000000000E+00  0.00000000000E+00  0.45593999997E+02  0.45594000000E+02  0.51100000000E-03 0. -1.
         11   -1    0    0    0    0 -0.00000000000E+00 -0.00000000000E+00 -0.45593999997E+02  0.45594000000E+02  0.51100000000E-03 0.  1.
    9900012    2    1    2    0    0  0.79576320634E+00  0.94754701218E+01  0.44030623625E+02  0.46142316634E+02  0.99999897222E+01 0.  0.
        -12    1    1    2    0    0 -0.79576320634E+00 -0.94754701218E+01 -0.44030623625E+02  0.45045683366E+02  0.00000000000E+00 0.  1.
         11    1    3    3    0    0  0.25842384913E+01  0.88968270150E+01  0.22626835012E+02  0.24450060991E+02  0.51100000000E-03 0. -1.
        -11    1    3    3    0    0 -0.17757086271E+01  0.16424754081E+01  0.13203188547E+02  0.13422930182E+02  0.51100000000E-03 0.  1.
         12    1    3    3    0    0 -0.12766657865E-01 -0.10638323013E+01  0.82006000656E+01  0.82693254615E+01  0.00000000000E+00 0. -1.
</event>
<event>
 7    1  0.2001181E-008  0.4614232E+02  0.7816164E-02  0.1320468E+00
        -11   -1    0    0    0    0  0.00000000000E+00  0.00000000000E+00  0.45593999997E+02  0.45594000000E+02  0.51100000000E-03 0. -1.
         11   -1    0    0    0    0 -0.00000000000E+00 -0.00000000000E+00 -0.45593999997E+02  0.45594000000E+02  0.51100000000E-03 0.  1.
    9900012    2    1    2    0    0 -0.34371522807E+02  0.14337855955E+02  0.25340438599E+02  0.46142317389E+02  0.99999966091E+01 0.  0.
        -12    1    1    2    0    0  0.34371522807E+02 -0.14337855955E+02 -0.25340438599E+02  0.45045682611E+02  0.00000000000E+00 0.  1.
         11    1    3    3    0    0 -0.84918016439E+01  0.58768960514E+00  0.27680864902E+01  0.89508869565E+01  0.51100000000E-03 0.  1.
        -11    1    3    3    0    0 -0.14672117245E+02  0.61912114355E+01  0.10568542426E+02  0.19112723845E+02  0.51100000000E-03 0. -1.
        -12    1    3    3    0    0 -0.11207603918E+02  0.75589549147E+01  0.12003809683E+02  0.18078706588E+02  0.00000000000E+00 0.  1.
</event>
<event>
 7    1  0.2001181E-008  0.4614232E+02  0.7816164E-02  0.1320468E+00
        -11   -1    0    0    0    0  0.00000000000E+00  0.00000000000E+00  0.45593999997E+02  0.45594000000E+02  0.51100000000E-03 0.  1.
         11   -1    0    0    0    0 -0.00000000000E+00 -0.00000000000E+00 -0.45593999997E+02  0.45594000000E+02  0.51100000000E-03 0. -1.
    9900012    2    1    2    0    0  0.27139889709E+02 -0.29510142989E+02 -0.20535123343E+02  0.46142318261E+02  0.10000004554E+02 0.  0.
        -12    1    1    2    0    0 -0.27139889709E+02  0.29510142989E+02  0.20535123343E+02  0.45045681739E+02  0.00000000000E+00 0.  1.
         11    1    3    3    0    0  0.86866341555E+01 -0.15038046469E+02 -0.11642787173E+02  0.20908250715E+02  0.51100000000E-03 0. -1.
        -11    1    3    3    0    0  0.55771764826E+01 -0.45454089119E+01 -0.13882751173E+01  0.73275471856E+01  0.51100000000E-03 0.  1.
        -12    1    3    3    0    0  0.12876079071E+02 -0.99266876087E+01 -0.75040610523E+01  0.17906520360E+02  0.00000000000E+00 0.  1.
</event>
<event>
 7    1  0.2001181E-008  0.4614232E+02  0.7816164E-02  0.1320468E+00
        -11   -1    0    0    0    0  0.00000000000E+00  0.00000000000E+00  0.45593999997E+02  0.45594000000E+02  0.51100000000E-03 0.  1.
         11   -1    0    0    0    0 -0.00000000000E+00 -0.00000000000E+00 -0.45593999997E+02  0.45594000000E+02  0.51100000000E-03 0. -1.
    9900012    2    1    2    0    0 -0.34162719954E+02 -0.12531856348E+02 -0.26551352700E+02  0.46142321091E+02  0.10000030362E+02 0.  0.
        -12    1    1    2    0    0  0.34162719954E+02  0.12531856348E+02  0.26551352700E+02  0.45045678909E+02  0.00000000000E+00 0.  1.
         11    1    3    3    0    0 -0.14982441775E+02 -0.61175510124E+01 -0.13264690351E+02  0.20924865646E+02  0.51100000000E-03 0. -1.
        -11    1    3    3    0    0 -0.11397070061E+02 -0.56421768385E+00 -0.92006566718E+01  0.14658227418E+02  0.51100000000E-03 0.  1.
        -12    1    3    3    0    0 -0.77832081178E+01 -0.58500876512E+01 -0.40860056776E+01  0.10559228027E+02  0.00000000000E+00 0.  1.
</event>
<event>
 7    1  0.2001181E-008  0.4614232E+02  0.7816164E-02  0.1320468E+00
        -11   -1    0    0    0    0  0.00000000000E+00  0.00000000000E+00  0.45593999997E+02  0.45594000000E+02  0.51100000000E-03 0.  1.
         11   -1    0    0    0    0 -0.00000000000E+00 -0.00000000000E+00 -0.45593999997E+02  0.45594000000E+02  0.51100000000E-03 0. -1.
    9900012    2    1    2    0    0 -0.16815730147E+02 -0.84054975584E+01 -0.40935221573E+02  0.46142317246E+02  0.99999953036E+01 0.  0.
        -12    1    1    2    0    0  0.16815730147E+02  0.84054975584E+01  0.40935221573E+02  0.45045682754E+02  0.00000000000E+00 0.  1.
         11    1    3    3    0    0 -0.44414658856E+01 -0.46948514331E+01 -0.96769455682E+01  0.11636645779E+02  0.51100000000E-03 0. -1.
        -11    1    3    3    0    0 -0.35178435465E+01  0.19768824810E+01 -0.10029609341E+02  0.10810936655E+02  0.51100000000E-03 0.  1.
         12    1    3    3    0    0 -0.88564207147E+01 -0.56875286063E+01 -0.21228666663E+02  0.23694734812E+02  0.00000000000E+00 0. -1.
</event>
<event>
 7    1  0.2001181E-008  0.4614232E+02  0.7816164E-02  0.1320468E+00
        -11   -1    0    0    0    0  0.00000000000E+00  0.00000000000E+00  0.45593999997E+02  0.45594000000E+02  0.51100000000E-03 0. -1.
         11   -1    0    0    0    0 -0.00000000000E+00 -0.00000000000E+00 -0.45593999997E+02  0.45594000000E+02  0.51100000000E-03 0.  1.
    9900012    2    1    2    0    0  0.39779109871E+02  0.31903538169E+00  0.21133718527E+02  0.46142318471E+02  0.10000006471E+02 0.  0.
        -12    1    1    2    0    0 -0.39779109871E+02 -0.31903538169E+00 -0.21133718527E+02  0.45045681529E+02  0.00000000000E+00 0.  1.
         11    1    3    3    0    0  0.17857054122E+02  0.25663865091E+01  0.99023929732E+01  0.20579555595E+02  0.51100000000E-03 0. -1.
        -11    1    3    3    0    0  0.20730336444E+02 -0.36288268381E+00  0.10118508735E+02  0.23070820363E+02  0.51100000000E-03 0.  1.
        -12    1    3    3    0    0  0.11917193039E+01 -0.18844684436E+01  0.11128168186E+01  0.24919425126E+01  0.00000000000E+00 0.  1.
</event>
<event>
 7    1  0.2001181E-008  0.4614232E+02  0.7816164E-02  0.1320468E+00
        -11   -1    0    0    0    0  0.00000000000E+00  0.00000000000E+00  0.45593999997E+02  0.45594000000E+02  0.51100000000E-03 0.  1.
         11   -1    0    0    0    0 -0.00000000000E+00 -0.00000000000E+00 -0.45593999997E+02  0.45594000000E+02  0.51100000000E-03 0. -1.
    9900012    2    1    2    0    0  0.19927035935E+01 -0.37142426588E+02  0.25408321052E+02  0.46142317642E+02  0.99999989097E+01 0.  0.
        -12    1    1    2    0    0 -0.19927035935E+01  0.37142426588E+02 -0.25408321052E+02  0.45045682358E+02  0.00000000000E+00 0.  1.
         11    1    3    3    0    0  0.16563314178E+01 -0.22989336819E+02  0.12565122393E+02  0.26251387433E+02  0.51100000000E-03 0.  1.
        -11    1    3    3    0    0  0.26065730061E+01 -0.79132030692E+01  0.54603044977E+01  0.99613217557E+01  0.51100000000E-03 0. -1.
        -12    1    3    3    0    0 -0.22702008304E+01 -0.62398867002E+01  0.73828941607E+01  0.99296084530E+01  0.00000000000E+00 0.  1.
</event>
<event>
 7    1  0.2001181E-008  0.4614232E+02  0.7816164E-02  0.1320468E+00
        -11   -1    0    0    0    0  0.00000000000E+00  0.00000000000E+00  0.45593999997E+02  0.45594000000E+02  0.51100000000E-03 0. -1.
         11   -1    0    0    0    0 -0.00000000000E+00 -0.00000000000E+00 -0.45593999997E+02  0.45594000000E+02  0.51100000000E-03 0.  1.
    9900012    2    1    2    0    0  0.44270296251E+02  0.19878992004E+01  0.80809995565E+01  0.46142318440E+02  0.10000006192E+02 0.  0.
        -12    1    1    2    0    0 -0.44270296251E+02 -0.19878992004E+01 -0.80809995565E+01  0.45045681560E+02  0.00000000000E+00 0.  1.
         11    1    3    3    0    0  0.75913154662E+01  0.36563708732E+01  0.17426213466E-01  0.84259968196E+01  0.51100000000E-03 0. -1.
        -11    1    3    3    0    0  0.23658666521E+02 -0.27966762362E+00  0.39248360444E+01  0.23983641378E+02  0.51100000000E-03 0.  1.
        -12    1    3    3    0    0  0.13020314264E+02 -0.13888040492E+01  0.41387372986E+01  0.13732680243E+02  0.00000000000E+00 0.  1.
</event>
<event>
 7    1  0.2001181E-008  0.4614232E+02  0.7816164E-02  0.1320468E+00
        -11   -1    0    0    0    0  0.00000000000E+00  0.00000000000E+00  0.45593999997E+02  0.45594000000E+02  0.51100000000E-03 0. -1.
         11   -1    0    0    0    0 -0.00000000000E+00 -0.00000000000E+00 -0.45593999997E+02  0.45594000000E+02  0.51100000000E-03 0.  1.
    9900012    2    1    2    0    0  0.29350224808E+02  0.34116614749E+02  0.19324554575E+01  0.46142317828E+02  0.10000000614E+02 0.  0.
        -12    1    1    2    0    0 -0.29350224808E+02 -0.34116614749E+02 -0.19324554575E+01  0.45045682172E+02  0.00000000000E+00 0.  1.
         11    1    3    3    0    0  0.10261467627E+02  0.13012603486E+02  0.19115179532E+01  0.16681710599E+02  0.51100000000E-03 0. -1.
        -11    1    3    3    0    0  0.98388816720E+01  0.12007064128E+02  0.37340433761E+01  0.15966097260E+02  0.51100000000E-03 0.  1.
         12    1    3    3    0    0  0.92498755088E+01  0.90969471347E+01 -0.37131058719E+01  0.13494509969E+02  0.00000000000E+00 0. -1.
</event>
<event>
 7    1  0.2001181E-008  0.4614233E+02  0.7816164E-02  0.1320468E+00
        -11   -1    0    0    0    0  0.00000000000E+00  0.00000000000E+00  0.45593999997E+02  0.45594000000E+02  0.51100000000E-03 0.  1.
         11   -1    0    0    0    0 -0.00000000000E+00 -0.00000000000E+00 -0.45593999997E+02  0.45594000000E+02  0.51100000000E-03 0. -1.
    9900012    2    1    2    0    0 -0.38200780597E+02  0.50466731648E+01 -0.23331177714E+02  0.46142329822E+02  0.10000109981E+02 0.  0.
        -12    1    1    2    0    0  0.38200780597E+02 -0.50466731648E+01  0.23331177714E+02  0.45045670178E+02  0.00000000000E+00 0.  1.
         11    1    3    3    0    0 -0.14400371518E+02  0.45281328807E+01 -0.63010588940E+01  0.16357812527E+02  0.51100000000E-03 0. -1.
        -11    1    3    3    0    0 -0.70088441800E+01  0.16237994789E+01 -0.27089428618E+01  0.76875869541E+01  0.51100000000E-03 0.  1.
        -12    1    3    3    0    0 -0.16791564899E+02 -0.11052591949E+01 -0.14321175958E+02  0.22096930341E+02  0.00000000000E+00 0.  1.
</event>
<event>
 7    1  0.2001181E-008  0.4614232E+02  0.7816164E-02  0.1320468E+00
        -11   -1    0    0    0    0  0.00000000000E+00  0.00000000000E+00  0.45593999997E+02  0.45594000000E+02  0.51100000000E-03 0.  1.
         11   -1    0    0    0    0 -0.00000000000E+00 -0.00000000000E+00 -0.45593999997E+02  0.45594000000E+02  0.51100000000E-03 0. -1.
    9900012    2    1    2    0    0  0.27745050582E+02  0.24054674357E+02 -0.26090195957E+02  0.46142317463E+02  0.99999972775E+01 0.  0.
        -12    1    1    2    0    0 -0.27745050582E+02 -0.24054674357E+02  0.26090195957E+02  0.45045682537E+02  0.00000000000E+00 0.  1.
         11    1    3    3    0    0  0.11142385806E+02  0.11599597760E+02 -0.14722000690E+02  0.21804603510E+02  0.51100000000E-03 0. -1.
        -11    1    3    3    0    0  0.77685344363E+01  0.57427653118E+01 -0.85250022993E+01  0.12884298397E+02  0.51100000000E-03 0.  1.
        -12    1    3    3    0    0  0.88341303396E+01  0.67123112847E+01 -0.28431929671E+01  0.11453415556E+02  0.00000000000E+00 0.  1.
</event>
<event>
 7    1  0.2001181E-008  0.4614232E+02  0.7816164E-02  0.1320468E+00
        -11   -1    0    0    0    0  0.00000000000E+00  0.00000000000E+00  0.45593999997E+02  0.45594000000E+02  0.51100000000E-03 0.  1.
         11   -1    0    0    0    0 -0.00000000000E+00 -0.00000000000E+00 -0.45593999997E+02  0.45594000000E+02  0.51100000000E-03 0. -1.
    9900012    2    1    2    0    0 -0.16445736617E+01 -0.12825510984E+02 -0.43149915169E+02  0.46142317259E+02  0.99999954178E+01 0.  0.
        -12    1    1    2    0    0  0.16445736617E+01  0.12825510984E+02  0.43149915169E+02  0.45045682741E+02  0.00000000000E+00 0.  1.
         11    1    3    3    0    0  0.14667612777E+00 -0.31038220068E+01 -0.12894505172E+02  0.13263615225E+02  0.51100000000E-03 0. -1.
        -11    1    3    3    0    0 -0.39887308168E+00  0.14809724780E+01 -0.46150132861E+01  0.48632013230E+01  0.51100000000E-03 0.  1.
        -12    1    3    3    0    0 -0.13923767078E+01 -0.11202661456E+02 -0.25640396711E+02  0.28015500711E+02  0.00000000000E+00 0.  1.
</event>
<event>
 7    1  0.2001181E-008  0.4614232E+02  0.7816164E-02  0.1320468E+00
        -11   -1    0    0    0    0  0.00000000000E+00  0.00000000000E+00  0.45593999997E+02  0.45594000000E+02  0.51100000000E-03 0. -1.
         11   -1    0    0    0    0 -0.00000000000E+00 -0.00000000000E+00 -0.45593999997E+02  0.45594000000E+02  0.51100000000E-03 0.  1.
    9900012    2    1    2    0    0  0.42535645828E+02  0.14711477524E+02 -0.18452020693E+01  0.46142317547E+02  0.99999980514E+01 0.  0.
        -12    1    1    2    0    0 -0.42535645828E+02 -0.14711477524E+02  0.18452020693E+01  0.45045682453E+02  0.00000000000E+00 0.  1.
         11    1    3    3    0    0  0.27828918679E+02  0.67754439745E+01  0.17022931612E+01  0.28692388506E+02  0.51100000000E-03 0. -1.
        -11    1    3    3    0    0  0.27170384367E+01  0.31347735826E+01 -0.48612898607E+00  0.41767720710E+01  0.51100000000E-03 0.  1.
         12    1    3    3    0    0  0.11989688712E+02  0.48012599665E+01 -0.30613662444E+01  0.13273156970E+02  0.00000000000E+00 0. -1.
</event>
<event>
 7    1  0.2001181E-008  0.4614232E+02  0.7816164E-02  0.1320468E+00
        -11   -1    0    0    0    0  0.00000000000E+00  0.00000000000E+00  0.45593999997E+02  0.45594000000E+02  0.51100000000E-03 0. -1.
         11   -1    0    0    0    0 -0.00000000000E+00 -0.00000000000E+00 -0.45593999997E+02  0.45594000000E+02  0.51100000000E-03 0.  1.
    9900012    2    1    2    0    0  0.29307883420E+02  0.26773898312E+02  0.21291307459E+02  0.46142318357E+02  0.10000005438E+02 0.  0.
        -12    1    1    2    0    0 -0.29307883420E+02 -0.26773898312E+02 -0.21291307459E+02  0.45045681643E+02  0.00000000000E+00 0.  1.
         11    1    3    3    0    0  0.11689108109E+02  0.68500985990E+01  0.58705360899E+01  0.14765577992E+02  0.51100000000E-03 0. -1.
        -11    1    3    3    0    0  0.75553057969E+01  0.45097543348E+01  0.63774893627E+01  0.10867055750E+02  0.51100000000E-03 0.  1.
         12    1    3    3    0    0  0.10063469514E+02  0.15414045378E+02  0.90432820060E+01  0.20509684615E+02  0.00000000000E+00 0. -1.
</event>
<event>
 7    1  0.2001181E-008  0.4614233E+02  0.7816164E-02  0.1320468E+00
        -11   -1    0    0    0    0  0.00000000000E+00  0.00000000000E+00  0.45593999997E+02  0.45594000000E+02  0.51100000000E-03 0. -1.
         11   -1    0    0    0    0 -0.00000000000E+00 -0.00000000000E+00 -0.45593999997E+02  0.45594000000E+02  0.51100000000E-03 0.  1.
    9900012    2    1    2    0    0  0.25719950048E+02 -0.24640283977E+02  0.27576315843E+02  0.46142327395E+02  0.10000087849E+02 0.  0.
        -12    1    1    2    0    0 -0.25719950048E+02  0.24640283977E+02 -0.27576315843E+02  0.45045672605E+02  0.00000000000E+00 0.  1.
         11    1    3    3    0    0  0.14665339207E+02 -0.17290784136E+02  0.17080606027E+02  0.28386449102E+02  0.51100000000E-03 0. -1.
        -11    1    3    3    0    0 -0.31566109298E+00  0.33032428240E+00 -0.37091973230E-01  0.45840171548E+00  0.51100000000E-03 0.  1.
        -12    1    3    3    0    0  0.11370271934E+02 -0.76798241232E+01  0.10532801790E+02  0.17297476578E+02  0.00000000000E+00 0.  1.
</event>
<event>
 7    1  0.2001181E-008  0.4614232E+02  0.7816164E-02  0.1320468E+00
        -11   -1    0    0    0    0  0.00000000000E+00  0.00000000000E+00  0.45593999997E+02  0.45594000000E+02  0.51100000000E-03 0. -1.
         11   -1    0    0    0    0 -0.00000000000E+00 -0.00000000000E+00 -0.45593999997E+02  0.45594000000E+02  0.51100000000E-03 0.  1.
    9900012    2    1    2    0    0  0.42198574992E+02 -0.11452468885E+02  0.10827498187E+02  0.46142317722E+02  0.99999996447E+01 0.  0.
        -12    1    1    2    0    0 -0.42198574992E+02  0.11452468885E+02 -0.10827498187E+02  0.45045682278E+02  0.00000000000E+00 0.  1.
         11    1    3    3    0    0  0.82144531450E+01 -0.36502024602E+01  0.20938380617E+01  0.92295924375E+01  0.51100000000E-03 0. -1.
        -11    1    3    3    0    0  0.80917337151E+01 -0.31347108520E+01 -0.12603868852E+01  0.87687594335E+01  0.51100000000E-03 0.  1.
         12    1    3    3    0    0  0.25892388132E+02 -0.46675555727E+01  0.99940470109E+01  0.28143965851E+02  0.00000000000E+00 0. -1.
</event>
<event>
 7    1  0.2001181E-008  0.4614232E+02  0.7816164E-02  0.1320468E+00
        -11   -1    0    0    0    0  0.00000000000E+00  0.00000000000E+00  0.45593999997E+02  0.45594000000E+02  0.51100000000E-03 0. -1.
         11   -1    0    0    0    0 -0.00000000000E+00 -0.00000000000E+00 -0.45593999997E+02  0.45594000000E+02  0.51100000000E-03 0.  1.
    9900012    2    1    2    0    0  0.37063383627E+01  0.15977723652E+02  0.41953413332E+02  0.46142317772E+02  0.10000000103E+02 0.  0.
        -12    1    1    2    0    0 -0.37063383627E+01 -0.15977723652E+02 -0.41953413332E+02  0.45045682228E+02  0.00000000000E+00 0.  1.
         11    1    3    3    0    0  0.21654792983E+01  0.92380147387E+00  0.35768035812E+01  0.42820828897E+01  0.51100000000E-03 0.  1.
        -11    1    3    3    0    0  0.20975754566E+01  0.14704963127E+01  0.10994899576E+02  0.11289375499E+02  0.51100000000E-03 0. -1.
         12    1    3    3    0    0 -0.55671639219E+00  0.13583425866E+02  0.27381710174E+02  0.30570859384E+02  0.00000000000E+00 0. -1.
</event>
<event>
 7    1  0.2001181E-008  0.4614232E+02  0.7816164E-02  0.1320468E+00
        -11   -1    0    0    0    0  0.00000000000E+00  0.00000000000E+00  0.45593999997E+02  0.45594000000E+02  0.51100000000E-03 0.  1.
         11   -1    0    0    0    0 -0.00000000000E+00 -0.00000000000E+00 -0.45593999997E+02  0.45594000000E+02  0.51100000000E-03 0. -1.
    9900012    2    1    2    0    0  0.15954421856E+02  0.28832903033E+02 -0.30712109265E+02  0.46142317304E+02  0.99999958279E+01 0.  0.
        -12    1    1    2    0    0 -0.15954421856E+02 -0.28832903033E+02  0.30712109265E+02  0.45045682696E+02  0.00000000000E+00 0.  1.
         11    1    3    3    0    0  0.84195010588E+01  0.13567377212E+02 -0.15887395478E+02  0.22524898620E+02  0.51100000000E-03 0. -1.
        -11    1    3    3    0    0  0.19899030391E+01  0.10622421235E+02 -0.65912173630E+01  0.12658581816E+02  0.51100000000E-03 0.  1.
        -12    1    3    3    0    0  0.55450177578E+01  0.46431045860E+01 -0.82334964242E+01  0.10958836868E+02  0.00000000000E+00 0.  1.
</event>
<event>
 7    1  0.2001181E-008  0.4614231E+02  0.7816164E-02  0.1320468E+00
        -11   -1    0    0    0    0  0.00000000000E+00  0.00000000000E+00  0.45593999997E+02  0.45594000000E+02  0.51100000000E-03 0. -1.
         11   -1    0    0    0    0 -0.00000000000E+00 -0.00000000000E+00 -0.45593999997E+02  0.45594000000E+02  0.51100000000E-03 0.  1.
    9900012    2    1    2    0    0 -0.37094393782E+02 -0.13931040682E+02 -0.21425363268E+02  0.46142310576E+02  0.99999344792E+01 0.  0.
        -12    1    1    2    0    0  0.37094393782E+02  0.13931040682E+02  0.21425363268E+02  0.45045689424E+02  0.00000000000E+00 0.  1.
         11    1    3    3    0    0 -0.12471527534E+02 -0.52498452126E+01 -0.10506881005E+02  0.17131678916E+02  0.51100000000E-03 0. -1.
        -11    1    3    3    0    0 -0.10375339388E+02 -0.37022126596E+00 -0.40815365472E+01  0.11155432401E+02  0.51100000000E-03 0.  1.
         12    1    3    3    0    0 -0.14247526860E+02 -0.83109742037E+01 -0.68369457157E+01  0.17855199258E+02  0.00000000000E+00 0. -1.
</event>
<event>
 7    1  0.2001181E-008  0.4614233E+02  0.7816164E-02  0.1320468E+00
        -11   -1    0    0    0    0  0.00000000000E+00  0.00000000000E+00  0.45593999997E+02  0.45594000000E+02  0.51100000000E-03 0.  1.
         11   -1    0    0    0    0 -0.00000000000E+00 -0.00000000000E+00 -0.45593999997E+02  0.45594000000E+02  0.51100000000E-03 0. -1.
    9900012    2    1    2    0    0  0.53529769851E+01  0.43540669132E+02  0.10230763136E+02  0.46142326008E+02  0.10000075200E+02 0.  0.
        -12    1    1    2    0    0 -0.53529769851E+01 -0.43540669132E+02 -0.10230763136E+02  0.45045673992E+02  0.00000000000E+00 0.  1.
         11    1    3    3    0    0  0.23058291933E+01  0.65338932680E+01  0.74474541936E+00  0.69687341395E+01  0.51100000000E-03 0. -1.
        -11    1    3    3    0    0  0.66605783845E-01  0.13637091366E+02 -0.35486722657E+00  0.13641870409E+02  0.51100000000E-03 0.  1.
         12    1    3    3    0    0  0.29805420080E+01  0.23369684498E+02  0.98408849436E+01  0.25531721459E+02  0.00000000000E+00 0. -1.
</event>
<event>
 7    1  0.2001181E-008  0.4614232E+02  0.7816164E-02  0.1320468E+00
        -11   -1    0    0    0    0  0.00000000000E+00  0.00000000000E+00  0.45593999997E+02  0.45594000000E+02  0.51100000000E-03 0. -1.
         11   -1    0    0    0    0 -0.00000000000E+00 -0.00000000000E+00 -0.45593999997E+02  0.45594000000E+02  0.51100000000E-03 0.  1.
    9900012    2    1    2    0    0  0.86782311618E+01 -0.29526466381E+02  0.32893609432E+02  0.46142318136E+02  0.10000003422E+02 0.  0.
        -12    1    1    2    0    0 -0.86782311618E+01  0.29526466381E+02 -0.32893609432E+02  0.45045681864E+02  0.00000000000E+00 0.  1.
         11    1    3    3    0    0  0.23026404951E+00 -0.10346365055E+02  0.14105683766E+02  0.17494873710E+02  0.51100000000E-03 0. -1.
        -11    1    3    3    0    0 -0.60243909668E+00 -0.22530643714E+01  0.12445288548E+01  0.26434984884E+01  0.51100000000E-03 0.  1.
        -12    1    3    3    0    0  0.90504062090E+01 -0.16927036955E+02  0.17543396812E+02  0.26003945938E+02  0.00000000000E+00 0.  1.
</event>
<event>
 7    1  0.2001181E-008  0.4614232E+02  0.7816164E-02  0.1320468E+00
        -11   -1    0    0    0    0  0.00000000000E+00  0.00000000000E+00  0.45593999997E+02  0.45594000000E+02  0.51100000000E-03 0.  1.
         11   -1    0    0    0    0 -0.00000000000E+00 -0.00000000000E+00 -0.45593999997E+02  0.45594000000E+02  0.51100000000E-03 0. -1.
    9900012    2    1    2    0    0  0.45007887689E+02 -0.18432248831E+01  0.77787774551E-01  0.46142317819E+02  0.10000000526E+02 0.  0.
        -12    1    1    2    0    0 -0.45007887689E+02  0.18432248831E+01 -0.77787774551E-01  0.45045682181E+02  0.00000000000E+00 0.  1.
         11    1    3    3    0    0  0.34636295314E+02 -0.90415531130E+00 -0.24892161503E+01  0.34737395515E+02  0.51100000000E-03 0. -1.
        -11    1    3    3    0    0  0.10664882429E+02 -0.11262383887E+01  0.26510318064E+01  0.11046995068E+02  0.51100000000E-03 0.  1.
         12    1    3    3    0    0 -0.29329005299E+00  0.18716881693E+00 -0.84027881542E-01  0.35792723575E+00  0.00000000000E+00 0. -1.
</event>
<event>
 7    1  0.2001181E-008  0.4614232E+02  0.7816164E-02  0.1320468E+00
        -11   -1    0    0    0    0  0.00000000000E+00  0.00000000000E+00  0.45593999997E+02  0.45594000000E+02  0.51100000000E-03 0.  1.
         11   -1    0    0    0    0 -0.00000000000E+00 -0.00000000000E+00 -0.45593999997E+02  0.45594000000E+02  0.51100000000E-03 0. -1.
    9900012    2    1    2    0    0  0.29222503206E+02  0.28610685842E+02 -0.18883521668E+02  0.46142318425E+02  0.10000006051E+02 0.  0.
        -12    1    1    2    0    0 -0.29222503206E+02 -0.28610685842E+02  0.18883521668E+02  0.45045681575E+02  0.00000000000E+00 0.  1.
         11    1    3    3    0    0  0.36425817423E+01  0.48485283747E+01 -0.34323244717E+01  0.69683197896E+01  0.51100000000E-03 0. -1.
        -11    1    3    3    0    0  0.11179701484E+02  0.57891013335E+01 -0.27987832881E+01  0.12896999948E+02  0.51100000000E-03 0.  1.
        -12    1    3    3    0    0  0.14400219980E+02  0.17973056134E+02 -0.12652413908E+02  0.26276998687E+02  0.00000000000E+00 0.  1.
</event>
<event>
 7    1  0.2001181E-008  0.4614232E+02  0.7816164E-02  0.1320468E+00
        -11   -1    0    0    0    0  0.00000000000E+00  0.00000000000E+00  0.45593999997E+02  0.45594000000E+02  0.51100000000E-03 0.  1.
         11   -1    0    0    0    0 -0.00000000000E+00 -0.00000000000E+00 -0.45593999997E+02  0.45594000000E+02  0.51100000000E-03 0. -1.
    9900012    2    1    2    0    0  0.38591630294E+01 -0.30780098750E+02 -0.32661994725E+02  0.46142317435E+02  0.99999970263E+01 0.  0.
        -12    1    1    2    0    0 -0.38591630294E+01  0.30780098750E+02  0.32661994725E+02  0.45045682565E+02  0.00000000000E+00 0.  1.
         11    1    3    3    0    0  0.25499695156E+01 -0.71221939258E+01 -0.66423758045E+01  0.10067231369E+02  0.51100000000E-03 0. -1.
        -11    1    3    3    0    0  0.41288815429E+01 -0.16266788431E+02 -0.20155756902E+02  0.26228049969E+02  0.51100000000E-03 0.  1.
         12    1    3    3    0    0 -0.28196880291E+01 -0.73911163924E+01 -0.58638620192E+01  0.98470360966E+01  0.00000000000E+00 0. -1.
</event>
<event>
 7    1  0.2001181E-008  0.4614231E+02  0.7816164E-02  0.1320468E+00
        -11   -1    0    0    0    0  0.00000000000E+00  0.00000000000E+00  0.45593999997E+02  0.45594000000E+02  0.51100000000E-03 0. -1.
         11   -1    0    0    0    0 -0.00000000000E+00 -0.00000000000E+00 -0.45593999997E+02  0.45594000000E+02  0.51100000000E-03 0.  1.
    9900012    2    1    2    0    0  0.36368551593E+02  0.23199006916E+02  0.12971055121E+02  0.46142314993E+02  0.99999747559E+01 0.  0.
        -12    1    1    2    0    0 -0.36368551593E+02 -0.23199006916E+02 -0.12971055121E+02  0.45045685007E+02  0.00000000000E+00 0.  1.
         11    1    3    3    0    0  0.20869018091E+02  0.83133987468E+01  0.51641431722E+01  0.23049878303E+02  0.51100000000E-03 0.  1.
        -11    1    3    3    0    0  0.62608226174E+01  0.48035694486E+01  0.14969753951E+01  0.80320056579E+01  0.51100000000E-03 0. -1.
        -12    1    3    3    0    0  0.92387108842E+01  0.10082038720E+02  0.63099365541E+01  0.15060431032E+02  0.00000000000E+00 0.  1.
</event>
<event>
 7    1  0.2001181E-008  0.4614232E+02  0.7816164E-02  0.1320468E+00
        -11   -1    0    0    0    0  0.00000000000E+00  0.00000000000E+00  0.45593999997E+02  0.45594000000E+02  0.51100000000E-03 0. -1.
         11   -1    0    0    0    0 -0.00000000000E+00 -0.00000000000E+00 -0.45593999997E+02  0.45594000000E+02  0.51100000000E-03 0.  1.
    9900012    2    1    2    0    0 -0.21591349712E+02  0.33478220039E+02  0.21027026613E+02  0.46142318214E+02  0.10000004134E+02 0.  0.
        -12    1    1    2    0    0  0.21591349712E+02 -0.33478220039E+02 -0.21027026613E+02  0.45045681786E+02  0.00000000000E+00 0.  1.
         11    1    3    3    0    0 -0.15286784347E+02  0.18144907722E+02  0.15532623014E+02  0.28358170425E+02  0.51100000000E-03 0.  1.
        -11    1    3    3    0    0 -0.56747829661E+01  0.11359696889E+02  0.52889710301E+01  0.13755693001E+02  0.51100000000E-03 0. -1.
        -12    1    3    3    0    0 -0.62978239892E+00  0.39736154283E+01  0.20543256868E+00  0.40284547884E+01  0.00000000000E+00 0.  1.
</event>
<event>
 7    1  0.2001181E-008  0.4614232E+02  0.7816164E-02  0.1320468E+00
        -11   -1    0    0    0    0  0.00000000000E+00  0.00000000000E+00  0.45593999997E+02  0.45594000000E+02  0.51100000000E-03 0.  1.
         11   -1    0    0    0    0 -0.00000000000E+00 -0.00000000000E+00 -0.45593999997E+02  0.45594000000E+02  0.51100000000E-03 0. -1.
    9900012    2    1    2    0    0  0.93865191347E+00  0.26573997818E+02 -0.36360075409E+02  0.46142317507E+02  0.99999976859E+01 0.  0.
        -12    1    1    2    0    0 -0.93865191347E+00 -0.26573997818E+02  0.36360075409E+02  0.45045682493E+02  0.00000000000E+00 0.  1.
         11    1    3    3    0    0  0.72741755886E+00  0.64800040252E+01 -0.14020554084E+02  0.15462714043E+02  0.51100000000E-03 0. -1.
        -11    1    3    3    0    0 -0.27739060477E+00 -0.11578309359E-02  0.29701380149E+00  0.40640416777E+00  0.51100000000E-03 0.  1.
        -12    1    3    3    0    0  0.48862495938E+00  0.20095151624E+02 -0.22636535127E+02  0.30273199297E+02  0.00000000000E+00 0.  1.
</event>
<event>
 7    1  0.2001181E-008  0.4614232E+02  0.7816164E-02  0.1320468E+00
        -11   -1    0    0    0    0  0.00000000000E+00  0.00000000000E+00  0.45593999997E+02  0.45594000000E+02  0.51100000000E-03 0.  1.
         11   -1    0    0    0    0 -0.00000000000E+00 -0.00000000000E+00 -0.45593999997E+02  0.45594000000E+02  0.51100000000E-03 0. -1.
    9900012    2    1    2    0    0 -0.18404254744E+02  0.14181604266E+02 -0.38591179343E+02  0.46142316351E+02  0.99999871451E+01 0.  0.
        -12    1    1    2    0    0  0.18404254744E+02 -0.14181604266E+02  0.38591179343E+02  0.45045683649E+02  0.00000000000E+00 0.  1.
         11    1    3    3    0    0 -0.71926867474E+01  0.37716941894E+01 -0.76979511080E+01  0.11190123825E+02  0.51100000000E-03 0. -1.
        -11    1    3    3    0    0 -0.10542931662E+02  0.10297393924E+02 -0.25003168353E+02  0.29023234789E+02  0.51100000000E-03 0.  1.
        -12    1    3    3    0    0 -0.66863633505E+00  0.11251615281E+00 -0.58900598822E+01  0.59289577371E+01  0.00000000000E+00 0.  1.
</event>
<event>
 7    1  0.2001181E-008  0.4614232E+02  0.7816164E-02  0.1320468E+00
        -11   -1    0    0    0    0  0.00000000000E+00  0.00000000000E+00  0.45593999997E+02  0.45594000000E+02  0.51100000000E-03 0.  1.
         11   -1    0    0    0    0 -0.00000000000E+00 -0.00000000000E+00 -0.45593999997E+02  0.45594000000E+02  0.51100000000E-03 0. -1.
    9900012    2    1    2    0    0 -0.30507870795E+02 -0.27917425487E+02 -0.17860586868E+02  0.46142318858E+02  0.10000010004E+02 0.  0.
        -12    1    1    2    0    0  0.30507870795E+02  0.27917425487E+02  0.17860586868E+02  0.45045681142E+02  0.00000000000E+00 0.  1.
         11    1    3    3    0    0 -0.36676936724E+01 -0.60694337405E+01 -0.15071935873E+01  0.72499403843E+01  0.51100000000E-03 0. -1.
        -11    1    3    3    0    0 -0.21089513140E+02 -0.13645521987E+02 -0.10039206616E+02  0.27050942766E+02  0.51100000000E-03 0.  1.
        -12    1    3    3    0    0 -0.57506639827E+01 -0.82024697600E+01 -0.63141866643E+01  0.11841435708E+02  0.00000000000E+00 0.  1.
</event>
<event>
 7    1  0.2001181E-008  0.4614232E+02  0.7816164E-02  0.1320468E+00
        -11   -1    0    0    0    0  0.00000000000E+00  0.00000000000E+00  0.45593999997E+02  0.45594000000E+02  0.51100000000E-03 0.  1.
         11   -1    0    0    0    0 -0.00000000000E+00 -0.00000000000E+00 -0.45593999997E+02  0.45594000000E+02  0.51100000000E-03 0. -1.
    9900012    2    1    2    0    0  0.20983515851E+02 -0.18935043399E+02 -0.35075199724E+02  0.46142318280E+02  0.10000004728E+02 0.  0.
        -12    1    1    2    0    0 -0.20983515851E+02  0.18935043399E+02  0.35075199724E+02  0.45045681720E+02  0.00000000000E+00 0.  1.
         11    1    3    3    0    0  0.36609424834E+01 -0.24525369422E+01 -0.75677834972E+01  0.87572132920E+01  0.51100000000E-03 0. -1.
        -11    1    3    3    0    0  0.34901657523E+01 -0.13663467579E+01 -0.99527577604E+00  0.38779807340E+01  0.51100000000E-03 0.  1.
         12    1    3    3    0    0  0.13832407615E+02 -0.15116159699E+02 -0.26512140451E+02  0.33507124254E+02  0.00000000000E+00 0. -1.
</event>
<event>
 7    1  0.2001181E-008  0.4614232E+02  0.7816164E-02  0.1320468E+00
        -11   -1    0    0    0    0  0.00000000000E+00  0.00000000000E+00  0.45593999997E+02  0.45594000000E+02  0.51100000000E-03 0.  1.
         11   -1    0    0    0    0 -0.00000000000E+00 -0.00000000000E+00 -0.45593999997E+02  0.45594000000E+02  0.51100000000E-03 0. -1.
    9900012    2    1    2    0    0  0.13847993652E+02  0.36438133172E+02 -0.22574522121E+02  0.46142317341E+02  0.99999961671E+01 0.  0.
        -12    1    1    2    0    0 -0.13847993652E+02 -0.36438133172E+02  0.22574522121E+02  0.45045682659E+02  0.00000000000E+00 0.  1.
         11    1    3    3    0    0  0.69604078190E+01  0.74565511781E+01 -0.70882334058E+01  0.12421372128E+02  0.51100000000E-03 0. -1.
        -11    1    3    3    0    0  0.26961498664E+01  0.75221904975E+01 -0.29552662165E+01  0.85197519127E+01  0.51100000000E-03 0.  1.
         12    1    3    3    0    0  0.41914359663E+01  0.21459391497E+02 -0.12531022499E+02  0.25201193300E+02  0.00000000000E+00 0. -1.
</event>
<event>
 7    1  0.2001181E-008  0.4614232E+02  0.7816164E-02  0.1320468E+00
        -11   -1    0    0    0    0  0.00000000000E+00  0.00000000000E+00  0.45593999997E+02  0.45594000000E+02  0.51100000000E-03 0.  1.
         11   -1    0    0    0    0 -0.00000000000E+00 -0.00000000000E+00 -0.45593999997E+02  0.45594000000E+02  0.51100000000E-03 0. -1.
    9900012    2    1    2    0    0 -0.57656707837E+01 -0.44674754126E+02  0.19210221474E+00  0.46142317420E+02  0.99999968938E+01 0.  0.
        -12    1    1    2    0    0  0.57656707837E+01  0.44674754126E+02 -0.19210221474E+00  0.45045682580E+02  0.00000000000E+00 0.  1.
         11    1    3    3    0    0 -0.41011720070E+01 -0.84567485374E+01 -0.24524987630E+01  0.97134421344E+01  0.51100000000E-03 0. -1.
        -11    1    3    3    0    0  0.21576333327E+00 -0.26081410057E+01  0.70637019195E+00  0.27107033092E+01  0.51100000000E-03 0.  1.
         12    1    3    3    0    0 -0.18802621100E+01 -0.33609864583E+02  0.19382307858E+01  0.33718171977E+02  0.00000000000E+00 0. -1.
</event>
<event>
 7    1  0.2001181E-008  0.4614232E+02  0.7816164E-02  0.1320468E+00
        -11   -1    0    0    0    0  0.00000000000E+00  0.00000000000E+00  0.45593999997E+02  0.45594000000E+02  0.51100000000E-03 0.  1.
         11   -1    0    0    0    0 -0.00000000000E+00 -0.00000000000E+00 -0.45593999997E+02  0.45594000000E+02  0.51100000000E-03 0. -1.
    9900012    2    1    2    0    0 -0.12706549148E+02  0.39032612748E+02 -0.18550264068E+02  0.46142317120E+02  0.99999941502E+01 0.  0.
        -12    1    1    2    0    0  0.12706549148E+02 -0.39032612748E+02  0.18550264068E+02  0.45045682880E+02  0.00000000000E+00 0.  1.
         11    1    3    3    0    0 -0.74075089866E+01  0.15873449627E+02 -0.84355148494E+01  0.19442106457E+02  0.51100000000E-03 0. -1.
        -11    1    3    3    0    0 -0.59805777975E+01  0.22872023300E+02 -0.10498219652E+02  0.25867148601E+02  0.51100000000E-03 0.  1.
         12    1    3    3    0    0  0.68153763578E+00  0.28713982100E+00  0.38347043327E+00  0.83306206190E+00  0.00000000000E+00 0. -1.
</event>
<event>
 7    1  0.2001181E-008  0.4614232E+02  0.7816164E-02  0.1320468E+00
        -11   -1    0    0    0    0  0.00000000000E+00  0.00000000000E+00  0.45593999997E+02  0.45594000000E+02  0.51100000000E-03 0. -1.
         11   -1    0    0    0    0 -0.00000000000E+00 -0.00000000000E+00 -0.45593999997E+02  0.45594000000E+02  0.51100000000E-03 0.  1.
    9900012    2    1    2    0    0 -0.33836474170E+02 -0.29718271030E+02  0.10153280515E+01  0.46142317540E+02  0.99999979796E+01 0.  0.
        -12    1    1    2    0    0  0.33836474170E+02  0.29718271030E+02 -0.10153280515E+01  0.45045682460E+02  0.00000000000E+00 0.  1.
         11    1    3    3    0    0 -0.24199553088E+02 -0.25048197385E+02 -0.62688524825E+00  0.34834229535E+02  0.51100000000E-03 0. -1.
        -11    1    3    3    0    0 -0.24133876862E+01 -0.22654872168E+01  0.16416473275E+01  0.36948448766E+01  0.51100000000E-03 0.  1.
        -12    1    3    3    0    0 -0.72235333953E+01 -0.24045864283E+01  0.56597224733E-03  0.76132431279E+01  0.00000000000E+00 0.  1.
</event>
<event>
 7    1  0.2001181E-008  0.4614232E+02  0.7816164E-02  0.1320468E+00
        -11   -1    0    0    0    0  0.00000000000E+00  0.00000000000E+00  0.45593999997E+02  0.45594000000E+02  0.51100000000E-03 0.  1.
         11   -1    0    0    0    0 -0.00000000000E+00 -0.00000000000E+00 -0.45593999997E+02  0.45594000000E+02  0.51100000000E-03 0. -1.
    9900012    2    1    2    0    0 -0.95648728201E+01  0.17106144102E+02 -0.40558679819E+02  0.46142318001E+02  0.10000002187E+02 0.  0.
        -12    1    1    2    0    0  0.95648728201E+01 -0.17106144102E+02  0.40558679819E+02  0.45045681999E+02  0.00000000000E+00 0.  1.
         11    1    3    3    0    0 -0.52781997561E+01  0.12491437151E+02 -0.29890484737E+02  0.32822804159E+02  0.51100000000E-03 0. -1.
        -11    1    3    3    0    0 -0.36367077055E+01  0.22817889824E+01 -0.98803562283E+01  0.10772819657E+02  0.51100000000E-03 0.  1.
        -12    1    3    3    0    0 -0.64996535848E+00  0.23329179688E+01 -0.78783885370E+00  0.25466941857E+01  0.00000000000E+00 0.  1.
</event>
<event>
 7    1  0.2001181E-008  0.4614232E+02  0.7816164E-02  0.1320468E+00
        -11   -1    0    0    0    0  0.00000000000E+00  0.00000000000E+00  0.45593999997E+02  0.45594000000E+02  0.51100000000E-03 0.  1.
         11   -1    0    0    0    0 -0.00000000000E+00 -0.00000000000E+00 -0.45593999997E+02  0.45594000000E+02  0.51100000000E-03 0. -1.
    9900012    2    1    2    0    0 -0.12644097706E+02 -0.39382498835E+02 -0.17839816680E+02  0.46142317849E+02  0.10000000800E+02 0.  0.
        -12    1    1    2    0    0  0.12644097706E+02  0.39382498835E+02  0.17839816680E+02  0.45045682151E+02  0.00000000000E+00 0.  1.
         11    1    3    3    0    0 -0.28140027044E+01 -0.10472104181E+02 -0.18164870746E+01  0.10994689752E+02  0.51100000000E-03 0. -1.
        -11    1    3    3    0    0 -0.36035697331E+01 -0.18588097507E+02 -0.12100590558E+02  0.22470589130E+02  0.51100000000E-03 0.  1.
         12    1    3    3    0    0 -0.62265252689E+01 -0.10322297147E+02 -0.39227390472E+01  0.12677038966E+02  0.00000000000E+00 0. -1.
</event>
<event>
 7    1  0.2001181E-008  0.4614232E+02  0.7816164E-02  0.1320468E+00
        -11   -1    0    0    0    0  0.00000000000E+00  0.00000000000E+00  0.45593999997E+02  0.45594000000E+02  0.51100000000E-03 0. -1.
         11   -1    0    0    0    0 -0.00000000000E+00 -0.00000000000E+00 -0.45593999997E+02  0.45594000000E+02  0.51100000000E-03 0.  1.
    9900012    2    1    2    0    0  0.84129930432E+01  0.44145702746E+02  0.30809222768E+01  0.46142316467E+02  0.99999882017E+01 0.  0.
        -12    1    1    2    0    0 -0.84129930432E+01 -0.44145702746E+02 -0.30809222768E+01  0.45045683533E+02  0.00000000000E+00 0.  1.
         11    1    3    3    0    0  0.32266029665E+01  0.68800740329E+01  0.32084483373E+01  0.82486681589E+01  0.51100000000E-03 0. -1.
        -11    1    3    3    0    0  0.12313206259E+01  0.48923438243E+01 -0.14616363490E+01  0.52523860918E+01  0.51100000000E-03 0.  1.
        -12    1    3    3    0    0  0.39550694508E+01  0.32373284888E+02  0.13341102886E+01  0.32641262217E+02  0.00000000000E+00 0.  1.
</event>
<event>
 7    1  0.2001181E-008  0.4614232E+02  0.7816164E-02  0.1320468E+00
        -11   -1    0    0    0    0  0.00000000000E+00  0.00000000000E+00  0.45593999997E+02  0.45594000000E+02  0.51100000000E-03 0.  1.
         11   -1    0    0    0    0 -0.00000000000E+00 -0.00000000000E+00 -0.45593999997E+02  0.45594000000E+02  0.51100000000E-03 0. -1.
    9900012    2    1    2    0    0  0.42581411823E+02 -0.75572159596E+01  0.12602593038E+02  0.46142317663E+02  0.99999991034E+01 0.  0.
        -12    1    1    2    0    0 -0.42581411823E+02  0.75572159596E+01 -0.12602593038E+02  0.45045682337E+02  0.00000000000E+00 0.  1.
         11    1    3    3    0    0  0.35896034163E+02 -0.41366352359E+01  0.10223348312E+02  0.37552015534E+02  0.51100000000E-03 0. -1.
        -11    1    3    3    0    0  0.15136110830E+01 -0.71615575293E+00  0.21824265712E+01  0.27507968978E+01  0.51100000000E-03 0.  1.
        -12    1    3    3    0    0  0.51717665777E+01 -0.27044249707E+01  0.19681815460E+00  0.58395052310E+01  0.00000000000E+00 0.  1.
</event>
<event>
 7    1  0.2001181E-008  0.4614232E+02  0.7816164E-02  0.1320468E+00
        -11   -1    0    0    0    0  0.00000000000E+00  0.00000000000E+00  0.45593999997E+02  0.45594000000E+02  0.51100000000E-03 0.  1.
         11   -1    0    0    0    0 -0.00000000000E+00 -0.00000000000E+00 -0.45593999997E+02  0.45594000000E+02  0.51100000000E-03 0. -1.
    9900012    2    1    2    0    0  0.21515014660E+02  0.12895286976E+02 -0.37415626125E+02  0.46142319182E+02  0.10000012961E+02 0.  0.
        -12    1    1    2    0    0 -0.21515014660E+02 -0.12895286976E+02  0.37415626125E+02  0.45045680818E+02  0.00000000000E+00 0.  1.
         11    1    3    3    0    0  0.18523185891E+02  0.80152396226E+01 -0.25788909745E+02  0.32747829667E+02  0.51100000000E-03 0. -1.
        -11    1    3    3    0    0  0.29075798895E+01  0.39245182181E+01 -0.62460983498E+01  0.79290358124E+01  0.51100000000E-03 0.  1.
         12    1    3    3    0    0  0.84248879305E-01  0.95552913526E+00 -0.53806180298E+01  0.54654537035E+01  0.00000000000E+00 0. -1.
</event>
<event>
 7    1  0.2001181E-008  0.4614232E+02  0.7816164E-02  0.1320468E+00
        -11   -1    0    0    0    0  0.00000000000E+00  0.00000000000E+00  0.45593999997E+02  0.45594000000E+02  0.51100000000E-03 0.  1.
         11   -1    0    0    0    0 -0.00000000000E+00 -0.00000000000E+00 -0.45593999997E+02  0.45594000000E+02  0.51100000000E-03 0. -1.
    9900012    2    1    2    0    0  0.21981044472E+02 -0.13546979200E+02 -0.36911062498E+02  0.46142317673E+02  0.99999992009E+01 0.  0.
        -12    1    1    2    0    0 -0.21981044472E+02  0.13546979200E+02  0.36911062498E+02  0.45045682327E+02  0.00000000000E+00 0.  1.
         11    1    3    3    0    0  0.11819990753E+02 -0.53562656954E+01 -0.18235856034E+02  0.22381872334E+02  0.51100000000E-03 0. -1.
        -11    1    3    3    0    0  0.11022408523E+01 -0.18852659177E+01 -0.84048833095E+01  0.86839637369E+01  0.51100000000E-03 0.  1.
         12    1    3    3    0    0  0.90588128671E+01 -0.63054475866E+01 -0.10270323154E+02  0.15076481603E+02  0.00000000000E+00 0. -1.
</event>
<event>
 7    1  0.2001181E-008  0.4614232E+02  0.7816164E-02  0.1320468E+00
        -11   -1    0    0    0    0  0.00000000000E+00  0.00000000000E+00  0.45593999997E+02  0.45594000000E+02  0.51100000000E-03 0.  1.
         11   -1    0    0    0    0 -0.00000000000E+00 -0.00000000000E+00 -0.45593999997E+02  0.45594000000E+02  0.51100000000E-03 0. -1.
    9900012    2    1    2    0    0  0.83431462378E+01 -0.42811425717E+02 -0.11255540344E+02  0.46142318192E+02  0.10000003932E+02 0.  0.
        -12    1    1    2    0    0 -0.83431462378E+01  0.42811425717E+02  0.11255540344E+02  0.45045681808E+02  0.00000000000E+00 0.  1.
         11    1    3    3    0    0  0.66961330148E+01 -0.24409223738E+02 -0.25132027620E+01  0.25435498604E+02  0.51100000000E-03 0. -1.
        -11    1    3    3    0    0  0.19560055222E+00 -0.10361682227E+02 -0.32471942881E+01  0.10860340195E+02  0.51100000000E-03 0.  1.
         12    1    3    3    0    0  0.14514126708E+01 -0.80405197526E+01 -0.54951432934E+01  0.98464793935E+01  0.00000000000E+00 0. -1.
</event>
<event>
 7    1  0.2001181E-008  0.4614232E+02  0.7816164E-02  0.1320468E+00
        -11   -1    0    0    0    0  0.00000000000E+00  0.00000000000E+00  0.45593999997E+02  0.45594000000E+02  0.51100000000E-03 0.  1.
         11   -1    0    0    0    0 -0.00000000000E+00 -0.00000000000E+00 -0.45593999997E+02  0.45594000000E+02  0.51100000000E-03 0. -1.
    9900012    2    1    2    0    0 -0.14288225361E+02 -0.26580911737E+02 -0.33442715791E+02  0.46142317719E+02  0.99999996123E+01 0.  0.
        -12    1    1    2    0    0  0.14288225361E+02  0.26580911737E+02  0.33442715791E+02  0.45045682281E+02  0.00000000000E+00 0.  1.
         11    1    3    3    0    0 -0.11194928007E+02 -0.11895479521E+02 -0.16496031741E+02  0.23215251659E+02  0.51100000000E-03 0. -1.
        -11    1    3    3    0    0  0.83931255112E+00 -0.24414015037E+01 -0.28975761405E+01  0.38808291140E+01  0.51100000000E-03 0.  1.
         12    1    3    3    0    0 -0.39326099043E+01 -0.12244030712E+02 -0.14049107910E+02  0.19046236946E+02  0.00000000000E+00 0. -1.
</event>
<event>
 7    1  0.2001181E-008  0.4614232E+02  0.7816164E-02  0.1320468E+00
        -11   -1    0    0    0    0  0.00000000000E+00  0.00000000000E+00  0.45593999997E+02  0.45594000000E+02  0.51100000000E-03 0. -1.
         11   -1    0    0    0    0 -0.00000000000E+00 -0.00000000000E+00 -0.45593999997E+02  0.45594000000E+02  0.51100000000E-03 0.  1.
    9900012    2    1    2    0    0  0.21362201327E+01  0.32931517716E+02  0.30660482642E+02  0.46142317728E+02  0.99999996956E+01 0.  0.
        -12    1    1    2    0    0 -0.21362201327E+01 -0.32931517716E+02 -0.30660482642E+02  0.45045682272E+02  0.00000000000E+00 0.  1.
         11    1    3    3    0    0  0.32392642108E+01  0.17090190805E+02  0.20298156413E+02  0.26731677994E+02  0.51100000000E-03 0.  1.
        -11    1    3    3    0    0  0.11529547017E+01  0.37368715031E+01  0.38233135780E+01  0.54691169444E+01  0.51100000000E-03 0. -1.
        -12    1    3    3    0    0 -0.22559987798E+01  0.12104455409E+02  0.65390126509E+01  0.13941522789E+02  0.00000000000E+00 0.  1.
</event>
<event>
 7    1  0.2001181E-008  0.4614232E+02  0.7816164E-02  0.1320468E+00
        -11   -1    0    0    0    0  0.00000000000E+00  0.00000000000E+00  0.45593999997E+02  0.45594000000E+02  0.51100000000E-03 0.  1.
         11   -1    0    0    0    0 -0.00000000000E+00 -0.00000000000E+00 -0.45593999997E+02  0.45594000000E+02  0.51100000000E-03 0. -1.
    9900012    2    1    2    0    0  0.42325112602E+02 -0.20899935868E+01 -0.15275152277E+02  0.46142317554E+02  0.99999981110E+01 0.  0.
        -12    1    1    2    0    0 -0.42325112602E+02  0.20899935868E+01  0.15275152277E+02  0.45045682446E+02  0.00000000000E+00 0.  1.
         11    1    3    3    0    0  0.12673641314E+02 -0.23980286784E+01 -0.38438557444E+01  0.13459084402E+02  0.51100000000E-03 0. -1.
        -11    1    3    3    0    0  0.27250249621E+02  0.53084280036E+00 -0.78457958146E+01  0.28362200385E+02  0.51100000000E-03 0.  1.
        -12    1    3    3    0    0  0.24012216672E+01 -0.22280770871E+00 -0.35855007185E+01  0.43210327668E+01  0.00000000000E+00 0.  1.
</event>
<event>
 7    1  0.2001181E-008  0.4614232E+02  0.7816164E-02  0.1320468E+00
        -11   -1    0    0    0    0  0.00000000000E+00  0.00000000000E+00  0.45593999997E+02  0.45594000000E+02  0.51100000000E-03 0.  1.
         11   -1    0    0    0    0 -0.00000000000E+00 -0.00000000000E+00 -0.45593999997E+02  0.45594000000E+02  0.51100000000E-03 0. -1.
    9900012    2    1    2    0    0 -0.43216203313E+02  0.10508201554E+02 -0.71449967175E+01  0.46142317557E+02  0.99999981402E+01 0.  0.
        -12    1    1    2    0    0  0.43216203313E+02 -0.10508201554E+02  0.71449967175E+01  0.45045682443E+02  0.00000000000E+00 0.  1.
         11    1    3    3    0    0 -0.21137808019E+02  0.24830063001E+01 -0.74199051670E-01  0.21283274040E+02  0.51100000000E-03 0. -1.
        -11    1    3    3    0    0 -0.69700719109E+01  0.83843415186E+00 -0.30371353837E+01  0.76491219020E+01  0.51100000000E-03 0.  1.
        -12    1    3    3    0    0 -0.15108323383E+02  0.71867611020E+01 -0.40336622821E+01  0.17209921615E+02  0.00000000000E+00 0.  1.
</event>
<event>
 7    1  0.2001181E-008  0.4614232E+02  0.7816164E-02  0.1320468E+00
        -11   -1    0    0    0    0  0.00000000000E+00  0.00000000000E+00  0.45593999997E+02  0.45594000000E+02  0.51100000000E-03 0.  1.
         11   -1    0    0    0    0 -0.00000000000E+00 -0.00000000000E+00 -0.45593999997E+02  0.45594000000E+02  0.51100000000E-03 0. -1.
    9900012    2    1    2    0    0 -0.29092705622E+02  0.76362132773E+01 -0.33532316620E+02  0.46142317282E+02  0.99999956330E+01 0.  0.
        -12    1    1    2    0    0  0.29092705622E+02 -0.76362132773E+01  0.33532316620E+02  0.45045682718E+02  0.00000000000E+00 0.  1.
         11    1    3    3    0    0 -0.19352124985E+02  0.66414771881E+01 -0.16640467380E+02  0.26372696403E+02  0.51100000000E-03 0. -1.
        -11    1    3    3    0    0  0.38254178775E-01  0.47546187845E+00 -0.86685063517E+00  0.98942289485E+00  0.51100000000E-03 0.  1.
         12    1    3    3    0    0 -0.97788348159E+01  0.51927421072E+00 -0.16024998604E+02  0.18780197984E+02  0.00000000000E+00 0. -1.
</event>
<event>
 7    1  0.2001181E-008  0.4614232E+02  0.7816164E-02  0.1320468E+00
        -11   -1    0    0    0    0  0.00000000000E+00  0.00000000000E+00  0.45593999997E+02  0.45594000000E+02  0.51100000000E-03 0.  1.
         11   -1    0    0    0    0 -0.00000000000E+00 -0.00000000000E+00 -0.45593999997E+02  0.45594000000E+02  0.51100000000E-03 0. -1.
    9900012    2    1    2    0    0  0.17410370626E+02  0.19907276524E+02 -0.36464953042E+02  0.46142318028E+02  0.10000002435E+02 0.  0.
        -12    1    1    2    0    0 -0.17410370626E+02 -0.19907276524E+02  0.36464953042E+02  0.45045681972E+02  0.00000000000E+00 0.  1.
         11    1    3    3    0    0  0.91585826795E+01  0.11672443738E+02 -0.20419652509E+02  0.25240598019E+02  0.51100000000E-03 0. -1.
        -11    1    3    3    0    0 -0.10806847262E+01  0.13975486369E+01 -0.28480619601E+01  0.33514890511E+01  0.51100000000E-03 0.  1.
        -12    1    3    3    0    0  0.93324726729E+01  0.68372841496E+01 -0.13197238573E+02  0.17550230958E+02  0.00000000000E+00 0.  1.
</event>
<event>
 7    1  0.2001181E-008  0.4614232E+02  0.7816164E-02  0.1320468E+00
        -11   -1    0    0    0    0  0.00000000000E+00  0.00000000000E+00  0.45593999997E+02  0.45594000000E+02  0.51100000000E-03 0.  1.
         11   -1    0    0    0    0 -0.00000000000E+00 -0.00000000000E+00 -0.45593999997E+02  0.45594000000E+02  0.51100000000E-03 0. -1.
    9900012    2    1    2    0    0 -0.62036039682E+01 -0.22534222506E+02 -0.38507630404E+02  0.46142317793E+02  0.10000000293E+02 0.  0.
        -12    1    1    2    0    0  0.62036039682E+01  0.22534222506E+02  0.38507630404E+02  0.45045682207E+02  0.00000000000E+00 0.  1.
         11    1    3    3    0    0 -0.47755726097E+01 -0.18609019591E+02 -0.31012150470E+02  0.36480887886E+02  0.51100000000E-03 0. -1.
        -11    1    3    3    0    0 -0.28157172779E+01 -0.18204998055E+01 -0.29609046515E+01  0.44731912487E+01  0.51100000000E-03 0.  1.
         12    1    3    3    0    0  0.13876859194E+01 -0.21047031093E+01 -0.45345752824E+01  0.51882386588E+01  0.00000000000E+00 0. -1.
</event>
<event>
 7    1  0.2001181E-008  0.4614232E+02  0.7816164E-02  0.1320468E+00
        -11   -1    0    0    0    0  0.00000000000E+00  0.00000000000E+00  0.45593999997E+02  0.45594000000E+02  0.51100000000E-03 0.  1.
         11   -1    0    0    0    0 -0.00000000000E+00 -0.00000000000E+00 -0.45593999997E+02  0.45594000000E+02  0.51100000000E-03 0. -1.
    9900012    2    1    2    0    0  0.30089611196E+02 -0.33092406440E+02  0.53498988948E+01  0.46142317809E+02  0.10000000437E+02 0.  0.
        -12    1    1    2    0    0 -0.30089611196E+02  0.33092406440E+02 -0.53498988948E+01  0.45045682191E+02  0.00000000000E+00 0.  1.
         11    1    3    3    0    0  0.18350888004E+02 -0.16229857882E+02  0.29356876967E+01  0.24673500763E+02  0.51100000000E-03 0. -1.
        -11    1    3    3    0    0  0.12204814112E+02 -0.16916331498E+02  0.24212814772E+01  0.20999580070E+02  0.51100000000E-03 0.  1.
        -12    1    3    3    0    0 -0.46609092036E+00  0.53782940198E-01 -0.70702791126E-02  0.46923697590E+00  0.00000000000E+00 0.  1.
</event>
<event>
 7    1  0.2001181E-008  0.4614232E+02  0.7816164E-02  0.1320468E+00
        -11   -1    0    0    0    0  0.00000000000E+00  0.00000000000E+00  0.45593999997E+02  0.45594000000E+02  0.51100000000E-03 0.  1.
         11   -1    0    0    0    0 -0.00000000000E+00 -0.00000000000E+00 -0.45593999997E+02  0.45594000000E+02  0.51100000000E-03 0. -1.
    9900012    2    1    2    0    0 -0.20229201697E+02 -0.15404206542E+01 -0.40218403745E+02  0.46142317667E+02  0.99999991405E+01 0.  0.
        -12    1    1    2    0    0  0.20229201697E+02  0.15404206542E+01  0.40218403745E+02  0.45045682333E+02  0.00000000000E+00 0.  1.
         11    1    3    3    0    0 -0.74421697056E+01 -0.13235725693E+01 -0.18149765041E+02  0.19660918229E+02  0.51100000000E-03 0. -1.
        -11    1    3    3    0    0 -0.24826121529E+01 -0.53035051362E+00 -0.11268088517E+02  0.11550517471E+02  0.51100000000E-03 0.  1.
        -12    1    3    3    0    0 -0.10304419839E+02  0.31350242862E+00 -0.10800550186E+02  0.14930881967E+02  0.00000000000E+00 0.  1.
</event>
<event>
 7    1  0.2001181E-008  0.4614232E+02  0.7816164E-02  0.1320468E+00
        -11   -1    0    0    0    0  0.00000000000E+00  0.00000000000E+00  0.45593999997E+02  0.45594000000E+02  0.51100000000E-03 0.  1.
         11   -1    0    0    0    0 -0.00000000000E+00 -0.00000000000E+00 -0.45593999997E+02  0.45594000000E+02  0.51100000000E-03 0. -1.
    9900012    2    1    2    0    0 -0.27279987807E+01  0.34164923696E+02 -0.29230621737E+02  0.46142320566E+02  0.10000025579E+02 0.  0.
        -12    1    1    2    0    0  0.27279987807E+01 -0.34164923696E+02  0.29230621737E+02  0.45045679434E+02  0.00000000000E+00 0.  1.
         11    1    3    3    0    0 -0.26642522396E+01  0.11638468878E+02 -0.82380863842E+01  0.14505801094E+02  0.51100000000E-03 0. -1.
        -11    1    3    3    0    0  0.30404612362E+01  0.51459475685E+01 -0.60791160036E+01  0.85253054228E+01  0.51100000000E-03 0.  1.
        -12    1    3    3    0    0 -0.31042077773E+01  0.17380507249E+02 -0.14913419350E+02  0.23111214050E+02  0.00000000000E+00 0.  1.
</event>
<event>
 7    1  0.2001181E-008  0.4614232E+02  0.7816164E-02  0.1320468E+00
        -11   -1    0    0    0    0  0.00000000000E+00  0.00000000000E+00  0.45593999997E+02  0.45594000000E+02  0.51100000000E-03 0. -1.
         11   -1    0    0    0    0 -0.00000000000E+00 -0.00000000000E+00 -0.45593999997E+02  0.45594000000E+02  0.51100000000E-03 0.  1.
    9900012    2    1    2    0    0  0.39851877273E+02 -0.56182293599E+01  0.20233065044E+02  0.46142317139E+02  0.99999943300E+01 0.  0.
        -12    1    1    2    0    0 -0.39851877273E+02  0.56182293599E+01 -0.20233065044E+02  0.45045682861E+02  0.00000000000E+00 0.  1.
         11    1    3    3    0    0  0.13248396946E+02 -0.26910858030E+01  0.73199501538E+01  0.15373471792E+02  0.51100000000E-03 0. -1.
        -11    1    3    3    0    0  0.16330257446E+02 -0.34237984331E+00  0.11730415752E+02  0.20109629190E+02  0.51100000000E-03 0.  1.
        -12    1    3    3    0    0  0.10273222882E+02 -0.25847637135E+01  0.11826991385E+01  0.10659216157E+02  0.00000000000E+00 0.  1.
</event>
<event>
 7    1  0.2001181E-008  0.4614232E+02  0.7816164E-02  0.1320468E+00
        -11   -1    0    0    0    0  0.00000000000E+00  0.00000000000E+00  0.45593999997E+02  0.45594000000E+02  0.51100000000E-03 0. -1.
         11   -1    0    0    0    0 -0.00000000000E+00 -0.00000000000E+00 -0.45593999997E+02  0.45594000000E+02  0.51100000000E-03 0.  1.
    9900012    2    1    2    0    0  0.44428721557E+02  0.44054772892E+01  0.59828085252E+01  0.46142317331E+02  0.99999960738E+01 0.  0.
        -12    1    1    2    0    0 -0.44428721557E+02 -0.44054772892E+01 -0.59828085252E+01  0.45045682669E+02  0.00000000000E+00 0.  1.
         11    1    3    3    0    0  0.22477193500E+02  0.17356596143E+01  0.34145813414E+01  0.22801230404E+02  0.51100000000E-03 0. -1.
        -11    1    3    3    0    0  0.89113145461E+01  0.28553470478E+01  0.40874661930E+01  0.10211361997E+02  0.51100000000E-03 0.  1.
        -12    1    3    3    0    0  0.13040213510E+02 -0.18552937278E+00 -0.15192390092E+01  0.13129724929E+02  0.00000000000E+00 0.  1.
</event>
<event>
 7    1  0.2001181E-008  0.4614232E+02  0.7816164E-02  0.1320468E+00
        -11   -1    0    0    0    0  0.00000000000E+00  0.00000000000E+00  0.45593999997E+02  0.45594000000E+02  0.51100000000E-03 0. -1.
         11   -1    0    0    0    0 -0.00000000000E+00 -0.00000000000E+00 -0.45593999997E+02  0.45594000000E+02  0.51100000000E-03 0.  1.
    9900012    2    1    2    0    0 -0.34779893312E+02  0.61626044646E+01  0.27955220196E+02  0.46142323084E+02  0.10000048541E+02 0.  0.
        -12    1    1    2    0    0  0.34779893312E+02 -0.61626044646E+01 -0.27955220196E+02  0.45045676916E+02  0.00000000000E+00 0.  1.
         11    1    3    3    0    0 -0.20771420043E+02  0.11633946477E+01  0.11647321941E+02  0.23842514263E+02  0.51100000000E-03 0. -1.
        -11    1    3    3    0    0 -0.10889777653E+02  0.28912594175E+01  0.10648169397E+02  0.15502585272E+02  0.51100000000E-03 0.  1.
        -12    1    3    3    0    0 -0.31186956159E+01  0.21079503994E+01  0.56597288583E+01  0.67972235494E+01  0.00000000000E+00 0.  1.
</event>
<event>
 7    1  0.2001181E-008  0.4614233E+02  0.7816164E-02  0.1320468E+00
        -11   -1    0    0    0    0  0.00000000000E+00  0.00000000000E+00  0.45593999997E+02  0.45594000000E+02  0.51100000000E-03 0.  1.
         11   -1    0    0    0    0 -0.00000000000E+00 -0.00000000000E+00 -0.45593999997E+02  0.45594000000E+02  0.51100000000E-03 0. -1.
    9900012    2    1    2    0    0 -0.15023831265E+02 -0.36947089251E+02 -0.20935839689E+02  0.46142331024E+02  0.10000120940E+02 0.  0.
        -12    1    1    2    0    0  0.15023831265E+02  0.36947089251E+02  0.20935839689E+02  0.45045668976E+02  0.00000000000E+00 0.  1.
         11    1    3    3    0    0 -0.82821889978E+01 -0.11486923459E+02 -0.78156752086E+01  0.16174944957E+02  0.51100000000E-03 0. -1.
        -11    1    3    3    0    0 -0.91154942028E+00 -0.36345689557E+00 -0.12777947135E+01  0.16111433368E+01  0.51100000000E-03 0.  1.
        -12    1    3    3    0    0 -0.58300928472E+01 -0.25096708897E+02 -0.11842369767E+02  0.28356242730E+02  0.00000000000E+00 0.  1.
</event>
<event>
 7    1  0.2001181E-008  0.4614232E+02  0.7816164E-02  0.1320468E+00
        -11   -1    0    0    0    0  0.00000000000E+00  0.00000000000E+00  0.45593999997E+02  0.45594000000E+02  0.51100000000E-03 0. -1.
         11   -1    0    0    0    0 -0.00000000000E+00 -0.00000000000E+00 -0.45593999997E+02  0.45594000000E+02  0.51100000000E-03 0.  1.
    9900012    2    1    2    0    0 -0.44580946353E+02 -0.58054899108E+01  0.28193828773E+01  0.46142318624E+02  0.10000007866E+02 0.  0.
        -12    1    1    2    0    0  0.44580946353E+02  0.58054899108E+01 -0.28193828773E+01  0.45045681376E+02  0.00000000000E+00 0.  1.
         11    1    3    3    0    0 -0.12819480211E+01  0.55141802109E+00  0.18992926606E+01  0.23568549880E+01  0.51100000000E-03 0.  1.
        -11    1    3    3    0    0 -0.13081883816E+02 -0.15440038657E+01 -0.29701924021E-01  0.13172718572E+02  0.51100000000E-03 0. -1.
         12    1    3    3    0    0 -0.30217114516E+02 -0.48129040662E+01  0.94979214070E+00  0.30612745064E+02  0.00000000000E+00 0. -1.
</event>
<event>
 7    1  0.2001181E-008  0.4614232E+02  0.7816164E-02  0.1320468E+00
        -11   -1    0    0    0    0  0.00000000000E+00  0.00000000000E+00  0.45593999997E+02  0.45594000000E+02  0.51100000000E-03 0. -1.
         11   -1    0    0    0    0 -0.00000000000E+00 -0.00000000000E+00 -0.45593999997E+02  0.45594000000E+02  0.51100000000E-03 0.  1.
    9900012    2    1    2    0    0 -0.73176943704E+01 -0.38874915929E+02  0.21547754735E+02  0.46142317926E+02  0.10000001504E+02 0.  0.
        -12    1    1    2    0    0  0.73176943704E+01  0.38874915929E+02 -0.21547754735E+02  0.45045682074E+02  0.00000000000E+00 0.  1.
         11    1    3    3    0    0 -0.34618966572E+01 -0.13976559729E+02  0.12317848522E+02  0.18948834867E+02  0.51100000000E-03 0. -1.
        -11    1    3    3    0    0  0.90642322928E-01 -0.69223410343E+01  0.86222597068E+00  0.69764213829E+01  0.51100000000E-03 0.  1.
         12    1    3    3    0    0 -0.39464400361E+01 -0.17976015166E+02  0.83676802420E+01  0.20217061677E+02  0.00000000000E+00 0. -1.
</event>
<event>
 7    1  0.2001181E-008  0.4614232E+02  0.7816164E-02  0.1320468E+00
        -11   -1    0    0    0    0  0.00000000000E+00  0.00000000000E+00  0.45593999997E+02  0.45594000000E+02  0.51100000000E-03 0.  1.
         11   -1    0    0    0    0 -0.00000000000E+00 -0.00000000000E+00 -0.45593999997E+02  0.45594000000E+02  0.51100000000E-03 0. -1.
    9900012    2    1    2    0    0 -0.41241999764E+02  0.14629633126E+02 -0.10685728038E+02  0.46142317703E+02  0.99999994669E+01 0.  0.
        -12    1    1    2    0    0  0.41241999764E+02 -0.14629633126E+02  0.10685728038E+02  0.45045682297E+02  0.00000000000E+00 0.  1.
         11    1    3    3    0    0 -0.11814640783E+02  0.35757308914E+01  0.11368610326E+00  0.12344412219E+02  0.51100000000E-03 0. -1.
        -11    1    3    3    0    0 -0.98678675841E+01  0.48291456338E+01 -0.93891712010E+00  0.11026197161E+02  0.51100000000E-03 0.  1.
         12    1    3    3    0    0 -0.19559491397E+02  0.62247566013E+01 -0.98604970209E+01  0.22771708323E+02  0.00000000000E+00 0. -1.
</event>
<event>
 7    1  0.2001181E-008  0.4614232E+02  0.7816164E-02  0.1320468E+00
        -11   -1    0    0    0    0  0.00000000000E+00  0.00000000000E+00  0.45593999997E+02  0.45594000000E+02  0.51100000000E-03 0. -1.
         11   -1    0    0    0    0 -0.00000000000E+00 -0.00000000000E+00 -0.45593999997E+02  0.45594000000E+02  0.51100000000E-03 0.  1.
    9900012    2    1    2    0    0  0.11112846944E+02  0.25935450429E+02  0.35113681311E+02  0.46142316840E+02  0.99999915973E+01 0.  0.
        -12    1    1    2    0    0 -0.11112846944E+02 -0.25935450429E+02 -0.35113681311E+02  0.45045683160E+02  0.00000000000E+00 0.  1.
         11    1    3    3    0    0  0.39567144177E+01  0.66787958158E+01  0.13854267936E+02  0.15880889233E+02  0.51100000000E-03 0. -1.
        -11    1    3    3    0    0 -0.20012845751E+00  0.79371804377E+01  0.92783986358E+01  0.12211779813E+02  0.51100000000E-03 0.  1.
         12    1    3    3    0    0  0.73562609839E+01  0.11319474176E+02  0.11981014739E+02  0.18049647793E+02  0.00000000000E+00 0. -1.
</event>
<event>
 7    1  0.2001181E-008  0.4614231E+02  0.7816164E-02  0.1320468E+00
        -11   -1    0    0    0    0  0.00000000000E+00  0.00000000000E+00  0.45593999997E+02  0.45594000000E+02  0.51100000000E-03 0.  1.
         11   -1    0    0    0    0 -0.00000000000E+00 -0.00000000000E+00 -0.45593999997E+02  0.45594000000E+02  0.51100000000E-03 0. -1.
    9900012    2    1    2    0    0  0.17061482952E+02 -0.17393345400E+02 -0.37887875978E+02  0.46142314182E+02  0.99999673603E+01 0.  0.
        -12    1    1    2    0    0 -0.17061482952E+02  0.17393345400E+02  0.37887875978E+02  0.45045685818E+02  0.00000000000E+00 0.  1.
         11    1    3    3    0    0  0.10184027489E+02 -0.12210812702E+02 -0.27422042176E+02  0.31698371569E+02  0.51100000000E-03 0. -1.
        -11    1    3    3    0    0  0.75708876008E+01 -0.44964847620E+01 -0.10106510668E+02  0.13404412424E+02  0.51100000000E-03 0.  1.
        -12    1    3    3    0    0 -0.69343213770E+00 -0.68604793605E+00 -0.35932313364E+00  0.10395301893E+01  0.00000000000E+00 0.  1.
</event>
<event>
 7    1  0.2001181E-008  0.4614232E+02  0.7816164E-02  0.1320468E+00
        -11   -1    0    0    0    0  0.00000000000E+00  0.00000000000E+00  0.45593999997E+02  0.45594000000E+02  0.51100000000E-03 0.  1.
         11   -1    0    0    0    0 -0.00000000000E+00 -0.00000000000E+00 -0.45593999997E+02  0.45594000000E+02  0.51100000000E-03 0. -1.
    9900012    2    1    2    0    0 -0.44231371902E+01 -0.60334084297E+01 -0.44420123477E+02  0.46142317304E+02  0.99999958277E+01 0.  0.
        -12    1    1    2    0    0  0.44231371902E+01  0.60334084297E+01  0.44420123477E+02  0.45045682696E+02  0.00000000000E+00 0.  1.
         11    1    3    3    0    0 -0.19839349564E+01 -0.21174243914E+01 -0.28463119585E+02  0.28610638943E+02  0.51100000000E-03 0. -1.
        -11    1    3    3    0    0  0.50147796480E+00  0.11137419971E+01 -0.47019275845E+01  0.48579856583E+01  0.51100000000E-03 0.  1.
         12    1    3    3    0    0 -0.29406801986E+01 -0.50297260355E+01 -0.11255076308E+02  0.12673692703E+02  0.00000000000E+00 0. -1.
</event>
<event>
 7    1  0.2001181E-008  0.4614232E+02  0.7816164E-02  0.1320468E+00
        -11   -1    0    0    0    0  0.00000000000E+00  0.00000000000E+00  0.45593999997E+02  0.45594000000E+02  0.51100000000E-03 0.  1.
         11   -1    0    0    0    0 -0.00000000000E+00 -0.00000000000E+00 -0.45593999997E+02  0.45594000000E+02  0.51100000000E-03 0. -1.
    9900012    2    1    2    0    0  0.38332033901E+02 -0.23311630968E+02  0.40418337689E+01  0.46142318947E+02  0.10000010810E+02 0.  0.
        -12    1    1    2    0    0 -0.38332033901E+02  0.23311630968E+02 -0.40418337689E+01  0.45045681053E+02  0.00000000000E+00 0.  1.
         11    1    3    3    0    0  0.33526279536E+01  0.52011376635E+00 -0.21253201813E+00  0.33993826859E+01  0.51100000000E-03 0.  1.
        -11    1    3    3    0    0  0.20017326600E+02 -0.11301435229E+02  0.15357923962E+01  0.23038542945E+02  0.51100000000E-03 0. -1.
         12    1    3    3    0    0  0.14962079347E+02 -0.12530309505E+02  0.27185733909E+01  0.19704393316E+02  0.00000000000E+00 0. -1.
</event>
<event>
 7    1  0.2001181E-008  0.4614232E+02  0.7816164E-02  0.1320468E+00
        -11   -1    0    0    0    0  0.00000000000E+00  0.00000000000E+00  0.45593999997E+02  0.45594000000E+02  0.51100000000E-03 0.  1.
         11   -1    0    0    0    0 -0.00000000000E+00 -0.00000000000E+00 -0.45593999997E+02  0.45594000000E+02  0.51100000000E-03 0. -1.
    9900012    2    1    2    0    0  0.43440719070E+02  0.20863568093E+01 -0.11733054479E+02  0.46142317349E+02  0.99999962439E+01 0.  0.
        -12    1    1    2    0    0 -0.43440719070E+02 -0.20863568093E+01  0.11733054479E+02  0.45045682651E+02  0.00000000000E+00 0.  1.
         11    1    3    3    0    0  0.25731105119E+02  0.36292478684E+01 -0.70962067655E+01  0.26937285710E+02  0.51100000000E-03 0. -1.
        -11    1    3    3    0    0  0.12456759066E+02  0.12821398584E+00 -0.78855617685E+00  0.12482351796E+02  0.51100000000E-03 0.  1.
         12    1    3    3    0    0  0.52528548856E+01 -0.16711050449E+01 -0.38482915366E+01  0.67226798430E+01  0.00000000000E+00 0. -1.
</event>
<event>
 7    1  0.2001181E-008  0.4614232E+02  0.7816164E-02  0.1320468E+00
        -11   -1    0    0    0    0  0.00000000000E+00  0.00000000000E+00  0.45593999997E+02  0.45594000000E+02  0.51100000000E-03 0. -1.
         11   -1    0    0    0    0 -0.00000000000E+00 -0.00000000000E+00 -0.45593999997E+02  0.45594000000E+02  0.51100000000E-03 0.  1.
    9900012    2    1    2    0    0  0.67284448878E+01 -0.32236030984E+02  0.30735645184E+02  0.46142317087E+02  0.99999938549E+01 0.  0.
        -12    1    1    2    0    0 -0.67284448878E+01  0.32236030984E+02 -0.30735645184E+02  0.45045682913E+02  0.00000000000E+00 0.  1.
         11    1    3    3    0    0 -0.96242582867E+00 -0.11743205673E+02  0.10064722117E+02  0.15496056741E+02  0.51100000000E-03 0. -1.
        -11    1    3    3    0    0  0.22665764566E+00 -0.15485273056E+01 -0.88904906837E-01  0.15675505887E+01  0.51100000000E-03 0.  1.
        -12    1    3    3    0    0  0.74642130708E+01 -0.18944298005E+02  0.20759827974E+02  0.29078709758E+02  0.00000000000E+00 0.  1.
</event>
<event>
 7    1  0.2001181E-008  0.4614232E+02  0.7816164E-02  0.1320468E+00
        -11   -1    0    0    0    0  0.00000000000E+00  0.00000000000E+00  0.45593999997E+02  0.45594000000E+02  0.51100000000E-03 0. -1.
         11   -1    0    0    0    0 -0.00000000000E+00 -0.00000000000E+00 -0.45593999997E+02  0.45594000000E+02  0.51100000000E-03 0.  1.
    9900012    2    1    2    0    0  0.18026704285E+02  0.58703112166E+01  0.40861851070E+02  0.46142317698E+02  0.99999994246E+01 0.  0.
        -12    1    1    2    0    0 -0.18026704285E+02 -0.58703112166E+01 -0.40861851070E+02  0.45045682302E+02  0.00000000000E+00 0.  1.
         11    1    3    3    0    0  0.47633507177E+01  0.24537750411E+01  0.68364602326E+01  0.86860641712E+01  0.51100000000E-03 0. -1.
        -11    1    3    3    0    0  0.10702935844E+01 -0.20210653135E+01  0.42976335057E+01  0.48682530099E+01  0.51100000000E-03 0.  1.
        -12    1    3    3    0    0  0.12193059983E+02  0.54376014890E+01  0.29727757332E+02  0.32588000517E+02  0.00000000000E+00 0.  1.
</event>
<event>
 7    1  0.2001181E-008  0.4614232E+02  0.7816164E-02  0.1320468E+00
        -11   -1    0    0    0    0  0.00000000000E+00  0.00000000000E+00  0.45593999997E+02  0.45594000000E+02  0.51100000000E-03 0.  1.
         11   -1    0    0    0    0 -0.00000000000E+00 -0.00000000000E+00 -0.45593999997E+02  0.45594000000E+02  0.51100000000E-03 0. -1.
    9900012    2    1    2    0    0  0.26866005809E+02 -0.34930456971E+01 -0.35987914143E+02  0.46142316514E+02  0.99999886247E+01 0.  0.
        -12    1    1    2    0    0 -0.26866005809E+02  0.34930456971E+01  0.35987914143E+02  0.45045683486E+02  0.00000000000E+00 0.  1.
         11    1    3    3    0    0  0.14137096730E+02  0.23949858900E+01 -0.20172211745E+02  0.24748971460E+02  0.51100000000E-03 0.  1.
        -11    1    3    3    0    0  0.39088036896E+01 -0.27047383544E+00 -0.37018325841E+01  0.53903123398E+01  0.51100000000E-03 0. -1.
        -12    1    3    3    0    0  0.88201053890E+01 -0.56175577517E+01 -0.12113869814E+02  0.16003032714E+02  0.00000000000E+00 0.  1.
</event>
<event>
 7    1  0.2001181E-008  0.4614232E+02  0.7816164E-02  0.1320468E+00
        -11   -1    0    0    0    0  0.00000000000E+00  0.00000000000E+00  0.45593999997E+02  0.45594000000E+02  0.51100000000E-03 0. -1.
         11   -1    0    0    0    0 -0.00000000000E+00 -0.00000000000E+00 -0.45593999997E+02  0.45594000000E+02  0.51100000000E-03 0.  1.
    9900012    2    1    2    0    0  0.33440179811E+02  0.19158969802E+02  0.23319558604E+02  0.46142316930E+02  0.99999924250E+01 0.  0.
        -12    1    1    2    0    0 -0.33440179811E+02 -0.19158969802E+02 -0.23319558604E+02  0.45045683070E+02  0.00000000000E+00 0.  1.
         11    1    3    3    0    0  0.17177265237E+02  0.10304429029E+02  0.10827722419E+02  0.22770139914E+02  0.51100000000E-03 0. -1.
        -11    1    3    3    0    0  0.11720955983E+02  0.91204713058E+01  0.75692765266E+01  0.16669065763E+02  0.51100000000E-03 0.  1.
        -12    1    3    3    0    0  0.45419585914E+01 -0.26593053297E+00  0.49225596585E+01  0.67031112542E+01  0.00000000000E+00 0.  1.
</event>
<event>
 7    1  0.2001181E-008  0.4614232E+02  0.7816164E-02  0.1320468E+00
        -11   -1    0    0    0    0  0.00000000000E+00  0.00000000000E+00  0.45593999997E+02  0.45594000000E+02  0.51100000000E-03 0.  1.
         11   -1    0    0    0    0 -0.00000000000E+00 -0.00000000000E+00 -0.45593999997E+02  0.45594000000E+02  0.51100000000E-03 0. -1.
    9900012    2    1    2    0    0 -0.34030230083E+02 -0.61675833705E+01 -0.28862045078E+02  0.46142319960E+02  0.10000020055E+02 0.  0.
        -12    1    1    2    0    0  0.34030230083E+02  0.61675833705E+01  0.28862045078E+02  0.45045680040E+02  0.00000000000E+00 0.  1.
         11    1    3    3    0    0 -0.73769010991E+01 -0.79117159457E+00 -0.85258706412E+01  0.11301995079E+02  0.51100000000E-03 0.  1.
        -11    1    3    3    0    0 -0.16268242047E+02 -0.58110653168E+01 -0.16105844322E+02  0.23618264141E+02  0.51100000000E-03 0. -1.
        -12    1    3    3    0    0 -0.10385086937E+02  0.43465354078E+00 -0.42303301145E+01  0.11222060741E+02  0.00000000000E+00 0.  1.
</event>
<event>
 7    1  0.2001181E-008  0.4614232E+02  0.7816164E-02  0.1320468E+00
        -11   -1    0    0    0    0  0.00000000000E+00  0.00000000000E+00  0.45593999997E+02  0.45594000000E+02  0.51100000000E-03 0. -1.
         11   -1    0    0    0    0 -0.00000000000E+00 -0.00000000000E+00 -0.45593999997E+02  0.45594000000E+02  0.51100000000E-03 0.  1.
    9900012    2    1    2    0    0 -0.55722725715E+01 -0.41016616641E+02  0.17767962380E+02  0.46142317083E+02  0.99999938163E+01 0.  0.
        -12    1    1    2    0    0  0.55722725715E+01  0.41016616641E+02 -0.17767962380E+02  0.45045682917E+02  0.00000000000E+00 0.  1.
         11    1    3    3    0    0 -0.20844593299E+01 -0.16418661115E+02  0.85622367909E+01  0.18634089799E+02  0.51100000000E-03 0. -1.
        -11    1    3    3    0    0 -0.42368611766E+01 -0.24028859187E+02  0.74418522531E+01  0.25509179361E+02  0.51100000000E-03 0.  1.
         12    1    3    3    0    0  0.74904793499E+00 -0.56909633949E+00  0.17638733364E+01  0.19990479232E+01  0.00000000000E+00 0. -1.
</event>
<event>
 7    1  0.2001181E-008  0.4614232E+02  0.7816164E-02  0.1320468E+00
        -11   -1    0    0    0    0  0.00000000000E+00  0.00000000000E+00  0.45593999997E+02  0.45594000000E+02  0.51100000000E-03 0. -1.
         11   -1    0    0    0    0 -0.00000000000E+00 -0.00000000000E+00 -0.45593999997E+02  0.45594000000E+02  0.51100000000E-03 0.  1.
    9900012    2    1    2    0    0 -0.13176792152E+02  0.36263308428E+01  0.42922436781E+02  0.46142315345E+02  0.99999779660E+01 0.  0.
        -12    1    1    2    0    0  0.13176792152E+02 -0.36263308428E+01 -0.42922436781E+02  0.45045684655E+02  0.00000000000E+00 0.  1.
         11    1    3    3    0    0 -0.78607670580E+01  0.25058118144E+01  0.12165201837E+02  0.14699077780E+02  0.51100000000E-03 0. -1.
        -11    1    3    3    0    0 -0.21427801045E+01 -0.13304169734E+01  0.12054739743E+02  0.12315773075E+02  0.51100000000E-03 0.  1.
        -12    1    3    3    0    0 -0.31732449898E+01  0.24509360018E+01  0.18702495202E+02  0.19127464490E+02  0.00000000000E+00 0.  1.
</event>
<event>
 7    1  0.2001181E-008  0.4614232E+02  0.7816164E-02  0.1320468E+00
        -11   -1    0    0    0    0  0.00000000000E+00  0.00000000000E+00  0.45593999997E+02  0.45594000000E+02  0.51100000000E-03 0.  1.
         11   -1    0    0    0    0 -0.00000000000E+00 -0.00000000000E+00 -0.45593999997E+02  0.45594000000E+02  0.51100000000E-03 0. -1.
    9900012    2    1    2    0    0 -0.31392304938E+02 -0.18206582334E+02 -0.26686273582E+02  0.46142315997E+02  0.99999839156E+01 0.  0.
        -12    1    1    2    0    0  0.31392304938E+02  0.18206582334E+02  0.26686273582E+02  0.45045684003E+02  0.00000000000E+00 0.  1.
         11    1    3    3    0    0 -0.19982784327E+02 -0.11409669629E+02 -0.15803756286E+02  0.27915066604E+02  0.51100000000E-03 0. -1.
        -11    1    3    3    0    0 -0.10049774932E+02 -0.47784948532E+01 -0.57025260899E+01  0.12504031083E+02  0.51100000000E-03 0.  1.
        -12    1    3    3    0    0 -0.13597456787E+01 -0.20184178520E+01 -0.51799912063E+01  0.57232183108E+01  0.00000000000E+00 0.  1.
</event>
<event>
 7    1  0.2001181E-008  0.4614232E+02  0.7816164E-02  0.1320468E+00
        -11   -1    0    0    0    0  0.00000000000E+00  0.00000000000E+00  0.45593999997E+02  0.45594000000E+02  0.51100000000E-03 0. -1.
         11   -1    0    0    0    0 -0.00000000000E+00 -0.00000000000E+00 -0.45593999997E+02  0.45594000000E+02  0.51100000000E-03 0.  1.
    9900012    2    1    2    0    0  0.85886390400E+00 -0.43855118831E+02 -0.10252049671E+02  0.46142316330E+02  0.99999869459E+01 0.  0.
        -12    1    1    2    0    0 -0.85886390400E+00  0.43855118831E+02  0.10252049671E+02  0.45045683670E+02  0.00000000000E+00 0.  1.
         11    1    3    3    0    0  0.18171558047E+00 -0.45968697384E+01 -0.11713322767E+01  0.47472361968E+01  0.51100000000E-03 0. -1.
        -11    1    3    3    0    0 -0.10039034924E+01 -0.19667288462E+02  0.10304682276E+00  0.19693163194E+02  0.51100000000E-03 0.  1.
         12    1    3    3    0    0  0.16810518159E+01 -0.19590960631E+02 -0.91837642169E+01  0.21701916939E+02  0.00000000000E+00 0. -1.
</event>
<event>
 7    1  0.2001181E-008  0.4614232E+02  0.7816164E-02  0.1320468E+00
        -11   -1    0    0    0    0  0.00000000000E+00  0.00000000000E+00  0.45593999997E+02  0.45594000000E+02  0.51100000000E-03 0. -1.
         11   -1    0    0    0    0 -0.00000000000E+00 -0.00000000000E+00 -0.45593999997E+02  0.45594000000E+02  0.51100000000E-03 0.  1.
    9900012    2    1    2    0    0  0.62068014866E+01  0.36514280190E+02  0.25637793577E+02  0.46142317610E+02  0.99999986240E+01 0.  0.
        -12    1    1    2    0    0 -0.62068014866E+01 -0.36514280190E+02 -0.25637793577E+02  0.45045682390E+02  0.00000000000E+00 0.  1.
         11    1    3    3    0    0  0.22711856602E+01  0.97290910393E+01  0.33254008872E+01  0.10529567326E+02  0.51100000000E-03 0.  1.
        -11    1    3    3    0    0  0.30985602035E+01  0.58525464350E+01  0.36782938879E+01  0.75751713707E+01  0.51100000000E-03 0. -1.
        -12    1    3    3    0    0  0.83705562295E+00  0.20932642715E+02  0.18634098802E+02  0.28037578913E+02  0.00000000000E+00 0.  1.
</event>
<event>
 7    1  0.2001181E-008  0.4614232E+02  0.7816164E-02  0.1320468E+00
        -11   -1    0    0    0    0  0.00000000000E+00  0.00000000000E+00  0.45593999997E+02  0.45594000000E+02  0.51100000000E-03 0.  1.
         11   -1    0    0    0    0 -0.00000000000E+00 -0.00000000000E+00 -0.45593999997E+02  0.45594000000E+02  0.51100000000E-03 0. -1.
    9900012    2    1    2    0    0  0.13470827604E+02  0.15816813332E+02 -0.39968467429E+02  0.46142321307E+02  0.10000032332E+02 0.  0.
        -12    1    1    2    0    0 -0.13470827604E+02 -0.15816813332E+02  0.39968467429E+02  0.45045678693E+02  0.00000000000E+00 0.  1.
         11    1    3    3    0    0  0.75751825805E+01  0.95305051321E+01 -0.15980700048E+02  0.20089716112E+02  0.51100000000E-03 0. -1.
        -11    1    3    3    0    0  0.57368982559E+01  0.24304349267E+01 -0.16309864887E+02  0.17459401720E+02  0.51100000000E-03 0.  1.
        -12    1    3    3    0    0  0.15874676714E+00  0.38558732730E+01 -0.76779024943E+01  0.85932034741E+01  0.00000000000E+00 0.  1.
</event>
<event>
 7    1  0.2001181E-008  0.4614232E+02  0.7816164E-02  0.1320468E+00
        -11   -1    0    0    0    0  0.00000000000E+00  0.00000000000E+00  0.45593999997E+02  0.45594000000E+02  0.51100000000E-03 0.  1.
         11   -1    0    0    0    0 -0.00000000000E+00 -0.00000000000E+00 -0.45593999997E+02  0.45594000000E+02  0.51100000000E-03 0. -1.
    9900012    2    1    2    0    0 -0.14886577846E+01 -0.35218725302E+02 -0.28045298744E+02  0.46142317681E+02  0.99999992710E+01 0.  0.
        -12    1    1    2    0    0  0.14886577846E+01  0.35218725302E+02  0.28045298744E+02  0.45045682319E+02  0.00000000000E+00 0.  1.
         11    1    3    3    0    0  0.18427067652E+01 -0.18338891148E+02 -0.16304681273E+02  0.24607989118E+02  0.51100000000E-03 0. -1.
        -11    1    3    3    0    0  0.12816735208E+01 -0.15122268563E+01 -0.94886248912E+00  0.21976936464E+01  0.51100000000E-03 0.  1.
         12    1    3    3    0    0 -0.46130380706E+01 -0.15367607298E+02 -0.10791754981E+02  0.19336634917E+02  0.00000000000E+00 0. -1.
</event>
<event>
 7    1  0.2001181E-008  0.4614232E+02  0.7816164E-02  0.1320468E+00
        -11   -1    0    0    0    0  0.00000000000E+00  0.00000000000E+00  0.45593999997E+02  0.45594000000E+02  0.51100000000E-03 0.  1.
         11   -1    0    0    0    0 -0.00000000000E+00 -0.00000000000E+00 -0.45593999997E+02  0.45594000000E+02  0.51100000000E-03 0. -1.
    9900012    2    1    2    0    0 -0.10025097190E+02 -0.43908129626E+02  0.82887639735E+00  0.46142318109E+02  0.10000003177E+02 0.  0.
        -12    1    1    2    0    0  0.10025097190E+02  0.43908129626E+02 -0.82887639735E+00  0.45045681891E+02  0.00000000000E+00 0.  1.
         11    1    3    3    0    0 -0.32037383475E+00 -0.76693729646E+01 -0.18481360388E+01  0.78954118413E+01  0.51100000000E-03 0. -1.
        -11    1    3    3    0    0 -0.35223521388E+01 -0.64824972397E+01 -0.16185827008E+01  0.75531149384E+01  0.51100000000E-03 0.  1.
        -12    1    3    3    0    0 -0.61823712162E+01 -0.29756259421E+02  0.42955951370E+01  0.30693791330E+02  0.00000000000E+00 0.  1.
</event>
<event>
 7    1  0.2001181E-008  0.4614232E+02  0.7816164E-02  0.1320468E+00
        -11   -1    0    0    0    0  0.00000000000E+00  0.00000000000E+00  0.45593999997E+02  0.45594000000E+02  0.51100000000E-03 0.  1.
         11   -1    0    0    0    0 -0.00000000000E+00 -0.00000000000E+00 -0.45593999997E+02  0.45594000000E+02  0.51100000000E-03 0. -1.
    9900012    2    1    2    0    0  0.37194996140E+02 -0.60326871724E+01 -0.24683038351E+02  0.46142318358E+02  0.10000005440E+02 0.  0.
        -12    1    1    2    0    0 -0.37194996140E+02  0.60326871724E+01  0.24683038351E+02  0.45045681642E+02  0.00000000000E+00 0.  1.
         11    1    3    3    0    0  0.42400575435E+01 -0.32072050281E+01 -0.44244734080E+01  0.69166622921E+01  0.51100000000E-03 0. -1.
        -11    1    3    3    0    0  0.17787945119E+02 -0.19215126921E+01 -0.14304383251E+02  0.22906736630E+02  0.51100000000E-03 0.  1.
        -12    1    3    3    0    0  0.15166993478E+02 -0.90396945233E+00 -0.59541816919E+01  0.16318919435E+02  0.00000000000E+00 0.  1.
</event>
<event>
 7    1  0.2001181E-008  0.4614232E+02  0.7816164E-02  0.1320468E+00
        -11   -1    0    0    0    0  0.00000000000E+00  0.00000000000E+00  0.45593999997E+02  0.45594000000E+02  0.51100000000E-03 0.  1.
         11   -1    0    0    0    0 -0.00000000000E+00 -0.00000000000E+00 -0.45593999997E+02  0.45594000000E+02  0.51100000000E-03 0. -1.
    9900012    2    1    2    0    0  0.22267732530E+02 -0.38843144181E+02 -0.49468886010E+01  0.46142317979E+02  0.10000001988E+02 0.  0.
        -12    1    1    2    0    0 -0.22267732530E+02  0.38843144181E+02  0.49468886010E+01  0.45045682021E+02  0.00000000000E+00 0.  1.
         11    1    3    3    0    0  0.27697482186E+01 -0.36735021074E+01 -0.35413004000E+00  0.46142747289E+01  0.51100000000E-03 0. -1.
        -11    1    3    3    0    0  0.12980710332E+02 -0.13871199101E+02 -0.23383269304E+01  0.19140971196E+02  0.51100000000E-03 0.  1.
        -12    1    3    3    0    0  0.65172739788E+01 -0.21298442973E+02 -0.22544316306E+01  0.22387072054E+02  0.00000000000E+00 0.  1.
</event>
<event>
 7    1  0.2001181E-008  0.4614232E+02  0.7816164E-02  0.1320468E+00
        -11   -1    0    0    0    0  0.00000000000E+00  0.00000000000E+00  0.45593999997E+02  0.45594000000E+02  0.51100000000E-03 0. -1.
         11   -1    0    0    0    0 -0.00000000000E+00 -0.00000000000E+00 -0.45593999997E+02  0.45594000000E+02  0.51100000000E-03 0.  1.
    9900012    2    1    2    0    0  0.34725173780E+02  0.28685791015E+02  0.63337346238E+00  0.46142318052E+02  0.10000002656E+02 0.  0.
        -12    1    1    2    0    0 -0.34725173780E+02 -0.28685791015E+02 -0.63337346238E+00  0.45045681948E+02  0.00000000000E+00 0.  1.
         11    1    3    3    0    0  0.33118701798E+02  0.26867930072E+02  0.12313094086E+01  0.42664390284E+02  0.51100000000E-03 0. -1.
        -11    1    3    3    0    0  0.98761171186E+00 -0.44250996586E+00 -0.16520830311E+00  0.10947538572E+01  0.51100000000E-03 0.  1.
        -12    1    3    3    0    0  0.61886026936E+00  0.22603709091E+01 -0.43272764312E+00  0.23831739116E+01  0.00000000000E+00 0.  1.
</event>
<event>
 7    1  0.2001181E-008  0.4614232E+02  0.7816164E-02  0.1320468E+00
        -11   -1    0    0    0    0  0.00000000000E+00  0.00000000000E+00  0.45593999997E+02  0.45594000000E+02  0.51100000000E-03 0.  1.
         11   -1    0    0    0    0 -0.00000000000E+00 -0.00000000000E+00 -0.45593999997E+02  0.45594000000E+02  0.51100000000E-03 0. -1.
    9900012    2    1    2    0    0 -0.84513545297E+01  0.29186515711E+02 -0.33254102891E+02  0.46142318167E+02  0.10000003702E+02 0.  0.
        -12    1    1    2    0    0  0.84513545297E+01 -0.29186515711E+02  0.33254102891E+02  0.45045681833E+02  0.00000000000E+00 0.  1.
         11    1    3    3    0    0 -0.16065429983E+01  0.11025972287E+01 -0.13465101258E+01  0.23684997011E+01  0.51100000000E-03 0. -1.
        -11    1    3    3    0    0 -0.55371490053E+01  0.10485259939E+02 -0.91595404399E+01  0.14983253199E+02  0.51100000000E-03 0.  1.
         12    1    3    3    0    0 -0.13076625261E+01  0.17598658542E+02 -0.22748052325E+02  0.28790565267E+02  0.00000000000E+00 0. -1.
</event>
<event>
 7    1  0.2001181E-008  0.4614232E+02  0.7816164E-02  0.1320468E+00
        -11   -1    0    0    0    0  0.00000000000E+00  0.00000000000E+00  0.45593999997E+02  0.45594000000E+02  0.51100000000E-03 0. -1.
         11   -1    0    0    0    0 -0.00000000000E+00 -0.00000000000E+00 -0.45593999997E+02  0.45594000000E+02  0.51100000000E-03 0.  1.
    9900012    2    1    2    0    0 -0.27719862415E+02 -0.35504981169E+02 -0.34498280373E+00  0.46142317929E+02  0.10000001534E+02 0.  0.
        -12    1    1    2    0    0  0.27719862415E+02  0.35504981169E+02  0.34498280373E+00  0.45045682071E+02  0.00000000000E+00 0.  1.
         11    1    3    3    0    0 -0.17537609068E+01 -0.19433991017E+01 -0.91339714439E+00  0.27725028388E+01  0.51100000000E-03 0. -1.
        -11    1    3    3    0    0 -0.17522872199E+02 -0.22745541482E+02  0.45766925885E+01  0.29075020597E+02  0.51100000000E-03 0.  1.
        -12    1    3    3    0    0 -0.84432293084E+01 -0.10816040585E+02 -0.40082782479E+01  0.14294794493E+02  0.00000000000E+00 0.  1.
</event>
<event>
 7    1  0.2001181E-008  0.4614232E+02  0.7816164E-02  0.1320468E+00
        -11   -1    0    0    0    0  0.00000000000E+00  0.00000000000E+00  0.45593999997E+02  0.45594000000E+02  0.51100000000E-03 0.  1.
         11   -1    0    0    0    0 -0.00000000000E+00 -0.00000000000E+00 -0.45593999997E+02  0.45594000000E+02  0.51100000000E-03 0. -1.
    9900012    2    1    2    0    0 -0.17035506014E+01 -0.31424529829E+02 -0.32229028090E+02  0.46142318617E+02  0.10000007803E+02 0.  0.
        -12    1    1    2    0    0  0.17035506014E+01  0.31424529829E+02  0.32229028090E+02  0.45045681383E+02  0.00000000000E+00 0.  1.
         11    1    3    3    0    0  0.86633978926E+00 -0.22118713407E+02 -0.20409893128E+02  0.30108998076E+02  0.51100000000E-03 0. -1.
        -11    1    3    3    0    0  0.34773683996E+00 -0.58655715698E+01 -0.43619138718E+01  0.73179330167E+01  0.51100000000E-03 0.  1.
        -12    1    3    3    0    0 -0.29176272306E+01 -0.34402448527E+01 -0.74572210900E+01  0.87153875237E+01  0.00000000000E+00 0.  1.
</event>
<event>
 7    1  0.2001181E-008  0.4614232E+02  0.7816164E-02  0.1320468E+00
        -11   -1    0    0    0    0  0.00000000000E+00  0.00000000000E+00  0.45593999997E+02  0.45594000000E+02  0.51100000000E-03 0.  1.
         11   -1    0    0    0    0 -0.00000000000E+00 -0.00000000000E+00 -0.45593999997E+02  0.45594000000E+02  0.51100000000E-03 0. -1.
    9900012    2    1    2    0    0  0.20837383947E+02 -0.85813278053E+01 -0.39003560663E+02  0.46142317620E+02  0.99999987142E+01 0.  0.
        -12    1    1    2    0    0 -0.20837383947E+02  0.85813278053E+01  0.39003560663E+02  0.45045682380E+02  0.00000000000E+00 0.  1.
         11    1    3    3    0    0  0.16232447659E+02 -0.61268401675E+01 -0.23289857405E+02  0.29042175980E+02  0.51100000000E-03 0. -1.
        -11    1    3    3    0    0  0.47031013660E+00 -0.68703553792E+00 -0.84392143415E-01  0.83685826156E+00  0.51100000000E-03 0.  1.
         12    1    3    3    0    0  0.41346261520E+01 -0.17674520999E+01 -0.15629311114E+02  0.16263283379E+02  0.00000000000E+00 0. -1.
</event>
<event>
 7    1  0.2001181E-008  0.4614232E+02  0.7816164E-02  0.1320468E+00
        -11   -1    0    0    0    0  0.00000000000E+00  0.00000000000E+00  0.45593999997E+02  0.45594000000E+02  0.51100000000E-03 0.  1.
         11   -1    0    0    0    0 -0.00000000000E+00 -0.00000000000E+00 -0.45593999997E+02  0.45594000000E+02  0.51100000000E-03 0. -1.
    9900012    2    1    2    0    0 -0.94473434704E+01  0.43999247890E+02 -0.19817638122E+01  0.46142317617E+02  0.99999986832E+01 0.  0.
        -12    1    1    2    0    0  0.94473434704E+01 -0.43999247890E+02  0.19817638122E+01  0.45045682383E+02  0.00000000000E+00 0.  1.
         11    1    3    3    0    0 -0.97044885466E+00  0.56287454691E+01  0.16167808739E+01  0.59362047801E+01  0.51100000000E-03 0. -1.
        -11    1    3    3    0    0 -0.73009114324E+00  0.10692117616E+02  0.20577402868E+01  0.10912777260E+02  0.51100000000E-03 0.  1.
         12    1    3    3    0    0 -0.77468034725E+01  0.27678384806E+02 -0.56562849729E+01  0.29293335576E+02  0.00000000000E+00 0. -1.
</event>
<event>
 7    1  0.2001181E-008  0.4614232E+02  0.7816164E-02  0.1320468E+00
        -11   -1    0    0    0    0  0.00000000000E+00  0.00000000000E+00  0.45593999997E+02  0.45594000000E+02  0.51100000000E-03 0. -1.
         11   -1    0    0    0    0 -0.00000000000E+00 -0.00000000000E+00 -0.45593999997E+02  0.45594000000E+02  0.51100000000E-03 0.  1.
    9900012    2    1    2    0    0 -0.14285732076E+02  0.29831635339E+02  0.30579484768E+02  0.46142317670E+02  0.99999991661E+01 0.  0.
        -12    1    1    2    0    0  0.14285732076E+02 -0.29831635339E+02 -0.30579484768E+02  0.45045682330E+02  0.00000000000E+00 0.  1.
         11    1    3    3    0    0  0.38788009399E+00  0.89215666684E+01  0.70139158673E+01  0.11355167055E+02  0.51100000000E-03 0. -1.
        -11    1    3    3    0    0 -0.27390654505E+01  0.41064404530E+01  0.37847168946E+01  0.62200815887E+01  0.51100000000E-03 0.  1.
         12    1    3    3    0    0 -0.11934546719E+02  0.16803628217E+02  0.19780852006E+02  0.28567069026E+02  0.00000000000E+00 0. -1.
</event>
<event>
 7    1  0.2001181E-008  0.4614232E+02  0.7816164E-02  0.1320468E+00
        -11   -1    0    0    0    0  0.00000000000E+00  0.00000000000E+00  0.45593999997E+02  0.45594000000E+02  0.51100000000E-03 0. -1.
         11   -1    0    0    0    0 -0.00000000000E+00 -0.00000000000E+00 -0.45593999997E+02  0.45594000000E+02  0.51100000000E-03 0.  1.
    9900012    2    1    2    0    0 -0.15793364930E+02  0.22915583547E+02  0.35419755802E+02  0.46142318229E+02  0.10000004265E+02 0.  0.
        -12    1    1    2    0    0  0.15793364930E+02 -0.22915583547E+02 -0.35419755802E+02  0.45045681771E+02  0.00000000000E+00 0.  1.
         11    1    3    3    0    0 -0.78527142065E+01  0.72047771690E+01  0.16221699319E+02  0.19409210791E+02  0.51100000000E-03 0. -1.
        -11    1    3    3    0    0  0.32909024159E+00 -0.33075506884E+00  0.99875654721E+00  0.11023675451E+01  0.51100000000E-03 0.  1.
         12    1    3    3    0    0 -0.82697409653E+01  0.16041561447E+02  0.18199299936E+02  0.25630739893E+02  0.00000000000E+00 0. -1.
</event>
<event>
 7    1  0.2001181E-008  0.4614232E+02  0.7816164E-02  0.1320468E+00
        -11   -1    0    0    0    0  0.00000000000E+00  0.00000000000E+00  0.45593999997E+02  0.45594000000E+02  0.51100000000E-03 0.  1.
         11   -1    0    0    0    0 -0.00000000000E+00 -0.00000000000E+00 -0.45593999997E+02  0.45594000000E+02  0.51100000000E-03 0. -1.
    9900012    2    1    2    0    0 -0.24175313147E+02 -0.28501078083E+02 -0.25146696182E+02  0.46142317116E+02  0.99999941135E+01 0.  0.
        -12    1    1    2    0    0  0.24175313147E+02  0.28501078083E+02  0.25146696182E+02  0.45045682884E+02  0.00000000000E+00 0.  1.
         11    1    3    3    0    0 -0.93069841630E+01 -0.11958625081E+02 -0.11495023741E+02  0.19020100922E+02  0.51100000000E-03 0. -1.
        -11    1    3    3    0    0 -0.56506364696E+01 -0.11650209891E+02 -0.84558741202E+01  0.15464762863E+02  0.51100000000E-03 0.  1.
         12    1    3    3    0    0 -0.92176925147E+01 -0.48922431117E+01 -0.51957983206E+01  0.11657453330E+02  0.00000000000E+00 0. -1.
</event>
<event>
 7    1  0.2001181E-008  0.4614233E+02  0.7816164E-02  0.1320468E+00
        -11   -1    0    0    0    0  0.00000000000E+00  0.00000000000E+00  0.45593999997E+02  0.45594000000E+02  0.51100000000E-03 0.  1.
         11   -1    0    0    0    0 -0.00000000000E+00 -0.00000000000E+00 -0.45593999997E+02  0.45594000000E+02  0.51100000000E-03 0. -1.
    9900012    2    1    2    0    0 -0.49130853062E+01  0.17272934196E+02 -0.41311251398E+02  0.46142332561E+02  0.10000134958E+02 0.  0.
        -12    1    1    2    0    0  0.49130853062E+01 -0.17272934196E+02  0.41311251398E+02  0.45045667439E+02  0.00000000000E+00 0.  1.
         11    1    3    3    0    0 -0.14704263727E+00  0.55648249491E+01 -0.91194357171E+01  0.10684241026E+02  0.51100000000E-03 0. -1.
        -11    1    3    3    0    0 -0.91010596272E+00  0.10399578515E+02 -0.19353251819E+02  0.21989267436E+02  0.51100000000E-03 0.  1.
        -12    1    3    3    0    0 -0.38559367062E+01  0.13085307312E+01 -0.12838563862E+02  0.13468824099E+02  0.00000000000E+00 0.  1.
</event>
<event>
 7    1  0.2001181E-008  0.4614232E+02  0.7816164E-02  0.1320468E+00
        -11   -1    0    0    0    0  0.00000000000E+00  0.00000000000E+00  0.45593999997E+02  0.45594000000E+02  0.51100000000E-03 0. -1.
         11   -1    0    0    0    0 -0.00000000000E+00 -0.00000000000E+00 -0.45593999997E+02  0.45594000000E+02  0.51100000000E-03 0.  1.
    9900012    2    1    2    0    0 -0.32201724088E+02  0.31493906919E+02  0.54445040366E+00  0.46142316151E+02  0.99999853135E+01 0.  0.
        -12    1    1    2    0    0  0.32201724088E+02 -0.31493906919E+02 -0.54445040366E+00  0.45045683849E+02  0.00000000000E+00 0.  1.
         11    1    3    3    0    0 -0.14634195055E+02  0.14113651622E+02 -0.52978171765E+00  0.20338030778E+02  0.51100000000E-03 0. -1.
        -11    1    3    3    0    0 -0.71302539241E+01  0.46419408648E+01  0.34201972230E+01  0.91698356212E+01  0.51100000000E-03 0.  1.
        -12    1    3    3    0    0 -0.10437275109E+02  0.12738314432E+02 -0.23459651017E+01  0.16634449751E+02  0.00000000000E+00 0.  1.
</event>
<event>
 7    1  0.2001181E-008  0.4614232E+02  0.7816164E-02  0.1320468E+00
        -11   -1    0    0    0    0  0.00000000000E+00  0.00000000000E+00  0.45593999997E+02  0.45594000000E+02  0.51100000000E-03 0.  1.
         11   -1    0    0    0    0 -0.00000000000E+00 -0.00000000000E+00 -0.45593999997E+02  0.45594000000E+02  0.51100000000E-03 0. -1.
    9900012    2    1    2    0    0  0.19250496751E+02 -0.36803257269E+02 -0.17437092903E+02  0.46142316748E+02  0.99999907631E+01 0.  0.
        -12    1    1    2    0    0 -0.19250496751E+02  0.36803257269E+02  0.17437092903E+02  0.45045683252E+02  0.00000000000E+00 0.  1.
         11    1    3    3    0    0  0.36587925489E+01 -0.11028403287E+02 -0.25409822366E+01  0.11894075541E+02  0.51100000000E-03 0. -1.
        -11    1    3    3    0    0  0.57876874515E+01 -0.11186625032E+02 -0.27743885910E+01  0.12897098044E+02  0.51100000000E-03 0.  1.
        -12    1    3    3    0    0  0.98040167503E+01 -0.14588228950E+02 -0.12121722075E+02  0.21351143164E+02  0.00000000000E+00 0.  1.
</event>
<event>
 7    1  0.2001181E-008  0.4614232E+02  0.7816164E-02  0.1320468E+00
        -11   -1    0    0    0    0  0.00000000000E+00  0.00000000000E+00  0.45593999997E+02  0.45594000000E+02  0.51100000000E-03 0.  1.
         11   -1    0    0    0    0 -0.00000000000E+00 -0.00000000000E+00 -0.45593999997E+02  0.45594000000E+02  0.51100000000E-03 0. -1.
    9900012    2    1    2    0    0 -0.24556912793E+02 -0.10026413365E+02 -0.36408001042E+02  0.46142317957E+02  0.10000001785E+02 0.  0.
        -12    1    1    2    0    0  0.24556912793E+02  0.10026413365E+02  0.36408001042E+02  0.45045682043E+02  0.00000000000E+00 0.  1.
         11    1    3    3    0    0 -0.15895589792E+02 -0.89625938422E+01 -0.23778714323E+02  0.29973740479E+02  0.51100000000E-03 0. -1.
        -11    1    3    3    0    0 -0.88869880614E+01  0.82742266533E-01 -0.11585830127E+02  0.14601947236E+02  0.51100000000E-03 0.  1.
         12    1    3    3    0    0  0.22566506035E+00 -0.11465617890E+01 -0.10434565918E+01  0.15666302418E+01  0.00000000000E+00 0. -1.
</event>
<event>
 7    1  0.2001181E-008  0.4614232E+02  0.7816164E-02  0.1320468E+00
        -11   -1    0    0    0    0  0.00000000000E+00  0.00000000000E+00  0.45593999997E+02  0.45594000000E+02  0.51100000000E-03 0.  1.
         11   -1    0    0    0    0 -0.00000000000E+00 -0.00000000000E+00 -0.45593999997E+02  0.45594000000E+02  0.51100000000E-03 0. -1.
    9900012    2    1    2    0    0  0.20711899062E+02  0.28926417714E+02 -0.27629568432E+02  0.46142318118E+02  0.10000003252E+02 0.  0.
        -12    1    1    2    0    0 -0.20711899062E+02 -0.28926417714E+02  0.27629568432E+02  0.45045681882E+02  0.00000000000E+00 0.  1.
         11    1    3    3    0    0  0.37042711615E+01  0.16569441629E+01 -0.46694859132E+01  0.61863711295E+01  0.51100000000E-03 0. -1.
        -11    1    3    3    0    0  0.73177117184E+01  0.15024357296E+02 -0.14869208459E+02  0.22369031660E+02  0.51100000000E-03 0.  1.
         12    1    3    3    0    0  0.96899161825E+01  0.12245116255E+02 -0.80908740596E+01  0.17586915328E+02  0.00000000000E+00 0. -1.
</event>
<event>
 7    1  0.2001181E-008  0.4614232E+02  0.7816164E-02  0.1320468E+00
        -11   -1    0    0    0    0  0.00000000000E+00  0.00000000000E+00  0.45593999997E+02  0.45594000000E+02  0.51100000000E-03 0. -1.
         11   -1    0    0    0    0 -0.00000000000E+00 -0.00000000000E+00 -0.45593999997E+02  0.45594000000E+02  0.51100000000E-03 0.  1.
    9900012    2    1    2    0    0 -0.26339466924E+02  0.26917234403E+02  0.24714540108E+02  0.46142317427E+02  0.99999969503E+01 0.  0.
        -12    1    1    2    0    0  0.26339466924E+02 -0.26917234403E+02 -0.24714540108E+02  0.45045682573E+02  0.00000000000E+00 0.  1.
         11    1    3    3    0    0 -0.69089107029E+01  0.86654340545E+01  0.96456070534E+01  0.14692192830E+02  0.51100000000E-03 0. -1.
        -11    1    3    3    0    0 -0.56068915114E+01  0.13630830344E+01  0.28096200791E+01  0.64178807273E+01  0.51100000000E-03 0.  1.
         12    1    3    3    0    0 -0.13823664710E+02  0.16888717314E+02  0.12259312975E+02  0.25032243870E+02  0.00000000000E+00 0. -1.
</event>
<event>
 7    1  0.2001181E-008  0.4614233E+02  0.7816164E-02  0.1320468E+00
        -11   -1    0    0    0    0  0.00000000000E+00  0.00000000000E+00  0.45593999997E+02  0.45594000000E+02  0.51100000000E-03 0. -1.
         11   -1    0    0    0    0 -0.00000000000E+00 -0.00000000000E+00 -0.45593999997E+02  0.45594000000E+02  0.51100000000E-03 0.  1.
    9900012    2    1    2    0    0  0.97613231722E+01  0.25964385601E+02  0.35491961922E+02  0.46142333052E+02  0.10000139433E+02 0.  0.
        -12    1    1    2    0    0 -0.97613231722E+01 -0.25964385601E+02 -0.35491961922E+02  0.45045666948E+02  0.00000000000E+00 0.  1.
         11    1    3    3    0    0  0.44608753899E+01  0.76530054343E+01  0.67889206085E+01  0.11160526184E+02  0.51100000000E-03 0.  1.
        -11    1    3    3    0    0  0.65662561997E+01  0.13366711083E+02  0.21376204276E+02  0.26052385595E+02  0.51100000000E-03 0. -1.
        -12    1    3    3    0    0 -0.12658084174E+01  0.49446690831E+01  0.73268370375E+01  0.89294212727E+01  0.00000000000E+00 0.  1.
</event>
<event>
 7    1  0.2001181E-008  0.4614232E+02  0.7816164E-02  0.1320468E+00
        -11   -1    0    0    0    0  0.00000000000E+00  0.00000000000E+00  0.45593999997E+02  0.45594000000E+02  0.51100000000E-03 0.  1.
         11   -1    0    0    0    0 -0.00000000000E+00 -0.00000000000E+00 -0.45593999997E+02  0.45594000000E+02  0.51100000000E-03 0. -1.
    9900012    2    1    2    0    0  0.13797817650E+02 -0.42361836678E+02 -0.66489465367E+01  0.46142317979E+02  0.10000001990E+02 0.  0.
        -12    1    1    2    0    0 -0.13797817650E+02  0.42361836678E+02  0.66489465367E+01  0.45045682021E+02  0.00000000000E+00 0.  1.
         11    1    3    3    0    0  0.53057695163E+01 -0.17045233745E+02 -0.20478487150E+01  0.17968997418E+02  0.51100000000E-03 0. -1.
        -11    1    3    3    0    0 -0.12039306515E+01 -0.11018609682E+01 -0.78780977023E+00  0.18122337327E+01  0.51100000000E-03 0.  1.
         12    1    3    3    0    0  0.96959787849E+01 -0.24214741965E+02 -0.38132880516E+01  0.26361086829E+02  0.00000000000E+00 0. -1.
</event>
<event>
 7    1  0.2001181E-008  0.4614232E+02  0.7816164E-02  0.1320468E+00
        -11   -1    0    0    0    0  0.00000000000E+00  0.00000000000E+00  0.45593999997E+02  0.45594000000E+02  0.51100000000E-03 0.  1.
         11   -1    0    0    0    0 -0.00000000000E+00 -0.00000000000E+00 -0.45593999997E+02  0.45594000000E+02  0.51100000000E-03 0. -1.
    9900012    2    1    2    0    0  0.44999279625E+02 -0.16115964144E+01 -0.12573919628E+01  0.46142318250E+02  0.10000004459E+02 0.  0.
        -12    1    1    2    0    0 -0.44999279625E+02  0.16115964144E+01  0.12573919628E+01  0.45045681750E+02  0.00000000000E+00 0.  1.
         11    1    3    3    0    0  0.89459045060E+01  0.28605345292E+01  0.16093520906E+00  0.93934959214E+01  0.51100000000E-03 0. -1.
        -11    1    3    3    0    0  0.30400677500E+02 -0.17987886622E+01 -0.15662012179E+01  0.30494094832E+02  0.51100000000E-03 0.  1.
        -12    1    3    3    0    0  0.56526976191E+01 -0.26733422813E+01  0.14787404606E+00  0.62547274968E+01  0.00000000000E+00 0.  1.
</event>
<event>
 7    1  0.2001181E-008  0.4614232E+02  0.7816164E-02  0.1320468E+00
        -11   -1    0    0    0    0  0.00000000000E+00  0.00000000000E+00  0.45593999997E+02  0.45594000000E+02  0.51100000000E-03 0. -1.
         11   -1    0    0    0    0 -0.00000000000E+00 -0.00000000000E+00 -0.45593999997E+02  0.45594000000E+02  0.51100000000E-03 0.  1.
    9900012    2    1    2    0    0  0.24317992301E+02 -0.32492504761E+02 -0.19544453538E+02  0.46142320082E+02  0.10000021160E+02 0.  0.
        -12    1    1    2    0    0 -0.24317992301E+02  0.32492504761E+02  0.19544453538E+02  0.45045679918E+02  0.00000000000E+00 0.  1.
         11    1    3    3    0    0  0.15451351905E+02 -0.25594688328E+02 -0.13561954708E+02  0.32829239438E+02  0.51100000000E-03 0. -1.
        -11    1    3    3    0    0  0.38163491969E+01 -0.49584824458E+01 -0.19113430769E+01  0.65424996735E+01  0.51100000000E-03 0.  1.
        -12    1    3    3    0    0  0.50502912000E+01 -0.19393339875E+01 -0.40711557524E+01  0.67705809706E+01  0.00000000000E+00 0.  1.
</event>
<event>
 7    1  0.2001181E-008  0.4614232E+02  0.7816164E-02  0.1320468E+00
        -11   -1    0    0    0    0  0.00000000000E+00  0.00000000000E+00  0.45593999997E+02  0.45594000000E+02  0.51100000000E-03 0.  1.
         11   -1    0    0    0    0 -0.00000000000E+00 -0.00000000000E+00 -0.45593999997E+02  0.45594000000E+02  0.51100000000E-03 0. -1.
    9900012    2    1    2    0    0  0.40877738018E+01  0.40972747513E+02 -0.18265748970E+02  0.46142317423E+02  0.99999969178E+01 0.  0.
        -12    1    1    2    0    0 -0.40877738018E+01 -0.40972747513E+02  0.18265748970E+02  0.45045682577E+02  0.00000000000E+00 0.  1.
         11    1    3    3    0    0  0.35413096766E+01  0.21932818945E+02 -0.78036123778E+01  0.23547521897E+02  0.51100000000E-03 0. -1.
        -11    1    3    3    0    0  0.21910558650E+01  0.66105126590E+01 -0.62811639693E+01  0.93783060565E+01  0.51100000000E-03 0.  1.
        -12    1    3    3    0    0 -0.16445917398E+01  0.12429415909E+02 -0.41809726227E+01  0.13216489470E+02  0.00000000000E+00 0.  1.
</event>
<event>
 7    1  0.2001181E-008  0.4614232E+02  0.7816164E-02  0.1320468E+00
        -11   -1    0    0    0    0  0.00000000000E+00  0.00000000000E+00  0.45593999997E+02  0.45594000000E+02  0.51100000000E-03 0.  1.
         11   -1    0    0    0    0 -0.00000000000E+00 -0.00000000000E+00 -0.45593999997E+02  0.45594000000E+02  0.51100000000E-03 0. -1.
    9900012    2    1    2    0    0 -0.44374488389E+02 -0.74044773348E+01  0.22785405935E+01  0.46142320389E+02  0.10000023960E+02 0.  0.
        -12    1    1    2    0    0  0.44374488389E+02  0.74044773348E+01 -0.22785405935E+01  0.45045679611E+02  0.00000000000E+00 0.  1.
         11    1    3    3    0    0 -0.12611841955E+02 -0.37581949694E+00  0.20767661503E+01  0.12787210630E+02  0.51100000000E-03 0. -1.
        -11    1    3    3    0    0 -0.13254857461E+00  0.44421464989E+00 -0.70248884513E+00  0.84165706702E+00  0.51100000000E-03 0.  1.
         12    1    3    3    0    0 -0.31630097860E+02 -0.74728724877E+01  0.90426328834E+00  0.32513452692E+02  0.00000000000E+00 0. -1.
</event>
<event>
 7    1  0.2001181E-008  0.4614232E+02  0.7816164E-02  0.1320468E+00
        -11   -1    0    0    0    0  0.00000000000E+00  0.00000000000E+00  0.45593999997E+02  0.45594000000E+02  0.51100000000E-03 0.  1.
         11   -1    0    0    0    0 -0.00000000000E+00 -0.00000000000E+00 -0.45593999997E+02  0.45594000000E+02  0.51100000000E-03 0. -1.
    9900012    2    1    2    0    0 -0.35249258041E+02 -0.21824769782E+02 -0.17614843950E+02  0.46142317678E+02  0.99999992416E+01 0.  0.
        -12    1    1    2    0    0  0.35249258041E+02  0.21824769782E+02  0.17614843950E+02  0.45045682322E+02  0.00000000000E+00 0.  1.
         11    1    3    3    0    0 -0.69171764252E+01 -0.12058624555E+01 -0.21562860064E+01  0.73451346864E+01  0.51100000000E-03 0. -1.
        -11    1    3    3    0    0 -0.22762418981E+02 -0.16491667872E+02 -0.95444635050E+01  0.29685006500E+02  0.51100000000E-03 0.  1.
        -12    1    3    3    0    0 -0.55696626351E+01 -0.41272394550E+01 -0.59140944384E+01  0.91121764916E+01  0.00000000000E+00 0.  1.
</event>
<event>
 7    1  0.2001181E-008  0.4614232E+02  0.7816164E-02  0.1320468E+00
        -11   -1    0    0    0    0  0.00000000000E+00  0.00000000000E+00  0.45593999997E+02  0.45594000000E+02  0.51100000000E-03 0.  1.
         11   -1    0    0    0    0 -0.00000000000E+00 -0.00000000000E+00 -0.45593999997E+02  0.45594000000E+02  0.51100000000E-03 0. -1.
    9900012    2    1    2    0    0 -0.23837059442E+02  0.35283850631E+02  0.14695509073E+02  0.46142317576E+02  0.99999983078E+01 0.  0.
        -12    1    1    2    0    0  0.23837059442E+02 -0.35283850631E+02 -0.14695509073E+02  0.45045682424E+02  0.00000000000E+00 0.  1.
         11    1    3    3    0    0 -0.85112627319E+01  0.77927491725E+01  0.27217849369E+01  0.11856502286E+02  0.51100000000E-03 0. -1.
        -11    1    3    3    0    0 -0.10620761367E+02  0.13531527628E+02  0.45686840881E+01  0.17798193350E+02  0.51100000000E-03 0.  1.
        -12    1    3    3    0    0 -0.47050353425E+01  0.13959573831E+02  0.74050400484E+01  0.16487621940E+02  0.00000000000E+00 0.  1.
</event>
<event>
 7    1  0.2001181E-008  0.4614232E+02  0.7816164E-02  0.1320468E+00
        -11   -1    0    0    0    0  0.00000000000E+00  0.00000000000E+00  0.45593999997E+02  0.45594000000E+02  0.51100000000E-03 0. -1.
         11   -1    0    0    0    0 -0.00000000000E+00 -0.00000000000E+00 -0.45593999997E+02  0.45594000000E+02  0.51100000000E-03 0.  1.
    9900012    2    1    2    0    0 -0.26926360366E+02  0.29326720121E+02  0.21071973525E+02  0.46142318033E+02  0.10000002479E+02 0.  0.
        -12    1    1    2    0    0  0.26926360366E+02 -0.29326720121E+02 -0.21071973525E+02  0.45045681967E+02  0.00000000000E+00 0.  1.
         11    1    3    3    0    0 -0.71304539996E+01  0.69467246656E+01  0.95748820370E+01  0.13812267160E+02  0.51100000000E-03 0. -1.
        -11    1    3    3    0    0 -0.32474019423E+01  0.53520408352E+01  0.88676867992E+00  0.63226829297E+01  0.51100000000E-03 0.  1.
         12    1    3    3    0    0 -0.16548504425E+02  0.17027954620E+02  0.10610322808E+02  0.26007367943E+02  0.00000000000E+00 0. -1.
</event>
<event>
 7    1  0.2001181E-008  0.4614232E+02  0.7816164E-02  0.1320468E+00
        -11   -1    0    0    0    0  0.00000000000E+00  0.00000000000E+00  0.45593999997E+02  0.45594000000E+02  0.51100000000E-03 0. -1.
         11   -1    0    0    0    0 -0.00000000000E+00 -0.00000000000E+00 -0.45593999997E+02  0.45594000000E+02  0.51100000000E-03 0.  1.
    9900012    2    1    2    0    0  0.36875525335E+02  0.24950326061E+02 -0.68403591791E+01  0.46142315934E+02  0.99999833381E+01 0.  0.
        -12    1    1    2    0    0 -0.36875525335E+02 -0.24950326061E+02  0.68403591791E+01  0.45045684066E+02  0.00000000000E+00 0.  1.
         11    1    3    3    0    0  0.17266869827E+02  0.11747272189E+02 -0.44512437930E+00  0.20888784873E+02  0.51100000000E-03 0. -1.
        -11    1    3    3    0    0  0.19143068711E+02  0.13635818818E+02 -0.54703202193E+01  0.24131246095E+02  0.51100000000E-03 0.  1.
         12    1    3    3    0    0  0.46558679631E+00 -0.43276494571E+00 -0.92491458053E+00  0.11222849658E+01  0.00000000000E+00 0. -1.
</event>
<event>
 7    1  0.2001181E-008  0.4614232E+02  0.7816164E-02  0.1320468E+00
        -11   -1    0    0    0    0  0.00000000000E+00  0.00000000000E+00  0.45593999997E+02  0.45594000000E+02  0.51100000000E-03 0.  1.
         11   -1    0    0    0    0 -0.00000000000E+00 -0.00000000000E+00 -0.45593999997E+02  0.45594000000E+02  0.51100000000E-03 0. -1.
    9900012    2    1    2    0    0  0.11006850703E+02 -0.13773649617E+02 -0.41451770934E+02  0.46142317635E+02  0.99999988468E+01 0.  0.
        -12    1    1    2    0    0 -0.11006850703E+02  0.13773649617E+02  0.41451770934E+02  0.45045682365E+02  0.00000000000E+00 0.  1.
         11    1    3    3    0    0  0.61933778506E+01 -0.11664813218E+02 -0.29980477913E+02  0.32760568566E+02  0.51100000000E-03 0. -1.
        -11    1    3    3    0    0 -0.29369899657E+00 -0.92383366649E+00 -0.25771612332E+00  0.10030680960E+01  0.51100000000E-03 0.  1.
        -12    1    3    3    0    0  0.51071718494E+01 -0.11850027320E+01 -0.11213576898E+02  0.12378680972E+02  0.00000000000E+00 0.  1.
</event>
<event>
 7    1  0.2001181E-008  0.4614232E+02  0.7816164E-02  0.1320468E+00
        -11   -1    0    0    0    0  0.00000000000E+00  0.00000000000E+00  0.45593999997E+02  0.45594000000E+02  0.51100000000E-03 0. -1.
         11   -1    0    0    0    0 -0.00000000000E+00 -0.00000000000E+00 -0.45593999997E+02  0.45594000000E+02  0.51100000000E-03 0.  1.
    9900012    2    1    2    0    0 -0.32259712118E+02  0.82973737275E+01  0.30324546155E+02  0.46142317230E+02  0.99999951594E+01 0.  0.
        -12    1    1    2    0    0  0.32259712118E+02 -0.82973737275E+01 -0.30324546155E+02  0.45045682770E+02  0.00000000000E+00 0.  1.
         11    1    3    3    0    0 -0.26311877545E+02  0.70884686806E+01  0.29147967539E+02  0.39901946069E+02  0.51100000000E-03 0. -1.
        -11    1    3    3    0    0 -0.88724439642E+00 -0.10166876770E+00  0.61070143712E-01  0.89513629179E+00  0.51100000000E-03 0.  1.
         12    1    3    3    0    0 -0.50605901764E+01  0.13105738147E+01  0.11155084718E+01  0.53452348693E+01  0.00000000000E+00 0. -1.
</event>
<event>
 7    1  0.2001181E-008  0.4614232E+02  0.7816164E-02  0.1320468E+00
        -11   -1    0    0    0    0  0.00000000000E+00  0.00000000000E+00  0.45593999997E+02  0.45594000000E+02  0.51100000000E-03 0. -1.
         11   -1    0    0    0    0 -0.00000000000E+00 -0.00000000000E+00 -0.45593999997E+02  0.45594000000E+02  0.51100000000E-03 0.  1.
    9900012    2    1    2    0    0 -0.14781477932E+02 -0.40600671981E+02  0.12736044107E+02  0.46142317913E+02  0.10000001385E+02 0.  0.
        -12    1    1    2    0    0  0.14781477932E+02  0.40600671981E+02 -0.12736044107E+02  0.45045682087E+02  0.00000000000E+00 0.  1.
         11    1    3    3    0    0 -0.45221046172E+01 -0.15498755208E+02  0.40674411130E+01  0.16649472083E+02  0.51100000000E-03 0. -1.
        -11    1    3    3    0    0 -0.45593806048E+01 -0.48646212163E+01 -0.20939224077E+00  0.66705574316E+01  0.51100000000E-03 0.  1.
        -12    1    3    3    0    0 -0.56999927096E+01 -0.20237295557E+02  0.88779952349E+01  0.22822288399E+02  0.00000000000E+00 0.  1.
</event>
<event>
 7    1  0.2001181E-008  0.4614232E+02  0.7816164E-02  0.1320468E+00
        -11   -1    0    0    0    0  0.00000000000E+00  0.00000000000E+00  0.45593999997E+02  0.45594000000E+02  0.51100000000E-03 0. -1.
         11   -1    0    0    0    0 -0.00000000000E+00 -0.00000000000E+00 -0.45593999997E+02  0.45594000000E+02  0.51100000000E-03 0.  1.
    9900012    2    1    2    0    0 -0.42471611884E+02  0.12072251151E+02 -0.89183264413E+01  0.46142316407E+02  0.99999876514E+01 0.  0.
        -12    1    1    2    0    0  0.42471611884E+02 -0.12072251151E+02  0.89183264413E+01  0.45045683593E+02  0.00000000000E+00 0.  1.
         11    1    3    3    0    0 -0.18134185293E+02  0.66793242432E+01 -0.70316255681E+00  0.19337954557E+02  0.51100000000E-03 0. -1.
        -11    1    3    3    0    0 -0.31121485486E+01  0.39890169323E+00 -0.30932568455E+01  0.44059992422E+01  0.51100000000E-03 0.  1.
         12    1    3    3    0    0 -0.21225278042E+02  0.49940252142E+01 -0.51219070389E+01  0.22398362608E+02  0.00000000000E+00 0. -1.
</event>
<event>
 7    1  0.2001181E-008  0.4614232E+02  0.7816164E-02  0.1320468E+00
        -11   -1    0    0    0    0  0.00000000000E+00  0.00000000000E+00  0.45593999997E+02  0.45594000000E+02  0.51100000000E-03 0.  1.
         11   -1    0    0    0    0 -0.00000000000E+00 -0.00000000000E+00 -0.45593999997E+02  0.45594000000E+02  0.51100000000E-03 0. -1.
    9900012    2    1    2    0    0 -0.17805207909E+02 -0.34853144879E+02 -0.22301262543E+02  0.46142318213E+02  0.10000004117E+02 0.  0.
        -12    1    1    2    0    0  0.17805207909E+02  0.34853144879E+02  0.22301262543E+02  0.45045681787E+02  0.00000000000E+00 0.  1.
         11    1    3    3    0    0 -0.46025750805E+01 -0.92944976080E+01 -0.95801128423E+01  0.14119134021E+02  0.51100000000E-03 0. -1.
        -11    1    3    3    0    0 -0.39049067606E+01 -0.14045480241E+02 -0.58715340270E+01  0.15716193054E+02  0.51100000000E-03 0.  1.
         12    1    3    3    0    0 -0.92977260683E+01 -0.11513167030E+02 -0.68496156736E+01  0.16306991138E+02  0.00000000000E+00 0. -1.
</event>
<event>
 7    1  0.2001181E-008  0.4614232E+02  0.7816164E-02  0.1320468E+00
        -11   -1    0    0    0    0  0.00000000000E+00  0.00000000000E+00  0.45593999997E+02  0.45594000000E+02  0.51100000000E-03 0. -1.
         11   -1    0    0    0    0 -0.00000000000E+00 -0.00000000000E+00 -0.45593999997E+02  0.45594000000E+02  0.51100000000E-03 0.  1.
    9900012    2    1    2    0    0  0.16880189548E+02  0.22416651396E+02  0.35237287649E+02  0.46142317633E+02  0.99999988350E+01 0.  0.
        -12    1    1    2    0    0 -0.16880189548E+02 -0.22416651396E+02 -0.35237287649E+02  0.45045682367E+02  0.00000000000E+00 0.  1.
         11    1    3    3    0    0  0.44748631328E+01  0.96347547189E+01  0.16490856264E+02  0.19616351321E+02  0.51100000000E-03 0. -1.
        -11    1    3    3    0    0  0.69379741014E+01  0.30636498351E+01  0.83555830068E+01  0.11284378697E+02  0.51100000000E-03 0.  1.
         12    1    3    3    0    0  0.54673523141E+01  0.97182468420E+01  0.10390848378E+02  0.15241587615E+02  0.00000000000E+00 0. -1.
</event>
<event>
 7    1  0.2001181E-008  0.4614232E+02  0.7816164E-02  0.1320468E+00
        -11   -1    0    0    0    0  0.00000000000E+00  0.00000000000E+00  0.45593999997E+02  0.45594000000E+02  0.51100000000E-03 0.  1.
         11   -1    0    0    0    0 -0.00000000000E+00 -0.00000000000E+00 -0.45593999997E+02  0.45594000000E+02  0.51100000000E-03 0. -1.
    9900012    2    1    2    0    0 -0.21426033819E+02  0.90457261053E+01 -0.38577368645E+02  0.46142318103E+02  0.10000003121E+02 0.  0.
        -12    1    1    2    0    0  0.21426033819E+02 -0.90457261053E+01  0.38577368645E+02  0.45045681897E+02  0.00000000000E+00 0.  1.
         11    1    3    3    0    0 -0.92795613210E+01  0.32368237318E+01 -0.16307251359E+02  0.19039793416E+02  0.51100000000E-03 0. -1.
        -11    1    3    3    0    0 -0.13071567113E+02  0.58192009254E+01 -0.21769190612E+02  0.26050463074E+02  0.51100000000E-03 0.  1.
        -12    1    3    3    0    0  0.92509461473E+00 -0.10298551887E-01 -0.50092667363E+00  0.10520616136E+01  0.00000000000E+00 0.  1.
</event>
<event>
 7    1  0.2001181E-008  0.4614232E+02  0.7816164E-02  0.1320468E+00
        -11   -1    0    0    0    0  0.00000000000E+00  0.00000000000E+00  0.45593999997E+02  0.45594000000E+02  0.51100000000E-03 0. -1.
         11   -1    0    0    0    0 -0.00000000000E+00 -0.00000000000E+00 -0.45593999997E+02  0.45594000000E+02  0.51100000000E-03 0.  1.
    9900012    2    1    2    0    0  0.14097989798E+02 -0.42719307924E+02 -0.23282459529E+01  0.46142319684E+02  0.10000017539E+02 0.  0.
        -12    1    1    2    0    0 -0.14097989798E+02  0.42719307924E+02  0.23282459529E+01  0.45045680316E+02  0.00000000000E+00 0.  1.
         11    1    3    3    0    0  0.16391275164E+00 -0.19730875727E+01  0.12058759084E+01  0.23182059717E+01  0.51100000000E-03 0. -1.
        -11    1    3    3    0    0  0.79795775653E+01 -0.17065245344E+02 -0.45662387865E+01  0.19384189271E+02  0.51100000000E-03 0.  1.
         12    1    3    3    0    0  0.59544994813E+01 -0.23680975008E+02  0.10321169252E+01  0.24439924442E+02  0.00000000000E+00 0. -1.
</event>
<event>
 7    1  0.2001181E-008  0.4614232E+02  0.7816164E-02  0.1320468E+00
        -11   -1    0    0    0    0  0.00000000000E+00  0.00000000000E+00  0.45593999997E+02  0.45594000000E+02  0.51100000000E-03 0. -1.
         11   -1    0    0    0    0 -0.00000000000E+00 -0.00000000000E+00 -0.45593999997E+02  0.45594000000E+02  0.51100000000E-03 0.  1.
    9900012    2    1    2    0    0  0.68120005130E+01  0.25691990674E+02  0.36368005586E+02  0.46142316898E+02  0.99999921297E+01 0.  0.
        -12    1    1    2    0    0 -0.68120005130E+01 -0.25691990674E+02 -0.36368005586E+02  0.45045683102E+02  0.00000000000E+00 0.  1.
         11    1    3    3    0    0  0.52623863390E+01  0.20753250046E+02  0.24114918382E+02  0.32247781106E+02  0.51100000000E-03 0. -1.
        -11    1    3    3    0    0  0.22868680464E+00  0.33170551841E+01  0.32419927883E+01  0.46438852537E+01  0.51100000000E-03 0.  1.
        -12    1    3    3    0    0  0.13209273694E+01  0.16216854437E+01  0.90110944165E+01  0.92506505381E+01  0.00000000000E+00 0.  1.
</event>
<event>
 7    1  0.2001181E-008  0.4614232E+02  0.7816164E-02  0.1320468E+00
        -11   -1    0    0    0    0  0.00000000000E+00  0.00000000000E+00  0.45593999997E+02  0.45594000000E+02  0.51100000000E-03 0.  1.
         11   -1    0    0    0    0 -0.00000000000E+00 -0.00000000000E+00 -0.45593999997E+02  0.45594000000E+02  0.51100000000E-03 0. -1.
    9900012    2    1    2    0    0 -0.16456114539E+02 -0.72443749857E+01 -0.41301681810E+02  0.46142316577E+02  0.99999892062E+01 0.  0.
        -12    1    1    2    0    0  0.16456114539E+02  0.72443749857E+01  0.41301681810E+02  0.45045683423E+02  0.00000000000E+00 0.  1.
         11    1    3    3    0    0 -0.11261894608E+02 -0.11519862230E+01 -0.27604928264E+02  0.29836042083E+02  0.51100000000E-03 0. -1.
        -11    1    3    3    0    0  0.51868667222E+00 -0.93835619625E+00 -0.10362801626E+01  0.14911153716E+01  0.51100000000E-03 0.  1.
         12    1    3    3    0    0 -0.57129066029E+01 -0.51540325665E+01 -0.12660473383E+02  0.14815159123E+02  0.00000000000E+00 0. -1.
</event>
<event>
 7    1  0.2001181E-008  0.4614232E+02  0.7816164E-02  0.1320468E+00
        -11   -1    0    0    0    0  0.00000000000E+00  0.00000000000E+00  0.45593999997E+02  0.45594000000E+02  0.51100000000E-03 0.  1.
         11   -1    0    0    0    0 -0.00000000000E+00 -0.00000000000E+00 -0.45593999997E+02  0.45594000000E+02  0.51100000000E-03 0. -1.
    9900012    2    1    2    0    0  0.57680501618E+01  0.39748690228E+02 -0.20393256777E+02  0.46142315417E+02  0.99999786277E+01 0.  0.
        -12    1    1    2    0    0 -0.57680501618E+01 -0.39748690228E+02  0.20393256777E+02  0.45045684583E+02  0.00000000000E+00 0.  1.
         11    1    3    3    0    0  0.23412172182E+01  0.20362697733E+02 -0.98262756281E+01  0.22730518032E+02  0.51100000000E-03 0.  1.
        -11    1    3    3    0    0  0.21685905438E+01  0.18702911846E+02 -0.79685301687E+01  0.20445027996E+02  0.51100000000E-03 0. -1.
        -12    1    3    3    0    0  0.12582423998E+01  0.68308064956E+00 -0.25984509801E+01  0.29667693888E+01  0.00000000000E+00 0.  1.
</event>
<event>
 7    1  0.2001181E-008  0.4614232E+02  0.7816164E-02  0.1320468E+00
        -11   -1    0    0    0    0  0.00000000000E+00  0.00000000000E+00  0.45593999997E+02  0.45594000000E+02  0.51100000000E-03 0. -1.
         11   -1    0    0    0    0 -0.00000000000E+00 -0.00000000000E+00 -0.45593999997E+02  0.45594000000E+02  0.51100000000E-03 0.  1.
    9900012    2    1    2    0    0 -0.13229564473E+02  0.34387030000E+02  0.25915714785E+02  0.46142317841E+02  0.10000000727E+02 0.  0.
        -12    1    1    2    0    0  0.13229564473E+02 -0.34387030000E+02 -0.25915714785E+02  0.45045682159E+02  0.00000000000E+00 0.  1.
         11    1    3    3    0    0 -0.88879190062E+01  0.18309244062E+02  0.11652974644E+02  0.23452405862E+02  0.51100000000E-03 0. -1.
        -11    1    3    3    0    0 -0.18600205914E+01  0.12614344207E+02  0.77943604456E+01  0.14944343793E+02  0.51100000000E-03 0.  1.
        -12    1    3    3    0    0 -0.24816248757E+01  0.34634417304E+01  0.64683796955E+01  0.77455681863E+01  0.00000000000E+00 0.  1.
</event>
<event>
 7    1  0.2001181E-008  0.4614232E+02  0.7816164E-02  0.1320468E+00
        -11   -1    0    0    0    0  0.00000000000E+00  0.00000000000E+00  0.45593999997E+02  0.45594000000E+02  0.51100000000E-03 0.  1.
         11   -1    0    0    0    0 -0.00000000000E+00 -0.00000000000E+00 -0.45593999997E+02  0.45594000000E+02  0.51100000000E-03 0. -1.
    9900012    2    1    2    0    0 -0.36607363810E+02 -0.30436895298E+01 -0.26072022651E+02  0.46142317674E+02  0.99999992083E+01 0.  0.
        -12    1    1    2    0    0  0.36607363810E+02  0.30436895298E+01  0.26072022651E+02  0.45045682326E+02  0.00000000000E+00 0.  1.
         11    1    3    3    0    0 -0.20430853809E+02 -0.35385330932E+01 -0.15833714771E+02  0.26089222440E+02  0.51100000000E-03 0. -1.
        -11    1    3    3    0    0 -0.26271421601E+01 -0.48363338235E+00 -0.46525514822E+01  0.53648870196E+01  0.51100000000E-03 0.  1.
        -12    1    3    3    0    0 -0.13549367841E+02  0.97847694580E+00 -0.55857563980E+01  0.14688208215E+02  0.00000000000E+00 0.  1.
</event>
<event>
 7    1  0.2001181E-008  0.4614232E+02  0.7816164E-02  0.1320468E+00
        -11   -1    0    0    0    0  0.00000000000E+00  0.00000000000E+00  0.45593999997E+02  0.45594000000E+02  0.51100000000E-03 0. -1.
         11   -1    0    0    0    0 -0.00000000000E+00 -0.00000000000E+00 -0.45593999997E+02  0.45594000000E+02  0.51100000000E-03 0.  1.
    9900012    2    1    2    0    0  0.37088265428E+02  0.94574862033E+01  0.23751420166E+02  0.46142318324E+02  0.10000005135E+02 0.  0.
        -12    1    1    2    0    0 -0.37088265428E+02 -0.94574862033E+01 -0.23751420166E+02  0.45045681676E+02  0.00000000000E+00 0.  1.
         11    1    3    3    0    0  0.30619496490E+01  0.16603470886E+01 -0.29385436773E+00  0.34955169515E+01  0.51100000000E-03 0.  1.
        -11    1    3    3    0    0  0.20979704209E+02  0.48315654756E+01  0.12017919977E+02  0.24656082707E+02  0.51100000000E-03 0. -1.
        -12    1    3    3    0    0  0.13046611570E+02  0.29655736392E+01  0.12027354556E+02  0.17990718665E+02  0.00000000000E+00 0.  1.
</event>
<event>
 7    1  0.2001181E-008  0.4614232E+02  0.7816164E-02  0.1320468E+00
        -11   -1    0    0    0    0  0.00000000000E+00  0.00000000000E+00  0.45593999997E+02  0.45594000000E+02  0.51100000000E-03 0.  1.
         11   -1    0    0    0    0 -0.00000000000E+00 -0.00000000000E+00 -0.45593999997E+02  0.45594000000E+02  0.51100000000E-03 0. -1.
    9900012    2    1    2    0    0 -0.13308833584E+02  0.57323406424E+01 -0.42651245465E+02  0.46142317407E+02  0.99999967676E+01 0.  0.
        -12    1    1    2    0    0  0.13308833584E+02 -0.57323406424E+01  0.42651245465E+02  0.45045682593E+02  0.00000000000E+00 0.  1.
         11    1    3    3    0    0 -0.14182431261E+00 -0.28456143726E-02  0.43127115999E+00  0.45400144023E+00  0.51100000000E-03 0. -1.
        -11    1    3    3    0    0 -0.61868989710E+01  0.24787929102E-01 -0.17025248589E+02  0.18114563840E+02  0.51100000000E-03 0.  1.
         12    1    3    3    0    0 -0.69801103004E+01  0.57103983277E+01 -0.26057268036E+02  0.27573752127E+02  0.00000000000E+00 0. -1.
</event>
<event>
 7    1  0.2001181E-008  0.4614232E+02  0.7816164E-02  0.1320468E+00
        -11   -1    0    0    0    0  0.00000000000E+00  0.00000000000E+00  0.45593999997E+02  0.45594000000E+02  0.51100000000E-03 0.  1.
         11   -1    0    0    0    0 -0.00000000000E+00 -0.00000000000E+00 -0.45593999997E+02  0.45594000000E+02  0.51100000000E-03 0. -1.
    9900012    2    1    2    0    0 -0.69397326576E+01  0.25122093703E+02 -0.36740088401E+02  0.46142316776E+02  0.99999910151E+01 0.  0.
        -12    1    1    2    0    0  0.69397326576E+01 -0.25122093703E+02  0.36740088401E+02  0.45045683224E+02  0.00000000000E+00 0.  1.
         11    1    3    3    0    0  0.10074645138E+01  0.13272279969E+01 -0.45565272130E+01  0.48516450206E+01  0.51100000000E-03 0. -1.
        -11    1    3    3    0    0 -0.49722417048E+01  0.58487969945E+01 -0.95790845549E+01  0.12275604874E+02  0.51100000000E-03 0.  1.
         12    1    3    3    0    0 -0.29749554667E+01  0.17946068712E+02 -0.22604476634E+02  0.29015066881E+02  0.00000000000E+00 0. -1.
</event>
<event>
 7    1  0.2001181E-008  0.4614232E+02  0.7816164E-02  0.1320468E+00
        -11   -1    0    0    0    0  0.00000000000E+00  0.00000000000E+00  0.45593999997E+02  0.45594000000E+02  0.51100000000E-03 0.  1.
         11   -1    0    0    0    0 -0.00000000000E+00 -0.00000000000E+00 -0.45593999997E+02  0.45594000000E+02  0.51100000000E-03 0. -1.
    9900012    2    1    2    0    0  0.17747594657E+02 -0.35040839108E+02 -0.22051667482E+02  0.46142316963E+02  0.99999927214E+01 0.  0.
        -12    1    1    2    0    0 -0.17747594657E+02  0.35040839108E+02  0.22051667482E+02  0.45045683037E+02  0.00000000000E+00 0.  1.
         11    1    3    3    0    0  0.53694646319E+01 -0.17701505862E+02 -0.64676397276E+01  0.19596041032E+02  0.51100000000E-03 0. -1.
        -11    1    3    3    0    0  0.69833542019E+00 -0.23608105279E+01 -0.22881686266E+01  0.33610734346E+01  0.51100000000E-03 0.  1.
         12    1    3    3    0    0  0.11679794605E+02 -0.14978522718E+02 -0.13295859128E+02  0.23185202496E+02  0.00000000000E+00 0. -1.
</event>
<event>
 7    1  0.2001181E-008  0.4614232E+02  0.7816164E-02  0.1320468E+00
        -11   -1    0    0    0    0  0.00000000000E+00  0.00000000000E+00  0.45593999997E+02  0.45594000000E+02  0.51100000000E-03 0. -1.
         11   -1    0    0    0    0 -0.00000000000E+00 -0.00000000000E+00 -0.45593999997E+02  0.45594000000E+02  0.51100000000E-03 0.  1.
    9900012    2    1    2    0    0 -0.15539591316E+02  0.33945507739E+02 -0.25205895120E+02  0.46142317158E+02  0.99999944998E+01 0.  0.
        -12    1    1    2    0    0  0.15539591316E+02 -0.33945507739E+02  0.25205895120E+02  0.45045682842E+02  0.00000000000E+00 0.  1.
         11    1    3    3    0    0 -0.10437418411E+02  0.24594725122E+02 -0.17070941944E+02  0.31705792310E+02  0.51100000000E-03 0. -1.
        -11    1    3    3    0    0 -0.18402042756E+01  0.44939220953E+01 -0.69317208376E+01  0.84634769218E+01  0.51100000000E-03 0.  1.
        -12    1    3    3    0    0 -0.32619686295E+01  0.48568605218E+01 -0.12032323387E+01  0.59730479262E+01  0.00000000000E+00 0.  1.
</event>
<event>
 7    1  0.2001181E-008  0.4614232E+02  0.7816164E-02  0.1320468E+00
        -11   -1    0    0    0    0  0.00000000000E+00  0.00000000000E+00  0.45593999997E+02  0.45594000000E+02  0.51100000000E-03 0. -1.
         11   -1    0    0    0    0 -0.00000000000E+00 -0.00000000000E+00 -0.45593999997E+02  0.45594000000E+02  0.51100000000E-03 0.  1.
    9900012    2    1    2    0    0 -0.10253553875E+02 -0.15070949070E+02  0.41192773342E+02  0.46142318204E+02  0.10000004036E+02 0.  0.
        -12    1    1    2    0    0  0.10253553875E+02  0.15070949070E+02 -0.41192773342E+02  0.45045681796E+02  0.00000000000E+00 0.  1.
         11    1    3    3    0    0 -0.20716705169E+01 -0.10757321620E+01  0.12049922925E+02  0.12273942364E+02  0.51100000000E-03 0. -1.
        -11    1    3    3    0    0 -0.16213056950E+01 -0.11093369806E+01  0.81097718759E+01  0.83443190754E+01  0.51100000000E-03 0.  1.
         12    1    3    3    0    0 -0.65605776631E+01 -0.12885879927E+02  0.21033078541E+02  0.25524056764E+02  0.00000000000E+00 0. -1.
</event>
<event>
 7    1  0.2001181E-008  0.4614232E+02  0.7816164E-02  0.1320468E+00
        -11   -1    0    0    0    0  0.00000000000E+00  0.00000000000E+00  0.45593999997E+02  0.45594000000E+02  0.51100000000E-03 0.  1.
         11   -1    0    0    0    0 -0.00000000000E+00 -0.00000000000E+00 -0.45593999997E+02  0.45594000000E+02  0.51100000000E-03 0. -1.
    9900012    2    1    2    0    0 -0.29791757425E+02 -0.33420500202E+02  0.49633449583E+01  0.46142318327E+02  0.10000005158E+02 0.  0.
        -12    1    1    2    0    0  0.29791757425E+02  0.33420500202E+02 -0.49633449583E+01  0.45045681673E+02  0.00000000000E+00 0.  1.
         11    1    3    3    0    0 -0.15744965070E+01 -0.45794132802E+01  0.18016534336E+01  0.51668191953E+01  0.51100000000E-03 0. -1.
        -11    1    3    3    0    0 -0.41926491181E+01 -0.80718214755E+01  0.71142799249E+00  0.91235266542E+01  0.51100000000E-03 0.  1.
         12    1    3    3    0    0 -0.24024611800E+02 -0.20769265447E+02  0.24502635322E+01  0.31851972477E+02  0.00000000000E+00 0. -1.
</event>
<event>
 7    1  0.2001181E-008  0.4614232E+02  0.7816164E-02  0.1320468E+00
        -11   -1    0    0    0    0  0.00000000000E+00  0.00000000000E+00  0.45593999997E+02  0.45594000000E+02  0.51100000000E-03 0.  1.
         11   -1    0    0    0    0 -0.00000000000E+00 -0.00000000000E+00 -0.45593999997E+02  0.45594000000E+02  0.51100000000E-03 0. -1.
    9900012    2    1    2    0    0  0.18476735703E+02 -0.40522444567E+02 -0.67568630040E+01  0.46142317926E+02  0.10000001500E+02 0.  0.
        -12    1    1    2    0    0 -0.18476735703E+02  0.40522444567E+02  0.67568630040E+01  0.45045682074E+02  0.00000000000E+00 0.  1.
         11    1    3    3    0    0  0.37779294815E+01 -0.57384893243E+01 -0.34021520816E+01  0.76666583294E+01  0.51100000000E-03 0. -1.
        -11    1    3    3    0    0  0.53662428226E+01 -0.93676862511E+01 -0.36571436418E+01  0.11398456370E+02  0.51100000000E-03 0.  1.
        -12    1    3    3    0    0  0.93325633987E+01 -0.25416268991E+02  0.30243271933E+00  0.27077203227E+02  0.00000000000E+00 0.  1.
</event>
<event>
 7    1  0.2001181E-008  0.4614232E+02  0.7816164E-02  0.1320468E+00
        -11   -1    0    0    0    0  0.00000000000E+00  0.00000000000E+00  0.45593999997E+02  0.45594000000E+02  0.51100000000E-03 0. -1.
         11   -1    0    0    0    0 -0.00000000000E+00 -0.00000000000E+00 -0.45593999997E+02  0.45594000000E+02  0.51100000000E-03 0.  1.
    9900012    2    1    2    0    0  0.32668887594E+02 -0.28371439748E+02  0.12526718414E+02  0.46142317807E+02  0.10000000419E+02 0.  0.
        -12    1    1    2    0    0 -0.32668887594E+02  0.28371439748E+02 -0.12526718414E+02  0.45045682193E+02  0.00000000000E+00 0.  1.
         11    1    3    3    0    0  0.14048060141E+02 -0.10937493694E+02  0.40677194099E+01  0.18262614914E+02  0.51100000000E-03 0. -1.
        -11    1    3    3    0    0  0.15197935698E+02 -0.17046226620E+02  0.86714731331E+01  0.24428375673E+02  0.51100000000E-03 0.  1.
        -12    1    3    3    0    0  0.34228917549E+01 -0.38771943371E+00 -0.21247412866E+00  0.34513272201E+01  0.00000000000E+00 0.  1.
</event>
<event>
 7    1  0.2001181E-008  0.4614232E+02  0.7816164E-02  0.1320468E+00
        -11   -1    0    0    0    0  0.00000000000E+00  0.00000000000E+00  0.45593999997E+02  0.45594000000E+02  0.51100000000E-03 0.  1.
         11   -1    0    0    0    0 -0.00000000000E+00 -0.00000000000E+00 -0.45593999997E+02  0.45594000000E+02  0.51100000000E-03 0. -1.
    9900012    2    1    2    0    0  0.11431948030E+02  0.15698149921E+02 -0.40644707198E+02  0.46142316856E+02  0.99999917465E+01 0.  0.
        -12    1    1    2    0    0 -0.11431948030E+02 -0.15698149921E+02  0.40644707198E+02  0.45045683144E+02  0.00000000000E+00 0.  1.
         11    1    3    3    0    0  0.83756470689E+01  0.12775966799E+02 -0.26199193102E+02  0.30327784472E+02  0.51100000000E-03 0. -1.
        -11    1    3    3    0    0  0.23631125221E+00  0.28856661045E+01 -0.10933270890E+02  0.11310142549E+02  0.51100000000E-03 0.  1.
        -12    1    3    3    0    0  0.28199897087E+01  0.36517017164E-01 -0.35122432057E+01  0.45043898350E+01  0.00000000000E+00 0.  1.
</event>
<event>
 7    1  0.2001181E-008  0.4614232E+02  0.7816164E-02  0.1320468E+00
        -11   -1    0    0    0    0  0.00000000000E+00  0.00000000000E+00  0.45593999997E+02  0.45594000000E+02  0.51100000000E-03 0.  1.
         11   -1    0    0    0    0 -0.00000000000E+00 -0.00000000000E+00 -0.45593999997E+02  0.45594000000E+02  0.51100000000E-03 0. -1.
    9900012    2    1    2    0    0  0.16148779435E+02  0.41914889516E+02  0.33871016897E+01  0.46142317652E+02  0.99999990026E+01 0.  0.
        -12    1    1    2    0    0 -0.16148779435E+02 -0.41914889516E+02 -0.33871016897E+01  0.45045682348E+02  0.00000000000E+00 0.  1.
         11    1    3    3    0    0  0.58144652358E+01  0.79472451122E+01 -0.21758064899E+01  0.10084683683E+02  0.51100000000E-03 0.  1.
        -11    1    3    3    0    0  0.47358282289E+01  0.11932621869E+02  0.10675851325E+01  0.12882362825E+02  0.51100000000E-03 0. -1.
        -12    1    3    3    0    0  0.55984859701E+01  0.22035022535E+02  0.44953230471E+01  0.23175271143E+02  0.00000000000E+00 0.  1.
</event>
<event>
 7    1  0.2001181E-008  0.4614232E+02  0.7816164E-02  0.1320468E+00
        -11   -1    0    0    0    0  0.00000000000E+00  0.00000000000E+00  0.45593999997E+02  0.45594000000E+02  0.51100000000E-03 0.  1.
         11   -1    0    0    0    0 -0.00000000000E+00 -0.00000000000E+00 -0.45593999997E+02  0.45594000000E+02  0.51100000000E-03 0. -1.
    9900012    2    1    2    0    0 -0.30080824751E+02  0.16213877489E+02 -0.29349065459E+02  0.46142317807E+02  0.10000000417E+02 0.  0.
        -12    1    1    2    0    0  0.30080824751E+02 -0.16213877489E+02  0.29349065459E+02  0.45045682193E+02  0.00000000000E+00 0.  1.
         11    1    3    3    0    0 -0.24340878181E+02  0.11875374203E+02 -0.23485732378E+02  0.35848047209E+02  0.51100000000E-03 0. -1.
        -11    1    3    3    0    0 -0.54406889459E+01  0.23451502887E+01 -0.26255230879E+01  0.64802930357E+01  0.51100000000E-03 0.  1.
         12    1    3    3    0    0 -0.29925762457E+00  0.19933529965E+01 -0.32378099933E+01  0.38139775625E+01  0.00000000000E+00 0. -1.
</event>
<event>
 7    1  0.2001181E-008  0.4614232E+02  0.7816164E-02  0.1320468E+00
        -11   -1    0    0    0    0  0.00000000000E+00  0.00000000000E+00  0.45593999997E+02  0.45594000000E+02  0.51100000000E-03 0. -1.
         11   -1    0    0    0    0 -0.00000000000E+00 -0.00000000000E+00 -0.45593999997E+02  0.45594000000E+02  0.51100000000E-03 0.  1.
    9900012    2    1    2    0    0 -0.40430457828E+02 -0.18435865120E+02  0.73898837168E+01  0.46142318473E+02  0.10000006491E+02 0.  0.
        -12    1    1    2    0    0  0.40430457828E+02  0.18435865120E+02 -0.73898837168E+01  0.45045681527E+02  0.00000000000E+00 0.  1.
         11    1    3    3    0    0 -0.19526156093E+02 -0.11458251594E+02  0.30533859296E+01  0.22844812699E+02  0.51100000000E-03 0. -1.
        -11    1    3    3    0    0 -0.84712401900E+00 -0.77041555636E+00 -0.11227463923E+01  0.16036579921E+01  0.51100000000E-03 0.  1.
        -12    1    3    3    0    0 -0.20057177716E+02 -0.62071979692E+01  0.54592441795E+01  0.21693847782E+02  0.00000000000E+00 0.  1.
</event>
<event>
 7    1  0.2001181E-008  0.4614232E+02  0.7816164E-02  0.1320468E+00
        -11   -1    0    0    0    0  0.00000000000E+00  0.00000000000E+00  0.45593999997E+02  0.45594000000E+02  0.51100000000E-03 0.  1.
         11   -1    0    0    0    0 -0.00000000000E+00 -0.00000000000E+00 -0.45593999997E+02  0.45594000000E+02  0.51100000000E-03 0. -1.
    9900012    2    1    2    0    0  0.28185428341E+01  0.35516169481E+02 -0.27563943418E+02  0.46142318131E+02  0.10000003371E+02 0.  0.
        -12    1    1    2    0    0 -0.28185428341E+01 -0.35516169481E+02  0.27563943418E+02  0.45045681869E+02  0.00000000000E+00 0.  1.
         11    1    3    3    0    0 -0.45220068868E+00  0.64589795052E+01 -0.17247570252E+01  0.67005737642E+01  0.51100000000E-03 0. -1.
        -11    1    3    3    0    0 -0.14596353627E+01  0.56468397473E+01 -0.62869767328E+01  0.85757455200E+01  0.51100000000E-03 0.  1.
         12    1    3    3    0    0  0.47303788854E+01  0.23410350229E+02 -0.19552209660E+02  0.30865998847E+02  0.00000000000E+00 0. -1.
</event>
<event>
 7    1  0.2001181E-008  0.4614232E+02  0.7816164E-02  0.1320468E+00
        -11   -1    0    0    0    0  0.00000000000E+00  0.00000000000E+00  0.45593999997E+02  0.45594000000E+02  0.51100000000E-03 0.  1.
         11   -1    0    0    0    0 -0.00000000000E+00 -0.00000000000E+00 -0.45593999997E+02  0.45594000000E+02  0.51100000000E-03 0. -1.
    9900012    2    1    2    0    0 -0.12974024284E+02  0.10602265437E+01 -0.43123822912E+02  0.46142317754E+02  0.99999999368E+01 0.  0.
        -12    1    1    2    0    0  0.12974024284E+02 -0.10602265437E+01  0.43123822912E+02  0.45045682246E+02  0.00000000000E+00 0.  1.
         11    1    3    3    0    0 -0.27101908546E+01 -0.47543265975E-01 -0.45599968041E+01  0.53048059291E+01  0.51100000000E-03 0. -1.
        -11    1    3    3    0    0 -0.67450929233E+01  0.46359760979E+00 -0.10126607893E+02  0.12176181215E+02  0.51100000000E-03 0.  1.
         12    1    3    3    0    0 -0.35187405061E+01  0.64417219989E+00 -0.28437218215E+02  0.28661330610E+02  0.00000000000E+00 0. -1.
</event>
<event>
 7    1  0.2001181E-008  0.4614231E+02  0.7816164E-02  0.1320468E+00
        -11   -1    0    0    0    0  0.00000000000E+00  0.00000000000E+00  0.45593999997E+02  0.45594000000E+02  0.51100000000E-03 0.  1.
         11   -1    0    0    0    0 -0.00000000000E+00 -0.00000000000E+00 -0.45593999997E+02  0.45594000000E+02  0.51100000000E-03 0. -1.
    9900012    2    1    2    0    0  0.39512330709E+02  0.33924495282E+01 -0.21363072520E+02  0.46142313643E+02  0.99999624498E+01 0.  0.
        -12    1    1    2    0    0 -0.39512330709E+02 -0.33924495282E+01  0.21363072520E+02  0.45045686357E+02  0.00000000000E+00 0.  1.
         11    1    3    3    0    0  0.11046557265E+02  0.25289248737E+01 -0.30956310701E+01  0.11747545293E+02  0.51100000000E-03 0. -1.
        -11    1    3    3    0    0  0.11198569581E+02 -0.24581269434E+01 -0.58743385730E+01  0.12882476573E+02  0.51100000000E-03 0.  1.
         12    1    3    3    0    0  0.17267203863E+02  0.33216515979E+01 -0.12393102877E+02  0.21512291777E+02  0.00000000000E+00 0. -1.
</event>
<event>
 7    1  0.2001181E-008  0.4614232E+02  0.7816164E-02  0.1320468E+00
        -11   -1    0    0    0    0  0.00000000000E+00  0.00000000000E+00  0.45593999997E+02  0.45594000000E+02  0.51100000000E-03 0. -1.
         11   -1    0    0    0    0 -0.00000000000E+00 -0.00000000000E+00 -0.45593999997E+02  0.45594000000E+02  0.51100000000E-03 0.  1.
    9900012    2    1    2    0    0 -0.29509134844E+02  0.58275605834E+01  0.33531533885E+02  0.46142320226E+02  0.10000022478E+02 0.  0.
        -12    1    1    2    0    0  0.29509134844E+02 -0.58275605834E+01 -0.33531533885E+02  0.45045679774E+02  0.00000000000E+00 0.  1.
         11    1    3    3    0    0 -0.22693081757E+02  0.74281654808E+01  0.24849943441E+02  0.34462636163E+02  0.51100000000E-03 0.  1.
        -11    1    3    3    0    0 -0.70381249400E+01 -0.93289379664E+00  0.80575548270E+01  0.10739165869E+02  0.51100000000E-03 0. -1.
        -12    1    3    3    0    0  0.22207185284E+00 -0.66771110066E+00  0.62403561708E+00  0.94051819395E+00  0.00000000000E+00 0.  1.
</event>
<event>
 7    1  0.2001181E-008  0.4614232E+02  0.7816164E-02  0.1320468E+00
        -11   -1    0    0    0    0  0.00000000000E+00  0.00000000000E+00  0.45593999997E+02  0.45594000000E+02  0.51100000000E-03 0. -1.
         11   -1    0    0    0    0 -0.00000000000E+00 -0.00000000000E+00 -0.45593999997E+02  0.45594000000E+02  0.51100000000E-03 0.  1.
    9900012    2    1    2    0    0  0.10100998496E+02 -0.19200256234E+02  0.39476998570E+02  0.46142318451E+02  0.10000006294E+02 0.  0.
        -12    1    1    2    0    0 -0.10100998496E+02  0.19200256234E+02 -0.39476998570E+02  0.45045681549E+02  0.00000000000E+00 0.  1.
         11    1    3    3    0    0  0.84602708497E+01 -0.14910197296E+02  0.30662101817E+02  0.35129114056E+02  0.51100000000E-03 0. -1.
        -11    1    3    3    0    0  0.31358074343E+01 -0.18024878066E+01  0.40136888770E+01  0.54029574513E+01  0.51100000000E-03 0.  1.
         12    1    3    3    0    0 -0.14950797875E+01 -0.24875711312E+01  0.48012078760E+01  0.56102469440E+01  0.00000000000E+00 0. -1.
</event>
<event>
 7    1  0.2001181E-008  0.4614232E+02  0.7816164E-02  0.1320468E+00
        -11   -1    0    0    0    0  0.00000000000E+00  0.00000000000E+00  0.45593999997E+02  0.45594000000E+02  0.51100000000E-03 0.  1.
         11   -1    0    0    0    0 -0.00000000000E+00 -0.00000000000E+00 -0.45593999997E+02  0.45594000000E+02  0.51100000000E-03 0. -1.
    9900012    2    1    2    0    0 -0.36546245411E+02 -0.17589386009E+02 -0.19598442823E+02  0.46142317466E+02  0.99999973095E+01 0.  0.
        -12    1    1    2    0    0  0.36546245411E+02  0.17589386009E+02  0.19598442823E+02  0.45045682534E+02  0.00000000000E+00 0.  1.
         11    1    3    3    0    0 -0.18738586886E+02 -0.87215007901E+01 -0.62805554675E+01  0.21601958054E+02  0.51100000000E-03 0. -1.
        -11    1    3    3    0    0 -0.16705289000E+02 -0.64310796218E+01 -0.11072085073E+02  0.21047957948E+02  0.51100000000E-03 0.  1.
         12    1    3    3    0    0 -0.11023695252E+01 -0.24368055975E+01 -0.22458022832E+01  0.34924014639E+01  0.00000000000E+00 0. -1.
</event>
<event>
 7    1  0.2001181E-008  0.4614232E+02  0.7816164E-02  0.1320468E+00
        -11   -1    0    0    0    0  0.00000000000E+00  0.00000000000E+00  0.45593999997E+02  0.45594000000E+02  0.51100000000E-03 0. -1.
         11   -1    0    0    0    0 -0.00000000000E+00 -0.00000000000E+00 -0.45593999997E+02  0.45594000000E+02  0.51100000000E-03 0.  1.
    9900012    2    1    2    0    0  0.25914481979E+02 -0.36610138605E+02 -0.41534109367E+01  0.46142318217E+02  0.10000004154E+02 0.  0.
        -12    1    1    2    0    0 -0.25914481979E+02  0.36610138605E+02  0.41534109367E+01  0.45045681783E+02  0.00000000000E+00 0.  1.
         11    1    3    3    0    0  0.87598132417E+01 -0.10939029576E+02 -0.48981918731E+01  0.14845503696E+02  0.51100000000E-03 0. -1.
        -11    1    3    3    0    0  0.44659401165E+01 -0.46721457366E+01 -0.15753896484E+01  0.66524747060E+01  0.51100000000E-03 0.  1.
        -12    1    3    3    0    0  0.12688728620E+02 -0.20998963293E+02  0.23201705849E+01  0.24644339815E+02  0.00000000000E+00 0.  1.
</event>
<event>
 7    1  0.2001181E-008  0.4614232E+02  0.7816164E-02  0.1320468E+00
        -11   -1    0    0    0    0  0.00000000000E+00  0.00000000000E+00  0.45593999997E+02  0.45594000000E+02  0.51100000000E-03 0.  1.
         11   -1    0    0    0    0 -0.00000000000E+00 -0.00000000000E+00 -0.45593999997E+02  0.45594000000E+02  0.51100000000E-03 0. -1.
    9900012    2    1    2    0    0  0.23512744477E+02  0.38002244218E+02 -0.56651325246E+01  0.46142318242E+02  0.10000004387E+02 0.  0.
        -12    1    1    2    0    0 -0.23512744477E+02 -0.38002244218E+02  0.56651325246E+01  0.45045681758E+02  0.00000000000E+00 0.  1.
         11    1    3    3    0    0  0.37101192339E+01  0.12324209988E+01 -0.56182523465E+00  0.39496194884E+01  0.51100000000E-03 0. -1.
        -11    1    3    3    0    0  0.34704647142E+01  0.42759277417E+01 -0.95768034747E+00  0.55897079793E+01  0.51100000000E-03 0.  1.
        -12    1    3    3    0    0  0.16332160529E+02  0.32493895478E+02 -0.41456269425E+01  0.36602990775E+02  0.00000000000E+00 0.  1.
</event>
<event>
 7    1  0.2001181E-008  0.4614232E+02  0.7816164E-02  0.1320468E+00
        -11   -1    0    0    0    0  0.00000000000E+00  0.00000000000E+00  0.45593999997E+02  0.45594000000E+02  0.51100000000E-03 0. -1.
         11   -1    0    0    0    0 -0.00000000000E+00 -0.00000000000E+00 -0.45593999997E+02  0.45594000000E+02  0.51100000000E-03 0.  1.
    9900012    2    1    2    0    0  0.34305173932E+02  0.29017198840E+02 -0.32047976830E+01  0.46142317463E+02  0.99999972810E+01 0.  0.
        -12    1    1    2    0    0 -0.34305173932E+02 -0.29017198840E+02  0.32047976830E+01  0.45045682537E+02  0.00000000000E+00 0.  1.
         11    1    3    3    0    0  0.80989329549E+01  0.79008881650E+01 -0.33871074972E+01  0.11810556560E+02  0.51100000000E-03 0. -1.
        -11    1    3    3    0    0  0.29657776249E+01  0.36333106639E+00  0.10356084523E+01  0.31623300764E+01  0.51100000000E-03 0.  1.
         12    1    3    3    0    0  0.23240463352E+02  0.20752979609E+02 -0.85329863814E+00  0.31169430826E+02  0.00000000000E+00 0. -1.
</event>
<event>
 7    1  0.2001181E-008  0.4614232E+02  0.7816164E-02  0.1320468E+00
        -11   -1    0    0    0    0  0.00000000000E+00  0.00000000000E+00  0.45593999997E+02  0.45594000000E+02  0.51100000000E-03 0. -1.
         11   -1    0    0    0    0 -0.00000000000E+00 -0.00000000000E+00 -0.45593999997E+02  0.45594000000E+02  0.51100000000E-03 0.  1.
    9900012    2    1    2    0    0  0.41394011181E+02 -0.17529510591E+02 -0.28923373307E+01  0.46142317427E+02  0.99999969547E+01 0.  0.
        -12    1    1    2    0    0 -0.41394011181E+02  0.17529510591E+02  0.28923373307E+01  0.45045682573E+02  0.00000000000E+00 0.  1.
         11    1    3    3    0    0  0.33567198290E+02 -0.17896340824E+02 -0.28040967816E+01  0.38143135358E+02  0.51100000000E-03 0. -1.
        -11    1    3    3    0    0  0.73855911162E+00  0.39802965713E+00  0.32282285012E+00  0.89895051198E+00  0.51100000000E-03 0.  1.
         12    1    3    3    0    0  0.70882537793E+01 -0.31199424262E-01 -0.41106339920E+00  0.71002315570E+01  0.00000000000E+00 0. -1.
</event>
<event>
 7    1  0.2001181E-008  0.4614232E+02  0.7816164E-02  0.1320468E+00
        -11   -1    0    0    0    0  0.00000000000E+00  0.00000000000E+00  0.45593999997E+02  0.45594000000E+02  0.51100000000E-03 0. -1.
         11   -1    0    0    0    0 -0.00000000000E+00 -0.00000000000E+00 -0.45593999997E+02  0.45594000000E+02  0.51100000000E-03 0.  1.
    9900012    2    1    2    0    0 -0.29147183972E+02 -0.18413864986E+01  0.34295252777E+02  0.46142318733E+02  0.10000008867E+02 0.  0.
        -12    1    1    2    0    0  0.29147183972E+02  0.18413864986E+01 -0.34295252777E+02  0.45045681267E+02  0.00000000000E+00 0.  1.
         11    1    3    3    0    0 -0.24809670683E+02  0.19522962828E+01  0.29812930228E+02  0.38834804354E+02  0.51100000000E-03 0. -1.
        -11    1    3    3    0    0 -0.15068079336E+01 -0.15073751863E+01  0.15807411478E+01  0.26535623110E+01  0.51100000000E-03 0.  1.
         12    1    3    3    0    0 -0.28307053559E+01 -0.22863075951E+01  0.29015814011E+01  0.46539520688E+01  0.00000000000E+00 0. -1.
</event>
<event>
 7    1  0.2001181E-008  0.4614232E+02  0.7816164E-02  0.1320468E+00
        -11   -1    0    0    0    0  0.00000000000E+00  0.00000000000E+00  0.45593999997E+02  0.45594000000E+02  0.51100000000E-03 0.  1.
         11   -1    0    0    0    0 -0.00000000000E+00 -0.00000000000E+00 -0.45593999997E+02  0.45594000000E+02  0.51100000000E-03 0. -1.
    9900012    2    1    2    0    0  0.15604452320E+02  0.42150268193E+02  0.29948989601E+01  0.46142318068E+02  0.10000002801E+02 0.  0.
        -12    1    1    2    0    0 -0.15604452320E+02 -0.42150268193E+02 -0.29948989601E+01  0.45045681932E+02  0.00000000000E+00 0.  1.
         11    1    3    3    0    0  0.44251073061E+01  0.22814071707E+02  0.41447058529E+01  0.23605974443E+02  0.51100000000E-03 0. -1.
        -11    1    3    3    0    0  0.17603624121E+01  0.54501788876E+01 -0.22995219346E+00  0.57320331473E+01  0.51100000000E-03 0.  1.
        -12    1    3    3    0    0  0.94189826015E+01  0.13886017598E+02 -0.91985469934E+00  0.16804310478E+02  0.00000000000E+00 0.  1.
</event>
<event>
 7    1  0.2001181E-008  0.4614232E+02  0.7816164E-02  0.1320468E+00
        -11   -1    0    0    0    0  0.00000000000E+00  0.00000000000E+00  0.45593999997E+02  0.45594000000E+02  0.51100000000E-03 0.  1.
         11   -1    0    0    0    0 -0.00000000000E+00 -0.00000000000E+00 -0.45593999997E+02  0.45594000000E+02  0.51100000000E-03 0. -1.
    9900012    2    1    2    0    0 -0.86267455454E+01 -0.12808195453E+02 -0.42315989425E+02  0.46142316849E+02  0.99999916856E+01 0.  0.
        -12    1    1    2    0    0  0.86267455454E+01  0.12808195453E+02  0.42315989425E+02  0.45045683151E+02  0.00000000000E+00 0.  1.
         11    1    3    3    0    0 -0.34450472288E+01 -0.11189846974E+02 -0.28029377661E+02  0.30376422403E+02  0.51100000000E-03 0. -1.
        -11    1    3    3    0    0 -0.13190145037E+01 -0.74954473249E+00 -0.81010791548E+00  0.17198522212E+01  0.51100000000E-03 0.  1.
         12    1    3    3    0    0 -0.38626838129E+01 -0.86880374657E+00 -0.13476503849E+02  0.14046042225E+02  0.00000000000E+00 0. -1.
</event>
<event>
 7    1  0.2001181E-008  0.4614232E+02  0.7816164E-02  0.1320468E+00
        -11   -1    0    0    0    0  0.00000000000E+00  0.00000000000E+00  0.45593999997E+02  0.45594000000E+02  0.51100000000E-03 0. -1.
         11   -1    0    0    0    0 -0.00000000000E+00 -0.00000000000E+00 -0.45593999997E+02  0.45594000000E+02  0.51100000000E-03 0.  1.
    9900012    2    1    2    0    0 -0.43203690926E+02 -0.17745117980E+01  0.12625596153E+02  0.46142317854E+02  0.10000000845E+02 0.  0.
        -12    1    1    2    0    0  0.43203690926E+02  0.17745117980E+01 -0.12625596153E+02  0.45045682146E+02  0.00000000000E+00 0.  1.
         11    1    3    3    0    0 -0.24082054390E+02 -0.51401901391E+01  0.67474643070E+01  0.25532237918E+02  0.51100000000E-03 0. -1.
        -11    1    3    3    0    0 -0.11845047899E+02  0.34052028490E+01  0.24484805729E+01  0.12565652532E+02  0.51100000000E-03 0.  1.
         12    1    3    3    0    0 -0.72765886378E+01 -0.39524507930E-01  0.34296512736E+01  0.80444274034E+01  0.00000000000E+00 0. -1.
</event>
<event>
 7    1  0.2001181E-008  0.4614231E+02  0.7816164E-02  0.1320468E+00
        -11   -1    0    0    0    0  0.00000000000E+00  0.00000000000E+00  0.45593999997E+02  0.45594000000E+02  0.51100000000E-03 0.  1.
         11   -1    0    0    0    0 -0.00000000000E+00 -0.00000000000E+00 -0.45593999997E+02  0.45594000000E+02  0.51100000000E-03 0. -1.
    9900012    2    1    2    0    0  0.36587808728E+02 -0.43403378342E+01 -0.25915399385E+02  0.46142309804E+02  0.99999274367E+01 0.  0.
        -12    1    1    2    0    0 -0.36587808728E+02  0.43403378342E+01  0.25915399385E+02  0.45045690196E+02  0.00000000000E+00 0.  1.
         11    1    3    3    0    0  0.13894272469E+02 -0.52581213227E+01 -0.66625877794E+01  0.16281545487E+02  0.51100000000E-03 0. -1.
        -11    1    3    3    0    0  0.73470363657E+01  0.13359257630E+01 -0.59914861088E+01  0.95740037109E+01  0.51100000000E-03 0.  1.
         12    1    3    3    0    0  0.15346499893E+02 -0.41814227445E+00 -0.13261325496E+02  0.20286760605E+02  0.00000000000E+00 0. -1.
</event>
<event>
 7    1  0.2001181E-008  0.4614232E+02  0.7816164E-02  0.1320468E+00
        -11   -1    0    0    0    0  0.00000000000E+00  0.00000000000E+00  0.45593999997E+02  0.45594000000E+02  0.51100000000E-03 0.  1.
         11   -1    0    0    0    0 -0.00000000000E+00 -0.00000000000E+00 -0.45593999997E+02  0.45594000000E+02  0.51100000000E-03 0. -1.
    9900012    2    1    2    0    0 -0.44491781549E+02 -0.69306644910E+01 -0.12493162568E+01  0.46142317334E+02  0.99999961078E+01 0.  0.
        -12    1    1    2    0    0  0.44491781549E+02  0.69306644910E+01  0.12493162568E+01  0.45045682666E+02  0.00000000000E+00 0.  1.
         11    1    3    3    0    0 -0.22053020552E+02 -0.53139002274E+01 -0.40166093930E+01  0.23037065837E+02  0.51100000000E-03 0. -1.
        -11    1    3    3    0    0 -0.63960257366E+01 -0.19377426098E+01  0.22474461432E+01  0.70508868997E+01  0.51100000000E-03 0.  1.
         12    1    3    3    0    0 -0.16042735260E+02  0.32097834618E+00  0.51984699304E+00  0.16054364597E+02  0.00000000000E+00 0. -1.
</event>
<event>
 7    1  0.2001181E-008  0.4614232E+02  0.7816164E-02  0.1320468E+00
        -11   -1    0    0    0    0  0.00000000000E+00  0.00000000000E+00  0.45593999997E+02  0.45594000000E+02  0.51100000000E-03 0.  1.
         11   -1    0    0    0    0 -0.00000000000E+00 -0.00000000000E+00 -0.45593999997E+02  0.45594000000E+02  0.51100000000E-03 0. -1.
    9900012    2    1    2    0    0 -0.78063603320E+00 -0.41529802121E+02 -0.17429275662E+02  0.46142317555E+02  0.99999981229E+01 0.  0.
        -12    1    1    2    0    0  0.78063603320E+00  0.41529802121E+02  0.17429275662E+02  0.45045682445E+02  0.00000000000E+00 0.  1.
         11    1    3    3    0    0 -0.47001928225E+01 -0.15114450513E+02 -0.73132971452E+01  0.17436247941E+02  0.51100000000E-03 0. -1.
        -11    1    3    3    0    0  0.33725227654E+01 -0.25189833348E+02 -0.10142613786E+02  0.27363739302E+02  0.51100000000E-03 0.  1.
         12    1    3    3    0    0  0.54703402391E+00 -0.12255182599E+01  0.26635269837E-01  0.13423303119E+01  0.00000000000E+00 0. -1.
</event>
<event>
 7    1  0.2001181E-008  0.4614233E+02  0.7816164E-02  0.1320468E+00
        -11   -1    0    0    0    0  0.00000000000E+00  0.00000000000E+00  0.45593999997E+02  0.45594000000E+02  0.51100000000E-03 0.  1.
         11   -1    0    0    0    0 -0.00000000000E+00 -0.00000000000E+00 -0.45593999997E+02  0.45594000000E+02  0.51100000000E-03 0. -1.
    9900012    2    1    2    0    0  0.73228514717E+01  0.33662530779E+02 -0.29022790111E+02  0.46142328977E+02  0.10000102273E+02 0.  0.
        -12    1    1    2    0    0 -0.73228514717E+01 -0.33662530779E+02  0.29022790111E+02  0.45045671023E+02  0.00000000000E+00 0.  1.
         11    1    3    3    0    0  0.40144612292E+00  0.19572737241E+02 -0.19890643271E+02  0.27908616808E+02  0.51100000000E-03 0. -1.
        -11    1    3    3    0    0  0.45453674127E+01  0.79779581573E+01 -0.46630596078E+01  0.10298170053E+02  0.51100000000E-03 0.  1.
        -12    1    3    3    0    0  0.23760379361E+01  0.61118353806E+01 -0.44690872314E+01  0.79355421160E+01  0.00000000000E+00 0.  1.
</event>
<event>
 7    1  0.2001181E-008  0.4614232E+02  0.7816164E-02  0.1320468E+00
        -11   -1    0    0    0    0  0.00000000000E+00  0.00000000000E+00  0.45593999997E+02  0.45594000000E+02  0.51100000000E-03 0. -1.
         11   -1    0    0    0    0 -0.00000000000E+00 -0.00000000000E+00 -0.45593999997E+02  0.45594000000E+02  0.51100000000E-03 0.  1.
    9900012    2    1    2    0    0  0.43878784262E+02  0.92344412345E+01  0.43001129385E+01  0.46142316694E+02  0.99999902661E+01 0.  0.
        -12    1    1    2    0    0 -0.43878784262E+02 -0.92344412345E+01 -0.43001129385E+01  0.45045683306E+02  0.00000000000E+00 0.  1.
         11    1    3    3    0    0  0.28432995424E+02  0.67862936163E+01  0.72113953139E+01  0.30108026047E+02  0.51100000000E-03 0. -1.
        -11    1    3    3    0    0  0.29967791456E+01  0.11133960019E+00 -0.12899438035E+01  0.32645117600E+01  0.51100000000E-03 0.  1.
        -12    1    3    3    0    0  0.12449009693E+02  0.23368080180E+01 -0.16213385719E+01  0.12769778887E+02  0.00000000000E+00 0.  1.
</event>
<event>
 7    1  0.2001181E-008  0.4614232E+02  0.7816164E-02  0.1320468E+00
        -11   -1    0    0    0    0  0.00000000000E+00  0.00000000000E+00  0.45593999997E+02  0.45594000000E+02  0.51100000000E-03 0.  1.
         11   -1    0    0    0    0 -0.00000000000E+00 -0.00000000000E+00 -0.45593999997E+02  0.45594000000E+02  0.51100000000E-03 0. -1.
    9900012    2    1    2    0    0 -0.97170393597E+01  0.41679882887E+02  0.14052758418E+02  0.46142317515E+02  0.99999977579E+01 0.  0.
        -12    1    1    2    0    0  0.97170393597E+01 -0.41679882887E+02 -0.14052758418E+02  0.45045682485E+02  0.00000000000E+00 0.  1.
         11    1    3    3    0    0 -0.50263698297E+01  0.16379856662E+02  0.69908439020E+01  0.18505026254E+02  0.51100000000E-03 0. -1.
        -11    1    3    3    0    0 -0.21986780382E+01  0.15242437342E+02  0.57178640066E+00  0.15410808583E+02  0.51100000000E-03 0.  1.
        -12    1    3    3    0    0 -0.24919914919E+01  0.10057588883E+02  0.64901281152E+01  0.12226482679E+02  0.00000000000E+00 0.  1.
</event>
<event>
 7    1  0.2001181E-008  0.4614232E+02  0.7816164E-02  0.1320468E+00
        -11   -1    0    0    0    0  0.00000000000E+00  0.00000000000E+00  0.45593999997E+02  0.45594000000E+02  0.51100000000E-03 0.  1.
         11   -1    0    0    0    0 -0.00000000000E+00 -0.00000000000E+00 -0.45593999997E+02  0.45594000000E+02  0.51100000000E-03 0. -1.
    9900012    2    1    2    0    0 -0.78958430190E+01 -0.33209060705E+02 -0.29392635710E+02  0.46142322251E+02  0.10000040946E+02 0.  0.
        -12    1    1    2    0    0  0.78958430190E+01  0.33209060705E+02  0.29392635710E+02  0.45045677749E+02  0.00000000000E+00 0.  1.
         11    1    3    3    0    0 -0.26854067324E+01 -0.21658330767E+02 -0.15010145270E+02  0.26487717195E+02  0.51100000000E-03 0. -1.
        -11    1    3    3    0    0 -0.20145304134E+01 -0.92165877195E+01 -0.99088242015E+01  0.13681689197E+02  0.51100000000E-03 0.  1.
        -12    1    3    3    0    0 -0.31959058732E+01 -0.23341422186E+01 -0.44736662382E+01  0.59729158590E+01  0.00000000000E+00 0.  1.
</event>
<event>
 7    1  0.2001181E-008  0.4614232E+02  0.7816164E-02  0.1320468E+00
        -11   -1    0    0    0    0  0.00000000000E+00  0.00000000000E+00  0.45593999997E+02  0.45594000000E+02  0.51100000000E-03 0. -1.
         11   -1    0    0    0    0 -0.00000000000E+00 -0.00000000000E+00 -0.45593999997E+02  0.45594000000E+02  0.51100000000E-03 0.  1.
    9900012    2    1    2    0    0 -0.27163634521E+02 -0.30296811108E+02 -0.19322364680E+02  0.46142316738E+02  0.99999906680E+01 0.  0.
        -12    1    1    2    0    0  0.27163634521E+02  0.30296811108E+02  0.19322364680E+02  0.45045683262E+02  0.00000000000E+00 0.  1.
         11    1    3    3    0    0 -0.14499143916E+02 -0.12523368196E+02 -0.48027556287E+01  0.19751617330E+02  0.51100000000E-03 0. -1.
        -11    1    3    3    0    0 -0.14623233667E+01 -0.35898033420E+01 -0.17033373090E+01  0.42339622001E+01  0.51100000000E-03 0.  1.
         12    1    3    3    0    0 -0.11202167238E+02 -0.14183639571E+02 -0.12816271742E+02  0.22156737207E+02  0.00000000000E+00 0. -1.
</event>
<event>
 7    1  0.2001181E-008  0.4614232E+02  0.7816164E-02  0.1320468E+00
        -11   -1    0    0    0    0  0.00000000000E+00  0.00000000000E+00  0.45593999997E+02  0.45594000000E+02  0.51100000000E-03 0.  1.
         11   -1    0    0    0    0 -0.00000000000E+00 -0.00000000000E+00 -0.45593999997E+02  0.45594000000E+02  0.51100000000E-03 0. -1.
    9900012    2    1    2    0    0 -0.18364845004E+02 -0.11323607932E+01 -0.41116463551E+02  0.46142319320E+02  0.10000014212E+02 0.  0.
        -12    1    1    2    0    0  0.18364845004E+02  0.11323607932E+01  0.41116463551E+02  0.45045680680E+02  0.00000000000E+00 0.  1.
         11    1    3    3    0    0 -0.10898196070E+02 -0.24342217397E+01 -0.25608209468E+02  0.27937009601E+02  0.51100000000E-03 0. -1.
        -11    1    3    3    0    0 -0.38258461822E+01 -0.12012350990E+01 -0.32070438049E+01  0.51347049575E+01  0.51100000000E-03 0.  1.
         12    1    3    3    0    0 -0.36408027517E+01  0.25030960455E+01 -0.12301210279E+02  0.13070604761E+02  0.00000000000E+00 0. -1.
</event>
<event>
 7    1  0.2001181E-008  0.4614232E+02  0.7816164E-02  0.1320468E+00
        -11   -1    0    0    0    0  0.00000000000E+00  0.00000000000E+00  0.45593999997E+02  0.45594000000E+02  0.51100000000E-03 0.  1.
         11   -1    0    0    0    0 -0.00000000000E+00 -0.00000000000E+00 -0.45593999997E+02  0.45594000000E+02  0.51100000000E-03 0. -1.
    9900012    2    1    2    0    0  0.42490412409E+02 -0.14533940248E+02 -0.35274531266E+01  0.46142317727E+02  0.99999996925E+01 0.  0.
        -12    1    1    2    0    0 -0.42490412409E+02  0.14533940248E+02  0.35274531266E+01  0.45045682273E+02  0.00000000000E+00 0.  1.
         11    1    3    3    0    0  0.16445458858E+02 -0.60837944309E+01 -0.43916920854E+01  0.18076300267E+02  0.51100000000E-03 0. -1.
        -11    1    3    3    0    0  0.85363864035E+01 -0.40608438885E+00 -0.14194842395E+01  0.86631249055E+01  0.51100000000E-03 0.  1.
        -12    1    3    3    0    0  0.17508567148E+02 -0.80440614283E+01  0.22837231982E+01  0.19402892555E+02  0.00000000000E+00 0.  1.
</event>
<event>
 7    1  0.2001181E-008  0.4614232E+02  0.7816164E-02  0.1320468E+00
        -11   -1    0    0    0    0  0.00000000000E+00  0.00000000000E+00  0.45593999997E+02  0.45594000000E+02  0.51100000000E-03 0.  1.
         11   -1    0    0    0    0 -0.00000000000E+00 -0.00000000000E+00 -0.45593999997E+02  0.45594000000E+02  0.51100000000E-03 0. -1.
    9900012    2    1    2    0    0 -0.27706473296E+02 -0.15045535008E+02 -0.32172909111E+02  0.46142324661E+02  0.10000062914E+02 0.  0.
        -12    1    1    2    0    0  0.27706473296E+02  0.15045535008E+02  0.32172909111E+02  0.45045675339E+02  0.00000000000E+00 0.  1.
         11    1    3    3    0    0 -0.77894070744E+01 -0.58696808722E+01 -0.11288631342E+02  0.14918485646E+02  0.51100000000E-03 0. -1.
        -11    1    3    3    0    0 -0.59397765524E+01 -0.38970714984E+01 -0.11693853218E+02  0.13682628224E+02  0.51100000000E-03 0.  1.
         12    1    3    3    0    0 -0.13977289669E+02 -0.52787826371E+01 -0.91904245501E+01  0.17541210791E+02  0.00000000000E+00 0. -1.
</event>
<event>
 7    1  0.2001181E-008  0.4614232E+02  0.7816164E-02  0.1320468E+00
        -11   -1    0    0    0    0  0.00000000000E+00  0.00000000000E+00  0.45593999997E+02  0.45594000000E+02  0.51100000000E-03 0.  1.
         11   -1    0    0    0    0 -0.00000000000E+00 -0.00000000000E+00 -0.45593999997E+02  0.45594000000E+02  0.51100000000E-03 0. -1.
    9900012    2    1    2    0    0 -0.11079036920E+02  0.11295118512E+02 -0.42175687038E+02  0.46142319426E+02  0.10000015179E+02 0.  0.
        -12    1    1    2    0    0  0.11079036920E+02 -0.11295118512E+02  0.42175687038E+02  0.45045680574E+02  0.00000000000E+00 0.  1.
         11    1    3    3    0    0 -0.90502962350E+01  0.95729849174E+01 -0.38150733981E+02  0.40361224036E+02  0.51100000000E-03 0. -1.
        -11    1    3    3    0    0 -0.27300090427E+01  0.69188273676E+00 -0.33035346955E+01  0.43410819896E+01  0.51100000000E-03 0.  1.
        -12    1    3    3    0    0  0.70126835769E+00  0.10302508577E+01 -0.72141836176E+00  0.14400134000E+01  0.00000000000E+00 0.  1.
</event>
<event>
 7    1  0.2001181E-008  0.4614232E+02  0.7816164E-02  0.1320468E+00
        -11   -1    0    0    0    0  0.00000000000E+00  0.00000000000E+00  0.45593999997E+02  0.45594000000E+02  0.51100000000E-03 0.  1.
         11   -1    0    0    0    0 -0.00000000000E+00 -0.00000000000E+00 -0.45593999997E+02  0.45594000000E+02  0.51100000000E-03 0. -1.
    9900012    2    1    2    0    0  0.42345254232E+02 -0.75088757886E+01 -0.13401856562E+02  0.46142317290E+02  0.99999957007E+01 0.  0.
        -12    1    1    2    0    0 -0.42345254232E+02  0.75088757886E+01  0.13401856562E+02  0.45045682710E+02  0.00000000000E+00 0.  1.
         11    1    3    3    0    0  0.21844219407E+02 -0.30726570205E+01 -0.67335011315E+01  0.23064066867E+02  0.51100000000E-03 0. -1.
        -11    1    3    3    0    0  0.83921226495E+01  0.16313784483E+01 -0.26622848013E+01  0.89541542778E+01  0.51100000000E-03 0.  1.
        -12    1    3    3    0    0  0.12108912175E+02 -0.60675972164E+01 -0.40060706287E+01  0.14124096145E+02  0.00000000000E+00 0.  1.
</event>
<event>
 7    1  0.2001181E-008  0.4614232E+02  0.7816164E-02  0.1320468E+00
        -11   -1    0    0    0    0  0.00000000000E+00  0.00000000000E+00  0.45593999997E+02  0.45594000000E+02  0.51100000000E-03 0. -1.
         11   -1    0    0    0    0 -0.00000000000E+00 -0.00000000000E+00 -0.45593999997E+02  0.45594000000E+02  0.51100000000E-03 0.  1.
    9900012    2    1    2    0    0 -0.44909225688E+02  0.26565318345E+01  0.22842581633E+01  0.46142317092E+02  0.99999938973E+01 0.  0.
        -12    1    1    2    0    0  0.44909225688E+02 -0.26565318345E+01 -0.22842581633E+01  0.45045682908E+02  0.00000000000E+00 0.  1.
         11    1    3    3    0    0 -0.10203583824E+02  0.22990627358E+01  0.13634812950E+01  0.10547885751E+02  0.51100000000E-03 0. -1.
        -11    1    3    3    0    0 -0.20138980111E+02 -0.34587400415E+00  0.43652457384E+01  0.20609549227E+02  0.51100000000E-03 0.  1.
         12    1    3    3    0    0 -0.14566661754E+02  0.70334310290E+00 -0.34444688701E+01  0.14984882114E+02  0.00000000000E+00 0. -1.
</event>
<event>
 7    1  0.2001181E-008  0.4614232E+02  0.7816164E-02  0.1320468E+00
        -11   -1    0    0    0    0  0.00000000000E+00  0.00000000000E+00  0.45593999997E+02  0.45594000000E+02  0.51100000000E-03 0.  1.
         11   -1    0    0    0    0 -0.00000000000E+00 -0.00000000000E+00 -0.45593999997E+02  0.45594000000E+02  0.51100000000E-03 0. -1.
    9900012    2    1    2    0    0  0.15356130728E+02  0.25851424063E+02 -0.33541119823E+02  0.46142316566E+02  0.99999891053E+01 0.  0.
        -12    1    1    2    0    0 -0.15356130728E+02 -0.25851424063E+02  0.33541119823E+02  0.45045683434E+02  0.00000000000E+00 0.  1.
         11    1    3    3    0    0  0.41962121973E+01  0.54657452485E+01 -0.80560520237E+01  0.10601063267E+02  0.51100000000E-03 0. -1.
        -11    1    3    3    0    0  0.18747790171E+01  0.10013321812E+02 -0.14914437775E+02  0.18061613009E+02  0.51100000000E-03 0.  1.
        -12    1    3    3    0    0  0.92851395132E+01  0.10372357003E+02 -0.10570630025E+02  0.17479640291E+02  0.00000000000E+00 0.  1.
</event>
<event>
 7    1  0.2001181E-008  0.4614232E+02  0.7816164E-02  0.1320468E+00
        -11   -1    0    0    0    0  0.00000000000E+00  0.00000000000E+00  0.45593999997E+02  0.45594000000E+02  0.51100000000E-03 0.  1.
         11   -1    0    0    0    0 -0.00000000000E+00 -0.00000000000E+00 -0.45593999997E+02  0.45594000000E+02  0.51100000000E-03 0. -1.
    9900012    2    1    2    0    0 -0.99260600015E+01 -0.12527639824E+02 -0.42114665720E+02  0.46142317683E+02  0.99999992897E+01 0.  0.
        -12    1    1    2    0    0  0.99260600015E+01  0.12527639824E+02  0.42114665720E+02  0.45045682317E+02  0.00000000000E+00 0.  1.
         11    1    3    3    0    0 -0.53133730823E+01 -0.22190504975E+01 -0.18925155626E+02  0.19781750032E+02  0.51100000000E-03 0.  1.
        -11    1    3    3    0    0  0.76468381170E+00 -0.14483867147E+01 -0.11366517819E+01  0.19936255771E+01  0.51100000000E-03 0. -1.
        -12    1    3    3    0    0 -0.53773707309E+01 -0.88602026119E+01 -0.22052858312E+02  0.24366942074E+02  0.00000000000E+00 0.  1.
</event>
<event>
 7    1  0.2001181E-008  0.4614232E+02  0.7816164E-02  0.1320468E+00
        -11   -1    0    0    0    0  0.00000000000E+00  0.00000000000E+00  0.45593999997E+02  0.45594000000E+02  0.51100000000E-03 0.  1.
         11   -1    0    0    0    0 -0.00000000000E+00 -0.00000000000E+00 -0.45593999997E+02  0.45594000000E+02  0.51100000000E-03 0. -1.
    9900012    2    1    2    0    0  0.70389583558E+01  0.24539997888E+02 -0.37112733769E+02  0.46142318310E+02  0.10000005009E+02 0.  0.
        -12    1    1    2    0    0 -0.70389583558E+01 -0.24539997888E+02  0.37112733769E+02  0.45045681690E+02  0.00000000000E+00 0.  1.
         11    1    3    3    0    0  0.28339639116E+01  0.49295736848E+01 -0.12584081101E+02  0.13809096479E+02  0.51100000000E-03 0. -1.
        -11    1    3    3    0    0  0.54709979826E+01  0.10980092388E+02 -0.12969658238E+02  0.17852346704E+02  0.51100000000E-03 0.  1.
        -12    1    3    3    0    0 -0.12660035384E+01  0.86303318148E+01 -0.11558994431E+02  0.14480875127E+02  0.00000000000E+00 0.  1.
</event>
<event>
 7    1  0.2001181E-008  0.4614232E+02  0.7816164E-02  0.1320468E+00
        -11   -1    0    0    0    0  0.00000000000E+00  0.00000000000E+00  0.45593999997E+02  0.45594000000E+02  0.51100000000E-03 0.  1.
         11   -1    0    0    0    0 -0.00000000000E+00 -0.00000000000E+00 -0.45593999997E+02  0.45594000000E+02  0.51100000000E-03 0. -1.
    9900012    2    1    2    0    0 -0.43568785737E+02  0.11324878519E+02 -0.16190958195E+01  0.46142318349E+02  0.10000005364E+02 0.  0.
        -12    1    1    2    0    0  0.43568785737E+02 -0.11324878519E+02  0.16190958195E+01  0.45045681651E+02  0.00000000000E+00 0.  1.
         11    1    3    3    0    0 -0.19778150591E+02  0.84158342672E+01 -0.44443191859E+00  0.21498814554E+02  0.51100000000E-03 0. -1.
        -11    1    3    3    0    0 -0.19313031222E+02  0.22316155553E+01 -0.31639081710E+01  0.19697299260E+02  0.51100000000E-03 0.  1.
         12    1    3    3    0    0 -0.44776039243E+01  0.67742869660E+00  0.19892442701E+01  0.49462045356E+01  0.00000000000E+00 0. -1.
</event>
<event>
 7    1  0.2001181E-008  0.4614232E+02  0.7816164E-02  0.1320468E+00
        -11   -1    0    0    0    0  0.00000000000E+00  0.00000000000E+00  0.45593999997E+02  0.45594000000E+02  0.51100000000E-03 0.  1.
         11   -1    0    0    0    0 -0.00000000000E+00 -0.00000000000E+00 -0.45593999997E+02  0.45594000000E+02  0.51100000000E-03 0. -1.
    9900012    2    1    2    0    0 -0.17115216705E+02  0.96760284035E+01 -0.40528475589E+02  0.46142317609E+02  0.99999986121E+01 0.  0.
        -12    1    1    2    0    0  0.17115216705E+02 -0.96760284035E+01  0.40528475589E+02  0.45045682391E+02  0.00000000000E+00 0.  1.
         11    1    3    3    0    0 -0.55205367681E+01  0.17126033876E+01 -0.14398540121E+02  0.15515388955E+02  0.51100000000E-03 0. -1.
        -11    1    3    3    0    0 -0.22581811478E+00 -0.10848856958E+01 -0.40200349655E+01  0.41699702851E+01  0.51100000000E-03 0.  1.
         12    1    3    3    0    0 -0.11368861822E+02  0.90483107117E+01 -0.22109900503E+02  0.26456958368E+02  0.00000000000E+00 0. -1.
</event>
<event>
 7    1  0.2001181E-008  0.4614232E+02  0.7816164E-02  0.1320468E+00
        -11   -1    0    0    0    0  0.00000000000E+00  0.00000000000E+00  0.45593999997E+02  0.45594000000E+02  0.51100000000E-03 0.  1.
         11   -1    0    0    0    0 -0.00000000000E+00 -0.00000000000E+00 -0.45593999997E+02  0.45594000000E+02  0.51100000000E-03 0. -1.
    9900012    2    1    2    0    0 -0.19018862690E+01 -0.44999017921E+02 -0.76476541200E+00  0.46142315952E+02  0.99999835008E+01 0.  0.
        -12    1    1    2    0    0  0.19018862690E+01  0.44999017921E+02  0.76476541200E+00  0.45045684048E+02  0.00000000000E+00 0.  1.
         11    1    3    3    0    0  0.35450006143E+01 -0.97199813059E+01 -0.82048156114E+00  0.10378740588E+02  0.51100000000E-03 0.  1.
        -11    1    3    3    0    0 -0.40702495619E+01 -0.30685091302E+02  0.38806617348E+00  0.30956297506E+02  0.51100000000E-03 0. -1.
        -12    1    3    3    0    0 -0.13766373214E+01 -0.45939453134E+01 -0.33235002434E+00  0.48072778572E+01  0.00000000000E+00 0.  1.
</event>
<event>
 7    1  0.2001181E-008  0.4614232E+02  0.7816164E-02  0.1320468E+00
        -11   -1    0    0    0    0  0.00000000000E+00  0.00000000000E+00  0.45593999997E+02  0.45594000000E+02  0.51100000000E-03 0.  1.
         11   -1    0    0    0    0 -0.00000000000E+00 -0.00000000000E+00 -0.45593999997E+02  0.45594000000E+02  0.51100000000E-03 0. -1.
    9900012    2    1    2    0    0 -0.32788584141E+02  0.13895084209E+02 -0.27585301092E+02  0.46142318170E+02  0.10000003731E+02 0.  0.
        -12    1    1    2    0    0  0.32788584141E+02 -0.13895084209E+02  0.27585301092E+02  0.45045681830E+02  0.00000000000E+00 0.  1.
         11    1    3    3    0    0 -0.16255139781E+02  0.10593982101E+02 -0.11484107629E+02  0.22546546395E+02  0.51100000000E-03 0. -1.
        -11    1    3    3    0    0 -0.25583457126E+01 -0.75675537146E+00 -0.20230916555E+01  0.33482400728E+01  0.51100000000E-03 0.  1.
        -12    1    3    3    0    0 -0.13975098648E+02  0.40578574795E+01 -0.14078101807E+02  0.20247531702E+02  0.00000000000E+00 0.  1.
</event>
<event>
 7    1  0.2001181E-008  0.4614232E+02  0.7816164E-02  0.1320468E+00
        -11   -1    0    0    0    0  0.00000000000E+00  0.00000000000E+00  0.45593999997E+02  0.45594000000E+02  0.51100000000E-03 0.  1.
         11   -1    0    0    0    0 -0.00000000000E+00 -0.00000000000E+00 -0.45593999997E+02  0.45594000000E+02  0.51100000000E-03 0. -1.
    9900012    2    1    2    0    0 -0.36191255684E+02  0.24790309855E+02 -0.10234596263E+02  0.46142318616E+02  0.10000007796E+02 0.  0.
        -12    1    1    2    0    0  0.36191255684E+02 -0.24790309855E+02  0.10234596263E+02  0.45045681384E+02  0.00000000000E+00 0.  1.
         11    1    3    3    0    0 -0.26080115035E+02  0.16568901577E+02 -0.10592258343E+02  0.32663386793E+02  0.51100000000E-03 0. -1.
        -11    1    3    3    0    0 -0.79532846728E+00 -0.58748604330E-01 -0.57067216467E+00  0.98064557819E+00  0.51100000000E-03 0.  1.
         12    1    3    3    0    0 -0.93158121814E+01  0.82801568822E+01  0.92833424453E+00  0.12498286245E+02  0.00000000000E+00 0. -1.
</event>
<event>
 7    1  0.2001181E-008  0.4614232E+02  0.7816164E-02  0.1320468E+00
        -11   -1    0    0    0    0  0.00000000000E+00  0.00000000000E+00  0.45593999997E+02  0.45594000000E+02  0.51100000000E-03 0.  1.
         11   -1    0    0    0    0 -0.00000000000E+00 -0.00000000000E+00 -0.45593999997E+02  0.45594000000E+02  0.51100000000E-03 0. -1.
    9900012    2    1    2    0    0 -0.41846988777E+02 -0.12101057456E+02  0.11467669483E+02  0.46142317581E+02  0.99999983561E+01 0.  0.
        -12    1    1    2    0    0  0.41846988777E+02  0.12101057456E+02 -0.11467669483E+02  0.45045682419E+02  0.00000000000E+00 0.  1.
         11    1    3    3    0    0 -0.20070229460E+02 -0.23924475944E+01  0.88549018667E+01  0.22066880237E+02  0.51100000000E-03 0.  1.
        -11    1    3    3    0    0 -0.59679718283E+01 -0.17000345778E+01  0.91927861289E+00  0.62731075823E+01  0.51100000000E-03 0. -1.
        -12    1    3    3    0    0 -0.15808787488E+02 -0.80085752841E+01  0.16934890037E+01  0.17802329762E+02  0.00000000000E+00 0.  1.
</event>
<event>
 7    1  0.2001181E-008  0.4614232E+02  0.7816164E-02  0.1320468E+00
        -11   -1    0    0    0    0  0.00000000000E+00  0.00000000000E+00  0.45593999997E+02  0.45594000000E+02  0.51100000000E-03 0. -1.
         11   -1    0    0    0    0 -0.00000000000E+00 -0.00000000000E+00 -0.45593999997E+02  0.45594000000E+02  0.51100000000E-03 0.  1.
    9900012    2    1    2    0    0 -0.32224113591E+02  0.49699425888E+01  0.31080855838E+02  0.46142318457E+02  0.10000006348E+02 0.  0.
        -12    1    1    2    0    0  0.32224113591E+02 -0.49699425888E+01 -0.31080855838E+02  0.45045681543E+02  0.00000000000E+00 0.  1.
         11    1    3    3    0    0 -0.19606417663E+01  0.24486339282E+01  0.53794146107E+01  0.62272004998E+01  0.51100000000E-03 0. -1.
        -11    1    3    3    0    0 -0.92487916048E+01 -0.71715990364E+00  0.78428132323E+01  0.12147599933E+02  0.51100000000E-03 0.  1.
        -12    1    3    3    0    0 -0.21014680219E+02  0.32384685643E+01  0.17858627995E+02  0.27767518024E+02  0.00000000000E+00 0.  1.
</event>
<event>
 7    1  0.2001181E-008  0.4614232E+02  0.7816164E-02  0.1320468E+00
        -11   -1    0    0    0    0  0.00000000000E+00  0.00000000000E+00  0.45593999997E+02  0.45594000000E+02  0.51100000000E-03 0.  1.
         11   -1    0    0    0    0 -0.00000000000E+00 -0.00000000000E+00 -0.45593999997E+02  0.45594000000E+02  0.51100000000E-03 0. -1.
    9900012    2    1    2    0    0  0.24308727475E+02 -0.37514831658E+02 -0.55530785012E+01  0.46142317559E+02  0.99999981540E+01 0.  0.
        -12    1    1    2    0    0 -0.24308727475E+02  0.37514831658E+02  0.55530785012E+01  0.45045682441E+02  0.00000000000E+00 0.  1.
         11    1    3    3    0    0  0.21440753087E+02 -0.32419309143E+02 -0.51352246904E+01  0.39205714266E+02  0.51100000000E-03 0. -1.
        -11    1    3    3    0    0  0.12202525646E+01 -0.44228599438E+01 -0.15317318271E+01  0.48370351513E+01  0.51100000000E-03 0.  1.
        -12    1    3    3    0    0  0.16477218241E+01 -0.67266257030E+00  0.11138780163E+01  0.20995681409E+01  0.00000000000E+00 0.  1.
</event>
<event>
 7    1  0.2001181E-008  0.4614232E+02  0.7816164E-02  0.1320468E+00
        -11   -1    0    0    0    0  0.00000000000E+00  0.00000000000E+00  0.45593999997E+02  0.45594000000E+02  0.51100000000E-03 0. -1.
         11   -1    0    0    0    0 -0.00000000000E+00 -0.00000000000E+00 -0.45593999997E+02  0.45594000000E+02  0.51100000000E-03 0.  1.
    9900012    2    1    2    0    0 -0.22552938668E+01  0.44983982672E+02  0.68435750095E+00  0.46142318823E+02  0.10000009687E+02 0.  0.
        -12    1    1    2    0    0  0.22552938668E+01 -0.44983982672E+02 -0.68435750095E+00  0.45045681177E+02  0.00000000000E+00 0.  1.
         11    1    3    3    0    0 -0.25060570640E+00  0.20832037029E+02 -0.32764142227E+01  0.21089605506E+02  0.51100000000E-03 0.  1.
        -11    1    3    3    0    0 -0.11733919460E+00  0.15416125575E+02  0.37008938031E+00  0.15421013671E+02  0.51100000000E-03 0. -1.
        -12    1    3    3    0    0 -0.18873489658E+01  0.87358200686E+01  0.35906823433E+01  0.96316996465E+01  0.00000000000E+00 0.  1.
</event>
<event>
 7    1  0.2001181E-008  0.4614232E+02  0.7816164E-02  0.1320468E+00
        -11   -1    0    0    0    0  0.00000000000E+00  0.00000000000E+00  0.45593999997E+02  0.45594000000E+02  0.51100000000E-03 0.  1.
         11   -1    0    0    0    0 -0.00000000000E+00 -0.00000000000E+00 -0.45593999997E+02  0.45594000000E+02  0.51100000000E-03 0. -1.
    9900012    2    1    2    0    0  0.10739144506E+02 -0.31369887512E+02 -0.30491218901E+02  0.46142317662E+02  0.99999990973E+01 0.  0.
        -12    1    1    2    0    0 -0.10739144506E+02  0.31369887512E+02  0.30491218901E+02  0.45045682338E+02  0.00000000000E+00 0.  1.
         11    1    3    3    0    0  0.35362598230E+01 -0.80653363625E+01 -0.38959163883E+01  0.96297948546E+01  0.51100000000E-03 0.  1.
        -11    1    3    3    0    0  0.93242261257E-01 -0.30092998878E+00 -0.22504978596E+01  0.22724422665E+01  0.51100000000E-03 0. -1.
         12    1    3    3    0    0  0.71096424218E+01 -0.23003621160E+02 -0.24344804653E+02  0.34240080541E+02  0.00000000000E+00 0. -1.
</event>
<event>
 7    1  0.2001181E-008  0.4614232E+02  0.7816164E-02  0.1320468E+00
        -11   -1    0    0    0    0  0.00000000000E+00  0.00000000000E+00  0.45593999997E+02  0.45594000000E+02  0.51100000000E-03 0. -1.
         11   -1    0    0    0    0 -0.00000000000E+00 -0.00000000000E+00 -0.45593999997E+02  0.45594000000E+02  0.51100000000E-03 0.  1.
    9900012    2    1    2    0    0 -0.86596624019E+01  0.24215723550E+02  0.36982733479E+02  0.46142316571E+02  0.99999891505E+01 0.  0.
        -12    1    1    2    0    0  0.86596624019E+01 -0.24215723550E+02 -0.36982733479E+02  0.45045683429E+02  0.00000000000E+00 0.  1.
         11    1    3    3    0    0 -0.58230934157E+00  0.26280727239E+01  0.16686512094E+01  0.31670566037E+01  0.51100000000E-03 0. -1.
        -11    1    3    3    0    0 -0.36947004447E+01  0.24381417629E+01  0.99751289414E+01  0.10913227950E+02  0.51100000000E-03 0.  1.
         12    1    3    3    0    0 -0.43826526157E+01  0.19149509063E+02  0.25338953328E+02  0.32062032017E+02  0.00000000000E+00 0. -1.
</event>
<event>
 7    1  0.2001181E-008  0.4614232E+02  0.7816164E-02  0.1320468E+00
        -11   -1    0    0    0    0  0.00000000000E+00  0.00000000000E+00  0.45593999997E+02  0.45594000000E+02  0.51100000000E-03 0.  1.
         11   -1    0    0    0    0 -0.00000000000E+00 -0.00000000000E+00 -0.45593999997E+02  0.45594000000E+02  0.51100000000E-03 0. -1.
    9900012    2    1    2    0    0 -0.16107316486E+02  0.41704693596E+02 -0.55123992573E+01  0.46142315880E+02  0.99999828424E+01 0.  0.
        -12    1    1    2    0    0  0.16107316486E+02 -0.41704693596E+02  0.55123992573E+01  0.45045684120E+02  0.00000000000E+00 0.  1.
         11    1    3    3    0    0 -0.89797519716E+01  0.15125746033E+02 -0.42101301804E+01  0.18087269969E+02  0.51100000000E-03 0. -1.
        -11    1    3    3    0    0 -0.42220396716E+01  0.77974611887E+01 -0.17805114580E+01  0.90441274477E+01  0.51100000000E-03 0.  1.
        -12    1    3    3    0    0 -0.29055248431E+01  0.18781486374E+02  0.47824238110E+00  0.19010918463E+02  0.00000000000E+00 0.  1.
</event>
<event>
 7    1  0.2001181E-008  0.4614232E+02  0.7816164E-02  0.1320468E+00
        -11   -1    0    0    0    0  0.00000000000E+00  0.00000000000E+00  0.45593999997E+02  0.45594000000E+02  0.51100000000E-03 0.  1.
         11   -1    0    0    0    0 -0.00000000000E+00 -0.00000000000E+00 -0.45593999997E+02  0.45594000000E+02  0.51100000000E-03 0. -1.
    9900012    2    1    2    0    0  0.40907958970E+01 -0.26623104792E+02 -0.36105248173E+02  0.46142320236E+02  0.10000022565E+02 0.  0.
        -12    1    1    2    0    0 -0.40907958970E+01  0.26623104792E+02  0.36105248173E+02  0.45045679764E+02  0.00000000000E+00 0.  1.
         11    1    3    3    0    0  0.52528965299E+01 -0.12082272102E+02 -0.13001495556E+02  0.18509811129E+02  0.51100000000E-03 0. -1.
        -11    1    3    3    0    0  0.12967957934E+01 -0.38199133272E+01 -0.78596700572E+01  0.88344683386E+01  0.51100000000E-03 0.  1.
        -12    1    3    3    0    0 -0.24588964262E+01 -0.10720919363E+02 -0.15244082560E+02  0.18798040768E+02  0.00000000000E+00 0.  1.
</event>
<event>
 7    1  0.2001181E-008  0.4614232E+02  0.7816164E-02  0.1320468E+00
        -11   -1    0    0    0    0  0.00000000000E+00  0.00000000000E+00  0.45593999997E+02  0.45594000000E+02  0.51100000000E-03 0.  1.
         11   -1    0    0    0    0 -0.00000000000E+00 -0.00000000000E+00 -0.45593999997E+02  0.45594000000E+02  0.51100000000E-03 0. -1.
    9900012    2    1    2    0    0 -0.34470510048E+02  0.12594266056E+02 -0.26120525659E+02  0.46142318064E+02  0.10000002760E+02 0.  0.
        -12    1    1    2    0    0  0.34470510048E+02 -0.12594266056E+02  0.26120525659E+02  0.45045681936E+02  0.00000000000E+00 0.  1.
         11    1    3    3    0    0 -0.20681588071E+02  0.43707626401E+01 -0.12324875781E+02  0.24469046048E+02  0.51100000000E-03 0. -1.
        -11    1    3    3    0    0  0.13188888803E+00  0.49087057768E+00  0.12365254942E+00  0.52310497696E+00  0.51100000000E-03 0.  1.
         12    1    3    3    0    0 -0.13920810864E+02  0.77326328380E+01 -0.13919302427E+02  0.21150167039E+02  0.00000000000E+00 0. -1.
</event>
<event>
 7    1  0.2001181E-008  0.4614232E+02  0.7816164E-02  0.1320468E+00
        -11   -1    0    0    0    0  0.00000000000E+00  0.00000000000E+00  0.45593999997E+02  0.45594000000E+02  0.51100000000E-03 0.  1.
         11   -1    0    0    0    0 -0.00000000000E+00 -0.00000000000E+00 -0.45593999997E+02  0.45594000000E+02  0.51100000000E-03 0. -1.
    9900012    2    1    2    0    0  0.25310398487E+02  0.20532458774E+02 -0.31095263134E+02  0.46142317363E+02  0.99999963703E+01 0.  0.
        -12    1    1    2    0    0 -0.25310398487E+02 -0.20532458774E+02  0.31095263134E+02  0.45045682637E+02  0.00000000000E+00 0.  1.
         11    1    3    3    0    0  0.10138053323E+02  0.43950833151E+01 -0.11568906110E+02  0.15998014607E+02  0.51100000000E-03 0. -1.
        -11    1    3    3    0    0  0.86492429518E+01  0.87000246992E+01 -0.14671189959E+02  0.19124425442E+02  0.51100000000E-03 0.  1.
        -12    1    3    3    0    0  0.65231022122E+01  0.74373507599E+01 -0.48551670650E+01  0.11019877314E+02  0.00000000000E+00 0.  1.
</event>
<event>
 7    1  0.2001181E-008  0.4614232E+02  0.7816164E-02  0.1320468E+00
        -11   -1    0    0    0    0  0.00000000000E+00  0.00000000000E+00  0.45593999997E+02  0.45594000000E+02  0.51100000000E-03 0.  1.
         11   -1    0    0    0    0 -0.00000000000E+00 -0.00000000000E+00 -0.45593999997E+02  0.45594000000E+02  0.51100000000E-03 0. -1.
    9900012    2    1    2    0    0  0.15385730828E+02  0.26484371105E+02 -0.33029847257E+02  0.46142318345E+02  0.10000005321E+02 0.  0.
        -12    1    1    2    0    0 -0.15385730828E+02 -0.26484371105E+02  0.33029847257E+02  0.45045681655E+02  0.00000000000E+00 0.  1.
         11    1    3    3    0    0  0.13768871278E+01  0.73105335674E+01 -0.61362415584E+01  0.96432971502E+01  0.51100000000E-03 0. -1.
        -11    1    3    3    0    0  0.78472824820E+01  0.72752755333E+01 -0.81142904046E+01  0.13429489397E+02  0.51100000000E-03 0.  1.
         12    1    3    3    0    0  0.61615612182E+01  0.11898562005E+02 -0.18779315294E+02  0.23069531797E+02  0.00000000000E+00 0. -1.
</event>
<event>
 7    1  0.2001181E-008  0.4614232E+02  0.7816164E-02  0.1320468E+00
        -11   -1    0    0    0    0  0.00000000000E+00  0.00000000000E+00  0.45593999997E+02  0.45594000000E+02  0.51100000000E-03 0.  1.
         11   -1    0    0    0    0 -0.00000000000E+00 -0.00000000000E+00 -0.45593999997E+02  0.45594000000E+02  0.51100000000E-03 0. -1.
    9900012    2    1    2    0    0  0.39594551164E+02 -0.12411531877E+02 -0.17531082688E+02  0.46142318014E+02  0.10000002302E+02 0.  0.
        -12    1    1    2    0    0 -0.39594551164E+02  0.12411531877E+02  0.17531082688E+02  0.45045681986E+02  0.00000000000E+00 0.  1.
         11    1    3    3    0    0  0.10958401094E+02 -0.20734406068E+01 -0.45337553534E+01  0.12039129883E+02  0.51100000000E-03 0. -1.
        -11    1    3    3    0    0  0.32368766978E+01  0.14009483606E+01 -0.10652157367E+01  0.36843875872E+01  0.51100000000E-03 0.  1.
         12    1    3    3    0    0  0.25399273372E+02 -0.11739039631E+02 -0.11932111598E+02  0.30418800543E+02  0.00000000000E+00 0. -1.
</event>
<event>
 7    1  0.2001181E-008  0.4614232E+02  0.7816164E-02  0.1320468E+00
        -11   -1    0    0    0    0  0.00000000000E+00  0.00000000000E+00  0.45593999997E+02  0.45594000000E+02  0.51100000000E-03 0.  1.
         11   -1    0    0    0    0 -0.00000000000E+00 -0.00000000000E+00 -0.45593999997E+02  0.45594000000E+02  0.51100000000E-03 0. -1.
    9900012    2    1    2    0    0  0.32276234720E+02  0.25294921826E+02 -0.18642019692E+02  0.46142319895E+02  0.10000019462E+02 0.  0.
        -12    1    1    2    0    0 -0.32276234720E+02 -0.25294921826E+02  0.18642019692E+02  0.45045680105E+02  0.00000000000E+00 0.  1.
         11    1    3    3    0    0  0.12977889791E+02  0.98813123154E+01 -0.32601075761E+01  0.16634129318E+02  0.51100000000E-03 0.  1.
        -11    1    3    3    0    0  0.19246846437E+00 -0.26889244221E+00 -0.66008890131E+00  0.73828508993E+00  0.51100000000E-03 0. -1.
         12    1    3    3    0    0  0.19105876464E+02  0.15682501953E+02 -0.14721823215E+02  0.28769905487E+02  0.00000000000E+00 0. -1.
</event>
<event>
 7    1  0.2001181E-008  0.4614232E+02  0.7816164E-02  0.1320468E+00
        -11   -1    0    0    0    0  0.00000000000E+00  0.00000000000E+00  0.45593999997E+02  0.45594000000E+02  0.51100000000E-03 0.  1.
         11   -1    0    0    0    0 -0.00000000000E+00 -0.00000000000E+00 -0.45593999997E+02  0.45594000000E+02  0.51100000000E-03 0. -1.
    9900012    2    1    2    0    0  0.24597882332E+02  0.36968441826E+02 -0.75757598509E+01  0.46142316038E+02  0.99999842917E+01 0.  0.
        -12    1    1    2    0    0 -0.24597882332E+02 -0.36968441826E+02  0.75757598509E+01  0.45045683962E+02  0.00000000000E+00 0.  1.
         11    1    3    3    0    0  0.20492346344E+02  0.31428597004E+02 -0.34795639057E+01  0.37680237971E+02  0.51100000000E-03 0. -1.
        -11    1    3    3    0    0  0.29144930034E+01  0.17207120069E+01 -0.15723372185E+01  0.37319383526E+01  0.51100000000E-03 0.  1.
         12    1    3    3    0    0  0.11910429842E+01  0.38191328148E+01 -0.25238587267E+01  0.47301397146E+01  0.00000000000E+00 0. -1.
</event>
<event>
 7    1  0.2001181E-008  0.4614232E+02  0.7816164E-02  0.1320468E+00
        -11   -1    0    0    0    0  0.00000000000E+00  0.00000000000E+00  0.45593999997E+02  0.45594000000E+02  0.51100000000E-03 0.  1.
         11   -1    0    0    0    0 -0.00000000000E+00 -0.00000000000E+00 -0.45593999997E+02  0.45594000000E+02  0.51100000000E-03 0. -1.
    9900012    2    1    2    0    0 -0.24277350418E+02  0.14384736303E+02 -0.35111295562E+02  0.46142318100E+02  0.10000003086E+02 0.  0.
        -12    1    1    2    0    0  0.24277350418E+02 -0.14384736303E+02  0.35111295562E+02  0.45045681900E+02  0.00000000000E+00 0.  1.
         11    1    3    3    0    0 -0.22077002670E+01  0.50612126785E+00 -0.27807175521E+01  0.35864313143E+01  0.51100000000E-03 0. -1.
        -11    1    3    3    0    0 -0.20669675624E+02  0.14626751836E+02 -0.27096267312E+02  0.37086184249E+02  0.51100000000E-03 0.  1.
        -12    1    3    3    0    0 -0.13999745272E+01 -0.74813680066E+00 -0.52343106983E+01  0.54697025364E+01  0.00000000000E+00 0.  1.
</event>
<event>
 7    1  0.2001181E-008  0.4614232E+02  0.7816164E-02  0.1320468E+00
        -11   -1    0    0    0    0  0.00000000000E+00  0.00000000000E+00  0.45593999997E+02  0.45594000000E+02  0.51100000000E-03 0.  1.
         11   -1    0    0    0    0 -0.00000000000E+00 -0.00000000000E+00 -0.45593999997E+02  0.45594000000E+02  0.51100000000E-03 0. -1.
    9900012    2    1    2    0    0 -0.16508056396E+02 -0.12015721628E+01 -0.41894556817E+02  0.46142316605E+02  0.99999894566E+01 0.  0.
        -12    1    1    2    0    0  0.16508056396E+02  0.12015721628E+01  0.41894556817E+02  0.45045683395E+02  0.00000000000E+00 0.  1.
         11    1    3    3    0    0 -0.13952347251E+02 -0.12225991080E+01 -0.31837102476E+02  0.34781659487E+02  0.51100000000E-03 0. -1.
        -11    1    3    3    0    0  0.14552373964E+00  0.68328295267E+00 -0.76510631308E+01  0.76828913858E+01  0.51100000000E-03 0.  1.
        -12    1    3    3    0    0 -0.27012328854E+01 -0.66225600750E+00 -0.24063912102E+01  0.36777657317E+01  0.00000000000E+00 0.  1.
</event>
<event>
 7    1  0.2001181E-008  0.4614232E+02  0.7816164E-02  0.1320468E+00
        -11   -1    0    0    0    0  0.00000000000E+00  0.00000000000E+00  0.45593999997E+02  0.45594000000E+02  0.51100000000E-03 0.  1.
         11   -1    0    0    0    0 -0.00000000000E+00 -0.00000000000E+00 -0.45593999997E+02  0.45594000000E+02  0.51100000000E-03 0. -1.
    9900012    2    1    2    0    0 -0.28930845701E+02  0.11344096447E+02 -0.32610291432E+02  0.46142318026E+02  0.10000002420E+02 0.  0.
        -12    1    1    2    0    0  0.28930845701E+02 -0.11344096447E+02  0.32610291432E+02  0.45045681974E+02  0.00000000000E+00 0.  1.
         11    1    3    3    0    0 -0.33469313341E+01  0.38076191485E+01 -0.53492737433E+01  0.73698468625E+01  0.51100000000E-03 0. -1.
        -11    1    3    3    0    0 -0.43373483632E+01  0.34607155556E+00 -0.84252260239E+01  0.94824464227E+01  0.51100000000E-03 0.  1.
         12    1    3    3    0    0 -0.21246566003E+02  0.71904057432E+01 -0.18835791665E+02  0.29290024741E+02  0.00000000000E+00 0. -1.
</event>
<event>
 7    1  0.2001181E-008  0.4614232E+02  0.7816164E-02  0.1320468E+00
        -11   -1    0    0    0    0  0.00000000000E+00  0.00000000000E+00  0.45593999997E+02  0.45594000000E+02  0.51100000000E-03 0.  1.
         11   -1    0    0    0    0 -0.00000000000E+00 -0.00000000000E+00 -0.45593999997E+02  0.45594000000E+02  0.51100000000E-03 0. -1.
    9900012    2    1    2    0    0  0.19235996089E+01  0.37187130574E+02 -0.25348186537E+02  0.46142317893E+02  0.10000001200E+02 0.  0.
        -12    1    1    2    0    0 -0.19235996089E+01 -0.37187130574E+02  0.25348186537E+02  0.45045682107E+02  0.00000000000E+00 0.  1.
         11    1    3    3    0    0  0.28803880859E+01  0.92568766286E+01 -0.82247096462E+01  0.12713467248E+02  0.51100000000E-03 0. -1.
        -11    1    3    3    0    0 -0.31378629299E+01  0.71136585122E+01 -0.43716470142E+01  0.89197320068E+01  0.51100000000E-03 0.  1.
        -12    1    3    3    0    0  0.21810744530E+01  0.20816595433E+02 -0.12751829876E+02  0.24509118638E+02  0.00000000000E+00 0.  1.
</event>
<event>
 7    1  0.2001181E-008  0.4614232E+02  0.7816164E-02  0.1320468E+00
        -11   -1    0    0    0    0  0.00000000000E+00  0.00000000000E+00  0.45593999997E+02  0.45594000000E+02  0.51100000000E-03 0.  1.
         11   -1    0    0    0    0 -0.00000000000E+00 -0.00000000000E+00 -0.45593999997E+02  0.45594000000E+02  0.51100000000E-03 0. -1.
    9900012    2    1    2    0    0  0.11117268049E+01 -0.97994462421E+01 -0.43952799666E+02  0.46142315616E+02  0.99999804397E+01 0.  0.
        -12    1    1    2    0    0 -0.11117268049E+01  0.97994462421E+01  0.43952799666E+02  0.45045684384E+02  0.00000000000E+00 0.  1.
         11    1    3    3    0    0 -0.35460763540E+01 -0.51114920043E+01 -0.16965284962E+02  0.18069944719E+02  0.51100000000E-03 0. -1.
        -11    1    3    3    0    0  0.57956127742E+00 -0.52523831105E+00 -0.44964802676E+00  0.90219186805E+00  0.51100000000E-03 0.  1.
         12    1    3    3    0    0  0.40782418815E+01 -0.41627159268E+01 -0.26537866677E+02  0.27170179029E+02  0.00000000000E+00 0. -1.
</event>
<event>
 7    1  0.2001181E-008  0.4614232E+02  0.7816164E-02  0.1320468E+00
        -11   -1    0    0    0    0  0.00000000000E+00  0.00000000000E+00  0.45593999997E+02  0.45594000000E+02  0.51100000000E-03 0. -1.
         11   -1    0    0    0    0 -0.00000000000E+00 -0.00000000000E+00 -0.45593999997E+02  0.45594000000E+02  0.51100000000E-03 0.  1.
    9900012    2    1    2    0    0 -0.37246939660E+02  0.19636378419E+02  0.16005987132E+02  0.46142317681E+02  0.99999992717E+01 0.  0.
        -12    1    1    2    0    0  0.37246939660E+02 -0.19636378419E+02 -0.16005987132E+02  0.45045682319E+02  0.00000000000E+00 0.  1.
         11    1    3    3    0    0 -0.10743592492E+02  0.83976365473E+01  0.19461663174E+01  0.13774347274E+02  0.51100000000E-03 0. -1.
        -11    1    3    3    0    0 -0.11524278124E+01  0.16554991700E+01  0.13983880352E+01  0.24544361313E+01  0.51100000000E-03 0.  1.
         12    1    3    3    0    0 -0.25350919356E+02  0.95832427020E+01  0.12661432779E+02  0.29913534276E+02  0.00000000000E+00 0. -1.
</event>
<event>
 7    1  0.2001181E-008  0.4614232E+02  0.7816164E-02  0.1320468E+00
        -11   -1    0    0    0    0  0.00000000000E+00  0.00000000000E+00  0.45593999997E+02  0.45594000000E+02  0.51100000000E-03 0.  1.
         11   -1    0    0    0    0 -0.00000000000E+00 -0.00000000000E+00 -0.45593999997E+02  0.45594000000E+02  0.51100000000E-03 0. -1.
    9900012    2    1    2    0    0  0.15667869586E+02  0.36099356678E+02 -0.21919574123E+02  0.46142318524E+02  0.10000006957E+02 0.  0.
        -12    1    1    2    0    0 -0.15667869586E+02 -0.36099356678E+02  0.21919574123E+02  0.45045681476E+02  0.00000000000E+00 0.  1.
         11    1    3    3    0    0  0.41964103070E+01  0.57266662508E+01 -0.79797659795E+01  0.10680881572E+02  0.51100000000E-03 0. -1.
        -11    1    3    3    0    0  0.74298605295E+01  0.18671999247E+02 -0.10159566472E+02  0.22518063294E+02  0.51100000000E-03 0.  1.
        -12    1    3    3    0    0  0.40415987494E+01  0.11700691180E+02 -0.37802416713E+01  0.12943373658E+02  0.00000000000E+00 0.  1.
</event>
<event>
 7    1  0.2001181E-008  0.4614232E+02  0.7816164E-02  0.1320468E+00
        -11   -1    0    0    0    0  0.00000000000E+00  0.00000000000E+00  0.45593999997E+02  0.45594000000E+02  0.51100000000E-03 0. -1.
         11   -1    0    0    0    0 -0.00000000000E+00 -0.00000000000E+00 -0.45593999997E+02  0.45594000000E+02  0.51100000000E-03 0.  1.
    9900012    2    1    2    0    0  0.16503120920E+02 -0.41892447733E+02 -0.13353934360E+01  0.46142318156E+02  0.10000003604E+02 0.  0.
        -12    1    1    2    0    0 -0.16503120920E+02  0.41892447733E+02  0.13353934360E+01  0.45045681844E+02  0.00000000000E+00 0.  1.
         11    1    3    3    0    0  0.52006791630E+00 -0.65077997077E+01  0.15584333701E+01  0.67119775404E+01  0.51100000000E-03 0.  1.
        -11    1    3    3    0    0  0.49877446221E+01 -0.70330950187E+01  0.13479778144E+01  0.87269162025E+01  0.51100000000E-03 0. -1.
        -12    1    3    3    0    0  0.10995308381E+02 -0.28351553006E+02 -0.42418046205E+01  0.30703424413E+02  0.00000000000E+00 0.  1.
</event>
<event>
 7    1  0.2001181E-008  0.4614232E+02  0.7816164E-02  0.1320468E+00
        -11   -1    0    0    0    0  0.00000000000E+00  0.00000000000E+00  0.45593999997E+02  0.45594000000E+02  0.51100000000E-03 0. -1.
         11   -1    0    0    0    0 -0.00000000000E+00 -0.00000000000E+00 -0.45593999997E+02  0.45594000000E+02  0.51100000000E-03 0.  1.
    9900012    2    1    2    0    0 -0.40589304329E+02  0.18364175032E+02 -0.66617505616E+01  0.46142317953E+02  0.10000001750E+02 0.  0.
        -12    1    1    2    0    0  0.40589304329E+02 -0.18364175032E+02  0.66617505616E+01  0.45045682047E+02  0.00000000000E+00 0.  1.
         11    1    3    3    0    0 -0.14718597264E+02  0.24680879423E+01 -0.22572697107E+01  0.15093834182E+02  0.51100000000E-03 0. -1.
        -11    1    3    3    0    0 -0.10840083853E+01 -0.28005607445E+00 -0.35565382070E+00  0.11747320910E+01  0.51100000000E-03 0.  1.
         12    1    3    3    0    0 -0.24786698680E+02  0.16176143164E+02 -0.40488270302E+01  0.29873751680E+02  0.00000000000E+00 0. -1.
</event>
<event>
 7    1  0.2001181E-008  0.4614231E+02  0.7816164E-02  0.1320468E+00
        -11   -1    0    0    0    0  0.00000000000E+00  0.00000000000E+00  0.45593999997E+02  0.45594000000E+02  0.51100000000E-03 0.  1.
         11   -1    0    0    0    0 -0.00000000000E+00 -0.00000000000E+00 -0.45593999997E+02  0.45594000000E+02  0.51100000000E-03 0. -1.
    9900012    2    1    2    0    0 -0.21043889694E+02  0.39819715208E+02  0.81164095045E+00  0.46142314594E+02  0.99999711198E+01 0.  0.
        -12    1    1    2    0    0  0.21043889694E+02 -0.39819715208E+02 -0.81164095045E+00  0.45045685406E+02  0.00000000000E+00 0.  1.
         11    1    3    3    0    0 -0.76403073696E+01  0.10056399868E+02  0.29460164014E+01  0.12968596220E+02  0.51100000000E-03 0. -1.
        -11    1    3    3    0    0 -0.78709731271E+01  0.21646962427E+02  0.37120926684E+00  0.23036514425E+02  0.51100000000E-03 0.  1.
         12    1    3    3    0    0 -0.55326091971E+01  0.81163529127E+01 -0.25055847178E+01  0.10137203949E+02  0.00000000000E+00 0. -1.
</event>
<event>
 7    1  0.2001181E-008  0.4614232E+02  0.7816164E-02  0.1320468E+00
        -11   -1    0    0    0    0  0.00000000000E+00  0.00000000000E+00  0.45593999997E+02  0.45594000000E+02  0.51100000000E-03 0.  1.
         11   -1    0    0    0    0 -0.00000000000E+00 -0.00000000000E+00 -0.45593999997E+02  0.45594000000E+02  0.51100000000E-03 0. -1.
    9900012    2    1    2    0    0 -0.75729075693E+01  0.23199206916E+02 -0.37862400463E+02  0.46142317638E+02  0.99999988816E+01 0.  0.
        -12    1    1    2    0    0  0.75729075693E+01 -0.23199206916E+02  0.37862400463E+02  0.45045682362E+02  0.00000000000E+00 0.  1.
         11    1    3    3    0    0 -0.59812129707E+01  0.13305574663E+02 -0.16307555939E+02  0.21880347499E+02  0.51100000000E-03 0. -1.
        -11    1    3    3    0    0 -0.61510100433E-01  0.25218206324E+01 -0.11071047680E+02  0.11354798976E+02  0.51100000000E-03 0.  1.
        -12    1    3    3    0    0 -0.15301844982E+01  0.73718116199E+01 -0.10483796845E+02  0.12907171163E+02  0.00000000000E+00 0.  1.
</event>
<event>
 7    1  0.2001181E-008  0.4614232E+02  0.7816164E-02  0.1320468E+00
        -11   -1    0    0    0    0  0.00000000000E+00  0.00000000000E+00  0.45593999997E+02  0.45594000000E+02  0.51100000000E-03 0. -1.
         11   -1    0    0    0    0 -0.00000000000E+00 -0.00000000000E+00 -0.45593999997E+02  0.45594000000E+02  0.51100000000E-03 0.  1.
    9900012    2    1    2    0    0  0.43637444961E+02 -0.19982170429E+01  0.10995181926E+02  0.46142317636E+02  0.99999988584E+01 0.  0.
        -12    1    1    2    0    0 -0.43637444961E+02  0.19982170429E+01 -0.10995181926E+02  0.45045682364E+02  0.00000000000E+00 0.  1.
         11    1    3    3    0    0  0.90832390314E+01  0.28698790868E+00  0.15826301389E+01  0.92245494079E+01  0.51100000000E-03 0. -1.
        -11    1    3    3    0    0  0.19528045111E+01  0.15789194890E+01 -0.62518591533E+00  0.25879122669E+01  0.51100000000E-03 0.  1.
         12    1    3    3    0    0  0.32601401418E+02 -0.38641244405E+01  0.10037737702E+02  0.34329855961E+02  0.00000000000E+00 0. -1.
</event>
<event>
 7    1  0.2001181E-008  0.4614232E+02  0.7816164E-02  0.1320468E+00
        -11   -1    0    0    0    0  0.00000000000E+00  0.00000000000E+00  0.45593999997E+02  0.45594000000E+02  0.51100000000E-03 0.  1.
         11   -1    0    0    0    0 -0.00000000000E+00 -0.00000000000E+00 -0.45593999997E+02  0.45594000000E+02  0.51100000000E-03 0. -1.
    9900012    2    1    2    0    0 -0.37268476064E+02  0.77807403459E+01 -0.24075595007E+02  0.46142317594E+02  0.99999984761E+01 0.  0.
        -12    1    1    2    0    0  0.37268476064E+02 -0.77807403459E+01  0.24075595007E+02  0.45045682406E+02  0.00000000000E+00 0.  1.
         11    1    3    3    0    0 -0.38042497170E+01  0.13653757636E+01 -0.40176915623E+01  0.56989834739E+01  0.51100000000E-03 0. -1.
        -11    1    3    3    0    0 -0.13695070924E+01  0.15567271962E+01  0.34705698209E+00  0.21022364399E+01  0.51100000000E-03 0.  1.
        -12    1    3    3    0    0 -0.32094719255E+02  0.48586373861E+01 -0.20404960427E+02  0.38341097680E+02  0.00000000000E+00 0.  1.
</event>
<event>
 7    1  0.2001181E-008  0.4614231E+02  0.7816164E-02  0.1320468E+00
        -11   -1    0    0    0    0  0.00000000000E+00  0.00000000000E+00  0.45593999997E+02  0.45594000000E+02  0.51100000000E-03 0.  1.
         11   -1    0    0    0    0 -0.00000000000E+00 -0.00000000000E+00 -0.45593999997E+02  0.45594000000E+02  0.51100000000E-03 0. -1.
    9900012    2    1    2    0    0  0.36757530507E+02  0.10631629085E+02  0.23769018165E+02  0.46142314186E+02  0.99999674006E+01 0.  0.
        -12    1    1    2    0    0 -0.36757530507E+02 -0.10631629085E+02 -0.23769018165E+02  0.45045685814E+02  0.00000000000E+00 0.  1.
         11    1    3    3    0    0  0.28386488087E+02  0.95395820270E+01  0.16442333721E+02  0.34163528354E+02  0.51100000000E-03 0. -1.
        -11    1    3    3    0    0  0.70985836081E+01  0.22507717366E+01  0.70133397383E+01  0.10229506205E+02  0.51100000000E-03 0.  1.
        -12    1    3    3    0    0  0.12724588116E+01 -0.11587246791E+01  0.31334470536E+00  0.17492796270E+01  0.00000000000E+00 0.  1.
</event>
<event>
 7    1  0.2001181E-008  0.4614232E+02  0.7816164E-02  0.1320468E+00
        -11   -1    0    0    0    0  0.00000000000E+00  0.00000000000E+00  0.45593999997E+02  0.45594000000E+02  0.51100000000E-03 0.  1.
         11   -1    0    0    0    0 -0.00000000000E+00 -0.00000000000E+00 -0.45593999997E+02  0.45594000000E+02  0.51100000000E-03 0. -1.
    9900012    2    1    2    0    0  0.14252364219E+02  0.21977835104E+02 -0.36646395217E+02  0.46142318697E+02  0.10000008532E+02 0.  0.
        -12    1    1    2    0    0 -0.14252364219E+02 -0.21977835104E+02  0.36646395217E+02  0.45045681303E+02  0.00000000000E+00 0.  1.
         11    1    3    3    0    0  0.12420054894E+02  0.19025571752E+02 -0.29012438321E+02  0.36850396492E+02  0.51100000000E-03 0. -1.
        -11    1    3    3    0    0  0.86565615427E+00  0.21810645044E+00  0.22020992307E+00  0.91946923411E+00  0.51100000000E-03 0.  1.
        -12    1    3    3    0    0  0.96665317007E+00  0.27341569008E+01 -0.78541668197E+01  0.83724529704E+01  0.00000000000E+00 0.  1.
</event>
<event>
 7    1  0.2001181E-008  0.4614232E+02  0.7816164E-02  0.1320468E+00
        -11   -1    0    0    0    0  0.00000000000E+00  0.00000000000E+00  0.45593999997E+02  0.45594000000E+02  0.51100000000E-03 0. -1.
         11   -1    0    0    0    0 -0.00000000000E+00 -0.00000000000E+00 -0.45593999997E+02  0.45594000000E+02  0.51100000000E-03 0.  1.
    9900012    2    1    2    0    0 -0.30047734388E+02 -0.25280631556E+02  0.22071179582E+02  0.46142316057E+02  0.99999844630E+01 0.  0.
        -12    1    1    2    0    0  0.30047734388E+02  0.25280631556E+02 -0.22071179582E+02  0.45045683943E+02  0.00000000000E+00 0.  1.
         11    1    3    3    0    0 -0.23550112135E+01 -0.32459150500E+01  0.31742868494E+01  0.51145028684E+01  0.51100000000E-03 0. -1.
        -11    1    3    3    0    0 -0.32925275346E+01 -0.45122435118E+01  0.63925082125E+01  0.84891248420E+01  0.51100000000E-03 0.  1.
         12    1    3    3    0    0 -0.24400195640E+02 -0.17522472994E+02  0.12504384520E+02  0.32538688347E+02  0.00000000000E+00 0. -1.
</event>
<event>
 7    1  0.2001181E-008  0.4614232E+02  0.7816164E-02  0.1320468E+00
        -11   -1    0    0    0    0  0.00000000000E+00  0.00000000000E+00  0.45593999997E+02  0.45594000000E+02  0.51100000000E-03 0.  1.
         11   -1    0    0    0    0 -0.00000000000E+00 -0.00000000000E+00 -0.45593999997E+02  0.45594000000E+02  0.51100000000E-03 0. -1.
    9900012    2    1    2    0    0  0.26078513007E+02 -0.10312225328E+02 -0.35251703938E+02  0.46142318049E+02  0.10000002626E+02 0.  0.
        -12    1    1    2    0    0 -0.26078513007E+02  0.10312225328E+02  0.35251703938E+02  0.45045681951E+02  0.00000000000E+00 0.  1.
         11    1    3    3    0    0  0.24343905835E+02 -0.96786364714E+01 -0.31611917793E+02  0.41056243156E+02  0.51100000000E-03 0. -1.
        -11    1    3    3    0    0  0.12890008732E+01 -0.15481864706E+01 -0.35278922171E+01  0.40625642586E+01  0.51100000000E-03 0.  1.
        -12    1    3    3    0    0  0.44560629870E+00  0.91459761373E+00 -0.11189392820E+00  0.10235106349E+01  0.00000000000E+00 0.  1.
</event>
<event>
 7    1  0.2001181E-008  0.4614231E+02  0.7816164E-02  0.1320468E+00
        -11   -1    0    0    0    0  0.00000000000E+00  0.00000000000E+00  0.45593999997E+02  0.45594000000E+02  0.51100000000E-03 0.  1.
         11   -1    0    0    0    0 -0.00000000000E+00 -0.00000000000E+00 -0.45593999997E+02  0.45594000000E+02  0.51100000000E-03 0. -1.
    9900012    2    1    2    0    0 -0.19537454115E+02 -0.33817460476E+02 -0.22445078570E+02  0.46142308770E+02  0.99999180144E+01 0.  0.
        -12    1    1    2    0    0  0.19537454115E+02  0.33817460476E+02  0.22445078570E+02  0.45045691230E+02  0.00000000000E+00 0.  1.
         11    1    3    3    0    0 -0.31638821761E+01 -0.80867929169E+01 -0.67394135090E+01  0.10992091012E+02  0.51100000000E-03 0. -1.
        -11    1    3    3    0    0 -0.76657362625E+01 -0.16393023922E+02 -0.12474937041E+02  0.21979963608E+02  0.51100000000E-03 0.  1.
        -12    1    3    3    0    0 -0.87078356760E+01 -0.93376436375E+01 -0.32307280199E+01  0.13170254151E+02  0.00000000000E+00 0.  1.
</event>
<event>
 7    1  0.2001181E-008  0.4614232E+02  0.7816164E-02  0.1320468E+00
        -11   -1    0    0    0    0  0.00000000000E+00  0.00000000000E+00  0.45593999997E+02  0.45594000000E+02  0.51100000000E-03 0.  1.
         11   -1    0    0    0    0 -0.00000000000E+00 -0.00000000000E+00 -0.45593999997E+02  0.45594000000E+02  0.51100000000E-03 0. -1.
    9900012    2    1    2    0    0 -0.55697021464E+01 -0.10725705365E+02 -0.43394133603E+02  0.46142321309E+02  0.10000032355E+02 0.  0.
        -12    1    1    2    0    0  0.55697021464E+01  0.10725705365E+02  0.43394133603E+02  0.45045678691E+02  0.00000000000E+00 0.  1.
         11    1    3    3    0    0 -0.12514594435E+01 -0.59212522234E+01 -0.17715169714E+02  0.18720433138E+02  0.51100000000E-03 0. -1.
        -11    1    3    3    0    0 -0.26239752342E+01 -0.63558161051E+01 -0.15034053330E+02  0.16531920765E+02  0.51100000000E-03 0.  1.
         12    1    3    3    0    0 -0.16942674687E+01  0.15513629630E+01 -0.10644910559E+02  0.10889967406E+02  0.00000000000E+00 0. -1.
</event>
<event>
 7    1  0.2001181E-008  0.4614232E+02  0.7816164E-02  0.1320468E+00
        -11   -1    0    0    0    0  0.00000000000E+00  0.00000000000E+00  0.45593999997E+02  0.45594000000E+02  0.51100000000E-03 0.  1.
         11   -1    0    0    0    0 -0.00000000000E+00 -0.00000000000E+00 -0.45593999997E+02  0.45594000000E+02  0.51100000000E-03 0. -1.
    9900012    2    1    2    0    0 -0.22351635292E+02 -0.18553065326E+02 -0.34428210092E+02  0.46142317817E+02  0.10000000511E+02 0.  0.
        -12    1    1    2    0    0  0.22351635292E+02  0.18553065326E+02  0.34428210092E+02  0.45045682183E+02  0.00000000000E+00 0.  1.
         11    1    3    3    0    0 -0.19868515410E+02 -0.15007368727E+02 -0.30056704740E+02  0.39030558807E+02  0.51100000000E-03 0. -1.
        -11    1    3    3    0    0 -0.20718377677E+01 -0.40216983203E+01 -0.25687703913E+01  0.52024177744E+01  0.51100000000E-03 0.  1.
         12    1    3    3    0    0 -0.41128211444E+00  0.47600172186E+00 -0.18027349600E+01  0.19093412354E+01  0.00000000000E+00 0. -1.
</event>
<event>
 7    1  0.2001181E-008  0.4614232E+02  0.7816164E-02  0.1320468E+00
        -11   -1    0    0    0    0  0.00000000000E+00  0.00000000000E+00  0.45593999997E+02  0.45594000000E+02  0.51100000000E-03 0.  1.
         11   -1    0    0    0    0 -0.00000000000E+00 -0.00000000000E+00 -0.45593999997E+02  0.45594000000E+02  0.51100000000E-03 0. -1.
    9900012    2    1    2    0    0  0.97733878782E+01 -0.39437200340E+02 -0.19449977898E+02  0.46142317394E+02  0.99999966480E+01 0.  0.
        -12    1    1    2    0    0 -0.97733878782E+01  0.39437200340E+02  0.19449977898E+02  0.45045682606E+02  0.00000000000E+00 0.  1.
         11    1    3    3    0    0  0.57507470926E+01 -0.11520713790E+02 -0.10055468134E+02  0.16337392020E+02  0.51100000000E-03 0. -1.
        -11    1    3    3    0    0  0.14540322282E+01 -0.84281535310E+01 -0.18535344210E+01  0.87512040185E+01  0.51100000000E-03 0.  1.
         12    1    3    3    0    0  0.25686085574E+01 -0.19488333019E+02 -0.75409753422E+01  0.21053721355E+02  0.00000000000E+00 0. -1.
</event>
<event>
 7    1  0.2001181E-008  0.4614232E+02  0.7816164E-02  0.1320468E+00
        -11   -1    0    0    0    0  0.00000000000E+00  0.00000000000E+00  0.45593999997E+02  0.45594000000E+02  0.51100000000E-03 0.  1.
         11   -1    0    0    0    0 -0.00000000000E+00 -0.00000000000E+00 -0.45593999997E+02  0.45594000000E+02  0.51100000000E-03 0. -1.
    9900012    2    1    2    0    0  0.36398430158E+02  0.36967557921E+01 -0.26279297835E+02  0.46142320783E+02  0.10000027559E+02 0.  0.
        -12    1    1    2    0    0 -0.36398430158E+02 -0.36967557921E+01  0.26279297835E+02  0.45045679217E+02  0.00000000000E+00 0.  1.
         11    1    3    3    0    0  0.96654232620E+01 -0.14543616495E+01 -0.10359834840E+02  0.14242954497E+02  0.51100000000E-03 0. -1.
        -11    1    3    3    0    0  0.23460770083E+01  0.12623687511E+01 -0.30583473909E+01  0.40560006431E+01  0.51100000000E-03 0.  1.
         12    1    3    3    0    0  0.24386929888E+02  0.38887486905E+01 -0.12861115605E+02  0.27843365643E+02  0.00000000000E+00 0. -1.
</event>
<event>
 7    1  0.2001181E-008  0.4614232E+02  0.7816164E-02  0.1320468E+00
        -11   -1    0    0    0    0  0.00000000000E+00  0.00000000000E+00  0.45593999997E+02  0.45594000000E+02  0.51100000000E-03 0.  1.
         11   -1    0    0    0    0 -0.00000000000E+00 -0.00000000000E+00 -0.45593999997E+02  0.45594000000E+02  0.51100000000E-03 0. -1.
    9900012    2    1    2    0    0 -0.23215826084E+02 -0.30568909383E+02  0.23572882637E+02  0.46142316550E+02  0.99999889597E+01 0.  0.
        -12    1    1    2    0    0  0.23215826084E+02  0.30568909383E+02 -0.23572882637E+02  0.45045683450E+02  0.00000000000E+00 0.  1.
         11    1    3    3    0    0 -0.13098926906E+02 -0.17049382705E+02  0.11690724638E+02  0.24473176736E+02  0.51100000000E-03 0. -1.
        -11    1    3    3    0    0 -0.39793444562E+01 -0.10550670392E+02  0.79716771588E+01  0.13809397706E+02  0.51100000000E-03 0.  1.
        -12    1    3    3    0    0 -0.61375547220E+01 -0.29688562856E+01  0.39104808397E+01  0.78597421082E+01  0.00000000000E+00 0.  1.
</event>
<event>
 7    1  0.2001181E-008  0.4614232E+02  0.7816164E-02  0.1320468E+00
        -11   -1    0    0    0    0  0.00000000000E+00  0.00000000000E+00  0.45593999997E+02  0.45594000000E+02  0.51100000000E-03 0.  1.
         11   -1    0    0    0    0 -0.00000000000E+00 -0.00000000000E+00 -0.45593999997E+02  0.45594000000E+02  0.51100000000E-03 0. -1.
    9900012    2    1    2    0    0 -0.23329655640E+02  0.22247483582E+02 -0.31462519992E+02  0.46142317385E+02  0.99999965705E+01 0.  0.
        -12    1    1    2    0    0  0.23329655640E+02 -0.22247483582E+02  0.31462519992E+02  0.45045682615E+02  0.00000000000E+00 0.  1.
         11    1    3    3    0    0 -0.14005668755E+02  0.14437595263E+02 -0.20970955825E+02  0.29058284580E+02  0.51100000000E-03 0. -1.
        -11    1    3    3    0    0 -0.56659788815E+01  0.29430358564E+01 -0.85954561153E+01  0.10707317256E+02  0.51100000000E-03 0.  1.
        -12    1    3    3    0    0 -0.36580080033E+01  0.48668524631E+01 -0.18961080519E+01  0.63767155491E+01  0.00000000000E+00 0.  1.
</event>
<event>
 7    1  0.2001181E-008  0.4614232E+02  0.7816164E-02  0.1320468E+00
        -11   -1    0    0    0    0  0.00000000000E+00  0.00000000000E+00  0.45593999997E+02  0.45594000000E+02  0.51100000000E-03 0.  1.
         11   -1    0    0    0    0 -0.00000000000E+00 -0.00000000000E+00 -0.45593999997E+02  0.45594000000E+02  0.51100000000E-03 0. -1.
    9900012    2    1    2    0    0 -0.37224473847E+02 -0.23754785693E+02  0.88973253850E+01  0.46142315461E+02  0.99999790287E+01 0.  0.
        -12    1    1    2    0    0  0.37224473847E+02  0.23754785693E+02 -0.88973253850E+01  0.45045684539E+02  0.00000000000E+00 0.  1.
         11    1    3    3    0    0 -0.47002458476E+01 -0.21686400376E+01 -0.90942663501E+00  0.52556985935E+01  0.51100000000E-03 0. -1.
        -11    1    3    3    0    0 -0.70071660146E+00  0.57505591091E+00  0.34117414532E+00  0.96855207128E+00  0.51100000000E-03 0.  1.
         12    1    3    3    0    0 -0.31823511398E+02 -0.22161201567E+02  0.94655778747E+01  0.39918064797E+02  0.00000000000E+00 0. -1.
</event>
<event>
 7    1  0.2001181E-008  0.4614232E+02  0.7816164E-02  0.1320468E+00
        -11   -1    0    0    0    0  0.00000000000E+00  0.00000000000E+00  0.45593999997E+02  0.45594000000E+02  0.51100000000E-03 0. -1.
         11   -1    0    0    0    0 -0.00000000000E+00 -0.00000000000E+00 -0.45593999997E+02  0.45594000000E+02  0.51100000000E-03 0.  1.
    9900012    2    1    2    0    0  0.11547669684E+01 -0.44880496679E+02  0.36770904264E+01  0.46142318044E+02  0.10000002581E+02 0.  0.
        -12    1    1    2    0    0 -0.11547669684E+01  0.44880496679E+02 -0.36770904264E+01  0.45045681956E+02  0.00000000000E+00 0.  1.
         11    1    3    3    0    0 -0.93092262555E-01 -0.17718045339E+02 -0.55223141400E+00  0.17726893597E+02  0.51100000000E-03 0. -1.
        -11    1    3    3    0    0  0.10249992141E+01 -0.24581341232E+02  0.59416068479E+01  0.25309991157E+02  0.51100000000E-03 0.  1.
        -12    1    3    3    0    0  0.22286001683E+00 -0.25811101072E+01 -0.17122850074E+01  0.31054332901E+01  0.00000000000E+00 0.  1.
</event>
<event>
 7    1  0.2001181E-008  0.4614232E+02  0.7816164E-02  0.1320468E+00
        -11   -1    0    0    0    0  0.00000000000E+00  0.00000000000E+00  0.45593999997E+02  0.45594000000E+02  0.51100000000E-03 0.  1.
         11   -1    0    0    0    0 -0.00000000000E+00 -0.00000000000E+00 -0.45593999997E+02  0.45594000000E+02  0.51100000000E-03 0. -1.
    9900012    2    1    2    0    0  0.20865877327E+02 -0.14889907871E+01 -0.39893753243E+02  0.46142317876E+02  0.10000001051E+02 0.  0.
        -12    1    1    2    0    0 -0.20865877327E+02  0.14889907871E+01  0.39893753243E+02  0.45045682124E+02  0.00000000000E+00 0.  1.
         11    1    3    3    0    0  0.14169785771E+02  0.32740250538E+01 -0.27098182526E+02  0.30754082093E+02  0.51100000000E-03 0. -1.
        -11    1    3    3    0    0  0.22466676786E+01 -0.19873755032E+01 -0.67413304896E+01  0.73785306180E+01  0.51100000000E-03 0.  1.
         12    1    3    3    0    0  0.44494238765E+01 -0.27756403377E+01 -0.60542402270E+01  0.80097051658E+01  0.00000000000E+00 0. -1.
</event>
<event>
 7    1  0.2001181E-008  0.4614232E+02  0.7816164E-02  0.1320468E+00
        -11   -1    0    0    0    0  0.00000000000E+00  0.00000000000E+00  0.45593999997E+02  0.45594000000E+02  0.51100000000E-03 0. -1.
         11   -1    0    0    0    0 -0.00000000000E+00 -0.00000000000E+00 -0.45593999997E+02  0.45594000000E+02  0.51100000000E-03 0.  1.
    9900012    2    1    2    0    0 -0.36835625894E+02 -0.22365831839E+02  0.13115627710E+02  0.46142318086E+02  0.10000002960E+02 0.  0.
        -12    1    1    2    0    0  0.36835625894E+02  0.22365831839E+02 -0.13115627710E+02  0.45045681914E+02  0.00000000000E+00 0.  1.
         11    1    3    3    0    0 -0.92106391431E+01 -0.53836802708E+01  0.66779167712E+00  0.10689519759E+02  0.51100000000E-03 0. -1.
        -11    1    3    3    0    0 -0.14780759499E+02 -0.12842557751E+02  0.88423049028E+01  0.21484610707E+02  0.51100000000E-03 0.  1.
        -12    1    3    3    0    0 -0.12844227252E+02 -0.41395938180E+01  0.36055311304E+01  0.13968187621E+02  0.00000000000E+00 0.  1.
</event>
<event>
 7    1  0.2001181E-008  0.4614232E+02  0.7816164E-02  0.1320468E+00
        -11   -1    0    0    0    0  0.00000000000E+00  0.00000000000E+00  0.45593999997E+02  0.45594000000E+02  0.51100000000E-03 0. -1.
         11   -1    0    0    0    0 -0.00000000000E+00 -0.00000000000E+00 -0.45593999997E+02  0.45594000000E+02  0.51100000000E-03 0.  1.
    9900012    2    1    2    0    0  0.28931214549E+02 -0.29287061732E+02  0.18285688294E+02  0.46142317005E+02  0.99999931014E+01 0.  0.
        -12    1    1    2    0    0 -0.28931214549E+02  0.29287061732E+02 -0.18285688294E+02  0.45045682995E+02  0.00000000000E+00 0.  1.
         11    1    3    3    0    0  0.61466530395E+01 -0.60473296170E+01  0.23450971324E+01  0.89359397887E+01  0.51100000000E-03 0. -1.
        -11    1    3    3    0    0  0.19136361011E+02 -0.19590647455E+02  0.95739046507E+01  0.29011263864E+02  0.51100000000E-03 0.  1.
        -12    1    3    3    0    0  0.36482004982E+01 -0.36490846599E+01  0.63666865109E+01  0.81951133524E+01  0.00000000000E+00 0.  1.
</event>
<event>
 7    1  0.2001181E-008  0.4614232E+02  0.7816164E-02  0.1320468E+00
        -11   -1    0    0    0    0  0.00000000000E+00  0.00000000000E+00  0.45593999997E+02  0.45594000000E+02  0.51100000000E-03 0. -1.
         11   -1    0    0    0    0 -0.00000000000E+00 -0.00000000000E+00 -0.45593999997E+02  0.45594000000E+02  0.51100000000E-03 0.  1.
    9900012    2    1    2    0    0 -0.83479136052E+01 -0.31668997565E+02  0.30927340360E+02  0.46142318186E+02  0.10000003874E+02 0.  0.
        -12    1    1    2    0    0  0.83479136052E+01  0.31668997565E+02 -0.30927340360E+02  0.45045681814E+02  0.00000000000E+00 0.  1.
         11    1    3    3    0    0 -0.83563054088E+01 -0.23826716523E+02  0.20870009639E+02  0.32758167881E+02  0.51100000000E-03 0. -1.
        -11    1    3    3    0    0  0.52308355679E+00 -0.88420819384E+00  0.40466598928E+01  0.41750325851E+01  0.51100000000E-03 0.  1.
         12    1    3    3    0    0 -0.51469175318E+00 -0.69580728491E+01  0.60106708284E+01  0.92091177200E+01  0.00000000000E+00 0. -1.
</event>
<event>
 7    1  0.2001181E-008  0.4614232E+02  0.7816164E-02  0.1320468E+00
        -11   -1    0    0    0    0  0.00000000000E+00  0.00000000000E+00  0.45593999997E+02  0.45594000000E+02  0.51100000000E-03 0.  1.
         11   -1    0    0    0    0 -0.00000000000E+00 -0.00000000000E+00 -0.45593999997E+02  0.45594000000E+02  0.51100000000E-03 0. -1.
    9900012    2    1    2    0    0 -0.50931637260E+01  0.30104757261E+02 -0.33119129908E+02  0.46142317717E+02  0.99999996007E+01 0.  0.
        -12    1    1    2    0    0  0.50931637260E+01 -0.30104757261E+02  0.33119129908E+02  0.45045682283E+02  0.00000000000E+00 0.  1.
         11    1    3    3    0    0 -0.53013160651E+00 -0.88119636857E-01 -0.17210852083E+00  0.56429264986E+00  0.51100000000E-03 0. -1.
        -11    1    3    3    0    0 -0.57305108146E+00  0.94143407474E+01 -0.54853420245E+01  0.10910874238E+02  0.51100000000E-03 0.  1.
         12    1    3    3    0    0 -0.39899810380E+01  0.20778536150E+02 -0.27461679363E+02  0.34667150829E+02  0.00000000000E+00 0. -1.
</event>
<event>
 7    1  0.2001181E-008  0.4614232E+02  0.7816164E-02  0.1320468E+00
        -11   -1    0    0    0    0  0.00000000000E+00  0.00000000000E+00  0.45593999997E+02  0.45594000000E+02  0.51100000000E-03 0.  1.
         11   -1    0    0    0    0 -0.00000000000E+00 -0.00000000000E+00 -0.45593999997E+02  0.45594000000E+02  0.51100000000E-03 0. -1.
    9900012    2    1    2    0    0  0.35281104487E+02 -0.27844504853E+02  0.30067875267E+01  0.46142317015E+02  0.99999932000E+01 0.  0.
        -12    1    1    2    0    0 -0.35281104487E+02  0.27844504853E+02 -0.30067875267E+01  0.45045682985E+02  0.00000000000E+00 0.  1.
         11    1    3    3    0    0  0.15853848292E+02 -0.92284843478E+01  0.28655946143E+00  0.18346431413E+02  0.51100000000E-03 0.  1.
        -11    1    3    3    0    0  0.44555733352E+01 -0.10619638169E+01  0.73648070161E+00  0.46392138320E+01  0.51100000000E-03 0. -1.
        -12    1    3    3    0    0  0.14971682860E+02 -0.17554056688E+02  0.19837473637E+01  0.23156671770E+02  0.00000000000E+00 0.  1.
</event>
<event>
 7    1  0.2001181E-008  0.4614232E+02  0.7816164E-02  0.1320468E+00
        -11   -1    0    0    0    0  0.00000000000E+00  0.00000000000E+00  0.45593999997E+02  0.45594000000E+02  0.51100000000E-03 0.  1.
         11   -1    0    0    0    0 -0.00000000000E+00 -0.00000000000E+00 -0.45593999997E+02  0.45594000000E+02  0.51100000000E-03 0. -1.
    9900012    2    1    2    0    0  0.16578914373E+02 -0.16686901775E+02 -0.38416149385E+02  0.46142316231E+02  0.99999860501E+01 0.  0.
        -12    1    1    2    0    0 -0.16578914373E+02  0.16686901775E+02  0.38416149385E+02  0.45045683769E+02  0.00000000000E+00 0.  1.
         11    1    3    3    0    0  0.59540531620E+01 -0.11935903989E+02 -0.20706393791E+02  0.24630698268E+02  0.51100000000E-03 0. -1.
        -11    1    3    3    0    0  0.50859197191E+01 -0.19662413480E+01 -0.11548831730E+02  0.12771382033E+02  0.51100000000E-03 0.  1.
        -12    1    3    3    0    0  0.55389414918E+01 -0.27847564377E+01 -0.61609238639E+01  0.87402359306E+01  0.00000000000E+00 0.  1.
</event>
<event>
 7    1  0.2001181E-008  0.4614232E+02  0.7816164E-02  0.1320468E+00
        -11   -1    0    0    0    0  0.00000000000E+00  0.00000000000E+00  0.45593999997E+02  0.45594000000E+02  0.51100000000E-03 0. -1.
         11   -1    0    0    0    0 -0.00000000000E+00 -0.00000000000E+00 -0.45593999997E+02  0.45594000000E+02  0.51100000000E-03 0.  1.
    9900012    2    1    2    0    0  0.19405686881E+02 -0.34034608485E+02  0.22230120485E+02  0.46142317467E+02  0.99999973216E+01 0.  0.
        -12    1    1    2    0    0 -0.19405686881E+02  0.34034608485E+02 -0.22230120485E+02  0.45045682533E+02  0.00000000000E+00 0.  1.
         11    1    3    3    0    0  0.22839596109E+01 -0.24127223030E+01  0.38516353244E+01  0.50865307774E+01  0.51100000000E-03 0. -1.
        -11    1    3    3    0    0 -0.51660273033E+00 -0.55682784341E+00 -0.20674477768E+00  0.78719711153E+00  0.51100000000E-03 0.  1.
         12    1    3    3    0    0  0.17638330000E+02 -0.31065058338E+02  0.18585229939E+02  0.40268589579E+02  0.00000000000E+00 0. -1.
</event>
<event>
 7    1  0.2001181E-008  0.4614233E+02  0.7816164E-02  0.1320468E+00
        -11   -1    0    0    0    0  0.00000000000E+00  0.00000000000E+00  0.45593999997E+02  0.45594000000E+02  0.51100000000E-03 0.  1.
         11   -1    0    0    0    0 -0.00000000000E+00 -0.00000000000E+00 -0.45593999997E+02  0.45594000000E+02  0.51100000000E-03 0. -1.
    9900012    2    1    2    0    0  0.19883578359E+02  0.18384034299E+02 -0.35996985578E+02  0.46142330106E+02  0.10000112569E+02 0.  0.
        -12    1    1    2    0    0 -0.19883578359E+02 -0.18384034299E+02  0.35996985578E+02  0.45045669894E+02  0.00000000000E+00 0.  1.
         11    1    3    3    0    0  0.89030496477E+01  0.66257765661E+01 -0.17099479042E+02  0.20385224843E+02  0.51100000000E-03 0. -1.
        -11    1    3    3    0    0  0.11903926598E+02  0.11453856685E+02 -0.18037406066E+02  0.24458992605E+02  0.51100000000E-03 0.  1.
        -12    1    3    3    0    0 -0.92339788592E+00  0.30440104824E+00 -0.86010047070E+00  0.12981126583E+01  0.00000000000E+00 0.  1.
</event>
<event>
 7    1  0.2001181E-008  0.4614232E+02  0.7816164E-02  0.1320468E+00
        -11   -1    0    0    0    0  0.00000000000E+00  0.00000000000E+00  0.45593999997E+02  0.45594000000E+02  0.51100000000E-03 0. -1.
         11   -1    0    0    0    0 -0.00000000000E+00 -0.00000000000E+00 -0.45593999997E+02  0.45594000000E+02  0.51100000000E-03 0.  1.
    9900012    2    1    2    0    0 -0.29724692627E+02  0.31794432943E+02 -0.11604747908E+02  0.46142317721E+02  0.99999996355E+01 0.  0.
        -12    1    1    2    0    0  0.29724692627E+02 -0.31794432943E+02  0.11604747908E+02  0.45045682279E+02  0.00000000000E+00 0.  1.
         11    1    3    3    0    0 -0.33819031745E+01  0.38980192194E+01  0.13784469165E+01  0.53415296573E+01  0.51100000000E-03 0. -1.
        -11    1    3    3    0    0 -0.49497094105E+01  0.30206675939E+01 -0.28561606227E+01  0.64638772981E+01  0.51100000000E-03 0.  1.
         12    1    3    3    0    0 -0.21393080042E+02  0.24875746130E+02 -0.10127034202E+02  0.34336910766E+02  0.00000000000E+00 0. -1.
</event>
<event>
 7    1  0.2001181E-008  0.4614232E+02  0.7816164E-02  0.1320468E+00
        -11   -1    0    0    0    0  0.00000000000E+00  0.00000000000E+00  0.45593999997E+02  0.45594000000E+02  0.51100000000E-03 0.  1.
         11   -1    0    0    0    0 -0.00000000000E+00 -0.00000000000E+00 -0.45593999997E+02  0.45594000000E+02  0.51100000000E-03 0. -1.
    9900012    2    1    2    0    0  0.34546918885E+02  0.87914454204E+01 -0.27537871987E+02  0.46142317514E+02  0.99999977436E+01 0.  0.
        -12    1    1    2    0    0 -0.34546918885E+02 -0.87914454204E+01  0.27537871987E+02  0.45045682486E+02  0.00000000000E+00 0.  1.
         11    1    3    3    0    0  0.11728121697E+02  0.54167547614E+01 -0.13337958732E+02  0.18568554443E+02  0.51100000000E-03 0.  1.
        -11    1    3    3    0    0  0.15934345349E+02  0.36244327400E+01 -0.12222498906E+02  0.20406600750E+02  0.51100000000E-03 0. -1.
        -12    1    3    3    0    0  0.68844518391E+01 -0.24974208096E+00 -0.19774143498E+01  0.71671623215E+01  0.00000000000E+00 0.  1.
</event>
<event>
 7    1  0.2001181E-008  0.4614232E+02  0.7816164E-02  0.1320468E+00
        -11   -1    0    0    0    0  0.00000000000E+00  0.00000000000E+00  0.45593999997E+02  0.45594000000E+02  0.51100000000E-03 0.  1.
         11   -1    0    0    0    0 -0.00000000000E+00 -0.00000000000E+00 -0.45593999997E+02  0.45594000000E+02  0.51100000000E-03 0. -1.
    9900012    2    1    2    0    0  0.30158498471E+01  0.28180006443E+02 -0.35012932041E+02  0.46142317370E+02  0.99999964377E+01 0.  0.
        -12    1    1    2    0    0 -0.30158498471E+01 -0.28180006443E+02  0.35012932041E+02  0.45045682630E+02  0.00000000000E+00 0.  1.
         11    1    3    3    0    0  0.71119258321E+00  0.55754335408E+01 -0.71907879047E+01  0.91268113276E+01  0.51100000000E-03 0. -1.
        -11    1    3    3    0    0  0.30506590035E+01  0.18763495168E+01 -0.53089717882E+01  0.64040916275E+01  0.51100000000E-03 0.  1.
        -12    1    3    3    0    0 -0.74600173959E+00  0.20728223386E+02 -0.22513172348E+02  0.30611414415E+02  0.00000000000E+00 0.  1.
</event>
<event>
 7    1  0.2001181E-008  0.4614232E+02  0.7816164E-02  0.1320468E+00
        -11   -1    0    0    0    0  0.00000000000E+00  0.00000000000E+00  0.45593999997E+02  0.45594000000E+02  0.51100000000E-03 0.  1.
         11   -1    0    0    0    0 -0.00000000000E+00 -0.00000000000E+00 -0.45593999997E+02  0.45594000000E+02  0.51100000000E-03 0. -1.
    9900012    2    1    2    0    0 -0.17313559277E+02  0.41453015500E+02  0.33168712017E+01  0.46142318038E+02  0.10000002523E+02 0.  0.
        -12    1    1    2    0    0  0.17313559277E+02 -0.41453015500E+02 -0.33168712017E+01  0.45045681962E+02  0.00000000000E+00 0.  1.
         11    1    3    3    0    0 -0.37458106285E+01  0.80229291567E+01  0.49823188003E+00  0.88682988666E+01  0.51100000000E-03 0. -1.
        -11    1    3    3    0    0 -0.10129015468E+02  0.25361904232E+02  0.59698629787E+01  0.27954649075E+02  0.51100000000E-03 0.  1.
        -12    1    3    3    0    0 -0.34387331800E+01  0.80681821108E+01 -0.31512236570E+01  0.93193700963E+01  0.00000000000E+00 0.  1.
</event>
<event>
 7    1  0.2001181E-008  0.4614232E+02  0.7816164E-02  0.1320468E+00
        -11   -1    0    0    0    0  0.00000000000E+00  0.00000000000E+00  0.45593999997E+02  0.45594000000E+02  0.51100000000E-03 0.  1.
         11   -1    0    0    0    0 -0.00000000000E+00 -0.00000000000E+00 -0.45593999997E+02  0.45594000000E+02  0.51100000000E-03 0. -1.
    9900012    2    1    2    0    0 -0.43242459446E+02  0.90059756381E+01 -0.88371764740E+01  0.46142316698E+02  0.99999903053E+01 0.  0.
        -12    1    1    2    0    0  0.43242459446E+02 -0.90059756381E+01  0.88371764740E+01  0.45045683302E+02  0.00000000000E+00 0.  1.
         11    1    3    3    0    0 -0.24095137031E+02  0.32652598358E+01 -0.82736433983E+01  0.25684445208E+02  0.51100000000E-03 0. -1.
        -11    1    3    3    0    0 -0.82765359407E+01  0.36094040789E+00 -0.82942628232E+00  0.83258196818E+01  0.51100000000E-03 0.  1.
         12    1    3    3    0    0 -0.10870786474E+02  0.53797753944E+01  0.26589320661E+00  0.12132051808E+02  0.00000000000E+00 0. -1.
</event>
<event>
 7    1  0.2001181E-008  0.4614232E+02  0.7816164E-02  0.1320468E+00
        -11   -1    0    0    0    0  0.00000000000E+00  0.00000000000E+00  0.45593999997E+02  0.45594000000E+02  0.51100000000E-03 0.  1.
         11   -1    0    0    0    0 -0.00000000000E+00 -0.00000000000E+00 -0.45593999997E+02  0.45594000000E+02  0.51100000000E-03 0. -1.
    9900012    2    1    2    0    0  0.28793359891E+02 -0.25521426141E+01 -0.34547684071E+02  0.46142317849E+02  0.10000000804E+02 0.  0.
        -12    1    1    2    0    0 -0.28793359891E+02  0.25521426141E+01  0.34547684071E+02  0.45045682151E+02  0.00000000000E+00 0.  1.
         11    1    3    3    0    0  0.40532939999E+01 -0.18296000098E+01 -0.42434805588E+01  0.61468492709E+01  0.51100000000E-03 0. -1.
        -11    1    3    3    0    0  0.12606091550E+02 -0.26856375022E+01 -0.10223050890E+02  0.16451047466E+02  0.51100000000E-03 0.  1.
        -12    1    3    3    0    0  0.12133974341E+02  0.19630948979E+01 -0.20081152622E+02  0.23544421113E+02  0.00000000000E+00 0.  1.
</event>
<event>
 7    1  0.2001181E-008  0.4614232E+02  0.7816164E-02  0.1320468E+00
        -11   -1    0    0    0    0  0.00000000000E+00  0.00000000000E+00  0.45593999997E+02  0.45594000000E+02  0.51100000000E-03 0. -1.
         11   -1    0    0    0    0 -0.00000000000E+00 -0.00000000000E+00 -0.45593999997E+02  0.45594000000E+02  0.51100000000E-03 0.  1.
    9900012    2    1    2    0    0 -0.10397334290E+02  0.12458707081E+02  0.42021297424E+02  0.46142318967E+02  0.10000010999E+02 0.  0.
        -12    1    1    2    0    0  0.10397334290E+02 -0.12458707081E+02 -0.42021297424E+02  0.45045681033E+02  0.00000000000E+00 0.  1.
         11    1    3    3    0    0 -0.26224637013E+01  0.45334675010E+01  0.67916135423E+01  0.85764595385E+01  0.51100000000E-03 0. -1.
        -11    1    3    3    0    0 -0.35206842654E+01  0.73812558102E+00  0.47248125423E+01  0.59383415943E+01  0.51100000000E-03 0.  1.
         12    1    3    3    0    0 -0.42541863228E+01  0.71871139994E+01  0.30504871340E+02  0.31627517834E+02  0.00000000000E+00 0. -1.
</event>
<event>
 7    1  0.2001181E-008  0.4614232E+02  0.7816164E-02  0.1320468E+00
        -11   -1    0    0    0    0  0.00000000000E+00  0.00000000000E+00  0.45593999997E+02  0.45594000000E+02  0.51100000000E-03 0.  1.
         11   -1    0    0    0    0 -0.00000000000E+00 -0.00000000000E+00 -0.45593999997E+02  0.45594000000E+02  0.51100000000E-03 0. -1.
    9900012    2    1    2    0    0 -0.40648074312E+02 -0.17346454343E+02 -0.87148239054E+01  0.46142316752E+02  0.99999907975E+01 0.  0.
        -12    1    1    2    0    0  0.40648074312E+02  0.17346454343E+02  0.87148239054E+01  0.45045683248E+02  0.00000000000E+00 0.  1.
         11    1    3    3    0    0 -0.59681707532E+01 -0.21820407422E+01 -0.29063307985E+00  0.63611973549E+01  0.51100000000E-03 0. -1.
        -11    1    3    3    0    0 -0.38199293883E+01  0.58346186176E-01  0.12791686969E+01  0.40288382476E+01  0.51100000000E-03 0.  1.
         12    1    3    3    0    0 -0.30859974171E+02 -0.15222759787E+02 -0.97033595225E+01  0.35752281149E+02  0.00000000000E+00 0. -1.
</event>
<event>
 7    1  0.2001181E-008  0.4614232E+02  0.7816164E-02  0.1320468E+00
        -11   -1    0    0    0    0  0.00000000000E+00  0.00000000000E+00  0.45593999997E+02  0.45594000000E+02  0.51100000000E-03 0.  1.
         11   -1    0    0    0    0 -0.00000000000E+00 -0.00000000000E+00 -0.45593999997E+02  0.45594000000E+02  0.51100000000E-03 0. -1.
    9900012    2    1    2    0    0 -0.32397670231E+02  0.24107655229E+02 -0.19958091188E+02  0.46142317844E+02  0.10000000756E+02 0.  0.
        -12    1    1    2    0    0  0.32397670231E+02 -0.24107655229E+02  0.19958091188E+02  0.45045682156E+02  0.00000000000E+00 0.  1.
         11    1    3    3    0    0 -0.12026891170E+02  0.43396558908E+01 -0.61376692266E+01  0.14182725699E+02  0.51100000000E-03 0. -1.
        -11    1    3    3    0    0 -0.71695036729E+01  0.38759602704E+01 -0.42247098870E+01  0.91800340318E+01  0.51100000000E-03 0.  1.
        -12    1    3    3    0    0 -0.13201275388E+02  0.15892039068E+02 -0.95957120744E+01  0.22779558113E+02  0.00000000000E+00 0.  1.
</event>
<event>
 7    1  0.2001181E-008  0.4614232E+02  0.7816164E-02  0.1320468E+00
        -11   -1    0    0    0    0  0.00000000000E+00  0.00000000000E+00  0.45593999997E+02  0.45594000000E+02  0.51100000000E-03 0.  1.
         11   -1    0    0    0    0 -0.00000000000E+00 -0.00000000000E+00 -0.45593999997E+02  0.45594000000E+02  0.51100000000E-03 0. -1.
    9900012    2    1    2    0    0  0.32479791307E+02  0.30713018194E+02  0.55576142938E+01  0.46142318669E+02  0.10000008275E+02 0.  0.
        -12    1    1    2    0    0 -0.32479791307E+02 -0.30713018194E+02 -0.55576142938E+01  0.45045681331E+02  0.00000000000E+00 0.  1.
         11    1    3    3    0    0  0.12673727359E+02  0.10633568390E+02  0.17631753052E+01  0.16637455613E+02  0.51100000000E-03 0. -1.
        -11    1    3    3    0    0  0.32451881126E+01  0.17759865845E+01 -0.19207239064E+01  0.41682795995E+01  0.51100000000E-03 0.  1.
         12    1    3    3    0    0  0.16560875836E+02  0.18303463220E+02  0.57151628950E+01  0.25336583456E+02  0.00000000000E+00 0. -1.
</event>
<event>
 7    1  0.2001181E-008  0.4614232E+02  0.7816164E-02  0.1320468E+00
        -11   -1    0    0    0    0  0.00000000000E+00  0.00000000000E+00  0.45593999997E+02  0.45594000000E+02  0.51100000000E-03 0.  1.
         11   -1    0    0    0    0 -0.00000000000E+00 -0.00000000000E+00 -0.45593999997E+02  0.45594000000E+02  0.51100000000E-03 0. -1.
    9900012    2    1    2    0    0 -0.24733770571E+02  0.37551459151E+02 -0.26910573728E+01  0.46142320065E+02  0.10000021009E+02 0.  0.
        -12    1    1    2    0    0  0.24733770571E+02 -0.37551459151E+02  0.26910573728E+01  0.45045679935E+02  0.00000000000E+00 0.  1.
         11    1    3    3    0    0 -0.60967181401E+00  0.55972951419E+00 -0.91337141923E+00  0.12325763508E+01  0.51100000000E-03 0. -1.
        -11    1    3    3    0    0 -0.62899206664E+01  0.13623029360E+02 -0.36868787443E+01  0.15451314057E+02  0.51100000000E-03 0.  1.
         12    1    3    3    0    0 -0.17834178091E+02  0.23368700276E+02  0.19091927908E+01  0.29458429658E+02  0.00000000000E+00 0. -1.
</event>
<event>
 7    1  0.2001181E-008  0.4614232E+02  0.7816164E-02  0.1320468E+00
        -11   -1    0    0    0    0  0.00000000000E+00  0.00000000000E+00  0.45593999997E+02  0.45594000000E+02  0.51100000000E-03 0.  1.
         11   -1    0    0    0    0 -0.00000000000E+00 -0.00000000000E+00 -0.45593999997E+02  0.45594000000E+02  0.51100000000E-03 0. -1.
    9900012    2    1    2    0    0 -0.17556229894E+02  0.29421224870E+02 -0.29245231158E+02  0.46142320668E+02  0.10000026509E+02 0.  0.
        -12    1    1    2    0    0  0.17556229894E+02 -0.29421224870E+02  0.29245231158E+02  0.45045679332E+02  0.00000000000E+00 0.  1.
         11    1    3    3    0    0  0.31384244956E+00  0.40805268388E+01 -0.15106522866E+01  0.43624840352E+01  0.51100000000E-03 0. -1.
        -11    1    3    3    0    0 -0.58750546863E+01  0.58809311489E+01 -0.61534003210E+01  0.10342434651E+02  0.51100000000E-03 0.  1.
        -12    1    3    3    0    0 -0.11995017658E+02  0.19459766883E+02 -0.21581178550E+02  0.31437401982E+02  0.00000000000E+00 0.  1.
</event>
<event>
 7    1  0.2001181E-008  0.4614232E+02  0.7816164E-02  0.1320468E+00
        -11   -1    0    0    0    0  0.00000000000E+00  0.00000000000E+00  0.45593999997E+02  0.45594000000E+02  0.51100000000E-03 0.  1.
         11   -1    0    0    0    0 -0.00000000000E+00 -0.00000000000E+00 -0.45593999997E+02  0.45594000000E+02  0.51100000000E-03 0. -1.
    9900012    2    1    2    0    0 -0.42874214989E+02  0.12481808883E+02 -0.59261599431E+01  0.46142320567E+02  0.10000025583E+02 0.  0.
        -12    1    1    2    0    0  0.42874214989E+02 -0.12481808883E+02  0.59261599431E+01  0.45045679433E+02  0.00000000000E+00 0.  1.
         11    1    3    3    0    0 -0.12940064346E+02  0.10026801812E+01 -0.36290056389E+01  0.13476658155E+02  0.51100000000E-03 0. -1.
        -11    1    3    3    0    0 -0.11358676505E+01 -0.15703384804E-01 -0.11799848386E+01  0.16379274698E+01  0.51100000000E-03 0.  1.
        -12    1    3    3    0    0 -0.28798282992E+02  0.11494832087E+02 -0.11171694656E+01  0.31027734942E+02  0.00000000000E+00 0.  1.
</event>
<event>
 7    1  0.2001181E-008  0.4614232E+02  0.7816164E-02  0.1320468E+00
        -11   -1    0    0    0    0  0.00000000000E+00  0.00000000000E+00  0.45593999997E+02  0.45594000000E+02  0.51100000000E-03 0.  1.
         11   -1    0    0    0    0 -0.00000000000E+00 -0.00000000000E+00 -0.45593999997E+02  0.45594000000E+02  0.51100000000E-03 0. -1.
    9900012    2    1    2    0    0 -0.10472584204E+02 -0.42251641868E+02  0.11586079033E+02  0.46142317767E+02  0.10000000058E+02 0.  0.
        -12    1    1    2    0    0  0.10472584204E+02  0.42251641868E+02 -0.11586079033E+02  0.45045682233E+02  0.00000000000E+00 0.  1.
         11    1    3    3    0    0 -0.10818897848E+01 -0.22141861852E+02  0.64589710483E+01  0.23090059312E+02  0.51100000000E-03 0. -1.
        -11    1    3    3    0    0 -0.64418156340E+01 -0.16576808227E+02  0.48886897575E+01  0.18444154832E+02  0.51100000000E-03 0.  1.
        -12    1    3    3    0    0 -0.29488787854E+01 -0.35329717883E+01  0.23841822722E+00  0.46081036229E+01  0.00000000000E+00 0.  1.
</event>
<event>
 7    1  0.2001181E-008  0.4614232E+02  0.7816164E-02  0.1320468E+00
        -11   -1    0    0    0    0  0.00000000000E+00  0.00000000000E+00  0.45593999997E+02  0.45594000000E+02  0.51100000000E-03 0. -1.
         11   -1    0    0    0    0 -0.00000000000E+00 -0.00000000000E+00 -0.45593999997E+02  0.45594000000E+02  0.51100000000E-03 0.  1.
    9900012    2    1    2    0    0  0.27121424927E+02 -0.32925645792E+02  0.14472165714E+02  0.46142318506E+02  0.10000006788E+02 0.  0.
        -12    1    1    2    0    0 -0.27121424927E+02  0.32925645792E+02 -0.14472165714E+02  0.45045681494E+02  0.00000000000E+00 0.  1.
         11    1    3    3    0    0  0.75593313349E+01 -0.73091317716E+01  0.69370030143E+01  0.12597178595E+02  0.51100000000E-03 0. -1.
        -11    1    3    3    0    0  0.16633071807E+02 -0.20463137732E+02  0.40803823369E+01  0.26684238866E+02  0.51100000000E-03 0.  1.
        -12    1    3    3    0    0  0.29290217842E+01 -0.51533762885E+01  0.34547803627E+01  0.68609010441E+01  0.00000000000E+00 0.  1.
</event>
<event>
 7    1  0.2001181E-008  0.4614232E+02  0.7816164E-02  0.1320468E+00
        -11   -1    0    0    0    0  0.00000000000E+00  0.00000000000E+00  0.45593999997E+02  0.45594000000E+02  0.51100000000E-03 0.  1.
         11   -1    0    0    0    0 -0.00000000000E+00 -0.00000000000E+00 -0.45593999997E+02  0.45594000000E+02  0.51100000000E-03 0. -1.
    9900012    2    1    2    0    0  0.43249724806E+02 -0.35133188068E+01 -0.12092616782E+02  0.46142317794E+02  0.10000000299E+02 0.  0.
        -12    1    1    2    0    0 -0.43249724806E+02  0.35133188068E+01  0.12092616782E+02  0.45045682206E+02  0.00000000000E+00 0.  1.
         11    1    3    3    0    0  0.21016493300E+02 -0.29829591544E+01 -0.44130983623E+01  0.21681016428E+02  0.51100000000E-03 0. -1.
        -11    1    3    3    0    0  0.28344027764E+00 -0.91816461850E+00 -0.12680301340E+01  0.15909950784E+01  0.51100000000E-03 0.  1.
        -12    1    3    3    0    0  0.21949791228E+02  0.38780496612E+00 -0.64114882852E+01  0.22870306287E+02  0.00000000000E+00 0.  1.
</event>
<event>
 7    1  0.2001181E-008  0.4614232E+02  0.7816164E-02  0.1320468E+00
        -11   -1    0    0    0    0  0.00000000000E+00  0.00000000000E+00  0.45593999997E+02  0.45594000000E+02  0.51100000000E-03 0.  1.
         11   -1    0    0    0    0 -0.00000000000E+00 -0.00000000000E+00 -0.45593999997E+02  0.45594000000E+02  0.51100000000E-03 0. -1.
    9900012    2    1    2    0    0 -0.40006002895E+02  0.42326064494E+01 -0.20266186454E+02  0.46142317206E+02  0.99999949367E+01 0.  0.
        -12    1    1    2    0    0  0.40006002895E+02 -0.42326064494E+01  0.20266186454E+02  0.45045682794E+02  0.00000000000E+00 0.  1.
         11    1    3    3    0    0 -0.47198817029E+01  0.39037977534E-01 -0.54685236085E+01  0.72238187942E+01  0.51100000000E-03 0. -1.
        -11    1    3    3    0    0 -0.11478488157E+02  0.40481918340E+01 -0.55576137052E+01  0.13380232354E+02  0.51100000000E-03 0.  1.
        -12    1    3    3    0    0 -0.23807633035E+02  0.14537663785E+00 -0.92400491405E+01  0.25538266057E+02  0.00000000000E+00 0.  1.
</event>
<event>
 7    1  0.2001181E-008  0.4614231E+02  0.7816164E-02  0.1320468E+00
        -11   -1    0    0    0    0  0.00000000000E+00  0.00000000000E+00  0.45593999997E+02  0.45594000000E+02  0.51100000000E-03 0.  1.
         11   -1    0    0    0    0 -0.00000000000E+00 -0.00000000000E+00 -0.45593999997E+02  0.45594000000E+02  0.51100000000E-03 0. -1.
    9900012    2    1    2    0    0  0.44865165611E+02  0.34720653730E+01  0.20434568881E+01  0.46142311646E+02  0.99999442387E+01 0.  0.
        -12    1    1    2    0    0 -0.44865165611E+02 -0.34720653730E+01 -0.20434568881E+01  0.45045688354E+02  0.00000000000E+00 0.  1.
         11    1    3    3    0    0  0.57608924522E+01  0.43567276174E-01 -0.22982887496E+01  0.62025729654E+01  0.51100000000E-03 0. -1.
        -11    1    3    3    0    0  0.19094478048E+02  0.39271127505E+01  0.41084839098E+01  0.19922373021E+02  0.51100000000E-03 0.  1.
         12    1    3    3    0    0  0.20009795110E+02 -0.49861465361E+00  0.23326172792E+00  0.20017365660E+02  0.00000000000E+00 0. -1.
</event>
<event>
 7    1  0.2001181E-008  0.4614232E+02  0.7816164E-02  0.1320468E+00
        -11   -1    0    0    0    0  0.00000000000E+00  0.00000000000E+00  0.45593999997E+02  0.45594000000E+02  0.51100000000E-03 0. -1.
         11   -1    0    0    0    0 -0.00000000000E+00 -0.00000000000E+00 -0.45593999997E+02  0.45594000000E+02  0.51100000000E-03 0.  1.
    9900012    2    1    2    0    0  0.20258956129E+02 -0.29936942041E+02  0.26878760398E+02  0.46142316936E+02  0.99999924736E+01 0.  0.
        -12    1    1    2    0    0 -0.20258956129E+02  0.29936942041E+02 -0.26878760398E+02  0.45045683064E+02  0.00000000000E+00 0.  1.
         11    1    3    3    0    0  0.93503178216E+01 -0.17912134241E+02  0.14867341658E+02  0.25086068737E+02  0.51100000000E-03 0.  1.
        -11    1    3    3    0    0  0.78861037146E+01 -0.11276611645E+02  0.77959648617E+01  0.15815488307E+02  0.51100000000E-03 0. -1.
        -12    1    3    3    0    0  0.30225345928E+01 -0.74819615497E+00  0.42154538779E+01  0.52407598922E+01  0.00000000000E+00 0.  1.
</event>
<event>
 7    1  0.2001181E-008  0.4614232E+02  0.7816164E-02  0.1320468E+00
        -11   -1    0    0    0    0  0.00000000000E+00  0.00000000000E+00  0.45593999997E+02  0.45594000000E+02  0.51100000000E-03 0.  1.
         11   -1    0    0    0    0 -0.00000000000E+00 -0.00000000000E+00 -0.45593999997E+02  0.45594000000E+02  0.51100000000E-03 0. -1.
    9900012    2    1    2    0    0  0.12661471343E+02 -0.10867418024E+02 -0.41841365552E+02  0.46142317606E+02  0.99999985820E+01 0.  0.
        -12    1    1    2    0    0 -0.12661471343E+02  0.10867418024E+02  0.41841365552E+02  0.45045682394E+02  0.00000000000E+00 0.  1.
         11    1    3    3    0    0  0.57756439933E+01 -0.31639404995E+01 -0.18131201163E+02  0.19290128016E+02  0.51100000000E-03 0. -1.
        -11    1    3    3    0    0  0.80799209306E+01 -0.68292297828E+01 -0.17341326370E+02  0.20313667867E+02  0.51100000000E-03 0.  1.
        -12    1    3    3    0    0 -0.11940935809E+01 -0.87424774186E+00 -0.63688380195E+01  0.65385217222E+01  0.00000000000E+00 0.  1.
</event>
<event>
 7    1  0.2001181E-008  0.4614232E+02  0.7816164E-02  0.1320468E+00
        -11   -1    0    0    0    0  0.00000000000E+00  0.00000000000E+00  0.45593999997E+02  0.45594000000E+02  0.51100000000E-03 0. -1.
         11   -1    0    0    0    0 -0.00000000000E+00 -0.00000000000E+00 -0.45593999997E+02  0.45594000000E+02  0.51100000000E-03 0.  1.
    9900012    2    1    2    0    0  0.19377401858E+02  0.10043154759E+02  0.39405139506E+02  0.46142315636E+02  0.99999806242E+01 0.  0.
        -12    1    1    2    0    0 -0.19377401858E+02 -0.10043154759E+02 -0.39405139506E+02  0.45045684364E+02  0.00000000000E+00 0.  1.
         11    1    3    3    0    0  0.10293874273E+02  0.15841770973E+01  0.16734388227E+02  0.19710738551E+02  0.51100000000E-03 0. -1.
        -11    1    3    3    0    0 -0.53568479394E+00 -0.24582983587E+00  0.13660174542E+01  0.14877481148E+01  0.51100000000E-03 0.  1.
        -12    1    3    3    0    0  0.96192123794E+01  0.87048074979E+01  0.21304733825E+02  0.24943828971E+02  0.00000000000E+00 0.  1.
</event>
<event>
 7    1  0.2001181E-008  0.4614232E+02  0.7816164E-02  0.1320468E+00
        -11   -1    0    0    0    0  0.00000000000E+00  0.00000000000E+00  0.45593999997E+02  0.45594000000E+02  0.51100000000E-03 0. -1.
         11   -1    0    0    0    0 -0.00000000000E+00 -0.00000000000E+00 -0.45593999997E+02  0.45594000000E+02  0.51100000000E-03 0.  1.
    9900012    2    1    2    0    0  0.22574641760E+02  0.38000977361E+02  0.86847456811E+01  0.46142317204E+02  0.99999949236E+01 0.  0.
        -12    1    1    2    0    0 -0.22574641760E+02 -0.38000977361E+02 -0.86847456811E+01  0.45045682796E+02  0.00000000000E+00 0.  1.
         11    1    3    3    0    0  0.16836184237E+02  0.31026408962E+02  0.88734480065E+01  0.36398258646E+02  0.51100000000E-03 0. -1.
        -11    1    3    3    0    0  0.29152503641E+01  0.38888432779E+01  0.17081369682E+01  0.51516520543E+01  0.51100000000E-03 0.  1.
        -12    1    3    3    0    0  0.28232071594E+01  0.30857251211E+01 -0.18968392936E+01  0.45924065036E+01  0.00000000000E+00 0.  1.
</event>
<event>
 7    1  0.2001181E-008  0.4614232E+02  0.7816164E-02  0.1320468E+00
        -11   -1    0    0    0    0  0.00000000000E+00  0.00000000000E+00  0.45593999997E+02  0.45594000000E+02  0.51100000000E-03 0. -1.
         11   -1    0    0    0    0 -0.00000000000E+00 -0.00000000000E+00 -0.45593999997E+02  0.45594000000E+02  0.51100000000E-03 0.  1.
    9900012    2    1    2    0    0 -0.10741326621E+02 -0.13737446164E+02  0.41533360459E+02  0.46142317014E+02  0.99999931865E+01 0.  0.
        -12    1    1    2    0    0  0.10741326621E+02  0.13737446164E+02 -0.41533360459E+02  0.45045682986E+02  0.00000000000E+00 0.  1.
         11    1    3    3    0    0 -0.34969379183E+01 -0.70251270677E+01  0.96213110331E+01  0.12415740468E+02  0.51100000000E-03 0. -1.
        -11    1    3    3    0    0 -0.21800729666E+00 -0.25660316933E+01  0.53093540708E+01  0.59009564261E+01  0.51100000000E-03 0.  1.
         12    1    3    3    0    0 -0.70263814059E+01 -0.41462874033E+01  0.26602695355E+02  0.27825620119E+02  0.00000000000E+00 0. -1.
</event>
<event>
 7    1  0.2001181E-008  0.4614232E+02  0.7816164E-02  0.1320468E+00
        -11   -1    0    0    0    0  0.00000000000E+00  0.00000000000E+00  0.45593999997E+02  0.45594000000E+02  0.51100000000E-03 0.  1.
         11   -1    0    0    0    0 -0.00000000000E+00 -0.00000000000E+00 -0.45593999997E+02  0.45594000000E+02  0.51100000000E-03 0. -1.
    9900012    2    1    2    0    0  0.50594453293E+00  0.42974508371E+02 -0.13492559313E+02  0.46142317561E+02  0.99999981779E+01 0.  0.
        -12    1    1    2    0    0 -0.50594453293E+00 -0.42974508371E+02  0.13492559313E+02  0.45045682439E+02  0.00000000000E+00 0.  1.
         11    1    3    3    0    0 -0.29570891696E+01  0.13401400918E+02 -0.13187217719E+01  0.13786984815E+02  0.51100000000E-03 0. -1.
        -11    1    3    3    0    0  0.52897109889E+00  0.11986131003E+02 -0.33236635742E+01  0.12449654078E+02  0.51100000000E-03 0.  1.
        -12    1    3    3    0    0  0.29340626036E+01  0.17586976449E+02 -0.88501739668E+01  0.19905678668E+02  0.00000000000E+00 0.  1.
</event>
<event>
 7    1  0.2001181E-008  0.4614231E+02  0.7816164E-02  0.1320468E+00
        -11   -1    0    0    0    0  0.00000000000E+00  0.00000000000E+00  0.45593999997E+02  0.45594000000E+02  0.51100000000E-03 0. -1.
         11   -1    0    0    0    0 -0.00000000000E+00 -0.00000000000E+00 -0.45593999997E+02  0.45594000000E+02  0.51100000000E-03 0.  1.
    9900012    2    1    2    0    0 -0.27248241676E+02  0.30752598513E+02  0.18464150055E+02  0.46142314003E+02  0.99999657279E+01 0.  0.
        -12    1    1    2    0    0  0.27248241676E+02 -0.30752598513E+02 -0.18464150055E+02  0.45045685997E+02  0.00000000000E+00 0.  1.
         11    1    3    3    0    0 -0.23916797167E+02  0.26059174477E+02  0.14836925186E+02  0.38356591485E+02  0.51100000000E-03 0. -1.
        -11    1    3    3    0    0 -0.35199749856E+01  0.25666322172E+01  0.35984952063E+01  0.56503975832E+01  0.51100000000E-03 0.  1.
         12    1    3    3    0    0  0.18853047672E+00  0.21267918187E+01  0.28729662769E-01  0.21353249342E+01  0.00000000000E+00 0. -1.
</event>
<event>
 7    1  0.2001181E-008  0.4614232E+02  0.7816164E-02  0.1320468E+00
        -11   -1    0    0    0    0  0.00000000000E+00  0.00000000000E+00  0.45593999997E+02  0.45594000000E+02  0.51100000000E-03 0.  1.
         11   -1    0    0    0    0 -0.00000000000E+00 -0.00000000000E+00 -0.45593999997E+02  0.45594000000E+02  0.51100000000E-03 0. -1.
    9900012    2    1    2    0    0  0.18340866273E+02  0.28722970077E+02 -0.29457038704E+02  0.46142317467E+02  0.99999973156E+01 0.  0.
        -12    1    1    2    0    0 -0.18340866273E+02 -0.28722970077E+02  0.29457038704E+02  0.45045682533E+02  0.00000000000E+00 0.  1.
         11    1    3    3    0    0  0.33050926708E+01  0.80452675731E+01 -0.89595985599E+01  0.12486968187E+02  0.51100000000E-03 0. -1.
        -11    1    3    3    0    0  0.15811372290E+02  0.20304992113E+02 -0.20286388844E+02  0.32769341937E+02  0.51100000000E-03 0.  1.
        -12    1    3    3    0    0 -0.77559868794E+00  0.37271039100E+00 -0.21105130027E+00  0.88600734288E+00  0.00000000000E+00 0.  1.
</event>
<event>
 7    1  0.2001181E-008  0.4614232E+02  0.7816164E-02  0.1320468E+00
        -11   -1    0    0    0    0  0.00000000000E+00  0.00000000000E+00  0.45593999997E+02  0.45594000000E+02  0.51100000000E-03 0. -1.
         11   -1    0    0    0    0 -0.00000000000E+00 -0.00000000000E+00 -0.45593999997E+02  0.45594000000E+02  0.51100000000E-03 0.  1.
    9900012    2    1    2    0    0  0.35954499282E+02  0.19640050574E+02  0.18725809012E+02  0.46142317318E+02  0.99999959584E+01 0.  0.
        -12    1    1    2    0    0 -0.35954499282E+02 -0.19640050574E+02 -0.18725809012E+02  0.45045682682E+02  0.00000000000E+00 0.  1.
         11    1    3    3    0    0  0.72933736658E+01  0.99152585583E+00  0.39475035628E+01  0.83521977701E+01  0.51100000000E-03 0. -1.
        -11    1    3    3    0    0  0.66163241241E+01  0.77347454381E+01  0.45769934660E+01  0.11160237513E+02  0.51100000000E-03 0.  1.
        -12    1    3    3    0    0  0.22044801492E+02  0.10913779280E+02  0.10201311983E+02  0.26629882034E+02  0.00000000000E+00 0.  1.
</event>
<event>
 7    1  0.2001181E-008  0.4614232E+02  0.7816164E-02  0.1320468E+00
        -11   -1    0    0    0    0  0.00000000000E+00  0.00000000000E+00  0.45593999997E+02  0.45594000000E+02  0.51100000000E-03 0.  1.
         11   -1    0    0    0    0 -0.00000000000E+00 -0.00000000000E+00 -0.45593999997E+02  0.45594000000E+02  0.51100000000E-03 0. -1.
    9900012    2    1    2    0    0  0.20465068874E+02 -0.39522457266E+02 -0.69476487577E+01  0.46142317681E+02  0.99999992709E+01 0.  0.
        -12    1    1    2    0    0 -0.20465068874E+02  0.39522457266E+02  0.69476487577E+01  0.45045682319E+02  0.00000000000E+00 0.  1.
         11    1    3    3    0    0  0.27711219899E+01 -0.93249071654E+01  0.95935078487E+00  0.97751401481E+01  0.51100000000E-03 0. -1.
        -11    1    3    3    0    0  0.57087208188E+01 -0.56572900436E+01 -0.32159537016E+01  0.86566034042E+01  0.51100000000E-03 0.  1.
        -12    1    3    3    0    0  0.11985226065E+02 -0.24540260057E+02 -0.46910458410E+01  0.27710574129E+02  0.00000000000E+00 0.  1.
</event>
<event>
 7    1  0.2001181E-008  0.4614232E+02  0.7816164E-02  0.1320468E+00
        -11   -1    0    0    0    0  0.00000000000E+00  0.00000000000E+00  0.45593999997E+02  0.45594000000E+02  0.51100000000E-03 0.  1.
         11   -1    0    0    0    0 -0.00000000000E+00 -0.00000000000E+00 -0.45593999997E+02  0.45594000000E+02  0.51100000000E-03 0. -1.
    9900012    2    1    2    0    0 -0.27259673810E+01 -0.39850967919E+02 -0.20822655686E+02  0.46142317276E+02  0.99999955776E+01 0.  0.
        -12    1    1    2    0    0  0.27259673810E+01  0.39850967919E+02  0.20822655686E+02  0.45045682724E+02  0.00000000000E+00 0.  1.
         11    1    3    3    0    0 -0.25095125559E+01 -0.71507186305E+01 -0.23082437042E+01  0.79220211727E+01  0.51100000000E-03 0. -1.
        -11    1    3    3    0    0  0.37741118084E+00 -0.14821849253E+02 -0.44954162235E+01  0.15493173392E+02  0.51100000000E-03 0.  1.
         12    1    3    3    0    0 -0.59386600595E+00 -0.17878400036E+02 -0.14018995759E+02  0.22727122712E+02  0.00000000000E+00 0. -1.
</event>
<event>
 7    1  0.2001181E-008  0.4614232E+02  0.7816164E-02  0.1320468E+00
        -11   -1    0    0    0    0  0.00000000000E+00  0.00000000000E+00  0.45593999997E+02  0.45594000000E+02  0.51100000000E-03 0.  1.
         11   -1    0    0    0    0 -0.00000000000E+00 -0.00000000000E+00 -0.45593999997E+02  0.45594000000E+02  0.51100000000E-03 0. -1.
    9900012    2    1    2    0    0 -0.35401895403E+02  0.23365634167E+02 -0.15161348581E+02  0.46142317089E+02  0.99999938696E+01 0.  0.
        -12    1    1    2    0    0  0.35401895403E+02 -0.23365634167E+02  0.15161348581E+02  0.45045682911E+02  0.00000000000E+00 0.  1.
         11    1    3    3    0    0 -0.65343733607E+01  0.34521317706E+01 -0.38859013322E+01  0.83495795346E+01  0.51100000000E-03 0. -1.
        -11    1    3    3    0    0 -0.16678267660E+02  0.78015575600E+01 -0.88825322851E+01  0.20443294562E+02  0.51100000000E-03 0.  1.
         12    1    3    3    0    0 -0.12189254383E+02  0.12111944836E+02 -0.23929149634E+01  0.17349442992E+02  0.00000000000E+00 0. -1.
</event>
<event>
 7    1  0.2001181E-008  0.4614232E+02  0.7816164E-02  0.1320468E+00
        -11   -1    0    0    0    0  0.00000000000E+00  0.00000000000E+00  0.45593999997E+02  0.45594000000E+02  0.51100000000E-03 0. -1.
         11   -1    0    0    0    0 -0.00000000000E+00 -0.00000000000E+00 -0.45593999997E+02  0.45594000000E+02  0.51100000000E-03 0.  1.
    9900012    2    1    2    0    0 -0.43132555071E+02 -0.37782268119E+01 -0.12426628807E+02  0.46142318650E+02  0.10000008102E+02 0.  0.
        -12    1    1    2    0    0  0.43132555071E+02  0.37782268119E+01  0.12426628807E+02  0.45045681350E+02  0.00000000000E+00 0.  1.
         11    1    3    3    0    0 -0.15408197660E+02 -0.39713475750E+01 -0.81536115914E+00  0.15932638538E+02  0.51100000000E-03 0. -1.
        -11    1    3    3    0    0 -0.16527262305E+00 -0.22030934945E-01  0.16919711841E+00  0.23754647551E+00  0.51100000000E-03 0.  1.
         12    1    3    3    0    0 -0.27559084788E+02  0.21515169805E+00 -0.11780464766E+02  0.29972133636E+02  0.00000000000E+00 0. -1.
</event>
<event>
 7    1  0.2001181E-008  0.4614232E+02  0.7816164E-02  0.1320468E+00
        -11   -1    0    0    0    0  0.00000000000E+00  0.00000000000E+00  0.45593999997E+02  0.45594000000E+02  0.51100000000E-03 0.  1.
         11   -1    0    0    0    0 -0.00000000000E+00 -0.00000000000E+00 -0.45593999997E+02  0.45594000000E+02  0.51100000000E-03 0. -1.
    9900012    2    1    2    0    0 -0.25414825219E+02  0.32952831924E+02 -0.17242708474E+02  0.46142317984E+02  0.10000002034E+02 0.  0.
        -12    1    1    2    0    0  0.25414825219E+02 -0.32952831924E+02  0.17242708474E+02  0.45045682016E+02  0.00000000000E+00 0.  1.
         11    1    3    3    0    0 -0.86028637474E+01  0.87389373754E+01 -0.55016932239E+01  0.13440495515E+02  0.51100000000E-03 0. -1.
        -11    1    3    3    0    0 -0.17171540632E+02  0.22793451913E+02 -0.96034860312E+01  0.30110300596E+02  0.51100000000E-03 0.  1.
        -12    1    3    3    0    0  0.35957915984E+00  0.14204426358E+01 -0.21375292191E+01  0.25915218727E+01  0.00000000000E+00 0.  1.
</event>
<event>
 7    1  0.2001181E-008  0.4614232E+02  0.7816164E-02  0.1320468E+00
        -11   -1    0    0    0    0  0.00000000000E+00  0.00000000000E+00  0.45593999997E+02  0.45594000000E+02  0.51100000000E-03 0. -1.
         11   -1    0    0    0    0 -0.00000000000E+00 -0.00000000000E+00 -0.45593999997E+02  0.45594000000E+02  0.51100000000E-03 0.  1.
    9900012    2    1    2    0    0  0.27719134233E+02  0.35328864754E+02  0.35545039372E+01  0.46142316681E+02  0.99999901497E+01 0.  0.
        -12    1    1    2    0    0 -0.27719134233E+02 -0.35328864754E+02 -0.35545039372E+01  0.45045683319E+02  0.00000000000E+00 0.  1.
         11    1    3    3    0    0  0.36606450986E+00  0.37598122458E+01 -0.61541861330E+00  0.38273922819E+01  0.51100000000E-03 0. -1.
        -11    1    3    3    0    0  0.16466199132E+02  0.17363364078E+02 -0.36782530516E-01  0.23929552423E+02  0.51100000000E-03 0.  1.
         12    1    3    3    0    0  0.10886870592E+02  0.14205688430E+02  0.42067050811E+01  0.18385371976E+02  0.00000000000E+00 0. -1.
</event>
<event>
 7    1  0.2001181E-008  0.4614232E+02  0.7816164E-02  0.1320468E+00
        -11   -1    0    0    0    0  0.00000000000E+00  0.00000000000E+00  0.45593999997E+02  0.45594000000E+02  0.51100000000E-03 0.  1.
         11   -1    0    0    0    0 -0.00000000000E+00 -0.00000000000E+00 -0.45593999997E+02  0.45594000000E+02  0.51100000000E-03 0. -1.
    9900012    2    1    2    0    0 -0.32407225926E+02  0.25186919623E+01 -0.31185597935E+02  0.46142316301E+02  0.99999866819E+01 0.  0.
        -12    1    1    2    0    0  0.32407225926E+02 -0.25186919623E+01  0.31185597935E+02  0.45045683699E+02  0.00000000000E+00 0.  1.
         11    1    3    3    0    0 -0.21779243881E+02  0.14609338466E+01 -0.14231267159E+02  0.26057604590E+02  0.51100000000E-03 0. -1.
        -11    1    3    3    0    0 -0.36911737293E+01  0.10253624089E+01 -0.60195329949E+01  0.71351881060E+01  0.51100000000E-03 0.  1.
         12    1    3    3    0    0 -0.69368083149E+01  0.32395706731E-01 -0.10934797781E+02  0.12949523605E+02  0.00000000000E+00 0. -1.
</event>
<event>
 7    1  0.2001181E-008  0.4614232E+02  0.7816164E-02  0.1320468E+00
        -11   -1    0    0    0    0  0.00000000000E+00  0.00000000000E+00  0.45593999997E+02  0.45594000000E+02  0.51100000000E-03 0.  1.
         11   -1    0    0    0    0 -0.00000000000E+00 -0.00000000000E+00 -0.45593999997E+02  0.45594000000E+02  0.51100000000E-03 0. -1.
    9900012    2    1    2    0    0 -0.86095273117E+01  0.15339692820E+02 -0.41469067288E+02  0.46142315655E+02  0.99999807980E+01 0.  0.
        -12    1    1    2    0    0  0.86095273117E+01 -0.15339692820E+02  0.41469067288E+02  0.45045684345E+02  0.00000000000E+00 0.  1.
         11    1    3    3    0    0  0.46015938834E+00  0.37455811185E+00 -0.15733989747E+01  0.16815543514E+01  0.51100000000E-03 0. -1.
        -11    1    3    3    0    0  0.15360007879E+01  0.14545225828E+01 -0.75096590617E+01  0.78019173187E+01  0.51100000000E-03 0.  1.
        -12    1    3    3    0    0 -0.10605687488E+02  0.13510612125E+02 -0.32386009252E+02  0.36658843985E+02  0.00000000000E+00 0.  1.
</event>
<event>
 7    1  0.2001181E-008  0.4614232E+02  0.7816164E-02  0.1320468E+00
        -11   -1    0    0    0    0  0.00000000000E+00  0.00000000000E+00  0.45593999997E+02  0.45594000000E+02  0.51100000000E-03 0.  1.
         11   -1    0    0    0    0 -0.00000000000E+00 -0.00000000000E+00 -0.45593999997E+02  0.45594000000E+02  0.51100000000E-03 0. -1.
    9900012    2    1    2    0    0 -0.32940477673E+02 -0.24177480550E+02 -0.18960164325E+02  0.46142318006E+02  0.10000002229E+02 0.  0.
        -12    1    1    2    0    0  0.32940477673E+02  0.24177480550E+02  0.18960164325E+02  0.45045681994E+02  0.00000000000E+00 0.  1.
         11    1    3    3    0    0 -0.19401909084E+02 -0.14305181286E+02 -0.12574806103E+02  0.27188196640E+02  0.51100000000E-03 0. -1.
        -11    1    3    3    0    0 -0.10897600809E+02 -0.10219024992E+02 -0.42273133231E+01  0.15525989610E+02  0.51100000000E-03 0.  1.
         12    1    3    3    0    0 -0.26409677802E+01  0.34672572806E+00 -0.21580448991E+01  0.34281317555E+01  0.00000000000E+00 0. -1.
</event>
<event>
 7    1  0.2001181E-008  0.4614232E+02  0.7816164E-02  0.1320468E+00
        -11   -1    0    0    0    0  0.00000000000E+00  0.00000000000E+00  0.45593999997E+02  0.45594000000E+02  0.51100000000E-03 0. -1.
         11   -1    0    0    0    0 -0.00000000000E+00 -0.00000000000E+00 -0.45593999997E+02  0.45594000000E+02  0.51100000000E-03 0.  1.
    9900012    2    1    2    0    0 -0.72076827069E+01  0.27376254379E+02  0.35038600197E+02  0.46142317659E+02  0.99999990666E+01 0.  0.
        -12    1    1    2    0    0  0.72076827069E+01 -0.27376254379E+02 -0.35038600197E+02  0.45045682341E+02  0.00000000000E+00 0.  1.
         11    1    3    3    0    0 -0.33734539370E+01  0.68281635700E+01  0.12763965377E+02  0.14863472730E+02  0.51100000000E-03 0. -1.
        -11    1    3    3    0    0 -0.50660489111E+01  0.88958722958E+01  0.10060560662E+02  0.14353267104E+02  0.51100000000E-03 0.  1.
        -12    1    3    3    0    0  0.12318201412E+01  0.11652218513E+02  0.12214074158E+02  0.16925577824E+02  0.00000000000E+00 0.  1.
</event>
<event>
 7    1  0.2001181E-008  0.4614232E+02  0.7816164E-02  0.1320468E+00
        -11   -1    0    0    0    0  0.00000000000E+00  0.00000000000E+00  0.45593999997E+02  0.45594000000E+02  0.51100000000E-03 0.  1.
         11   -1    0    0    0    0 -0.00000000000E+00 -0.00000000000E+00 -0.45593999997E+02  0.45594000000E+02  0.51100000000E-03 0. -1.
    9900012    2    1    2    0    0  0.21547869712E+02 -0.27272025412E+02 -0.28653789021E+02  0.46142315584E+02  0.99999801508E+01 0.  0.
        -12    1    1    2    0    0 -0.21547869712E+02  0.27272025412E+02  0.28653789021E+02  0.45045684416E+02  0.00000000000E+00 0.  1.
         11    1    3    3    0    0  0.19979481578E+02 -0.21269650107E+02 -0.23840048619E+02  0.37681900406E+02  0.51100000000E-03 0. -1.
        -11    1    3    3    0    0  0.93307618899E+00 -0.21986900762E+01 -0.12812629044E+00  0.23919209505E+01  0.51100000000E-03 0.  1.
         12    1    3    3    0    0  0.63531194479E+00 -0.38036852293E+01 -0.46856141119E+01  0.60684942281E+01  0.00000000000E+00 0. -1.
</event>
<event>
 7    1  0.2001181E-008  0.4614233E+02  0.7816164E-02  0.1320468E+00
        -11   -1    0    0    0    0  0.00000000000E+00  0.00000000000E+00  0.45593999997E+02  0.45594000000E+02  0.51100000000E-03 0.  1.
         11   -1    0    0    0    0 -0.00000000000E+00 -0.00000000000E+00 -0.45593999997E+02  0.45594000000E+02  0.51100000000E-03 0. -1.
    9900012    2    1    2    0    0 -0.27159156577E+02  0.29566195629E+02  0.20428727389E+02  0.46142327482E+02  0.10000088638E+02 0.  0.
        -12    1    1    2    0    0  0.27159156577E+02 -0.29566195629E+02 -0.20428727389E+02  0.45045672518E+02  0.00000000000E+00 0.  1.
         11    1    3    3    0    0 -0.13976792751E+02  0.11889309201E+02  0.10399882842E+02  0.21091798697E+02  0.51100000000E-03 0. -1.
        -11    1    3    3    0    0 -0.13888077275E+02  0.17143643272E+02  0.97645693516E+01  0.24127370555E+02  0.51100000000E-03 0.  1.
        -12    1    3    3    0    0  0.70571345004E+00  0.53324315648E+00  0.26427519539E+00  0.92315822934E+00  0.00000000000E+00 0.  1.
</event>
<event>
 7    1  0.2001181E-008  0.4614233E+02  0.7816164E-02  0.1320468E+00
        -11   -1    0    0    0    0  0.00000000000E+00  0.00000000000E+00  0.45593999997E+02  0.45594000000E+02  0.51100000000E-03 0.  1.
         11   -1    0    0    0    0 -0.00000000000E+00 -0.00000000000E+00 -0.45593999997E+02  0.45594000000E+02  0.51100000000E-03 0. -1.
    9900012    2    1    2    0    0 -0.44702061353E+02 -0.94939491538E+00 -0.54714875906E+01  0.46142325220E+02  0.10000068017E+02 0.  0.
        -12    1    1    2    0    0  0.44702061353E+02  0.94939491538E+00  0.54714875906E+01  0.45045674780E+02  0.00000000000E+00 0.  1.
         11    1    3    3    0    0 -0.21012262452E+02 -0.17382618462E+01  0.54863381854E+00  0.21091176518E+02  0.51100000000E-03 0. -1.
        -11    1    3    3    0    0 -0.18226676912E+02 -0.17073181044E+00 -0.67902540279E+01  0.19451181214E+02  0.51100000000E-03 0.  1.
        -12    1    3    3    0    0 -0.54631219896E+01  0.95959874126E+00  0.77013261883E+00  0.55999674881E+01  0.00000000000E+00 0.  1.
</event>
<event>
 7    1  0.2001181E-008  0.4614232E+02  0.7816164E-02  0.1320468E+00
        -11   -1    0    0    0    0  0.00000000000E+00  0.00000000000E+00  0.45593999997E+02  0.45594000000E+02  0.51100000000E-03 0.  1.
         11   -1    0    0    0    0 -0.00000000000E+00 -0.00000000000E+00 -0.45593999997E+02  0.45594000000E+02  0.51100000000E-03 0. -1.
    9900012    2    1    2    0    0  0.13453053896E+02  0.52995454033E+01 -0.42661969560E+02  0.46142317773E+02  0.10000000106E+02 0.  0.
        -12    1    1    2    0    0 -0.13453053896E+02 -0.52995454033E+01  0.42661969560E+02  0.45045682227E+02  0.00000000000E+00 0.  1.
         11    1    3    3    0    0 -0.45610437306E+00  0.26977383586E+00 -0.37996351834E+01  0.38364093772E+01  0.51100000000E-03 0. -1.
        -11    1    3    3    0    0  0.70256956471E+01 -0.15108073324E+01 -0.18144379277E+02  0.19515671593E+02  0.51100000000E-03 0.  1.
         12    1    3    3    0    0  0.68834626215E+01  0.65405788999E+01 -0.20717955100E+02  0.22790236803E+02  0.00000000000E+00 0. -1.
</event>
<event>
 7    1  0.2001181E-008  0.4614232E+02  0.7816164E-02  0.1320468E+00
        -11   -1    0    0    0    0  0.00000000000E+00  0.00000000000E+00  0.45593999997E+02  0.45594000000E+02  0.51100000000E-03 0.  1.
         11   -1    0    0    0    0 -0.00000000000E+00 -0.00000000000E+00 -0.45593999997E+02  0.45594000000E+02  0.51100000000E-03 0. -1.
    9900012    2    1    2    0    0  0.31755638826E+02 -0.13549185991E+01 -0.31919540396E+02  0.46142318068E+02  0.10000002799E+02 0.  0.
        -12    1    1    2    0    0 -0.31755638826E+02  0.13549185991E+01  0.31919540396E+02  0.45045681932E+02  0.00000000000E+00 0.  1.
         11    1    3    3    0    0  0.78793935562E+01  0.13903880410E+01 -0.72536714162E+01  0.10799711616E+02  0.51100000000E-03 0. -1.
        -11    1    3    3    0    0  0.33989392551E+01  0.22106558473E+01 -0.25097094179E+01  0.47684828781E+01  0.51100000000E-03 0.  1.
        -12    1    3    3    0    0  0.20477306015E+02 -0.49559624873E+01 -0.22156159562E+02  0.30574123574E+02  0.00000000000E+00 0.  1.
</event>
<event>
 7    1  0.2001181E-008  0.4614232E+02  0.7816164E-02  0.1320468E+00
        -11   -1    0    0    0    0  0.00000000000E+00  0.00000000000E+00  0.45593999997E+02  0.45594000000E+02  0.51100000000E-03 0. -1.
         11   -1    0    0    0    0 -0.00000000000E+00 -0.00000000000E+00 -0.45593999997E+02  0.45594000000E+02  0.51100000000E-03 0.  1.
    9900012    2    1    2    0    0  0.30793359792E+02  0.52096786951E+01  0.32461389909E+02  0.46142316586E+02  0.99999892883E+01 0.  0.
        -12    1    1    2    0    0 -0.30793359792E+02 -0.52096786951E+01 -0.32461389909E+02  0.45045683414E+02  0.00000000000E+00 0.  1.
         11    1    3    3    0    0  0.29116651417E+01  0.54240574380E+00  0.38281113249E+00  0.29863928932E+01  0.51100000000E-03 0.  1.
        -11    1    3    3    0    0  0.25863555578E+02  0.48196995256E+01  0.27043693321E+02  0.37729489254E+02  0.51100000000E-03 0. -1.
         12    1    3    3    0    0  0.20181390719E+01 -0.15242657433E+00  0.50348854554E+01  0.54264344392E+01  0.00000000000E+00 0. -1.
</event>
<event>
 7    1  0.2001181E-008  0.4614232E+02  0.7816164E-02  0.1320468E+00
        -11   -1    0    0    0    0  0.00000000000E+00  0.00000000000E+00  0.45593999997E+02  0.45594000000E+02  0.51100000000E-03 0. -1.
         11   -1    0    0    0    0 -0.00000000000E+00 -0.00000000000E+00 -0.45593999997E+02  0.45594000000E+02  0.51100000000E-03 0.  1.
    9900012    2    1    2    0    0 -0.21417002408E+02  0.14011608388E+02  0.37068859147E+02  0.46142317851E+02  0.10000000820E+02 0.  0.
        -12    1    1    2    0    0  0.21417002408E+02 -0.14011608388E+02 -0.37068859147E+02  0.45045682149E+02  0.00000000000E+00 0.  1.
         11    1    3    3    0    0  0.45530215180E+00  0.26160719271E+01  0.45352190646E+01  0.52554109832E+01  0.51100000000E-03 0. -1.
        -11    1    3    3    0    0 -0.10510163040E+02  0.42498122443E+01  0.14460025351E+02  0.18374350727E+02  0.51100000000E-03 0.  1.
         12    1    3    3    0    0 -0.11362141520E+02  0.71457242167E+01  0.18073614732E+02  0.22512556141E+02  0.00000000000E+00 0. -1.
</event>
<event>
 7    1  0.2001181E-008  0.4614232E+02  0.7816164E-02  0.1320468E+00
        -11   -1    0    0    0    0  0.00000000000E+00  0.00000000000E+00  0.45593999997E+02  0.45594000000E+02  0.51100000000E-03 0.  1.
         11   -1    0    0    0    0 -0.00000000000E+00 -0.00000000000E+00 -0.45593999997E+02  0.45594000000E+02  0.51100000000E-03 0. -1.
    9900012    2    1    2    0    0  0.43675690250E+02 -0.37638107782E+01  0.10362494444E+02  0.46142317837E+02  0.10000000696E+02 0.  0.
        -12    1    1    2    0    0 -0.43675690250E+02  0.37638107782E+01 -0.10362494444E+02  0.45045682163E+02  0.00000000000E+00 0.  1.
         11    1    3    3    0    0  0.20435862836E+02  0.36584520937E-01  0.57079718581E+00  0.20443865534E+02  0.51100000000E-03 0. -1.
        -11    1    3    3    0    0  0.11088844232E+02 -0.97263355188E+00  0.31680466858E+01  0.11573461129E+02  0.51100000000E-03 0.  1.
        -12    1    3    3    0    0  0.12150983182E+02 -0.28277617473E+01  0.66236505723E+01  0.14124991175E+02  0.00000000000E+00 0.  1.
</event>
<event>
 7    1  0.2001181E-008  0.4614232E+02  0.7816164E-02  0.1320468E+00
        -11   -1    0    0    0    0  0.00000000000E+00  0.00000000000E+00  0.45593999997E+02  0.45594000000E+02  0.51100000000E-03 0.  1.
         11   -1    0    0    0    0 -0.00000000000E+00 -0.00000000000E+00 -0.45593999997E+02  0.45594000000E+02  0.51100000000E-03 0. -1.
    9900012    2    1    2    0    0  0.51693205452E+00  0.33993941086E+02 -0.29550944887E+02  0.46142316599E+02  0.99999894071E+01 0.  0.
        -12    1    1    2    0    0 -0.51693205452E+00 -0.33993941086E+02  0.29550944887E+02  0.45045683401E+02  0.00000000000E+00 0.  1.
         11    1    3    3    0    0  0.32961403189E+01  0.13866063162E+02 -0.13959056188E+02  0.19949624020E+02  0.51100000000E-03 0.  1.
        -11    1    3    3    0    0  0.28540845768E+00  0.14476251555E+02 -0.12142945945E+02  0.18896942968E+02  0.51100000000E-03 0. -1.
        -12    1    3    3    0    0 -0.30646167221E+01  0.56516263688E+01 -0.34489427548E+01  0.72957496114E+01  0.00000000000E+00 0.  1.
</event>
<event>
 7    1  0.2001181E-008  0.4614232E+02  0.7816164E-02  0.1320468E+00
        -11   -1    0    0    0    0  0.00000000000E+00  0.00000000000E+00  0.45593999997E+02  0.45594000000E+02  0.51100000000E-03 0.  1.
         11   -1    0    0    0    0 -0.00000000000E+00 -0.00000000000E+00 -0.45593999997E+02  0.45594000000E+02  0.51100000000E-03 0. -1.
    9900012    2    1    2    0    0 -0.13468137085E+02 -0.12375267626E+02 -0.41165222957E+02  0.46142317117E+02  0.99999941256E+01 0.  0.
        -12    1    1    2    0    0  0.13468137085E+02  0.12375267626E+02  0.41165222957E+02  0.45045682883E+02  0.00000000000E+00 0.  1.
         11    1    3    3    0    0 -0.65262646079E+01 -0.52846842522E+01 -0.13111532611E+02  0.15570237797E+02  0.51100000000E-03 0. -1.
        -11    1    3    3    0    0 -0.23793519308E+01 -0.59464854548E+01 -0.21955018112E+02  0.22870173271E+02  0.51100000000E-03 0.  1.
        -12    1    3    3    0    0 -0.45625205461E+01 -0.11440979186E+01 -0.60986722338E+01  0.77019060496E+01  0.00000000000E+00 0.  1.
</event>
<event>
 7    1  0.2001181E-008  0.4614232E+02  0.7816164E-02  0.1320468E+00
        -11   -1    0    0    0    0  0.00000000000E+00  0.00000000000E+00  0.45593999997E+02  0.45594000000E+02  0.51100000000E-03 0. -1.
         11   -1    0    0    0    0 -0.00000000000E+00 -0.00000000000E+00 -0.45593999997E+02  0.45594000000E+02  0.51100000000E-03 0.  1.
    9900012    2    1    2    0    0 -0.32709235566E+02 -0.28620677878E+02  0.11835358991E+02  0.46142323005E+02  0.10000047815E+02 0.  0.
        -12    1    1    2    0    0  0.32709235566E+02  0.28620677878E+02 -0.11835358991E+02  0.45045676995E+02  0.00000000000E+00 0.  1.
         11    1    3    3    0    0 -0.52129802671E+01 -0.90840507903E+01  0.20706158803E+01  0.10676263036E+02  0.51100000000E-03 0. -1.
        -11    1    3    3    0    0 -0.81203433094E+01 -0.33067709808E+01  0.33815408929E+01  0.93973149811E+01  0.51100000000E-03 0.  1.
         12    1    3    3    0    0 -0.19375911990E+02 -0.16229856107E+02  0.63832022181E+01  0.26068744988E+02  0.00000000000E+00 0. -1.
</event>
<event>
 7    1  0.2001181E-008  0.4614232E+02  0.7816164E-02  0.1320468E+00
        -11   -1    0    0    0    0  0.00000000000E+00  0.00000000000E+00  0.45593999997E+02  0.45594000000E+02  0.51100000000E-03 0. -1.
         11   -1    0    0    0    0 -0.00000000000E+00 -0.00000000000E+00 -0.45593999997E+02  0.45594000000E+02  0.51100000000E-03 0.  1.
    9900012    2    1    2    0    0  0.43847339226E+02 -0.10244558994E+02  0.12543352411E+01  0.46142317598E+02  0.99999985140E+01 0.  0.
        -12    1    1    2    0    0 -0.43847339226E+02  0.10244558994E+02 -0.12543352411E+01  0.45045682402E+02  0.00000000000E+00 0.  1.
         11    1    3    3    0    0  0.10330922571E+02 -0.68516476623E+01  0.90697461128E-02  0.12396496254E+02  0.51100000000E-03 0.  1.
        -11    1    3    3    0    0  0.18940939146E+02 -0.23710860693E+01  0.90202772393E-01  0.19088985350E+02  0.51100000000E-03 0. -1.
        -12    1    3    3    0    0  0.14575477508E+02 -0.10218252620E+01  0.11550627226E+01  0.14656835994E+02  0.00000000000E+00 0.  1.
</event>
<event>
 7    1  0.2001181E-008  0.4614232E+02  0.7816164E-02  0.1320468E+00
        -11   -1    0    0    0    0  0.00000000000E+00  0.00000000000E+00  0.45593999997E+02  0.45594000000E+02  0.51100000000E-03 0.  1.
         11   -1    0    0    0    0 -0.00000000000E+00 -0.00000000000E+00 -0.45593999997E+02  0.45594000000E+02  0.51100000000E-03 0. -1.
    9900012    2    1    2    0    0 -0.82565583036E+01 -0.26440830989E+02 -0.35522177435E+02  0.46142318874E+02  0.10000010150E+02 0.  0.
        -12    1    1    2    0    0  0.82565583036E+01  0.26440830989E+02  0.35522177435E+02  0.45045681126E+02  0.00000000000E+00 0.  1.
         11    1    3    3    0    0 -0.10165516707E+01 -0.11195275479E+02 -0.85506289427E+01  0.14123768120E+02  0.51100000000E-03 0. -1.
        -11    1    3    3    0    0 -0.34654310233E+01 -0.10776093071E+02 -0.19244524239E+02  0.22326780052E+02  0.51100000000E-03 0.  1.
        -12    1    3    3    0    0 -0.37745756097E+01 -0.44694624394E+01 -0.77270242526E+01  0.96917707015E+01  0.00000000000E+00 0.  1.
</event>
<event>
 7    1  0.2001181E-008  0.4614232E+02  0.7816164E-02  0.1320468E+00
        -11   -1    0    0    0    0  0.00000000000E+00  0.00000000000E+00  0.45593999997E+02  0.45594000000E+02  0.51100000000E-03 0.  1.
         11   -1    0    0    0    0 -0.00000000000E+00 -0.00000000000E+00 -0.45593999997E+02  0.45594000000E+02  0.51100000000E-03 0. -1.
    9900012    2    1    2    0    0  0.43607343560E+02  0.81980177475E+01  0.77656711117E+01  0.46142317020E+02  0.99999932409E+01 0.  0.
        -12    1    1    2    0    0 -0.43607343560E+02 -0.81980177475E+01 -0.77656711117E+01  0.45045682980E+02  0.00000000000E+00 0.  1.
         11    1    3    3    0    0  0.16891621352E+02  0.27779102504E+01  0.33286359615E+01  0.17439136300E+02  0.51100000000E-03 0. -1.
        -11    1    3    3    0    0  0.12560904242E+02  0.15311831977E+01 -0.17479974013E+01  0.12774049183E+02  0.51100000000E-03 0.  1.
        -12    1    3    3    0    0  0.14154817966E+02  0.38889242993E+01  0.61850325515E+01  0.15929131536E+02  0.00000000000E+00 0.  1.
</event>
<event>
 7    1  0.2001181E-008  0.4614232E+02  0.7816164E-02  0.1320468E+00
        -11   -1    0    0    0    0  0.00000000000E+00  0.00000000000E+00  0.45593999997E+02  0.45594000000E+02  0.51100000000E-03 0.  1.
         11   -1    0    0    0    0 -0.00000000000E+00 -0.00000000000E+00 -0.45593999997E+02  0.45594000000E+02  0.51100000000E-03 0. -1.
    9900012    2    1    2    0    0 -0.10411539741E+02  0.67064120778E+01 -0.43309783482E+02  0.46142317988E+02  0.10000002066E+02 0.  0.
        -12    1    1    2    0    0  0.10411539741E+02 -0.67064120778E+01  0.43309783482E+02  0.45045682012E+02  0.00000000000E+00 0.  1.
         11    1    3    3    0    0 -0.39435077849E+01  0.12500110838E+01 -0.16559103637E+02  0.17068031371E+02  0.51100000000E-03 0. -1.
        -11    1    3    3    0    0 -0.78921215063E+01  0.30792102401E+01 -0.17970880832E+02  0.19867553340E+02  0.51100000000E-03 0.  1.
        -12    1    3    3    0    0  0.14240895504E+01  0.23771907539E+01 -0.87797990128E+01  0.92067332770E+01  0.00000000000E+00 0.  1.
</event>
<event>
 7    1  0.2001181E-008  0.4614232E+02  0.7816164E-02  0.1320468E+00
        -11   -1    0    0    0    0  0.00000000000E+00  0.00000000000E+00  0.45593999997E+02  0.45594000000E+02  0.51100000000E-03 0.  1.
         11   -1    0    0    0    0 -0.00000000000E+00 -0.00000000000E+00 -0.45593999997E+02  0.45594000000E+02  0.51100000000E-03 0. -1.
    9900012    2    1    2    0    0  0.12557488447E+02 -0.34072923836E+02 -0.26654432957E+02  0.46142318175E+02  0.10000003775E+02 0.  0.
        -12    1    1    2    0    0 -0.12557488447E+02  0.34072923836E+02  0.26654432957E+02  0.45045681825E+02  0.00000000000E+00 0.  1.
         11    1    3    3    0    0  0.48666490490E+01 -0.13145077044E+02 -0.57897247257E+01  0.15165692735E+02  0.51100000000E-03 0. -1.
        -11    1    3    3    0    0  0.55079516997E+01 -0.19212474003E+02 -0.19328353941E+02  0.27803632057E+02  0.51100000000E-03 0.  1.
        -12    1    3    3    0    0  0.21828876979E+01 -0.17153727889E+01 -0.15363542908E+01  0.31729933838E+01  0.00000000000E+00 0.  1.
</event>
<event>
 7    1  0.2001181E-008  0.4614231E+02  0.7816164E-02  0.1320468E+00
        -11   -1    0    0    0    0  0.00000000000E+00  0.00000000000E+00  0.45593999997E+02  0.45594000000E+02  0.51100000000E-03 0.  1.
         11   -1    0    0    0    0 -0.00000000000E+00 -0.00000000000E+00 -0.45593999997E+02  0.45594000000E+02  0.51100000000E-03 0. -1.
    9900012    2    1    2    0    0 -0.17067320646E+02 -0.15518990679E+02 -0.38690845352E+02  0.46142311862E+02  0.99999462092E+01 0.  0.
        -12    1    1    2    0    0  0.17067320646E+02  0.15518990679E+02  0.38690845352E+02  0.45045688138E+02  0.00000000000E+00 0.  1.
         11    1    3    3    0    0 -0.31156926186E+01 -0.39659778179E+00 -0.43603183976E+01  0.53737516768E+01  0.51100000000E-03 0. -1.
        -11    1    3    3    0    0 -0.45027766740E+01 -0.10522663823E+02 -0.19025199378E+02  0.22202694957E+02  0.51100000000E-03 0.  1.
         12    1    3    3    0    0 -0.94488513538E+01 -0.45997290740E+01 -0.15305327576E+02  0.18565865228E+02  0.00000000000E+00 0. -1.
</event>
<event>
 7    1  0.2001181E-008  0.4614233E+02  0.7816164E-02  0.1320468E+00
        -11   -1    0    0    0    0  0.00000000000E+00  0.00000000000E+00  0.45593999997E+02  0.45594000000E+02  0.51100000000E-03 0. -1.
         11   -1    0    0    0    0 -0.00000000000E+00 -0.00000000000E+00 -0.45593999997E+02  0.45594000000E+02  0.51100000000E-03 0.  1.
    9900012    2    1    2    0    0  0.42803491675E+02 -0.69696970831E+01  0.12181830774E+02  0.46142327866E+02  0.10000092147E+02 0.  0.
        -12    1    1    2    0    0 -0.42803491675E+02  0.69696970831E+01 -0.12181830774E+02  0.45045672134E+02  0.00000000000E+00 0.  1.
         11    1    3    3    0    0  0.16681586752E+02 -0.26801440559E+01  0.58366781751E+01  0.17875271218E+02  0.51100000000E-03 0. -1.
        -11    1    3    3    0    0  0.17480289848E+02  0.76208760087E+00  0.33103414035E+01  0.17807292639E+02  0.51100000000E-03 0.  1.
        -12    1    3    3    0    0  0.86416150748E+01 -0.50516406281E+01  0.30348111957E+01  0.10459764009E+02  0.00000000000E+00 0.  1.
</event>
<event>
 7    1  0.2001181E-008  0.4614232E+02  0.7816164E-02  0.1320468E+00
        -11   -1    0    0    0    0  0.00000000000E+00  0.00000000000E+00  0.45593999997E+02  0.45594000000E+02  0.51100000000E-03 0.  1.
         11   -1    0    0    0    0 -0.00000000000E+00 -0.00000000000E+00 -0.45593999997E+02  0.45594000000E+02  0.51100000000E-03 0. -1.
    9900012    2    1    2    0    0 -0.10578928637E+02  0.37082229773E+02 -0.23283211477E+02  0.46142318379E+02  0.10000005631E+02 0.  0.
        -12    1    1    2    0    0  0.10578928637E+02 -0.37082229773E+02  0.23283211477E+02  0.45045681621E+02  0.00000000000E+00 0.  1.
         11    1    3    3    0    0 -0.48564055188E+01  0.20681579320E+02 -0.13944631067E+02  0.25411909287E+02  0.51100000000E-03 0. -1.
        -11    1    3    3    0    0 -0.50482673552E+01  0.82187752025E+01 -0.77392682343E+01  0.12366468460E+02  0.51100000000E-03 0.  1.
        -12    1    3    3    0    0 -0.67425576280E+00  0.81818752510E+01 -0.15993121753E+01  0.83639406317E+01  0.00000000000E+00 0.  1.
</event>
<event>
 7    1  0.2001181E-008  0.4614232E+02  0.7816164E-02  0.1320468E+00
        -11   -1    0    0    0    0  0.00000000000E+00  0.00000000000E+00  0.45593999997E+02  0.45594000000E+02  0.51100000000E-03 0.  1.
         11   -1    0    0    0    0 -0.00000000000E+00 -0.00000000000E+00 -0.45593999997E+02  0.45594000000E+02  0.51100000000E-03 0. -1.
    9900012    2    1    2    0    0 -0.17307921064E+01  0.14840226662E+02 -0.42495711027E+02  0.46142318471E+02  0.10000006473E+02 0.  0.
        -12    1    1    2    0    0  0.17307921064E+01 -0.14840226662E+02  0.42495711027E+02  0.45045681529E+02  0.00000000000E+00 0.  1.
         11    1    3    3    0    0  0.67300736296E+00  0.36472769190E+01 -0.80797311942E+01  0.88903106957E+01  0.51100000000E-03 0. -1.
        -11    1    3    3    0    0  0.64085014710E+00  0.90764566422E+01 -0.30628902762E+02  0.31951876921E+02  0.51100000000E-03 0.  1.
        -12    1    3    3    0    0 -0.30446496165E+01  0.21164931013E+01 -0.37870770710E+01  0.53001308547E+01  0.00000000000E+00 0.  1.
</event>
<event>
 7    1  0.2001181E-008  0.4614232E+02  0.7816164E-02  0.1320468E+00
        -11   -1    0    0    0    0  0.00000000000E+00  0.00000000000E+00  0.45593999997E+02  0.45594000000E+02  0.51100000000E-03 0.  1.
         11   -1    0    0    0    0 -0.00000000000E+00 -0.00000000000E+00 -0.45593999997E+02  0.45594000000E+02  0.51100000000E-03 0. -1.
    9900012    2    1    2    0    0  0.46095015455E+01 -0.44807836281E+02  0.35178196806E+00  0.46142318218E+02  0.10000004167E+02 0.  0.
        -12    1    1    2    0    0 -0.46095015455E+01  0.44807836281E+02 -0.35178196806E+00  0.45045681782E+02  0.00000000000E+00 0.  1.
         11    1    3    3    0    0  0.11849383963E+01 -0.26210877777E+02  0.73793048033E+00  0.26248023440E+02  0.51100000000E-03 0. -1.
        -11    1    3    3    0    0  0.36678057821E+01 -0.59956857510E+01 -0.16735850399E+01  0.72250905895E+01  0.51100000000E-03 0.  1.
        -12    1    3    3    0    0 -0.24324263289E+00 -0.12601272753E+02  0.12874365276E+01  0.12669204189E+02  0.00000000000E+00 0.  1.
</event>
<event>
 7    1  0.2001181E-008  0.4614232E+02  0.7816164E-02  0.1320468E+00
        -11   -1    0    0    0    0  0.00000000000E+00  0.00000000000E+00  0.45593999997E+02  0.45594000000E+02  0.51100000000E-03 0. -1.
         11   -1    0    0    0    0 -0.00000000000E+00 -0.00000000000E+00 -0.45593999997E+02  0.45594000000E+02  0.51100000000E-03 0.  1.
    9900012    2    1    2    0    0 -0.37498878810E+02  0.22476978882E+02 -0.10850482164E+02  0.46142318133E+02  0.10000003395E+02 0.  0.
        -12    1    1    2    0    0  0.37498878810E+02 -0.22476978882E+02  0.10850482164E+02  0.45045681867E+02  0.00000000000E+00 0.  1.
         11    1    3    3    0    0 -0.69939286897E+01  0.28088768706E+01 -0.14735150213E+01  0.76795881771E+01  0.51100000000E-03 0. -1.
        -11    1    3    3    0    0 -0.63901205415E+00 -0.81125571173E+00  0.78491840108E-01  0.10356801945E+01  0.51100000000E-03 0.  1.
         12    1    3    3    0    0 -0.29865938066E+02  0.20479357723E+02 -0.94554589831E+01  0.37427049762E+02  0.00000000000E+00 0. -1.
</event>
<event>
 7    1  0.2001181E-008  0.4614231E+02  0.7816164E-02  0.1320468E+00
        -11   -1    0    0    0    0  0.00000000000E+00  0.00000000000E+00  0.45593999997E+02  0.45594000000E+02  0.51100000000E-03 0. -1.
         11   -1    0    0    0    0 -0.00000000000E+00 -0.00000000000E+00 -0.45593999997E+02  0.45594000000E+02  0.51100000000E-03 0.  1.
    9900012    2    1    2    0    0 -0.11589907547E+02 -0.85022378818E+01  0.42690753785E+02  0.46142306924E+02  0.99999011752E+01 0.  0.
        -12    1    1    2    0    0  0.11589907547E+02  0.85022378818E+01 -0.42690753785E+02  0.45045693076E+02  0.00000000000E+00 0.  1.
         11    1    3    3    0    0 -0.93632085326E+01 -0.65214287946E+01  0.32132295096E+02  0.34098139186E+02  0.51100000000E-03 0. -1.
        -11    1    3    3    0    0 -0.69181548392E+00 -0.86014789809E-01  0.92511308020E+01  0.92773610787E+01  0.51100000000E-03 0.  1.
         12    1    3    3    0    0 -0.15348835308E+01 -0.18947942973E+01  0.13073278873E+01  0.27668066588E+01  0.00000000000E+00 0. -1.
</event>
<event>
 7    1  0.2001181E-008  0.4614232E+02  0.7816164E-02  0.1320468E+00
        -11   -1    0    0    0    0  0.00000000000E+00  0.00000000000E+00  0.45593999997E+02  0.45594000000E+02  0.51100000000E-03 0. -1.
         11   -1    0    0    0    0 -0.00000000000E+00 -0.00000000000E+00 -0.45593999997E+02  0.45594000000E+02  0.51100000000E-03 0.  1.
    9900012    2    1    2    0    0  0.36651564201E+02  0.24419793142E+02  0.94578069586E+01  0.46142316878E+02  0.99999919429E+01 0.  0.
        -12    1    1    2    0    0 -0.36651564201E+02 -0.24419793142E+02 -0.94578069586E+01  0.45045683122E+02  0.00000000000E+00 0.  1.
         11    1    3    3    0    0  0.94779313887E+01  0.98741513161E+01  0.19479850999E+01  0.13824785490E+02  0.51100000000E-03 0. -1.
        -11    1    3    3    0    0  0.93115149357E+01  0.21641061560E+01  0.37085038846E+01  0.10253812324E+02  0.51100000000E-03 0.  1.
         12    1    3    3    0    0  0.17862117877E+02  0.12381535670E+02  0.38013179741E+01  0.22063719064E+02  0.00000000000E+00 0. -1.
</event>
<event>
 7    1  0.2001181E-008  0.4614232E+02  0.7816164E-02  0.1320468E+00
        -11   -1    0    0    0    0  0.00000000000E+00  0.00000000000E+00  0.45593999997E+02  0.45594000000E+02  0.51100000000E-03 0.  1.
         11   -1    0    0    0    0 -0.00000000000E+00 -0.00000000000E+00 -0.45593999997E+02  0.45594000000E+02  0.51100000000E-03 0. -1.
    9900012    2    1    2    0    0 -0.15813569059E+02 -0.12937848436E+02 -0.40145443709E+02  0.46142317198E+02  0.99999948641E+01 0.  0.
        -12    1    1    2    0    0  0.15813569059E+02  0.12937848436E+02  0.40145443709E+02  0.45045682802E+02  0.00000000000E+00 0.  1.
         11    1    3    3    0    0 -0.79062096622E+01 -0.42762382080E+01 -0.11997629310E+02  0.14991246571E+02  0.51100000000E-03 0. -1.
        -11    1    3    3    0    0 -0.87702452646E+01 -0.88091315245E+01 -0.26820432761E+02  0.29561015104E+02  0.51100000000E-03 0.  1.
        -12    1    3    3    0    0  0.86288586772E+00  0.14752129688E+00 -0.13273816370E+01  0.15900555223E+01  0.00000000000E+00 0.  1.
</event>
<event>
 7    1  0.2001181E-008  0.4614232E+02  0.7816164E-02  0.1320468E+00
        -11   -1    0    0    0    0  0.00000000000E+00  0.00000000000E+00  0.45593999997E+02  0.45594000000E+02  0.51100000000E-03 0. -1.
         11   -1    0    0    0    0 -0.00000000000E+00 -0.00000000000E+00 -0.45593999997E+02  0.45594000000E+02  0.51100000000E-03 0.  1.
    9900012    2    1    2    0    0  0.38901285969E+02 -0.32623909271E+01  0.22475768979E+02  0.46142318345E+02  0.10000005322E+02 0.  0.
        -12    1    1    2    0    0 -0.38901285969E+02  0.32623909271E+01 -0.22475768979E+02  0.45045681655E+02  0.00000000000E+00 0.  1.
         11    1    3    3    0    0  0.49831976982E+01  0.70376988257E+00  0.36389309856E+01  0.62104243273E+01  0.51100000000E-03 0. -1.
        -11    1    3    3    0    0  0.27415547937E+02  0.29859769701E+00  0.15173947896E+02  0.31336083423E+02  0.51100000000E-03 0.  1.
         12    1    3    3    0    0  0.65025403331E+01 -0.42647585066E+01  0.36628900976E+01  0.85958105941E+01  0.00000000000E+00 0. -1.
</event>
<event>
 7    1  0.2001181E-008  0.4614232E+02  0.7816164E-02  0.1320468E+00
        -11   -1    0    0    0    0  0.00000000000E+00  0.00000000000E+00  0.45593999997E+02  0.45594000000E+02  0.51100000000E-03 0. -1.
         11   -1    0    0    0    0 -0.00000000000E+00 -0.00000000000E+00 -0.45593999997E+02  0.45594000000E+02  0.51100000000E-03 0.  1.
    9900012    2    1    2    0    0 -0.33384950551E+02  0.24874982405E+02  0.17198660876E+02  0.46142316423E+02  0.99999878006E+01 0.  0.
        -12    1    1    2    0    0  0.33384950551E+02 -0.24874982405E+02 -0.17198660876E+02  0.45045683577E+02  0.00000000000E+00 0.  1.
         11    1    3    3    0    0 -0.62384506532E+01  0.36494286025E+01  0.42369789777E+01  0.83778629015E+01  0.51100000000E-03 0. -1.
        -11    1    3    3    0    0 -0.70479784617E+01  0.10371598519E+02  0.33265545963E+01  0.12973435242E+02  0.51100000000E-03 0.  1.
        -12    1    3    3    0    0 -0.20098521437E+02  0.10853955284E+02  0.96351273017E+01  0.24791018280E+02  0.00000000000E+00 0.  1.
</event>
<event>
 7    1  0.2001181E-008  0.4614232E+02  0.7816164E-02  0.1320468E+00
        -11   -1    0    0    0    0  0.00000000000E+00  0.00000000000E+00  0.45593999997E+02  0.45594000000E+02  0.51100000000E-03 0. -1.
         11   -1    0    0    0    0 -0.00000000000E+00 -0.00000000000E+00 -0.45593999997E+02  0.45594000000E+02  0.51100000000E-03 0.  1.
    9900012    2    1    2    0    0  0.12458505927E+02  0.41229309033E+02  0.13192545910E+02  0.46142316956E+02  0.99999926605E+01 0.  0.
        -12    1    1    2    0    0 -0.12458505927E+02 -0.41229309033E+02 -0.13192545910E+02  0.45045683044E+02  0.00000000000E+00 0.  1.
         11    1    3    3    0    0  0.69070612688E+01  0.25450089401E+02  0.92974501313E+01  0.27961708193E+02  0.51100000000E-03 0. -1.
        -11    1    3    3    0    0  0.28998402018E+01  0.12840249503E+02  0.85834856422E+00  0.13191582279E+02  0.51100000000E-03 0.  1.
         12    1    3    3    0    0  0.26516044563E+01  0.29389701290E+01  0.30367472146E+01  0.49890264839E+01  0.00000000000E+00 0. -1.
</event>
<event>
 7    1  0.2001181E-008  0.4614232E+02  0.7816164E-02  0.1320468E+00
        -11   -1    0    0    0    0  0.00000000000E+00  0.00000000000E+00  0.45593999997E+02  0.45594000000E+02  0.51100000000E-03 0.  1.
         11   -1    0    0    0    0 -0.00000000000E+00 -0.00000000000E+00 -0.45593999997E+02  0.45594000000E+02  0.51100000000E-03 0. -1.
    9900012    2    1    2    0    0  0.29041979182E+02 -0.31445961563E+02 -0.14029552054E+02  0.46142318917E+02  0.10000010537E+02 0.  0.
        -12    1    1    2    0    0 -0.29041979182E+02  0.31445961563E+02  0.14029552054E+02  0.45045681083E+02  0.00000000000E+00 0.  1.
         11    1    3    3    0    0  0.13656454468E+02 -0.16082001801E+02 -0.54935644048E+01  0.21801577482E+02  0.51100000000E-03 0. -1.
        -11    1    3    3    0    0  0.92211721512E+01 -0.98708695324E+01 -0.87270193880E+01  0.16081820445E+02  0.51100000000E-03 0.  1.
        -12    1    3    3    0    0  0.61643525628E+01 -0.54930902298E+01  0.19103173917E+00  0.82589209898E+01  0.00000000000E+00 0.  1.
</event>
<event>
 7    1  0.2001181E-008  0.4614232E+02  0.7816164E-02  0.1320468E+00
        -11   -1    0    0    0    0  0.00000000000E+00  0.00000000000E+00  0.45593999997E+02  0.45594000000E+02  0.51100000000E-03 0. -1.
         11   -1    0    0    0    0 -0.00000000000E+00 -0.00000000000E+00 -0.45593999997E+02  0.45594000000E+02  0.51100000000E-03 0.  1.
    9900012    2    1    2    0    0  0.41195361882E+02  0.13842201126E+02  0.11851122987E+02  0.46142317758E+02  0.99999999682E+01 0.  0.
        -12    1    1    2    0    0 -0.41195361882E+02 -0.13842201126E+02 -0.11851122987E+02  0.45045682242E+02  0.00000000000E+00 0.  1.
         11    1    3    3    0    0  0.22262402317E+02  0.87727989777E+01  0.68637931107E+01  0.24893537615E+02  0.51100000000E-03 0. -1.
        -11    1    3    3    0    0  0.98226165813E+01  0.24498440150E+01  0.59135789997E+01  0.11724160910E+02  0.51100000000E-03 0.  1.
        -12    1    3    3    0    0  0.91103429836E+01  0.26195581334E+01 -0.92624912308E+00  0.95246192328E+01  0.00000000000E+00 0.  1.
</event>
<event>
 7    1  0.2001181E-008  0.4614232E+02  0.7816164E-02  0.1320468E+00
        -11   -1    0    0    0    0  0.00000000000E+00  0.00000000000E+00  0.45593999997E+02  0.45594000000E+02  0.51100000000E-03 0. -1.
         11   -1    0    0    0    0 -0.00000000000E+00 -0.00000000000E+00 -0.45593999997E+02  0.45594000000E+02  0.51100000000E-03 0.  1.
    9900012    2    1    2    0    0 -0.24987219198E+02 -0.20721515778E+02  0.31230936143E+02  0.46142315282E+02  0.99999773893E+01 0.  0.
        -12    1    1    2    0    0  0.24987219198E+02  0.20721515778E+02 -0.31230936143E+02  0.45045684718E+02  0.00000000000E+00 0.  1.
         11    1    3    3    0    0 -0.10464757457E+02 -0.57561899655E+01  0.11044264732E+02  0.16267164943E+02  0.51100000000E-03 0. -1.
        -11    1    3    3    0    0 -0.20264988339E+01 -0.19607654432E+01  0.19360023664E-01  0.28198712238E+01  0.51100000000E-03 0.  1.
        -12    1    3    3    0    0 -0.12495962906E+02 -0.13004560370E+02  0.20167311388E+02  0.27055279115E+02  0.00000000000E+00 0.  1.
</event>
<event>
 7    1  0.2001181E-008  0.4614232E+02  0.7816164E-02  0.1320468E+00
        -11   -1    0    0    0    0  0.00000000000E+00  0.00000000000E+00  0.45593999997E+02  0.45594000000E+02  0.51100000000E-03 0.  1.
         11   -1    0    0    0    0 -0.00000000000E+00 -0.00000000000E+00 -0.45593999997E+02  0.45594000000E+02  0.51100000000E-03 0. -1.
    9900012    2    1    2    0    0  0.33383322493E+02 -0.22343882311E+02 -0.20381807737E+02  0.46142318919E+02  0.10000010556E+02 0.  0.
        -12    1    1    2    0    0 -0.33383322493E+02  0.22343882311E+02  0.20381807737E+02  0.45045681081E+02  0.00000000000E+00 0.  1.
         11    1    3    3    0    0  0.74476502148E+01 -0.25309485648E+01 -0.29591696394E+01  0.84041584692E+01  0.51100000000E-03 0. -1.
        -11    1    3    3    0    0  0.20752502140E+02 -0.14051512247E+02 -0.99271602915E+01  0.26956629115E+02  0.51100000000E-03 0.  1.
        -12    1    3    3    0    0  0.51831701381E+01 -0.57614214996E+01 -0.74954778066E+01  0.10781531335E+02  0.00000000000E+00 0.  1.
</event>
<event>
 7    1  0.2001181E-008  0.4614232E+02  0.7816164E-02  0.1320468E+00
        -11   -1    0    0    0    0  0.00000000000E+00  0.00000000000E+00  0.45593999997E+02  0.45594000000E+02  0.51100000000E-03 0. -1.
         11   -1    0    0    0    0 -0.00000000000E+00 -0.00000000000E+00 -0.45593999997E+02  0.45594000000E+02  0.51100000000E-03 0.  1.
    9900012    2    1    2    0    0 -0.28996270109E+02 -0.34418112454E+02 -0.19295880043E+01  0.46142318131E+02  0.10000003375E+02 0.  0.
        -12    1    1    2    0    0  0.28996270109E+02  0.34418112454E+02  0.19295880043E+01  0.45045681869E+02  0.00000000000E+00 0.  1.
         11    1    3    3    0    0 -0.13940166833E+02 -0.12633904041E+02 -0.13081539482E+01  0.18858818883E+02  0.51100000000E-03 0. -1.
        -11    1    3    3    0    0 -0.80192784829E+01 -0.60832780035E+01 -0.48599493789E+00  0.10077265998E+02  0.51100000000E-03 0.  1.
        -12    1    3    3    0    0 -0.70368247930E+01 -0.15700930410E+02 -0.13543911815E+00  0.17206233250E+02  0.00000000000E+00 0.  1.
</event>
<event>
 7    1  0.2001181E-008  0.4614232E+02  0.7816164E-02  0.1320468E+00
        -11   -1    0    0    0    0  0.00000000000E+00  0.00000000000E+00  0.45593999997E+02  0.45594000000E+02  0.51100000000E-03 0.  1.
         11   -1    0    0    0    0 -0.00000000000E+00 -0.00000000000E+00 -0.45593999997E+02  0.45594000000E+02  0.51100000000E-03 0. -1.
    9900012    2    1    2    0    0 -0.43516355317E+02 -0.32154642000E+01  0.11184859867E+02  0.46142317850E+02  0.10000000808E+02 0.  0.
        -12    1    1    2    0    0  0.43516355317E+02  0.32154642000E+01 -0.11184859867E+02  0.45045682150E+02  0.00000000000E+00 0.  1.
         11    1    3    3    0    0 -0.19595888947E+02 -0.46982071822E+01  0.53799600161E+01  0.20857036807E+02  0.51100000000E-03 0. -1.
        -11    1    3    3    0    0 -0.20580108185E+02  0.16496728400E+01  0.28873433081E+01  0.20847038759E+02  0.51100000000E-03 0.  1.
         12    1    3    3    0    0 -0.33403581863E+01 -0.16692985775E+00  0.29175565429E+01  0.44382422840E+01  0.00000000000E+00 0. -1.
</event>
<event>
 7    1  0.2001181E-008  0.4614232E+02  0.7816164E-02  0.1320468E+00
        -11   -1    0    0    0    0  0.00000000000E+00  0.00000000000E+00  0.45593999997E+02  0.45594000000E+02  0.51100000000E-03 0.  1.
         11   -1    0    0    0    0 -0.00000000000E+00 -0.00000000000E+00 -0.45593999997E+02  0.45594000000E+02  0.51100000000E-03 0. -1.
    9900012    2    1    2    0    0 -0.13851891743E+02 -0.42314614186E+02 -0.68346194587E+01  0.46142317614E+02  0.99999986542E+01 0.  0.
        -12    1    1    2    0    0  0.13851891743E+02  0.42314614186E+02  0.68346194587E+01  0.45045682386E+02  0.00000000000E+00 0.  1.
         11    1    3    3    0    0 -0.11159885653E+01 -0.50628703752E+01 -0.27935561333E+01  0.58891462068E+01  0.51100000000E-03 0. -1.
        -11    1    3    3    0    0 -0.61037972017E+01 -0.14472619409E+02 -0.50723649525E+01  0.16505815318E+02  0.51100000000E-03 0.  1.
         12    1    3    3    0    0 -0.66321059756E+01 -0.22779124401E+02  0.10313016271E+01  0.23747356089E+02  0.00000000000E+00 0. -1.
</event>
<event>
 7    1  0.2001181E-008  0.4614232E+02  0.7816164E-02  0.1320468E+00
        -11   -1    0    0    0    0  0.00000000000E+00  0.00000000000E+00  0.45593999997E+02  0.45594000000E+02  0.51100000000E-03 0.  1.
         11   -1    0    0    0    0 -0.00000000000E+00 -0.00000000000E+00 -0.45593999997E+02  0.45594000000E+02  0.51100000000E-03 0. -1.
    9900012    2    1    2    0    0  0.15874026336E+02 -0.20393753545E+02 -0.36894765119E+02  0.46142316645E+02  0.99999898226E+01 0.  0.
        -12    1    1    2    0    0 -0.15874026336E+02  0.20393753545E+02  0.36894765119E+02  0.45045683355E+02  0.00000000000E+00 0.  1.
         11    1    3    3    0    0  0.91892101065E+00 -0.15648097425E+01 -0.20151229738E+01  0.27117828480E+01  0.51100000000E-03 0. -1.
        -11    1    3    3    0    0  0.16301054400E+02 -0.16587991264E+02 -0.31631122278E+02  0.39260842140E+02  0.51100000000E-03 0.  1.
        -12    1    3    3    0    0 -0.13459490744E+01 -0.22409525378E+01 -0.32485198668E+01  0.41696916568E+01  0.00000000000E+00 0.  1.
</event>
<event>
 7    1  0.2001181E-008  0.4614232E+02  0.7816164E-02  0.1320468E+00
        -11   -1    0    0    0    0  0.00000000000E+00  0.00000000000E+00  0.45593999997E+02  0.45594000000E+02  0.51100000000E-03 0. -1.
         11   -1    0    0    0    0 -0.00000000000E+00 -0.00000000000E+00 -0.45593999997E+02  0.45594000000E+02  0.51100000000E-03 0.  1.
    9900012    2    1    2    0    0 -0.40114372206E+02 -0.18697284613E+02  0.83882182970E+01  0.46142317459E+02  0.99999972407E+01 0.  0.
        -12    1    1    2    0    0  0.40114372206E+02  0.18697284613E+02 -0.83882182970E+01  0.45045682541E+02  0.00000000000E+00 0.  1.
         11    1    3    3    0    0 -0.36350612354E+02 -0.13915068309E+02  0.70192179590E+01  0.39550797281E+02  0.51100000000E-03 0.  1.
        -11    1    3    3    0    0 -0.11403455976E+01 -0.88468383347E+00  0.12218414644E+01  0.18910183480E+01  0.51100000000E-03 0. -1.
        -12    1    3    3    0    0 -0.26234142552E+01 -0.38975324711E+01  0.14715887359E+00  0.47005018298E+01  0.00000000000E+00 0.  1.
</event>
<event>
 7    1  0.2001181E-008  0.4614232E+02  0.7816164E-02  0.1320468E+00
        -11   -1    0    0    0    0  0.00000000000E+00  0.00000000000E+00  0.45593999997E+02  0.45594000000E+02  0.51100000000E-03 0.  1.
         11   -1    0    0    0    0 -0.00000000000E+00 -0.00000000000E+00 -0.45593999997E+02  0.45594000000E+02  0.51100000000E-03 0. -1.
    9900012    2    1    2    0    0 -0.13869897354E+02  0.34244159157E+02 -0.25769689451E+02  0.46142318926E+02  0.10000010624E+02 0.  0.
        -12    1    1    2    0    0  0.13869897354E+02 -0.34244159157E+02  0.25769689451E+02  0.45045681074E+02  0.00000000000E+00 0.  1.
         11    1    3    3    0    0 -0.26424584920E+01  0.10690656530E+02 -0.34767484664E+01  0.11548181852E+02  0.51100000000E-03 0.  1.
        -11    1    3    3    0    0 -0.16461459899E+01  0.96417489956E+00 -0.18387495957E+01  0.26496094417E+01  0.51100000000E-03 0. -1.
         12    1    3    3    0    0 -0.95812928723E+01  0.22589327728E+02 -0.20454191389E+02  0.31944527633E+02  0.00000000000E+00 0. -1.
</event>
<event>
 7    1  0.2001181E-008  0.4614232E+02  0.7816164E-02  0.1320468E+00
        -11   -1    0    0    0    0  0.00000000000E+00  0.00000000000E+00  0.45593999997E+02  0.45594000000E+02  0.51100000000E-03 0.  1.
         11   -1    0    0    0    0 -0.00000000000E+00 -0.00000000000E+00 -0.45593999997E+02  0.45594000000E+02  0.51100000000E-03 0. -1.
    9900012    2    1    2    0    0 -0.41383243444E+02  0.36100767299E+01 -0.17421481550E+02  0.46142317507E+02  0.99999976786E+01 0.  0.
        -12    1    1    2    0    0  0.41383243444E+02 -0.36100767299E+01  0.17421481550E+02  0.45045682493E+02  0.00000000000E+00 0.  1.
         11    1    3    3    0    0 -0.28795126981E+00 -0.38352520422E+00 -0.61401716686E+00  0.77911800028E+00  0.51100000000E-03 0. -1.
        -11    1    3    3    0    0 -0.24489209422E+02 -0.34630018323E+00 -0.13207632086E+02  0.27825938394E+02  0.51100000000E-03 0.  1.
         12    1    3    3    0    0 -0.16606082752E+02  0.43399021173E+01 -0.35998322970E+01  0.17537261112E+02  0.00000000000E+00 0. -1.
</event>
<event>
 7    1  0.2001181E-008  0.4614232E+02  0.7816164E-02  0.1320468E+00
        -11   -1    0    0    0    0  0.00000000000E+00  0.00000000000E+00  0.45593999997E+02  0.45594000000E+02  0.51100000000E-03 0. -1.
         11   -1    0    0    0    0 -0.00000000000E+00 -0.00000000000E+00 -0.45593999997E+02  0.45594000000E+02  0.51100000000E-03 0.  1.
    9900012    2    1    2    0    0  0.94775968342E+01  0.43095420397E+02  0.90594343097E+01  0.46142318176E+02  0.10000003783E+02 0.  0.
        -12    1    1    2    0    0 -0.94775968342E+01 -0.43095420397E+02 -0.90594343097E+01  0.45045681824E+02  0.00000000000E+00 0.  1.
         11    1    3    3    0    0  0.41696124411E+01  0.10436961380E+02  0.25013901865E+01  0.11514025529E+02  0.51100000000E-03 0.  1.
        -11    1    3    3    0    0  0.17062700479E+01  0.12365132881E+02  0.63772470906E+01  0.14017030689E+02  0.51100000000E-03 0. -1.
        -12    1    3    3    0    0  0.36017143452E+01  0.20293326136E+02  0.18079703259E+00  0.20611261957E+02  0.00000000000E+00 0.  1.
</event>
<event>
 7    1  0.2001181E-008  0.4614232E+02  0.7816164E-02  0.1320468E+00
        -11   -1    0    0    0    0  0.00000000000E+00  0.00000000000E+00  0.45593999997E+02  0.45594000000E+02  0.51100000000E-03 0. -1.
         11   -1    0    0    0    0 -0.00000000000E+00 -0.00000000000E+00 -0.45593999997E+02  0.45594000000E+02  0.51100000000E-03 0.  1.
    9900012    2    1    2    0    0 -0.19867087529E+02  0.13403792490E+02  0.38141193656E+02  0.46142317926E+02  0.10000001506E+02 0.  0.
        -12    1    1    2    0    0  0.19867087529E+02 -0.13403792490E+02 -0.38141193656E+02  0.45045682074E+02  0.00000000000E+00 0.  1.
         11    1    3    3    0    0 -0.14857387897E+01  0.98878793625E-01  0.67607879775E+01  0.69228210366E+01  0.51100000000E-03 0. -1.
        -11    1    3    3    0    0 -0.49001561794E+01  0.22626239019E+01  0.11992096330E+02  0.13150717553E+02  0.51100000000E-03 0.  1.
        -12    1    3    3    0    0 -0.13481192560E+02  0.11042289794E+02  0.19388309349E+02  0.26068779337E+02  0.00000000000E+00 0.  1.
</event>
<event>
 7    1  0.2001181E-008  0.4614232E+02  0.7816164E-02  0.1320468E+00
        -11   -1    0    0    0    0  0.00000000000E+00  0.00000000000E+00  0.45593999997E+02  0.45594000000E+02  0.51100000000E-03 0.  1.
         11   -1    0    0    0    0 -0.00000000000E+00 -0.00000000000E+00 -0.45593999997E+02  0.45594000000E+02  0.51100000000E-03 0. -1.
    9900012    2    1    2    0    0  0.27848581450E+02  0.11949904598E+02 -0.33328212076E+02  0.46142318421E+02  0.10000006020E+02 0.  0.
        -12    1    1    2    0    0 -0.27848581450E+02 -0.11949904598E+02  0.33328212076E+02  0.45045681579E+02  0.00000000000E+00 0.  1.
         11    1    3    3    0    0  0.12366688111E+02  0.88725704498E+01 -0.16278720242E+02  0.22285740153E+02  0.51100000000E-03 0. -1.
        -11    1    3    3    0    0  0.14792696268E+02  0.41157255188E+01 -0.16340866760E+02  0.22422912080E+02  0.51100000000E-03 0.  1.
        -12    1    3    3    0    0  0.68919707188E+00 -0.10383913707E+01 -0.70862507499E+00  0.14336661883E+01  0.00000000000E+00 0.  1.
</event>
<event>
 7    1  0.2001181E-008  0.4614232E+02  0.7816164E-02  0.1320468E+00
        -11   -1    0    0    0    0  0.00000000000E+00  0.00000000000E+00  0.45593999997E+02  0.45594000000E+02  0.51100000000E-03 0. -1.
         11   -1    0    0    0    0 -0.00000000000E+00 -0.00000000000E+00 -0.45593999997E+02  0.45594000000E+02  0.51100000000E-03 0.  1.
    9900012    2    1    2    0    0 -0.42880742596E+02  0.13753948669E+02 -0.10882648630E+01  0.46142317522E+02  0.99999978158E+01 0.  0.
        -12    1    1    2    0    0  0.42880742596E+02 -0.13753948669E+02  0.10882648630E+01  0.45045682478E+02  0.00000000000E+00 0.  1.
         11    1    3    3    0    0 -0.79938970858E+01 -0.94920571440E+00 -0.64237388489E+00  0.80756440347E+01  0.51100000000E-03 0. -1.
        -11    1    3    3    0    0 -0.36107810945E+01  0.17194168469E+01 -0.12595183701E+01  0.41929132106E+01  0.51100000000E-03 0.  1.
         12    1    3    3    0    0 -0.31276064415E+02  0.12983737536E+02  0.81362739202E+00  0.33873760276E+02  0.00000000000E+00 0. -1.
</event>
<event>
 7    1  0.2001181E-008  0.4614232E+02  0.7816164E-02  0.1320468E+00
        -11   -1    0    0    0    0  0.00000000000E+00  0.00000000000E+00  0.45593999997E+02  0.45594000000E+02  0.51100000000E-03 0.  1.
         11   -1    0    0    0    0 -0.00000000000E+00 -0.00000000000E+00 -0.45593999997E+02  0.45594000000E+02  0.51100000000E-03 0. -1.
    9900012    2    1    2    0    0 -0.13646212023E+02  0.42922977660E+02 -0.71575139681E+00  0.46142318589E+02  0.10000007546E+02 0.  0.
        -12    1    1    2    0    0  0.13646212023E+02 -0.42922977660E+02  0.71575139681E+00  0.45045681411E+02  0.00000000000E+00 0.  1.
         11    1    3    3    0    0 -0.21649381379E+01  0.73937719911E+01 -0.10867807208E+01  0.77804828895E+01  0.51100000000E-03 0. -1.
        -11    1    3    3    0    0 -0.65781134960E+01  0.14342445235E+02  0.40874702726E+01  0.16299838219E+02  0.51100000000E-03 0.  1.
        -12    1    3    3    0    0 -0.49031603888E+01  0.21186760434E+02 -0.37164409486E+01  0.22061997480E+02  0.00000000000E+00 0.  1.
</event>
<event>
 7    1  0.2001181E-008  0.4614232E+02  0.7816164E-02  0.1320468E+00
        -11   -1    0    0    0    0  0.00000000000E+00  0.00000000000E+00  0.45593999997E+02  0.45594000000E+02  0.51100000000E-03 0. -1.
         11   -1    0    0    0    0 -0.00000000000E+00 -0.00000000000E+00 -0.45593999997E+02  0.45594000000E+02  0.51100000000E-03 0.  1.
    9900012    2    1    2    0    0 -0.52253210862E+01 -0.41248107270E+02  0.17332142445E+02  0.46142317682E+02  0.99999992742E+01 0.  0.
        -12    1    1    2    0    0  0.52253210862E+01  0.41248107270E+02 -0.17332142445E+02  0.45045682318E+02  0.00000000000E+00 0.  1.
         11    1    3    3    0    0 -0.19447784689E+01 -0.28460153203E+02  0.83619225687E+01  0.29726826823E+02  0.51100000000E-03 0. -1.
        -11    1    3    3    0    0  0.50176821491E-01 -0.94880180057E+00  0.21538865244E+01  0.23541389066E+01  0.51100000000E-03 0.  1.
         12    1    3    3    0    0 -0.33307194388E+01 -0.11839152266E+02  0.68163333519E+01  0.14061351952E+02  0.00000000000E+00 0. -1.
</event>
<event>
 7    1  0.2001181E-008  0.4614231E+02  0.7816164E-02  0.1320468E+00
        -11   -1    0    0    0    0  0.00000000000E+00  0.00000000000E+00  0.45593999997E+02  0.45594000000E+02  0.51100000000E-03 0.  1.
         11   -1    0    0    0    0 -0.00000000000E+00 -0.00000000000E+00 -0.45593999997E+02  0.45594000000E+02  0.51100000000E-03 0. -1.
    9900012    2    1    2    0    0  0.36673122008E+02 -0.22332246465E+02 -0.13618614921E+02  0.46142314498E+02  0.99999702478E+01 0.  0.
        -12    1    1    2    0    0 -0.36673122008E+02  0.22332246465E+02  0.13618614921E+02  0.45045685502E+02  0.00000000000E+00 0.  1.
         11    1    3    3    0    0  0.25854873925E+01 -0.32344135578E+01 -0.29332973416E+00  0.41511707642E+01  0.51100000000E-03 0. -1.
        -11    1    3    3    0    0  0.88411137697E+01 -0.23264296686E+01 -0.55697449635E+01  0.10705121527E+02  0.51100000000E-03 0.  1.
         12    1    3    3    0    0  0.25246520845E+02 -0.16771403239E+02 -0.77555402230E+01  0.31286022207E+02  0.00000000000E+00 0. -1.
</event>
<event>
 7    1  0.2001181E-008  0.4614232E+02  0.7816164E-02  0.1320468E+00
        -11   -1    0    0    0    0  0.00000000000E+00  0.00000000000E+00  0.45593999997E+02  0.45594000000E+02  0.51100000000E-03 0. -1.
         11   -1    0    0    0    0 -0.00000000000E+00 -0.00000000000E+00 -0.45593999997E+02  0.45594000000E+02  0.51100000000E-03 0.  1.
    9900012    2    1    2    0    0  0.29427840989E+01  0.44897447044E+02 -0.21616729511E+01  0.46142316974E+02  0.99999928198E+01 0.  0.
        -12    1    1    2    0    0 -0.29427840989E+01 -0.44897447044E+02  0.21616729511E+01  0.45045683026E+02  0.00000000000E+00 0.  1.
         11    1    3    3    0    0  0.59842682164E+01  0.22851649420E+02 -0.29755680113E+01  0.23808892300E+02  0.51100000000E-03 0. -1.
        -11    1    3    3    0    0 -0.24474141538E+01  0.14355159956E+02 -0.12587362923E+00  0.14562839621E+02  0.51100000000E-03 0.  1.
         12    1    3    3    0    0 -0.59406996368E+00  0.76906376684E+01  0.93976868940E+00  0.77705850525E+01  0.00000000000E+00 0. -1.
</event>
<event>
 7    1  0.2001181E-008  0.4614232E+02  0.7816164E-02  0.1320468E+00
        -11   -1    0    0    0    0  0.00000000000E+00  0.00000000000E+00  0.45593999997E+02  0.45594000000E+02  0.51100000000E-03 0.  1.
         11   -1    0    0    0    0 -0.00000000000E+00 -0.00000000000E+00 -0.45593999997E+02  0.45594000000E+02  0.51100000000E-03 0. -1.
    9900012    2    1    2    0    0  0.32020729604E+02  0.17097826526E+02 -0.26673034441E+02  0.46142316937E+02  0.99999924881E+01 0.  0.
        -12    1    1    2    0    0 -0.32020729604E+02 -0.17097826526E+02  0.26673034441E+02  0.45045683063E+02  0.00000000000E+00 0.  1.
         11    1    3    3    0    0  0.13981655701E+02  0.56716246964E+01 -0.12094477896E+02  0.19337280540E+02  0.51100000000E-03 0. -1.
        -11    1    3    3    0    0  0.20516542351E+01 -0.45346641891E+00  0.34549074496E-01  0.21014544471E+01  0.51100000000E-03 0.  1.
        -12    1    3    3    0    0  0.15987419669E+02  0.11879668249E+02 -0.14613105619E+02  0.24703581951E+02  0.00000000000E+00 0.  1.
</event>
<event>
 7    1  0.2001181E-008  0.4614232E+02  0.7816164E-02  0.1320468E+00
        -11   -1    0    0    0    0  0.00000000000E+00  0.00000000000E+00  0.45593999997E+02  0.45594000000E+02  0.51100000000E-03 0.  1.
         11   -1    0    0    0    0 -0.00000000000E+00 -0.00000000000E+00 -0.45593999997E+02  0.45594000000E+02  0.51100000000E-03 0. -1.
    9900012    2    1    2    0    0  0.25723768552E+02 -0.10223937346E+02 -0.35536914523E+02  0.46142318107E+02  0.10000003156E+02 0.  0.
        -12    1    1    2    0    0 -0.25723768552E+02  0.10223937346E+02  0.35536914523E+02  0.45045681893E+02  0.00000000000E+00 0.  1.
         11    1    3    3    0    0  0.46303346661E+01 -0.22005985614E+01 -0.29684926680E+01  0.59240680389E+01  0.51100000000E-03 0.  1.
        -11    1    3    3    0    0  0.53112858680E+01 -0.24070020240E+01 -0.39027996903E+01  0.70167843061E+01  0.51100000000E-03 0. -1.
         12    1    3    3    0    0  0.15782148018E+02 -0.56163367611E+01 -0.28665622164E+02  0.33201465762E+02  0.00000000000E+00 0. -1.
</event>
<event>
 7    1  0.2001181E-008  0.4614232E+02  0.7816164E-02  0.1320468E+00
        -11   -1    0    0    0    0  0.00000000000E+00  0.00000000000E+00  0.45593999997E+02  0.45594000000E+02  0.51100000000E-03 0.  1.
         11   -1    0    0    0    0 -0.00000000000E+00 -0.00000000000E+00 -0.45593999997E+02  0.45594000000E+02  0.51100000000E-03 0. -1.
    9900012    2    1    2    0    0 -0.40311070555E+02 -0.19787392731E+02 -0.35482536355E+01  0.46142318473E+02  0.10000006490E+02 0.  0.
        -12    1    1    2    0    0  0.40311070555E+02  0.19787392731E+02  0.35482536355E+01  0.45045681527E+02  0.00000000000E+00 0.  1.
         11    1    3    3    0    0 -0.11141637484E+02 -0.76482259025E+01 -0.20375085091E+01  0.13666853568E+02  0.51100000000E-03 0.  1.
        -11    1    3    3    0    0 -0.24096219053E+02 -0.11459679460E+02 -0.36441723377E+01  0.26930132162E+02  0.51100000000E-03 0. -1.
        -12    1    3    3    0    0 -0.50732140183E+01 -0.67948736892E+00  0.21334272114E+01  0.55453327426E+01  0.00000000000E+00 0.  1.
</event>
<event>
 7    1  0.2001181E-008  0.4614232E+02  0.7816164E-02  0.1320468E+00
        -11   -1    0    0    0    0  0.00000000000E+00  0.00000000000E+00  0.45593999997E+02  0.45594000000E+02  0.51100000000E-03 0.  1.
         11   -1    0    0    0    0 -0.00000000000E+00 -0.00000000000E+00 -0.45593999997E+02  0.45594000000E+02  0.51100000000E-03 0. -1.
    9900012    2    1    2    0    0 -0.40640113416E+02  0.89288809222E+00 -0.19408688801E+02  0.46142320201E+02  0.10000022247E+02 0.  0.
        -12    1    1    2    0    0  0.40640113416E+02 -0.89288809222E+00  0.19408688801E+02  0.45045679799E+02  0.00000000000E+00 0.  1.
         11    1    3    3    0    0 -0.33222594969E+02  0.32669446526E+00 -0.17603040710E+02  0.37599396116E+02  0.51100000000E-03 0. -1.
        -11    1    3    3    0    0 -0.10255053271E+01 -0.12885666625E+01 -0.63405045461E-03  0.16468351110E+01  0.51100000000E-03 0.  1.
         12    1    3    3    0    0 -0.63920131199E+01  0.18547602895E+01 -0.18050140401E+01  0.68960889743E+01  0.00000000000E+00 0. -1.
</event>
<event>
 7    1  0.2001181E-008  0.4614232E+02  0.7816164E-02  0.1320468E+00
        -11   -1    0    0    0    0  0.00000000000E+00  0.00000000000E+00  0.45593999997E+02  0.45594000000E+02  0.51100000000E-03 0.  1.
         11   -1    0    0    0    0 -0.00000000000E+00 -0.00000000000E+00 -0.45593999997E+02  0.45594000000E+02  0.51100000000E-03 0. -1.
    9900012    2    1    2    0    0 -0.56402496611E+01  0.27979082250E+02 -0.34849270070E+02  0.46142322247E+02  0.10000040910E+02 0.  0.
        -12    1    1    2    0    0  0.56402496611E+01 -0.27979082250E+02  0.34849270070E+02  0.45045677753E+02  0.00000000000E+00 0.  1.
         11    1    3    3    0    0 -0.15225001575E+01  0.23844927256E+02 -0.30136112036E+02  0.38458858687E+02  0.51100000000E-03 0.  1.
        -11    1    3    3    0    0 -0.34780822281E+00 -0.30543828253E-01 -0.69169969927E+00  0.77482399317E+00  0.51100000000E-03 0. -1.
        -12    1    3    3    0    0 -0.37699412808E+01  0.41646988219E+01 -0.40214583346E+01  0.69086395675E+01  0.00000000000E+00 0.  1.
</event>
<event>
 7    1  0.2001181E-008  0.4614232E+02  0.7816164E-02  0.1320468E+00
        -11   -1    0    0    0    0  0.00000000000E+00  0.00000000000E+00  0.45593999997E+02  0.45594000000E+02  0.51100000000E-03 0.  1.
         11   -1    0    0    0    0 -0.00000000000E+00 -0.00000000000E+00 -0.45593999997E+02  0.45594000000E+02  0.51100000000E-03 0. -1.
    9900012    2    1    2    0    0  0.39910031648E+02  0.20823412097E+02 -0.16395939629E+01  0.46142318899E+02  0.10000010376E+02 0.  0.
        -12    1    1    2    0    0 -0.39910031648E+02 -0.20823412097E+02  0.16395939629E+01  0.45045681101E+02  0.00000000000E+00 0.  1.
         11    1    3    3    0    0  0.83380354891E+01  0.66570968933E+01  0.92471552205E+00  0.10709569269E+02  0.51100000000E-03 0. -1.
        -11    1    3    3    0    0  0.20283039747E+02  0.11084255590E+02 -0.45656577658E+01  0.23560722707E+02  0.51100000000E-03 0.  1.
        -12    1    3    3    0    0  0.11288956412E+02  0.30820596132E+01  0.20013482808E+01  0.11872026924E+02  0.00000000000E+00 0.  1.
</event>
<event>
 7    1  0.2001181E-008  0.4614232E+02  0.7816164E-02  0.1320468E+00
        -11   -1    0    0    0    0  0.00000000000E+00  0.00000000000E+00  0.45593999997E+02  0.45594000000E+02  0.51100000000E-03 0.  1.
         11   -1    0    0    0    0 -0.00000000000E+00 -0.00000000000E+00 -0.45593999997E+02  0.45594000000E+02  0.51100000000E-03 0. -1.
    9900012    2    1    2    0    0  0.37488582502E+02  0.12429155228E+02 -0.21661851106E+02  0.46142317510E+02  0.99999977071E+01 0.  0.
        -12    1    1    2    0    0 -0.37488582502E+02 -0.12429155228E+02  0.21661851106E+02  0.45045682490E+02  0.00000000000E+00 0.  1.
         11    1    3    3    0    0  0.27431156216E+02  0.51379972686E+01 -0.12971375624E+02  0.30775378683E+02  0.51100000000E-03 0. -1.
        -11    1    3    3    0    0  0.31387864107E+01  0.20015832038E+01 -0.40415748082E+01  0.54947832209E+01  0.51100000000E-03 0.  1.
         12    1    3    3    0    0  0.69186398756E+01  0.52895747558E+01 -0.46489006737E+01  0.98721556055E+01  0.00000000000E+00 0. -1.
</event>
<event>
 7    1  0.2001181E-008  0.4614232E+02  0.7816164E-02  0.1320468E+00
        -11   -1    0    0    0    0  0.00000000000E+00  0.00000000000E+00  0.45593999997E+02  0.45594000000E+02  0.51100000000E-03 0.  1.
         11   -1    0    0    0    0 -0.00000000000E+00 -0.00000000000E+00 -0.45593999997E+02  0.45594000000E+02  0.51100000000E-03 0. -1.
    9900012    2    1    2    0    0 -0.43396260095E+02  0.22459770597E+01 -0.11867337344E+02  0.46142317645E+02  0.99999989408E+01 0.  0.
        -12    1    1    2    0    0  0.43396260095E+02 -0.22459770597E+01  0.11867337344E+02  0.45045682355E+02  0.00000000000E+00 0.  1.
         11    1    3    3    0    0 -0.29756247502E+02  0.13690584015E+01 -0.55739181760E+01  0.30304738085E+02  0.51100000000E-03 0. -1.
        -11    1    3    3    0    0 -0.93921237391E+01  0.22289094766E+01 -0.60093685912E+01  0.11370687618E+02  0.51100000000E-03 0.  1.
        -12    1    3    3    0    0 -0.42478888542E+01 -0.13519908184E+01 -0.28405057695E+00  0.44668919419E+01  0.00000000000E+00 0.  1.
</event>
<event>
 7    1  0.2001181E-008  0.4614232E+02  0.7816164E-02  0.1320468E+00
        -11   -1    0    0    0    0  0.00000000000E+00  0.00000000000E+00  0.45593999997E+02  0.45594000000E+02  0.51100000000E-03 0. -1.
         11   -1    0    0    0    0 -0.00000000000E+00 -0.00000000000E+00 -0.45593999997E+02  0.45594000000E+02  0.51100000000E-03 0.  1.
    9900012    2    1    2    0    0  0.13733664796E+02 -0.42229048044E+02 -0.75635598201E+01  0.46142317803E+02  0.10000000384E+02 0.  0.
        -12    1    1    2    0    0 -0.13733664796E+02  0.42229048044E+02  0.75635598201E+01  0.45045682197E+02  0.00000000000E+00 0.  1.
         11    1    3    3    0    0  0.32183660618E+01 -0.71000495242E+01  0.19071283883E+01  0.80253175828E+01  0.51100000000E-03 0. -1.
        -11    1    3    3    0    0  0.85125211565E+01 -0.21136769378E+02 -0.57666441130E+01  0.23504897804E+02  0.51100000000E-03 0.  1.
        -12    1    3    3    0    0  0.20027775782E+01 -0.13992229141E+02 -0.37040440954E+01  0.14612102416E+02  0.00000000000E+00 0.  1.
</event>
<event>
 7    1  0.2001181E-008  0.4614232E+02  0.7816164E-02  0.1320468E+00
        -11   -1    0    0    0    0  0.00000000000E+00  0.00000000000E+00  0.45593999997E+02  0.45594000000E+02  0.51100000000E-03 0.  1.
         11   -1    0    0    0    0 -0.00000000000E+00 -0.00000000000E+00 -0.45593999997E+02  0.45594000000E+02  0.51100000000E-03 0. -1.
    9900012    2    1    2    0    0  0.22988681759E+02  0.32735245312E+01 -0.38599457694E+02  0.46142316676E+02  0.99999901083E+01 0.  0.
        -12    1    1    2    0    0 -0.22988681759E+02 -0.32735245312E+01  0.38599457694E+02  0.45045683324E+02  0.00000000000E+00 0.  1.
         11    1    3    3    0    0  0.79814305712E+01  0.28311471703E+01 -0.14853391762E+02  0.17098007935E+02  0.51100000000E-03 0. -1.
        -11    1    3    3    0    0  0.54259861941E+01  0.35989258401E+01 -0.11085679385E+02  0.12856355668E+02  0.51100000000E-03 0.  1.
        -12    1    3    3    0    0  0.95812649933E+01 -0.31565484792E+01 -0.12660386547E+02  0.16187953073E+02  0.00000000000E+00 0.  1.
</event>
<event>
 7    1  0.2001181E-008  0.4614232E+02  0.7816164E-02  0.1320468E+00
        -11   -1    0    0    0    0  0.00000000000E+00  0.00000000000E+00  0.45593999997E+02  0.45594000000E+02  0.51100000000E-03 0.  1.
         11   -1    0    0    0    0 -0.00000000000E+00 -0.00000000000E+00 -0.45593999997E+02  0.45594000000E+02  0.51100000000E-03 0. -1.
    9900012    2    1    2    0    0  0.26280057610E+02 -0.31799034610E+02 -0.18091257307E+02  0.46142316289E+02  0.99999865726E+01 0.  0.
        -12    1    1    2    0    0 -0.26280057610E+02  0.31799034610E+02  0.18091257307E+02  0.45045683711E+02  0.00000000000E+00 0.  1.
         11    1    3    3    0    0  0.11519953372E+02 -0.15807771208E+02 -0.68418551390E+01  0.20722112302E+02  0.51100000000E-03 0. -1.
        -11    1    3    3    0    0  0.10402081066E+02 -0.92926127697E+01 -0.10369245393E+02  0.17380368030E+02  0.51100000000E-03 0.  1.
         12    1    3    3    0    0  0.43580231723E+01 -0.66986506323E+01 -0.88015677516E+00  0.80398359569E+01  0.00000000000E+00 0. -1.
</event>
<event>
 7    1  0.2001181E-008  0.4614232E+02  0.7816164E-02  0.1320468E+00
        -11   -1    0    0    0    0  0.00000000000E+00  0.00000000000E+00  0.45593999997E+02  0.45594000000E+02  0.51100000000E-03 0.  1.
         11   -1    0    0    0    0 -0.00000000000E+00 -0.00000000000E+00 -0.45593999997E+02  0.45594000000E+02  0.51100000000E-03 0. -1.
    9900012    2    1    2    0    0  0.80853261230E+01 -0.40799547215E+02 -0.17295604957E+02  0.46142317606E+02  0.99999985885E+01 0.  0.
        -12    1    1    2    0    0 -0.80853261230E+01  0.40799547215E+02  0.17295604957E+02  0.45045682394E+02  0.00000000000E+00 0.  1.
         11    1    3    3    0    0  0.21945627641E+01 -0.17691188010E+02 -0.48550804275E+01  0.18476093882E+02  0.51100000000E-03 0. -1.
        -11    1    3    3    0    0  0.35037825743E+01 -0.12257841117E+02 -0.10213036953E+02  0.16335154889E+02  0.51100000000E-03 0.  1.
        -12    1    3    3    0    0  0.23869807847E+01 -0.10850518088E+02 -0.22274875773E+01  0.11331068836E+02  0.00000000000E+00 0.  1.
</event>
<event>
 7    1  0.2001181E-008  0.4614232E+02  0.7816164E-02  0.1320468E+00
        -11   -1    0    0    0    0  0.00000000000E+00  0.00000000000E+00  0.45593999997E+02  0.45594000000E+02  0.51100000000E-03 0.  1.
         11   -1    0    0    0    0 -0.00000000000E+00 -0.00000000000E+00 -0.45593999997E+02  0.45594000000E+02  0.51100000000E-03 0. -1.
    9900012    2    1    2    0    0 -0.12759134018E+02  0.74375248411E+01 -0.42555862644E+02  0.46142315167E+02  0.99999763478E+01 0.  0.
        -12    1    1    2    0    0  0.12759134018E+02 -0.74375248411E+01  0.42555862644E+02  0.45045684833E+02  0.00000000000E+00 0.  1.
         11    1    3    3    0    0 -0.24608051975E+01  0.13614935506E+01 -0.20885397883E+01  0.35030309186E+01  0.51100000000E-03 0. -1.
        -11    1    3    3    0    0  0.66746063731E-01 -0.91816555535E+00 -0.23760762505E+01  0.25481800630E+01  0.51100000000E-03 0.  1.
         12    1    3    3    0    0 -0.10365074884E+02  0.69941968459E+01 -0.38091246606E+02  0.40091104186E+02  0.00000000000E+00 0. -1.
</event>
<event>
 7    1  0.2001181E-008  0.4614232E+02  0.7816164E-02  0.1320468E+00
        -11   -1    0    0    0    0  0.00000000000E+00  0.00000000000E+00  0.45593999997E+02  0.45594000000E+02  0.51100000000E-03 0. -1.
         11   -1    0    0    0    0 -0.00000000000E+00 -0.00000000000E+00 -0.45593999997E+02  0.45594000000E+02  0.51100000000E-03 0.  1.
    9900012    2    1    2    0    0  0.31474864418E+02 -0.72342554205E+00  0.32216812340E+02  0.46142318386E+02  0.10000005703E+02 0.  0.
        -12    1    1    2    0    0 -0.31474864418E+02  0.72342554205E+00 -0.32216812340E+02  0.45045681614E+02  0.00000000000E+00 0.  1.
         11    1    3    3    0    0  0.11284031190E+02 -0.22480367736E+01  0.94574439154E+01  0.14893833452E+02  0.51100000000E-03 0. -1.
        -11    1    3    3    0    0  0.14206512099E+01 -0.16871740130E+01  0.13090593433E+01  0.25648474879E+01  0.51100000000E-03 0.  1.
         12    1    3    3    0    0  0.18770182018E+02  0.32117852446E+01  0.21450309082E+02  0.28683637446E+02  0.00000000000E+00 0. -1.
</event>
<event>
 7    1  0.2001181E-008  0.4614232E+02  0.7816164E-02  0.1320468E+00
        -11   -1    0    0    0    0  0.00000000000E+00  0.00000000000E+00  0.45593999997E+02  0.45594000000E+02  0.51100000000E-03 0. -1.
         11   -1    0    0    0    0 -0.00000000000E+00 -0.00000000000E+00 -0.45593999997E+02  0.45594000000E+02  0.51100000000E-03 0.  1.
    9900012    2    1    2    0    0  0.29550654258E+02 -0.33304975350E+02 -0.68301550184E+01  0.46142316880E+02  0.99999919688E+01 0.  0.
        -12    1    1    2    0    0 -0.29550654258E+02  0.33304975350E+02  0.68301550184E+01  0.45045683120E+02  0.00000000000E+00 0.  1.
         11    1    3    3    0    0  0.27101575316E+01 -0.84476332841E+01 -0.19738872525E+01  0.90886573868E+01  0.51100000000E-03 0. -1.
        -11    1    3    3    0    0  0.17088656402E+01 -0.13390702350E+01 -0.10880636575E+01  0.24284179324E+01  0.51100000000E-03 0.  1.
         12    1    3    3    0    0  0.25131631087E+02 -0.23518271831E+02 -0.37682041084E+01  0.34625241561E+02  0.00000000000E+00 0. -1.
</event>
<event>
 7    1  0.2001181E-008  0.4614232E+02  0.7816164E-02  0.1320468E+00
        -11   -1    0    0    0    0  0.00000000000E+00  0.00000000000E+00  0.45593999997E+02  0.45594000000E+02  0.51100000000E-03 0. -1.
         11   -1    0    0    0    0 -0.00000000000E+00 -0.00000000000E+00 -0.45593999997E+02  0.45594000000E+02  0.51100000000E-03 0.  1.
    9900012    2    1    2    0    0 -0.25597695148E+02  0.16242204767E+02  0.33317597594E+02  0.46142317387E+02  0.99999965917E+01 0.  0.
        -12    1    1    2    0    0  0.25597695148E+02 -0.16242204767E+02 -0.33317597594E+02  0.45045682613E+02  0.00000000000E+00 0.  1.
         11    1    3    3    0    0 -0.10250936250E+01  0.32580956710E+00  0.15531371361E+01  0.18892337173E+01  0.51100000000E-03 0. -1.
        -11    1    3    3    0    0 -0.18349737579E+02  0.14214039095E+02  0.29222184176E+02  0.37318732895E+02  0.51100000000E-03 0.  1.
         12    1    3    3    0    0 -0.62228639440E+01  0.17023561051E+01  0.25422762819E+01  0.69343507748E+01  0.00000000000E+00 0. -1.
</event>
<event>
 7    1  0.2001181E-008  0.4614232E+02  0.7816164E-02  0.1320468E+00
        -11   -1    0    0    0    0  0.00000000000E+00  0.00000000000E+00  0.45593999997E+02  0.45594000000E+02  0.51100000000E-03 0. -1.
         11   -1    0    0    0    0 -0.00000000000E+00 -0.00000000000E+00 -0.45593999997E+02  0.45594000000E+02  0.51100000000E-03 0.  1.
    9900012    2    1    2    0    0 -0.29483218604E+02 -0.24601677135E+02 -0.23550173099E+02  0.46142319296E+02  0.10000013996E+02 0.  0.
        -12    1    1    2    0    0  0.29483218604E+02  0.24601677135E+02  0.23550173099E+02  0.45045680704E+02  0.00000000000E+00 0.  1.
         11    1    3    3    0    0 -0.65996196074E+01 -0.56124594532E+01 -0.57371672137E+01  0.10390850205E+02  0.51100000000E-03 0. -1.
        -11    1    3    3    0    0 -0.17037378125E+02 -0.14486623190E+02 -0.86301073312E+01  0.23971092124E+02  0.51100000000E-03 0.  1.
        -12    1    3    3    0    0 -0.58462208724E+01 -0.45025944915E+01 -0.91828985536E+01  0.11780376967E+02  0.00000000000E+00 0.  1.
</event>
<event>
 7    1  0.2001181E-008  0.4614232E+02  0.7816164E-02  0.1320468E+00
        -11   -1    0    0    0    0  0.00000000000E+00  0.00000000000E+00  0.45593999997E+02  0.45594000000E+02  0.51100000000E-03 0.  1.
         11   -1    0    0    0    0 -0.00000000000E+00 -0.00000000000E+00 -0.45593999997E+02  0.45594000000E+02  0.51100000000E-03 0. -1.
    9900012    2    1    2    0    0  0.15586286652E+02  0.34213103120E+02 -0.24812189490E+02  0.46142317588E+02  0.99999984176E+01 0.  0.
        -12    1    1    2    0    0 -0.15586286652E+02 -0.34213103120E+02  0.24812189490E+02  0.45045682412E+02  0.00000000000E+00 0.  1.
         11    1    3    3    0    0  0.50906862995E+01  0.15799928334E+02 -0.65949979866E+01  0.17861881790E+02  0.51100000000E-03 0. -1.
        -11    1    3    3    0    0  0.11486781769E+01  0.27050125060E+00 -0.62211193039E+00  0.13340374792E+01  0.51100000000E-03 0.  1.
         12    1    3    3    0    0  0.93469221756E+01  0.18142673535E+02 -0.17595079573E+02  0.26946398318E+02  0.00000000000E+00 0. -1.
</event>
<event>
 7    1  0.2001181E-008  0.4614232E+02  0.7816164E-02  0.1320468E+00
        -11   -1    0    0    0    0  0.00000000000E+00  0.00000000000E+00  0.45593999997E+02  0.45594000000E+02  0.51100000000E-03 0.  1.
         11   -1    0    0    0    0 -0.00000000000E+00 -0.00000000000E+00 -0.45593999997E+02  0.45594000000E+02  0.51100000000E-03 0. -1.
    9900012    2    1    2    0    0 -0.86236115007E+01 -0.19722666887E+02 -0.39569728589E+02  0.46142315578E+02  0.99999800913E+01 0.  0.
        -12    1    1    2    0    0  0.86236115007E+01  0.19722666887E+02  0.39569728589E+02  0.45045684422E+02  0.00000000000E+00 0.  1.
         11    1    3    3    0    0 -0.34115280462E+01 -0.53058098175E+01 -0.10543935952E+02  0.12286770407E+02  0.51100000000E-03 0. -1.
        -11    1    3    3    0    0  0.45743015280E+00 -0.10554178655E+02 -0.17885026735E+02  0.20771954915E+02  0.51100000000E-03 0.  1.
        -12    1    3    3    0    0 -0.56695136073E+01 -0.38626784144E+01 -0.11140765903E+02  0.13083590256E+02  0.00000000000E+00 0.  1.
</event>
<event>
 7    1  0.2001181E-008  0.4614232E+02  0.7816164E-02  0.1320468E+00
        -11   -1    0    0    0    0  0.00000000000E+00  0.00000000000E+00  0.45593999997E+02  0.45594000000E+02  0.51100000000E-03 0.  1.
         11   -1    0    0    0    0 -0.00000000000E+00 -0.00000000000E+00 -0.45593999997E+02  0.45594000000E+02  0.51100000000E-03 0. -1.
    9900012    2    1    2    0    0  0.11106964589E+02  0.28601585970E+02  0.32980266601E+02  0.46142319103E+02  0.10000012241E+02 0.  0.
        -12    1    1    2    0    0 -0.11106964589E+02 -0.28601585970E+02 -0.32980266601E+02  0.45045680897E+02  0.00000000000E+00 0.  1.
         11    1    3    3    0    0  0.28604508242E+01  0.16624100043E+02  0.19463845159E+02  0.25756244870E+02  0.51100000000E-03 0. -1.
        -11    1    3    3    0    0  0.48853552554E+01  0.79462617021E+01  0.11392249085E+02  0.14723895900E+02  0.51100000000E-03 0.  1.
        -12    1    3    3    0    0  0.33611585093E+01  0.40312242254E+01  0.21241723564E+01  0.56621783335E+01  0.00000000000E+00 0.  1.
</event>
<event>
 7    1  0.2001181E-008  0.4614232E+02  0.7816164E-02  0.1320468E+00
        -11   -1    0    0    0    0  0.00000000000E+00  0.00000000000E+00  0.45593999997E+02  0.45594000000E+02  0.51100000000E-03 0.  1.
         11   -1    0    0    0    0 -0.00000000000E+00 -0.00000000000E+00 -0.45593999997E+02  0.45594000000E+02  0.51100000000E-03 0. -1.
    9900012    2    1    2    0    0  0.16417374312E+01 -0.42727179856E+02 -0.14170610010E+02  0.46142318872E+02  0.10000010133E+02 0.  0.
        -12    1    1    2    0    0 -0.16417374312E+01  0.42727179856E+02  0.14170610010E+02  0.45045681128E+02  0.00000000000E+00 0.  1.
         11    1    3    3    0    0  0.93669733702E+00 -0.42368484776E+01 -0.23742069727E+01  0.49462254228E+01  0.51100000000E-03 0. -1.
        -11    1    3    3    0    0 -0.21913467939E+01 -0.28527780565E+02 -0.57374136583E+01  0.29181401277E+02  0.51100000000E-03 0.  1.
        -12    1    3    3    0    0  0.28963868881E+01 -0.99625508130E+01 -0.60589893787E+01  0.12014692172E+02  0.00000000000E+00 0.  1.
</event>
<event>
 7    1  0.2001181E-008  0.4614232E+02  0.7816164E-02  0.1320468E+00
        -11   -1    0    0    0    0  0.00000000000E+00  0.00000000000E+00  0.45593999997E+02  0.45594000000E+02  0.51100000000E-03 0.  1.
         11   -1    0    0    0    0 -0.00000000000E+00 -0.00000000000E+00 -0.45593999997E+02  0.45594000000E+02  0.51100000000E-03 0. -1.
    9900012    2    1    2    0    0  0.11569961291E+02  0.29154316414E+02 -0.32330717824E+02  0.46142317800E+02  0.10000000355E+02 0.  0.
        -12    1    1    2    0    0 -0.11569961291E+02 -0.29154316414E+02  0.32330717824E+02  0.45045682200E+02  0.00000000000E+00 0.  1.
         11    1    3    3    0    0  0.96777532108E+01  0.11917364236E+02 -0.16558290284E+02  0.22580067647E+02  0.51100000000E-03 0. -1.
        -11    1    3    3    0    0  0.24495485300E+00  0.49041426304E+01 -0.59206753006E+01  0.76918797505E+01  0.51100000000E-03 0.  1.
        -12    1    3    3    0    0  0.16472532269E+01  0.12332809548E+02 -0.98517522388E+01  0.15870370403E+02  0.00000000000E+00 0.  1.
</event>
<event>
 7    1  0.2001181E-008  0.4614232E+02  0.7816164E-02  0.1320468E+00
        -11   -1    0    0    0    0  0.00000000000E+00  0.00000000000E+00  0.45593999997E+02  0.45594000000E+02  0.51100000000E-03 0. -1.
         11   -1    0    0    0    0 -0.00000000000E+00 -0.00000000000E+00 -0.45593999997E+02  0.45594000000E+02  0.51100000000E-03 0.  1.
    9900012    2    1    2    0    0  0.31185110778E+02 -0.31511461295E+02  0.79768561181E+01  0.46142316958E+02  0.99999926751E+01 0.  0.
        -12    1    1    2    0    0 -0.31185110778E+02  0.31511461295E+02 -0.79768561181E+01  0.45045683042E+02  0.00000000000E+00 0.  1.
         11    1    3    3    0    0  0.31050281703E+02 -0.29451825627E+02  0.82208924604E+01  0.43578814804E+02  0.51100000000E-03 0. -1.
        -11    1    3    3    0    0  0.41583217107E+00 -0.16189542713E+01  0.41512113734E+00  0.17222819592E+01  0.51100000000E-03 0.  1.
        -12    1    3    3    0    0 -0.28100309571E+00 -0.44068139661E+00 -0.65915747966E+00  0.84122019478E+00  0.00000000000E+00 0.  1.
</event>
<event>
 7    1  0.2001181E-008  0.4614232E+02  0.7816164E-02  0.1320468E+00
        -11   -1    0    0    0    0  0.00000000000E+00  0.00000000000E+00  0.45593999997E+02  0.45594000000E+02  0.51100000000E-03 0.  1.
         11   -1    0    0    0    0 -0.00000000000E+00 -0.00000000000E+00 -0.45593999997E+02  0.45594000000E+02  0.51100000000E-03 0. -1.
    9900012    2    1    2    0    0 -0.25975156416E+02  0.26374182759E+02 -0.25667239183E+02  0.46142318361E+02  0.10000005467E+02 0.  0.
        -12    1    1    2    0    0  0.25975156416E+02 -0.26374182759E+02  0.25667239183E+02  0.45045681639E+02  0.00000000000E+00 0.  1.
         11    1    3    3    0    0 -0.63775969578E+01  0.91711156969E+01 -0.99737892094E+01  0.14975298913E+02  0.51100000000E-03 0. -1.
        -11    1    3    3    0    0 -0.93833931394E-01  0.94173909844E+00 -0.22359976275E+01  0.24280368588E+01  0.51100000000E-03 0.  1.
        -12    1    3    3    0    0 -0.19503725527E+02  0.16261327964E+02 -0.13457452346E+02  0.28738982589E+02  0.00000000000E+00 0.  1.
</event>
<event>
 7    1  0.2001181E-008  0.4614231E+02  0.7816164E-02  0.1320468E+00
        -11   -1    0    0    0    0  0.00000000000E+00  0.00000000000E+00  0.45593999997E+02  0.45594000000E+02  0.51100000000E-03 0.  1.
         11   -1    0    0    0    0 -0.00000000000E+00 -0.00000000000E+00 -0.45593999997E+02  0.45594000000E+02  0.51100000000E-03 0. -1.
    9900012    2    1    2    0    0 -0.13948149263E+02  0.12687176299E+02 -0.40909643246E+02  0.46142309631E+02  0.99999258627E+01 0.  0.
        -12    1    1    2    0    0  0.13948149263E+02 -0.12687176299E+02  0.40909643246E+02  0.45045690369E+02  0.00000000000E+00 0.  1.
         11    1    3    3    0    0 -0.14027422626E+01  0.36684995562E+01 -0.59635017288E+01  0.71406531899E+01  0.51100000000E-03 0. -1.
        -11    1    3    3    0    0 -0.26350863648E+01  0.66024245067E+01 -0.13770095275E+02  0.15496813016E+02  0.51100000000E-03 0.  1.
        -12    1    3    3    0    0 -0.99103206355E+01  0.24162522360E+01 -0.21176046242E+02  0.23504843425E+02  0.00000000000E+00 0.  1.
</event>
<event>
 7    1  0.2001181E-008  0.4614232E+02  0.7816164E-02  0.1320468E+00
        -11   -1    0    0    0    0  0.00000000000E+00  0.00000000000E+00  0.45593999997E+02  0.45594000000E+02  0.51100000000E-03 0. -1.
         11   -1    0    0    0    0 -0.00000000000E+00 -0.00000000000E+00 -0.45593999997E+02  0.45594000000E+02  0.51100000000E-03 0.  1.
    9900012    2    1    2    0    0 -0.21793940083E+01 -0.39498060144E+02  0.21546856820E+02  0.46142317053E+02  0.99999935392E+01 0.  0.
        -12    1    1    2    0    0  0.21793940083E+01  0.39498060144E+02 -0.21546856820E+02  0.45045682947E+02  0.00000000000E+00 0.  1.
         11    1    3    3    0    0  0.69275346901E+00 -0.35500873840E+02  0.19281965189E+02  0.40405273574E+02  0.51100000000E-03 0. -1.
        -11    1    3    3    0    0 -0.14290331490E+01 -0.33661275279E+01  0.18967162675E+01  0.41195246249E+01  0.51100000000E-03 0.  1.
         12    1    3    3    0    0 -0.14431143283E+01 -0.63105877563E+00  0.36817536363E+00  0.16175188534E+01  0.00000000000E+00 0. -1.
</event>
<event>
 7    1  0.2001181E-008  0.4614232E+02  0.7816164E-02  0.1320468E+00
        -11   -1    0    0    0    0  0.00000000000E+00  0.00000000000E+00  0.45593999997E+02  0.45594000000E+02  0.51100000000E-03 0.  1.
         11   -1    0    0    0    0 -0.00000000000E+00 -0.00000000000E+00 -0.45593999997E+02  0.45594000000E+02  0.51100000000E-03 0. -1.
    9900012    2    1    2    0    0 -0.74159523394E+01 -0.13195126355E+02 -0.42426472921E+02  0.46142319707E+02  0.10000017740E+02 0.  0.
        -12    1    1    2    0    0  0.74159523394E+01  0.13195126355E+02  0.42426472921E+02  0.45045680293E+02  0.00000000000E+00 0.  1.
         11    1    3    3    0    0 -0.46846075524E+01 -0.10152908399E+02 -0.33420880813E+02  0.35241770266E+02  0.51100000000E-03 0. -1.
        -11    1    3    3    0    0 -0.20964925659E+01 -0.38589372660E+01 -0.45392094137E+01  0.63159401726E+01  0.51100000000E-03 0.  1.
        -12    1    3    3    0    0 -0.63485222101E+00  0.81671931048E+00 -0.44663826935E+01  0.45846092679E+01  0.00000000000E+00 0.  1.
</event>
<event>
 7    1  0.2001181E-008  0.4614232E+02  0.7816164E-02  0.1320468E+00
        -11   -1    0    0    0    0  0.00000000000E+00  0.00000000000E+00  0.45593999997E+02  0.45594000000E+02  0.51100000000E-03 0.  1.
         11   -1    0    0    0    0 -0.00000000000E+00 -0.00000000000E+00 -0.45593999997E+02  0.45594000000E+02  0.51100000000E-03 0. -1.
    9900012    2    1    2    0    0 -0.29581022483E+02 -0.50309423756E+01 -0.33597116433E+02  0.46142317577E+02  0.99999983221E+01 0.  0.
        -12    1    1    2    0    0  0.29581022483E+02  0.50309423756E+01  0.33597116433E+02  0.45045682423E+02  0.00000000000E+00 0.  1.
         11    1    3    3    0    0 -0.42073815804E+01 -0.30941875370E+01 -0.93746169972E+01  0.10731239462E+02  0.51100000000E-03 0. -1.
        -11    1    3    3    0    0 -0.25042067176E+01 -0.15609635420E+01 -0.30374771496E+01  0.42348466512E+01  0.51100000000E-03 0.  1.
         12    1    3    3    0    0 -0.22869434185E+02 -0.37579129661E+00 -0.21185022286E+02  0.31176231464E+02  0.00000000000E+00 0. -1.
</event>
<event>
 7    1  0.2001181E-008  0.4614231E+02  0.7816164E-02  0.1320468E+00
        -11   -1    0    0    0    0  0.00000000000E+00  0.00000000000E+00  0.45593999997E+02  0.45594000000E+02  0.51100000000E-03 0.  1.
         11   -1    0    0    0    0 -0.00000000000E+00 -0.00000000000E+00 -0.45593999997E+02  0.45594000000E+02  0.51100000000E-03 0. -1.
    9900012    2    1    2    0    0  0.33148669162E+02 -0.53349123648E+01 -0.30030294131E+02  0.46142310720E+02  0.99999357911E+01 0.  0.
        -12    1    1    2    0    0 -0.33148669162E+02  0.53349123648E+01  0.30030294131E+02  0.45045689280E+02  0.00000000000E+00 0.  1.
         11    1    3    3    0    0  0.14789552126E+02 -0.54905157089E+01 -0.17189522501E+02  0.23331444424E+02  0.51100000000E-03 0. -1.
        -11    1    3    3    0    0  0.96261749448E+01  0.40933422313E+00 -0.41591797741E+01  0.10494263920E+02  0.51100000000E-03 0.  1.
        -12    1    3    3    0    0  0.87329420904E+01 -0.25373087901E+00 -0.86815918562E+01  0.12316602375E+02  0.00000000000E+00 0.  1.
</event>
<event>
 7    1  0.2001181E-008  0.4614232E+02  0.7816164E-02  0.1320468E+00
        -11   -1    0    0    0    0  0.00000000000E+00  0.00000000000E+00  0.45593999997E+02  0.45594000000E+02  0.51100000000E-03 0.  1.
         11   -1    0    0    0    0 -0.00000000000E+00 -0.00000000000E+00 -0.45593999997E+02  0.45594000000E+02  0.51100000000E-03 0. -1.
    9900012    2    1    2    0    0 -0.21697757107E+02  0.15763573734E+02 -0.36191583877E+02  0.46142315813E+02  0.99999822350E+01 0.  0.
        -12    1    1    2    0    0  0.21697757107E+02 -0.15763573734E+02  0.36191583877E+02  0.45045684187E+02  0.00000000000E+00 0.  1.
         11    1    3    3    0    0 -0.39405307693E+01  0.31609431474E+01 -0.54061563098E+01  0.73990452514E+01  0.51100000000E-03 0.  1.
        -11    1    3    3    0    0 -0.18602784457E+02  0.12471994861E+02 -0.30502738334E+02  0.37842189306E+02  0.51100000000E-03 0. -1.
        -12    1    3    3    0    0  0.84555811931E+00  0.13063572540E+00 -0.28268923366E+00  0.90108125533E+00  0.00000000000E+00 0.  1.
</event>
<event>
 7    1  0.2001181E-008  0.4614232E+02  0.7816164E-02  0.1320468E+00
        -11   -1    0    0    0    0  0.00000000000E+00  0.00000000000E+00  0.45593999997E+02  0.45594000000E+02  0.51100000000E-03 0. -1.
         11   -1    0    0    0    0 -0.00000000000E+00 -0.00000000000E+00 -0.45593999997E+02  0.45594000000E+02  0.51100000000E-03 0.  1.
    9900012    2    1    2    0    0 -0.33692218480E+02  0.27451665086E+01  0.29772670626E+02  0.46142318281E+02  0.10000004743E+02 0.  0.
        -12    1    1    2    0    0  0.33692218480E+02 -0.27451665086E+01 -0.29772670626E+02  0.45045681719E+02  0.00000000000E+00 0.  1.
         11    1    3    3    0    0 -0.12743434567E+01  0.13448484665E+01  0.17420890971E-02  0.18527201460E+01  0.51100000000E-03 0. -1.
        -11    1    3    3    0    0 -0.64975397292E+01  0.21906446308E+01  0.64201045713E+01  0.93933321776E+01  0.51100000000E-03 0.  1.
         12    1    3    3    0    0 -0.25920335295E+02 -0.79032658872E+00  0.23350823966E+02  0.34896265958E+02  0.00000000000E+00 0. -1.
</event>
<event>
 7    1  0.2001181E-008  0.4614232E+02  0.7816164E-02  0.1320468E+00
        -11   -1    0    0    0    0  0.00000000000E+00  0.00000000000E+00  0.45593999997E+02  0.45594000000E+02  0.51100000000E-03 0. -1.
         11   -1    0    0    0    0 -0.00000000000E+00 -0.00000000000E+00 -0.45593999997E+02  0.45594000000E+02  0.51100000000E-03 0.  1.
    9900012    2    1    2    0    0 -0.28941879470E+02  0.30306002671E+02 -0.16523523368E+02  0.46142323075E+02  0.10000048454E+02 0.  0.
        -12    1    1    2    0    0  0.28941879470E+02 -0.30306002671E+02  0.16523523368E+02  0.45045676925E+02  0.00000000000E+00 0.  1.
         11    1    3    3    0    0 -0.51018653874E+01  0.63527564845E+01 -0.27375777544E+01  0.85953986298E+01  0.51100000000E-03 0. -1.
        -11    1    3    3    0    0 -0.93314323701E+01  0.73005638251E+01 -0.68606213798E+00  0.11867794393E+02  0.51100000000E-03 0.  1.
         12    1    3    3    0    0 -0.14508581712E+02  0.16652682362E+02 -0.13099883475E+02  0.25679130052E+02  0.00000000000E+00 0. -1.
</event>
<event>
 7    1  0.2001181E-008  0.4614232E+02  0.7816164E-02  0.1320468E+00
        -11   -1    0    0    0    0  0.00000000000E+00  0.00000000000E+00  0.45593999997E+02  0.45594000000E+02  0.51100000000E-03 0.  1.
         11   -1    0    0    0    0 -0.00000000000E+00 -0.00000000000E+00 -0.45593999997E+02  0.45594000000E+02  0.51100000000E-03 0. -1.
    9900012    2    1    2    0    0  0.13980744526E+02  0.38263224020E+02  0.19224396253E+02  0.46142323835E+02  0.10000055385E+02 0.  0.
        -12    1    1    2    0    0 -0.13980744526E+02 -0.38263224020E+02 -0.19224396253E+02  0.45045676165E+02  0.00000000000E+00 0.  1.
         11    1    3    3    0    0  0.10848128570E+02  0.19599245591E+02  0.96206000228E+01  0.24379669117E+02  0.51100000000E-03 0.  1.
        -11    1    3    3    0    0  0.40561603548E+01  0.11432578475E+02  0.48783119364E+01  0.13074946081E+02  0.51100000000E-03 0. -1.
        -12    1    3    3    0    0 -0.92354439821E+00  0.72313999534E+01  0.47254842938E+01  0.86877086365E+01  0.00000000000E+00 0.  1.
</event>
<event>
 7    1  0.2001181E-008  0.4614232E+02  0.7816164E-02  0.1320468E+00
        -11   -1    0    0    0    0  0.00000000000E+00  0.00000000000E+00  0.45593999997E+02  0.45594000000E+02  0.51100000000E-03 0. -1.
         11   -1    0    0    0    0 -0.00000000000E+00 -0.00000000000E+00 -0.45593999997E+02  0.45594000000E+02  0.51100000000E-03 0.  1.
    9900012    2    1    2    0    0 -0.38555179755E+01  0.38187421243E+02  0.23579003022E+02  0.46142317148E+02  0.99999944115E+01 0.  0.
        -12    1    1    2    0    0  0.38555179755E+01 -0.38187421243E+02 -0.23579003022E+02  0.45045682852E+02  0.00000000000E+00 0.  1.
         11    1    3    3    0    0 -0.10650460382E+01  0.18057574847E+02  0.10615284965E+02  0.20973664619E+02  0.51100000000E-03 0.  1.
        -11    1    3    3    0    0 -0.81229423215E+00  0.13183784748E+02  0.12067067598E+02  0.17890950865E+02  0.51100000000E-03 0. -1.
        -12    1    3    3    0    0 -0.19781777051E+01  0.69460616484E+01  0.89665045949E+00  0.72777016635E+01  0.00000000000E+00 0.  1.
</event>
<event>
 7    1  0.2001181E-008  0.4614232E+02  0.7816164E-02  0.1320468E+00
        -11   -1    0    0    0    0  0.00000000000E+00  0.00000000000E+00  0.45593999997E+02  0.45594000000E+02  0.51100000000E-03 0.  1.
         11   -1    0    0    0    0 -0.00000000000E+00 -0.00000000000E+00 -0.45593999997E+02  0.45594000000E+02  0.51100000000E-03 0. -1.
    9900012    2    1    2    0    0 -0.33859831515E+02 -0.47699548552E+01 -0.29323588714E+02  0.46142317470E+02  0.99999973438E+01 0.  0.
        -12    1    1    2    0    0  0.33859831515E+02  0.47699548552E+01  0.29323588714E+02  0.45045682530E+02  0.00000000000E+00 0.  1.
         11    1    3    3    0    0 -0.16150221640E+02 -0.28308255118E+01 -0.14706873239E+02  0.22025788359E+02  0.51100000000E-03 0. -1.
        -11    1    3    3    0    0 -0.65894591281E+01 -0.42176902737E+01 -0.56361728170E+01  0.96424233017E+01  0.51100000000E-03 0.  1.
        -12    1    3    3    0    0 -0.11120150747E+02  0.22785609303E+01 -0.89805426584E+01  0.14474105809E+02  0.00000000000E+00 0.  1.
</event>
<event>
 7    1  0.2001181E-008  0.4614232E+02  0.7816164E-02  0.1320468E+00
        -11   -1    0    0    0    0  0.00000000000E+00  0.00000000000E+00  0.45593999997E+02  0.45594000000E+02  0.51100000000E-03 0. -1.
         11   -1    0    0    0    0 -0.00000000000E+00 -0.00000000000E+00 -0.45593999997E+02  0.45594000000E+02  0.51100000000E-03 0.  1.
    9900012    2    1    2    0    0  0.19986426838E+02  0.37555107259E+02 -0.14807769852E+02  0.46142318887E+02  0.10000010265E+02 0.  0.
        -12    1    1    2    0    0 -0.19986426838E+02 -0.37555107259E+02  0.14807769852E+02  0.45045681113E+02  0.00000000000E+00 0.  1.
         11    1    3    3    0    0  0.11215247831E+02  0.20997519711E+02 -0.11026393997E+02  0.26234690445E+02  0.51100000000E-03 0. -1.
        -11    1    3    3    0    0  0.16224119884E+01  0.59113336712E+01 -0.35461567852E+01  0.70817592898E+01  0.51100000000E-03 0.  1.
        -12    1    3    3    0    0  0.71487670189E+01  0.10646253876E+02 -0.23521907003E+00  0.12825869152E+02  0.00000000000E+00 0.  1.
</event>
<event>
 7    1  0.2001181E-008  0.4614232E+02  0.7816164E-02  0.1320468E+00
        -11   -1    0    0    0    0  0.00000000000E+00  0.00000000000E+00  0.45593999997E+02  0.45594000000E+02  0.51100000000E-03 0. -1.
         11   -1    0    0    0    0 -0.00000000000E+00 -0.00000000000E+00 -0.45593999997E+02  0.45594000000E+02  0.51100000000E-03 0.  1.
    9900012    2    1    2    0    0 -0.26704527788E+02  0.19162190010E+02  0.30802469916E+02  0.46142317817E+02  0.10000000512E+02 0.  0.
        -12    1    1    2    0    0  0.26704527788E+02 -0.19162190010E+02 -0.30802469916E+02  0.45045682183E+02  0.00000000000E+00 0.  1.
         11    1    3    3    0    0 -0.16162450048E+02  0.80811244620E+01  0.19680830542E+02  0.26718241993E+02  0.51100000000E-03 0. -1.
        -11    1    3    3    0    0 -0.65285400627E+01  0.96751666409E+01  0.80830582903E+01  0.14197412316E+02  0.51100000000E-03 0.  1.
        -12    1    3    3    0    0 -0.40135376774E+01  0.14058989074E+01  0.30385810833E+01  0.52266635080E+01  0.00000000000E+00 0.  1.
</event>
<event>
 7    1  0.2001181E-008  0.4614232E+02  0.7816164E-02  0.1320468E+00
        -11   -1    0    0    0    0  0.00000000000E+00  0.00000000000E+00  0.45593999997E+02  0.45594000000E+02  0.51100000000E-03 0.  1.
         11   -1    0    0    0    0 -0.00000000000E+00 -0.00000000000E+00 -0.45593999997E+02  0.45594000000E+02  0.51100000000E-03 0. -1.
    9900012    2    1    2    0    0  0.37298496799E+02  0.24551113482E+02 -0.59311497078E+01  0.46142316816E+02  0.99999913842E+01 0.  0.
        -12    1    1    2    0    0 -0.37298496799E+02 -0.24551113482E+02  0.59311497078E+01  0.45045683184E+02  0.00000000000E+00 0.  1.
         11    1    3    3    0    0  0.31892569655E+01  0.26765194624E+01 -0.11407262519E+01  0.43169865726E+01  0.51100000000E-03 0. -1.
        -11    1    3    3    0    0  0.28092930392E+02  0.13320641151E+02 -0.34446010428E+01  0.31281264286E+02  0.51100000000E-03 0.  1.
        -12    1    3    3    0    0  0.60163094408E+01  0.85539528683E+01 -0.13458224132E+01  0.10544065958E+02  0.00000000000E+00 0.  1.
</event>
<event>
 7    1  0.2001181E-008  0.4614232E+02  0.7816164E-02  0.1320468E+00
        -11   -1    0    0    0    0  0.00000000000E+00  0.00000000000E+00  0.45593999997E+02  0.45594000000E+02  0.51100000000E-03 0. -1.
         11   -1    0    0    0    0 -0.00000000000E+00 -0.00000000000E+00 -0.45593999997E+02  0.45594000000E+02  0.51100000000E-03 0.  1.
    9900012    2    1    2    0    0  0.71308412337E+00 -0.37436539926E+02  0.25042171425E+02  0.46142319183E+02  0.10000012969E+02 0.  0.
        -12    1    1    2    0    0 -0.71308412337E+00  0.37436539926E+02 -0.25042171425E+02  0.45045680817E+02  0.00000000000E+00 0.  1.
         11    1    3    3    0    0 -0.32304033108E+00 -0.90595789820E+01  0.45069288762E+01  0.10123869544E+02  0.51100000000E-03 0. -1.
        -11    1    3    3    0    0 -0.43446455076E+00  0.23708467186E+00  0.16005887745E+01  0.16753666087E+01  0.51100000000E-03 0.  1.
         12    1    3    3    0    0  0.14705890052E+01 -0.28614045615E+02  0.18934653774E+02  0.34343083031E+02  0.00000000000E+00 0. -1.
</event>
<event>
 7    1  0.2001181E-008  0.4614232E+02  0.7816164E-02  0.1320468E+00
        -11   -1    0    0    0    0  0.00000000000E+00  0.00000000000E+00  0.45593999997E+02  0.45594000000E+02  0.51100000000E-03 0. -1.
         11   -1    0    0    0    0 -0.00000000000E+00 -0.00000000000E+00 -0.45593999997E+02  0.45594000000E+02  0.51100000000E-03 0.  1.
    9900012    2    1    2    0    0 -0.10104142923E+02 -0.43866430427E+02  0.16602058526E+01  0.46142315344E+02  0.99999779606E+01 0.  0.
        -12    1    1    2    0    0  0.10104142923E+02  0.43866430427E+02 -0.16602058526E+01  0.45045684656E+02  0.00000000000E+00 0.  1.
         11    1    3    3    0    0 -0.53300639897E+01 -0.15958471632E+02  0.35996808860E+01  0.17205815926E+02  0.51100000000E-03 0. -1.
        -11    1    3    3    0    0  0.12749026951E+00 -0.11832516081E+02  0.99954117511E+00  0.11875343085E+02  0.51100000000E-03 0.  1.
         12    1    3    3    0    0 -0.49015692032E+01 -0.16075442715E+02 -0.29390162085E+01  0.17061156333E+02  0.00000000000E+00 0. -1.
</event>
<event>
 7    1  0.2001181E-008  0.4614232E+02  0.7816164E-02  0.1320468E+00
        -11   -1    0    0    0    0  0.00000000000E+00  0.00000000000E+00  0.45593999997E+02  0.45594000000E+02  0.51100000000E-03 0.  1.
         11   -1    0    0    0    0 -0.00000000000E+00 -0.00000000000E+00 -0.45593999997E+02  0.45594000000E+02  0.51100000000E-03 0. -1.
    9900012    2    1    2    0    0 -0.15310352854E+02 -0.37332535596E+02 -0.20024690983E+02  0.46142319102E+02  0.10000012232E+02 0.  0.
        -12    1    1    2    0    0  0.15310352854E+02  0.37332535596E+02  0.20024690983E+02  0.45045680898E+02  0.00000000000E+00 0.  1.
         11    1    3    3    0    0 -0.34711468287E+01 -0.62764938489E+01 -0.25281953312E+01  0.76049330856E+01  0.51100000000E-03 0. -1.
        -11    1    3    3    0    0 -0.27934817321E+01 -0.21726630793E+01 -0.41628497058E+01  0.54638194496E+01  0.51100000000E-03 0.  1.
        -12    1    3    3    0    0 -0.90457242931E+01 -0.28883378668E+02 -0.13333645946E+02  0.33073566567E+02  0.00000000000E+00 0.  1.
</event>
<event>
 7    1  0.2001181E-008  0.4614232E+02  0.7816164E-02  0.1320468E+00
        -11   -1    0    0    0    0  0.00000000000E+00  0.00000000000E+00  0.45593999997E+02  0.45594000000E+02  0.51100000000E-03 0.  1.
         11   -1    0    0    0    0 -0.00000000000E+00 -0.00000000000E+00 -0.45593999997E+02  0.45594000000E+02  0.51100000000E-03 0. -1.
    9900012    2    1    2    0    0  0.33269967746E+02  0.19943797078E+02 -0.22901261535E+02  0.46142316793E+02  0.99999911733E+01 0.  0.
        -12    1    1    2    0    0 -0.33269967746E+02 -0.19943797078E+02  0.22901261535E+02  0.45045683207E+02  0.00000000000E+00 0.  1.
         11    1    3    3    0    0  0.43836123371E+01  0.59541563660E+01 -0.33138116168E+01  0.81024306751E+01  0.51100000000E-03 0. -1.
        -11    1    3    3    0    0  0.35718076314E+01  0.32147813285E+01 -0.12137093839E+01  0.49563816919E+01  0.51100000000E-03 0.  1.
        -12    1    3    3    0    0  0.25314547777E+02  0.10774859383E+02 -0.18373740534E+02  0.33083504426E+02  0.00000000000E+00 0.  1.
</event>
<event>
 7    1  0.2001181E-008  0.4614232E+02  0.7816164E-02  0.1320468E+00
        -11   -1    0    0    0    0  0.00000000000E+00  0.00000000000E+00  0.45593999997E+02  0.45594000000E+02  0.51100000000E-03 0. -1.
         11   -1    0    0    0    0 -0.00000000000E+00 -0.00000000000E+00 -0.45593999997E+02  0.45594000000E+02  0.51100000000E-03 0.  1.
    9900012    2    1    2    0    0 -0.32623211057E+02 -0.81268870572E+01  0.29979881133E+02  0.46142318013E+02  0.10000002298E+02 0.  0.
        -12    1    1    2    0    0  0.32623211057E+02  0.81268870572E+01 -0.29979881133E+02  0.45045681987E+02  0.00000000000E+00 0.  1.
         11    1    3    3    0    0 -0.10602841191E+02 -0.19945317261E+01  0.84232763698E+01  0.13687585002E+02  0.51100000000E-03 0. -1.
        -11    1    3    3    0    0 -0.18887984233E+02 -0.19779300039E+01  0.15893072741E+02  0.24764044841E+02  0.51100000000E-03 0.  1.
        -12    1    3    3    0    0 -0.31323856324E+01 -0.41544253272E+01  0.56635320223E+01  0.76906881693E+01  0.00000000000E+00 0.  1.
</event>
<event>
 7    1  0.2001181E-008  0.4614232E+02  0.7816164E-02  0.1320468E+00
        -11   -1    0    0    0    0  0.00000000000E+00  0.00000000000E+00  0.45593999997E+02  0.45594000000E+02  0.51100000000E-03 0. -1.
         11   -1    0    0    0    0 -0.00000000000E+00 -0.00000000000E+00 -0.45593999997E+02  0.45594000000E+02  0.51100000000E-03 0.  1.
    9900012    2    1    2    0    0 -0.40912739023E+02  0.16369928832E+02  0.93427366226E+01  0.46142317499E+02  0.99999976115E+01 0.  0.
        -12    1    1    2    0    0  0.40912739023E+02 -0.16369928832E+02 -0.93427366226E+01  0.45045682501E+02  0.00000000000E+00 0.  1.
         11    1    3    3    0    0 -0.27003906061E+02  0.81591431065E+01  0.55226675941E+01  0.28745128568E+02  0.51100000000E-03 0. -1.
        -11    1    3    3    0    0 -0.12115208267E+02  0.56743738189E+01  0.46811015879E+01  0.14173549376E+02  0.51100000000E-03 0.  1.
        -12    1    3    3    0    0 -0.17936246955E+01  0.25364119071E+01 -0.86103255941E+00  0.32236395548E+01  0.00000000000E+00 0.  1.
</event>
<event>
 7    1  0.2001181E-008  0.4614232E+02  0.7816164E-02  0.1320468E+00
        -11   -1    0    0    0    0  0.00000000000E+00  0.00000000000E+00  0.45593999997E+02  0.45594000000E+02  0.51100000000E-03 0. -1.
         11   -1    0    0    0    0 -0.00000000000E+00 -0.00000000000E+00 -0.45593999997E+02  0.45594000000E+02  0.51100000000E-03 0.  1.
    9900012    2    1    2    0    0 -0.57912661520E+01  0.30844975321E+02  0.32313496987E+02  0.46142319256E+02  0.10000013629E+02 0.  0.
        -12    1    1    2    0    0  0.57912661520E+01 -0.30844975321E+02 -0.32313496987E+02  0.45045680744E+02  0.00000000000E+00 0.  1.
         11    1    3    3    0    0 -0.27186885886E+01  0.81730552034E+01  0.92017913667E+01  0.12604089162E+02  0.51100000000E-03 0. -1.
        -11    1    3    3    0    0 -0.48301930145E+01  0.18543973064E+02  0.21426777062E+02  0.28745721022E+02  0.51100000000E-03 0.  1.
        -12    1    3    3    0    0  0.17576154510E+01  0.41279470538E+01  0.16849285585E+01  0.47925090715E+01  0.00000000000E+00 0.  1.
</event>
<event>
 7    1  0.2001181E-008  0.4614232E+02  0.7816164E-02  0.1320468E+00
        -11   -1    0    0    0    0  0.00000000000E+00  0.00000000000E+00  0.45593999997E+02  0.45594000000E+02  0.51100000000E-03 0.  1.
         11   -1    0    0    0    0 -0.00000000000E+00 -0.00000000000E+00 -0.45593999997E+02  0.45594000000E+02  0.51100000000E-03 0. -1.
    9900012    2    1    2    0    0 -0.20011682522E+02 -0.40335490970E+02 -0.13016017996E+01  0.46142318338E+02  0.10000005259E+02 0.  0.
        -12    1    1    2    0    0  0.20011682522E+02  0.40335490970E+02  0.13016017996E+01  0.45045681662E+02  0.00000000000E+00 0.  1.
         11    1    3    3    0    0 -0.71731681536E+01 -0.19036922791E+02 -0.11680247827E+01  0.20377022669E+02  0.51100000000E-03 0. -1.
        -11    1    3    3    0    0 -0.43054063279E+01 -0.99978463831E+01 -0.30561122203E+01  0.11306337962E+02  0.51100000000E-03 0.  1.
        -12    1    3    3    0    0 -0.85331080407E+01 -0.11300721796E+02  0.29225352034E+01  0.14458957706E+02  0.00000000000E+00 0.  1.
</event>
<event>
 7    1  0.2001181E-008  0.4614232E+02  0.7816164E-02  0.1320468E+00
        -11   -1    0    0    0    0  0.00000000000E+00  0.00000000000E+00  0.45593999997E+02  0.45594000000E+02  0.51100000000E-03 0. -1.
         11   -1    0    0    0    0 -0.00000000000E+00 -0.00000000000E+00 -0.45593999997E+02  0.45594000000E+02  0.51100000000E-03 0.  1.
    9900012    2    1    2    0    0  0.25292714926E+02  0.61303575058E+00  0.37269505033E+02  0.46142320445E+02  0.10000024473E+02 0.  0.
        -12    1    1    2    0    0 -0.25292714926E+02 -0.61303575058E+00 -0.37269505033E+02  0.45045679555E+02  0.00000000000E+00 0.  1.
         11    1    3    3    0    0  0.70524576116E+01  0.27006080157E+01  0.17733111866E+02  0.19274171804E+02  0.51100000000E-03 0. -1.
        -11    1    3    3    0    0  0.44511044515E+00 -0.98919614364E-01  0.15546771419E+00  0.48174564842E+00  0.51100000000E-03 0.  1.
         12    1    3    3    0    0  0.17795146869E+02 -0.19886526507E+01  0.19380925453E+02  0.26386402993E+02  0.00000000000E+00 0. -1.
</event>
<event>
 7    1  0.2001181E-008  0.4614232E+02  0.7816164E-02  0.1320468E+00
        -11   -1    0    0    0    0  0.00000000000E+00  0.00000000000E+00  0.45593999997E+02  0.45594000000E+02  0.51100000000E-03 0. -1.
         11   -1    0    0    0    0 -0.00000000000E+00 -0.00000000000E+00 -0.45593999997E+02  0.45594000000E+02  0.51100000000E-03 0.  1.
    9900012    2    1    2    0    0 -0.21174244609E+02  0.22855586252E+02  0.32532860598E+02  0.46142317894E+02  0.10000001213E+02 0.  0.
        -12    1    1    2    0    0  0.21174244609E+02 -0.22855586252E+02 -0.32532860598E+02  0.45045682106E+02  0.00000000000E+00 0.  1.
         11    1    3    3    0    0 -0.95498234441E+01  0.15457400991E+02  0.16179167141E+02  0.24328909200E+02  0.51100000000E-03 0. -1.
        -11    1    3    3    0    0 -0.87505962433E+01  0.73776413494E+01  0.14103047120E+02  0.18163107246E+02  0.51100000000E-03 0.  1.
         12    1    3    3    0    0 -0.28738249212E+01  0.20543911922E-01  0.22506463376E+01  0.36503014488E+01  0.00000000000E+00 0. -1.
</event>
<event>
 7    1  0.2001181E-008  0.4614232E+02  0.7816164E-02  0.1320468E+00
        -11   -1    0    0    0    0  0.00000000000E+00  0.00000000000E+00  0.45593999997E+02  0.45594000000E+02  0.51100000000E-03 0.  1.
         11   -1    0    0    0    0 -0.00000000000E+00 -0.00000000000E+00 -0.45593999997E+02  0.45594000000E+02  0.51100000000E-03 0. -1.
    9900012    2    1    2    0    0 -0.36344913969E+01 -0.37014090691E+02 -0.25413800097E+02  0.46142315714E+02  0.99999813365E+01 0.  0.
        -12    1    1    2    0    0  0.36344913969E+01  0.37014090691E+02  0.25413800097E+02  0.45045684286E+02  0.00000000000E+00 0.  1.
         11    1    3    3    0    0 -0.25580008087E+01 -0.69216388640E+01 -0.77647634932E+01  0.10711862820E+02  0.51100000000E-03 0. -1.
        -11    1    3    3    0    0 -0.28283202287E+00 -0.28730614829E+02 -0.15165044961E+02  0.32488564316E+02  0.51100000000E-03 0.  1.
        -12    1    3    3    0    0 -0.79365856527E+00 -0.13618369985E+01 -0.24839916430E+01  0.29418885790E+01  0.00000000000E+00 0.  1.
</event>
<event>
 7    1  0.2001181E-008  0.4614232E+02  0.7816164E-02  0.1320468E+00
        -11   -1    0    0    0    0  0.00000000000E+00  0.00000000000E+00  0.45593999997E+02  0.45594000000E+02  0.51100000000E-03 0.  1.
         11   -1    0    0    0    0 -0.00000000000E+00 -0.00000000000E+00 -0.45593999997E+02  0.45594000000E+02  0.51100000000E-03 0. -1.
    9900012    2    1    2    0    0  0.26993207679E+02 -0.19023612709E+02 -0.30636294562E+02  0.46142316014E+02  0.99999840654E+01 0.  0.
        -12    1    1    2    0    0 -0.26993207679E+02  0.19023612709E+02  0.30636294562E+02  0.45045683986E+02  0.00000000000E+00 0.  1.
         11    1    3    3    0    0  0.29838558319E+01 -0.27736794017E+01 -0.27234010212E+01  0.49003679895E+01  0.51100000000E-03 0. -1.
        -11    1    3    3    0    0  0.17814469545E+02 -0.87696013663E+01 -0.14086790469E+02  0.24345408176E+02  0.51100000000E-03 0.  1.
        -12    1    3    3    0    0  0.61948823028E+01 -0.74803319410E+01 -0.13826103072E+02  0.16896539848E+02  0.00000000000E+00 0.  1.
</event>
<event>
 7    1  0.2001181E-008  0.4614232E+02  0.7816164E-02  0.1320468E+00
        -11   -1    0    0    0    0  0.00000000000E+00  0.00000000000E+00  0.45593999997E+02  0.45594000000E+02  0.51100000000E-03 0.  1.
         11   -1    0    0    0    0 -0.00000000000E+00 -0.00000000000E+00 -0.45593999997E+02  0.45594000000E+02  0.51100000000E-03 0. -1.
    9900012    2    1    2    0    0  0.25182072621E+02 -0.27134717684E+02 -0.25664835862E+02  0.46142317797E+02  0.10000000331E+02 0.  0.
        -12    1    1    2    0    0 -0.25182072621E+02  0.27134717684E+02  0.25664835862E+02  0.45045682203E+02  0.00000000000E+00 0.  1.
         11    1    3    3    0    0  0.26027562895E+01 -0.13633926673E+01  0.32979925043E+00  0.29566784869E+01  0.51100000000E-03 0. -1.
        -11    1    3    3    0    0  0.10626337340E+02 -0.14655635360E+02 -0.12390288508E+02  0.21936862644E+02  0.51100000000E-03 0.  1.
         12    1    3    3    0    0  0.11952978992E+02 -0.11115689657E+02 -0.13604346604E+02  0.21248776667E+02  0.00000000000E+00 0. -1.
</event>
<event>
 7    1  0.2001181E-008  0.4614232E+02  0.7816164E-02  0.1320468E+00
        -11   -1    0    0    0    0  0.00000000000E+00  0.00000000000E+00  0.45593999997E+02  0.45594000000E+02  0.51100000000E-03 0.  1.
         11   -1    0    0    0    0 -0.00000000000E+00 -0.00000000000E+00 -0.45593999997E+02  0.45594000000E+02  0.51100000000E-03 0. -1.
    9900012    2    1    2    0    0 -0.22295463952E+02 -0.35965234137E+02 -0.15444342892E+02  0.46142317557E+02  0.99999981399E+01 0.  0.
        -12    1    1    2    0    0  0.22295463952E+02  0.35965234137E+02  0.15444342892E+02  0.45045682443E+02  0.00000000000E+00 0.  1.
         11    1    3    3    0    0 -0.21952381419E+01 -0.28068369830E+01 -0.30872490094E+01  0.47147121922E+01  0.51100000000E-03 0. -1.
        -11    1    3    3    0    0 -0.71335833086E+01 -0.11694595331E+02 -0.83226976049E+01  0.16028688857E+02  0.51100000000E-03 0.  1.
         12    1    3    3    0    0 -0.12966642502E+02 -0.21463801823E+02 -0.40343962774E+01  0.25398916508E+02  0.00000000000E+00 0. -1.
</event>
<event>
 7    1  0.2001181E-008  0.4614231E+02  0.7816164E-02  0.1320468E+00
        -11   -1    0    0    0    0  0.00000000000E+00  0.00000000000E+00  0.45593999997E+02  0.45594000000E+02  0.51100000000E-03 0.  1.
         11   -1    0    0    0    0 -0.00000000000E+00 -0.00000000000E+00 -0.45593999997E+02  0.45594000000E+02  0.51100000000E-03 0. -1.
    9900012    2    1    2    0    0  0.34538105341E+02 -0.20943469700E+02 -0.19940017417E+02  0.46142312768E+02  0.99999544723E+01 0.  0.
        -12    1    1    2    0    0 -0.34538105341E+02  0.20943469700E+02  0.19940017417E+02  0.45045687232E+02  0.00000000000E+00 0.  1.
         11    1    3    3    0    0  0.59047003173E+01 -0.31426362134E+01 -0.48961311077E+01  0.82893756273E+01  0.51100000000E-03 0. -1.
        -11    1    3    3    0    0  0.37816161229E+01 -0.34240027297E+01 -0.57241284720E+01  0.76674677840E+01  0.51100000000E-03 0.  1.
         12    1    3    3    0    0  0.24851788901E+02 -0.14376830757E+02 -0.93197578369E+01  0.30185469357E+02  0.00000000000E+00 0. -1.
</event>
<event>
 7    1  0.2001181E-008  0.4614232E+02  0.7816164E-02  0.1320468E+00
        -11   -1    0    0    0    0  0.00000000000E+00  0.00000000000E+00  0.45593999997E+02  0.45594000000E+02  0.51100000000E-03 0. -1.
         11   -1    0    0    0    0 -0.00000000000E+00 -0.00000000000E+00 -0.45593999997E+02  0.45594000000E+02  0.51100000000E-03 0.  1.
    9900012    2    1    2    0    0  0.31848338429E+02  0.21289767069E+02  0.23696887015E+02  0.46142319888E+02  0.10000019397E+02 0.  0.
        -12    1    1    2    0    0 -0.31848338429E+02 -0.21289767069E+02 -0.23696887015E+02  0.45045680112E+02  0.00000000000E+00 0.  1.
         11    1    3    3    0    0  0.16316476391E+01  0.41278004345E+01  0.24287810501E+01  0.50596430799E+01  0.51100000000E-03 0. -1.
        -11    1    3    3    0    0  0.12192094466E+02  0.47630378160E+01  0.59666458229E+01  0.14385220170E+02  0.51100000000E-03 0.  1.
         12    1    3    3    0    0  0.18024596324E+02  0.12398928819E+02  0.15301460142E+02  0.26697456638E+02  0.00000000000E+00 0. -1.
</event>
<event>
 7    1  0.2001181E-008  0.4614232E+02  0.7816164E-02  0.1320468E+00
        -11   -1    0    0    0    0  0.00000000000E+00  0.00000000000E+00  0.45593999997E+02  0.45594000000E+02  0.51100000000E-03 0.  1.
         11   -1    0    0    0    0 -0.00000000000E+00 -0.00000000000E+00 -0.45593999997E+02  0.45594000000E+02  0.51100000000E-03 0. -1.
    9900012    2    1    2    0    0  0.40706180444E+02 -0.18144928080E+02  0.65484304908E+01  0.46142317818E+02  0.10000000521E+02 0.  0.
        -12    1    1    2    0    0 -0.40706180444E+02  0.18144928080E+02 -0.65484304908E+01  0.45045682182E+02  0.00000000000E+00 0.  1.
         11    1    3    3    0    0  0.18466757040E+01 -0.21600028648E+01 -0.16957106124E+00  0.28468540773E+01  0.51100000000E-03 0. -1.
        -11    1    3    3    0    0  0.16838838636E+01 -0.24763864944E+01 -0.64194961007E+00  0.30626874634E+01  0.51100000000E-03 0.  1.
         12    1    3    3    0    0  0.37175620876E+02 -0.13508538721E+02  0.73599511621E+01  0.40232776278E+02  0.00000000000E+00 0. -1.
</event>
<event>
 7    1  0.2001181E-008  0.4614232E+02  0.7816164E-02  0.1320468E+00
        -11   -1    0    0    0    0  0.00000000000E+00  0.00000000000E+00  0.45593999997E+02  0.45594000000E+02  0.51100000000E-03 0. -1.
         11   -1    0    0    0    0 -0.00000000000E+00 -0.00000000000E+00 -0.45593999997E+02  0.45594000000E+02  0.51100000000E-03 0.  1.
    9900012    2    1    2    0    0  0.81850856698E+00  0.14699247367E+02  0.42572005766E+02  0.46142317584E+02  0.99999983811E+01 0.  0.
        -12    1    1    2    0    0 -0.81850856698E+00 -0.14699247367E+02 -0.42572005766E+02  0.45045682416E+02  0.00000000000E+00 0.  1.
         11    1    3    3    0    0 -0.48033111006E+00  0.72354007348E+00  0.10560605029E+01  0.13672937724E+01  0.51100000000E-03 0. -1.
        -11    1    3    3    0    0  0.28784067318E+01  0.14553337223E+01  0.36973976169E+01  0.49065233063E+01  0.51100000000E-03 0.  1.
         12    1    3    3    0    0 -0.15795670548E+01  0.12520373572E+02  0.37818547646E+02  0.39868500505E+02  0.00000000000E+00 0. -1.
</event>
<event>
 7    1  0.2001181E-008  0.4614232E+02  0.7816164E-02  0.1320468E+00
        -11   -1    0    0    0    0  0.00000000000E+00  0.00000000000E+00  0.45593999997E+02  0.45594000000E+02  0.51100000000E-03 0.  1.
         11   -1    0    0    0    0 -0.00000000000E+00 -0.00000000000E+00 -0.45593999997E+02  0.45594000000E+02  0.51100000000E-03 0. -1.
    9900012    2    1    2    0    0 -0.80845379961E+01 -0.19489367277E+02 -0.39798470717E+02  0.46142318044E+02  0.10000002583E+02 0.  0.
        -12    1    1    2    0    0  0.80845379961E+01  0.19489367277E+02  0.39798470717E+02  0.45045681956E+02  0.00000000000E+00 0.  1.
         11    1    3    3    0    0 -0.61903133897E+01 -0.54082170487E+01 -0.98383739770E+01  0.12820389787E+02  0.51100000000E-03 0. -1.
        -11    1    3    3    0    0 -0.21604541508E+01 -0.46778937558E+01 -0.11569825155E+02  0.12665350627E+02  0.51100000000E-03 0.  1.
        -12    1    3    3    0    0  0.26622954443E+00 -0.94032564724E+01 -0.18390271585E+02  0.20656577631E+02  0.00000000000E+00 0.  1.
</event>
<event>
 7    1  0.2001181E-008  0.4614230E+02  0.7816164E-02  0.1320468E+00
        -11   -1    0    0    0    0  0.00000000000E+00  0.00000000000E+00  0.45593999997E+02  0.45594000000E+02  0.51100000000E-03 0. -1.
         11   -1    0    0    0    0 -0.00000000000E+00 -0.00000000000E+00 -0.45593999997E+02  0.45594000000E+02  0.51100000000E-03 0.  1.
    9900012    2    1    2    0    0  0.46285226193E+01 -0.73872114175E+01  0.44194125460E+02  0.46142302765E+02  0.99998632541E+01 0.  0.
        -12    1    1    2    0    0 -0.46285226193E+01  0.73872114175E+01 -0.44194125460E+02  0.45045697235E+02  0.00000000000E+00 0.  1.
         11    1    3    3    0    0  0.51578575392E+01 -0.49717615554E+01  0.28439974015E+02  0.29328382662E+02  0.51100000000E-03 0. -1.
        -11    1    3    3    0    0  0.16693472766E+01 -0.30462157290E+01  0.11050293925E+02  0.11583399617E+02  0.51100000000E-03 0.  1.
        -12    1    3    3    0    0 -0.21986821965E+01  0.63076586682E+00  0.47038575204E+01  0.52305204857E+01  0.00000000000E+00 0.  1.
</event>
<event>
 7    1  0.2001181E-008  0.4614232E+02  0.7816164E-02  0.1320468E+00
        -11   -1    0    0    0    0  0.00000000000E+00  0.00000000000E+00  0.45593999997E+02  0.45594000000E+02  0.51100000000E-03 0. -1.
         11   -1    0    0    0    0 -0.00000000000E+00 -0.00000000000E+00 -0.45593999997E+02  0.45594000000E+02  0.51100000000E-03 0.  1.
    9900012    2    1    2    0    0 -0.43578396011E+02  0.93670644846E+01  0.65034582121E+01  0.46142318024E+02  0.10000002398E+02 0.  0.
        -12    1    1    2    0    0  0.43578396011E+02 -0.93670644846E+01 -0.65034582121E+01  0.45045681976E+02  0.00000000000E+00 0.  1.
         11    1    3    3    0    0 -0.22102951270E+02  0.22807551941E+01  0.67819778325E+01  0.23232251778E+02  0.51100000000E-03 0. -1.
        -11    1    3    3    0    0 -0.45809783838E+01  0.15050807992E+01  0.14463849475E+01  0.50341494657E+01  0.51100000000E-03 0.  1.
        -12    1    3    3    0    0 -0.16894466357E+02  0.55812284912E+01 -0.17249045678E+01  0.17875916781E+02  0.00000000000E+00 0.  1.
</event>
<event>
 7    1  0.2001181E-008  0.4614232E+02  0.7816164E-02  0.1320468E+00
        -11   -1    0    0    0    0  0.00000000000E+00  0.00000000000E+00  0.45593999997E+02  0.45594000000E+02  0.51100000000E-03 0.  1.
         11   -1    0    0    0    0 -0.00000000000E+00 -0.00000000000E+00 -0.45593999997E+02  0.45594000000E+02  0.51100000000E-03 0. -1.
    9900012    2    1    2    0    0 -0.57839065068E+01  0.44590406857E+02  0.27120988848E+01  0.46142318315E+02  0.10000005048E+02 0.  0.
        -12    1    1    2    0    0  0.57839065068E+01 -0.44590406857E+02 -0.27120988848E+01  0.45045681685E+02  0.00000000000E+00 0.  1.
         11    1    3    3    0    0 -0.10032212984E+01  0.95649330192E+01  0.65085119345E+00  0.96393985379E+01  0.51100000000E-03 0. -1.
        -11    1    3    3    0    0 -0.48477075605E+01  0.11538415896E+02 -0.19786842896E+01  0.12670852448E+02  0.51100000000E-03 0.  1.
        -12    1    3    3    0    0  0.67022352112E-01  0.23487057942E+02  0.40399319810E+01  0.23832067329E+02  0.00000000000E+00 0.  1.
</event>
<event>
 7    1  0.2001181E-008  0.4614232E+02  0.7816164E-02  0.1320468E+00
        -11   -1    0    0    0    0  0.00000000000E+00  0.00000000000E+00  0.45593999997E+02  0.45594000000E+02  0.51100000000E-03 0. -1.
         11   -1    0    0    0    0 -0.00000000000E+00 -0.00000000000E+00 -0.45593999997E+02  0.45594000000E+02  0.51100000000E-03 0.  1.
    9900012    2    1    2    0    0  0.37690954658E+02 -0.23047815170E+02 -0.87922498624E+01  0.46142317579E+02  0.99999983352E+01 0.  0.
        -12    1    1    2    0    0 -0.37690954658E+02  0.23047815170E+02  0.87922498624E+01  0.45045682421E+02  0.00000000000E+00 0.  1.
         11    1    3    3    0    0  0.17793958359E+02 -0.11213011348E+02 -0.58290479289E+01  0.21825085970E+02  0.51100000000E-03 0. -1.
        -11    1    3    3    0    0  0.96829483520E+01 -0.35885288000E+01 -0.41653087178E+01  0.11134937122E+02  0.51100000000E-03 0.  1.
        -12    1    3    3    0    0  0.10214047947E+02 -0.82462750228E+01  0.12021067843E+01  0.13182294487E+02  0.00000000000E+00 0.  1.
</event>
<event>
 7    1  0.2001181E-008  0.4614232E+02  0.7816164E-02  0.1320468E+00
        -11   -1    0    0    0    0  0.00000000000E+00  0.00000000000E+00  0.45593999997E+02  0.45594000000E+02  0.51100000000E-03 0. -1.
         11   -1    0    0    0    0 -0.00000000000E+00 -0.00000000000E+00 -0.45593999997E+02  0.45594000000E+02  0.51100000000E-03 0.  1.
    9900012    2    1    2    0    0  0.35255453594E+01 -0.19195212262E+02  0.40598372256E+02  0.46142317924E+02  0.10000001485E+02 0.  0.
        -12    1    1    2    0    0 -0.35255453594E+01  0.19195212262E+02 -0.40598372256E+02  0.45045682076E+02  0.00000000000E+00 0.  1.
         11    1    3    3    0    0 -0.14079113913E+01 -0.42211649504E+01  0.14830507971E+02  0.15483682216E+02  0.51100000000E-03 0. -1.
        -11    1    3    3    0    0  0.30848069562E+00 -0.38870358423E+01  0.10698628899E+02  0.11387048281E+02  0.51100000000E-03 0.  1.
        -12    1    3    3    0    0  0.46249760551E+01 -0.11087011469E+02  0.15069235386E+02  0.19271587427E+02  0.00000000000E+00 0.  1.
</event>
<event>
 7    1  0.2001181E-008  0.4614232E+02  0.7816164E-02  0.1320468E+00
        -11   -1    0    0    0    0  0.00000000000E+00  0.00000000000E+00  0.45593999997E+02  0.45594000000E+02  0.51100000000E-03 0.  1.
         11   -1    0    0    0    0 -0.00000000000E+00 -0.00000000000E+00 -0.45593999997E+02  0.45594000000E+02  0.51100000000E-03 0. -1.
    9900012    2    1    2    0    0  0.32471878982E+02  0.11216739363E+02 -0.29135464274E+02  0.46142318243E+02  0.10000004392E+02 0.  0.
        -12    1    1    2    0    0 -0.32471878982E+02 -0.11216739363E+02  0.29135464274E+02  0.45045681757E+02  0.00000000000E+00 0.  1.
         11    1    3    3    0    0  0.33027601636E+01 -0.13640006373E-01 -0.11119113229E+00  0.33046595100E+01  0.51100000000E-03 0. -1.
        -11    1    3    3    0    0  0.37681621394E+01  0.89653121755E-01 -0.35531128662E+01  0.51799319390E+01  0.51100000000E-03 0.  1.
         12    1    3    3    0    0  0.25400956679E+02  0.11140726247E+02 -0.25471160275E+02  0.37657726794E+02  0.00000000000E+00 0. -1.
</event>
<event>
 7    1  0.2001181E-008  0.4614232E+02  0.7816164E-02  0.1320468E+00
        -11   -1    0    0    0    0  0.00000000000E+00  0.00000000000E+00  0.45593999997E+02  0.45594000000E+02  0.51100000000E-03 0.  1.
         11   -1    0    0    0    0 -0.00000000000E+00 -0.00000000000E+00 -0.45593999997E+02  0.45594000000E+02  0.51100000000E-03 0. -1.
    9900012    2    1    2    0    0 -0.30800449484E+02 -0.81135391008E+01 -0.31853042907E+02  0.46142317104E+02  0.99999940050E+01 0.  0.
        -12    1    1    2    0    0  0.30800449484E+02  0.81135391008E+01  0.31853042907E+02  0.45045682896E+02  0.00000000000E+00 0.  1.
         11    1    3    3    0    0 -0.15946699929E+02 -0.51951047684E+01 -0.15696294625E+02  0.22970851473E+02  0.51100000000E-03 0. -1.
        -11    1    3    3    0    0 -0.12775181831E+02 -0.18096408187E+01 -0.16326566535E+02  0.20809537376E+02  0.51100000000E-03 0.  1.
         12    1    3    3    0    0 -0.20785677239E+01 -0.11087935137E+01  0.16981825380E+00  0.23619282543E+01  0.00000000000E+00 0. -1.
</event>
<event>
 7    1  0.2001181E-008  0.4614232E+02  0.7816164E-02  0.1320468E+00
        -11   -1    0    0    0    0  0.00000000000E+00  0.00000000000E+00  0.45593999997E+02  0.45594000000E+02  0.51100000000E-03 0.  1.
         11   -1    0    0    0    0 -0.00000000000E+00 -0.00000000000E+00 -0.45593999997E+02  0.45594000000E+02  0.51100000000E-03 0. -1.
    9900012    2    1    2    0    0 -0.20042219111E+02 -0.12415941831E+02 -0.38383164667E+02  0.46142317762E+02  0.10000000005E+02 0.  0.
        -12    1    1    2    0    0  0.20042219111E+02  0.12415941831E+02  0.38383164667E+02  0.45045682238E+02  0.00000000000E+00 0.  1.
         11    1    3    3    0    0 -0.79864588680E+01 -0.57181912667E+01 -0.19277494660E+02  0.21635688970E+02  0.51100000000E-03 0. -1.
        -11    1    3    3    0    0 -0.97118650011E+01 -0.50751672100E+01 -0.18633918066E+02  0.21617135489E+02  0.51100000000E-03 0.  1.
        -12    1    3    3    0    0 -0.23438952420E+01 -0.16225833547E+01 -0.47175194162E+00  0.28894933021E+01  0.00000000000E+00 0.  1.
</event>
<event>
 7    1  0.2001181E-008  0.4614232E+02  0.7816164E-02  0.1320468E+00
        -11   -1    0    0    0    0  0.00000000000E+00  0.00000000000E+00  0.45593999997E+02  0.45594000000E+02  0.51100000000E-03 0. -1.
         11   -1    0    0    0    0 -0.00000000000E+00 -0.00000000000E+00 -0.45593999997E+02  0.45594000000E+02  0.51100000000E-03 0.  1.
    9900012    2    1    2    0    0  0.82754463104E+01  0.36031904640E+02  0.25735819994E+02  0.46142316584E+02  0.99999892654E+01 0.  0.
        -12    1    1    2    0    0 -0.82754463104E+01 -0.36031904640E+02 -0.25735819994E+02  0.45045683416E+02  0.00000000000E+00 0.  1.
         11    1    3    3    0    0  0.38880284177E+01  0.12053297763E+02  0.97360785338E+01  0.15974666739E+02  0.51100000000E-03 0. -1.
        -11    1    3    3    0    0  0.21785146233E+01  0.19088294518E+02  0.86555453456E+01  0.21071957172E+02  0.51100000000E-03 0.  1.
         12    1    3    3    0    0  0.22089032694E+01  0.48903123587E+01  0.73441961148E+01  0.90956926725E+01  0.00000000000E+00 0. -1.
</event>
<event>
 7    1  0.2001181E-008  0.4614232E+02  0.7816164E-02  0.1320468E+00
        -11   -1    0    0    0    0  0.00000000000E+00  0.00000000000E+00  0.45593999997E+02  0.45594000000E+02  0.51100000000E-03 0.  1.
         11   -1    0    0    0    0 -0.00000000000E+00 -0.00000000000E+00 -0.45593999997E+02  0.45594000000E+02  0.51100000000E-03 0. -1.
    9900012    2    1    2    0    0 -0.34208461041E+02 -0.67001350784E+01 -0.28530736808E+02  0.46142316969E+02  0.99999927812E+01 0.  0.
        -12    1    1    2    0    0  0.34208461041E+02  0.67001350784E+01  0.28530736808E+02  0.45045683031E+02  0.00000000000E+00 0.  1.
         11    1    3    3    0    0 -0.23943566634E+02 -0.86809064686E+01 -0.22039392768E+02  0.33680667365E+02  0.51100000000E-03 0. -1.
        -11    1    3    3    0    0 -0.49441397710E-01  0.20304451493E+00 -0.35792615162E+00  0.41446702883E+00  0.51100000000E-03 0.  1.
         12    1    3    3    0    0 -0.10215453009E+02  0.17777268752E+01 -0.61334178889E+01  0.12047182576E+02  0.00000000000E+00 0. -1.
</event>
<event>
 7    1  0.2001181E-008  0.4614232E+02  0.7816164E-02  0.1320468E+00
        -11   -1    0    0    0    0  0.00000000000E+00  0.00000000000E+00  0.45593999997E+02  0.45594000000E+02  0.51100000000E-03 0.  1.
         11   -1    0    0    0    0 -0.00000000000E+00 -0.00000000000E+00 -0.45593999997E+02  0.45594000000E+02  0.51100000000E-03 0. -1.
    9900012    2    1    2    0    0 -0.26877638420E+02  0.32083548292E+01 -0.36005723577E+02  0.46142321871E+02  0.10000037481E+02 0.  0.
        -12    1    1    2    0    0  0.26877638420E+02 -0.32083548292E+01  0.36005723577E+02  0.45045678129E+02  0.00000000000E+00 0.  1.
         11    1    3    3    0    0 -0.98244456174E+01  0.40242089484E+00 -0.17640636396E+02  0.20195883911E+02  0.51100000000E-03 0. -1.
        -11    1    3    3    0    0 -0.89026136595E+01  0.83778905609E+00 -0.52178241733E+01  0.10352975893E+02  0.51100000000E-03 0.  1.
         12    1    3    3    0    0 -0.81505791433E+01  0.19681448783E+01 -0.13147263008E+02  0.15593462067E+02  0.00000000000E+00 0. -1.
</event>
<event>
 7    1  0.2001181E-008  0.4614232E+02  0.7816164E-02  0.1320468E+00
        -11   -1    0    0    0    0  0.00000000000E+00  0.00000000000E+00  0.45593999997E+02  0.45594000000E+02  0.51100000000E-03 0.  1.
         11   -1    0    0    0    0 -0.00000000000E+00 -0.00000000000E+00 -0.45593999997E+02  0.45594000000E+02  0.51100000000E-03 0. -1.
    9900012    2    1    2    0    0 -0.21937527721E+02  0.61045094245E+01 -0.38866350898E+02  0.46142318853E+02  0.10000009959E+02 0.  0.
        -12    1    1    2    0    0  0.21937527721E+02 -0.61045094245E+01  0.38866350898E+02  0.45045681147E+02  0.00000000000E+00 0.  1.
         11    1    3    3    0    0 -0.45562258986E+01 -0.70264184210E-01 -0.34386967251E+01  0.57086571909E+01  0.51100000000E-03 0. -1.
        -11    1    3    3    0    0 -0.14149568478E+02  0.57744556400E+01 -0.23210514011E+02  0.27789972778E+02  0.51100000000E-03 0.  1.
        -12    1    3    3    0    0 -0.32317333451E+01  0.40031796870E+00 -0.12217140162E+02  0.12643688885E+02  0.00000000000E+00 0.  1.
</event>
<event>
 7    1  0.2001181E-008  0.4614232E+02  0.7816164E-02  0.1320468E+00
        -11   -1    0    0    0    0  0.00000000000E+00  0.00000000000E+00  0.45593999997E+02  0.45594000000E+02  0.51100000000E-03 0.  1.
         11   -1    0    0    0    0 -0.00000000000E+00 -0.00000000000E+00 -0.45593999997E+02  0.45594000000E+02  0.51100000000E-03 0. -1.
    9900012    2    1    2    0    0 -0.14283667948E+02 -0.76685775445E+01 -0.42027173309E+02  0.46142317100E+02  0.99999939676E+01 0.  0.
        -12    1    1    2    0    0  0.14283667948E+02  0.76685775445E+01  0.42027173309E+02  0.45045682900E+02  0.00000000000E+00 0.  1.
         11    1    3    3    0    0 -0.97474946936E+00  0.56646377438E+00 -0.24861628827E+00  0.11544817260E+01  0.51100000000E-03 0. -1.
        -11    1    3    3    0    0 -0.63703015823E+01 -0.21723610158E+01 -0.11357764811E+02  0.13202223919E+02  0.51100000000E-03 0.  1.
         12    1    3    3    0    0 -0.69386168958E+01 -0.60626803031E+01 -0.30420792210E+02  0.31785611455E+02  0.00000000000E+00 0. -1.
</event>
<event>
 7    1  0.2001181E-008  0.4614232E+02  0.7816164E-02  0.1320468E+00
        -11   -1    0    0    0    0  0.00000000000E+00  0.00000000000E+00  0.45593999997E+02  0.45594000000E+02  0.51100000000E-03 0.  1.
         11   -1    0    0    0    0 -0.00000000000E+00 -0.00000000000E+00 -0.45593999997E+02  0.45594000000E+02  0.51100000000E-03 0. -1.
    9900012    2    1    2    0    0 -0.28554776497E+02  0.28662118045E+02 -0.19804574718E+02  0.46142318172E+02  0.10000003748E+02 0.  0.
        -12    1    1    2    0    0  0.28554776497E+02 -0.28662118045E+02  0.19804574718E+02  0.45045681828E+02  0.00000000000E+00 0.  1.
         11    1    3    3    0    0 -0.84042647215E+01  0.89369551505E+01 -0.24027311230E+01  0.12500957963E+02  0.51100000000E-03 0.  1.
        -11    1    3    3    0    0 -0.13795686926E+02  0.15855222035E+02 -0.10504840170E+02  0.23495972225E+02  0.51100000000E-03 0. -1.
         12    1    3    3    0    0 -0.63548248489E+01  0.38699408592E+01 -0.68970034247E+01  0.10145387984E+02  0.00000000000E+00 0. -1.
</event>
<event>
 7    1  0.2001181E-008  0.4614232E+02  0.7816164E-02  0.1320468E+00
        -11   -1    0    0    0    0  0.00000000000E+00  0.00000000000E+00  0.45593999997E+02  0.45594000000E+02  0.51100000000E-03 0.  1.
         11   -1    0    0    0    0 -0.00000000000E+00 -0.00000000000E+00 -0.45593999997E+02  0.45594000000E+02  0.51100000000E-03 0. -1.
    9900012    2    1    2    0    0 -0.36397166310E+02  0.25335434362E+02 -0.79041526512E+01  0.46142316757E+02  0.99999908429E+01 0.  0.
        -12    1    1    2    0    0  0.36397166310E+02 -0.25335434362E+02  0.79041526512E+01  0.45045683243E+02  0.00000000000E+00 0.  1.
         11    1    3    3    0    0 -0.15819732938E+02  0.13921474898E+02 -0.32463332323E+01  0.21321587494E+02  0.51100000000E-03 0. -1.
        -11    1    3    3    0    0 -0.76976606955E+01  0.68352949139E+01  0.24865638680E+00  0.10297430116E+02  0.51100000000E-03 0.  1.
        -12    1    3    3    0    0 -0.12879772676E+02  0.45786645504E+01 -0.49064758057E+01  0.14523299146E+02  0.00000000000E+00 0.  1.
</event>
<event>
 7    1  0.2001181E-008  0.4614232E+02  0.7816164E-02  0.1320468E+00
        -11   -1    0    0    0    0  0.00000000000E+00  0.00000000000E+00  0.45593999997E+02  0.45594000000E+02  0.51100000000E-03 0.  1.
         11   -1    0    0    0    0 -0.00000000000E+00 -0.00000000000E+00 -0.45593999997E+02  0.45594000000E+02  0.51100000000E-03 0. -1.
    9900012    2    1    2    0    0 -0.48646389577E+01  0.64700916792E+01 -0.44312376130E+02  0.46142317889E+02  0.10000001170E+02 0.  0.
        -12    1    1    2    0    0  0.48646389577E+01 -0.64700916792E+01  0.44312376130E+02  0.45045682111E+02  0.00000000000E+00 0.  1.
         11    1    3    3    0    0 -0.64365368120E+01  0.16260981596E+01 -0.24329852954E+02  0.25219336755E+02  0.51100000000E-03 0. -1.
        -11    1    3    3    0    0  0.23007997518E+01  0.18110768637E+01 -0.12014398093E+02  0.12366060031E+02  0.51100000000E-03 0.  1.
         12    1    3    3    0    0 -0.72890189752E+00  0.30329166559E+01 -0.79681250834E+01  0.85569211030E+01  0.00000000000E+00 0. -1.
</event>
<event>
 7    1  0.2001181E-008  0.4614232E+02  0.7816164E-02  0.1320468E+00
        -11   -1    0    0    0    0  0.00000000000E+00  0.00000000000E+00  0.45593999997E+02  0.45594000000E+02  0.51100000000E-03 0.  1.
         11   -1    0    0    0    0 -0.00000000000E+00 -0.00000000000E+00 -0.45593999997E+02  0.45594000000E+02  0.51100000000E-03 0. -1.
    9900012    2    1    2    0    0 -0.22377096585E+02 -0.37121323834E+02 -0.12263212753E+02  0.46142317390E+02  0.99999966143E+01 0.  0.
        -12    1    1    2    0    0  0.22377096585E+02  0.37121323834E+02  0.12263212753E+02  0.45045682610E+02  0.00000000000E+00 0.  1.
         11    1    3    3    0    0 -0.33836338538E+01 -0.36246657483E+01 -0.28759117786E+01  0.57321940531E+01  0.51100000000E-03 0. -1.
        -11    1    3    3    0    0 -0.44017911799E+01 -0.25504109984E+01 -0.10335079796E+01  0.51911945501E+01  0.51100000000E-03 0.  1.
         12    1    3    3    0    0 -0.14591671551E+02 -0.30946247088E+02 -0.83537929948E+01  0.35218928787E+02  0.00000000000E+00 0. -1.
</event>
<event>
 7    1  0.2001181E-008  0.4614232E+02  0.7816164E-02  0.1320468E+00
        -11   -1    0    0    0    0  0.00000000000E+00  0.00000000000E+00  0.45593999997E+02  0.45594000000E+02  0.51100000000E-03 0.  1.
         11   -1    0    0    0    0 -0.00000000000E+00 -0.00000000000E+00 -0.45593999997E+02  0.45594000000E+02  0.51100000000E-03 0. -1.
    9900012    2    1    2    0    0  0.42872790879E+02  0.13810348965E+02  0.55809663824E+00  0.46142318652E+02  0.10000008122E+02 0.  0.
        -12    1    1    2    0    0 -0.42872790879E+02 -0.13810348965E+02 -0.55809663824E+00  0.45045681348E+02  0.00000000000E+00 0.  1.
         11    1    3    3    0    0  0.18912235488E+02  0.11052240114E+02  0.18494063844E+01  0.21982833460E+02  0.51100000000E-03 0.  1.
        -11    1    3    3    0    0  0.50274458764E+01  0.35791394320E+00 -0.23653449029E+00  0.50457173184E+01  0.51100000000E-03 0. -1.
        -12    1    3    3    0    0  0.18933109514E+02  0.24001949071E+01 -0.10547752558E+01  0.19113767873E+02  0.00000000000E+00 0.  1.
</event>
<event>
 7    1  0.2001181E-008  0.4614232E+02  0.7816164E-02  0.1320468E+00
        -11   -1    0    0    0    0  0.00000000000E+00  0.00000000000E+00  0.45593999997E+02  0.45594000000E+02  0.51100000000E-03 0.  1.
         11   -1    0    0    0    0 -0.00000000000E+00 -0.00000000000E+00 -0.45593999997E+02  0.45594000000E+02  0.51100000000E-03 0. -1.
    9900012    2    1    2    0    0 -0.18814802432E+02 -0.26641605480E+02 -0.31069949318E+02  0.46142315593E+02  0.99999802251E+01 0.  0.
        -12    1    1    2    0    0  0.18814802432E+02  0.26641605480E+02  0.31069949318E+02  0.45045684407E+02  0.00000000000E+00 0.  1.
         11    1    3    3    0    0 -0.85809743866E+00 -0.42920956024E+01 -0.47421934861E+01  0.64534343722E+01  0.51100000000E-03 0. -1.
        -11    1    3    3    0    0 -0.55878742823E+01 -0.69829227465E+01 -0.37233529378E+01  0.96875645257E+01  0.51100000000E-03 0.  1.
         12    1    3    3    0    0 -0.12368830711E+02 -0.15366587131E+02 -0.22604402894E+02  0.30001316695E+02  0.00000000000E+00 0. -1.
</event>
<event>
 7    1  0.2001181E-008  0.4614232E+02  0.7816164E-02  0.1320468E+00
        -11   -1    0    0    0    0  0.00000000000E+00  0.00000000000E+00  0.45593999997E+02  0.45594000000E+02  0.51100000000E-03 0.  1.
         11   -1    0    0    0    0 -0.00000000000E+00 -0.00000000000E+00 -0.45593999997E+02  0.45594000000E+02  0.51100000000E-03 0. -1.
    9900012    2    1    2    0    0 -0.14989866090E+02  0.26753765244E+02 -0.32994746843E+02  0.46142319193E+02  0.10000013057E+02 0.  0.
        -12    1    1    2    0    0  0.14989866090E+02 -0.26753765244E+02  0.32994746843E+02  0.45045680807E+02  0.00000000000E+00 0.  1.
         11    1    3    3    0    0 -0.27290871543E+01  0.22564316748E+01 -0.54342906012E+01  0.64862096172E+01  0.51100000000E-03 0. -1.
        -11    1    3    3    0    0 -0.13060482511E+02  0.20817339691E+02 -0.22286805135E+02  0.33175887609E+02  0.51100000000E-03 0.  1.
        -12    1    3    3    0    0  0.79970357482E+00  0.36799938783E+01 -0.52736511060E+01  0.64802219668E+01  0.00000000000E+00 0.  1.
</event>
<event>
 7    1  0.2001181E-008  0.4614232E+02  0.7816164E-02  0.1320468E+00
        -11   -1    0    0    0    0  0.00000000000E+00  0.00000000000E+00  0.45593999997E+02  0.45594000000E+02  0.51100000000E-03 0. -1.
         11   -1    0    0    0    0 -0.00000000000E+00 -0.00000000000E+00 -0.45593999997E+02  0.45594000000E+02  0.51100000000E-03 0.  1.
    9900012    2    1    2    0    0 -0.36429285445E+02  0.23824403477E+02  0.11593890561E+02  0.46142319437E+02  0.10000015285E+02 0.  0.
        -12    1    1    2    0    0  0.36429285445E+02 -0.23824403477E+02 -0.11593890561E+02  0.45045680563E+02  0.00000000000E+00 0.  1.
         11    1    3    3    0    0 -0.68638968086E+01  0.33684665558E+01  0.30139949688E+01  0.82185042598E+01  0.51100000000E-03 0. -1.
        -11    1    3    3    0    0 -0.39667913398E+01 -0.28330085473E+00  0.12961403759E+01  0.41827829304E+01  0.51100000000E-03 0.  1.
         12    1    3    3    0    0 -0.25598597296E+02  0.20739237776E+02  0.72837552159E+01  0.33741032247E+02  0.00000000000E+00 0. -1.
</event>
<event>
 7    1  0.2001181E-008  0.4614232E+02  0.7816164E-02  0.1320468E+00
        -11   -1    0    0    0    0  0.00000000000E+00  0.00000000000E+00  0.45593999997E+02  0.45594000000E+02  0.51100000000E-03 0.  1.
         11   -1    0    0    0    0 -0.00000000000E+00 -0.00000000000E+00 -0.45593999997E+02  0.45594000000E+02  0.51100000000E-03 0. -1.
    9900012    2    1    2    0    0 -0.35215080201E+02  0.43945773135E+00 -0.28085913767E+02  0.46142317090E+02  0.99999938814E+01 0.  0.
        -12    1    1    2    0    0  0.35215080201E+02 -0.43945773135E+00  0.28085913767E+02  0.45045682910E+02  0.00000000000E+00 0.  1.
         11    1    3    3    0    0 -0.24292391667E+01  0.94054669211E+00 -0.18292395770E+01  0.31830722110E+01  0.51100000000E-03 0. -1.
        -11    1    3    3    0    0 -0.18456213002E+01  0.22626039261E+01 -0.18759123979E+01  0.34705535719E+01  0.51100000000E-03 0.  1.
         12    1    3    3    0    0 -0.30940219734E+02 -0.27636928868E+01 -0.24380761792E+02  0.39488691307E+02  0.00000000000E+00 0. -1.
</event>
<event>
 7    1  0.2001181E-008  0.4614232E+02  0.7816164E-02  0.1320468E+00
        -11   -1    0    0    0    0  0.00000000000E+00  0.00000000000E+00  0.45593999997E+02  0.45594000000E+02  0.51100000000E-03 0. -1.
         11   -1    0    0    0    0 -0.00000000000E+00 -0.00000000000E+00 -0.45593999997E+02  0.45594000000E+02  0.51100000000E-03 0.  1.
    9900012    2    1    2    0    0 -0.21844725085E+02 -0.38141380317E+02 -0.98568056001E+01  0.46142317375E+02  0.99999964792E+01 0.  0.
        -12    1    1    2    0    0  0.21844725085E+02  0.38141380317E+02  0.98568056001E+01  0.45045682625E+02  0.00000000000E+00 0.  1.
         11    1    3    3    0    0 -0.11292044881E+02 -0.14500449753E+02 -0.67832856521E+01  0.19590464138E+02  0.51100000000E-03 0. -1.
        -11    1    3    3    0    0 -0.63510548427E+01 -0.14239905665E+02 -0.43201249192E+01  0.16179440365E+02  0.51100000000E-03 0.  1.
        -12    1    3    3    0    0 -0.42016253614E+01 -0.94010248991E+01  0.12466049713E+01  0.10372412872E+02  0.00000000000E+00 0.  1.
</event>
<event>
 7    1  0.2001181E-008  0.4614232E+02  0.7816164E-02  0.1320468E+00
        -11   -1    0    0    0    0  0.00000000000E+00  0.00000000000E+00  0.45593999997E+02  0.45594000000E+02  0.51100000000E-03 0.  1.
         11   -1    0    0    0    0 -0.00000000000E+00 -0.00000000000E+00 -0.45593999997E+02  0.45594000000E+02  0.51100000000E-03 0. -1.
    9900012    2    1    2    0    0  0.41233835388E+02  0.13168543345E+02 -0.12468919500E+02  0.46142315766E+02  0.99999818056E+01 0.  0.
        -12    1    1    2    0    0 -0.41233835388E+02 -0.13168543345E+02  0.12468919500E+02  0.45045684234E+02  0.00000000000E+00 0.  1.
         11    1    3    3    0    0  0.11502639019E+02  0.72417877209E+01 -0.45307764793E+01  0.14327670067E+02  0.51100000000E-03 0. -1.
        -11    1    3    3    0    0  0.14976936523E+02  0.56583033943E+01 -0.49554849301E+01  0.16759530306E+02  0.51100000000E-03 0.  1.
        -12    1    3    3    0    0  0.14754259846E+02  0.26845222983E+00 -0.29826580909E+01  0.15055115393E+02  0.00000000000E+00 0.  1.
</event>
<event>
 7    1  0.2001181E-008  0.4614232E+02  0.7816164E-02  0.1320468E+00
        -11   -1    0    0    0    0  0.00000000000E+00  0.00000000000E+00  0.45593999997E+02  0.45594000000E+02  0.51100000000E-03 0. -1.
         11   -1    0    0    0    0 -0.00000000000E+00 -0.00000000000E+00 -0.45593999997E+02  0.45594000000E+02  0.51100000000E-03 0.  1.
    9900012    2    1    2    0    0 -0.18306154160E+02 -0.94082881581E+01  0.40068468734E+02  0.46142319265E+02  0.10000013712E+02 0.  0.
        -12    1    1    2    0    0  0.18306154160E+02  0.94082881581E+01 -0.40068468734E+02  0.45045680735E+02  0.00000000000E+00 0.  1.
         11    1    3    3    0    0 -0.10920819854E+02 -0.65309116290E+01  0.15927458346E+02  0.20386295461E+02  0.51100000000E-03 0.  1.
        -11    1    3    3    0    0 -0.53471806265E+01 -0.39527036607E+01  0.17093284193E+02  0.18341116968E+02  0.51100000000E-03 0. -1.
        -12    1    3    3    0    0 -0.20381536792E+01  0.10753271315E+01  0.70477261949E+01  0.74149068355E+01  0.00000000000E+00 0.  1.
</event>
<event>
 7    1  0.2001181E-008  0.4614231E+02  0.7816164E-02  0.1320468E+00
        -11   -1    0    0    0    0  0.00000000000E+00  0.00000000000E+00  0.45593999997E+02  0.45594000000E+02  0.51100000000E-03 0.  1.
         11   -1    0    0    0    0 -0.00000000000E+00 -0.00000000000E+00 -0.45593999997E+02  0.45594000000E+02  0.51100000000E-03 0. -1.
    9900012    2    1    2    0    0 -0.36262487760E+01  0.29522085328E+02 -0.33829139846E+02  0.46142313137E+02  0.99999578307E+01 0.  0.
        -12    1    1    2    0    0  0.36262487760E+01 -0.29522085328E+02  0.33829139846E+02  0.45045686863E+02  0.00000000000E+00 0.  1.
         11    1    3    3    0    0  0.54858644236E+00  0.90973866749E+01 -0.14254854413E+02  0.16919345909E+02  0.51100000000E-03 0. -1.
        -11    1    3    3    0    0 -0.33764132042E+01  0.46035153974E+01 -0.67562019665E+01  0.88452690978E+01  0.51100000000E-03 0.  1.
        -12    1    3    3    0    0 -0.79842201411E+00  0.15821183255E+02 -0.12818083466E+02  0.20377698129E+02  0.00000000000E+00 0.  1.
</event>
<event>
 7    1  0.2001181E-008  0.4614232E+02  0.7816164E-02  0.1320468E+00
        -11   -1    0    0    0    0  0.00000000000E+00  0.00000000000E+00  0.45593999997E+02  0.45594000000E+02  0.51100000000E-03 0.  1.
         11   -1    0    0    0    0 -0.00000000000E+00 -0.00000000000E+00 -0.45593999997E+02  0.45594000000E+02  0.51100000000E-03 0. -1.
    9900012    2    1    2    0    0 -0.11023147752E+02  0.21645286323E+02 -0.37935277965E+02  0.46142317403E+02  0.99999967307E+01 0.  0.
        -12    1    1    2    0    0  0.11023147752E+02 -0.21645286323E+02  0.37935277965E+02  0.45045682597E+02  0.00000000000E+00 0.  1.
         11    1    3    3    0    0 -0.12703016285E+01  0.10427077598E+02 -0.18306355683E+02  0.21105929786E+02  0.51100000000E-03 0. -1.
        -11    1    3    3    0    0 -0.35023598895E+01  0.11429768808E+01 -0.47269869819E+01  0.59931066346E+01  0.51100000000E-03 0.  1.
        -12    1    3    3    0    0 -0.62504862345E+01  0.10075231844E+02 -0.14901935300E+02  0.19043280982E+02  0.00000000000E+00 0.  1.
</event>
<event>
 7    1  0.2001181E-008  0.4614232E+02  0.7816164E-02  0.1320468E+00
        -11   -1    0    0    0    0  0.00000000000E+00  0.00000000000E+00  0.45593999997E+02  0.45594000000E+02  0.51100000000E-03 0. -1.
         11   -1    0    0    0    0 -0.00000000000E+00 -0.00000000000E+00 -0.45593999997E+02  0.45594000000E+02  0.51100000000E-03 0.  1.
    9900012    2    1    2    0    0  0.38183725218E+02 -0.89335038290E+01  0.22165495169E+02  0.46142317207E+02  0.99999949484E+01 0.  0.
        -12    1    1    2    0    0 -0.38183725218E+02  0.89335038290E+01 -0.22165495169E+02  0.45045682793E+02  0.00000000000E+00 0.  1.
         11    1    3    3    0    0  0.10704520994E+02 -0.10802966706E+01  0.61015341102E+01  0.12368610648E+02  0.51100000000E-03 0. -1.
        -11    1    3    3    0    0  0.98996436587E+01  0.49583171576E+00  0.78750777903E+01  0.12659606792E+02  0.51100000000E-03 0.  1.
        -12    1    3    3    0    0  0.17579560565E+02 -0.83490388742E+01  0.81888832689E+01  0.21114099767E+02  0.00000000000E+00 0.  1.
</event>
<event>
 7    1  0.2001181E-008  0.4614232E+02  0.7816164E-02  0.1320468E+00
        -11   -1    0    0    0    0  0.00000000000E+00  0.00000000000E+00  0.45593999997E+02  0.45594000000E+02  0.51100000000E-03 0.  1.
         11   -1    0    0    0    0 -0.00000000000E+00 -0.00000000000E+00 -0.45593999997E+02  0.45594000000E+02  0.51100000000E-03 0. -1.
    9900012    2    1    2    0    0  0.16573599016E+02  0.25001797939E+02 -0.33605645149E+02  0.46142317961E+02  0.10000001821E+02 0.  0.
        -12    1    1    2    0    0 -0.16573599016E+02 -0.25001797939E+02  0.33605645149E+02  0.45045682039E+02  0.00000000000E+00 0.  1.
         11    1    3    3    0    0  0.13690261653E+02  0.15770373889E+02 -0.25457833838E+02  0.32927636731E+02  0.51100000000E-03 0. -1.
        -11    1    3    3    0    0  0.10780931370E+01  0.88140828658E-01 -0.76197811826E+00  0.13231268010E+01  0.51100000000E-03 0.  1.
        -12    1    3    3    0    0  0.18052442255E+01  0.91432832211E+01 -0.73858331928E+01  0.11891554428E+02  0.00000000000E+00 0.  1.
</event>
<event>
 7    1  0.2001181E-008  0.4614232E+02  0.7816164E-02  0.1320468E+00
        -11   -1    0    0    0    0  0.00000000000E+00  0.00000000000E+00  0.45593999997E+02  0.45594000000E+02  0.51100000000E-03 0.  1.
         11   -1    0    0    0    0 -0.00000000000E+00 -0.00000000000E+00 -0.45593999997E+02  0.45594000000E+02  0.51100000000E-03 0. -1.
    9900012    2    1    2    0    0  0.38772065134E+02  0.22079372049E+02  0.61920804160E+01  0.46142316914E+02  0.99999922760E+01 0.  0.
        -12    1    1    2    0    0 -0.38772065134E+02 -0.22079372049E+02 -0.61920804160E+01  0.45045683086E+02  0.00000000000E+00 0.  1.
         11    1    3    3    0    0  0.28396143015E+02  0.13646274007E+02  0.14877104788E+01  0.31540054140E+02  0.51100000000E-03 0. -1.
        -11    1    3    3    0    0  0.13949346116E+01  0.17150398113E+01 -0.45467210664E+00  0.22569738835E+01  0.51100000000E-03 0.  1.
        -12    1    3    3    0    0  0.89809875070E+01  0.67180582301E+01  0.51590420439E+01  0.12345288891E+02  0.00000000000E+00 0.  1.
</event>
<event>
 7    1  0.2001181E-008  0.4614232E+02  0.7816164E-02  0.1320468E+00
        -11   -1    0    0    0    0  0.00000000000E+00  0.00000000000E+00  0.45593999997E+02  0.45594000000E+02  0.51100000000E-03 0.  1.
         11   -1    0    0    0    0 -0.00000000000E+00 -0.00000000000E+00 -0.45593999997E+02  0.45594000000E+02  0.51100000000E-03 0. -1.
    9900012    2    1    2    0    0 -0.81320877295E+01 -0.37499703287E+02  0.23595653712E+02  0.46142317948E+02  0.10000001703E+02 0.  0.
        -12    1    1    2    0    0  0.81320877295E+01  0.37499703287E+02 -0.23595653712E+02  0.45045682052E+02  0.00000000000E+00 0.  1.
         11    1    3    3    0    0 -0.28061089026E+01 -0.22410337897E+02  0.14094885696E+02  0.26622608717E+02  0.51100000000E-03 0. -1.
        -11    1    3    3    0    0  0.86804746695E+00 -0.57432165157E+01  0.38032349528E+01  0.69428120181E+01  0.51100000000E-03 0.  1.
         12    1    3    3    0    0 -0.61940262938E+01 -0.93461488740E+01  0.56975330629E+01  0.12576897213E+02  0.00000000000E+00 0. -1.
</event>
<event>
 7    1  0.2001181E-008  0.4614232E+02  0.7816164E-02  0.1320468E+00
        -11   -1    0    0    0    0  0.00000000000E+00  0.00000000000E+00  0.45593999997E+02  0.45594000000E+02  0.51100000000E-03 0.  1.
         11   -1    0    0    0    0 -0.00000000000E+00 -0.00000000000E+00 -0.45593999997E+02  0.45594000000E+02  0.51100000000E-03 0. -1.
    9900012    2    1    2    0    0  0.26086847945E+02  0.31101427111E+02 -0.19526667021E+02  0.46142321750E+02  0.10000036377E+02 0.  0.
        -12    1    1    2    0    0 -0.26086847945E+02 -0.31101427111E+02  0.19526667021E+02  0.45045678250E+02  0.00000000000E+00 0.  1.
         11    1    3    3    0    0  0.60921226660E+01  0.64925858330E+01 -0.76081478659E+01  0.11711171743E+02  0.51100000000E-03 0. -1.
        -11    1    3    3    0    0  0.47150279152E+01  0.95466653213E+01 -0.57778626552E+01  0.12114206706E+02  0.51100000000E-03 0.  1.
         12    1    3    3    0    0  0.15279697364E+02  0.15062175957E+02 -0.61406564999E+01  0.22316943301E+02  0.00000000000E+00 0. -1.
</event>
<event>
 7    1  0.2001181E-008  0.4614232E+02  0.7816164E-02  0.1320468E+00
        -11   -1    0    0    0    0  0.00000000000E+00  0.00000000000E+00  0.45593999997E+02  0.45594000000E+02  0.51100000000E-03 0.  1.
         11   -1    0    0    0    0 -0.00000000000E+00 -0.00000000000E+00 -0.45593999997E+02  0.45594000000E+02  0.51100000000E-03 0. -1.
    9900012    2    1    2    0    0  0.15748482526E+02  0.39480757301E+02 -0.14912028361E+02  0.46142317757E+02  0.99999999623E+01 0.  0.
        -12    1    1    2    0    0 -0.15748482526E+02 -0.39480757301E+02  0.14912028361E+02  0.45045682243E+02  0.00000000000E+00 0.  1.
         11    1    3    3    0    0  0.10884281896E+02  0.26951291543E+02 -0.76934816363E+01  0.30067081138E+02  0.51100000000E-03 0. -1.
        -11    1    3    3    0    0  0.54810601962E+01  0.89051102129E+01 -0.40223565260E+01  0.11203676230E+02  0.51100000000E-03 0.  1.
        -12    1    3    3    0    0 -0.61685956619E+00  0.36243555454E+01 -0.31961901983E+01  0.48715603894E+01  0.00000000000E+00 0.  1.
</event>
<event>
 7    1  0.2001181E-008  0.4614231E+02  0.7816164E-02  0.1320468E+00
        -11   -1    0    0    0    0  0.00000000000E+00  0.00000000000E+00  0.45593999997E+02  0.45594000000E+02  0.51100000000E-03 0. -1.
         11   -1    0    0    0    0 -0.00000000000E+00 -0.00000000000E+00 -0.45593999997E+02  0.45594000000E+02  0.51100000000E-03 0.  1.
    9900012    2    1    2    0    0  0.25941850262E+02 -0.36660334441E+02  0.34862810735E+01  0.46142313502E+02  0.99999611594E+01 0.  0.
        -12    1    1    2    0    0 -0.25941850262E+02  0.36660334441E+02 -0.34862810735E+01  0.45045686498E+02  0.00000000000E+00 0.  1.
         11    1    3    3    0    0  0.94316320672E+01 -0.15255784861E+02 -0.11609526393E+01  0.17973382166E+02  0.51100000000E-03 0. -1.
        -11    1    3    3    0    0  0.95299740557E+01 -0.11373881202E+02 -0.64305261152E+00  0.14852578767E+02  0.51100000000E-03 0.  1.
        -12    1    3    3    0    0  0.69802441393E+01 -0.10030668378E+02  0.52902863243E+01  0.13316352569E+02  0.00000000000E+00 0.  1.
</event>
<event>
 7    1  0.2001181E-008  0.4614232E+02  0.7816164E-02  0.1320468E+00
        -11   -1    0    0    0    0  0.00000000000E+00  0.00000000000E+00  0.45593999997E+02  0.45594000000E+02  0.51100000000E-03 0.  1.
         11   -1    0    0    0    0 -0.00000000000E+00 -0.00000000000E+00 -0.45593999997E+02  0.45594000000E+02  0.51100000000E-03 0. -1.
    9900012    2    1    2    0    0 -0.38547263953E+01  0.23537049060E+02 -0.38213375277E+02  0.46142316033E+02  0.99999842415E+01 0.  0.
        -12    1    1    2    0    0  0.38547263953E+01 -0.23537049060E+02  0.38213375277E+02  0.45045683967E+02  0.00000000000E+00 0.  1.
         11    1    3    3    0    0  0.17019898849E+01  0.69111086844E+01 -0.16094977948E+02  0.17598537105E+02  0.51100000000E-03 0. -1.
        -11    1    3    3    0    0 -0.42545128670E+01  0.82403134452E+01 -0.14046976588E+02  0.16832147722E+02  0.51100000000E-03 0.  1.
         12    1    3    3    0    0 -0.13022034132E+01  0.83856269301E+01 -0.80714207408E+01  0.11711631206E+02  0.00000000000E+00 0. -1.
</event>
<event>
 7    1  0.2001181E-008  0.4614232E+02  0.7816164E-02  0.1320468E+00
        -11   -1    0    0    0    0  0.00000000000E+00  0.00000000000E+00  0.45593999997E+02  0.45594000000E+02  0.51100000000E-03 0. -1.
         11   -1    0    0    0    0 -0.00000000000E+00 -0.00000000000E+00 -0.45593999997E+02  0.45594000000E+02  0.51100000000E-03 0.  1.
    9900012    2    1    2    0    0  0.41610327199E+02  0.18100533828E+01  0.17158610342E+02  0.46142317280E+02  0.99999956119E+01 0.  0.
        -12    1    1    2    0    0 -0.41610327199E+02 -0.18100533828E+01 -0.17158610342E+02  0.45045682720E+02  0.00000000000E+00 0.  1.
         11    1    3    3    0    0  0.12334383645E+02 -0.19749139766E+01  0.42179320256E+01  0.13184394410E+02  0.51100000000E-03 0. -1.
        -11    1    3    3    0    0  0.11410658784E+02 -0.13455999917E+01  0.29800963193E+01  0.11869909332E+02  0.51100000000E-03 0.  1.
         12    1    3    3    0    0  0.17865284770E+02  0.51305673511E+01  0.99605819975E+01  0.21088013538E+02  0.00000000000E+00 0. -1.
</event>
<event>
 7    1  0.2001181E-008  0.4614232E+02  0.7816164E-02  0.1320468E+00
        -11   -1    0    0    0    0  0.00000000000E+00  0.00000000000E+00  0.45593999997E+02  0.45594000000E+02  0.51100000000E-03 0. -1.
         11   -1    0    0    0    0 -0.00000000000E+00 -0.00000000000E+00 -0.45593999997E+02  0.45594000000E+02  0.51100000000E-03 0.  1.
    9900012    2    1    2    0    0 -0.46392151992E+01 -0.19600266287E+02  0.40291692072E+02  0.46142320893E+02  0.10000028563E+02 0.  0.
        -12    1    1    2    0    0  0.46392151992E+01  0.19600266287E+02 -0.40291692072E+02  0.45045679107E+02  0.00000000000E+00 0.  1.
         11    1    3    3    0    0 -0.45465172871E+01 -0.18489860567E+02  0.29906902844E+02  0.35453752992E+02  0.51100000000E-03 0. -1.
        -11    1    3    3    0    0 -0.96393112043E+00 -0.12917892385E+01  0.74229837124E+01  0.75959574839E+01  0.51100000000E-03 0.  1.
        -12    1    3    3    0    0  0.87123320830E+00  0.18138351913E+00  0.29618055156E+01  0.30926104178E+01  0.00000000000E+00 0.  1.
</event>
<event>
 7    1  0.2001181E-008  0.4614232E+02  0.7816164E-02  0.1320468E+00
        -11   -1    0    0    0    0  0.00000000000E+00  0.00000000000E+00  0.45593999997E+02  0.45594000000E+02  0.51100000000E-03 0.  1.
         11   -1    0    0    0    0 -0.00000000000E+00 -0.00000000000E+00 -0.45593999997E+02  0.45594000000E+02  0.51100000000E-03 0. -1.
    9900012    2    1    2    0    0  0.11248459952E+02 -0.27383400404E+02 -0.33951952279E+02  0.46142317271E+02  0.99999955319E+01 0.  0.
        -12    1    1    2    0    0 -0.11248459952E+02  0.27383400404E+02  0.33951952279E+02  0.45045682729E+02  0.00000000000E+00 0.  1.
         11    1    3    3    0    0  0.49656044972E+01 -0.82890038762E+01 -0.14171890260E+02  0.17152471748E+02  0.51100000000E-03 0. -1.
        -11    1    3    3    0    0  0.26600915520E+01 -0.16515107369E+02 -0.16106616754E+02  0.23221713158E+02  0.51100000000E-03 0.  1.
        -12    1    3    3    0    0  0.36227639030E+01 -0.25792891582E+01 -0.36734452647E+01  0.57681323642E+01  0.00000000000E+00 0.  1.
</event>
<event>
 7    1  0.2001181E-008  0.4614232E+02  0.7816164E-02  0.1320468E+00
        -11   -1    0    0    0    0  0.00000000000E+00  0.00000000000E+00  0.45593999997E+02  0.45594000000E+02  0.51100000000E-03 0. -1.
         11   -1    0    0    0    0 -0.00000000000E+00 -0.00000000000E+00 -0.45593999997E+02  0.45594000000E+02  0.51100000000E-03 0.  1.
    9900012    2    1    2    0    0 -0.40203323477E+02 -0.74993808778E+01 -0.18882945399E+02  0.46142316976E+02  0.99999928407E+01 0.  0.
        -12    1    1    2    0    0  0.40203323477E+02  0.74993808778E+01  0.18882945399E+02  0.45045683024E+02  0.00000000000E+00 0.  1.
         11    1    3    3    0    0 -0.10896379285E+02 -0.40200951991E+01 -0.69902977932E+01  0.13555681850E+02  0.51100000000E-03 0. -1.
        -11    1    3    3    0    0 -0.11521514208E+02  0.11767176823E+01 -0.71106779157E+01  0.13590132260E+02  0.51100000000E-03 0.  1.
        -12    1    3    3    0    0 -0.17785429984E+02 -0.46560033610E+01 -0.47819696896E+01  0.18996502866E+02  0.00000000000E+00 0.  1.
</event>
<event>
 7    1  0.2001181E-008  0.4614232E+02  0.7816164E-02  0.1320468E+00
        -11   -1    0    0    0    0  0.00000000000E+00  0.00000000000E+00  0.45593999997E+02  0.45594000000E+02  0.51100000000E-03 0.  1.
         11   -1    0    0    0    0 -0.00000000000E+00 -0.00000000000E+00 -0.45593999997E+02  0.45594000000E+02  0.51100000000E-03 0. -1.
    9900012    2    1    2    0    0  0.44740389866E+02 -0.35285438505E+01  0.38678638921E+01  0.46142317874E+02  0.10000001031E+02 0.  0.
        -12    1    1    2    0    0 -0.44740389866E+02  0.35285438505E+01 -0.38678638921E+01  0.45045682126E+02  0.00000000000E+00 0.  1.
         11    1    3    3    0    0  0.31271280593E+02 -0.70150264039E+00 -0.91526042933E+00  0.31292535816E+02  0.51100000000E-03 0. -1.
        -11    1    3    3    0    0  0.66135574699E+01 -0.72386770350E-01  0.15985179752E+01  0.68043840449E+01  0.51100000000E-03 0.  1.
        -12    1    3    3    0    0  0.68555518036E+01 -0.27546544398E+01  0.31846063463E+01  0.80453980135E+01  0.00000000000E+00 0.  1.
</event>
<event>
 7    1  0.2001181E-008  0.4614232E+02  0.7816164E-02  0.1320468E+00
        -11   -1    0    0    0    0  0.00000000000E+00  0.00000000000E+00  0.45593999997E+02  0.45594000000E+02  0.51100000000E-03 0.  1.
         11   -1    0    0    0    0 -0.00000000000E+00 -0.00000000000E+00 -0.45593999997E+02  0.45594000000E+02  0.51100000000E-03 0. -1.
    9900012    2    1    2    0    0  0.13209523934E+02  0.23670464325E+02 -0.35976815614E+02  0.46142315793E+02  0.99999820533E+01 0.  0.
        -12    1    1    2    0    0 -0.13209523934E+02 -0.23670464325E+02  0.35976815614E+02  0.45045684207E+02  0.00000000000E+00 0.  1.
         11    1    3    3    0    0  0.43755447703E+01  0.32182487686E+01 -0.77641496924E+01  0.94754703250E+01  0.51100000000E-03 0. -1.
        -11    1    3    3    0    0  0.72998875555E+01  0.10725361005E+02 -0.11857932282E+02  0.17576469647E+02  0.51100000000E-03 0.  1.
         12    1    3    3    0    0  0.15340916084E+01  0.97268545522E+01 -0.16354733640E+02  0.19090375821E+02  0.00000000000E+00 0. -1.
</event>
<event>
 7    1  0.2001181E-008  0.4614232E+02  0.7816164E-02  0.1320468E+00
        -11   -1    0    0    0    0  0.00000000000E+00  0.00000000000E+00  0.45593999997E+02  0.45594000000E+02  0.51100000000E-03 0.  1.
         11   -1    0    0    0    0 -0.00000000000E+00 -0.00000000000E+00 -0.45593999997E+02  0.45594000000E+02  0.51100000000E-03 0. -1.
    9900012    2    1    2    0    0  0.44732101838E+02  0.39118939610E+01  0.35846463369E+01  0.46142317204E+02  0.99999949201E+01 0.  0.
        -12    1    1    2    0    0 -0.44732101838E+02 -0.39118939610E+01 -0.35846463369E+01  0.45045682796E+02  0.00000000000E+00 0.  1.
         11    1    3    3    0    0  0.19965554110E+02  0.56939744883E+00 -0.67600235872E+00  0.19985108051E+02  0.51100000000E-03 0. -1.
        -11    1    3    3    0    0  0.21603941684E+02  0.42010463678E+01  0.18445838800E+01  0.22085777704E+02  0.51100000000E-03 0.  1.
        -12    1    3    3    0    0  0.31626060444E+01 -0.85854985564E+00  0.24160648156E+01  0.40714314485E+01  0.00000000000E+00 0.  1.
</event>
<event>
 7    1  0.2001181E-008  0.4614232E+02  0.7816164E-02  0.1320468E+00
        -11   -1    0    0    0    0  0.00000000000E+00  0.00000000000E+00  0.45593999997E+02  0.45594000000E+02  0.51100000000E-03 0.  1.
         11   -1    0    0    0    0 -0.00000000000E+00 -0.00000000000E+00 -0.45593999997E+02  0.45594000000E+02  0.51100000000E-03 0. -1.
    9900012    2    1    2    0    0  0.93641169344E+01 -0.28539361066E+02 -0.33569804175E+02  0.46142316874E+02  0.99999919079E+01 0.  0.
        -12    1    1    2    0    0 -0.93641169344E+01  0.28539361066E+02  0.33569804175E+02  0.45045683126E+02  0.00000000000E+00 0.  1.
         11    1    3    3    0    0  0.59126970743E+01 -0.89563412326E+01 -0.95684347195E+01  0.14378142377E+02  0.51100000000E-03 0. -1.
        -11    1    3    3    0    0  0.24438583256E+01 -0.36750366455E+01 -0.27533858442E+01  0.52018719447E+01  0.51100000000E-03 0.  1.
        -12    1    3    3    0    0  0.10075615346E+01 -0.15907983188E+02 -0.21247983611E+02  0.26562302552E+02  0.00000000000E+00 0.  1.
</event>
<event>
 7    1  0.2001181E-008  0.4614232E+02  0.7816164E-02  0.1320468E+00
        -11   -1    0    0    0    0  0.00000000000E+00  0.00000000000E+00  0.45593999997E+02  0.45594000000E+02  0.51100000000E-03 0.  1.
         11   -1    0    0    0    0 -0.00000000000E+00 -0.00000000000E+00 -0.45593999997E+02  0.45594000000E+02  0.51100000000E-03 0. -1.
    9900012    2    1    2    0    0 -0.76579986141E+01 -0.34792143493E+02 -0.27567650849E+02  0.46142316911E+02  0.99999922505E+01 0.  0.
        -12    1    1    2    0    0  0.76579986141E+01  0.34792143493E+02  0.27567650849E+02  0.45045683089E+02  0.00000000000E+00 0.  1.
         11    1    3    3    0    0 -0.36464622969E+01 -0.26767431269E+02 -0.20121104760E+02  0.33684579871E+02  0.51100000000E-03 0. -1.
        -11    1    3    3    0    0 -0.19796423533E+01 -0.73791277774E+01 -0.68051655343E+01  0.10231362999E+02  0.51100000000E-03 0.  1.
        -12    1    3    3    0    0 -0.20318939640E+01 -0.64558444596E+00 -0.64138055463E+00  0.22263740417E+01  0.00000000000E+00 0.  1.
</event>
<event>
 7    1  0.2001181E-008  0.4614232E+02  0.7816164E-02  0.1320468E+00
        -11   -1    0    0    0    0  0.00000000000E+00  0.00000000000E+00  0.45593999997E+02  0.45594000000E+02  0.51100000000E-03 0.  1.
         11   -1    0    0    0    0 -0.00000000000E+00 -0.00000000000E+00 -0.45593999997E+02  0.45594000000E+02  0.51100000000E-03 0. -1.
    9900012    2    1    2    0    0 -0.22950486532E+02  0.10958969481E+02 -0.37179156145E+02  0.46142317679E+02  0.99999992490E+01 0.  0.
        -12    1    1    2    0    0  0.22950486532E+02 -0.10958969481E+02  0.37179156145E+02  0.45045682321E+02  0.00000000000E+00 0.  1.
         11    1    3    3    0    0 -0.78907942405E+01  0.38081670026E+01 -0.92472306273E+01  0.12738839986E+02  0.51100000000E-03 0. -1.
        -11    1    3    3    0    0 -0.16334508722E+01  0.41110071748E+01 -0.86005924954E+01  0.96715424456E+01  0.51100000000E-03 0.  1.
        -12    1    3    3    0    0 -0.13426241420E+02  0.30397953034E+01 -0.19331333022E+02  0.23731935247E+02  0.00000000000E+00 0.  1.
</event>
<event>
 7    1  0.2001181E-008  0.4614232E+02  0.7816164E-02  0.1320468E+00
        -11   -1    0    0    0    0  0.00000000000E+00  0.00000000000E+00  0.45593999997E+02  0.45594000000E+02  0.51100000000E-03 0.  1.
         11   -1    0    0    0    0 -0.00000000000E+00 -0.00000000000E+00 -0.45593999997E+02  0.45594000000E+02  0.51100000000E-03 0. -1.
    9900012    2    1    2    0    0  0.44012386068E+02 -0.85497034065E+01  0.43503812819E+01  0.46142319041E+02  0.10000011670E+02 0.  0.
        -12    1    1    2    0    0 -0.44012386068E+02  0.85497034065E+01 -0.43503812819E+01  0.45045680959E+02  0.00000000000E+00 0.  1.
         11    1    3    3    0    0  0.27639689665E+02 -0.39860605854E+01  0.18164289459E+01  0.27984648258E+02  0.51100000000E-03 0. -1.
        -11    1    3    3    0    0  0.11405666944E+02 -0.57738673410E+01  0.25968746535E+01  0.13044943110E+02  0.51100000000E-03 0.  1.
         12    1    3    3    0    0  0.49670294589E+01  0.12102245199E+01 -0.62922317457E-01  0.51127276724E+01  0.00000000000E+00 0. -1.
</event>
<event>
 7    1  0.2001181E-008  0.4614232E+02  0.7816164E-02  0.1320468E+00
        -11   -1    0    0    0    0  0.00000000000E+00  0.00000000000E+00  0.45593999997E+02  0.45594000000E+02  0.51100000000E-03 0. -1.
         11   -1    0    0    0    0 -0.00000000000E+00 -0.00000000000E+00 -0.45593999997E+02  0.45594000000E+02  0.51100000000E-03 0.  1.
    9900012    2    1    2    0    0  0.39725112525E+02 -0.20127613820E+02 -0.67755520296E+01  0.46142317538E+02  0.99999979631E+01 0.  0.
        -12    1    1    2    0    0 -0.39725112525E+02  0.20127613820E+02  0.67755520296E+01  0.45045682462E+02  0.00000000000E+00 0.  1.
         11    1    3    3    0    0  0.33948960197E+01 -0.86982304219E+00  0.54874914674E+00  0.35472576727E+01  0.51100000000E-03 0. -1.
        -11    1    3    3    0    0  0.52681072739E+01 -0.39832029280E+00 -0.27885967741E+01  0.59739338408E+01  0.51100000000E-03 0.  1.
         12    1    3    3    0    0  0.31062109231E+02 -0.18859470485E+02 -0.45357044022E+01  0.36621126024E+02  0.00000000000E+00 0. -1.
</event>
<event>
 7    1  0.2001181E-008  0.4614232E+02  0.7816164E-02  0.1320468E+00
        -11   -1    0    0    0    0  0.00000000000E+00  0.00000000000E+00  0.45593999997E+02  0.45594000000E+02  0.51100000000E-03 0. -1.
         11   -1    0    0    0    0 -0.00000000000E+00 -0.00000000000E+00 -0.45593999997E+02  0.45594000000E+02  0.51100000000E-03 0.  1.
    9900012    2    1    2    0    0 -0.23263042287E+02  0.37289485540E+01  0.38393219227E+02  0.46142317894E+02  0.10000001213E+02 0.  0.
        -12    1    1    2    0    0  0.23263042287E+02 -0.37289485540E+01 -0.38393219227E+02  0.45045682106E+02  0.00000000000E+00 0.  1.
         11    1    3    3    0    0 -0.75761296797E+01  0.91221708850E+00  0.72067376399E+01  0.10496044427E+02  0.51100000000E-03 0.  1.
        -11    1    3    3    0    0 -0.14595389396E+02  0.39179086578E+01  0.24528301300E+02  0.28809945588E+02  0.51100000000E-03 0. -1.
         12    1    3    3    0    0 -0.10915232111E+01 -0.11011771923E+01  0.66581802876E+01  0.68363278791E+01  0.00000000000E+00 0. -1.
</event>
<event>
 7    1  0.2001181E-008  0.4614232E+02  0.7816164E-02  0.1320468E+00
        -11   -1    0    0    0    0  0.00000000000E+00  0.00000000000E+00  0.45593999997E+02  0.45594000000E+02  0.51100000000E-03 0. -1.
         11   -1    0    0    0    0 -0.00000000000E+00 -0.00000000000E+00 -0.45593999997E+02  0.45594000000E+02  0.51100000000E-03 0.  1.
    9900012    2    1    2    0    0  0.83291740049E+01 -0.38478333642E+02  0.21889640051E+02  0.46142316067E+02  0.99999845475E+01 0.  0.
        -12    1    1    2    0    0 -0.83291740049E+01  0.38478333642E+02 -0.21889640051E+02  0.45045683933E+02  0.00000000000E+00 0.  1.
         11    1    3    3    0    0  0.14713469995E+01 -0.16205596803E+02  0.11003064822E+02  0.19643158236E+02  0.51100000000E-03 0. -1.
        -11    1    3    3    0    0  0.37000707023E+01 -0.19299931800E+02  0.10087358019E+02  0.22089198328E+02  0.51100000000E-03 0.  1.
        -12    1    3    3    0    0  0.31577563031E+01 -0.29728050381E+01  0.79921720965E+00  0.44099595024E+01  0.00000000000E+00 0.  1.
</event>
<event>
 7    1  0.2001181E-008  0.4614232E+02  0.7816164E-02  0.1320468E+00
        -11   -1    0    0    0    0  0.00000000000E+00  0.00000000000E+00  0.45593999997E+02  0.45594000000E+02  0.51100000000E-03 0.  1.
         11   -1    0    0    0    0 -0.00000000000E+00 -0.00000000000E+00 -0.45593999997E+02  0.45594000000E+02  0.51100000000E-03 0. -1.
    9900012    2    1    2    0    0 -0.24205560764E+02 -0.23629217367E+02 -0.29746669978E+02  0.46142318076E+02  0.10000002869E+02 0.  0.
        -12    1    1    2    0    0  0.24205560764E+02  0.23629217367E+02  0.29746669978E+02  0.45045681924E+02  0.00000000000E+00 0.  1.
         11    1    3    3    0    0 -0.49140664643E+01 -0.34859911762E+01 -0.10012052899E+02  0.11685092520E+02  0.51100000000E-03 0.  1.
        -11    1    3    3    0    0 -0.12319426762E+01 -0.22538260129E+01 -0.59283333628E+00  0.26360701963E+01  0.51100000000E-03 0. -1.
        -12    1    3    3    0    0 -0.18059551623E+02 -0.17889400178E+02 -0.19141783743E+02  0.31821155360E+02  0.00000000000E+00 0.  1.
</event>
<event>
 7    1  0.2001181E-008  0.4614232E+02  0.7816164E-02  0.1320468E+00
        -11   -1    0    0    0    0  0.00000000000E+00  0.00000000000E+00  0.45593999997E+02  0.45594000000E+02  0.51100000000E-03 0.  1.
         11   -1    0    0    0    0 -0.00000000000E+00 -0.00000000000E+00 -0.45593999997E+02  0.45594000000E+02  0.51100000000E-03 0. -1.
    9900012    2    1    2    0    0  0.28139446200E+02  0.25013770739E+02 -0.24730474422E+02  0.46142317364E+02  0.99999963797E+01 0.  0.
        -12    1    1    2    0    0 -0.28139446200E+02 -0.25013770739E+02  0.24730474422E+02  0.45045682636E+02  0.00000000000E+00 0.  1.
         11    1    3    3    0    0  0.14812980374E+01  0.10603452460E+01 -0.34020458910E+01  0.38590792195E+01  0.51100000000E-03 0. -1.
        -11    1    3    3    0    0  0.21069147033E+02  0.15366685912E+02 -0.17189500699E+02  0.31233362406E+02  0.51100000000E-03 0.  1.
        -12    1    3    3    0    0  0.55890011290E+01  0.85867395807E+01 -0.41389278323E+01  0.11049875739E+02  0.00000000000E+00 0.  1.
</event>
<event>
 7    1  0.2001181E-008  0.4614232E+02  0.7816164E-02  0.1320468E+00
        -11   -1    0    0    0    0  0.00000000000E+00  0.00000000000E+00  0.45593999997E+02  0.45594000000E+02  0.51100000000E-03 0. -1.
         11   -1    0    0    0    0 -0.00000000000E+00 -0.00000000000E+00 -0.45593999997E+02  0.45594000000E+02  0.51100000000E-03 0.  1.
    9900012    2    1    2    0    0  0.18824249941E+02 -0.12055650907E+00  0.40923667617E+02  0.46142317733E+02  0.99999997407E+01 0.  0.
        -12    1    1    2    0    0 -0.18824249941E+02  0.12055650907E+00 -0.40923667617E+02  0.45045682267E+02  0.00000000000E+00 0.  1.
         11    1    3    3    0    0  0.71160727039E+01 -0.32137460234E+01  0.20811935226E+02  0.22228434545E+02  0.51100000000E-03 0. -1.
        -11    1    3    3    0    0  0.95444458715E+01  0.41610184416E+01  0.17458583505E+02  0.20327632910E+02  0.51100000000E-03 0.  1.
        -12    1    3    3    0    0  0.21637313656E+01 -0.10678289272E+01  0.26531488865E+01  0.35862502777E+01  0.00000000000E+00 0.  1.
</event>
<event>
 7    1  0.2001181E-008  0.4614232E+02  0.7816164E-02  0.1320468E+00
        -11   -1    0    0    0    0  0.00000000000E+00  0.00000000000E+00  0.45593999997E+02  0.45594000000E+02  0.51100000000E-03 0.  1.
         11   -1    0    0    0    0 -0.00000000000E+00 -0.00000000000E+00 -0.45593999997E+02  0.45594000000E+02  0.51100000000E-03 0. -1.
    9900012    2    1    2    0    0  0.34267813197E+01  0.20291450073E+02 -0.40070285482E+02  0.46142317023E+02  0.99999932669E+01 0.  0.
        -12    1    1    2    0    0 -0.34267813197E+01 -0.20291450073E+02  0.40070285482E+02  0.45045682977E+02  0.00000000000E+00 0.  1.
         11    1    3    3    0    0  0.44503012431E+01  0.12899207216E+02 -0.20946769024E+02  0.24999237203E+02  0.51100000000E-03 0. -1.
        -11    1    3    3    0    0  0.68524604089E-01  0.57253085339E+01 -0.17925855178E+02  0.18818080071E+02  0.51100000000E-03 0.  1.
        -12    1    3    3    0    0 -0.10920445275E+01  0.16669343231E+01 -0.11976612799E+01  0.23249997482E+01  0.00000000000E+00 0.  1.
</event>
<event>
 7    1  0.2001181E-008  0.4614232E+02  0.7816164E-02  0.1320468E+00
        -11   -1    0    0    0    0  0.00000000000E+00  0.00000000000E+00  0.45593999997E+02  0.45594000000E+02  0.51100000000E-03 0.  1.
         11   -1    0    0    0    0 -0.00000000000E+00 -0.00000000000E+00 -0.45593999997E+02  0.45594000000E+02  0.51100000000E-03 0. -1.
    9900012    2    1    2    0    0  0.66391811296E+00  0.47022590821E+01 -0.44794659022E+02  0.46142317581E+02  0.99999983541E+01 0.  0.
        -12    1    1    2    0    0 -0.66391811296E+00 -0.47022590821E+01  0.44794659022E+02  0.45045682419E+02  0.00000000000E+00 0.  1.
         11    1    3    3    0    0  0.12658458153E+01  0.34359549498E+00 -0.63294075438E+01  0.64638861074E+01  0.51100000000E-03 0. -1.
        -11    1    3    3    0    0 -0.25596505267E+01  0.26610754022E+01 -0.55785001647E+01  0.66897531691E+01  0.51100000000E-03 0.  1.
        -12    1    3    3    0    0  0.19577228244E+01  0.16975881849E+01 -0.32886751313E+02  0.32988678304E+02  0.00000000000E+00 0.  1.
</event>
<event>
 7    1  0.2001181E-008  0.4614232E+02  0.7816164E-02  0.1320468E+00
        -11   -1    0    0    0    0  0.00000000000E+00  0.00000000000E+00  0.45593999997E+02  0.45594000000E+02  0.51100000000E-03 0. -1.
         11   -1    0    0    0    0 -0.00000000000E+00 -0.00000000000E+00 -0.45593999997E+02  0.45594000000E+02  0.51100000000E-03 0.  1.
    9900012    2    1    2    0    0  0.39213402291E+02 -0.21948944822E+02  0.31090940425E+01  0.46142316924E+02  0.99999923668E+01 0.  0.
        -12    1    1    2    0    0 -0.39213402291E+02  0.21948944822E+02 -0.31090940425E+01  0.45045683076E+02  0.00000000000E+00 0.  1.
         11    1    3    3    0    0  0.22674832218E+02 -0.97002313708E+01  0.17820399929E+01  0.24726871447E+02  0.51100000000E-03 0. -1.
        -11    1    3    3    0    0  0.49994533691E+00 -0.64166313722E+00 -0.12074260288E+01  0.14558690868E+01  0.51100000000E-03 0.  1.
         12    1    3    3    0    0  0.16038624736E+02 -0.11607050314E+02  0.25344800784E+01  0.19959576390E+02  0.00000000000E+00 0. -1.
</event>
<event>
 7    1  0.2001181E-008  0.4614231E+02  0.7816164E-02  0.1320468E+00
        -11   -1    0    0    0    0  0.00000000000E+00  0.00000000000E+00  0.45593999997E+02  0.45594000000E+02  0.51100000000E-03 0.  1.
         11   -1    0    0    0    0 -0.00000000000E+00 -0.00000000000E+00 -0.45593999997E+02  0.45594000000E+02  0.51100000000E-03 0. -1.
    9900012    2    1    2    0    0 -0.11482722625E+02 -0.34932746692E+02 -0.26018534885E+02  0.46142313548E+02  0.99999615839E+01 0.  0.
        -12    1    1    2    0    0  0.11482722625E+02  0.34932746692E+02  0.26018534885E+02  0.45045686452E+02  0.00000000000E+00 0.  1.
         11    1    3    3    0    0 -0.21893143382E+01 -0.72167811631E+01 -0.83848304051E+01  0.11277429176E+02  0.51100000000E-03 0. -1.
        -11    1    3    3    0    0 -0.83148551331E+01 -0.21327318276E+02 -0.16698817833E+02  0.28334463785E+02  0.51100000000E-03 0.  1.
        -12    1    3    3    0    0 -0.97855315329E+00 -0.63886472536E+01 -0.93488664665E+00  0.65304205873E+01  0.00000000000E+00 0.  1.
</event>
<event>
 7    1  0.2001181E-008  0.4614232E+02  0.7816164E-02  0.1320468E+00
        -11   -1    0    0    0    0  0.00000000000E+00  0.00000000000E+00  0.45593999997E+02  0.45594000000E+02  0.51100000000E-03 0.  1.
         11   -1    0    0    0    0 -0.00000000000E+00 -0.00000000000E+00 -0.45593999997E+02  0.45594000000E+02  0.51100000000E-03 0. -1.
    9900012    2    1    2    0    0 -0.39356916845E+02 -0.33803107520E+01 -0.21649944157E+02  0.46142317784E+02  0.10000000206E+02 0.  0.
        -12    1    1    2    0    0  0.39356916845E+02  0.33803107520E+01  0.21649944157E+02  0.45045682216E+02  0.00000000000E+00 0.  1.
         11    1    3    3    0    0 -0.36662932312E+01 -0.18894819628E+00 -0.28326934965E+00  0.36820713279E+01  0.51100000000E-03 0. -1.
        -11    1    3    3    0    0 -0.99715468453E+01  0.67823242044E+00 -0.97935227799E+01  0.13993028064E+02  0.51100000000E-03 0.  1.
         12    1    3    3    0    0 -0.25719076769E+02 -0.38695949762E+01 -0.11573152027E+02  0.28467218392E+02  0.00000000000E+00 0. -1.
</event>
<event>
 7    1  0.2001181E-008  0.4614232E+02  0.7816164E-02  0.1320468E+00
        -11   -1    0    0    0    0  0.00000000000E+00  0.00000000000E+00  0.45593999997E+02  0.45594000000E+02  0.51100000000E-03 0.  1.
         11   -1    0    0    0    0 -0.00000000000E+00 -0.00000000000E+00 -0.45593999997E+02  0.45594000000E+02  0.51100000000E-03 0. -1.
    9900012    2    1    2    0    0 -0.47916257429E+01  0.28142344355E+02 -0.34844830502E+02  0.46142318345E+02  0.10000005325E+02 0.  0.
        -12    1    1    2    0    0  0.47916257429E+01 -0.28142344355E+02  0.34844830502E+02  0.45045681655E+02  0.00000000000E+00 0.  1.
         11    1    3    3    0    0 -0.15857227014E+01  0.15318493737E+02 -0.13897147852E+02  0.20743709541E+02  0.51100000000E-03 0. -1.
        -11    1    3    3    0    0 -0.44558884231E+01  0.64856767256E+01 -0.10636344840E+02  0.13230675570E+02  0.51100000000E-03 0.  1.
        -12    1    3    3    0    0  0.12499853817E+01  0.63381738926E+01 -0.10311337809E+02  0.12167933233E+02  0.00000000000E+00 0.  1.
</event>
<event>
 7    1  0.2001181E-008  0.4614233E+02  0.7816164E-02  0.1320468E+00
        -11   -1    0    0    0    0  0.00000000000E+00  0.00000000000E+00  0.45593999997E+02  0.45594000000E+02  0.51100000000E-03 0.  1.
         11   -1    0    0    0    0 -0.00000000000E+00 -0.00000000000E+00 -0.45593999997E+02  0.45594000000E+02  0.51100000000E-03 0. -1.
    9900012    2    1    2    0    0  0.81644993839E+01 -0.10233825490E+02 -0.43101304351E+02  0.46142326833E+02  0.10000082721E+02 0.  0.
        -12    1    1    2    0    0 -0.81644993839E+01  0.10233825490E+02  0.43101304351E+02  0.45045673167E+02  0.00000000000E+00 0.  1.
         11    1    3    3    0    0  0.18746047451E+01 -0.18339810518E+00 -0.65119731062E+01  0.67789063876E+01  0.51100000000E-03 0. -1.
        -11    1    3    3    0    0  0.80929596673E+01 -0.91904671688E+01 -0.28283235033E+02  0.30820481293E+02  0.51100000000E-03 0.  1.
         12    1    3    3    0    0 -0.18030650285E+01 -0.85996021636E+00 -0.83060962122E+01  0.85429391521E+01  0.00000000000E+00 0. -1.
</event>
<event>
 7    1  0.2001181E-008  0.4614232E+02  0.7816164E-02  0.1320468E+00
        -11   -1    0    0    0    0  0.00000000000E+00  0.00000000000E+00  0.45593999997E+02  0.45594000000E+02  0.51100000000E-03 0.  1.
         11   -1    0    0    0    0 -0.00000000000E+00 -0.00000000000E+00 -0.45593999997E+02  0.45594000000E+02  0.51100000000E-03 0. -1.
    9900012    2    1    2    0    0  0.39928564567E+02  0.10779009949E+02 -0.17850379911E+02  0.46142318889E+02  0.10000010282E+02 0.  0.
        -12    1    1    2    0    0 -0.39928564567E+02 -0.10779009949E+02  0.17850379911E+02  0.45045681111E+02  0.00000000000E+00 0.  1.
         11    1    3    3    0    0  0.14933859649E-01  0.56144029478E+00 -0.69151596425E-01  0.56588022511E+00  0.51100000000E-03 0. -1.
        -11    1    3    3    0    0  0.25354975602E+01 -0.10420058622E+01 -0.23116338852E+01  0.35858298308E+01  0.51100000000E-03 0.  1.
         12    1    3    3    0    0  0.37378133147E+02  0.11259575516E+02 -0.15469594429E+02  0.41990608833E+02  0.00000000000E+00 0. -1.
</event>
<event>
 7    1  0.2001181E-008  0.4614232E+02  0.7816164E-02  0.1320468E+00
        -11   -1    0    0    0    0  0.00000000000E+00  0.00000000000E+00  0.45593999997E+02  0.45594000000E+02  0.51100000000E-03 0.  1.
         11   -1    0    0    0    0 -0.00000000000E+00 -0.00000000000E+00 -0.45593999997E+02  0.45594000000E+02  0.51100000000E-03 0. -1.
    9900012    2    1    2    0    0  0.79247442036E+01 -0.33442159716E+01 -0.44216831063E+02  0.46142317628E+02  0.99999987852E+01 0.  0.
        -12    1    1    2    0    0 -0.79247442036E+01  0.33442159716E+01  0.44216831063E+02  0.45045682372E+02  0.00000000000E+00 0.  1.
         11    1    3    3    0    0  0.46426104022E+01 -0.35973158532E+00 -0.26475569843E+02  0.26881946301E+02  0.51100000000E-03 0. -1.
        -11    1    3    3    0    0  0.13142391661E+01 -0.13159264003E+01 -0.16090034139E+02  0.16197162891E+02  0.51100000000E-03 0.  1.
        -12    1    3    3    0    0  0.19678946353E+01 -0.16685579859E+01 -0.16512270808E+01  0.30632084357E+01  0.00000000000E+00 0.  1.
</event>
<event>
 7    1  0.2001181E-008  0.4614232E+02  0.7816164E-02  0.1320468E+00
        -11   -1    0    0    0    0  0.00000000000E+00  0.00000000000E+00  0.45593999997E+02  0.45594000000E+02  0.51100000000E-03 0.  1.
         11   -1    0    0    0    0 -0.00000000000E+00 -0.00000000000E+00 -0.45593999997E+02  0.45594000000E+02  0.51100000000E-03 0. -1.
    9900012    2    1    2    0    0  0.23179050169E+02 -0.24943320676E+02 -0.29490268182E+02  0.46142317293E+02  0.99999957325E+01 0.  0.
        -12    1    1    2    0    0 -0.23179050169E+02  0.24943320676E+02  0.29490268182E+02  0.45045682707E+02  0.00000000000E+00 0.  1.
         11    1    3    3    0    0  0.15256976359E+02 -0.15737806356E+02 -0.17604081587E+02  0.28113298727E+02  0.51100000000E-03 0. -1.
        -11    1    3    3    0    0  0.64612965832E+00 -0.33056670991E+00  0.69152804703E+00  0.10024815141E+01  0.51100000000E-03 0.  1.
        -12    1    3    3    0    0  0.72759441525E+01 -0.88749476097E+01 -0.12577714642E+02  0.17026537052E+02  0.00000000000E+00 0.  1.
</event>
<event>
 7    1  0.2001181E-008  0.4614233E+02  0.7816164E-02  0.1320468E+00
        -11   -1    0    0    0    0  0.00000000000E+00  0.00000000000E+00  0.45593999997E+02  0.45594000000E+02  0.51100000000E-03 0.  1.
         11   -1    0    0    0    0 -0.00000000000E+00 -0.00000000000E+00 -0.45593999997E+02  0.45594000000E+02  0.51100000000E-03 0. -1.
    9900012    2    1    2    0    0 -0.60312160816E+01 -0.43915259775E+02  0.80116582194E+01  0.46142331219E+02  0.10000122721E+02 0.  0.
        -12    1    1    2    0    0  0.60312160816E+01  0.43915259775E+02 -0.80116582194E+01  0.45045668781E+02  0.00000000000E+00 0.  1.
         11    1    3    3    0    0 -0.94094096817E+00 -0.14184488603E+02  0.45741186984E+01  0.14933440627E+02  0.51100000000E-03 0. -1.
        -11    1    3    3    0    0 -0.43357056054E+01 -0.27267433664E+02  0.94798705682E+00  0.27626254930E+02  0.51100000000E-03 0.  1.
        -12    1    3    3    0    0 -0.75456950797E+00 -0.24633375078E+01  0.24895524641E+01  0.35826356627E+01  0.00000000000E+00 0.  1.
</event>
<event>
 7    1  0.2001181E-008  0.4614232E+02  0.7816164E-02  0.1320468E+00
        -11   -1    0    0    0    0  0.00000000000E+00  0.00000000000E+00  0.45593999997E+02  0.45594000000E+02  0.51100000000E-03 0. -1.
         11   -1    0    0    0    0 -0.00000000000E+00 -0.00000000000E+00 -0.45593999997E+02  0.45594000000E+02  0.51100000000E-03 0.  1.
    9900012    2    1    2    0    0  0.20671833042E+02  0.11679522106E+02  0.38280250371E+02  0.46142317783E+02  0.10000000199E+02 0.  0.
        -12    1    1    2    0    0 -0.20671833042E+02 -0.11679522106E+02 -0.38280250371E+02  0.45045682217E+02  0.00000000000E+00 0.  1.
         11    1    3    3    0    0  0.15024265699E+02  0.11964189958E+02  0.28621880215E+02  0.34468571604E+02  0.51100000000E-03 0. -1.
        -11    1    3    3    0    0  0.32185553460E+01  0.14656020025E+01  0.47058356267E+01  0.58865929834E+01  0.51100000000E-03 0.  1.
        -12    1    3    3    0    0  0.24290119968E+01 -0.17502698539E+01  0.49525345291E+01  0.57871531951E+01  0.00000000000E+00 0.  1.
</event>
<event>
 7    1  0.2001181E-008  0.4614232E+02  0.7816164E-02  0.1320468E+00
        -11   -1    0    0    0    0  0.00000000000E+00  0.00000000000E+00  0.45593999997E+02  0.45594000000E+02  0.51100000000E-03 0. -1.
         11   -1    0    0    0    0 -0.00000000000E+00 -0.00000000000E+00 -0.45593999997E+02  0.45594000000E+02  0.51100000000E-03 0.  1.
    9900012    2    1    2    0    0  0.43320613449E+02 -0.66595990031E+01  0.10396524093E+02  0.46142317391E+02  0.99999966255E+01 0.  0.
        -12    1    1    2    0    0 -0.43320613449E+02  0.66595990031E+01 -0.10396524093E+02  0.45045682609E+02  0.00000000000E+00 0.  1.
         11    1    3    3    0    0  0.82396611018E+01 -0.26955270956E+01  0.32979756406E+01  0.92754797711E+01  0.51100000000E-03 0. -1.
        -11    1    3    3    0    0  0.28848228701E+02 -0.60502972081E+01  0.45866331343E+01  0.29830581611E+02  0.51100000000E-03 0.  1.
        -12    1    3    3    0    0  0.62327236467E+01  0.20862253006E+01  0.25119153185E+01  0.70362560093E+01  0.00000000000E+00 0.  1.
</event>
<event>
 7    1  0.2001181E-008  0.4614232E+02  0.7816164E-02  0.1320468E+00
        -11   -1    0    0    0    0  0.00000000000E+00  0.00000000000E+00  0.45593999997E+02  0.45594000000E+02  0.51100000000E-03 0.  1.
         11   -1    0    0    0    0 -0.00000000000E+00 -0.00000000000E+00 -0.45593999997E+02  0.45594000000E+02  0.51100000000E-03 0. -1.
    9900012    2    1    2    0    0 -0.33692664015E+02  0.12983538637E+02 -0.26932239639E+02  0.46142318565E+02  0.10000007328E+02 0.  0.
        -12    1    1    2    0    0  0.33692664015E+02 -0.12983538637E+02  0.26932239639E+02  0.45045681435E+02  0.00000000000E+00 0.  1.
         11    1    3    3    0    0 -0.18875992545E+02  0.63327218956E+01 -0.17566990440E+02  0.26551941822E+02  0.51100000000E-03 0. -1.
        -11    1    3    3    0    0 -0.10771918031E+02  0.20226756726E+01 -0.69980428279E+01  0.13003770170E+02  0.51100000000E-03 0.  1.
        -12    1    3    3    0    0 -0.40447534391E+01  0.46281410691E+01 -0.23672063715E+01  0.65866065728E+01  0.00000000000E+00 0.  1.
</event>
<event>
 7    1  0.2001181E-008  0.4614232E+02  0.7816164E-02  0.1320468E+00
        -11   -1    0    0    0    0  0.00000000000E+00  0.00000000000E+00  0.45593999997E+02  0.45594000000E+02  0.51100000000E-03 0.  1.
         11   -1    0    0    0    0 -0.00000000000E+00 -0.00000000000E+00 -0.45593999997E+02  0.45594000000E+02  0.51100000000E-03 0. -1.
    9900012    2    1    2    0    0  0.36217017826E+02 -0.24049164119E+02 -0.11793171080E+02  0.46142316975E+02  0.99999928356E+01 0.  0.
        -12    1    1    2    0    0 -0.36217017826E+02  0.24049164119E+02  0.11793171080E+02  0.45045683025E+02  0.00000000000E+00 0.  1.
         11    1    3    3    0    0  0.21243728205E+02 -0.12761219908E+02 -0.60137260997E+01  0.25501169061E+02  0.51100000000E-03 0. -1.
        -11    1    3    3    0    0  0.52673410919E+01 -0.24119267875E+01 -0.46713335566E+01  0.74420179028E+01  0.51100000000E-03 0.  1.
        -12    1    3    3    0    0  0.97059485288E+01 -0.88760174233E+01 -0.11081114235E+01  0.13199130012E+02  0.00000000000E+00 0.  1.
</event>
<event>
 7    1  0.2001181E-008  0.4614232E+02  0.7816164E-02  0.1320468E+00
        -11   -1    0    0    0    0  0.00000000000E+00  0.00000000000E+00  0.45593999997E+02  0.45594000000E+02  0.51100000000E-03 0. -1.
         11   -1    0    0    0    0 -0.00000000000E+00 -0.00000000000E+00 -0.45593999997E+02  0.45594000000E+02  0.51100000000E-03 0.  1.
    9900012    2    1    2    0    0  0.29906660686E+02  0.32976385677E+02  0.68748337155E+01  0.46142315364E+02  0.99999781395E+01 0.  0.
        -12    1    1    2    0    0 -0.29906660686E+02 -0.32976385677E+02 -0.68748337155E+01  0.45045684636E+02  0.00000000000E+00 0.  1.
         11    1    3    3    0    0  0.93355350140E+01  0.91209201450E+01  0.76592479797E+00  0.13074021545E+02  0.51100000000E-03 0. -1.
        -11    1    3    3    0    0  0.19832473105E+02  0.20520744229E+02  0.34624780462E+01  0.28747464022E+02  0.51100000000E-03 0.  1.
        -12    1    3    3    0    0  0.73865256674E+00  0.33347213032E+01  0.26464308714E+01  0.43208297977E+01  0.00000000000E+00 0.  1.
</event>
<event>
 7    1  0.2001181E-008  0.4614232E+02  0.7816164E-02  0.1320468E+00
        -11   -1    0    0    0    0  0.00000000000E+00  0.00000000000E+00  0.45593999997E+02  0.45594000000E+02  0.51100000000E-03 0.  1.
         11   -1    0    0    0    0 -0.00000000000E+00 -0.00000000000E+00 -0.45593999997E+02  0.45594000000E+02  0.51100000000E-03 0. -1.
    9900012    2    1    2    0    0 -0.42018989862E+02  0.68090531926E+01 -0.14736163140E+02  0.46142320757E+02  0.10000027315E+02 0.  0.
        -12    1    1    2    0    0  0.42018989862E+02 -0.68090531926E+01  0.14736163140E+02  0.45045679243E+02  0.00000000000E+00 0.  1.
         11    1    3    3    0    0 -0.13145117912E+02  0.13512230095E+01 -0.33772837303E+01  0.13639133924E+02  0.51100000000E-03 0. -1.
        -11    1    3    3    0    0 -0.16610841614E+02 -0.68452389501E+00 -0.48246046383E+01  0.17310847531E+02  0.51100000000E-03 0.  1.
        -12    1    3    3    0    0 -0.12263030336E+02  0.61423540782E+01 -0.65342747710E+01  0.15192339301E+02  0.00000000000E+00 0.  1.
</event>
<event>
 7    1  0.2001181E-008  0.4614231E+02  0.7816164E-02  0.1320468E+00
        -11   -1    0    0    0    0  0.00000000000E+00  0.00000000000E+00  0.45593999997E+02  0.45594000000E+02  0.51100000000E-03 0.  1.
         11   -1    0    0    0    0 -0.00000000000E+00 -0.00000000000E+00 -0.45593999997E+02  0.45594000000E+02  0.51100000000E-03 0. -1.
    9900012    2    1    2    0    0  0.23927779141E+01  0.12688534380E+02 -0.43155411231E+02  0.46142314198E+02  0.99999675102E+01 0.  0.
        -12    1    1    2    0    0 -0.23927779141E+01 -0.12688534380E+02  0.43155411231E+02  0.45045685802E+02  0.00000000000E+00 0.  1.
         11    1    3    3    0    0  0.11830445218E+01  0.22314225515E+01 -0.17023745128E+01  0.30458037013E+01  0.51100000000E-03 0. -1.
        -11    1    3    3    0    0 -0.68920676550E+00  0.90351288600E+01 -0.27817584923E+02  0.29256223110E+02  0.51100000000E-03 0.  1.
        -12    1    3    3    0    0  0.18989401578E+01  0.14219829689E+01 -0.13635451795E+02  0.13840287387E+02  0.00000000000E+00 0.  1.
</event>
<event>
 7    1  0.2001181E-008  0.4614232E+02  0.7816164E-02  0.1320468E+00
        -11   -1    0    0    0    0  0.00000000000E+00  0.00000000000E+00  0.45593999997E+02  0.45594000000E+02  0.51100000000E-03 0.  1.
         11   -1    0    0    0    0 -0.00000000000E+00 -0.00000000000E+00 -0.45593999997E+02  0.45594000000E+02  0.51100000000E-03 0. -1.
    9900012    2    1    2    0    0  0.99627039239E+01  0.34943172837E+02 -0.26623909745E+02  0.46142319103E+02  0.10000012235E+02 0.  0.
        -12    1    1    2    0    0 -0.99627039239E+01 -0.34943172837E+02  0.26623909745E+02  0.45045680897E+02  0.00000000000E+00 0.  1.
         11    1    3    3    0    0  0.48967582937E+01  0.17799526074E+02 -0.15329385702E+02  0.23995654534E+02  0.51100000000E-03 0. -1.
        -11    1    3    3    0    0  0.10443249073E+01  0.21609917250E+00  0.44737842807E+00  0.11564865254E+01  0.51100000000E-03 0.  1.
        -12    1    3    3    0    0  0.40216207229E+01  0.16927547590E+02 -0.11741902472E+02  0.20990178044E+02  0.00000000000E+00 0.  1.
</event>
<event>
 7    1  0.2001181E-008  0.4614231E+02  0.7816164E-02  0.1320468E+00
        -11   -1    0    0    0    0  0.00000000000E+00  0.00000000000E+00  0.45593999997E+02  0.45594000000E+02  0.51100000000E-03 0. -1.
         11   -1    0    0    0    0 -0.00000000000E+00 -0.00000000000E+00 -0.45593999997E+02  0.45594000000E+02  0.51100000000E-03 0.  1.
    9900012    2    1    2    0    0  0.28062707400E+02 -0.28143380524E+02  0.21202557152E+02  0.46142313817E+02  0.99999640307E+01 0.  0.
        -12    1    1    2    0    0 -0.28062707400E+02  0.28143380524E+02 -0.21202557152E+02  0.45045686183E+02  0.00000000000E+00 0.  1.
         11    1    3    3    0    0  0.14442965370E+02 -0.16950429575E+02  0.12933125836E+02  0.25752321364E+02  0.51100000000E-03 0. -1.
        -11    1    3    3    0    0  0.10815932508E+02 -0.11514975650E+02  0.66935216163E+01  0.17157572442E+02  0.51100000000E-03 0.  1.
        -12    1    3    3    0    0  0.28038095222E+01  0.32202470043E+00  0.15759096991E+01  0.32324200105E+01  0.00000000000E+00 0.  1.
</event>
<event>
 7    1  0.2001181E-008  0.4614232E+02  0.7816164E-02  0.1320468E+00
        -11   -1    0    0    0    0  0.00000000000E+00  0.00000000000E+00  0.45593999997E+02  0.45594000000E+02  0.51100000000E-03 0.  1.
         11   -1    0    0    0    0 -0.00000000000E+00 -0.00000000000E+00 -0.45593999997E+02  0.45594000000E+02  0.51100000000E-03 0. -1.
    9900012    2    1    2    0    0  0.40401316299E+02  0.19915190757E+02 -0.48202651414E+00  0.46142317286E+02  0.99999956701E+01 0.  0.
        -12    1    1    2    0    0 -0.40401316299E+02 -0.19915190757E+02  0.48202651414E+00  0.45045682714E+02  0.00000000000E+00 0.  1.
         11    1    3    3    0    0  0.11594521969E+00  0.60688258558E-01  0.64684261047E+00  0.65994846961E+00  0.51100000000E-03 0. -1.
        -11    1    3    3    0    0  0.13880571342E+02  0.96503322764E+01  0.19038294214E+01  0.17012458392E+02  0.51100000000E-03 0.  1.
         12    1    3    3    0    0  0.26404799738E+02  0.10204170222E+02 -0.30326985460E+01  0.28469910424E+02  0.00000000000E+00 0. -1.
</event>
<event>
 7    1  0.2001181E-008  0.4614232E+02  0.7816164E-02  0.1320468E+00
        -11   -1    0    0    0    0  0.00000000000E+00  0.00000000000E+00  0.45593999997E+02  0.45594000000E+02  0.51100000000E-03 0.  1.
         11   -1    0    0    0    0 -0.00000000000E+00 -0.00000000000E+00 -0.45593999997E+02  0.45594000000E+02  0.51100000000E-03 0. -1.
    9900012    2    1    2    0    0 -0.24822576296E+02 -0.22769101327E+02 -0.29908548097E+02  0.46142317427E+02  0.99999969550E+01 0.  0.
        -12    1    1    2    0    0  0.24822576296E+02  0.22769101327E+02  0.29908548097E+02  0.45045682573E+02  0.00000000000E+00 0.  1.
         11    1    3    3    0    0 -0.41350125612E+01 -0.24238910629E+01 -0.78522254644E+01  0.91995120398E+01  0.51100000000E-03 0. -1.
        -11    1    3    3    0    0  0.42708929449E+00 -0.37692159594E+00 -0.52084054406E+00  0.77184861755E+00  0.51100000000E-03 0.  1.
         12    1    3    3    0    0 -0.21114653029E+02 -0.19968288668E+02 -0.21535482088E+02  0.36170956770E+02  0.00000000000E+00 0. -1.
</event>
<event>
 7    1  0.2001181E-008  0.4614232E+02  0.7816164E-02  0.1320468E+00
        -11   -1    0    0    0    0  0.00000000000E+00  0.00000000000E+00  0.45593999997E+02  0.45594000000E+02  0.51100000000E-03 0. -1.
         11   -1    0    0    0    0 -0.00000000000E+00 -0.00000000000E+00 -0.45593999997E+02  0.45594000000E+02  0.51100000000E-03 0.  1.
    9900012    2    1    2    0    0  0.54448218525E+01 -0.29926091937E+02  0.33224935524E+02  0.46142318695E+02  0.10000008519E+02 0.  0.
        -12    1    1    2    0    0 -0.54448218525E+01  0.29926091937E+02 -0.33224935524E+02  0.45045681305E+02  0.00000000000E+00 0.  1.
         11    1    3    3    0    0 -0.12232342656E+01 -0.10824438907E+02  0.90533956474E+01  0.14164347946E+02  0.51100000000E-03 0. -1.
        -11    1    3    3    0    0  0.65312052578E+01 -0.13156888516E+02  0.14604613874E+02  0.20713645362E+02  0.51100000000E-03 0.  1.
        -12    1    3    3    0    0  0.13685086038E+00 -0.59447645149E+01  0.95669260026E+01  0.11264325387E+02  0.00000000000E+00 0.  1.
</event>
<event>
 7    1  0.2001181E-008  0.4614232E+02  0.7816164E-02  0.1320468E+00
        -11   -1    0    0    0    0  0.00000000000E+00  0.00000000000E+00  0.45593999997E+02  0.45594000000E+02  0.51100000000E-03 0. -1.
         11   -1    0    0    0    0 -0.00000000000E+00 -0.00000000000E+00 -0.45593999997E+02  0.45594000000E+02  0.51100000000E-03 0.  1.
    9900012    2    1    2    0    0 -0.43108686694E+02  0.12951955646E+02  0.17324869776E+01  0.46142317248E+02  0.99999953177E+01 0.  0.
        -12    1    1    2    0    0  0.43108686694E+02 -0.12951955646E+02 -0.17324869776E+01  0.45045682752E+02  0.00000000000E+00 0.  1.
         11    1    3    3    0    0 -0.82999789241E+01 -0.68580888909E+00  0.19731658381E+01  0.85588181228E+01  0.51100000000E-03 0. -1.
        -11    1    3    3    0    0 -0.23905435457E+02  0.78031613118E+01 -0.12372102165E+01  0.25177169425E+02  0.51100000000E-03 0.  1.
         12    1    3    3    0    0 -0.10903272312E+02  0.58346032229E+01  0.99653135605E+00  0.12406329700E+02  0.00000000000E+00 0. -1.
</event>
<event>
 7    1  0.2001181E-008  0.4614232E+02  0.7816164E-02  0.1320468E+00
        -11   -1    0    0    0    0  0.00000000000E+00  0.00000000000E+00  0.45593999997E+02  0.45594000000E+02  0.51100000000E-03 0. -1.
         11   -1    0    0    0    0 -0.00000000000E+00 -0.00000000000E+00 -0.45593999997E+02  0.45594000000E+02  0.51100000000E-03 0.  1.
    9900012    2    1    2    0    0 -0.35368117975E+02  0.22044663016E+02  0.17095101842E+02  0.46142318258E+02  0.10000004530E+02 0.  0.
        -12    1    1    2    0    0  0.35368117975E+02 -0.22044663016E+02 -0.17095101842E+02  0.45045681742E+02  0.00000000000E+00 0.  1.
         11    1    3    3    0    0 -0.49173914133E+01  0.51913420645E+01  0.18114041180E+01  0.73764460197E+01  0.51100000000E-03 0. -1.
        -11    1    3    3    0    0 -0.58167911158E+01  0.44561635561E+01  0.19436120976E+00  0.73300906587E+01  0.51100000000E-03 0.  1.
        -12    1    3    3    0    0 -0.24633935446E+02  0.12397157396E+02  0.15089336515E+02  0.31435781579E+02  0.00000000000E+00 0.  1.
</event>
<event>
 7    1  0.2001181E-008  0.4614232E+02  0.7816164E-02  0.1320468E+00
        -11   -1    0    0    0    0  0.00000000000E+00  0.00000000000E+00  0.45593999997E+02  0.45594000000E+02  0.51100000000E-03 0.  1.
         11   -1    0    0    0    0 -0.00000000000E+00 -0.00000000000E+00 -0.45593999997E+02  0.45594000000E+02  0.51100000000E-03 0. -1.
    9900012    2    1    2    0    0 -0.31458276546E+02  0.92392637919E+01 -0.30888935744E+02  0.46142317520E+02  0.99999978003E+01 0.  0.
        -12    1    1    2    0    0  0.31458276546E+02 -0.92392637919E+01  0.30888935744E+02  0.45045682480E+02  0.00000000000E+00 0.  1.
         11    1    3    3    0    0 -0.67288936798E+01  0.31711581809E+01 -0.97659036759E+01  0.12276283201E+02  0.51100000000E-03 0. -1.
        -11    1    3    3    0    0 -0.15124634180E+01  0.25761826752E+01 -0.21630439736E+01  0.36882275228E+01  0.51100000000E-03 0.  1.
         12    1    3    3    0    0 -0.23216919449E+02  0.34919229358E+01 -0.18959988095E+02  0.30177806796E+02  0.00000000000E+00 0. -1.
</event>
<event>
 7    1  0.2001181E-008  0.4614232E+02  0.7816164E-02  0.1320468E+00
        -11   -1    0    0    0    0  0.00000000000E+00  0.00000000000E+00  0.45593999997E+02  0.45594000000E+02  0.51100000000E-03 0.  1.
         11   -1    0    0    0    0 -0.00000000000E+00 -0.00000000000E+00 -0.45593999997E+02  0.45594000000E+02  0.51100000000E-03 0. -1.
    9900012    2    1    2    0    0 -0.23204415963E+02  0.36188764238E+02 -0.13455180345E+02  0.46142318128E+02  0.10000003342E+02 0.  0.
        -12    1    1    2    0    0  0.23204415963E+02 -0.36188764238E+02  0.13455180345E+02  0.45045681872E+02  0.00000000000E+00 0.  1.
         11    1    3    3    0    0 -0.26817256125E+01  0.67893385741E+01 -0.55250297129E+01  0.91549289525E+01  0.51100000000E-03 0. -1.
        -11    1    3    3    0    0 -0.72985403204E+00  0.16922101998E+01 -0.14044903004E+01  0.23170790952E+01  0.51100000000E-03 0.  1.
         12    1    3    3    0    0 -0.19792836318E+02  0.27707215464E+02 -0.65256603321E+01  0.34670310080E+02  0.00000000000E+00 0. -1.
</event>
<event>
 7    1  0.2001181E-008  0.4614232E+02  0.7816164E-02  0.1320468E+00
        -11   -1    0    0    0    0  0.00000000000E+00  0.00000000000E+00  0.45593999997E+02  0.45594000000E+02  0.51100000000E-03 0.  1.
         11   -1    0    0    0    0 -0.00000000000E+00 -0.00000000000E+00 -0.45593999997E+02  0.45594000000E+02  0.51100000000E-03 0. -1.
    9900012    2    1    2    0    0  0.10962981753E+02  0.20497474760E+02  0.38584708577E+02  0.46142321223E+02  0.10000031572E+02 0.  0.
        -12    1    1    2    0    0 -0.10962981753E+02 -0.20497474760E+02 -0.38584708577E+02  0.45045678777E+02  0.00000000000E+00 0.  1.
         11    1    3    3    0    0  0.17084306914E+01  0.71144690555E+01  0.92929286921E+01  0.11827634138E+02  0.51100000000E-03 0. -1.
        -11    1    3    3    0    0  0.91171407721E+01  0.13832738976E+02  0.29473482254E+02  0.33810546873E+02  0.51100000000E-03 0.  1.
        -12    1    3    3    0    0  0.13741028972E+00 -0.44973327146E+00 -0.18170236822E+00  0.50414021243E+00  0.00000000000E+00 0.  1.
</event>
<event>
 7    1  0.2001181E-008  0.4614232E+02  0.7816164E-02  0.1320468E+00
        -11   -1    0    0    0    0  0.00000000000E+00  0.00000000000E+00  0.45593999997E+02  0.45594000000E+02  0.51100000000E-03 0.  1.
         11   -1    0    0    0    0 -0.00000000000E+00 -0.00000000000E+00 -0.45593999997E+02  0.45594000000E+02  0.51100000000E-03 0. -1.
    9900012    2    1    2    0    0 -0.22686885206E+02 -0.37472374993E+02 -0.10499507417E+02  0.46142319808E+02  0.10000018666E+02 0.  0.
        -12    1    1    2    0    0  0.22686885206E+02  0.37472374993E+02  0.10499507417E+02  0.45045680192E+02  0.00000000000E+00 0.  1.
         11    1    3    3    0    0 -0.19434673540E+02 -0.31434205852E+02 -0.89847216102E+01  0.38033420249E+02  0.51100000000E-03 0. -1.
        -11    1    3    3    0    0 -0.38006247388E+01 -0.31693747836E+01 -0.33876589403E+00  0.49602870397E+01  0.51100000000E-03 0.  1.
         12    1    3    3    0    0  0.54841307307E+00 -0.28687943571E+01 -0.11760199127E+01  0.31486125194E+01  0.00000000000E+00 0. -1.
</event>
<event>
 7    1  0.2001181E-008  0.4614232E+02  0.7816164E-02  0.1320468E+00
        -11   -1    0    0    0    0  0.00000000000E+00  0.00000000000E+00  0.45593999997E+02  0.45594000000E+02  0.51100000000E-03 0. -1.
         11   -1    0    0    0    0 -0.00000000000E+00 -0.00000000000E+00 -0.45593999997E+02  0.45594000000E+02  0.51100000000E-03 0.  1.
    9900012    2    1    2    0    0 -0.35633269180E+02 -0.14801836254E+02  0.23244124586E+02  0.46142317002E+02  0.99999930802E+01 0.  0.
        -12    1    1    2    0    0  0.35633269180E+02  0.14801836254E+02 -0.23244124586E+02  0.45045682998E+02  0.00000000000E+00 0.  1.
         11    1    3    3    0    0 -0.11456802631E+02 -0.38203581342E+01  0.90030648375E+01  0.15063486965E+02  0.51100000000E-03 0. -1.
        -11    1    3    3    0    0 -0.64214315989E+01 -0.28636787658E+01  0.78457088576E+01  0.10535207050E+02  0.51100000000E-03 0.  1.
        -12    1    3    3    0    0 -0.17755034950E+02 -0.81177993545E+01  0.63953508914E+01  0.20543622987E+02  0.00000000000E+00 0.  1.
</event>
<event>
 7    1  0.2001181E-008  0.4614232E+02  0.7816164E-02  0.1320468E+00
        -11   -1    0    0    0    0  0.00000000000E+00  0.00000000000E+00  0.45593999997E+02  0.45594000000E+02  0.51100000000E-03 0.  1.
         11   -1    0    0    0    0 -0.00000000000E+00 -0.00000000000E+00 -0.45593999997E+02  0.45594000000E+02  0.51100000000E-03 0. -1.
    9900012    2    1    2    0    0 -0.15073994543E+02 -0.16954086650E+02 -0.38915898636E+02  0.46142317274E+02  0.99999955547E+01 0.  0.
        -12    1    1    2    0    0  0.15073994543E+02  0.16954086650E+02  0.38915898636E+02  0.45045682726E+02  0.00000000000E+00 0.  1.
         11    1    3    3    0    0 -0.81543762535E+01 -0.71458439953E+01 -0.18404614625E+02  0.21360870259E+02  0.51100000000E-03 0. -1.
        -11    1    3    3    0    0 -0.44795064083E+01 -0.18570471757E+01 -0.39705832834E+01  0.62673865165E+01  0.51100000000E-03 0.  1.
        -12    1    3    3    0    0 -0.24401118807E+01 -0.79511954792E+01 -0.16540700728E+02  0.18514060498E+02  0.00000000000E+00 0.  1.
</event>
<event>
 7    1  0.2001181E-008  0.4614230E+02  0.7816164E-02  0.1320468E+00
        -11   -1    0    0    0    0  0.00000000000E+00  0.00000000000E+00  0.45593999997E+02  0.45594000000E+02  0.51100000000E-03 0.  1.
         11   -1    0    0    0    0 -0.00000000000E+00 -0.00000000000E+00 -0.45593999997E+02  0.45594000000E+02  0.51100000000E-03 0. -1.
    9900012    2    1    2    0    0 -0.41520013692E+02  0.45471529255E+01 -0.16867914413E+02  0.46142304608E+02  0.99998800550E+01 0.  0.
        -12    1    1    2    0    0  0.41520013692E+02 -0.45471529255E+01  0.16867914413E+02  0.45045695392E+02  0.00000000000E+00 0.  1.
         11    1    3    3    0    0 -0.21803685433E+02  0.19739990815E+01 -0.78958235963E+01  0.23273190614E+02  0.51100000000E-03 0. -1.
        -11    1    3    3    0    0 -0.95308816717E+00  0.19392634551E+01 -0.27403657362E+00  0.21781221517E+01  0.51100000000E-03 0.  1.
        -12    1    3    3    0    0 -0.18763240092E+02  0.63389038887E+00 -0.86980542430E+01  0.20690991841E+02  0.00000000000E+00 0.  1.
</event>
<event>
 7    1  0.2001181E-008  0.4614232E+02  0.7816164E-02  0.1320468E+00
        -11   -1    0    0    0    0  0.00000000000E+00  0.00000000000E+00  0.45593999997E+02  0.45594000000E+02  0.51100000000E-03 0.  1.
         11   -1    0    0    0    0 -0.00000000000E+00 -0.00000000000E+00 -0.45593999997E+02  0.45594000000E+02  0.51100000000E-03 0. -1.
    9900012    2    1    2    0    0 -0.41668222254E+00 -0.33936009353E+02 -0.29619033400E+02  0.46142317693E+02  0.99999993835E+01 0.  0.
        -12    1    1    2    0    0  0.41668222254E+00  0.33936009353E+02  0.29619033400E+02  0.45045682307E+02  0.00000000000E+00 0.  1.
         11    1    3    3    0    0  0.38181904728E+00 -0.10751997519E+02 -0.65352349712E+01  0.12588110773E+02  0.51100000000E-03 0. -1.
        -11    1    3    3    0    0 -0.39382706073E+01 -0.16136322812E+02 -0.16483498771E+02  0.23400782492E+02  0.51100000000E-03 0.  1.
        -12    1    3    3    0    0  0.31397693375E+01 -0.70476890220E+01 -0.66002996584E+01  0.10153424428E+02  0.00000000000E+00 0.  1.
</event>
<event>
 7    1  0.2001181E-008  0.4614232E+02  0.7816164E-02  0.1320468E+00
        -11   -1    0    0    0    0  0.00000000000E+00  0.00000000000E+00  0.45593999997E+02  0.45594000000E+02  0.51100000000E-03 0.  1.
         11   -1    0    0    0    0 -0.00000000000E+00 -0.00000000000E+00 -0.45593999997E+02  0.45594000000E+02  0.51100000000E-03 0. -1.
    9900012    2    1    2    0    0  0.68396622089E+01 -0.39721048332E+02 -0.20113945247E+02  0.46142318153E+02  0.10000003569E+02 0.  0.
        -12    1    1    2    0    0 -0.68396622089E+01  0.39721048332E+02  0.20113945247E+02  0.45045681847E+02  0.00000000000E+00 0.  1.
         11    1    3    3    0    0 -0.82123658642E+00 -0.13870091211E+02 -0.37734105721E+01  0.14397655619E+02  0.51100000000E-03 0. -1.
        -11    1    3    3    0    0  0.12832447935E+01 -0.34285523201E+01 -0.85844692722E+00  0.37601355826E+01  0.51100000000E-03 0.  1.
        -12    1    3    3    0    0  0.63776540018E+01 -0.22422404801E+02 -0.15482087748E+02  0.27984526951E+02  0.00000000000E+00 0.  1.
</event>
<event>
 7    1  0.2001181E-008  0.4614232E+02  0.7816164E-02  0.1320468E+00
        -11   -1    0    0    0    0  0.00000000000E+00  0.00000000000E+00  0.45593999997E+02  0.45594000000E+02  0.51100000000E-03 0. -1.
         11   -1    0    0    0    0 -0.00000000000E+00 -0.00000000000E+00 -0.45593999997E+02  0.45594000000E+02  0.51100000000E-03 0.  1.
    9900012    2    1    2    0    0  0.59126367849E+01  0.43720075256E+02  0.90944602926E+01  0.46142318052E+02  0.10000002653E+02 0.  0.
        -12    1    1    2    0    0 -0.59126367849E+01 -0.43720075256E+02 -0.90944602926E+01  0.45045681948E+02  0.00000000000E+00 0.  1.
         11    1    3    3    0    0  0.13663003233E+01  0.95379969642E+00  0.16799174774E+01  0.23661431543E+01  0.51100000000E-03 0. -1.
        -11    1    3    3    0    0  0.16221821393E+01  0.20777692811E+02  0.19576651709E+01  0.20932664585E+02  0.51100000000E-03 0.  1.
         12    1    3    3    0    0  0.29241543223E+01  0.21988582748E+02  0.54568776442E+01  0.22843510313E+02  0.00000000000E+00 0. -1.
</event>
<event>
 7    1  0.2001181E-008  0.4614232E+02  0.7816164E-02  0.1320468E+00
        -11   -1    0    0    0    0  0.00000000000E+00  0.00000000000E+00  0.45593999997E+02  0.45594000000E+02  0.51100000000E-03 0.  1.
         11   -1    0    0    0    0 -0.00000000000E+00 -0.00000000000E+00 -0.45593999997E+02  0.45594000000E+02  0.51100000000E-03 0. -1.
    9900012    2    1    2    0    0  0.22043256268E+02 -0.26123929926E+02 -0.29338514586E+02  0.46142319854E+02  0.10000019086E+02 0.  0.
        -12    1    1    2    0    0 -0.22043256268E+02  0.26123929926E+02  0.29338514586E+02  0.45045680146E+02  0.00000000000E+00 0.  1.
         11    1    3    3    0    0  0.39153140432E+01 -0.91791821460E+01 -0.70750254680E+01  0.12232867798E+02  0.51100000000E-03 0. -1.
        -11    1    3    3    0    0  0.71751573351E+00  0.63611887162E-01  0.24183182366E+00  0.75984089919E+00  0.51100000000E-03 0.  1.
         12    1    3    3    0    0  0.17410426491E+02 -0.17008359667E+02 -0.22505320942E+02  0.33149611157E+02  0.00000000000E+00 0. -1.
</event>
<event>
 7    1  0.2001181E-008  0.4614232E+02  0.7816164E-02  0.1320468E+00
        -11   -1    0    0    0    0  0.00000000000E+00  0.00000000000E+00  0.45593999997E+02  0.45594000000E+02  0.51100000000E-03 0.  1.
         11   -1    0    0    0    0 -0.00000000000E+00 -0.00000000000E+00 -0.45593999997E+02  0.45594000000E+02  0.51100000000E-03 0. -1.
    9900012    2    1    2    0    0 -0.22032683441E+02  0.12442634049E+01 -0.39269912989E+02  0.46142318773E+02  0.10000009231E+02 0.  0.
        -12    1    1    2    0    0  0.22032683441E+02 -0.12442634049E+01  0.39269912989E+02  0.45045681227E+02  0.00000000000E+00 0.  1.
         11    1    3    3    0    0 -0.11109186958E+02  0.51728412566E+01 -0.23383409443E+02  0.26399927253E+02  0.51100000000E-03 0. -1.
        -11    1    3    3    0    0 -0.58569118212E+01 -0.27883359632E+01 -0.79980317851E+01  0.10297900088E+02  0.51100000000E-03 0.  1.
        -12    1    3    3    0    0 -0.50665846611E+01 -0.11402418886E+01 -0.78884717606E+01  0.94444914320E+01  0.00000000000E+00 0.  1.
</event>
<event>
 7    1  0.2001181E-008  0.4614232E+02  0.7816164E-02  0.1320468E+00
        -11   -1    0    0    0    0  0.00000000000E+00  0.00000000000E+00  0.45593999997E+02  0.45594000000E+02  0.51100000000E-03 0.  1.
         11   -1    0    0    0    0 -0.00000000000E+00 -0.00000000000E+00 -0.45593999997E+02  0.45594000000E+02  0.51100000000E-03 0. -1.
    9900012    2    1    2    0    0 -0.33003139546E+02  0.20406237242E+02 -0.22879944488E+02  0.46142316544E+02  0.99999889002E+01 0.  0.
        -12    1    1    2    0    0  0.33003139546E+02 -0.20406237242E+02  0.22879944488E+02  0.45045683456E+02  0.00000000000E+00 0.  1.
         11    1    3    3    0    0 -0.13112546625E+02  0.81684630119E+01 -0.10631125237E+02  0.18753226150E+02  0.51100000000E-03 0. -1.
        -11    1    3    3    0    0 -0.12822337415E+02  0.39461618560E+01 -0.50732637889E+01  0.14343030918E+02  0.51100000000E-03 0.  1.
        -12    1    3    3    0    0 -0.70682555054E+01  0.82916123743E+01 -0.71755554620E+01  0.13046059476E+02  0.00000000000E+00 0.  1.
</event>
<event>
 7    1  0.2001181E-008  0.4614232E+02  0.7816164E-02  0.1320468E+00
        -11   -1    0    0    0    0  0.00000000000E+00  0.00000000000E+00  0.45593999997E+02  0.45594000000E+02  0.51100000000E-03 0.  1.
         11   -1    0    0    0    0 -0.00000000000E+00 -0.00000000000E+00 -0.45593999997E+02  0.45594000000E+02  0.51100000000E-03 0. -1.
    9900012    2    1    2    0    0  0.37975559731E+02  0.15162456128E+02 -0.18896302498E+02  0.46142318068E+02  0.10000002794E+02 0.  0.
        -12    1    1    2    0    0 -0.37975559731E+02 -0.15162456128E+02  0.18896302498E+02  0.45045681932E+02  0.00000000000E+00 0.  1.
         11    1    3    3    0    0  0.13879474192E+02  0.57730110840E+01 -0.61396809185E+01  0.16237707439E+02  0.51100000000E-03 0. -1.
        -11    1    3    3    0    0  0.14353923806E+02  0.94570441452E+01 -0.67993589632E+01  0.18485185830E+02  0.51100000000E-03 0.  1.
         12    1    3    3    0    0  0.97421617323E+01 -0.67599101527E-01 -0.59572626159E+01  0.11419424799E+02  0.00000000000E+00 0. -1.
</event>
<event>
 7    1  0.2001181E-008  0.4614231E+02  0.7816164E-02  0.1320468E+00
        -11   -1    0    0    0    0  0.00000000000E+00  0.00000000000E+00  0.45593999997E+02  0.45594000000E+02  0.51100000000E-03 0.  1.
         11   -1    0    0    0    0 -0.00000000000E+00 -0.00000000000E+00 -0.45593999997E+02  0.45594000000E+02  0.51100000000E-03 0. -1.
    9900012    2    1    2    0    0  0.25525493264E+02 -0.33119122679E+02  0.16753712506E+02  0.46142312347E+02  0.99999506290E+01 0.  0.
        -12    1    1    2    0    0 -0.25525493264E+02  0.33119122679E+02 -0.16753712506E+02  0.45045687653E+02  0.00000000000E+00 0.  1.
         11    1    3    3    0    0  0.11766609372E+02 -0.21983704875E+02  0.12231349191E+02  0.27773049516E+02  0.51100000000E-03 0. -1.
        -11    1    3    3    0    0  0.60618205188E+01 -0.42014958639E+01  0.26778975168E+01  0.78466152492E+01  0.51100000000E-03 0.  1.
         12    1    3    3    0    0  0.76970633730E+01 -0.69339219404E+01  0.18444657986E+01  0.10522647582E+02  0.00000000000E+00 0. -1.
</event>
<event>
 7    1  0.2001181E-008  0.4614232E+02  0.7816164E-02  0.1320468E+00
        -11   -1    0    0    0    0  0.00000000000E+00  0.00000000000E+00  0.45593999997E+02  0.45594000000E+02  0.51100000000E-03 0.  1.
         11   -1    0    0    0    0 -0.00000000000E+00 -0.00000000000E+00 -0.45593999997E+02  0.45594000000E+02  0.51100000000E-03 0. -1.
    9900012    2    1    2    0    0 -0.38015940275E+02 -0.84661099825E+01 -0.22632427843E+02  0.46142317373E+02  0.99999964641E+01 0.  0.
        -12    1    1    2    0    0  0.38015940275E+02  0.84661099825E+01  0.22632427843E+02  0.45045682627E+02  0.00000000000E+00 0.  1.
         11    1    3    3    0    0 -0.17166775961E+02 -0.38274758553E+01 -0.12313603257E+02  0.21470272326E+02  0.51100000000E-03 0. -1.
        -11    1    3    3    0    0 -0.14274998036E+02 -0.41378389267E+01 -0.10292961319E+02  0.18078781289E+02  0.51100000000E-03 0.  1.
        -12    1    3    3    0    0 -0.65741662783E+01 -0.50079520050E+00 -0.25863267380E-01  0.65932637590E+01  0.00000000000E+00 0.  1.
</event>
<event>
 7    1  0.2001181E-008  0.4614232E+02  0.7816164E-02  0.1320468E+00
        -11   -1    0    0    0    0  0.00000000000E+00  0.00000000000E+00  0.45593999997E+02  0.45594000000E+02  0.51100000000E-03 0. -1.
         11   -1    0    0    0    0 -0.00000000000E+00 -0.00000000000E+00 -0.45593999997E+02  0.45594000000E+02  0.51100000000E-03 0.  1.
    9900012    2    1    2    0    0  0.24294329174E+02  0.21050552952E+01  0.37874369579E+02  0.46142316979E+02  0.99999928693E+01 0.  0.
        -12    1    1    2    0    0 -0.24294329174E+02 -0.21050552952E+01 -0.37874369579E+02  0.45045683021E+02  0.00000000000E+00 0.  1.
         11    1    3    3    0    0  0.12690870452E+02  0.11251166175E+01  0.18462599092E+02  0.22431933615E+02  0.51100000000E-03 0. -1.
        -11    1    3    3    0    0  0.59267220723E+01  0.36666470779E+01  0.12907786507E+02  0.14669058868E+02  0.51100000000E-03 0.  1.
        -12    1    3    3    0    0  0.56767366499E+01 -0.26867084001E+01  0.65039839804E+01  0.90413244957E+01  0.00000000000E+00 0.  1.
</event>
<event>
 7    1  0.2001181E-008  0.4614232E+02  0.7816164E-02  0.1320468E+00
        -11   -1    0    0    0    0  0.00000000000E+00  0.00000000000E+00  0.45593999997E+02  0.45594000000E+02  0.51100000000E-03 0. -1.
         11   -1    0    0    0    0 -0.00000000000E+00 -0.00000000000E+00 -0.45593999997E+02  0.45594000000E+02  0.51100000000E-03 0.  1.
    9900012    2    1    2    0    0  0.23668275300E+01  0.37380625347E+02  0.25023996638E+02  0.46142318391E+02  0.10000005743E+02 0.  0.
        -12    1    1    2    0    0 -0.23668275300E+01 -0.37380625347E+02 -0.25023996638E+02  0.45045681609E+02  0.00000000000E+00 0.  1.
         11    1    3    3    0    0 -0.19973279547E+01  0.79098596622E+01  0.86030621878E+01  0.11856132510E+02  0.51100000000E-03 0. -1.
        -11    1    3    3    0    0  0.13971137382E+01  0.64874974748E+01  0.57185674936E+01  0.87602262941E+01  0.51100000000E-03 0.  1.
         12    1    3    3    0    0  0.29670417465E+01  0.22983268210E+02  0.10702366957E+02  0.25525959586E+02  0.00000000000E+00 0. -1.
</event>
<event>
 7    1  0.2001181E-008  0.4614232E+02  0.7816164E-02  0.1320468E+00
        -11   -1    0    0    0    0  0.00000000000E+00  0.00000000000E+00  0.45593999997E+02  0.45594000000E+02  0.51100000000E-03 0.  1.
         11   -1    0    0    0    0 -0.00000000000E+00 -0.00000000000E+00 -0.45593999997E+02  0.45594000000E+02  0.51100000000E-03 0. -1.
    9900012    2    1    2    0    0 -0.58957033905E+00 -0.99422222406E+01 -0.43930832889E+02  0.46142318136E+02  0.10000003421E+02 0.  0.
        -12    1    1    2    0    0  0.58957033905E+00  0.99422222406E+01  0.43930832889E+02  0.45045681864E+02  0.00000000000E+00 0.  1.
         11    1    3    3    0    0 -0.10135354953E+01 -0.17032669482E+00 -0.70787557503E+01  0.71529748089E+01  0.51100000000E-03 0. -1.
        -11    1    3    3    0    0 -0.11538542488E+01 -0.27316652622E+01 -0.24726220276E+01  0.38609888222E+01  0.51100000000E-03 0.  1.
         12    1    3    3    0    0  0.15778194050E+01 -0.70402302836E+01 -0.34379455111E+02  0.35128354505E+02  0.00000000000E+00 0. -1.
</event>
<event>
 7    1  0.2001181E-008  0.4614232E+02  0.7816164E-02  0.1320468E+00
        -11   -1    0    0    0    0  0.00000000000E+00  0.00000000000E+00  0.45593999997E+02  0.45594000000E+02  0.51100000000E-03 0.  1.
         11   -1    0    0    0    0 -0.00000000000E+00 -0.00000000000E+00 -0.45593999997E+02  0.45594000000E+02  0.51100000000E-03 0. -1.
    9900012    2    1    2    0    0 -0.23931334244E+01 -0.43244749254E+02  0.12380546561E+02  0.46142319200E+02  0.10000013117E+02 0.  0.
        -12    1    1    2    0    0  0.23931334244E+01  0.43244749254E+02 -0.12380546561E+02  0.45045680800E+02  0.00000000000E+00 0.  1.
         11    1    3    3    0    0  0.17361219816E+01 -0.64391620929E+01  0.34747035493E+01  0.75200061842E+01  0.51100000000E-03 0. -1.
        -11    1    3    3    0    0  0.66864183075E+00 -0.52802024287E+00  0.74073546754E+00  0.11289714650E+01  0.51100000000E-03 0.  1.
         12    1    3    3    0    0 -0.47978972368E+01 -0.36277566918E+02  0.81651075438E+01  0.37493341550E+02  0.00000000000E+00 0. -1.
</event>
<event>
 7    1  0.2001181E-008  0.4614232E+02  0.7816164E-02  0.1320468E+00
        -11   -1    0    0    0    0  0.00000000000E+00  0.00000000000E+00  0.45593999997E+02  0.45594000000E+02  0.51100000000E-03 0.  1.
         11   -1    0    0    0    0 -0.00000000000E+00 -0.00000000000E+00 -0.45593999997E+02  0.45594000000E+02  0.51100000000E-03 0. -1.
    9900012    2    1    2    0    0  0.64154379731E+01  0.15813917059E+02 -0.41687836572E+02  0.46142317242E+02  0.99999952629E+01 0.  0.
        -12    1    1    2    0    0 -0.64154379731E+01 -0.15813917059E+02  0.41687836572E+02  0.45045682758E+02  0.00000000000E+00 0.  1.
         11    1    3    3    0    0  0.45997732652E+01  0.47221700655E+01 -0.17630165388E+02  0.18822314844E+02  0.51100000000E-03 0. -1.
        -11    1    3    3    0    0 -0.37435228229E+00  0.12138965915E+00  0.31404512393E+00  0.50348751880E+00  0.51100000000E-03 0.  1.
         12    1    3    3    0    0  0.21900169901E+01  0.10970357335E+02 -0.24371716308E+02  0.26816514879E+02  0.00000000000E+00 0. -1.
</event>
<event>
 7    1  0.2001181E-008  0.4614232E+02  0.7816164E-02  0.1320468E+00
        -11   -1    0    0    0    0  0.00000000000E+00  0.00000000000E+00  0.45593999997E+02  0.45594000000E+02  0.51100000000E-03 0.  1.
         11   -1    0    0    0    0 -0.00000000000E+00 -0.00000000000E+00 -0.45593999997E+02  0.45594000000E+02  0.51100000000E-03 0. -1.
    9900012    2    1    2    0    0 -0.41071475432E+02 -0.12216319957E+01 -0.18459547847E+02  0.46142318902E+02  0.10000010401E+02 0.  0.
        -12    1    1    2    0    0  0.41071475432E+02  0.12216319957E+01  0.18459547847E+02  0.45045681098E+02  0.00000000000E+00 0.  1.
         11    1    3    3    0    0 -0.70785695180E+01 -0.17788329120E-02 -0.52400920186E+01  0.88070831840E+01  0.51100000000E-03 0. -1.
        -11    1    3    3    0    0 -0.24646214691E+02  0.22528610489E+01 -0.11183793612E+02  0.27158580988E+02  0.51100000000E-03 0.  1.
         12    1    3    3    0    0 -0.93466912233E+01 -0.34727142117E+01 -0.20356622164E+01  0.10176654729E+02  0.00000000000E+00 0. -1.
</event>
<event>
 7    1  0.2001181E-008  0.4614232E+02  0.7816164E-02  0.1320468E+00
        -11   -1    0    0    0    0  0.00000000000E+00  0.00000000000E+00  0.45593999997E+02  0.45594000000E+02  0.51100000000E-03 0.  1.
         11   -1    0    0    0    0 -0.00000000000E+00 -0.00000000000E+00 -0.45593999997E+02  0.45594000000E+02  0.51100000000E-03 0. -1.
    9900012    2    1    2    0    0 -0.16374304551E+02 -0.34867799082E+02 -0.23350206387E+02  0.46142318734E+02  0.10000008874E+02 0.  0.
        -12    1    1    2    0    0  0.16374304551E+02  0.34867799082E+02  0.23350206387E+02  0.45045681266E+02  0.00000000000E+00 0.  1.
         11    1    3    3    0    0 -0.63488932661E+01 -0.76787756954E+01 -0.85228907296E+01  0.13111510536E+02  0.51100000000E-03 0. -1.
        -11    1    3    3    0    0 -0.29097650330E+00 -0.99332976096E-01  0.36895667686E+00  0.48027456328E+00  0.51100000000E-03 0.  1.
         12    1    3    3    0    0 -0.97344347821E+01 -0.27089690410E+02 -0.15196272334E+02  0.32550533635E+02  0.00000000000E+00 0. -1.
</event>
<event>
 7    1  0.2001181E-008  0.4614232E+02  0.7816164E-02  0.1320468E+00
        -11   -1    0    0    0    0  0.00000000000E+00  0.00000000000E+00  0.45593999997E+02  0.45594000000E+02  0.51100000000E-03 0. -1.
         11   -1    0    0    0    0 -0.00000000000E+00 -0.00000000000E+00 -0.45593999997E+02  0.45594000000E+02  0.51100000000E-03 0.  1.
    9900012    2    1    2    0    0  0.27272144946E+02 -0.31130069969E+02  0.17783765346E+02  0.46142318119E+02  0.10000003262E+02 0.  0.
        -12    1    1    2    0    0 -0.27272144946E+02  0.31130069969E+02 -0.17783765346E+02  0.45045681881E+02  0.00000000000E+00 0.  1.
         11    1    3    3    0    0  0.94992575018E-01 -0.54299627562E+00  0.13260260414E+01  0.14360410399E+01  0.51100000000E-03 0.  1.
        -11    1    3    3    0    0  0.26046501986E+01 -0.29387426684E+01  0.41726113479E+01  0.57298426549E+01  0.51100000000E-03 0. -1.
         12    1    3    3    0    0  0.24572502172E+02 -0.27648331025E+02  0.12285127957E+02  0.38976434424E+02  0.00000000000E+00 0. -1.
</event>
<event>
 7    1  0.2001181E-008  0.4614232E+02  0.7816164E-02  0.1320468E+00
        -11   -1    0    0    0    0  0.00000000000E+00  0.00000000000E+00  0.45593999997E+02  0.45594000000E+02  0.51100000000E-03 0.  1.
         11   -1    0    0    0    0 -0.00000000000E+00 -0.00000000000E+00 -0.45593999997E+02  0.45594000000E+02  0.51100000000E-03 0. -1.
    9900012    2    1    2    0    0  0.27036829702E+02 -0.33332800889E+02 -0.13676536669E+02  0.46142318401E+02  0.10000005839E+02 0.  0.
        -12    1    1    2    0    0 -0.27036829702E+02  0.33332800889E+02  0.13676536669E+02  0.45045681599E+02  0.00000000000E+00 0.  1.
         11    1    3    3    0    0  0.61710255111E+01 -0.63559860877E+01  0.13865866672E+00  0.88599854116E+01  0.51100000000E-03 0. -1.
        -11    1    3    3    0    0  0.16929332151E+02 -0.21964841961E+02 -0.85626511559E+01  0.29023706940E+02  0.51100000000E-03 0.  1.
        -12    1    3    3    0    0  0.39364720396E+01 -0.50119728396E+01 -0.52525441803E+01  0.82586260497E+01  0.00000000000E+00 0.  1.
</event>
<event>
 7    1  0.2001181E-008  0.4614232E+02  0.7816164E-02  0.1320468E+00
        -11   -1    0    0    0    0  0.00000000000E+00  0.00000000000E+00  0.45593999997E+02  0.45594000000E+02  0.51100000000E-03 0.  1.
         11   -1    0    0    0    0 -0.00000000000E+00 -0.00000000000E+00 -0.45593999997E+02  0.45594000000E+02  0.51100000000E-03 0. -1.
    9900012    2    1    2    0    0  0.88446795759E+01  0.32589291865E+02 -0.29813134514E+02  0.46142319956E+02  0.10000020019E+02 0.  0.
        -12    1    1    2    0    0 -0.88446795759E+01 -0.32589291865E+02  0.29813134514E+02  0.45045680044E+02  0.00000000000E+00 0.  1.
         11    1    3    3    0    0 -0.30244997402E+00  0.35129571444E+00 -0.50281899814E+00  0.68389463500E+00  0.51100000000E-03 0. -1.
        -11    1    3    3    0    0  0.29481407318E-01  0.96429067684E+01 -0.12801348510E+02  0.16026885039E+02  0.51100000000E-03 0.  1.
        -12    1    3    3    0    0  0.91176481426E+01  0.22595089382E+02 -0.16508967005E+02  0.29431540283E+02  0.00000000000E+00 0.  1.
</event>
<event>
 7    1  0.2001181E-008  0.4614232E+02  0.7816164E-02  0.1320468E+00
        -11   -1    0    0    0    0  0.00000000000E+00  0.00000000000E+00  0.45593999997E+02  0.45594000000E+02  0.51100000000E-03 0.  1.
         11   -1    0    0    0    0 -0.00000000000E+00 -0.00000000000E+00 -0.45593999997E+02  0.45594000000E+02  0.51100000000E-03 0. -1.
    9900012    2    1    2    0    0  0.14756036044E+02 -0.32979913234E+02 -0.26901640194E+02  0.46142317390E+02  0.99999966164E+01 0.  0.
        -12    1    1    2    0    0 -0.14756036044E+02  0.32979913234E+02  0.26901640194E+02  0.45045682610E+02  0.00000000000E+00 0.  1.
         11    1    3    3    0    0  0.79580680965E+01 -0.22933222245E+02 -0.20240192741E+02  0.31605837006E+02  0.51100000000E-03 0. -1.
        -11    1    3    3    0    0  0.11174292877E+01  0.25464366609E+00 -0.42909162580E+00  0.12237693795E+01  0.51100000000E-03 0.  1.
         12    1    3    3    0    0  0.56805386599E+01 -0.10301334655E+02 -0.62323558270E+01  0.13312711005E+02  0.00000000000E+00 0. -1.
</event>
<event>
 7    1  0.2001181E-008  0.4614232E+02  0.7816164E-02  0.1320468E+00
        -11   -1    0    0    0    0  0.00000000000E+00  0.00000000000E+00  0.45593999997E+02  0.45594000000E+02  0.51100000000E-03 0. -1.
         11   -1    0    0    0    0 -0.00000000000E+00 -0.00000000000E+00 -0.45593999997E+02  0.45594000000E+02  0.51100000000E-03 0.  1.
    9900012    2    1    2    0    0 -0.31008475748E+02  0.27964022981E+02  0.16899742665E+02  0.46142318169E+02  0.10000003720E+02 0.  0.
        -12    1    1    2    0    0  0.31008475748E+02 -0.27964022981E+02 -0.16899742665E+02  0.45045681831E+02  0.00000000000E+00 0.  1.
         11    1    3    3    0    0 -0.13124571732E+02  0.15900944968E+02  0.11281835379E+02  0.23502643336E+02  0.51100000000E-03 0. -1.
        -11    1    3    3    0    0 -0.42013296290E+01  0.30486339878E+01 -0.34719402401E+00  0.52024882311E+01  0.51100000000E-03 0.  1.
        -12    1    3    3    0    0 -0.13682574387E+02  0.90144440253E+01  0.59651013094E+01  0.17437186602E+02  0.00000000000E+00 0.  1.
</event>
<event>
 7    1  0.2001181E-008  0.4614232E+02  0.7816164E-02  0.1320468E+00
        -11   -1    0    0    0    0  0.00000000000E+00  0.00000000000E+00  0.45593999997E+02  0.45594000000E+02  0.51100000000E-03 0.  1.
         11   -1    0    0    0    0 -0.00000000000E+00 -0.00000000000E+00 -0.45593999997E+02  0.45594000000E+02  0.51100000000E-03 0. -1.
    9900012    2    1    2    0    0  0.13289603921E+01 -0.29471919995E+02 -0.34040461732E+02  0.46142320530E+02  0.10000025250E+02 0.  0.
        -12    1    1    2    0    0 -0.13289603921E+01  0.29471919995E+02  0.34040461732E+02  0.45045679470E+02  0.00000000000E+00 0.  1.
         11    1    3    3    0    0 -0.16350249056E+01 -0.33730655707E+01 -0.66307937525E+01  0.76169747168E+01  0.51100000000E-03 0. -1.
        -11    1    3    3    0    0 -0.35629275634E+00 -0.43925798197E+01 -0.17226767414E+01  0.47317351381E+01  0.51100000000E-03 0.  1.
         12    1    3    3    0    0  0.33202780540E+01 -0.21706274605E+02 -0.25686991239E+02  0.33793610675E+02  0.00000000000E+00 0. -1.
</event>
<event>
 7    1  0.2001181E-008  0.4614232E+02  0.7816164E-02  0.1320468E+00
        -11   -1    0    0    0    0  0.00000000000E+00  0.00000000000E+00  0.45593999997E+02  0.45594000000E+02  0.51100000000E-03 0.  1.
         11   -1    0    0    0    0 -0.00000000000E+00 -0.00000000000E+00 -0.45593999997E+02  0.45594000000E+02  0.51100000000E-03 0. -1.
    9900012    2    1    2    0    0  0.42773851710E+02 -0.10330660337E+02 -0.96326813983E+01  0.46142317809E+02  0.10000000435E+02 0.  0.
        -12    1    1    2    0    0 -0.42773851710E+02  0.10330660337E+02  0.96326813983E+01  0.45045682191E+02  0.00000000000E+00 0.  1.
         11    1    3    3    0    0  0.44906203976E+01 -0.28193741387E+01 -0.16132161139E+01  0.55422927188E+01  0.51100000000E-03 0. -1.
        -11    1    3    3    0    0  0.27704612519E+01 -0.26969305822E+01  0.43292045507E-01  0.38666218558E+01  0.51100000000E-03 0.  1.
         12    1    3    3    0    0  0.35512770061E+02 -0.48143556164E+01 -0.80627573300E+01  0.36733403234E+02  0.00000000000E+00 0. -1.
</event>
<event>
 7    1  0.2001181E-008  0.4614232E+02  0.7816164E-02  0.1320468E+00
        -11   -1    0    0    0    0  0.00000000000E+00  0.00000000000E+00  0.45593999997E+02  0.45594000000E+02  0.51100000000E-03 0.  1.
         11   -1    0    0    0    0 -0.00000000000E+00 -0.00000000000E+00 -0.45593999997E+02  0.45594000000E+02  0.51100000000E-03 0. -1.
    9900012    2    1    2    0    0  0.26428404744E+02  0.28283800755E+01 -0.36368297420E+02  0.46142319092E+02  0.10000012141E+02 0.  0.
        -12    1    1    2    0    0 -0.26428404744E+02 -0.28283800755E+01  0.36368297420E+02  0.45045680908E+02  0.00000000000E+00 0.  1.
         11    1    3    3    0    0  0.38409036502E+01  0.23292983896E+00 -0.43107675942E+01  0.57783660902E+01  0.51100000000E-03 0. -1.
        -11    1    3    3    0    0  0.18847105400E+00 -0.84196908947E+00 -0.49835235997E+01  0.50576616154E+01  0.51100000000E-03 0.  1.
        -12    1    3    3    0    0  0.22399030040E+02  0.34374193260E+01 -0.27074006226E+02  0.35306291387E+02  0.00000000000E+00 0.  1.
</event>
<event>
 7    1  0.2001181E-008  0.4614232E+02  0.7816164E-02  0.1320468E+00
        -11   -1    0    0    0    0  0.00000000000E+00  0.00000000000E+00  0.45593999997E+02  0.45594000000E+02  0.51100000000E-03 0.  1.
         11   -1    0    0    0    0 -0.00000000000E+00 -0.00000000000E+00 -0.45593999997E+02  0.45594000000E+02  0.51100000000E-03 0. -1.
    9900012    2    1    2    0    0  0.84974846536E+01  0.44136844170E+02 -0.29740833011E+01  0.46142318407E+02  0.10000005890E+02 0.  0.
        -12    1    1    2    0    0 -0.84974846536E+01 -0.44136844170E+02  0.29740833011E+01  0.45045681593E+02  0.00000000000E+00 0.  1.
         11    1    3    3    0    0 -0.11800339441E+01  0.59580920331E+01 -0.62224534827E+00  0.61056146552E+01  0.51100000000E-03 0. -1.
        -11    1    3    3    0    0 -0.92443271019E+00  0.29186260356E+01  0.51987434194E+00  0.31053539837E+01  0.51100000000E-03 0.  1.
         12    1    3    3    0    0  0.10601951308E+02  0.35260126101E+02 -0.28717122948E+01  0.36931349768E+02  0.00000000000E+00 0. -1.
</event>
<event>
 7    1  0.2001181E-008  0.4614233E+02  0.7816164E-02  0.1320468E+00
        -11   -1    0    0    0    0  0.00000000000E+00  0.00000000000E+00  0.45593999997E+02  0.45594000000E+02  0.51100000000E-03 0. -1.
         11   -1    0    0    0    0 -0.00000000000E+00 -0.00000000000E+00 -0.45593999997E+02  0.45594000000E+02  0.51100000000E-03 0.  1.
    9900012    2    1    2    0    0 -0.31150077937E+02 -0.18099401394E+02  0.27040650121E+02  0.46142329340E+02  0.10000105585E+02 0.  0.
        -12    1    1    2    0    0  0.31150077937E+02  0.18099401394E+02 -0.27040650121E+02  0.45045670660E+02  0.00000000000E+00 0.  1.
         11    1    3    3    0    0 -0.43915218813E+01 -0.49710497846E+01  0.27379033534E+01  0.71758564248E+01  0.51100000000E-03 0. -1.
        -11    1    3    3    0    0 -0.11232545273E+02 -0.28584514017E+01  0.11812508891E+02  0.16549204944E+02  0.51100000000E-03 0.  1.
         12    1    3    3    0    0 -0.15526010782E+02 -0.10269900208E+02  0.12490237876E+02  0.22417267971E+02  0.00000000000E+00 0. -1.
</event>
<event>
 7    1  0.2001181E-008  0.4614232E+02  0.7816164E-02  0.1320468E+00
        -11   -1    0    0    0    0  0.00000000000E+00  0.00000000000E+00  0.45593999997E+02  0.45594000000E+02  0.51100000000E-03 0.  1.
         11   -1    0    0    0    0 -0.00000000000E+00 -0.00000000000E+00 -0.45593999997E+02  0.45594000000E+02  0.51100000000E-03 0. -1.
    9900012    2    1    2    0    0 -0.25060896057E+02 -0.30267830344E+02 -0.22020976957E+02  0.46142317731E+02  0.99999997243E+01 0.  0.
        -12    1    1    2    0    0  0.25060896057E+02  0.30267830344E+02  0.22020976957E+02  0.45045682269E+02  0.00000000000E+00 0.  1.
         11    1    3    3    0    0 -0.11853570435E+02 -0.11881937901E+02 -0.10781151325E+02  0.19947952389E+02  0.51100000000E-03 0. -1.
        -11    1    3    3    0    0 -0.83749034279E+01 -0.15886178277E+02 -0.69138338323E+01  0.19243460349E+02  0.51100000000E-03 0.  1.
        -12    1    3    3    0    0 -0.48324221943E+01 -0.24997141666E+01 -0.43259917997E+01  0.69509049935E+01  0.00000000000E+00 0.  1.
</event>
<event>
 7    1  0.2001181E-008  0.4614232E+02  0.7816164E-02  0.1320468E+00
        -11   -1    0    0    0    0  0.00000000000E+00  0.00000000000E+00  0.45593999997E+02  0.45594000000E+02  0.51100000000E-03 0.  1.
         11   -1    0    0    0    0 -0.00000000000E+00 -0.00000000000E+00 -0.45593999997E+02  0.45594000000E+02  0.51100000000E-03 0. -1.
    9900012    2    1    2    0    0  0.11198876967E+02 -0.42091175918E+02 -0.11490497569E+02  0.46142317967E+02  0.10000001876E+02 0.  0.
        -12    1    1    2    0    0 -0.11198876967E+02  0.42091175918E+02  0.11490497569E+02  0.45045682033E+02  0.00000000000E+00 0.  1.
         11    1    3    3    0    0  0.56957391333E+01 -0.18968396648E+02 -0.52735267438E+01  0.20495160411E+02  0.51100000000E-03 0. -1.
        -11    1    3    3    0    0  0.92180148390E+00 -0.15696036195E+02 -0.16814801544E+01  0.15812736827E+02  0.51100000000E-03 0.  1.
         12    1    3    3    0    0  0.45813363494E+01 -0.74267430748E+01 -0.45354906710E+01  0.98344207288E+01  0.00000000000E+00 0. -1.
</event>
<event>
 7    1  0.2001181E-008  0.4614232E+02  0.7816164E-02  0.1320468E+00
        -11   -1    0    0    0    0  0.00000000000E+00  0.00000000000E+00  0.45593999997E+02  0.45594000000E+02  0.51100000000E-03 0.  1.
         11   -1    0    0    0    0 -0.00000000000E+00 -0.00000000000E+00 -0.45593999997E+02  0.45594000000E+02  0.51100000000E-03 0. -1.
    9900012    2    1    2    0    0  0.57068789063E+01 -0.22544865580E+02 -0.38578148919E+02  0.46142323128E+02  0.10000048937E+02 0.  0.
        -12    1    1    2    0    0 -0.57068789063E+01  0.22544865580E+02  0.38578148919E+02  0.45045676872E+02  0.00000000000E+00 0.  1.
         11    1    3    3    0    0  0.92057681181E+00 -0.72835092530E+01 -0.18743339869E+02  0.20129822612E+02  0.51100000000E-03 0. -1.
        -11    1    3    3    0    0 -0.29252463661E+00 -0.61945088735E+01 -0.53817828223E+01  0.82110351025E+01  0.51100000000E-03 0.  1.
         12    1    3    3    0    0  0.50788267311E+01 -0.90668474535E+01 -0.14453026228E+02  0.17801465413E+02  0.00000000000E+00 0. -1.
</event>
<event>
 7    1  0.2001181E-008  0.4614232E+02  0.7816164E-02  0.1320468E+00
        -11   -1    0    0    0    0  0.00000000000E+00  0.00000000000E+00  0.45593999997E+02  0.45594000000E+02  0.51100000000E-03 0.  1.
         11   -1    0    0    0    0 -0.00000000000E+00 -0.00000000000E+00 -0.45593999997E+02  0.45594000000E+02  0.51100000000E-03 0. -1.
    9900012    2    1    2    0    0 -0.12419086484E+02 -0.20794586421E+02 -0.37979796417E+02  0.46142317972E+02  0.10000001923E+02 0.  0.
        -12    1    1    2    0    0  0.12419086484E+02  0.20794586421E+02  0.37979796417E+02  0.45045682028E+02  0.00000000000E+00 0.  1.
         11    1    3    3    0    0 -0.72927310237E+01 -0.12180228938E+02 -0.20912075561E+02  0.25275616853E+02  0.51100000000E-03 0. -1.
        -11    1    3    3    0    0 -0.31862946567E+01 -0.78114579969E+01 -0.82401101712E+01  0.11792826869E+02  0.51100000000E-03 0.  1.
         12    1    3    3    0    0 -0.19400608033E+01 -0.80289948626E+00 -0.88276106839E+01  0.90738742493E+01  0.00000000000E+00 0. -1.
</event>
<event>
 7    1  0.2001181E-008  0.4614232E+02  0.7816164E-02  0.1320468E+00
        -11   -1    0    0    0    0  0.00000000000E+00  0.00000000000E+00  0.45593999997E+02  0.45594000000E+02  0.51100000000E-03 0.  1.
         11   -1    0    0    0    0 -0.00000000000E+00 -0.00000000000E+00 -0.45593999997E+02  0.45594000000E+02  0.51100000000E-03 0. -1.
    9900012    2    1    2    0    0  0.33096586252E+02  0.26325579367E+02 -0.15514289846E+02  0.46142319408E+02  0.10000015019E+02 0.  0.
        -12    1    1    2    0    0 -0.33096586252E+02 -0.26325579367E+02  0.15514289846E+02  0.45045680592E+02  0.00000000000E+00 0.  1.
         11    1    3    3    0    0  0.10478606210E+02  0.98588983973E+01 -0.25721159107E+01  0.14615568625E+02  0.51100000000E-03 0. -1.
        -11    1    3    3    0    0  0.19640710939E+02  0.13074263553E+02 -0.13144271395E+02  0.27008623889E+02  0.51100000000E-03 0.  1.
        -12    1    3    3    0    0  0.29772691029E+01  0.33924174174E+01  0.20209745981E+00  0.45181268938E+01  0.00000000000E+00 0.  1.
</event>
<event>
 7    1  0.2001181E-008  0.4614232E+02  0.7816164E-02  0.1320468E+00
        -11   -1    0    0    0    0  0.00000000000E+00  0.00000000000E+00  0.45593999997E+02  0.45594000000E+02  0.51100000000E-03 0.  1.
         11   -1    0    0    0    0 -0.00000000000E+00 -0.00000000000E+00 -0.45593999997E+02  0.45594000000E+02  0.51100000000E-03 0. -1.
    9900012    2    1    2    0    0  0.28102019326E+02 -0.21625670980E+02 -0.27779855410E+02  0.46142317608E+02  0.99999986066E+01 0.  0.
        -12    1    1    2    0    0 -0.28102019326E+02  0.21625670980E+02  0.27779855410E+02  0.45045682392E+02  0.00000000000E+00 0.  1.
         11    1    3    3    0    0  0.87069822136E+01 -0.29616438170E+01 -0.40394741284E+01  0.10044910396E+02  0.51100000000E-03 0. -1.
        -11    1    3    3    0    0  0.18924352102E+02 -0.16919523098E+02 -0.22203201969E+02  0.33725117380E+02  0.51100000000E-03 0.  1.
        -12    1    3    3    0    0  0.47068501072E+00 -0.17445040648E+01 -0.15371793127E+01  0.23722898329E+01  0.00000000000E+00 0.  1.
</event>
<event>
 7    1  0.2001181E-008  0.4614232E+02  0.7816164E-02  0.1320468E+00
        -11   -1    0    0    0    0  0.00000000000E+00  0.00000000000E+00  0.45593999997E+02  0.45594000000E+02  0.51100000000E-03 0. -1.
         11   -1    0    0    0    0 -0.00000000000E+00 -0.00000000000E+00 -0.45593999997E+02  0.45594000000E+02  0.51100000000E-03 0.  1.
    9900012    2    1    2    0    0  0.14864867973E+02 -0.31035548549E+02  0.29067918634E+02  0.46142317995E+02  0.10000002129E+02 0.  0.
        -12    1    1    2    0    0 -0.14864867973E+02  0.31035548549E+02 -0.29067918634E+02  0.45045682005E+02  0.00000000000E+00 0.  1.
         11    1    3    3    0    0  0.82757507330E+01 -0.17551375115E+02  0.18637871303E+02  0.26905558266E+02  0.51100000000E-03 0. -1.
        -11    1    3    3    0    0  0.55462804980E+01 -0.53170318527E+01  0.67145487055E+01  0.10203784576E+02  0.51100000000E-03 0.  1.
        -12    1    3    3    0    0  0.10428367424E+01 -0.81671415816E+01  0.37154986255E+01  0.90329751534E+01  0.00000000000E+00 0.  1.
</event>
<event>
 7    1  0.2001181E-008  0.4614232E+02  0.7816164E-02  0.1320468E+00
        -11   -1    0    0    0    0  0.00000000000E+00  0.00000000000E+00  0.45593999997E+02  0.45594000000E+02  0.51100000000E-03 0. -1.
         11   -1    0    0    0    0 -0.00000000000E+00 -0.00000000000E+00 -0.45593999997E+02  0.45594000000E+02  0.51100000000E-03 0.  1.
    9900012    2    1    2    0    0  0.40101248934E+02  0.16238557249E+02 -0.12542430795E+02  0.46142317878E+02  0.10000001067E+02 0.  0.
        -12    1    1    2    0    0 -0.40101248934E+02 -0.16238557249E+02  0.12542430795E+02  0.45045682122E+02  0.00000000000E+00 0.  1.
         11    1    3    3    0    0  0.58495754903E+01  0.89250076190E-01 -0.26259322264E+01  0.64125672950E+01  0.51100000000E-03 0. -1.
        -11    1    3    3    0    0  0.41432992543E+01  0.19649616755E+01 -0.36539817901E+01  0.58634108061E+01  0.51100000000E-03 0.  1.
         12    1    3    3    0    0  0.30108374189E+02  0.14184345497E+02 -0.62625167785E+01  0.33866339777E+02  0.00000000000E+00 0. -1.
</event>
<event>
 7    1  0.2001181E-008  0.4614232E+02  0.7816164E-02  0.1320468E+00
        -11   -1    0    0    0    0  0.00000000000E+00  0.00000000000E+00  0.45593999997E+02  0.45594000000E+02  0.51100000000E-03 0. -1.
         11   -1    0    0    0    0 -0.00000000000E+00 -0.00000000000E+00 -0.45593999997E+02  0.45594000000E+02  0.51100000000E-03 0.  1.
    9900012    2    1    2    0    0 -0.36907260143E+01  0.43064545507E+02  0.12686092638E+02  0.46142317803E+02  0.10000000379E+02 0.  0.
        -12    1    1    2    0    0  0.36907260143E+01 -0.43064545507E+02 -0.12686092638E+02  0.45045682197E+02  0.00000000000E+00 0.  1.
         11    1    3    3    0    0 -0.32277382145E+01  0.34957175554E+02  0.79087767912E+01  0.35985707820E+02  0.51100000000E-03 0. -1.
        -11    1    3    3    0    0  0.26115306974E+00  0.75907976436E+01  0.51662578446E+01  0.91857841347E+01  0.51100000000E-03 0.  1.
        -12    1    3    3    0    0 -0.72414086952E+00  0.51657230875E+00 -0.38894199788E+00  0.97082584782E+00  0.00000000000E+00 0.  1.
</event>
<event>
 7    1  0.2001181E-008  0.4614232E+02  0.7816164E-02  0.1320468E+00
        -11   -1    0    0    0    0  0.00000000000E+00  0.00000000000E+00  0.45593999997E+02  0.45594000000E+02  0.51100000000E-03 0.  1.
         11   -1    0    0    0    0 -0.00000000000E+00 -0.00000000000E+00 -0.45593999997E+02  0.45594000000E+02  0.51100000000E-03 0. -1.
    9900012    2    1    2    0    0 -0.12338454957E+02  0.43453063488E+01 -0.43104460746E+02  0.46142315476E+02  0.99999791629E+01 0.  0.
        -12    1    1    2    0    0  0.12338454957E+02 -0.43453063488E+01  0.43104460746E+02  0.45045684524E+02  0.00000000000E+00 0.  1.
         11    1    3    3    0    0 -0.55679882883E+01  0.21686261665E+01 -0.24100936631E+02  0.24830637925E+02  0.51100000000E-03 0. -1.
        -11    1    3    3    0    0 -0.35982713749E+01 -0.19926917748E+01 -0.58325669645E+01  0.71370312493E+01  0.51100000000E-03 0.  1.
         12    1    3    3    0    0 -0.31721952942E+01  0.41693719570E+01 -0.13170957151E+02  0.14174646302E+02  0.00000000000E+00 0. -1.
</event>
<event>
 7    1  0.2001181E-008  0.4614232E+02  0.7816164E-02  0.1320468E+00
        -11   -1    0    0    0    0  0.00000000000E+00  0.00000000000E+00  0.45593999997E+02  0.45594000000E+02  0.51100000000E-03 0. -1.
         11   -1    0    0    0    0 -0.00000000000E+00 -0.00000000000E+00 -0.45593999997E+02  0.45594000000E+02  0.51100000000E-03 0.  1.
    9900012    2    1    2    0    0 -0.43255570586E+02 -0.50672360046E+01  0.11506175623E+02  0.46142319353E+02  0.10000014520E+02 0.  0.
        -12    1    1    2    0    0  0.43255570586E+02  0.50672360046E+01 -0.11506175623E+02  0.45045680647E+02  0.00000000000E+00 0.  1.
         11    1    3    3    0    0 -0.40746626076E+01  0.94638305125E-01  0.32268039133E+01  0.51984704992E+01  0.51100000000E-03 0. -1.
        -11    1    3    3    0    0 -0.32724605743E+02 -0.24356382531E+01  0.86162860626E+01  0.33927459977E+02  0.51100000000E-03 0.  1.
        -12    1    3    3    0    0 -0.64563022356E+01 -0.27262360566E+01 -0.33691435334E+00  0.70163888771E+01  0.00000000000E+00 0.  1.
</event>
<event>
 7    1  0.2001181E-008  0.4614232E+02  0.7816164E-02  0.1320468E+00
        -11   -1    0    0    0    0  0.00000000000E+00  0.00000000000E+00  0.45593999997E+02  0.45594000000E+02  0.51100000000E-03 0.  1.
         11   -1    0    0    0    0 -0.00000000000E+00 -0.00000000000E+00 -0.45593999997E+02  0.45594000000E+02  0.51100000000E-03 0. -1.
    9900012    2    1    2    0    0  0.11977584578E+02  0.23753531649E+02 -0.36351350322E+02  0.46142317983E+02  0.10000002026E+02 0.  0.
        -12    1    1    2    0    0 -0.11977584578E+02 -0.23753531649E+02  0.36351350322E+02  0.45045682017E+02  0.00000000000E+00 0.  1.
         11    1    3    3    0    0  0.39906271044E+01  0.45820853761E+01 -0.12479997178E+02  0.13880595841E+02  0.51100000000E-03 0. -1.
        -11    1    3    3    0    0  0.40542124542E+00 -0.20457423135E+00  0.15372718043E+00  0.47942602088E+00  0.51100000000E-03 0.  1.
         12    1    3    3    0    0  0.75815362285E+01  0.19376020504E+02 -0.24025080325E+02  0.31782296122E+02  0.00000000000E+00 0. -1.
</event>
<event>
 7    1  0.2001181E-008  0.4614232E+02  0.7816164E-02  0.1320468E+00
        -11   -1    0    0    0    0  0.00000000000E+00  0.00000000000E+00  0.45593999997E+02  0.45594000000E+02  0.51100000000E-03 0.  1.
         11   -1    0    0    0    0 -0.00000000000E+00 -0.00000000000E+00 -0.45593999997E+02  0.45594000000E+02  0.51100000000E-03 0. -1.
    9900012    2    1    2    0    0  0.15409198338E+02 -0.14606933207E+02 -0.39727920110E+02  0.46142317328E+02  0.99999960494E+01 0.  0.
        -12    1    1    2    0    0 -0.15409198338E+02  0.14606933207E+02  0.39727920110E+02  0.45045682672E+02  0.00000000000E+00 0.  1.
         11    1    3    3    0    0  0.60358920374E+01 -0.63760458201E+01 -0.12633457059E+02  0.15384738883E+02  0.51100000000E-03 0. -1.
        -11    1    3    3    0    0 -0.30498257412E+00 -0.16387257299E+01 -0.56731770404E+00  0.17607629104E+01  0.51100000000E-03 0.  1.
        -12    1    3    3    0    0  0.96782888745E+01 -0.65921616567E+01 -0.26527145348E+02  0.28996815534E+02  0.00000000000E+00 0.  1.
</event>
<event>
 7    1  0.2001181E-008  0.4614232E+02  0.7816164E-02  0.1320468E+00
        -11   -1    0    0    0    0  0.00000000000E+00  0.00000000000E+00  0.45593999997E+02  0.45594000000E+02  0.51100000000E-03 0. -1.
         11   -1    0    0    0    0 -0.00000000000E+00 -0.00000000000E+00 -0.45593999997E+02  0.45594000000E+02  0.51100000000E-03 0.  1.
    9900012    2    1    2    0    0 -0.38319699259E+02 -0.11206213611E+02  0.20859886246E+02  0.46142318420E+02  0.10000006012E+02 0.  0.
        -12    1    1    2    0    0  0.38319699259E+02  0.11206213611E+02 -0.20859886246E+02  0.45045681580E+02  0.00000000000E+00 0.  1.
         11    1    3    3    0    0 -0.90022621578E+01 -0.41576955153E+01  0.24048125612E+01  0.10203444500E+02  0.51100000000E-03 0. -1.
        -11    1    3    3    0    0 -0.24657584983E+02 -0.74039318283E+01  0.17604615488E+02  0.31188734993E+02  0.51100000000E-03 0.  1.
        -12    1    3    3    0    0 -0.46598521178E+01  0.35541373303E+00  0.85045819683E+00  0.47501389270E+01  0.00000000000E+00 0.  1.
</event>
<event>
 7    1  0.2001181E-008  0.4614232E+02  0.7816164E-02  0.1320468E+00
        -11   -1    0    0    0    0  0.00000000000E+00  0.00000000000E+00  0.45593999997E+02  0.45594000000E+02  0.51100000000E-03 0.  1.
         11   -1    0    0    0    0 -0.00000000000E+00 -0.00000000000E+00 -0.45593999997E+02  0.45594000000E+02  0.51100000000E-03 0. -1.
    9900012    2    1    2    0    0 -0.99150966360E+01 -0.37599474649E+02 -0.22739476087E+02  0.46142318655E+02  0.10000008148E+02 0.  0.
        -12    1    1    2    0    0  0.99150966360E+01  0.37599474649E+02  0.22739476087E+02  0.45045681345E+02  0.00000000000E+00 0.  1.
         11    1    3    3    0    0 -0.12971723028E+01 -0.83285379459E+01 -0.44935102954E+01  0.95519021842E+01  0.51100000000E-03 0. -1.
        -11    1    3    3    0    0  0.27732616482E-02 -0.12898644614E+02 -0.49962258316E+01  0.13832473148E+02  0.51100000000E-03 0.  1.
        -12    1    3    3    0    0 -0.86206975949E+01 -0.16372292088E+02 -0.13249739960E+02  0.22757943322E+02  0.00000000000E+00 0.  1.
</event>
<event>
 7    1  0.2001181E-008  0.4614232E+02  0.7816164E-02  0.1320468E+00
        -11   -1    0    0    0    0  0.00000000000E+00  0.00000000000E+00  0.45593999997E+02  0.45594000000E+02  0.51100000000E-03 0.  1.
         11   -1    0    0    0    0 -0.00000000000E+00 -0.00000000000E+00 -0.45593999997E+02  0.45594000000E+02  0.51100000000E-03 0. -1.
    9900012    2    1    2    0    0  0.29381503650E+02 -0.71478090172E+01 -0.33387865691E+02  0.46142317566E+02  0.99999982226E+01 0.  0.
        -12    1    1    2    0    0 -0.29381503650E+02  0.71478090172E+01  0.33387865691E+02  0.45045682434E+02  0.00000000000E+00 0.  1.
         11    1    3    3    0    0  0.63120729044E+01 -0.22108061535E+00 -0.34760227771E+01  0.72092909219E+01  0.51100000000E-03 0. -1.
        -11    1    3    3    0    0  0.13962304483E+02 -0.21894252772E+01 -0.13310429959E+02  0.19414094763E+02  0.51100000000E-03 0.  1.
        -12    1    3    3    0    0  0.91071262631E+01 -0.47373031246E+01 -0.16601412956E+02  0.19518931881E+02  0.00000000000E+00 0.  1.
</event>
<event>
 7    1  0.2001181E-008  0.4614232E+02  0.7816164E-02  0.1320468E+00
        -11   -1    0    0    0    0  0.00000000000E+00  0.00000000000E+00  0.45593999997E+02  0.45594000000E+02  0.51100000000E-03 0. -1.
         11   -1    0    0    0    0 -0.00000000000E+00 -0.00000000000E+00 -0.45593999997E+02  0.45594000000E+02  0.51100000000E-03 0.  1.
    9900012    2    1    2    0    0  0.31454492598E+02  0.30181995653E+02 -0.11347936138E+02  0.46142316291E+02  0.99999865924E+01 0.  0.
        -12    1    1    2    0    0 -0.31454492598E+02 -0.30181995653E+02  0.11347936138E+02  0.45045683709E+02  0.00000000000E+00 0.  1.
         11    1    3    3    0    0  0.69216992595E+01  0.55250093690E+01 -0.22502029146E+01  0.91377821480E+01  0.51100000000E-03 0. -1.
        -11    1    3    3    0    0  0.83514652845E+01  0.10444128337E+02  0.59745428225E+00  0.13385953123E+02  0.51100000000E-03 0.  1.
         12    1    3    3    0    0  0.16181328054E+02  0.14212857947E+02 -0.96951875060E+01  0.23618581020E+02  0.00000000000E+00 0. -1.
</event>
<event>
 7    1  0.2001181E-008  0.4614232E+02  0.7816164E-02  0.1320468E+00
        -11   -1    0    0    0    0  0.00000000000E+00  0.00000000000E+00  0.45593999997E+02  0.45594000000E+02  0.51100000000E-03 0. -1.
         11   -1    0    0    0    0 -0.00000000000E+00 -0.00000000000E+00 -0.45593999997E+02  0.45594000000E+02  0.51100000000E-03 0.  1.
    9900012    2    1    2    0    0 -0.23763206218E+02 -0.38253937615E+02  0.10293859523E+01  0.46142319317E+02  0.10000014185E+02 0.  0.
        -12    1    1    2    0    0  0.23763206218E+02  0.38253937615E+02 -0.10293859523E+01  0.45045680683E+02  0.00000000000E+00 0.  1.
         11    1    3    3    0    0 -0.14217970847E+02 -0.26905398022E+02  0.10613069784E+01  0.30449589661E+02  0.51100000000E-03 0. -1.
        -11    1    3    3    0    0 -0.98997745159E+00 -0.39218824735E+01  0.13849037693E+01  0.42754153251E+01  0.51100000000E-03 0.  1.
        -12    1    3    3    0    0 -0.85552579194E+01 -0.74266571190E+01 -0.14168247954E+01  0.11417314331E+02  0.00000000000E+00 0.  1.
</event>
<event>
 7    1  0.2001181E-008  0.4614232E+02  0.7816164E-02  0.1320468E+00
        -11   -1    0    0    0    0  0.00000000000E+00  0.00000000000E+00  0.45593999997E+02  0.45594000000E+02  0.51100000000E-03 0.  1.
         11   -1    0    0    0    0 -0.00000000000E+00 -0.00000000000E+00 -0.45593999997E+02  0.45594000000E+02  0.51100000000E-03 0. -1.
    9900012    2    1    2    0    0 -0.24991201487E+02  0.24667665075E+02  0.28214526921E+02  0.46142318948E+02  0.10000010824E+02 0.  0.
        -12    1    1    2    0    0  0.24991201487E+02 -0.24667665075E+02 -0.28214526921E+02  0.45045681052E+02  0.00000000000E+00 0.  1.
         11    1    3    3    0    0 -0.74199985712E+01  0.43075038868E+01  0.74621410765E+01  0.11370774742E+02  0.51100000000E-03 0. -1.
        -11    1    3    3    0    0  0.70227047425E+00  0.12409857653E+01  0.14146424023E+01  0.20085922623E+01  0.51100000000E-03 0.  1.
        -12    1    3    3    0    0 -0.18273473390E+02  0.19119175423E+02  0.19337743443E+02  0.32762951943E+02  0.00000000000E+00 0.  1.
</event>
<event>
 7    1  0.2001181E-008  0.4614232E+02  0.7816164E-02  0.1320468E+00
        -11   -1    0    0    0    0  0.00000000000E+00  0.00000000000E+00  0.45593999997E+02  0.45594000000E+02  0.51100000000E-03 0. -1.
         11   -1    0    0    0    0 -0.00000000000E+00 -0.00000000000E+00 -0.45593999997E+02  0.45594000000E+02  0.51100000000E-03 0.  1.
    9900012    2    1    2    0    0  0.29694076700E+02 -0.31711263907E+02  0.11906758625E+02  0.46142319290E+02  0.10000013945E+02 0.  0.
        -12    1    1    2    0    0 -0.29694076700E+02  0.31711263907E+02 -0.11906758625E+02  0.45045680710E+02  0.00000000000E+00 0.  1.
         11    1    3    3    0    0  0.16742195479E+02 -0.15264002838E+02  0.58293188338E+01  0.23393842147E+02  0.51100000000E-03 0. -1.
        -11    1    3    3    0    0  0.29996832374E+01 -0.76544935815E+01  0.19406965780E+00  0.82235658207E+01  0.51100000000E-03 0.  1.
        -12    1    3    3    0    0  0.99521979840E+01 -0.87927674875E+01  0.58833701330E+01  0.14524911322E+02  0.00000000000E+00 0.  1.
</event>
<event>
 7    1  0.2001181E-008  0.4614232E+02  0.7816164E-02  0.1320468E+00
        -11   -1    0    0    0    0  0.00000000000E+00  0.00000000000E+00  0.45593999997E+02  0.45594000000E+02  0.51100000000E-03 0. -1.
         11   -1    0    0    0    0 -0.00000000000E+00 -0.00000000000E+00 -0.45593999997E+02  0.45594000000E+02  0.51100000000E-03 0.  1.
    9900012    2    1    2    0    0 -0.37526613286E+02  0.12034111322E+02  0.21818500036E+02  0.46142317811E+02  0.10000000458E+02 0.  0.
        -12    1    1    2    0    0  0.37526613286E+02 -0.12034111322E+02 -0.21818500036E+02  0.45045682189E+02  0.00000000000E+00 0.  1.
         11    1    3    3    0    0 -0.18214000128E+02  0.76042931384E+01  0.11323866385E+02  0.22755329595E+02  0.51100000000E-03 0.  1.
        -11    1    3    3    0    0 -0.95571378883E+01  0.25208298811E+01  0.15309209661E+01  0.10001859186E+02  0.51100000000E-03 0. -1.
        -12    1    3    3    0    0 -0.97554752691E+01  0.19089883026E+01  0.89637126852E+01  0.13385129031E+02  0.00000000000E+00 0.  1.
</event>
<event>
 7    1  0.2001181E-008  0.4614232E+02  0.7816164E-02  0.1320468E+00
        -11   -1    0    0    0    0  0.00000000000E+00  0.00000000000E+00  0.45593999997E+02  0.45594000000E+02  0.51100000000E-03 0.  1.
         11   -1    0    0    0    0 -0.00000000000E+00 -0.00000000000E+00 -0.45593999997E+02  0.45594000000E+02  0.51100000000E-03 0. -1.
    9900012    2    1    2    0    0 -0.22534509888E+01  0.25187632019E+02 -0.37277588001E+02  0.46142318572E+02  0.10000007399E+02 0.  0.
        -12    1    1    2    0    0  0.22534509888E+01 -0.25187632019E+02  0.37277588001E+02  0.45045681428E+02  0.00000000000E+00 0.  1.
         11    1    3    3    0    0  0.29377073365E+01  0.13972502803E+02 -0.20322654079E+02  0.24836892480E+02  0.51100000000E-03 0.  1.
        -11    1    3    3    0    0 -0.16368224657E+01  0.50684269006E+01 -0.45176785607E+01  0.69840932747E+01  0.51100000000E-03 0. -1.
        -12    1    3    3    0    0 -0.35543358596E+01  0.61467023151E+01 -0.12437255361E+02  0.14321332818E+02  0.00000000000E+00 0.  1.
</event>
<event>
 7    1  0.2001181E-008  0.4614232E+02  0.7816164E-02  0.1320468E+00
        -11   -1    0    0    0    0  0.00000000000E+00  0.00000000000E+00  0.45593999997E+02  0.45594000000E+02  0.51100000000E-03 0.  1.
         11   -1    0    0    0    0 -0.00000000000E+00 -0.00000000000E+00 -0.45593999997E+02  0.45594000000E+02  0.51100000000E-03 0. -1.
    9900012    2    1    2    0    0  0.34849399467E+02 -0.21824292048E+02 -0.18393834630E+02  0.46142317421E+02  0.99999968977E+01 0.  0.
        -12    1    1    2    0    0 -0.34849399467E+02  0.21824292048E+02  0.18393834630E+02  0.45045682579E+02  0.00000000000E+00 0.  1.
         11    1    3    3    0    0  0.21996172640E+02 -0.14393268444E+02 -0.14232779827E+02  0.29892638043E+02  0.51100000000E-03 0. -1.
        -11    1    3    3    0    0 -0.15125774034E-01  0.21144655171E+00  0.52528826473E+00  0.56645075289E+00  0.51100000000E-03 0.  1.
         12    1    3    3    0    0  0.12868352602E+02 -0.76424701558E+01 -0.46863430674E+01  0.15683228625E+02  0.00000000000E+00 0. -1.
</event>
<event>
 7    1  0.2001181E-008  0.4614232E+02  0.7816164E-02  0.1320468E+00
        -11   -1    0    0    0    0  0.00000000000E+00  0.00000000000E+00  0.45593999997E+02  0.45594000000E+02  0.51100000000E-03 0.  1.
         11   -1    0    0    0    0 -0.00000000000E+00 -0.00000000000E+00 -0.45593999997E+02  0.45594000000E+02  0.51100000000E-03 0. -1.
    9900012    2    1    2    0    0 -0.12682399235E+02  0.40435325151E+02 -0.15272681886E+02  0.46142316717E+02  0.99999904793E+01 0.  0.
        -12    1    1    2    0    0  0.12682399235E+02 -0.40435325151E+02  0.15272681886E+02  0.45045683283E+02  0.00000000000E+00 0.  1.
         11    1    3    3    0    0 -0.67393285546E+00  0.35501175042E+01  0.10421397575E+01  0.37607945069E+01  0.51100000000E-03 0. -1.
        -11    1    3    3    0    0 -0.70220152627E+01  0.15507738696E+02 -0.53521939964E+01  0.17845017194E+02  0.51100000000E-03 0.  1.
         12    1    3    3    0    0 -0.49864511170E+01  0.21377468951E+02 -0.10962627647E+02  0.24536505016E+02  0.00000000000E+00 0. -1.
</event>
<event>
 7    1  0.2001181E-008  0.4614232E+02  0.7816164E-02  0.1320468E+00
        -11   -1    0    0    0    0  0.00000000000E+00  0.00000000000E+00  0.45593999997E+02  0.45594000000E+02  0.51100000000E-03 0.  1.
         11   -1    0    0    0    0 -0.00000000000E+00 -0.00000000000E+00 -0.45593999997E+02  0.45594000000E+02  0.51100000000E-03 0. -1.
    9900012    2    1    2    0    0 -0.27950549478E+02 -0.24938797945E+02 -0.25018724924E+02  0.46142318121E+02  0.10000003286E+02 0.  0.
        -12    1    1    2    0    0  0.27950549478E+02  0.24938797945E+02  0.25018724924E+02  0.45045681879E+02  0.00000000000E+00 0.  1.
         11    1    3    3    0    0 -0.24791153543E+01 -0.19771646681E+01 -0.15672186584E+00  0.31748630000E+01  0.51100000000E-03 0.  1.
        -11    1    3    3    0    0 -0.14717239508E+02 -0.17497402322E+02 -0.17920958006E+02  0.29050248930E+02  0.51100000000E-03 0. -1.
        -12    1    3    3    0    0 -0.10754194616E+02 -0.54642309544E+01 -0.69410450517E+01  0.13917206191E+02  0.00000000000E+00 0.  1.
</event>
<event>
 7    1  0.2001181E-008  0.4614232E+02  0.7816164E-02  0.1320468E+00
        -11   -1    0    0    0    0  0.00000000000E+00  0.00000000000E+00  0.45593999997E+02  0.45594000000E+02  0.51100000000E-03 0.  1.
         11   -1    0    0    0    0 -0.00000000000E+00 -0.00000000000E+00 -0.45593999997E+02  0.45594000000E+02  0.51100000000E-03 0. -1.
    9900012    2    1    2    0    0 -0.88292935663E-01 -0.25302207197E+02 -0.37268004101E+02  0.46142316363E+02  0.99999872472E+01 0.  0.
        -12    1    1    2    0    0  0.88292935663E-01  0.25302207197E+02  0.37268004101E+02  0.45045683637E+02  0.00000000000E+00 0.  1.
         11    1    3    3    0    0 -0.18773228059E+01 -0.21993618086E+02 -0.34080196422E+02  0.40604228424E+02  0.51100000000E-03 0. -1.
        -11    1    3    3    0    0  0.19035302944E+01 -0.16116746715E+01 -0.28796323300E+01  0.38096201182E+01  0.51100000000E-03 0.  1.
         12    1    3    3    0    0 -0.11450042414E+00 -0.16969144393E+01 -0.30817534883E+00  0.17284678206E+01  0.00000000000E+00 0. -1.
</event>
<event>
 7    1  0.2001181E-008  0.4614232E+02  0.7816164E-02  0.1320468E+00
        -11   -1    0    0    0    0  0.00000000000E+00  0.00000000000E+00  0.45593999997E+02  0.45594000000E+02  0.51100000000E-03 0. -1.
         11   -1    0    0    0    0 -0.00000000000E+00 -0.00000000000E+00 -0.45593999997E+02  0.45594000000E+02  0.51100000000E-03 0.  1.
    9900012    2    1    2    0    0 -0.34492007471E+02 -0.17025688199E+02  0.23442288876E+02  0.46142317124E+02  0.99999941878E+01 0.  0.
        -12    1    1    2    0    0  0.34492007471E+02  0.17025688199E+02 -0.23442288876E+02  0.45045682876E+02  0.00000000000E+00 0.  1.
         11    1    3    3    0    0 -0.23654691951E+02 -0.14839902542E+02  0.14500937487E+02  0.31464970158E+02  0.51100000000E-03 0. -1.
        -11    1    3    3    0    0 -0.82051239268E+00 -0.86945364001E+00  0.22847272479E+01  0.25785982776E+01  0.51100000000E-03 0.  1.
         12    1    3    3    0    0 -0.10016803127E+02 -0.13163320172E+01  0.66566241420E+01  0.12098748688E+02  0.00000000000E+00 0. -1.
</event>
<event>
 7    1  0.2001181E-008  0.4614232E+02  0.7816164E-02  0.1320468E+00
        -11   -1    0    0    0    0  0.00000000000E+00  0.00000000000E+00  0.45593999997E+02  0.45594000000E+02  0.51100000000E-03 0.  1.
         11   -1    0    0    0    0 -0.00000000000E+00 -0.00000000000E+00 -0.45593999997E+02  0.45594000000E+02  0.51100000000E-03 0. -1.
    9900012    2    1    2    0    0 -0.14583552120E+02 -0.12669253051E+02 -0.40693040147E+02  0.46142317835E+02  0.10000000676E+02 0.  0.
        -12    1    1    2    0    0  0.14583552120E+02  0.12669253051E+02  0.40693040147E+02  0.45045682165E+02  0.00000000000E+00 0.  1.
         11    1    3    3    0    0 -0.10683415672E+02 -0.43458444356E+01 -0.27347369344E+02  0.29679965373E+02  0.51100000000E-03 0. -1.
        -11    1    3    3    0    0 -0.33570896874E+01 -0.48649670988E+01 -0.10021198425E+02  0.11634533690E+02  0.51100000000E-03 0.  1.
         12    1    3    3    0    0 -0.54304676095E+00 -0.34584415162E+01 -0.33244723783E+01  0.48278187724E+01  0.00000000000E+00 0. -1.
</event>
<event>
 7    1  0.2001181E-008  0.4614232E+02  0.7816164E-02  0.1320468E+00
        -11   -1    0    0    0    0  0.00000000000E+00  0.00000000000E+00  0.45593999997E+02  0.45594000000E+02  0.51100000000E-03 0.  1.
         11   -1    0    0    0    0 -0.00000000000E+00 -0.00000000000E+00 -0.45593999997E+02  0.45594000000E+02  0.51100000000E-03 0. -1.
    9900012    2    1    2    0    0  0.17518599225E+02 -0.24290694917E+02 -0.33647797038E+02  0.46142318477E+02  0.10000006529E+02 0.  0.
        -12    1    1    2    0    0 -0.17518599225E+02  0.24290694917E+02  0.33647797038E+02  0.45045681523E+02  0.00000000000E+00 0.  1.
         11    1    3    3    0    0  0.85515777520E+01 -0.12383291961E+02 -0.12666918531E+02  0.19670440442E+02  0.51100000000E-03 0. -1.
        -11    1    3    3    0    0  0.54666486053E+01 -0.11143513803E+02 -0.14684159636E+02  0.19227238266E+02  0.51100000000E-03 0.  1.
        -12    1    3    3    0    0  0.35003728675E+01 -0.76388915274E+00 -0.62967188710E+01  0.72446397695E+01  0.00000000000E+00 0.  1.
</event>
<event>
 7    1  0.2001181E-008  0.4614232E+02  0.7816164E-02  0.1320468E+00
        -11   -1    0    0    0    0  0.00000000000E+00  0.00000000000E+00  0.45593999997E+02  0.45594000000E+02  0.51100000000E-03 0.  1.
         11   -1    0    0    0    0 -0.00000000000E+00 -0.00000000000E+00 -0.45593999997E+02  0.45594000000E+02  0.51100000000E-03 0. -1.
    9900012    2    1    2    0    0 -0.92663336828E+01 -0.43350307390E+02 -0.79999689017E+01  0.46142316598E+02  0.99999893941E+01 0.  0.
        -12    1    1    2    0    0  0.92663336828E+01  0.43350307390E+02  0.79999689017E+01  0.45045683402E+02  0.00000000000E+00 0.  1.
         11    1    3    3    0    0 -0.84885426590E+00 -0.11101813572E+02 -0.88422493306E+00  0.11169273573E+02  0.51100000000E-03 0.  1.
        -11    1    3    3    0    0 -0.33968960441E+01 -0.64811520033E+01 -0.45018666697E+01  0.85913350416E+01  0.51100000000E-03 0. -1.
         12    1    3    3    0    0 -0.50205833728E+01 -0.25767341815E+02 -0.26138772989E+01  0.26381707984E+02  0.00000000000E+00 0. -1.
</event>
<event>
 7    1  0.2001181E-008  0.4614232E+02  0.7816164E-02  0.1320468E+00
        -11   -1    0    0    0    0  0.00000000000E+00  0.00000000000E+00  0.45593999997E+02  0.45594000000E+02  0.51100000000E-03 0.  1.
         11   -1    0    0    0    0 -0.00000000000E+00 -0.00000000000E+00 -0.45593999997E+02  0.45594000000E+02  0.51100000000E-03 0. -1.
    9900012    2    1    2    0    0  0.28917191228E+02 -0.42926059493E+01 -0.34270732170E+02  0.46142317656E+02  0.99999990427E+01 0.  0.
        -12    1    1    2    0    0 -0.28917191228E+02  0.42926059493E+01  0.34270732170E+02  0.45045682344E+02  0.00000000000E+00 0.  1.
         11    1    3    3    0    0  0.18249999782E+02 -0.36355419366E+01 -0.26956384792E+02  0.32755554316E+02  0.51100000000E-03 0. -1.
        -11    1    3    3    0    0 -0.66065718984E-01 -0.37041006331E+00  0.31060703339E-01  0.37753585609E+00  0.51100000000E-03 0.  1.
         12    1    3    3    0    0  0.10733257165E+02 -0.28665394942E+00 -0.73454080810E+01  0.13009227484E+02  0.00000000000E+00 0. -1.
</event>
<event>
 7    1  0.2001181E-008  0.4614232E+02  0.7816164E-02  0.1320468E+00
        -11   -1    0    0    0    0  0.00000000000E+00  0.00000000000E+00  0.45593999997E+02  0.45594000000E+02  0.51100000000E-03 0.  1.
         11   -1    0    0    0    0 -0.00000000000E+00 -0.00000000000E+00 -0.45593999997E+02  0.45594000000E+02  0.51100000000E-03 0. -1.
    9900012    2    1    2    0    0 -0.36218916519E+02  0.15626048178E+02 -0.21751556567E+02  0.46142317536E+02  0.99999979510E+01 0.  0.
        -12    1    1    2    0    0  0.36218916519E+02 -0.15626048178E+02  0.21751556567E+02  0.45045682464E+02  0.00000000000E+00 0.  1.
         11    1    3    3    0    0 -0.86179037030E+01  0.48719387455E+01 -0.85630850519E+01  0.13089326845E+02  0.51100000000E-03 0. -1.
        -11    1    3    3    0    0 -0.22518161914E+02  0.10643784424E+02 -0.12664947775E+02  0.27942059073E+02  0.51100000000E-03 0.  1.
        -12    1    3    3    0    0 -0.50828509022E+01  0.11032500878E+00 -0.52352374027E+00  0.51109316184E+01  0.00000000000E+00 0.  1.
</event>
<event>
 7    1  0.2001181E-008  0.4614232E+02  0.7816164E-02  0.1320468E+00
        -11   -1    0    0    0    0  0.00000000000E+00  0.00000000000E+00  0.45593999997E+02  0.45594000000E+02  0.51100000000E-03 0.  1.
         11   -1    0    0    0    0 -0.00000000000E+00 -0.00000000000E+00 -0.45593999997E+02  0.45594000000E+02  0.51100000000E-03 0. -1.
    9900012    2    1    2    0    0 -0.12479410858E+01 -0.65870702537E+01 -0.44543985135E+02  0.46142318041E+02  0.10000002551E+02 0.  0.
        -12    1    1    2    0    0  0.12479410858E+01  0.65870702537E+01  0.44543985135E+02  0.45045681959E+02  0.00000000000E+00 0.  1.
         11    1    3    3    0    0 -0.39698749104E+01 -0.22814311449E+01 -0.16062924890E+02  0.16702765973E+02  0.51100000000E-03 0. -1.
        -11    1    3    3    0    0  0.12073550503E+01  0.12198976788E+01 -0.61114634326E+01  0.63479006067E+01  0.51100000000E-03 0.  1.
         12    1    3    3    0    0  0.15145787743E+01 -0.55255367876E+01 -0.22369596812E+02  0.23091651461E+02  0.00000000000E+00 0. -1.
</event>
<event>
 7    1  0.2001181E-008  0.4614232E+02  0.7816164E-02  0.1320468E+00
        -11   -1    0    0    0    0  0.00000000000E+00  0.00000000000E+00  0.45593999997E+02  0.45594000000E+02  0.51100000000E-03 0.  1.
         11   -1    0    0    0    0 -0.00000000000E+00 -0.00000000000E+00 -0.45593999997E+02  0.45594000000E+02  0.51100000000E-03 0. -1.
    9900012    2    1    2    0    0  0.39645309089E+02 -0.88635560844E+01 -0.19462795468E+02  0.46142316892E+02  0.99999920770E+01 0.  0.
        -12    1    1    2    0    0 -0.39645309089E+02  0.88635560844E+01  0.19462795468E+02  0.45045683108E+02  0.00000000000E+00 0.  1.
         11    1    3    3    0    0  0.13618353587E+02 -0.23155240519E+01 -0.63521365380E+01  0.15204303500E+02  0.51100000000E-03 0. -1.
        -11    1    3    3    0    0  0.23171092120E+02 -0.33836179122E+01 -0.92192297669E+01  0.25166298455E+02  0.51100000000E-03 0.  1.
         12    1    3    3    0    0  0.28558633825E+01 -0.31644141203E+01 -0.38914291633E+01  0.57717149373E+01  0.00000000000E+00 0. -1.
</event>
<event>
 7    1  0.2001181E-008  0.4614232E+02  0.7816164E-02  0.1320468E+00
        -11   -1    0    0    0    0  0.00000000000E+00  0.00000000000E+00  0.45593999997E+02  0.45594000000E+02  0.51100000000E-03 0.  1.
         11   -1    0    0    0    0 -0.00000000000E+00 -0.00000000000E+00 -0.45593999997E+02  0.45594000000E+02  0.51100000000E-03 0. -1.
    9900012    2    1    2    0    0 -0.60542300610E+01  0.14790539621E+02 -0.42115314193E+02  0.46142318148E+02  0.10000003531E+02 0.  0.
        -12    1    1    2    0    0  0.60542300610E+01 -0.14790539621E+02  0.42115314193E+02  0.45045681852E+02  0.00000000000E+00 0.  1.
         11    1    3    3    0    0  0.19875437528E+00  0.95342489975E+00 -0.57297875334E+01  0.58119693547E+01  0.51100000000E-03 0. -1.
        -11    1    3    3    0    0  0.17049124202E+01  0.36782639181E+01 -0.53011737442E+01  0.66737392172E+01  0.51100000000E-03 0.  1.
         12    1    3    3    0    0 -0.79578968564E+01  0.10158850803E+02 -0.31084352915E+02  0.33656609576E+02  0.00000000000E+00 0. -1.
</event>
<event>
 7    1  0.2001181E-008  0.4614231E+02  0.7816164E-02  0.1320468E+00
        -11   -1    0    0    0    0  0.00000000000E+00  0.00000000000E+00  0.45593999997E+02  0.45594000000E+02  0.51100000000E-03 0.  1.
         11   -1    0    0    0    0 -0.00000000000E+00 -0.00000000000E+00 -0.45593999997E+02  0.45594000000E+02  0.51100000000E-03 0. -1.
    9900012    2    1    2    0    0 -0.90039089309E+01  0.10365867726E+02 -0.42902125120E+02  0.46142312864E+02  0.99999553424E+01 0.  0.
        -12    1    1    2    0    0  0.90039089309E+01 -0.10365867726E+02  0.42902125120E+02  0.45045687136E+02  0.00000000000E+00 0.  1.
         11    1    3    3    0    0 -0.14691152609E+00  0.11987096536E+00 -0.11068075196E+02  0.11069699221E+02  0.51100000000E-03 0. -1.
        -11    1    3    3    0    0 -0.69750969986E+01  0.48380722834E+01 -0.23276343537E+02  0.24775937728E+02  0.51100000000E-03 0.  1.
        -12    1    3    3    0    0 -0.18819004062E+01  0.54079244776E+01 -0.85577063872E+01  0.10296675915E+02  0.00000000000E+00 0.  1.
</event>
<event>
 7    1  0.2001181E-008  0.4614232E+02  0.7816164E-02  0.1320468E+00
        -11   -1    0    0    0    0  0.00000000000E+00  0.00000000000E+00  0.45593999997E+02  0.45594000000E+02  0.51100000000E-03 0. -1.
         11   -1    0    0    0    0 -0.00000000000E+00 -0.00000000000E+00 -0.45593999997E+02  0.45594000000E+02  0.51100000000E-03 0.  1.
    9900012    2    1    2    0    0  0.21002549066E+01 -0.39736521857E+02 -0.21111875539E+02  0.46142317313E+02  0.99999959129E+01 0.  0.
        -12    1    1    2    0    0 -0.21002549066E+01  0.39736521857E+02  0.21111875539E+02  0.45045682687E+02  0.00000000000E+00 0.  1.
         11    1    3    3    0    0 -0.37111771164E+00 -0.23493760665E+02 -0.91098691707E+01  0.25200877665E+02  0.51100000000E-03 0. -1.
        -11    1    3    3    0    0 -0.13303103341E+01 -0.35804596492E+01 -0.37732174678E+01  0.53690396911E+01  0.51100000000E-03 0.  1.
         12    1    3    3    0    0  0.38016829523E+01 -0.12662301543E+02 -0.82287889000E+01  0.15572399957E+02  0.00000000000E+00 0. -1.
</event>
<event>
 7    1  0.2001181E-008  0.4614232E+02  0.7816164E-02  0.1320468E+00
        -11   -1    0    0    0    0  0.00000000000E+00  0.00000000000E+00  0.45593999997E+02  0.45594000000E+02  0.51100000000E-03 0.  1.
         11   -1    0    0    0    0 -0.00000000000E+00 -0.00000000000E+00 -0.45593999997E+02  0.45594000000E+02  0.51100000000E-03 0. -1.
    9900012    2    1    2    0    0 -0.39765829173E+02 -0.17833003626E+02 -0.11391946087E+02  0.46142316258E+02  0.99999862913E+01 0.  0.
        -12    1    1    2    0    0  0.39765829173E+02  0.17833003626E+02  0.11391946087E+02  0.45045683742E+02  0.00000000000E+00 0.  1.
         11    1    3    3    0    0 -0.14676277669E+02 -0.70292143127E+01 -0.55054813339E+01  0.17178862158E+02  0.51100000000E-03 0. -1.
        -11    1    3    3    0    0 -0.14311318686E+02 -0.54242074943E+01  0.53203183274E+00  0.15314010827E+02  0.51100000000E-03 0.  1.
        -12    1    3    3    0    0 -0.10778232818E+02 -0.53795818190E+01 -0.64184965859E+01  0.13649443272E+02  0.00000000000E+00 0.  1.
</event>
<event>
 7    1  0.2001181E-008  0.4614232E+02  0.7816164E-02  0.1320468E+00
        -11   -1    0    0    0    0  0.00000000000E+00  0.00000000000E+00  0.45593999997E+02  0.45594000000E+02  0.51100000000E-03 0. -1.
         11   -1    0    0    0    0 -0.00000000000E+00 -0.00000000000E+00 -0.45593999997E+02  0.45594000000E+02  0.51100000000E-03 0.  1.
    9900012    2    1    2    0    0  0.15244999301E+02  0.36667299139E+02  0.21265292277E+02  0.46142317793E+02  0.10000000294E+02 0.  0.
        -12    1    1    2    0    0 -0.15244999301E+02 -0.36667299139E+02 -0.21265292277E+02  0.45045682207E+02  0.00000000000E+00 0.  1.
         11    1    3    3    0    0  0.18953774313E+01  0.43879015091E+01  0.46668276439E+01  0.66802257282E+01  0.51100000000E-03 0.  1.
        -11    1    3    3    0    0 -0.56644726498E+00  0.33790873199E+01  0.32393633892E+01  0.47151425268E+01  0.51100000000E-03 0. -1.
         12    1    3    3    0    0  0.13916069134E+02  0.28900310310E+02  0.13359101244E+02  0.34746949538E+02  0.00000000000E+00 0. -1.
</event>
<event>
 7    1  0.2001181E-008  0.4614232E+02  0.7816164E-02  0.1320468E+00
        -11   -1    0    0    0    0  0.00000000000E+00  0.00000000000E+00  0.45593999997E+02  0.45594000000E+02  0.51100000000E-03 0.  1.
         11   -1    0    0    0    0 -0.00000000000E+00 -0.00000000000E+00 -0.45593999997E+02  0.45594000000E+02  0.51100000000E-03 0. -1.
    9900012    2    1    2    0    0  0.12298177426E+02 -0.18036711461E+02 -0.39402352037E+02  0.46142317916E+02  0.10000001416E+02 0.  0.
        -12    1    1    2    0    0 -0.12298177426E+02  0.18036711461E+02  0.39402352037E+02  0.45045682084E+02  0.00000000000E+00 0.  1.
         11    1    3    3    0    0  0.77533358320E+01 -0.15641673095E+02 -0.32671424482E+02  0.37043192784E+02  0.51100000000E-03 0. -1.
        -11    1    3    3    0    0  0.47647602570E+01 -0.20914845251E+01 -0.46305945684E+01  0.69656050809E+01  0.51100000000E-03 0.  1.
        -12    1    3    3    0    0 -0.21991866302E+00 -0.30355384101E+00 -0.21003329869E+01  0.21335200511E+01  0.00000000000E+00 0.  1.
</event>
<event>
 7    1  0.2001181E-008  0.4614232E+02  0.7816164E-02  0.1320468E+00
        -11   -1    0    0    0    0  0.00000000000E+00  0.00000000000E+00  0.45593999997E+02  0.45594000000E+02  0.51100000000E-03 0.  1.
         11   -1    0    0    0    0 -0.00000000000E+00 -0.00000000000E+00 -0.45593999997E+02  0.45594000000E+02  0.51100000000E-03 0. -1.
    9900012    2    1    2    0    0 -0.27731896434E+01 -0.17067945253E+02 -0.41594570177E+02  0.46142316476E+02  0.99999882833E+01 0.  0.
        -12    1    1    2    0    0  0.27731896434E+01  0.17067945253E+02  0.41594570177E+02  0.45045683524E+02  0.00000000000E+00 0.  1.
         11    1    3    3    0    0 -0.13865948173E-01 -0.49253654269E+01 -0.21213675462E+02  0.21777957749E+02  0.51100000000E-03 0. -1.
        -11    1    3    3    0    0  0.98215462587E+00 -0.63240840863E+01 -0.10653871365E+02  0.12428340298E+02  0.51100000000E-03 0.  1.
        -12    1    3    3    0    0 -0.37414783211E+01 -0.58184957396E+01 -0.97270233498E+01  0.11936018429E+02  0.00000000000E+00 0.  1.
</event>
<event>
 7    1  0.2001181E-008  0.4614232E+02  0.7816164E-02  0.1320468E+00
        -11   -1    0    0    0    0  0.00000000000E+00  0.00000000000E+00  0.45593999997E+02  0.45594000000E+02  0.51100000000E-03 0.  1.
         11   -1    0    0    0    0 -0.00000000000E+00 -0.00000000000E+00 -0.45593999997E+02  0.45594000000E+02  0.51100000000E-03 0. -1.
    9900012    2    1    2    0    0 -0.94062178954E+01 -0.43622888780E+02  0.61384153581E+01  0.46142317591E+02  0.99999984500E+01 0.  0.
        -12    1    1    2    0    0  0.94062178954E+01  0.43622888780E+02 -0.61384153581E+01  0.45045682409E+02  0.00000000000E+00 0.  1.
         11    1    3    3    0    0 -0.36776786825E+01 -0.24517976010E+02  0.75532052221E+01  0.25917318100E+02  0.51100000000E-03 0. -1.
        -11    1    3    3    0    0 -0.60383058663E+00 -0.42151369772E+01  0.76978153789E+00  0.43271878849E+01  0.51100000000E-03 0.  1.
        -12    1    3    3    0    0 -0.51247086263E+01 -0.14889775792E+02 -0.21845714018E+01  0.15897811606E+02  0.00000000000E+00 0.  1.
</event>
<event>
 7    1  0.2001181E-008  0.4614232E+02  0.7816164E-02  0.1320468E+00
        -11   -1    0    0    0    0  0.00000000000E+00  0.00000000000E+00  0.45593999997E+02  0.45594000000E+02  0.51100000000E-03 0.  1.
         11   -1    0    0    0    0 -0.00000000000E+00 -0.00000000000E+00 -0.45593999997E+02  0.45594000000E+02  0.51100000000E-03 0. -1.
    9900012    2    1    2    0    0 -0.37858865178E+02 -0.44478305875E+01 -0.24000762651E+02  0.46142317883E+02  0.10000001115E+02 0.  0.
        -12    1    1    2    0    0  0.37858865178E+02  0.44478305875E+01  0.24000762651E+02  0.45045682117E+02  0.00000000000E+00 0.  1.
         11    1    3    3    0    0 -0.89797141764E+00  0.13679696273E+01 -0.11119756206E+01  0.19784295817E+01  0.51100000000E-03 0. -1.
        -11    1    3    3    0    0 -0.20441372005E+01 -0.12604129054E+01 -0.55169419139E+00  0.24640422741E+01  0.51100000000E-03 0.  1.
         12    1    3    3    0    0 -0.34916756560E+02 -0.45553873093E+01 -0.22337092840E+02  0.41699846028E+02  0.00000000000E+00 0. -1.
</event>
<event>
 7    1  0.2001181E-008  0.4614232E+02  0.7816164E-02  0.1320468E+00
        -11   -1    0    0    0    0  0.00000000000E+00  0.00000000000E+00  0.45593999997E+02  0.45594000000E+02  0.51100000000E-03 0.  1.
         11   -1    0    0    0    0 -0.00000000000E+00 -0.00000000000E+00 -0.45593999997E+02  0.45594000000E+02  0.51100000000E-03 0. -1.
    9900012    2    1    2    0    0  0.36781402401E+02 -0.15323115632E+01 -0.25959468478E+02  0.46142317133E+02  0.99999942730E+01 0.  0.
        -12    1    1    2    0    0 -0.36781402401E+02  0.15323115632E+01  0.25959468478E+02  0.45045682867E+02  0.00000000000E+00 0.  1.
         11    1    3    3    0    0  0.25510793825E+01  0.12260593799E+01 -0.28055728553E+01  0.39852812858E+01  0.51100000000E-03 0. -1.
        -11    1    3    3    0    0  0.85016074478E+00  0.65134400306E+00 -0.25909055399E+01  0.28035359958E+01  0.51100000000E-03 0.  1.
         12    1    3    3    0    0  0.33380162274E+02 -0.34097149462E+01 -0.20562990083E+02  0.39353499851E+02  0.00000000000E+00 0. -1.
</event>
<event>
 7    1  0.2001181E-008  0.4614232E+02  0.7816164E-02  0.1320468E+00
        -11   -1    0    0    0    0  0.00000000000E+00  0.00000000000E+00  0.45593999997E+02  0.45594000000E+02  0.51100000000E-03 0. -1.
         11   -1    0    0    0    0 -0.00000000000E+00 -0.00000000000E+00 -0.45593999997E+02  0.45594000000E+02  0.51100000000E-03 0.  1.
    9900012    2    1    2    0    0  0.28871649792E+02  0.23439787415E+02  0.25418846547E+02  0.46142317016E+02  0.99999932019E+01 0.  0.
        -12    1    1    2    0    0 -0.28871649792E+02 -0.23439787415E+02 -0.25418846547E+02  0.45045682984E+02  0.00000000000E+00 0.  1.
         11    1    3    3    0    0  0.16313374318E+02  0.11453497304E+02  0.12475491343E+02  0.23514818023E+02  0.51100000000E-03 0. -1.
        -11    1    3    3    0    0  0.23823918556E+01  0.49921763000E+01  0.70060107553E+01  0.89264663854E+01  0.51100000000E-03 0.  1.
        -12    1    3    3    0    0  0.10175883618E+02  0.69941138107E+01  0.59373444487E+01  0.13701032607E+02  0.00000000000E+00 0.  1.
</event>
<event>
 7    1  0.2001181E-008  0.4614232E+02  0.7816164E-02  0.1320468E+00
        -11   -1    0    0    0    0  0.00000000000E+00  0.00000000000E+00  0.45593999997E+02  0.45594000000E+02  0.51100000000E-03 0.  1.
         11   -1    0    0    0    0 -0.00000000000E+00 -0.00000000000E+00 -0.45593999997E+02  0.45594000000E+02  0.51100000000E-03 0. -1.
    9900012    2    1    2    0    0  0.37794266608E+01  0.43641426012E+02 -0.10500248983E+02  0.46142319198E+02  0.10000013100E+02 0.  0.
        -12    1    1    2    0    0 -0.37794266608E+01 -0.43641426012E+02  0.10500248983E+02  0.45045680802E+02  0.00000000000E+00 0.  1.
         11    1    3    3    0    0  0.31997418528E+01  0.77331626525E+01 -0.29236245217E+01  0.88649722583E+01  0.51100000000E-03 0. -1.
        -11    1    3    3    0    0 -0.71243011936E-01  0.16188150192E+02 -0.67206579467E+01  0.17527935580E+02  0.51100000000E-03 0.  1.
        -12    1    3    3    0    0  0.65092781991E+00  0.19720113168E+02 -0.85596651498E+00  0.19749411360E+02  0.00000000000E+00 0.  1.
</event>
<event>
 7    1  0.2001181E-008  0.4614231E+02  0.7816164E-02  0.1320468E+00
        -11   -1    0    0    0    0  0.00000000000E+00  0.00000000000E+00  0.45593999997E+02  0.45594000000E+02  0.51100000000E-03 0. -1.
         11   -1    0    0    0    0 -0.00000000000E+00 -0.00000000000E+00 -0.45593999997E+02  0.45594000000E+02  0.51100000000E-03 0.  1.
    9900012    2    1    2    0    0  0.28169345282E+02  0.25292562236E+02  0.24410830835E+02  0.46142307862E+02  0.99999097326E+01 0.  0.
        -12    1    1    2    0    0 -0.28169345282E+02 -0.25292562236E+02 -0.24410830835E+02  0.45045692138E+02  0.00000000000E+00 0.  1.
         11    1    3    3    0    0  0.11502043966E+02  0.11626030897E+02  0.11926764958E+02  0.20241277935E+02  0.51100000000E-03 0. -1.
        -11    1    3    3    0    0  0.84467924570E+01  0.45494660033E+01  0.89648096851E+01  0.13130641899E+02  0.51100000000E-03 0.  1.
         12    1    3    3    0    0  0.82205088595E+01  0.91170653358E+01  0.35192561924E+01  0.12770388028E+02  0.00000000000E+00 0. -1.
</event>
<event>
 7    1  0.2001181E-008  0.4614232E+02  0.7816164E-02  0.1320468E+00
        -11   -1    0    0    0    0  0.00000000000E+00  0.00000000000E+00  0.45593999997E+02  0.45594000000E+02  0.51100000000E-03 0.  1.
         11   -1    0    0    0    0 -0.00000000000E+00 -0.00000000000E+00 -0.45593999997E+02  0.45594000000E+02  0.51100000000E-03 0. -1.
    9900012    2    1    2    0    0  0.26714084367E+01 -0.39797776730E+02 -0.20931173013E+02  0.46142318083E+02  0.10000002935E+02 0.  0.
        -12    1    1    2    0    0 -0.26714084367E+01  0.39797776730E+02  0.20931173013E+02  0.45045681917E+02  0.00000000000E+00 0.  1.
         11    1    3    3    0    0  0.50867484658E+00 -0.22781652725E+02 -0.77930905277E+01  0.24083079355E+02  0.51100000000E-03 0.  1.
        -11    1    3    3    0    0 -0.45564412488E+00 -0.87852491905E+01 -0.46547927013E+01  0.99526534281E+01  0.51100000000E-03 0. -1.
        -12    1    3    3    0    0  0.26183777150E+01 -0.82308748143E+01 -0.84832897840E+01  0.12106585300E+02  0.00000000000E+00 0.  1.
</event>
<event>
 7    1  0.2001181E-008  0.4614232E+02  0.7816164E-02  0.1320468E+00
        -11   -1    0    0    0    0  0.00000000000E+00  0.00000000000E+00  0.45593999997E+02  0.45594000000E+02  0.51100000000E-03 0.  1.
         11   -1    0    0    0    0 -0.00000000000E+00 -0.00000000000E+00 -0.45593999997E+02  0.45594000000E+02  0.51100000000E-03 0. -1.
    9900012    2    1    2    0    0 -0.22554104484E+02  0.17097122366E+02 -0.35044460868E+02  0.46142318079E+02  0.10000002897E+02 0.  0.
        -12    1    1    2    0    0  0.22554104484E+02 -0.17097122366E+02  0.35044460868E+02  0.45045681921E+02  0.00000000000E+00 0.  1.
         11    1    3    3    0    0 -0.41859925230E+01  0.83848255020E+00 -0.39697699395E+01  0.58296363543E+01  0.51100000000E-03 0. -1.
        -11    1    3    3    0    0 -0.17164764226E+01  0.21714301588E+01 -0.59219254495E+00  0.28305639925E+01  0.51100000000E-03 0.  1.
         12    1    3    3    0    0 -0.16651635538E+02  0.14087209657E+02 -0.30482498383E+02  0.37482117732E+02  0.00000000000E+00 0. -1.
</event>
<event>
 7    1  0.2001181E-008  0.4614231E+02  0.7816164E-02  0.1320468E+00
        -11   -1    0    0    0    0  0.00000000000E+00  0.00000000000E+00  0.45593999997E+02  0.45594000000E+02  0.51100000000E-03 0. -1.
         11   -1    0    0    0    0 -0.00000000000E+00 -0.00000000000E+00 -0.45593999997E+02  0.45594000000E+02  0.51100000000E-03 0.  1.
    9900012    2    1    2    0    0 -0.22087147035E+02  0.24598807768E+02  0.30596904745E+02  0.46142312218E+02  0.99999494576E+01 0.  0.
        -12    1    1    2    0    0  0.22087147035E+02 -0.24598807768E+02 -0.30596904745E+02  0.45045687782E+02  0.00000000000E+00 0.  1.
         11    1    3    3    0    0 -0.66260125293E+00  0.88270133938E+00  0.41794105781E+01  0.43226930398E+01  0.51100000000E-03 0. -1.
        -11    1    3    3    0    0 -0.11770776681E+02  0.94605276703E+01  0.13994499823E+02  0.20588802613E+02  0.51100000000E-03 0.  1.
        -12    1    3    3    0    0 -0.96537691014E+01  0.14255578758E+02  0.12422994344E+02  0.21230816566E+02  0.00000000000E+00 0.  1.
</event>
<event>
 7    1  0.2001181E-008  0.4614232E+02  0.7816164E-02  0.1320468E+00
        -11   -1    0    0    0    0  0.00000000000E+00  0.00000000000E+00  0.45593999997E+02  0.45594000000E+02  0.51100000000E-03 0.  1.
         11   -1    0    0    0    0 -0.00000000000E+00 -0.00000000000E+00 -0.45593999997E+02  0.45594000000E+02  0.51100000000E-03 0. -1.
    9900012    2    1    2    0    0  0.27775962233E+02 -0.15527453678E+02 -0.31882719010E+02  0.46142315777E+02  0.99999819056E+01 0.  0.
        -12    1    1    2    0    0 -0.27775962233E+02  0.15527453678E+02  0.31882719010E+02  0.45045684223E+02  0.00000000000E+00 0.  1.
         11    1    3    3    0    0  0.59745235928E+01 -0.35364780454E+01 -0.30928160722E+01  0.76004684490E+01  0.51100000000E-03 0. -1.
        -11    1    3    3    0    0  0.20221392244E+01  0.15772274810E+00 -0.45426009069E+01  0.49748514318E+01  0.51100000000E-03 0.  1.
         12    1    3    3    0    0  0.19779299416E+02 -0.12148698381E+02 -0.24247302031E+02  0.33566995896E+02  0.00000000000E+00 0. -1.
</event>
<event>
 7    1  0.2001181E-008  0.4614232E+02  0.7816164E-02  0.1320468E+00
        -11   -1    0    0    0    0  0.00000000000E+00  0.00000000000E+00  0.45593999997E+02  0.45594000000E+02  0.51100000000E-03 0.  1.
         11   -1    0    0    0    0 -0.00000000000E+00 -0.00000000000E+00 -0.45593999997E+02  0.45594000000E+02  0.51100000000E-03 0. -1.
    9900012    2    1    2    0    0 -0.29555121807E+02  0.26736190415E+02 -0.20994864099E+02  0.46142318504E+02  0.10000006772E+02 0.  0.
        -12    1    1    2    0    0  0.29555121807E+02 -0.26736190415E+02  0.20994864099E+02  0.45045681496E+02  0.00000000000E+00 0.  1.
         11    1    3    3    0    0 -0.73815123229E+01  0.40764603866E+01 -0.51380145259E+01  0.98743833725E+01  0.51100000000E-03 0. -1.
        -11    1    3    3    0    0 -0.10548245614E+02  0.10950937606E+02 -0.11879807751E+02  0.19295552660E+02  0.51100000000E-03 0.  1.
        -12    1    3    3    0    0 -0.11625363870E+02  0.11708792423E+02 -0.39770418214E+01  0.16972382471E+02  0.00000000000E+00 0.  1.
</event>
<event>
 7    1  0.2001181E-008  0.4614232E+02  0.7816164E-02  0.1320468E+00
        -11   -1    0    0    0    0  0.00000000000E+00  0.00000000000E+00  0.45593999997E+02  0.45594000000E+02  0.51100000000E-03 0. -1.
         11   -1    0    0    0    0 -0.00000000000E+00 -0.00000000000E+00 -0.45593999997E+02  0.45594000000E+02  0.51100000000E-03 0.  1.
    9900012    2    1    2    0    0  0.48118973860E+01  0.39897859388E+02  0.20349940680E+02  0.46142316235E+02  0.99999860842E+01 0.  0.
        -12    1    1    2    0    0 -0.48118973860E+01 -0.39897859388E+02 -0.20349940680E+02  0.45045683765E+02  0.00000000000E+00 0.  1.
         11    1    3    3    0    0 -0.55712588481E+00  0.22262020300E+02  0.80118258677E+01  0.23666374693E+02  0.51100000000E-03 0. -1.
        -11    1    3    3    0    0  0.31702703194E+01  0.88773366944E+01  0.42003706516E+01  0.10319924155E+02  0.51100000000E-03 0.  1.
        -12    1    3    3    0    0  0.21987529514E+01  0.87585023933E+01  0.81377441604E+01  0.12156017388E+02  0.00000000000E+00 0.  1.
</event>
<event>
 7    1  0.2001181E-008  0.4614232E+02  0.7816164E-02  0.1320468E+00
        -11   -1    0    0    0    0  0.00000000000E+00  0.00000000000E+00  0.45593999997E+02  0.45594000000E+02  0.51100000000E-03 0. -1.
         11   -1    0    0    0    0 -0.00000000000E+00 -0.00000000000E+00 -0.45593999997E+02  0.45594000000E+02  0.51100000000E-03 0.  1.
    9900012    2    1    2    0    0  0.40686495981E+02  0.15516760007E+02  0.11530508725E+02  0.46142318434E+02  0.10000006133E+02 0.  0.
        -12    1    1    2    0    0 -0.40686495981E+02 -0.15516760007E+02 -0.11530508725E+02  0.45045681566E+02  0.00000000000E+00 0.  1.
         11    1    3    3    0    0  0.20867414420E+02  0.45509811508E+01  0.41372802421E+01  0.21754942015E+02  0.51100000000E-03 0. -1.
        -11    1    3    3    0    0  0.17874498986E+02  0.11286195631E+02  0.74553909161E+01  0.22415592336E+02  0.51100000000E-03 0.  1.
        -12    1    3    3    0    0  0.19445825751E+01 -0.32041677427E+00 -0.62162433134E-01  0.19717840827E+01  0.00000000000E+00 0.  1.
</event>
<event>
 7    1  0.2001181E-008  0.4614232E+02  0.7816164E-02  0.1320468E+00
        -11   -1    0    0    0    0  0.00000000000E+00  0.00000000000E+00  0.45593999997E+02  0.45594000000E+02  0.51100000000E-03 0. -1.
         11   -1    0    0    0    0 -0.00000000000E+00 -0.00000000000E+00 -0.45593999997E+02  0.45594000000E+02  0.51100000000E-03 0.  1.
    9900012    2    1    2    0    0 -0.39578022349E+02  0.19543024272E+02 -0.89868711653E+01  0.46142317586E+02  0.99999984068E+01 0.  0.
        -12    1    1    2    0    0  0.39578022349E+02 -0.19543024272E+02  0.89868711653E+01  0.45045682414E+02  0.00000000000E+00 0.  1.
         11    1    3    3    0    0 -0.44535450741E+00  0.14836274337E+01  0.46392841122E+00  0.16170098426E+01  0.51100000000E-03 0. -1.
        -11    1    3    3    0    0 -0.89068784090E+01  0.61911349165E+01 -0.57832841936E+00  0.10862646941E+02  0.51100000000E-03 0.  1.
         12    1    3    3    0    0 -0.30225789433E+02  0.11868261922E+02 -0.88724711572E+01  0.33662660803E+02  0.00000000000E+00 0. -1.
</event>
<event>
 7    1  0.2001181E-008  0.4614232E+02  0.7816164E-02  0.1320468E+00
        -11   -1    0    0    0    0  0.00000000000E+00  0.00000000000E+00  0.45593999997E+02  0.45594000000E+02  0.51100000000E-03 0.  1.
         11   -1    0    0    0    0 -0.00000000000E+00 -0.00000000000E+00 -0.45593999997E+02  0.45594000000E+02  0.51100000000E-03 0. -1.
    9900012    2    1    2    0    0  0.38028416877E+02 -0.20219714988E+02 -0.13195310117E+02  0.46142316817E+02  0.99999913872E+01 0.  0.
        -12    1    1    2    0    0 -0.38028416877E+02  0.20219714988E+02  0.13195310117E+02  0.45045683183E+02  0.00000000000E+00 0.  1.
         11    1    3    3    0    0 -0.26275942379E+00 -0.27292060875E-01 -0.21850344938E+00  0.34282851382E+00  0.51100000000E-03 0. -1.
        -11    1    3    3    0    0  0.11665904021E+02 -0.87669054999E+01 -0.16300416340E+01  0.14683629819E+02  0.51100000000E-03 0.  1.
         12    1    3    3    0    0  0.26625272280E+02 -0.11425517427E+02 -0.11346765033E+02  0.31115858484E+02  0.00000000000E+00 0. -1.
</event>
<event>
 7    1  0.2001181E-008  0.4614232E+02  0.7816164E-02  0.1320468E+00
        -11   -1    0    0    0    0  0.00000000000E+00  0.00000000000E+00  0.45593999997E+02  0.45594000000E+02  0.51100000000E-03 0.  1.
         11   -1    0    0    0    0 -0.00000000000E+00 -0.00000000000E+00 -0.45593999997E+02  0.45594000000E+02  0.51100000000E-03 0. -1.
    9900012    2    1    2    0    0  0.24952966899E+02 -0.37501946546E+02 -0.25872211560E+00  0.46142317755E+02  0.99999999450E+01 0.  0.
        -12    1    1    2    0    0 -0.24952966899E+02  0.37501946546E+02  0.25872211560E+00  0.45045682245E+02  0.00000000000E+00 0.  1.
         11    1    3    3    0    0  0.10199417746E+02 -0.18648379408E+02  0.26948985340E+01  0.21425514119E+02  0.51100000000E-03 0. -1.
        -11    1    3    3    0    0  0.41529530107E+00  0.36667145405E+00 -0.15197514631E+00  0.57446918849E+00  0.51100000000E-03 0.  1.
        -12    1    3    3    0    0  0.14338253852E+02 -0.19220238592E+02 -0.28016455033E+01  0.24142334448E+02  0.00000000000E+00 0.  1.
</event>
<event>
 7    1  0.2001181E-008  0.4614232E+02  0.7816164E-02  0.1320468E+00
        -11   -1    0    0    0    0  0.00000000000E+00  0.00000000000E+00  0.45593999997E+02  0.45594000000E+02  0.51100000000E-03 0.  1.
         11   -1    0    0    0    0 -0.00000000000E+00 -0.00000000000E+00 -0.45593999997E+02  0.45594000000E+02  0.51100000000E-03 0. -1.
    9900012    2    1    2    0    0 -0.20455111617E+02  0.18205548162E+02 -0.35766744483E+02  0.46142316676E+02  0.99999901071E+01 0.  0.
        -12    1    1    2    0    0  0.20455111617E+02 -0.18205548162E+02  0.35766744483E+02  0.45045683324E+02  0.00000000000E+00 0.  1.
         11    1    3    3    0    0 -0.50868014049E+01  0.24173706935E+01 -0.10698285422E+02  0.12090183656E+02  0.51100000000E-03 0. -1.
        -11    1    3    3    0    0 -0.14994605496E+02  0.15824135758E+02 -0.22038427431E+02  0.30998931439E+02  0.51100000000E-03 0.  1.
        -12    1    3    3    0    0 -0.37370471680E+00 -0.35958289748E-01 -0.30300316304E+01  0.30532015812E+01  0.00000000000E+00 0.  1.
</event>
<event>
 7    1  0.2001181E-008  0.4614232E+02  0.7816164E-02  0.1320468E+00
        -11   -1    0    0    0    0  0.00000000000E+00  0.00000000000E+00  0.45593999997E+02  0.45594000000E+02  0.51100000000E-03 0.  1.
         11   -1    0    0    0    0 -0.00000000000E+00 -0.00000000000E+00 -0.45593999997E+02  0.45594000000E+02  0.51100000000E-03 0. -1.
    9900012    2    1    2    0    0 -0.14442733982E+02  0.22660922362E+01 -0.42607344673E+02  0.46142316977E+02  0.99999928511E+01 0.  0.
        -12    1    1    2    0    0  0.14442733982E+02 -0.22660922362E+01  0.42607344673E+02  0.45045683023E+02  0.00000000000E+00 0.  1.
         11    1    3    3    0    0 -0.22707450710E+01 -0.10647836352E+01 -0.25670523795E+01  0.35888445979E+01  0.51100000000E-03 0. -1.
        -11    1    3    3    0    0 -0.21751959943E+01 -0.87645778261E+00 -0.16112333712E+02  0.16282105323E+02  0.51100000000E-03 0.  1.
        -12    1    3    3    0    0 -0.99967929163E+01  0.42073336540E+01 -0.23927958582E+02  0.26271367056E+02  0.00000000000E+00 0.  1.
</event>
<event>
 7    1  0.2001181E-008  0.4614232E+02  0.7816164E-02  0.1320468E+00
        -11   -1    0    0    0    0  0.00000000000E+00  0.00000000000E+00  0.45593999997E+02  0.45594000000E+02  0.51100000000E-03 0.  1.
         11   -1    0    0    0    0 -0.00000000000E+00 -0.00000000000E+00 -0.45593999997E+02  0.45594000000E+02  0.51100000000E-03 0. -1.
    9900012    2    1    2    0    0  0.16091819380E+02 -0.31484383321E+02 -0.27908789326E+02  0.46142316903E+02  0.99999921715E+01 0.  0.
        -12    1    1    2    0    0 -0.16091819380E+02  0.31484383321E+02  0.27908789326E+02  0.45045683097E+02  0.00000000000E+00 0.  1.
         11    1    3    3    0    0  0.28488778768E+01 -0.78180344578E+01 -0.39129421186E+01  0.91950467223E+01  0.51100000000E-03 0. -1.
        -11    1    3    3    0    0  0.38852355065E+01 -0.14377930645E+02 -0.13348920517E+02  0.20000340592E+02  0.51100000000E-03 0.  1.
         12    1    3    3    0    0  0.93577059966E+01 -0.92884182189E+01 -0.10646926690E+02  0.16946929588E+02  0.00000000000E+00 0. -1.
</event>
<event>
 7    1  0.2001181E-008  0.4614232E+02  0.7816164E-02  0.1320468E+00
        -11   -1    0    0    0    0  0.00000000000E+00  0.00000000000E+00  0.45593999997E+02  0.45594000000E+02  0.51100000000E-03 0.  1.
         11   -1    0    0    0    0 -0.00000000000E+00 -0.00000000000E+00 -0.45593999997E+02  0.45594000000E+02  0.51100000000E-03 0. -1.
    9900012    2    1    2    0    0  0.26423217550E+02 -0.20689485428E+02 -0.30047832408E+02  0.46142318016E+02  0.10000002327E+02 0.  0.
        -12    1    1    2    0    0 -0.26423217550E+02  0.20689485428E+02  0.30047832408E+02  0.45045681984E+02  0.00000000000E+00 0.  1.
         11    1    3    3    0    0  0.11003692697E+02 -0.71563647925E+01 -0.16073440665E+02  0.20752115677E+02  0.51100000000E-03 0. -1.
        -11    1    3    3    0    0  0.13150128753E+01 -0.38821542760E+01 -0.30061563050E+01  0.50830460037E+01  0.51100000000E-03 0.  1.
        -12    1    3    3    0    0  0.14104511978E+02 -0.96509663595E+01 -0.10968235438E+02  0.20307156335E+02  0.00000000000E+00 0.  1.
</event>
<event>
 7    1  0.2001181E-008  0.4614232E+02  0.7816164E-02  0.1320468E+00
        -11   -1    0    0    0    0  0.00000000000E+00  0.00000000000E+00  0.45593999997E+02  0.45594000000E+02  0.51100000000E-03 0.  1.
         11   -1    0    0    0    0 -0.00000000000E+00 -0.00000000000E+00 -0.45593999997E+02  0.45594000000E+02  0.51100000000E-03 0. -1.
    9900012    2    1    2    0    0 -0.18525733071E+02 -0.36500773185E+02 -0.18804369850E+02  0.46142317029E+02  0.99999933201E+01 0.  0.
        -12    1    1    2    0    0  0.18525733071E+02  0.36500773185E+02  0.18804369850E+02  0.45045682971E+02  0.00000000000E+00 0.  1.
         11    1    3    3    0    0  0.30868078628E+00 -0.68617942357E+01 -0.30913681433E+01  0.75323343805E+01  0.51100000000E-03 0. -1.
        -11    1    3    3    0    0 -0.14268664123E+02 -0.19659209808E+02 -0.10639393070E+02  0.26519351261E+02  0.51100000000E-03 0.  1.
        -12    1    3    3    0    0 -0.45657497337E+01 -0.99797691410E+01 -0.50736086366E+01  0.12090631387E+02  0.00000000000E+00 0.  1.
</event>
<event>
 7    1  0.2001181E-008  0.4614232E+02  0.7816164E-02  0.1320468E+00
        -11   -1    0    0    0    0  0.00000000000E+00  0.00000000000E+00  0.45593999997E+02  0.45594000000E+02  0.51100000000E-03 0. -1.
         11   -1    0    0    0    0 -0.00000000000E+00 -0.00000000000E+00 -0.45593999997E+02  0.45594000000E+02  0.51100000000E-03 0.  1.
    9900012    2    1    2    0    0  0.34848529380E+02 -0.17234877525E+02  0.22751975233E+02  0.46142318961E+02  0.10000010945E+02 0.  0.
        -12    1    1    2    0    0 -0.34848529380E+02  0.17234877525E+02 -0.22751975233E+02  0.45045681039E+02  0.00000000000E+00 0.  1.
         11    1    3    3    0    0  0.33050002095E+01  0.66647283535E-01  0.47153259390E+01  0.57586254624E+01  0.51100000000E-03 0. -1.
        -11    1    3    3    0    0  0.46417361265E+01 -0.36827957265E+01  0.38006069470E+01  0.70394113431E+01  0.51100000000E-03 0.  1.
        -12    1    3    3    0    0  0.26901793044E+02 -0.13618729082E+02  0.14236042347E+02  0.33344282156E+02  0.00000000000E+00 0.  1.
</event>
<event>
 7    1  0.2001181E-008  0.4614232E+02  0.7816164E-02  0.1320468E+00
        -11   -1    0    0    0    0  0.00000000000E+00  0.00000000000E+00  0.45593999997E+02  0.45594000000E+02  0.51100000000E-03 0. -1.
         11   -1    0    0    0    0 -0.00000000000E+00 -0.00000000000E+00 -0.45593999997E+02  0.45594000000E+02  0.51100000000E-03 0.  1.
    9900012    2    1    2    0    0  0.10705537043E+02  0.43689131500E+02 -0.24009913356E+01  0.46142317699E+02  0.99999994326E+01 0.  0.
        -12    1    1    2    0    0 -0.10705537043E+02 -0.43689131500E+02  0.24009913356E+01  0.45045682301E+02  0.00000000000E+00 0.  1.
         11    1    3    3    0    0  0.25232080113E+00  0.35760105174E+01 -0.16789492714E+01  0.39585840807E+01  0.51100000000E-03 0. -1.
        -11    1    3    3    0    0 -0.37749346565E+00  0.61106026147E+01  0.18767321866E+01  0.64034435730E+01  0.51100000000E-03 0.  1.
         12    1    3    3    0    0  0.10830709707E+02  0.34002518368E+02 -0.25987742508E+01  0.35780290045E+02  0.00000000000E+00 0. -1.
</event>
<event>
 7    1  0.2001181E-008  0.4614232E+02  0.7816164E-02  0.1320468E+00
        -11   -1    0    0    0    0  0.00000000000E+00  0.00000000000E+00  0.45593999997E+02  0.45594000000E+02  0.51100000000E-03 0.  1.
         11   -1    0    0    0    0 -0.00000000000E+00 -0.00000000000E+00 -0.45593999997E+02  0.45594000000E+02  0.51100000000E-03 0. -1.
    9900012    2    1    2    0    0 -0.11479780590E+02  0.27056111645E+02 -0.34136416120E+02  0.46142318240E+02  0.10000004365E+02 0.  0.
        -12    1    1    2    0    0  0.11479780590E+02 -0.27056111645E+02  0.34136416120E+02  0.45045681760E+02  0.00000000000E+00 0.  1.
         11    1    3    3    0    0 -0.10981130110E+02  0.13873643989E+02 -0.19905164787E+02  0.26632288702E+02  0.51100000000E-03 0. -1.
        -11    1    3    3    0    0 -0.10063244152E+01  0.65457131077E+01 -0.61206593139E+01  0.90178445105E+01  0.51100000000E-03 0.  1.
         12    1    3    3    0    0  0.50767393488E+00  0.66367545485E+01 -0.81105920187E+01  0.10492185028E+02  0.00000000000E+00 0. -1.
</event>
<event>
 7    1  0.2001181E-008  0.4614232E+02  0.7816164E-02  0.1320468E+00
        -11   -1    0    0    0    0  0.00000000000E+00  0.00000000000E+00  0.45593999997E+02  0.45594000000E+02  0.51100000000E-03 0.  1.
         11   -1    0    0    0    0 -0.00000000000E+00 -0.00000000000E+00 -0.45593999997E+02  0.45594000000E+02  0.51100000000E-03 0. -1.
    9900012    2    1    2    0    0 -0.42997907971E+02 -0.58890697351E+01 -0.12066987846E+02  0.46142318432E+02  0.10000006120E+02 0.  0.
        -12    1    1    2    0    0  0.42997907971E+02  0.58890697351E+01  0.12066987846E+02  0.45045681568E+02  0.00000000000E+00 0.  1.
         11    1    3    3    0    0 -0.41179289395E+02 -0.67823834769E+01 -0.10402352708E+02  0.43010970028E+02  0.51100000000E-03 0. -1.
        -11    1    3    3    0    0 -0.84012300783E+00 -0.47844995812E+00 -0.63419138453E+00  0.11562525693E+01  0.51100000000E-03 0.  1.
        -12    1    3    3    0    0 -0.97849556874E+00  0.13717636999E+01 -0.10304437534E+01  0.19750958345E+01  0.00000000000E+00 0.  1.
</event>
<event>
 7    1  0.2001181E-008  0.4614232E+02  0.7816164E-02  0.1320468E+00
        -11   -1    0    0    0    0  0.00000000000E+00  0.00000000000E+00  0.45593999997E+02  0.45594000000E+02  0.51100000000E-03 0.  1.
         11   -1    0    0    0    0 -0.00000000000E+00 -0.00000000000E+00 -0.45593999997E+02  0.45594000000E+02  0.51100000000E-03 0. -1.
    9900012    2    1    2    0    0  0.39387858906E+02  0.10610716115E+02 -0.19108185892E+02  0.46142317701E+02  0.99999994530E+01 0.  0.
        -12    1    1    2    0    0 -0.39387858906E+02 -0.10610716115E+02  0.19108185892E+02  0.45045682299E+02  0.00000000000E+00 0.  1.
         11    1    3    3    0    0  0.53179987189E+01  0.23576193574E+01 -0.24897172976E+01  0.63275723537E+01  0.51100000000E-03 0.  1.
        -11    1    3    3    0    0  0.18456968601E+02 -0.10152166665E+00 -0.78944089500E+01  0.20074652911E+02  0.51100000000E-03 0. -1.
         12    1    3    3    0    0  0.15612891587E+02  0.83546184240E+01 -0.87240596443E+01  0.19740092436E+02  0.00000000000E+00 0. -1.
</event>
<event>
 7    1  0.2001181E-008  0.4614232E+02  0.7816164E-02  0.1320468E+00
        -11   -1    0    0    0    0  0.00000000000E+00  0.00000000000E+00  0.45593999997E+02  0.45594000000E+02  0.51100000000E-03 0.  1.
         11   -1    0    0    0    0 -0.00000000000E+00 -0.00000000000E+00 -0.45593999997E+02  0.45594000000E+02  0.51100000000E-03 0. -1.
    9900012    2    1    2    0    0  0.16367482439E+02 -0.76934368972E+01 -0.41255666242E+02  0.46142318190E+02  0.10000003907E+02 0.  0.
        -12    1    1    2    0    0 -0.16367482439E+02  0.76934368972E+01  0.41255666242E+02  0.45045681810E+02  0.00000000000E+00 0.  1.
         11    1    3    3    0    0  0.73368286863E+00 -0.75452345782E+00 -0.11606423292E+02  0.11654040419E+02  0.51100000000E-03 0. -1.
        -11    1    3    3    0    0  0.73537782538E+01 -0.54543279317E+01 -0.16737121123E+02  0.19077708760E+02  0.51100000000E-03 0.  1.
        -12    1    3    3    0    0  0.82800213169E+01 -0.14845855076E+01 -0.12912121827E+02  0.15410569010E+02  0.00000000000E+00 0.  1.
</event>
<event>
 7    1  0.2001181E-008  0.4614232E+02  0.7816164E-02  0.1320468E+00
        -11   -1    0    0    0    0  0.00000000000E+00  0.00000000000E+00  0.45593999997E+02  0.45594000000E+02  0.51100000000E-03 0. -1.
         11   -1    0    0    0    0 -0.00000000000E+00 -0.00000000000E+00 -0.45593999997E+02  0.45594000000E+02  0.51100000000E-03 0.  1.
    9900012    2    1    2    0    0 -0.36787607842E+02 -0.53079683841E+01  0.25448197126E+02  0.46142319230E+02  0.10000013390E+02 0.  0.
        -12    1    1    2    0    0  0.36787607842E+02  0.53079683841E+01 -0.25448197126E+02  0.45045680770E+02  0.00000000000E+00 0.  1.
         11    1    3    3    0    0 -0.50781761282E+01  0.32684523272E+00  0.35929175104E+01  0.62292661761E+01  0.51100000000E-03 0. -1.
        -11    1    3    3    0    0 -0.21297196778E+02 -0.64477509631E+01  0.18516848347E+02  0.28948536337E+02  0.51100000000E-03 0.  1.
        -12    1    3    3    0    0 -0.10412234936E+02  0.81293734628E+00  0.33384312682E+01  0.10964516716E+02  0.00000000000E+00 0.  1.
</event>
<event>
 7    1  0.2001181E-008  0.4614232E+02  0.7816164E-02  0.1320468E+00
        -11   -1    0    0    0    0  0.00000000000E+00  0.00000000000E+00  0.45593999997E+02  0.45594000000E+02  0.51100000000E-03 0. -1.
         11   -1    0    0    0    0 -0.00000000000E+00 -0.00000000000E+00 -0.45593999997E+02  0.45594000000E+02  0.51100000000E-03 0.  1.
    9900012    2    1    2    0    0  0.23510955677E+02  0.20133264234E+02  0.32726139619E+02  0.46142316745E+02  0.99999907325E+01 0.  0.
        -12    1    1    2    0    0 -0.23510955677E+02 -0.20133264234E+02 -0.32726139619E+02  0.45045683255E+02  0.00000000000E+00 0.  1.
         11    1    3    3    0    0  0.84464992840E+00  0.17883690049E-01  0.61189759389E+00  0.10431549523E+01  0.51100000000E-03 0.  1.
        -11    1    3    3    0    0  0.22244715667E+02  0.20082574709E+02  0.28162874241E+02  0.41125231523E+02  0.51100000000E-03 0. -1.
         12    1    3    3    0    0  0.42159008130E+00  0.32805834856E-01  0.39513677842E+01  0.39739302693E+01  0.00000000000E+00 0. -1.
</event>
<event>
 7    1  0.2001181E-008  0.4614232E+02  0.7816164E-02  0.1320468E+00
        -11   -1    0    0    0    0  0.00000000000E+00  0.00000000000E+00  0.45593999997E+02  0.45594000000E+02  0.51100000000E-03 0. -1.
         11   -1    0    0    0    0 -0.00000000000E+00 -0.00000000000E+00 -0.45593999997E+02  0.45594000000E+02  0.51100000000E-03 0.  1.
    9900012    2    1    2    0    0 -0.13687338289E+02  0.38343000858E+02 -0.19276527780E+02  0.46142317993E+02  0.10000002118E+02 0.  0.
        -12    1    1    2    0    0  0.13687338289E+02 -0.38343000858E+02  0.19276527780E+02  0.45045682007E+02  0.00000000000E+00 0.  1.
         11    1    3    3    0    0  0.14241132507E+01  0.44832148506E+01 -0.10856687802E+01  0.48276278760E+01  0.51100000000E-03 0.  1.
        -11    1    3    3    0    0 -0.79316052561E+01  0.16469170103E+02 -0.88727008668E+01  0.20319171902E+02  0.51100000000E-03 0. -1.
        -12    1    3    3    0    0 -0.71798462835E+01  0.17390615904E+02 -0.93181581327E+01  0.20995518216E+02  0.00000000000E+00 0.  1.
</event>
<event>
 7    1  0.2001181E-008  0.4614232E+02  0.7816164E-02  0.1320468E+00
        -11   -1    0    0    0    0  0.00000000000E+00  0.00000000000E+00  0.45593999997E+02  0.45594000000E+02  0.51100000000E-03 0. -1.
         11   -1    0    0    0    0 -0.00000000000E+00 -0.00000000000E+00 -0.45593999997E+02  0.45594000000E+02  0.51100000000E-03 0.  1.
    9900012    2    1    2    0    0  0.37087056346E+02  0.73007594537E+01 -0.24502298558E+02  0.46142317947E+02  0.10000001693E+02 0.  0.
        -12    1    1    2    0    0 -0.37087056346E+02 -0.73007594537E+01  0.24502298558E+02  0.45045682053E+02  0.00000000000E+00 0.  1.
         11    1    3    3    0    0  0.33182787288E+02  0.47686260336E+01 -0.21267288429E+02  0.39700563268E+02  0.51100000000E-03 0. -1.
        -11    1    3    3    0    0  0.25502598186E+01 -0.13657705994E+00 -0.17888877976E+01  0.31181081201E+01  0.51100000000E-03 0.  1.
         12    1    3    3    0    0  0.13540092397E+01  0.26687104801E+01 -0.14461223314E+01  0.33236465584E+01  0.00000000000E+00 0. -1.
</event>
<event>
 7    1  0.2001181E-008  0.4614232E+02  0.7816164E-02  0.1320468E+00
        -11   -1    0    0    0    0  0.00000000000E+00  0.00000000000E+00  0.45593999997E+02  0.45594000000E+02  0.51100000000E-03 0. -1.
         11   -1    0    0    0    0 -0.00000000000E+00 -0.00000000000E+00 -0.45593999997E+02  0.45594000000E+02  0.51100000000E-03 0.  1.
    9900012    2    1    2    0    0  0.13491558056E+02  0.43873043207E+01  0.42753277353E+02  0.46142319825E+02  0.10000018822E+02 0.  0.
        -12    1    1    2    0    0 -0.13491558056E+02 -0.43873043207E+01 -0.42753277353E+02  0.45045680175E+02  0.00000000000E+00 0.  1.
         11    1    3    3    0    0  0.45250481830E+01 -0.77371800411E+00  0.74527979654E+01  0.87532221714E+01  0.51100000000E-03 0. -1.
        -11    1    3    3    0    0  0.63937763545E+01 -0.12799974865E+00  0.19977005593E+02  0.20975640937E+02  0.51100000000E-03 0.  1.
        -12    1    3    3    0    0  0.25727335189E+01  0.52890220734E+01  0.15323473794E+02  0.16413456716E+02  0.00000000000E+00 0.  1.
</event>
<event>
 7    1  0.2001181E-008  0.4614232E+02  0.7816164E-02  0.1320468E+00
        -11   -1    0    0    0    0  0.00000000000E+00  0.00000000000E+00  0.45593999997E+02  0.45594000000E+02  0.51100000000E-03 0.  1.
         11   -1    0    0    0    0 -0.00000000000E+00 -0.00000000000E+00 -0.45593999997E+02  0.45594000000E+02  0.51100000000E-03 0. -1.
    9900012    2    1    2    0    0 -0.38846419820E+02  0.24698374763E+01 -0.22670885980E+02  0.46142317620E+02  0.99999987114E+01 0.  0.
        -12    1    1    2    0    0  0.38846419820E+02 -0.24698374763E+01  0.22670885980E+02  0.45045682380E+02  0.00000000000E+00 0.  1.
         11    1    3    3    0    0 -0.23577575869E+02  0.92810509266E+00 -0.12735809349E+02  0.26813509710E+02  0.51100000000E-03 0. -1.
        -11    1    3    3    0    0 -0.37986230157E+01  0.15989333029E+00 -0.60394724482E+01  0.71365489143E+01  0.51100000000E-03 0.  1.
         12    1    3    3    0    0 -0.11470220935E+02  0.13818390534E+01 -0.38956041829E+01  0.12192258995E+02  0.00000000000E+00 0. -1.
</event>
<event>
 7    1  0.2001181E-008  0.4614232E+02  0.7816164E-02  0.1320468E+00
        -11   -1    0    0    0    0  0.00000000000E+00  0.00000000000E+00  0.45593999997E+02  0.45594000000E+02  0.51100000000E-03 0. -1.
         11   -1    0    0    0    0 -0.00000000000E+00 -0.00000000000E+00 -0.45593999997E+02  0.45594000000E+02  0.51100000000E-03 0.  1.
    9900012    2    1    2    0    0  0.64123513937E+01  0.89951613069E+01  0.43670153153E+02  0.46142318145E+02  0.10000003502E+02 0.  0.
        -12    1    1    2    0    0 -0.64123513937E+01 -0.89951613069E+01 -0.43670153153E+02  0.45045681855E+02  0.00000000000E+00 0.  1.
         11    1    3    3    0    0 -0.14393259363E+01  0.25255404365E+01  0.11998750577E+02  0.12345850693E+02  0.51100000000E-03 0. -1.
        -11    1    3    3    0    0  0.19205194916E+01  0.10275742522E+01  0.17002249646E+01  0.27631628893E+01  0.51100000000E-03 0.  1.
        -12    1    3    3    0    0  0.59311578384E+01  0.54420466182E+01  0.29971177611E+02  0.31033304563E+02  0.00000000000E+00 0.  1.
</event>
<event>
 7    1  0.2001181E-008  0.4614232E+02  0.7816164E-02  0.1320468E+00
        -11   -1    0    0    0    0  0.00000000000E+00  0.00000000000E+00  0.45593999997E+02  0.45594000000E+02  0.51100000000E-03 0.  1.
         11   -1    0    0    0    0 -0.00000000000E+00 -0.00000000000E+00 -0.45593999997E+02  0.45594000000E+02  0.51100000000E-03 0. -1.
    9900012    2    1    2    0    0 -0.30464272760E+02 -0.39922551231E+01 -0.32940908128E+02  0.46142318253E+02  0.10000004486E+02 0.  0.
        -12    1    1    2    0    0  0.30464272760E+02  0.39922551231E+01  0.32940908128E+02  0.45045681747E+02  0.00000000000E+00 0.  1.
         11    1    3    3    0    0 -0.43601920317E+01  0.16948023057E+01 -0.75828281539E+01  0.89097088887E+01  0.51100000000E-03 0. -1.
        -11    1    3    3    0    0 -0.97100764967E+01  0.27352244356E+00 -0.75365855522E+01  0.12294735546E+02  0.51100000000E-03 0.  1.
         12    1    3    3    0    0 -0.16394004231E+02 -0.59605798724E+01 -0.17821494422E+02  0.24937873818E+02  0.00000000000E+00 0. -1.
</event>
<event>
 7    1  0.2001181E-008  0.4614232E+02  0.7816164E-02  0.1320468E+00
        -11   -1    0    0    0    0  0.00000000000E+00  0.00000000000E+00  0.45593999997E+02  0.45594000000E+02  0.51100000000E-03 0. -1.
         11   -1    0    0    0    0 -0.00000000000E+00 -0.00000000000E+00 -0.45593999997E+02  0.45594000000E+02  0.51100000000E-03 0.  1.
    9900012    2    1    2    0    0 -0.26281492307E+02 -0.34219864522E+02 -0.12938219594E+02  0.46142317720E+02  0.99999996243E+01 0.  0.
        -12    1    1    2    0    0  0.26281492307E+02  0.34219864522E+02  0.12938219594E+02  0.45045682280E+02  0.00000000000E+00 0.  1.
         11    1    3    3    0    0 -0.12242639196E+01 -0.57947966803E+01 -0.38168985224E+01  0.70460772989E+01  0.51100000000E-03 0. -1.
        -11    1    3    3    0    0 -0.13939641172E+02 -0.14329999677E+02 -0.35888182375E+01  0.20311132498E+02  0.51100000000E-03 0.  1.
         12    1    3    3    0    0 -0.11117587215E+02 -0.14095068165E+02 -0.55325028343E+01  0.18785107923E+02  0.00000000000E+00 0. -1.
</event>
<event>
 7    1  0.2001181E-008  0.4614232E+02  0.7816164E-02  0.1320468E+00
        -11   -1    0    0    0    0  0.00000000000E+00  0.00000000000E+00  0.45593999997E+02  0.45594000000E+02  0.51100000000E-03 0. -1.
         11   -1    0    0    0    0 -0.00000000000E+00 -0.00000000000E+00 -0.45593999997E+02  0.45594000000E+02  0.51100000000E-03 0.  1.
    9900012    2    1    2    0    0 -0.21341879486E+02 -0.35578268538E+02 -0.17544926950E+02  0.46142317922E+02  0.10000001466E+02 0.  0.
        -12    1    1    2    0    0  0.21341879486E+02  0.35578268538E+02  0.17544926950E+02  0.45045682078E+02  0.00000000000E+00 0.  1.
         11    1    3    3    0    0 -0.11320497842E+02 -0.16468439104E+02 -0.85321119894E+01  0.21729245113E+02  0.51100000000E-03 0. -1.
        -11    1    3    3    0    0 -0.61892526249E+00  0.58374300147E+00 -0.17589563791E+00  0.86877149405E+00  0.51100000000E-03 0.  1.
         12    1    3    3    0    0 -0.94024563822E+01 -0.19693572436E+02 -0.88369193228E+01  0.23544301315E+02  0.00000000000E+00 0. -1.
</event>
<event>
 7    1  0.2001181E-008  0.4614232E+02  0.7816164E-02  0.1320468E+00
        -11   -1    0    0    0    0  0.00000000000E+00  0.00000000000E+00  0.45593999997E+02  0.45594000000E+02  0.51100000000E-03 0.  1.
         11   -1    0    0    0    0 -0.00000000000E+00 -0.00000000000E+00 -0.45593999997E+02  0.45594000000E+02  0.51100000000E-03 0. -1.
    9900012    2    1    2    0    0  0.12663940631E+02 -0.65147200201E+01 -0.42735191322E+02  0.46142317115E+02  0.99999941038E+01 0.  0.
        -12    1    1    2    0    0 -0.12663940631E+02  0.65147200201E+01  0.42735191322E+02  0.45045682885E+02  0.00000000000E+00 0.  1.
         11    1    3    3    0    0  0.50345949936E+01  0.44768371261E+00 -0.96788039350E+01  0.10919103138E+02  0.51100000000E-03 0. -1.
        -11    1    3    3    0    0  0.92163154604E+00  0.12540606480E+01 -0.43251925576E+01  0.45966687652E+01  0.51100000000E-03 0.  1.
         12    1    3    3    0    0  0.67077140918E+01 -0.82164643807E+01 -0.28731194830E+02  0.30626545212E+02  0.00000000000E+00 0. -1.
</event>
<event>
 7    1  0.2001181E-008  0.4614232E+02  0.7816164E-02  0.1320468E+00
        -11   -1    0    0    0    0  0.00000000000E+00  0.00000000000E+00  0.45593999997E+02  0.45594000000E+02  0.51100000000E-03 0.  1.
         11   -1    0    0    0    0 -0.00000000000E+00 -0.00000000000E+00 -0.45593999997E+02  0.45594000000E+02  0.51100000000E-03 0. -1.
    9900012    2    1    2    0    0 -0.10060631033E+02 -0.69375552475E+00 -0.43902345586E+02  0.46142317171E+02  0.99999946215E+01 0.  0.
        -12    1    1    2    0    0  0.10060631033E+02  0.69375552475E+00  0.43902345586E+02  0.45045682829E+02  0.00000000000E+00 0.  1.
         11    1    3    3    0    0 -0.57819253761E+01 -0.23141826495E+01 -0.26520262789E+02  0.27241704078E+02  0.51100000000E-03 0. -1.
        -11    1    3    3    0    0 -0.11661778996E+01 -0.57896641774E+00 -0.21999696822E+00  0.13204438396E+01  0.51100000000E-03 0.  1.
         12    1    3    3    0    0 -0.31125277576E+01  0.21993935425E+01 -0.17162085829E+02  0.17580169254E+02  0.00000000000E+00 0. -1.
</event>
<event>
 7    1  0.2001181E-008  0.4614232E+02  0.7816164E-02  0.1320468E+00
        -11   -1    0    0    0    0  0.00000000000E+00  0.00000000000E+00  0.45593999997E+02  0.45594000000E+02  0.51100000000E-03 0. -1.
         11   -1    0    0    0    0 -0.00000000000E+00 -0.00000000000E+00 -0.45593999997E+02  0.45594000000E+02  0.51100000000E-03 0.  1.
    9900012    2    1    2    0    0  0.28337247325E+02  0.21507179292E+02  0.27632500309E+02  0.46142318516E+02  0.10000006881E+02 0.  0.
        -12    1    1    2    0    0 -0.28337247325E+02 -0.21507179292E+02 -0.27632500309E+02  0.45045681484E+02  0.00000000000E+00 0.  1.
         11    1    3    3    0    0  0.14953630833E+02  0.11490274531E+02  0.16039507604E+02  0.24756883656E+02  0.51100000000E-03 0. -1.
        -11    1    3    3    0    0  0.11952195751E+02  0.10977168927E+02  0.10757838609E+02  0.19470087640E+02  0.51100000000E-03 0.  1.
        -12    1    3    3    0    0  0.14314207412E+01 -0.96026416661E+00  0.83515409591E+00  0.19153472197E+01  0.00000000000E+00 0.  1.
</event>
<event>
 7    1  0.2001181E-008  0.4614232E+02  0.7816164E-02  0.1320468E+00
        -11   -1    0    0    0    0  0.00000000000E+00  0.00000000000E+00  0.45593999997E+02  0.45594000000E+02  0.51100000000E-03 0.  1.
         11   -1    0    0    0    0 -0.00000000000E+00 -0.00000000000E+00 -0.45593999997E+02  0.45594000000E+02  0.51100000000E-03 0. -1.
    9900012    2    1    2    0    0 -0.42284536193E+01  0.43233631618E+02 -0.11920014626E+02  0.46142317947E+02  0.10000001698E+02 0.  0.
        -12    1    1    2    0    0  0.42284536193E+01 -0.43233631618E+02  0.11920014626E+02  0.45045682053E+02  0.00000000000E+00 0.  1.
         11    1    3    3    0    0 -0.11718384731E+01  0.27012203364E+02 -0.53446765423E+01  0.27560803754E+02  0.51100000000E-03 0. -1.
        -11    1    3    3    0    0 -0.11086255523E+01  0.77757513614E+01 -0.60205082066E+01  0.98963568638E+01  0.51100000000E-03 0.  1.
         12    1    3    3    0    0 -0.19479895940E+01  0.84456768933E+01 -0.55482987667E+00  0.86851573294E+01  0.00000000000E+00 0. -1.
</event>
<event>
 7    1  0.2001181E-008  0.4614232E+02  0.7816164E-02  0.1320468E+00
        -11   -1    0    0    0    0  0.00000000000E+00  0.00000000000E+00  0.45593999997E+02  0.45594000000E+02  0.51100000000E-03 0.  1.
         11   -1    0    0    0    0 -0.00000000000E+00 -0.00000000000E+00 -0.45593999997E+02  0.45594000000E+02  0.51100000000E-03 0. -1.
    9900012    2    1    2    0    0  0.35360863573E+02 -0.49084737219E+01 -0.27470523779E+02  0.46142318036E+02  0.10000002509E+02 0.  0.
        -12    1    1    2    0    0 -0.35360863573E+02  0.49084737219E+01  0.27470523779E+02  0.45045681964E+02  0.00000000000E+00 0.  1.
         11    1    3    3    0    0  0.25269554610E+02 -0.68642605746E+01 -0.21160105245E+02  0.33666281613E+02  0.51100000000E-03 0. -1.
        -11    1    3    3    0    0  0.20067045890E+01 -0.44587349716E+00 -0.24573064898E+01  0.32037512277E+01  0.51100000000E-03 0.  1.
        -12    1    3    3    0    0  0.80846043738E+01  0.24016603499E+01 -0.38531120439E+01  0.92722851951E+01  0.00000000000E+00 0.  1.
</event>
<event>
 7    1  0.2001181E-008  0.4614232E+02  0.7816164E-02  0.1320468E+00
        -11   -1    0    0    0    0  0.00000000000E+00  0.00000000000E+00  0.45593999997E+02  0.45594000000E+02  0.51100000000E-03 0.  1.
         11   -1    0    0    0    0 -0.00000000000E+00 -0.00000000000E+00 -0.45593999997E+02  0.45594000000E+02  0.51100000000E-03 0. -1.
    9900012    2    1    2    0    0 -0.27099208075E+01  0.34597395308E+02 -0.28719158030E+02  0.46142317955E+02  0.10000001772E+02 0.  0.
        -12    1    1    2    0    0  0.27099208075E+01 -0.34597395308E+02  0.28719158030E+02  0.45045682045E+02  0.00000000000E+00 0.  1.
         11    1    3    3    0    0  0.10507693675E+01  0.21408614393E+01 -0.37090756457E+01  0.44096084149E+01  0.51100000000E-03 0. -1.
        -11    1    3    3    0    0  0.69592840893E+00  0.34962306667E+01 -0.54154755122E+01  0.64834651622E+01  0.51100000000E-03 0.  1.
         12    1    3    3    0    0 -0.44566185839E+01  0.28960303202E+02 -0.19594606872E+02  0.35249244378E+02  0.00000000000E+00 0. -1.
</event>
<event>
 7    1  0.2001181E-008  0.4614231E+02  0.7816164E-02  0.1320468E+00
        -11   -1    0    0    0    0  0.00000000000E+00  0.00000000000E+00  0.45593999997E+02  0.45594000000E+02  0.51100000000E-03 0.  1.
         11   -1    0    0    0    0 -0.00000000000E+00 -0.00000000000E+00 -0.45593999997E+02  0.45594000000E+02  0.51100000000E-03 0. -1.
    9900012    2    1    2    0    0  0.41962590379E+02  0.14940415936E+02  0.67111406998E+01  0.46142307319E+02  0.99999047755E+01 0.  0.
        -12    1    1    2    0    0 -0.41962590379E+02 -0.14940415936E+02 -0.67111406998E+01  0.45045692681E+02  0.00000000000E+00 0.  1.
         11    1    3    3    0    0  0.30123106714E+02  0.96211376274E+01  0.49274692269E+01  0.32003871650E+02  0.51100000000E-03 0. -1.
        -11    1    3    3    0    0  0.22100634640E+01  0.13539105712E+01  0.26271025339E+01  0.36904095078E+01  0.51100000000E-03 0.  1.
        -12    1    3    3    0    0  0.96294202009E+01  0.39653677370E+01 -0.84343106100E+00  0.10448026160E+02  0.00000000000E+00 0.  1.
</event>
<event>
 7    1  0.2001181E-008  0.4614232E+02  0.7816164E-02  0.1320468E+00
        -11   -1    0    0    0    0  0.00000000000E+00  0.00000000000E+00  0.45593999997E+02  0.45594000000E+02  0.51100000000E-03 0. -1.
         11   -1    0    0    0    0 -0.00000000000E+00 -0.00000000000E+00 -0.45593999997E+02  0.45594000000E+02  0.51100000000E-03 0.  1.
    9900012    2    1    2    0    0 -0.32408390768E+02 -0.12023201650E+02  0.28883426499E+02  0.46142317672E+02  0.99999991831E+01 0.  0.
        -12    1    1    2    0    0  0.32408390768E+02  0.12023201650E+02 -0.28883426499E+02  0.45045682328E+02  0.00000000000E+00 0.  1.
         11    1    3    3    0    0 -0.13567438657E+02 -0.77965328983E+01  0.17846687865E+02  0.23735323570E+02  0.51100000000E-03 0. -1.
        -11    1    3    3    0    0 -0.12482610627E+02 -0.26429711509E+01  0.87306516551E+01  0.15460438000E+02  0.51100000000E-03 0.  1.
         12    1    3    3    0    0 -0.63583414845E+01 -0.15836976007E+01  0.23060869794E+01  0.69465561022E+01  0.00000000000E+00 0. -1.
</event>
<event>
 7    1  0.2001181E-008  0.4614232E+02  0.7816164E-02  0.1320468E+00
        -11   -1    0    0    0    0  0.00000000000E+00  0.00000000000E+00  0.45593999997E+02  0.45594000000E+02  0.51100000000E-03 0.  1.
         11   -1    0    0    0    0 -0.00000000000E+00 -0.00000000000E+00 -0.45593999997E+02  0.45594000000E+02  0.51100000000E-03 0. -1.
    9900012    2    1    2    0    0 -0.34234430342E+02  0.24464033261E+02  0.16081927678E+02  0.46142317165E+02  0.99999945630E+01 0.  0.
        -12    1    1    2    0    0  0.34234430342E+02 -0.24464033261E+02 -0.16081927678E+02  0.45045682835E+02  0.00000000000E+00 0.  1.
         11    1    3    3    0    0 -0.46007380868E+01  0.54019606667E+01  0.46736537466E+01  0.84965292674E+01  0.51100000000E-03 0. -1.
        -11    1    3    3    0    0 -0.16849795802E+02  0.11029933361E+02  0.99927858083E+01  0.22481788563E+02  0.51100000000E-03 0.  1.
         12    1    3    3    0    0 -0.12783896454E+02  0.80321392332E+01  0.14154881234E+01  0.15163999335E+02  0.00000000000E+00 0. -1.
</event>
<event>
 7    1  0.2001181E-008  0.4614232E+02  0.7816164E-02  0.1320468E+00
        -11   -1    0    0    0    0  0.00000000000E+00  0.00000000000E+00  0.45593999997E+02  0.45594000000E+02  0.51100000000E-03 0.  1.
         11   -1    0    0    0    0 -0.00000000000E+00 -0.00000000000E+00 -0.45593999997E+02  0.45594000000E+02  0.51100000000E-03 0. -1.
    9900012    2    1    2    0    0 -0.25610428840E+02  0.25363400588E+02 -0.27016983393E+02  0.46142317117E+02  0.99999941261E+01 0.  0.
        -12    1    1    2    0    0  0.25610428840E+02 -0.25363400588E+02  0.27016983393E+02  0.45045682883E+02  0.00000000000E+00 0.  1.
         11    1    3    3    0    0 -0.10608744271E+01 -0.44153081919E+00 -0.15538026710E+01  0.19325390076E+01  0.51100000000E-03 0. -1.
        -11    1    3    3    0    0 -0.62137950629E+01  0.58348639779E+01 -0.31154658234E+01  0.90754071138E+01  0.51100000000E-03 0.  1.
        -12    1    3    3    0    0 -0.18335759350E+02  0.19970067429E+02 -0.22347714899E+02  0.35134370996E+02  0.00000000000E+00 0.  1.
</event>
<event>
 7    1  0.2001181E-008  0.4614232E+02  0.7816164E-02  0.1320468E+00
        -11   -1    0    0    0    0  0.00000000000E+00  0.00000000000E+00  0.45593999997E+02  0.45594000000E+02  0.51100000000E-03 0.  1.
         11   -1    0    0    0    0 -0.00000000000E+00 -0.00000000000E+00 -0.45593999997E+02  0.45594000000E+02  0.51100000000E-03 0. -1.
    9900012    2    1    2    0    0  0.28335628181E+02  0.87057216999E+01 -0.33917784647E+02  0.46142317298E+02  0.99999957791E+01 0.  0.
        -12    1    1    2    0    0 -0.28335628181E+02 -0.87057216999E+01  0.33917784647E+02  0.45045682702E+02  0.00000000000E+00 0.  1.
         11    1    3    3    0    0  0.84615241260E+01  0.56812675287E+01 -0.11921903046E+02  0.15684577258E+02  0.51100000000E-03 0. -1.
        -11    1    3    3    0    0  0.68599727806E+01  0.94301343660E-01 -0.36398107778E+01  0.77663596397E+01  0.51100000000E-03 0.  1.
        -12    1    3    3    0    0  0.13014131274E+02  0.29301528276E+01 -0.18356070823E+02  0.22691380400E+02  0.00000000000E+00 0.  1.
</event>
<event>
 7    1  0.2001181E-008  0.4614232E+02  0.7816164E-02  0.1320468E+00
        -11   -1    0    0    0    0  0.00000000000E+00  0.00000000000E+00  0.45593999997E+02  0.45594000000E+02  0.51100000000E-03 0. -1.
         11   -1    0    0    0    0 -0.00000000000E+00 -0.00000000000E+00 -0.45593999997E+02  0.45594000000E+02  0.51100000000E-03 0.  1.
    9900012    2    1    2    0    0 -0.12708070446E+02 -0.37527232049E+02  0.21431872627E+02  0.46142319142E+02  0.10000012588E+02 0.  0.
        -12    1    1    2    0    0  0.12708070446E+02  0.37527232049E+02 -0.21431872627E+02  0.45045680858E+02  0.00000000000E+00 0.  1.
         11    1    3    3    0    0 -0.73976774599E+00 -0.47422457374E+01  0.30553889572E+01  0.56896004159E+01  0.51100000000E-03 0. -1.
        -11    1    3    3    0    0 -0.42794713686E+01 -0.22789057617E+02  0.96414328257E+01  0.25111994135E+02  0.51100000000E-03 0.  1.
        -12    1    3    3    0    0 -0.76888313312E+01 -0.99959286945E+01  0.87350508441E+01  0.15340724590E+02  0.00000000000E+00 0.  1.
</event>
<event>
 7    1  0.2001181E-008  0.4614231E+02  0.7816164E-02  0.1320468E+00
        -11   -1    0    0    0    0  0.00000000000E+00  0.00000000000E+00  0.45593999997E+02  0.45594000000E+02  0.51100000000E-03 0.  1.
         11   -1    0    0    0    0 -0.00000000000E+00 -0.00000000000E+00 -0.45593999997E+02  0.45594000000E+02  0.51100000000E-03 0. -1.
    9900012    2    1    2    0    0 -0.45329954569E+00 -0.20474748803E+02 -0.40120985969E+02  0.46142308374E+02  0.99999143975E+01 0.  0.
        -12    1    1    2    0    0  0.45329954569E+00  0.20474748803E+02  0.40120985969E+02  0.45045691626E+02  0.00000000000E+00 0.  1.
         11    1    3    3    0    0 -0.74596412343E+00 -0.36566967761E+01 -0.11369323694E+02  0.11966177974E+02  0.51100000000E-03 0. -1.
        -11    1    3    3    0    0  0.16267513720E+01 -0.10945051817E+02 -0.24255677221E+02  0.26660426797E+02  0.51100000000E-03 0.  1.
        -12    1    3    3    0    0 -0.13340867942E+01 -0.58730002098E+01 -0.44959850535E+01  0.75157036024E+01  0.00000000000E+00 0.  1.
</event>
<event>
 7    1  0.2001181E-008  0.4614232E+02  0.7816164E-02  0.1320468E+00
        -11   -1    0    0    0    0  0.00000000000E+00  0.00000000000E+00  0.45593999997E+02  0.45594000000E+02  0.51100000000E-03 0.  1.
         11   -1    0    0    0    0 -0.00000000000E+00 -0.00000000000E+00 -0.45593999997E+02  0.45594000000E+02  0.51100000000E-03 0. -1.
    9900012    2    1    2    0    0 -0.13420970950E+02  0.20978827959E+02 -0.37535044978E+02  0.46142320015E+02  0.10000020555E+02 0.  0.
        -12    1    1    2    0    0  0.13420970950E+02 -0.20978827959E+02  0.37535044978E+02  0.45045679985E+02  0.00000000000E+00 0.  1.
         11    1    3    3    0    0 -0.10081151894E+02  0.93581219041E+01 -0.20573597615E+02  0.24748272428E+02  0.51100000000E-03 0. -1.
        -11    1    3    3    0    0 -0.33227518917E+01  0.10740652117E+02 -0.17137641786E+02  0.20496366855E+02  0.51100000000E-03 0.  1.
         12    1    3    3    0    0 -0.17067163987E-01  0.88005393791E+00  0.17619442266E+00  0.89768073183E+00  0.00000000000E+00 0. -1.
</event>
<event>
 7    1  0.2001181E-008  0.4614232E+02  0.7816164E-02  0.1320468E+00
        -11   -1    0    0    0    0  0.00000000000E+00  0.00000000000E+00  0.45593999997E+02  0.45594000000E+02  0.51100000000E-03 0.  1.
         11   -1    0    0    0    0 -0.00000000000E+00 -0.00000000000E+00 -0.45593999997E+02  0.45594000000E+02  0.51100000000E-03 0. -1.
    9900012    2    1    2    0    0 -0.22939334347E+02 -0.10518464307E+02 -0.37313032876E+02  0.46142316810E+02  0.99999913240E+01 0.  0.
        -12    1    1    2    0    0  0.22939334347E+02  0.10518464307E+02  0.37313032876E+02  0.45045683190E+02  0.00000000000E+00 0.  1.
         11    1    3    3    0    0 -0.24079326904E+01  0.19311110291E+00 -0.14311872147E+01  0.28077978639E+01  0.51100000000E-03 0. -1.
        -11    1    3    3    0    0 -0.34162382190E+01 -0.52621285496E+01 -0.79763499955E+01  0.10148046115E+02  0.51100000000E-03 0.  1.
         12    1    3    3    0    0 -0.17115163438E+02 -0.54494468599E+01 -0.27905495666E+02  0.33186472831E+02  0.00000000000E+00 0. -1.
</event>
<event>
 7    1  0.2001181E-008  0.4614232E+02  0.7816164E-02  0.1320468E+00
        -11   -1    0    0    0    0  0.00000000000E+00  0.00000000000E+00  0.45593999997E+02  0.45594000000E+02  0.51100000000E-03 0.  1.
         11   -1    0    0    0    0 -0.00000000000E+00 -0.00000000000E+00 -0.45593999997E+02  0.45594000000E+02  0.51100000000E-03 0. -1.
    9900012    2    1    2    0    0 -0.14919132968E+02  0.38773377599E+02 -0.17411437047E+02  0.46142317865E+02  0.10000000950E+02 0.  0.
        -12    1    1    2    0    0  0.14919132968E+02 -0.38773377599E+02  0.17411437047E+02  0.45045682135E+02  0.00000000000E+00 0.  1.
         11    1    3    3    0    0 -0.58725660038E+01  0.25550637827E+02 -0.78049930023E+01  0.27353976692E+02  0.51100000000E-03 0. -1.
        -11    1    3    3    0    0 -0.90445221754E+01  0.12713949416E+02 -0.90634614374E+01  0.18044229677E+02  0.51100000000E-03 0.  1.
         12    1    3    3    0    0 -0.20447889105E-02  0.50879035495E+00 -0.54298260769E+00  0.74411149615E+00  0.00000000000E+00 0. -1.
</event>
<event>
 7    1  0.2001181E-008  0.4614232E+02  0.7816164E-02  0.1320468E+00
        -11   -1    0    0    0    0  0.00000000000E+00  0.00000000000E+00  0.45593999997E+02  0.45594000000E+02  0.51100000000E-03 0.  1.
         11   -1    0    0    0    0 -0.00000000000E+00 -0.00000000000E+00 -0.45593999997E+02  0.45594000000E+02  0.51100000000E-03 0. -1.
    9900012    2    1    2    0    0 -0.19876489924E+02 -0.40270790743E+02 -0.35074167426E+01  0.46142318620E+02  0.10000007836E+02 0.  0.
        -12    1    1    2    0    0  0.19876489924E+02  0.40270790743E+02  0.35074167426E+01  0.45045681380E+02  0.00000000000E+00 0.  1.
         11    1    3    3    0    0 -0.12427309456E+02 -0.27638788111E+02 -0.28074852332E+01  0.30433905470E+02  0.51100000000E-03 0. -1.
        -11    1    3    3    0    0 -0.30897454438E+01 -0.66689490816E+01  0.23505827464E+01  0.77166474761E+01  0.51100000000E-03 0.  1.
        -12    1    3    3    0    0 -0.43594350240E+01 -0.59630535503E+01 -0.30505142558E+01  0.79917656745E+01  0.00000000000E+00 0.  1.
</event>
<event>
 7    1  0.2001181E-008  0.4614232E+02  0.7816164E-02  0.1320468E+00
        -11   -1    0    0    0    0  0.00000000000E+00  0.00000000000E+00  0.45593999997E+02  0.45594000000E+02  0.51100000000E-03 0.  1.
         11   -1    0    0    0    0 -0.00000000000E+00 -0.00000000000E+00 -0.45593999997E+02  0.45594000000E+02  0.51100000000E-03 0. -1.
    9900012    2    1    2    0    0 -0.20788054938E+02  0.23537605366E+01 -0.39892731852E+02  0.46142317950E+02  0.10000001722E+02 0.  0.
        -12    1    1    2    0    0  0.20788054938E+02 -0.23537605366E+01  0.39892731852E+02  0.45045682050E+02  0.00000000000E+00 0.  1.
         11    1    3    3    0    0 -0.10049116485E+02  0.17095280238E+01 -0.24759773276E+02  0.26775989265E+02  0.51100000000E-03 0. -1.
        -11    1    3    3    0    0 -0.35323627510E+01 -0.23138202553E+01 -0.63566599483E+01  0.76314138099E+01  0.51100000000E-03 0.  1.
        -12    1    3    3    0    0 -0.72065757016E+01  0.29580527680E+01 -0.87762986278E+01  0.11734914875E+02  0.00000000000E+00 0.  1.
</event>
<event>
 7    1  0.2001181E-008  0.4614231E+02  0.7816164E-02  0.1320468E+00
        -11   -1    0    0    0    0  0.00000000000E+00  0.00000000000E+00  0.45593999997E+02  0.45594000000E+02  0.51100000000E-03 0. -1.
         11   -1    0    0    0    0 -0.00000000000E+00 -0.00000000000E+00 -0.45593999997E+02  0.45594000000E+02  0.51100000000E-03 0.  1.
    9900012    2    1    2    0    0 -0.23668483848E+02 -0.27288298601E+02  0.26912180077E+02  0.46142314250E+02  0.99999679821E+01 0.  0.
        -12    1    1    2    0    0  0.23668483848E+02  0.27288298601E+02 -0.26912180077E+02  0.45045685750E+02  0.00000000000E+00 0.  1.
         11    1    3    3    0    0 -0.15557109312E+01 -0.44884990293E+00  0.27326104181E+00  0.16420641263E+01  0.51100000000E-03 0. -1.
        -11    1    3    3    0    0 -0.26077163750E+01 -0.11585083910E+01  0.31262052931E+00  0.28705501634E+01  0.51100000000E-03 0.  1.
         12    1    3    3    0    0 -0.19505056542E+02 -0.25680940308E+02  0.26326298506E+02  0.41629699960E+02  0.00000000000E+00 0. -1.
</event>
<event>
 7    1  0.2001181E-008  0.4614232E+02  0.7816164E-02  0.1320468E+00
        -11   -1    0    0    0    0  0.00000000000E+00  0.00000000000E+00  0.45593999997E+02  0.45594000000E+02  0.51100000000E-03 0.  1.
         11   -1    0    0    0    0 -0.00000000000E+00 -0.00000000000E+00 -0.45593999997E+02  0.45594000000E+02  0.51100000000E-03 0. -1.
    9900012    2    1    2    0    0  0.96493709910E+01  0.69801705674E+01 -0.43442840109E+02  0.46142317650E+02  0.99999989875E+01 0.  0.
        -12    1    1    2    0    0 -0.96493709910E+01 -0.69801705674E+01  0.43442840109E+02  0.45045682350E+02  0.00000000000E+00 0.  1.
         11    1    3    3    0    0  0.12124253241E+00  0.11794486021E+00 -0.75434718713E-01  0.18520637036E+00  0.51100000000E-03 0. -1.
        -11    1    3    3    0    0 -0.53419476171E+00  0.15819167614E+01 -0.71403130661E+00  0.18159475905E+01  0.51100000000E-03 0.  1.
         12    1    3    3    0    0  0.10062323220E+02  0.52803089458E+01 -0.42653374083E+02  0.44141163689E+02  0.00000000000E+00 0. -1.
</event>
<event>
 7    1  0.2001181E-008  0.4614232E+02  0.7816164E-02  0.1320468E+00
        -11   -1    0    0    0    0  0.00000000000E+00  0.00000000000E+00  0.45593999997E+02  0.45594000000E+02  0.51100000000E-03 0.  1.
         11   -1    0    0    0    0 -0.00000000000E+00 -0.00000000000E+00 -0.45593999997E+02  0.45594000000E+02  0.51100000000E-03 0. -1.
    9900012    2    1    2    0    0 -0.20268112290E+02 -0.75459070023E+01 -0.39514253468E+02  0.46142319681E+02  0.10000017503E+02 0.  0.
        -12    1    1    2    0    0  0.20268112290E+02  0.75459070023E+01  0.39514253468E+02  0.45045680319E+02  0.00000000000E+00 0.  1.
         11    1    3    3    0    0 -0.28677868754E+01 -0.34357400083E+01 -0.13631483153E+02  0.14347328817E+02  0.51100000000E-03 0. -1.
        -11    1    3    3    0    0 -0.36964276488E+01 -0.22662836657E+01 -0.88591260449E+01  0.98632516726E+01  0.51100000000E-03 0.  1.
        -12    1    3    3    0    0 -0.13703897766E+02 -0.18438833282E+01 -0.17023644271E+02  0.21931739191E+02  0.00000000000E+00 0.  1.
</event>
<event>
 7    1  0.2001181E-008  0.4614232E+02  0.7816164E-02  0.1320468E+00
        -11   -1    0    0    0    0  0.00000000000E+00  0.00000000000E+00  0.45593999997E+02  0.45594000000E+02  0.51100000000E-03 0.  1.
         11   -1    0    0    0    0 -0.00000000000E+00 -0.00000000000E+00 -0.45593999997E+02  0.45594000000E+02  0.51100000000E-03 0. -1.
    9900012    2    1    2    0    0 -0.19311017232E+02 -0.60617989457E+00 -0.40691898290E+02  0.46142318441E+02  0.10000006204E+02 0.  0.
        -12    1    1    2    0    0  0.19311017232E+02  0.60617989457E+00  0.40691898290E+02  0.45045681559E+02  0.00000000000E+00 0.  1.
         11    1    3    3    0    0 -0.23741963536E+01  0.13859473777E+01 -0.33036097936E+01  0.42978478787E+01  0.51100000000E-03 0. -1.
        -11    1    3    3    0    0 -0.33093072656E+01 -0.27876696248E+01 -0.45350772477E+01  0.62681370773E+01  0.51100000000E-03 0.  1.
         12    1    3    3    0    0 -0.13627513613E+02  0.79554235258E+00 -0.32853211249E+02  0.35576333486E+02  0.00000000000E+00 0. -1.
</event>
<event>
 7    1  0.2001181E-008  0.4614232E+02  0.7816164E-02  0.1320468E+00
        -11   -1    0    0    0    0  0.00000000000E+00  0.00000000000E+00  0.45593999997E+02  0.45594000000E+02  0.51100000000E-03 0.  1.
         11   -1    0    0    0    0 -0.00000000000E+00 -0.00000000000E+00 -0.45593999997E+02  0.45594000000E+02  0.51100000000E-03 0. -1.
    9900012    2    1    2    0    0 -0.10110419607E+02  0.36231619486E+02 -0.24782305551E+02  0.46142317592E+02  0.99999984565E+01 0.  0.
        -12    1    1    2    0    0  0.10110419607E+02 -0.36231619486E+02  0.24782305551E+02  0.45045682408E+02  0.00000000000E+00 0.  1.
         11    1    3    3    0    0 -0.15651505229E+01  0.49244709435E+01 -0.80824023387E+01  0.95929837932E+01  0.51100000000E-03 0.  1.
        -11    1    3    3    0    0 -0.12756928277E+01  0.78113116007E+01 -0.39156240280E+01  0.88304072898E+01  0.51100000000E-03 0. -1.
        -12    1    3    3    0    0 -0.72695762568E+01  0.23495836942E+02 -0.12784279184E+02  0.27718926509E+02  0.00000000000E+00 0.  1.
</event>
<event>
 7    1  0.2001181E-008  0.4614232E+02  0.7816164E-02  0.1320468E+00
        -11   -1    0    0    0    0  0.00000000000E+00  0.00000000000E+00  0.45593999997E+02  0.45594000000E+02  0.51100000000E-03 0.  1.
         11   -1    0    0    0    0 -0.00000000000E+00 -0.00000000000E+00 -0.45593999997E+02  0.45594000000E+02  0.51100000000E-03 0. -1.
    9900012    2    1    2    0    0  0.43222337847E+02 -0.10536955273E+02  0.70650983098E+01  0.46142317305E+02  0.99999958371E+01 0.  0.
        -12    1    1    2    0    0 -0.43222337847E+02  0.10536955273E+02 -0.70650983098E+01  0.45045682695E+02  0.00000000000E+00 0.  1.
         11    1    3    3    0    0  0.11449383749E+01 -0.88592185425E+00  0.19342335960E+01  0.24159886753E+01  0.51100000000E-03 0. -1.
        -11    1    3    3    0    0  0.17034382455E+02 -0.39919145844E+01 -0.23352947789E+00  0.17497431353E+02  0.51100000000E-03 0.  1.
         12    1    3    3    0    0  0.25043017017E+02 -0.56591188345E+01  0.53643941917E+01  0.26228897277E+02  0.00000000000E+00 0. -1.
</event>
<event>
 7    1  0.2001181E-008  0.4614232E+02  0.7816164E-02  0.1320468E+00
        -11   -1    0    0    0    0  0.00000000000E+00  0.00000000000E+00  0.45593999997E+02  0.45594000000E+02  0.51100000000E-03 0. -1.
         11   -1    0    0    0    0 -0.00000000000E+00 -0.00000000000E+00 -0.45593999997E+02  0.45594000000E+02  0.51100000000E-03 0.  1.
    9900012    2    1    2    0    0 -0.33920227970E+02 -0.25993139681E+02  0.14243887742E+02  0.46142317477E+02  0.99999974081E+01 0.  0.
        -12    1    1    2    0    0  0.33920227970E+02  0.25993139681E+02 -0.14243887742E+02  0.45045682523E+02  0.00000000000E+00 0.  1.
         11    1    3    3    0    0 -0.21686236299E+02 -0.15793129092E+02  0.13037851610E+02  0.29827861911E+02  0.51100000000E-03 0. -1.
        -11    1    3    3    0    0 -0.71047946409E+01 -0.58519610586E+01  0.23352340081E+01  0.94961504440E+01  0.51100000000E-03 0.  1.
        -12    1    3    3    0    0 -0.51291970297E+01 -0.43480495301E+01 -0.11291978766E+01  0.68183051215E+01  0.00000000000E+00 0.  1.
</event>
<event>
 7    1  0.2001181E-008  0.4614232E+02  0.7816164E-02  0.1320468E+00
        -11   -1    0    0    0    0  0.00000000000E+00  0.00000000000E+00  0.45593999997E+02  0.45594000000E+02  0.51100000000E-03 0.  1.
         11   -1    0    0    0    0 -0.00000000000E+00 -0.00000000000E+00 -0.45593999997E+02  0.45594000000E+02  0.51100000000E-03 0. -1.
    9900012    2    1    2    0    0 -0.36655425497E+02  0.13357040070E+02 -0.22518499679E+02  0.46142316904E+02  0.99999921806E+01 0.  0.
        -12    1    1    2    0    0  0.36655425497E+02 -0.13357040070E+02  0.22518499679E+02  0.45045683096E+02  0.00000000000E+00 0.  1.
         11    1    3    3    0    0 -0.38634712783E+01  0.16473470069E+00 -0.52284245114E+00  0.39021676450E+01  0.51100000000E-03 0. -1.
        -11    1    3    3    0    0 -0.16862141751E+02  0.38551605714E+01 -0.79297000608E+01  0.19028248232E+02  0.51100000000E-03 0.  1.
         12    1    3    3    0    0 -0.15929812468E+02  0.93371447974E+01 -0.14065957167E+02  0.23211901027E+02  0.00000000000E+00 0. -1.
</event>
<event>
 7    1  0.2001181E-008  0.4614232E+02  0.7816164E-02  0.1320468E+00
        -11   -1    0    0    0    0  0.00000000000E+00  0.00000000000E+00  0.45593999997E+02  0.45594000000E+02  0.51100000000E-03 0.  1.
         11   -1    0    0    0    0 -0.00000000000E+00 -0.00000000000E+00 -0.45593999997E+02  0.45594000000E+02  0.51100000000E-03 0. -1.
    9900012    2    1    2    0    0  0.13152018243E+02  0.26426867678E+02 -0.34025852174E+02  0.46142317240E+02  0.99999952456E+01 0.  0.
        -12    1    1    2    0    0 -0.13152018243E+02 -0.26426867678E+02  0.34025852174E+02  0.45045682760E+02  0.00000000000E+00 0.  1.
         11    1    3    3    0    0  0.80958333818E+00  0.17792188243E+01 -0.22918237407E+01  0.30122252780E+01  0.51100000000E-03 0. -1.
        -11    1    3    3    0    0  0.10591673131E+02  0.10506193964E+02 -0.17369881108E+02  0.22897083249E+02  0.51100000000E-03 0.  1.
        -12    1    3    3    0    0  0.17507617737E+01  0.14141454890E+02 -0.14364147326E+02  0.20233008713E+02  0.00000000000E+00 0.  1.
</event>
<event>
 7    1  0.2001181E-008  0.4614232E+02  0.7816164E-02  0.1320468E+00
        -11   -1    0    0    0    0  0.00000000000E+00  0.00000000000E+00  0.45593999997E+02  0.45594000000E+02  0.51100000000E-03 0. -1.
         11   -1    0    0    0    0 -0.00000000000E+00 -0.00000000000E+00 -0.45593999997E+02  0.45594000000E+02  0.51100000000E-03 0.  1.
    9900012    2    1    2    0    0  0.16502495057E+02  0.37223769641E+02  0.19265829015E+02  0.46142317221E+02  0.99999950724E+01 0.  0.
        -12    1    1    2    0    0 -0.16502495057E+02 -0.37223769641E+02 -0.19265829015E+02  0.45045682779E+02  0.00000000000E+00 0.  1.
         11    1    3    3    0    0  0.53544354865E+01  0.16010527170E+02  0.78105847192E+01  0.18601403000E+02  0.51100000000E-03 0. -1.
        -11    1    3    3    0    0  0.48810853501E+01  0.45820084149E+01  0.61477968081E+00  0.67229271621E+01  0.51100000000E-03 0.  1.
         12    1    3    3    0    0  0.62669742202E+01  0.16631234056E+02  0.10840464615E+02  0.20817987059E+02  0.00000000000E+00 0. -1.
</event>
<event>
 7    1  0.2001181E-008  0.4614232E+02  0.7816164E-02  0.1320468E+00
        -11   -1    0    0    0    0  0.00000000000E+00  0.00000000000E+00  0.45593999997E+02  0.45594000000E+02  0.51100000000E-03 0.  1.
         11   -1    0    0    0    0 -0.00000000000E+00 -0.00000000000E+00 -0.45593999997E+02  0.45594000000E+02  0.51100000000E-03 0. -1.
    9900012    2    1    2    0    0  0.23817183320E+02 -0.14578550543E+02 -0.35345739724E+02  0.46142315702E+02  0.99999812250E+01 0.  0.
        -12    1    1    2    0    0 -0.23817183320E+02  0.14578550543E+02  0.35345739724E+02  0.45045684298E+02  0.00000000000E+00 0.  1.
         11    1    3    3    0    0  0.77749554823E+01 -0.33849228642E+01 -0.97065750362E+01  0.12888957861E+02  0.51100000000E-03 0. -1.
        -11    1    3    3    0    0  0.90083722352E+01 -0.61264462436E+01 -0.20393088680E+02  0.23120600772E+02  0.51100000000E-03 0.  1.
         12    1    3    3    0    0  0.70338556028E+01 -0.50671814353E+01 -0.52460760073E+01  0.10132757069E+02  0.00000000000E+00 0. -1.
</event>
<event>
 7    1  0.2001181E-008  0.4614231E+02  0.7816164E-02  0.1320468E+00
        -11   -1    0    0    0    0  0.00000000000E+00  0.00000000000E+00  0.45593999997E+02  0.45594000000E+02  0.51100000000E-03 0.  1.
         11   -1    0    0    0    0 -0.00000000000E+00 -0.00000000000E+00 -0.45593999997E+02  0.45594000000E+02  0.51100000000E-03 0. -1.
    9900012    2    1    2    0    0 -0.12821895230E+02 -0.39674405249E+02 -0.17048591269E+02  0.46142313265E+02  0.99999590001E+01 0.  0.
        -12    1    1    2    0    0  0.12821895230E+02  0.39674405249E+02  0.17048591269E+02  0.45045686735E+02  0.00000000000E+00 0.  1.
         11    1    3    3    0    0 -0.10162128125E+02 -0.23277956065E+02 -0.97885620907E+01  0.27220360664E+02  0.51100000000E-03 0. -1.
        -11    1    3    3    0    0  0.46540485735E+00 -0.92453937523E+01 -0.18881355972E+01  0.94476962065E+01  0.51100000000E-03 0.  1.
         12    1    3    3    0    0 -0.31251719625E+01 -0.71510554318E+01 -0.53718935814E+01  0.94742563948E+01  0.00000000000E+00 0. -1.
</event>
<event>
 7    1  0.2001181E-008  0.4614232E+02  0.7816164E-02  0.1320468E+00
        -11   -1    0    0    0    0  0.00000000000E+00  0.00000000000E+00  0.45593999997E+02  0.45594000000E+02  0.51100000000E-03 0. -1.
         11   -1    0    0    0    0 -0.00000000000E+00 -0.00000000000E+00 -0.45593999997E+02  0.45594000000E+02  0.51100000000E-03 0.  1.
    9900012    2    1    2    0    0  0.38869354882E+02 -0.21578769416E+02 -0.72555863490E+01  0.46142316835E+02  0.99999915582E+01 0.  0.
        -12    1    1    2    0    0 -0.38869354882E+02  0.21578769416E+02  0.72555863490E+01  0.45045683165E+02  0.00000000000E+00 0.  1.
         11    1    3    3    0    0  0.24711769118E+02 -0.16020365882E+02 -0.79962423405E+00  0.29461212723E+02  0.51100000000E-03 0. -1.
        -11    1    3    3    0    0  0.43171135646E+00 -0.44543104853E+00 -0.72104587572E+00  0.95115242222E+00  0.51100000000E-03 0.  1.
         12    1    3    3    0    0  0.13725874408E+02 -0.51129724862E+01 -0.57349162392E+01  0.15729951690E+02  0.00000000000E+00 0. -1.
</event>
<event>
 7    1  0.2001181E-008  0.4614232E+02  0.7816164E-02  0.1320468E+00
        -11   -1    0    0    0    0  0.00000000000E+00  0.00000000000E+00  0.45593999997E+02  0.45594000000E+02  0.51100000000E-03 0.  1.
         11   -1    0    0    0    0 -0.00000000000E+00 -0.00000000000E+00 -0.45593999997E+02  0.45594000000E+02  0.51100000000E-03 0. -1.
    9900012    2    1    2    0    0 -0.82327441530E+01 -0.26731603698E+02 -0.35309444981E+02  0.46142316329E+02  0.99999869368E+01 0.  0.
        -12    1    1    2    0    0  0.82327441530E+01  0.26731603698E+02  0.35309444981E+02  0.45045683671E+02  0.00000000000E+00 0.  1.
         11    1    3    3    0    0 -0.43397158762E+01 -0.18117066281E+02 -0.27024345740E+02  0.32823413708E+02  0.51100000000E-03 0. -1.
        -11    1    3    3    0    0 -0.81842034885E+00 -0.54274481213E+01 -0.65917847081E+01  0.85777987198E+01  0.51100000000E-03 0.  1.
        -12    1    3    3    0    0 -0.30746079279E+01 -0.31870892961E+01 -0.16933145329E+01  0.47411039009E+01  0.00000000000E+00 0.  1.
</event>
<event>
 7    1  0.2001181E-008  0.4614231E+02  0.7816164E-02  0.1320468E+00
        -11   -1    0    0    0    0  0.00000000000E+00  0.00000000000E+00  0.45593999997E+02  0.45594000000E+02  0.51100000000E-03 0.  1.
         11   -1    0    0    0    0 -0.00000000000E+00 -0.00000000000E+00 -0.45593999997E+02  0.45594000000E+02  0.51100000000E-03 0. -1.
    9900012    2    1    2    0    0  0.10041143705E+02 -0.42578886225E+02 -0.10739079362E+02  0.46142312696E+02  0.99999538162E+01 0.  0.
        -12    1    1    2    0    0 -0.10041143705E+02  0.42578886225E+02  0.10739079362E+02  0.45045687304E+02  0.00000000000E+00 0.  1.
         11    1    3    3    0    0  0.33204024134E+00 -0.77799049176E+01 -0.27469929049E+01  0.82573083707E+01  0.51100000000E-03 0. -1.
        -11    1    3    3    0    0  0.17383063854E+01 -0.14651545421E+02  0.10478310508E+00  0.14754676278E+02  0.51100000000E-03 0.  1.
         12    1    3    3    0    0  0.79707970785E+01 -0.20147435887E+02 -0.80968695626E+01  0.23130328048E+02  0.00000000000E+00 0. -1.
</event>
<event>
 7    1  0.2001181E-008  0.4614232E+02  0.7816164E-02  0.1320468E+00
        -11   -1    0    0    0    0  0.00000000000E+00  0.00000000000E+00  0.45593999997E+02  0.45594000000E+02  0.51100000000E-03 0.  1.
         11   -1    0    0    0    0 -0.00000000000E+00 -0.00000000000E+00 -0.45593999997E+02  0.45594000000E+02  0.51100000000E-03 0. -1.
    9900012    2    1    2    0    0 -0.23970341324E+02  0.18741727437E+02 -0.33215714879E+02  0.46142319570E+02  0.10000016496E+02 0.  0.
        -12    1    1    2    0    0  0.23970341324E+02 -0.18741727437E+02  0.33215714879E+02  0.45045680430E+02  0.00000000000E+00 0.  1.
         11    1    3    3    0    0 -0.14287698883E+02  0.11138738454E+02 -0.20192051822E+02  0.27128007497E+02  0.51100000000E-03 0. -1.
        -11    1    3    3    0    0 -0.95130500723E+01  0.83217467383E+01 -0.10648379479E+02  0.16526874364E+02  0.51100000000E-03 0.  1.
        -12    1    3    3    0    0 -0.16959236846E+00 -0.71875775539E+00 -0.23752835773E+01  0.24874377087E+01  0.00000000000E+00 0.  1.
</event>
<event>
 7    1  0.2001181E-008  0.4614232E+02  0.7816164E-02  0.1320468E+00
        -11   -1    0    0    0    0  0.00000000000E+00  0.00000000000E+00  0.45593999997E+02  0.45594000000E+02  0.51100000000E-03 0.  1.
         11   -1    0    0    0    0 -0.00000000000E+00 -0.00000000000E+00 -0.45593999997E+02  0.45594000000E+02  0.51100000000E-03 0. -1.
    9900012    2    1    2    0    0  0.13725688290E+02  0.72589839491E+01 -0.42285057792E+02  0.46142317860E+02  0.10000000901E+02 0.  0.
        -12    1    1    2    0    0 -0.13725688290E+02 -0.72589839491E+01  0.42285057792E+02  0.45045682140E+02  0.00000000000E+00 0.  1.
         11    1    3    3    0    0  0.25288936574E+01  0.53821367288E+00 -0.16327796529E+02  0.16531240632E+02  0.51100000000E-03 0. -1.
        -11    1    3    3    0    0  0.50319198159E+00  0.25467988764E+01 -0.31839098062E+01  0.41081222721E+01  0.51100000000E-03 0.  1.
        -12    1    3    3    0    0  0.10693602651E+02  0.41739713999E+01 -0.22773351456E+02  0.25502954956E+02  0.00000000000E+00 0.  1.
</event>
<event>
 7    1  0.2001181E-008  0.4614232E+02  0.7816164E-02  0.1320468E+00
        -11   -1    0    0    0    0  0.00000000000E+00  0.00000000000E+00  0.45593999997E+02  0.45594000000E+02  0.51100000000E-03 0. -1.
         11   -1    0    0    0    0 -0.00000000000E+00 -0.00000000000E+00 -0.45593999997E+02  0.45594000000E+02  0.51100000000E-03 0.  1.
    9900012    2    1    2    0    0  0.31509483997E+02 -0.26846360070E+02  0.17763414751E+02  0.46142317250E+02  0.99999953425E+01 0.  0.
        -12    1    1    2    0    0 -0.31509483997E+02  0.26846360070E+02 -0.17763414751E+02  0.45045682750E+02  0.00000000000E+00 0.  1.
         11    1    3    3    0    0  0.18693732258E+02 -0.12010232595E+02  0.62370603633E+01  0.23078176595E+02  0.51100000000E-03 0. -1.
        -11    1    3    3    0    0  0.78120594303E+01 -0.92970933058E+01  0.49417169294E+01  0.13110483704E+02  0.51100000000E-03 0.  1.
        -12    1    3    3    0    0  0.50036923089E+01 -0.55390341694E+01  0.65846374585E+01  0.99536569516E+01  0.00000000000E+00 0.  1.
</event>
<event>
 7    1  0.2001181E-008  0.4614232E+02  0.7816164E-02  0.1320468E+00
        -11   -1    0    0    0    0  0.00000000000E+00  0.00000000000E+00  0.45593999997E+02  0.45594000000E+02  0.51100000000E-03 0.  1.
         11   -1    0    0    0    0 -0.00000000000E+00 -0.00000000000E+00 -0.45593999997E+02  0.45594000000E+02  0.51100000000E-03 0. -1.
    9900012    2    1    2    0    0  0.22378425588E+02 -0.33859281574E+02 -0.19541459997E+02  0.46142317196E+02  0.99999948431E+01 0.  0.
        -12    1    1    2    0    0 -0.22378425588E+02  0.33859281574E+02  0.19541459997E+02  0.45045682804E+02  0.00000000000E+00 0.  1.
         11    1    3    3    0    0  0.88896287426E+00 -0.27466582434E+01  0.63215033753E-01  0.28876258240E+01  0.51100000000E-03 0. -1.
        -11    1    3    3    0    0 -0.15637499668E+00 -0.22115630854E+01 -0.23657794681E+01  0.32422796260E+01  0.51100000000E-03 0.  1.
         12    1    3    3    0    0  0.21645837710E+02 -0.28901060245E+02 -0.17238895563E+02  0.40012411746E+02  0.00000000000E+00 0. -1.
</event>
<event>
 7    1  0.2001181E-008  0.4614232E+02  0.7816164E-02  0.1320468E+00
        -11   -1    0    0    0    0  0.00000000000E+00  0.00000000000E+00  0.45593999997E+02  0.45594000000E+02  0.51100000000E-03 0.  1.
         11   -1    0    0    0    0 -0.00000000000E+00 -0.00000000000E+00 -0.45593999997E+02  0.45594000000E+02  0.51100000000E-03 0. -1.
    9900012    2    1    2    0    0 -0.17119440056E+02  0.26265946977E+02 -0.32344061573E+02  0.46142317438E+02  0.99999970580E+01 0.  0.
        -12    1    1    2    0    0  0.17119440056E+02 -0.26265946977E+02  0.32344061573E+02  0.45045682562E+02  0.00000000000E+00 0.  1.
         11    1    3    3    0    0 -0.16140441976E+01  0.57176440991E+01 -0.10306400813E+02  0.11896154450E+02  0.51100000000E-03 0. -1.
        -11    1    3    3    0    0 -0.30875498588E+01  0.66983430185E+01 -0.42709432745E+01  0.85230112073E+01  0.51100000000E-03 0.  1.
         12    1    3    3    0    0 -0.12417845999E+02  0.13849959859E+02 -0.17766717485E+02  0.25723151781E+02  0.00000000000E+00 0. -1.
</event>
<event>
 7    1  0.2001181E-008  0.4614232E+02  0.7816164E-02  0.1320468E+00
        -11   -1    0    0    0    0  0.00000000000E+00  0.00000000000E+00  0.45593999997E+02  0.45594000000E+02  0.51100000000E-03 0.  1.
         11   -1    0    0    0    0 -0.00000000000E+00 -0.00000000000E+00 -0.45593999997E+02  0.45594000000E+02  0.51100000000E-03 0. -1.
    9900012    2    1    2    0    0  0.36164252583E+02  0.15932431675E+00 -0.26855816969E+02  0.46142318140E+02  0.10000003455E+02 0.  0.
        -12    1    1    2    0    0 -0.36164252583E+02 -0.15932431675E+00  0.26855816969E+02  0.45045681860E+02  0.00000000000E+00 0.  1.
         11    1    3    3    0    0  0.34866841299E+00  0.77050992759E+00 -0.21347993071E+01  0.22962194045E+01  0.51100000000E-03 0. -1.
        -11    1    3    3    0    0  0.31779892753E+02 -0.16700671259E+01 -0.23288179239E+02  0.39434629454E+02  0.51100000000E-03 0.  1.
        -12    1    3    3    0    0  0.40356914172E+01  0.10588815150E+01 -0.14328384226E+01  0.44114692817E+01  0.00000000000E+00 0.  1.
</event>
<event>
 7    1  0.2001181E-008  0.4614231E+02  0.7816164E-02  0.1320468E+00
        -11   -1    0    0    0    0  0.00000000000E+00  0.00000000000E+00  0.45593999997E+02  0.45594000000E+02  0.51100000000E-03 0.  1.
         11   -1    0    0    0    0 -0.00000000000E+00 -0.00000000000E+00 -0.45593999997E+02  0.45594000000E+02  0.51100000000E-03 0. -1.
    9900012    2    1    2    0    0 -0.28149155733E+01 -0.26478119208E+02 -0.36333170186E+02  0.46142314278E+02  0.99999682359E+01 0.  0.
        -12    1    1    2    0    0  0.28149155733E+01  0.26478119208E+02  0.36333170186E+02  0.45045685722E+02  0.00000000000E+00 0.  1.
         11    1    3    3    0    0 -0.34339745154E+01 -0.10099979722E+02 -0.15248117151E+02  0.18609321542E+02  0.51100000000E-03 0. -1.
        -11    1    3    3    0    0 -0.20547070492E+01 -0.11101530072E+02 -0.16747913602E+02  0.20197980128E+02  0.51100000000E-03 0.  1.
        -12    1    3    3    0    0  0.26737659913E+01 -0.52766094144E+01 -0.43371394324E+01  0.73350126070E+01  0.00000000000E+00 0.  1.
</event>
<event>
 7    1  0.2001181E-008  0.4614231E+02  0.7816164E-02  0.1320468E+00
        -11   -1    0    0    0    0  0.00000000000E+00  0.00000000000E+00  0.45593999997E+02  0.45594000000E+02  0.51100000000E-03 0.  1.
         11   -1    0    0    0    0 -0.00000000000E+00 -0.00000000000E+00 -0.45593999997E+02  0.45594000000E+02  0.51100000000E-03 0. -1.
    9900012    2    1    2    0    0  0.38618954764E+02  0.16500671192E+02 -0.16291655008E+02  0.46142313861E+02  0.99999644341E+01 0.  0.
        -12    1    1    2    0    0 -0.38618954764E+02 -0.16500671192E+02  0.16291655008E+02  0.45045686139E+02  0.00000000000E+00 0.  1.
         11    1    3    3    0    0  0.12540741223E+01  0.16840033010E+01 -0.18775321429E+01  0.28166817766E+01  0.51100000000E-03 0. -1.
        -11    1    3    3    0    0  0.60033927227E+01  0.29911056959E+01  0.31589212640E+00  0.67147021947E+01  0.51100000000E-03 0.  1.
         12    1    3    3    0    0  0.31361487919E+02  0.11825562195E+02 -0.14730014991E+02  0.36610929889E+02  0.00000000000E+00 0. -1.
</event>
<event>
 7    1  0.2001181E-008  0.4614232E+02  0.7816164E-02  0.1320468E+00
        -11   -1    0    0    0    0  0.00000000000E+00  0.00000000000E+00  0.45593999997E+02  0.45594000000E+02  0.51100000000E-03 0.  1.
         11   -1    0    0    0    0 -0.00000000000E+00 -0.00000000000E+00 -0.45593999997E+02  0.45594000000E+02  0.51100000000E-03 0. -1.
    9900012    2    1    2    0    0  0.20485840950E+02 -0.19740095998E+02 -0.34925238465E+02  0.46142319283E+02  0.10000013877E+02 0.  0.
        -12    1    1    2    0    0 -0.20485840950E+02  0.19740095998E+02  0.34925238465E+02  0.45045680717E+02  0.00000000000E+00 0.  1.
         11    1    3    3    0    0  0.20791869533E+01 -0.52696502923E+01 -0.10070317379E+02  0.11554372547E+02  0.51100000000E-03 0. -1.
        -11    1    3    3    0    0  0.60024495577E+01 -0.42424545440E+01 -0.43840450321E+01  0.85584854008E+01  0.51100000000E-03 0.  1.
         12    1    3    3    0    0  0.12404204439E+02 -0.10227991162E+02 -0.20470876054E+02  0.26029461335E+02  0.00000000000E+00 0. -1.
</event>
<event>
 7    1  0.2001181E-008  0.4614232E+02  0.7816164E-02  0.1320468E+00
        -11   -1    0    0    0    0  0.00000000000E+00  0.00000000000E+00  0.45593999997E+02  0.45594000000E+02  0.51100000000E-03 0. -1.
         11   -1    0    0    0    0 -0.00000000000E+00 -0.00000000000E+00 -0.45593999997E+02  0.45594000000E+02  0.51100000000E-03 0.  1.
    9900012    2    1    2    0    0  0.37711157435E+02 -0.62443500323E+01  0.23832538132E+02  0.46142321226E+02  0.10000031597E+02 0.  0.
        -12    1    1    2    0    0 -0.37711157435E+02  0.62443500323E+01 -0.23832538132E+02  0.45045678774E+02  0.00000000000E+00 0.  1.
         11    1    3    3    0    0  0.27743850085E+02 -0.22691984151E+01  0.18277697900E+02  0.33300821608E+02  0.51100000000E-03 0. -1.
        -11    1    3    3    0    0  0.79822691073E+01 -0.39370589887E+01  0.60909068899E+01  0.10784998868E+02  0.51100000000E-03 0.  1.
         12    1    3    3    0    0  0.19850382423E+01 -0.38092628510E-01 -0.53606665832E+00  0.20565007498E+01  0.00000000000E+00 0. -1.
</event>
<event>
 7    1  0.2001181E-008  0.4614232E+02  0.7816164E-02  0.1320468E+00
        -11   -1    0    0    0    0  0.00000000000E+00  0.00000000000E+00  0.45593999997E+02  0.45594000000E+02  0.51100000000E-03 0.  1.
         11   -1    0    0    0    0 -0.00000000000E+00 -0.00000000000E+00 -0.45593999997E+02  0.45594000000E+02  0.51100000000E-03 0. -1.
    9900012    2    1    2    0    0 -0.17584691147E+01 -0.39914411826E+02  0.20805313873E+02  0.46142316851E+02  0.99999916975E+01 0.  0.
        -12    1    1    2    0    0  0.17584691147E+01  0.39914411826E+02 -0.20805313873E+02  0.45045683149E+02  0.00000000000E+00 0.  1.
         11    1    3    3    0    0 -0.39086850150E+00 -0.25249513425E+02  0.11740826122E+02  0.27848477601E+02  0.51100000000E-03 0. -1.
        -11    1    3    3    0    0  0.19785042088E+01 -0.50818414993E+01  0.15651529257E+01  0.56735611277E+01  0.51100000000E-03 0.  1.
         12    1    3    3    0    0 -0.33461048220E+01 -0.95830569015E+01  0.74993348254E+01  0.12620278122E+02  0.00000000000E+00 0. -1.
</event>
<event>
 7    1  0.2001181E-008  0.4614232E+02  0.7816164E-02  0.1320468E+00
        -11   -1    0    0    0    0  0.00000000000E+00  0.00000000000E+00  0.45593999997E+02  0.45594000000E+02  0.51100000000E-03 0. -1.
         11   -1    0    0    0    0 -0.00000000000E+00 -0.00000000000E+00 -0.45593999997E+02  0.45594000000E+02  0.51100000000E-03 0.  1.
    9900012    2    1    2    0    0 -0.30955580287E+02  0.24746410465E+02  0.21412165750E+02  0.46142316256E+02  0.99999862781E+01 0.  0.
        -12    1    1    2    0    0  0.30955580287E+02 -0.24746410465E+02 -0.21412165750E+02  0.45045683744E+02  0.00000000000E+00 0.  1.
         11    1    3    3    0    0 -0.14484807966E+02  0.92411127656E+01  0.10111159339E+02  0.19935981801E+02  0.51100000000E-03 0. -1.
        -11    1    3    3    0    0 -0.17014488082E+02  0.15599512130E+02  0.10921246476E+02  0.25536468202E+02  0.51100000000E-03 0.  1.
         12    1    3    3    0    0  0.54371576083E+00 -0.94214430749E-01  0.37975993587E+00  0.66986625264E+00  0.00000000000E+00 0. -1.
</event>
<event>
 7    1  0.2001181E-008  0.4614232E+02  0.7816164E-02  0.1320468E+00
        -11   -1    0    0    0    0  0.00000000000E+00  0.00000000000E+00  0.45593999997E+02  0.45594000000E+02  0.51100000000E-03 0.  1.
         11   -1    0    0    0    0 -0.00000000000E+00 -0.00000000000E+00 -0.45593999997E+02  0.45594000000E+02  0.51100000000E-03 0. -1.
    9900012    2    1    2    0    0  0.41376198711E+02 -0.70590828770E+01 -0.16349097931E+02  0.46142317921E+02  0.10000001457E+02 0.  0.
        -12    1    1    2    0    0 -0.41376198711E+02  0.70590828770E+01  0.16349097931E+02  0.45045682079E+02  0.00000000000E+00 0.  1.
         11    1    3    3    0    0  0.19718404263E+02 -0.24542986238E+01 -0.77537740609E+01  0.21329792799E+02  0.51100000000E-03 0. -1.
        -11    1    3    3    0    0  0.12825473292E+02  0.70587375602E+00 -0.60420806930E+01  0.14194990746E+02  0.51100000000E-03 0.  1.
        -12    1    3    3    0    0  0.88323211557E+01 -0.53106580092E+01 -0.25532431768E+01  0.10617534375E+02  0.00000000000E+00 0.  1.
</event>
<event>
 7    1  0.2001181E-008  0.4614232E+02  0.7816164E-02  0.1320468E+00
        -11   -1    0    0    0    0  0.00000000000E+00  0.00000000000E+00  0.45593999997E+02  0.45594000000E+02  0.51100000000E-03 0. -1.
         11   -1    0    0    0    0 -0.00000000000E+00 -0.00000000000E+00 -0.45593999997E+02  0.45594000000E+02  0.51100000000E-03 0.  1.
    9900012    2    1    2    0    0 -0.27678671558E+02  0.24155578912E+02  0.26067463099E+02  0.46142317808E+02  0.10000000423E+02 0.  0.
        -12    1    1    2    0    0  0.27678671558E+02 -0.24155578912E+02 -0.26067463099E+02  0.45045682192E+02  0.00000000000E+00 0.  1.
         11    1    3    3    0    0 -0.68701519156E+01  0.44264893980E+01  0.30971932399E+01  0.87398742531E+01  0.51100000000E-03 0. -1.
        -11    1    3    3    0    0 -0.20089880891E+01  0.39695906563E+01  0.12096049548E+01  0.46105127187E+01  0.51100000000E-03 0.  1.
         12    1    3    3    0    0 -0.18799531553E+02  0.15759498857E+02  0.21760664905E+02  0.32791930836E+02  0.00000000000E+00 0. -1.
</event>
<event>
 7    1  0.2001181E-008  0.4614232E+02  0.7816164E-02  0.1320468E+00
        -11   -1    0    0    0    0  0.00000000000E+00  0.00000000000E+00  0.45593999997E+02  0.45594000000E+02  0.51100000000E-03 0.  1.
         11   -1    0    0    0    0 -0.00000000000E+00 -0.00000000000E+00 -0.45593999997E+02  0.45594000000E+02  0.51100000000E-03 0. -1.
    9900012    2    1    2    0    0 -0.20790033239E+02 -0.52814407854E+01 -0.39610533725E+02  0.46142317844E+02  0.10000000759E+02 0.  0.
        -12    1    1    2    0    0  0.20790033239E+02  0.52814407854E+01  0.39610533725E+02  0.45045682156E+02  0.00000000000E+00 0.  1.
         11    1    3    3    0    0 -0.51333012260E+01 -0.39256223993E+01 -0.11353026815E+02  0.13063403493E+02  0.51100000000E-03 0. -1.
        -11    1    3    3    0    0 -0.14556383726E+02 -0.13685481223E+01 -0.20141119228E+02  0.24888268625E+02  0.51100000000E-03 0.  1.
         12    1    3    3    0    0 -0.11003482868E+01  0.12729736178E-01 -0.81163876823E+01  0.81906457259E+01  0.00000000000E+00 0. -1.
</event>
<event>
 7    1  0.2001181E-008  0.4614232E+02  0.7816164E-02  0.1320468E+00
        -11   -1    0    0    0    0  0.00000000000E+00  0.00000000000E+00  0.45593999997E+02  0.45594000000E+02  0.51100000000E-03 0.  1.
         11   -1    0    0    0    0 -0.00000000000E+00 -0.00000000000E+00 -0.45593999997E+02  0.45594000000E+02  0.51100000000E-03 0. -1.
    9900012    2    1    2    0    0 -0.13196817518E+01 -0.38017229277E+02 -0.24125964657E+02  0.46142318160E+02  0.10000003637E+02 0.  0.
        -12    1    1    2    0    0  0.13196817518E+01  0.38017229277E+02  0.24125964657E+02  0.45045681840E+02  0.00000000000E+00 0.  1.
         11    1    3    3    0    0 -0.27308694251E+01 -0.10515408730E+02 -0.10938894965E+02  0.15417227114E+02  0.51100000000E-03 0. -1.
        -11    1    3    3    0    0 -0.46014051032E+00 -0.13990780691E+02 -0.52941216758E+01  0.14966008092E+02  0.51100000000E-03 0.  1.
        -12    1    3    3    0    0  0.18713281836E+01 -0.13511039856E+02 -0.78929480160E+01  0.15759082954E+02  0.00000000000E+00 0.  1.
</event>
<event>
 7    1  0.2001181E-008  0.4614232E+02  0.7816164E-02  0.1320468E+00
        -11   -1    0    0    0    0  0.00000000000E+00  0.00000000000E+00  0.45593999997E+02  0.45594000000E+02  0.51100000000E-03 0.  1.
         11   -1    0    0    0    0 -0.00000000000E+00 -0.00000000000E+00 -0.45593999997E+02  0.45594000000E+02  0.51100000000E-03 0. -1.
    9900012    2    1    2    0    0  0.10532280458E+02 -0.44506755601E+01 -0.43570356929E+02  0.46142318215E+02  0.10000004135E+02 0.  0.
        -12    1    1    2    0    0 -0.10532280458E+02  0.44506755601E+01  0.43570356929E+02  0.45045681785E+02  0.00000000000E+00 0.  1.
         11    1    3    3    0    0 -0.44030882855E+00  0.13918147220E+00  0.26416586897E+00  0.53200302081E+00  0.51100000000E-03 0. -1.
        -11    1    3    3    0    0  0.73478305397E+01 -0.22042313877E+01 -0.20776154778E+02  0.22147186215E+02  0.51100000000E-03 0.  1.
         12    1    3    3    0    0  0.36247587467E+01 -0.23856256446E+01 -0.23058368020E+02  0.23463128978E+02  0.00000000000E+00 0. -1.
</event>
<event>
 7    1  0.2001181E-008  0.4614231E+02  0.7816164E-02  0.1320468E+00
        -11   -1    0    0    0    0  0.00000000000E+00  0.00000000000E+00  0.45593999997E+02  0.45594000000E+02  0.51100000000E-03 0. -1.
         11   -1    0    0    0    0 -0.00000000000E+00 -0.00000000000E+00 -0.45593999997E+02  0.45594000000E+02  0.51100000000E-03 0.  1.
    9900012    2    1    2    0    0  0.26911169072E+02 -0.10464059690E+02  0.34574646966E+02  0.46142314537E+02  0.99999705972E+01 0.  0.
        -12    1    1    2    0    0 -0.26911169072E+02  0.10464059690E+02 -0.34574646966E+02  0.45045685463E+02  0.00000000000E+00 0.  1.
         11    1    3    3    0    0  0.20520061189E+02 -0.70690885610E+01  0.30826611828E+02  0.37700463145E+02  0.51100000000E-03 0. -1.
        -11    1    3    3    0    0  0.45828052913E+01 -0.34787545919E+01  0.28861561092E+01  0.64369041625E+01  0.51100000000E-03 0.  1.
         12    1    3    3    0    0  0.18083025920E+01  0.83783462917E-01  0.86187902924E+00  0.20049472297E+01  0.00000000000E+00 0. -1.
</event>
<event>
 7    1  0.2001181E-008  0.4614232E+02  0.7816164E-02  0.1320468E+00
        -11   -1    0    0    0    0  0.00000000000E+00  0.00000000000E+00  0.45593999997E+02  0.45594000000E+02  0.51100000000E-03 0.  1.
         11   -1    0    0    0    0 -0.00000000000E+00 -0.00000000000E+00 -0.45593999997E+02  0.45594000000E+02  0.51100000000E-03 0. -1.
    9900012    2    1    2    0    0  0.29971113098E+02 -0.33035676958E+02  0.62841083356E+01  0.46142316633E+02  0.99999897170E+01 0.  0.
        -12    1    1    2    0    0 -0.29971113098E+02  0.33035676958E+02 -0.62841083356E+01  0.45045683367E+02  0.00000000000E+00 0.  1.
         11    1    3    3    0    0  0.20488816725E+02 -0.21253507918E+02  0.36398883092E+01  0.29744781000E+02  0.51100000000E-03 0. -1.
        -11    1    3    3    0    0  0.44746157817E+01 -0.16535428578E+01 -0.94970144377E-01  0.47713111370E+01  0.51100000000E-03 0.  1.
         12    1    3    3    0    0  0.50076805916E+01 -0.10128626182E+02  0.27391901708E+01  0.11626224496E+02  0.00000000000E+00 0. -1.
</event>
<event>
 7    1  0.2001181E-008  0.4614232E+02  0.7816164E-02  0.1320468E+00
        -11   -1    0    0    0    0  0.00000000000E+00  0.00000000000E+00  0.45593999997E+02  0.45594000000E+02  0.51100000000E-03 0. -1.
         11   -1    0    0    0    0 -0.00000000000E+00 -0.00000000000E+00 -0.45593999997E+02  0.45594000000E+02  0.51100000000E-03 0.  1.
    9900012    2    1    2    0    0  0.39391604279E+02  0.13076314311E+01  0.21810664426E+02  0.46142317961E+02  0.10000001823E+02 0.  0.
        -12    1    1    2    0    0 -0.39391604279E+02 -0.13076314311E+01 -0.21810664426E+02  0.45045682039E+02  0.00000000000E+00 0.  1.
         11    1    3    3    0    0  0.47061467832E+01  0.36216619927E-01  0.55730639534E+00  0.47391686896E+01  0.51100000000E-03 0. -1.
        -11    1    3    3    0    0  0.46984541075E+01  0.24712780390E+01  0.16592965829E+01  0.55620096689E+01  0.51100000000E-03 0.  1.
         12    1    3    3    0    0  0.29987003389E+02 -0.11998632278E+01  0.19594061448E+02  0.35841139603E+02  0.00000000000E+00 0. -1.
</event>
<event>
 7    1  0.2001181E-008  0.4614232E+02  0.7816164E-02  0.1320468E+00
        -11   -1    0    0    0    0  0.00000000000E+00  0.00000000000E+00  0.45593999997E+02  0.45594000000E+02  0.51100000000E-03 0. -1.
         11   -1    0    0    0    0 -0.00000000000E+00 -0.00000000000E+00 -0.45593999997E+02  0.45594000000E+02  0.51100000000E-03 0.  1.
    9900012    2    1    2    0    0  0.44156739191E+02 -0.84680973526E+01 -0.27544816059E+01  0.46142318102E+02  0.10000003106E+02 0.  0.
        -12    1    1    2    0    0 -0.44156739191E+02  0.84680973526E+01  0.27544816059E+01  0.45045681898E+02  0.00000000000E+00 0.  1.
         11    1    3    3    0    0  0.29645384460E+01  0.93800295920E+00 -0.57462968981E+00  0.31620463771E+01  0.51100000000E-03 0. -1.
        -11    1    3    3    0    0  0.33273785361E+01  0.12335212138E+01  0.36141006190E+00  0.35670211663E+01  0.51100000000E-03 0.  1.
         12    1    3    3    0    0  0.37864822209E+02 -0.10639621526E+02 -0.25412619780E+01  0.39413250558E+02  0.00000000000E+00 0. -1.
</event>
<event>
 7    1  0.2001181E-008  0.4614232E+02  0.7816164E-02  0.1320468E+00
        -11   -1    0    0    0    0  0.00000000000E+00  0.00000000000E+00  0.45593999997E+02  0.45594000000E+02  0.51100000000E-03 0. -1.
         11   -1    0    0    0    0 -0.00000000000E+00 -0.00000000000E+00 -0.45593999997E+02  0.45594000000E+02  0.51100000000E-03 0.  1.
    9900012    2    1    2    0    0  0.78322025282E+01 -0.52945942937E+01  0.44042447221E+02  0.46142320047E+02  0.10000020846E+02 0.  0.
        -12    1    1    2    0    0 -0.78322025282E+01  0.52945942937E+01 -0.44042447221E+02  0.45045679953E+02  0.00000000000E+00 0.  1.
         11    1    3    3    0    0  0.65274017930E+01 -0.17035268363E+01  0.30642286862E+02  0.31376085196E+02  0.51100000000E-03 0. -1.
        -11    1    3    3    0    0  0.24158986964E+01 -0.41379724241E+01  0.11850312728E+02  0.12782382185E+02  0.51100000000E-03 0.  1.
         12    1    3    3    0    0 -0.11110979612E+01  0.54690496678E+00  0.15498476307E+01  0.19838526660E+01  0.00000000000E+00 0. -1.
</event>
<event>
 7    1  0.2001181E-008  0.4614232E+02  0.7816164E-02  0.1320468E+00
        -11   -1    0    0    0    0  0.00000000000E+00  0.00000000000E+00  0.45593999997E+02  0.45594000000E+02  0.51100000000E-03 0.  1.
         11   -1    0    0    0    0 -0.00000000000E+00 -0.00000000000E+00 -0.45593999997E+02  0.45594000000E+02  0.51100000000E-03 0. -1.
    9900012    2    1    2    0    0 -0.22694640037E+02 -0.13694367335E+02 -0.36421574253E+02  0.46142318141E+02  0.10000003462E+02 0.  0.
        -12    1    1    2    0    0  0.22694640037E+02  0.13694367335E+02  0.36421574253E+02  0.45045681859E+02  0.00000000000E+00 0.  1.
         11    1    3    3    0    0 -0.55598251071E+01 -0.16110579021E+01 -0.11446332405E+02  0.12826756744E+02  0.51100000000E-03 0. -1.
        -11    1    3    3    0    0 -0.15871997795E+01  0.69945046750E+00 -0.96534159575E+00  0.19850236155E+01  0.51100000000E-03 0.  1.
         12    1    3    3    0    0 -0.15547615151E+02 -0.12782759901E+02 -0.24009900252E+02  0.31330537781E+02  0.00000000000E+00 0. -1.
</event>
<event>
 7    1  0.2001181E-008  0.4614232E+02  0.7816164E-02  0.1320468E+00
        -11   -1    0    0    0    0  0.00000000000E+00  0.00000000000E+00  0.45593999997E+02  0.45594000000E+02  0.51100000000E-03 0.  1.
         11   -1    0    0    0    0 -0.00000000000E+00 -0.00000000000E+00 -0.45593999997E+02  0.45594000000E+02  0.51100000000E-03 0. -1.
    9900012    2    1    2    0    0 -0.20051020793E+02  0.11104882668E+02 -0.38778236989E+02  0.46142317433E+02  0.99999970085E+01 0.  0.
        -12    1    1    2    0    0  0.20051020793E+02 -0.11104882668E+02  0.38778236989E+02  0.45045682567E+02  0.00000000000E+00 0.  1.
         11    1    3    3    0    0 -0.74369830773E+01  0.45058071179E+01 -0.10833340101E+02  0.13891446040E+02  0.51100000000E-03 0. -1.
        -11    1    3    3    0    0 -0.68058498629E+01  0.74857196572E+01 -0.15837257167E+02  0.18792932341E+02  0.51100000000E-03 0.  1.
         12    1    3    3    0    0 -0.58081878529E+01 -0.88664410668E+00 -0.12107639722E+02  0.13457939052E+02  0.00000000000E+00 0. -1.
</event>
<event>
 7    1  0.2001181E-008  0.4614232E+02  0.7816164E-02  0.1320468E+00
        -11   -1    0    0    0    0  0.00000000000E+00  0.00000000000E+00  0.45593999997E+02  0.45594000000E+02  0.51100000000E-03 0.  1.
         11   -1    0    0    0    0 -0.00000000000E+00 -0.00000000000E+00 -0.45593999997E+02  0.45594000000E+02  0.51100000000E-03 0. -1.
    9900012    2    1    2    0    0 -0.32018406325E+02 -0.24801917652E+02 -0.19718011743E+02  0.46142318188E+02  0.10000003889E+02 0.  0.
        -12    1    1    2    0    0  0.32018406325E+02  0.24801917652E+02  0.19718011743E+02  0.45045681812E+02  0.00000000000E+00 0.  1.
         11    1    3    3    0    0 -0.17985629329E+02 -0.10066854781E+02 -0.77446547561E+01  0.22018267532E+02  0.51100000000E-03 0. -1.
        -11    1    3    3    0    0 -0.47477722435E+01 -0.48805195732E+01 -0.68192194655E+01  0.96365225554E+01  0.51100000000E-03 0.  1.
        -12    1    3    3    0    0 -0.92850047529E+01 -0.98545432983E+01 -0.51541375214E+01  0.14487528101E+02  0.00000000000E+00 0.  1.
</event>
<event>
 7    1  0.2001181E-008  0.4614232E+02  0.7816164E-02  0.1320468E+00
        -11   -1    0    0    0    0  0.00000000000E+00  0.00000000000E+00  0.45593999997E+02  0.45594000000E+02  0.51100000000E-03 0. -1.
         11   -1    0    0    0    0 -0.00000000000E+00 -0.00000000000E+00 -0.45593999997E+02  0.45594000000E+02  0.51100000000E-03 0.  1.
    9900012    2    1    2    0    0 -0.10428054878E+02 -0.34622846009E+02  0.26863126792E+02  0.46142319016E+02  0.10000011443E+02 0.  0.
        -12    1    1    2    0    0  0.10428054878E+02  0.34622846009E+02 -0.26863126792E+02  0.45045680984E+02  0.00000000000E+00 0.  1.
         11    1    3    3    0    0 -0.88682923502E+01 -0.26563473450E+02  0.18312489098E+02  0.33460603524E+02  0.51100000000E-03 0. -1.
        -11    1    3    3    0    0 -0.25055346631E+01 -0.63503377614E+01  0.82454166729E+01  0.10704736802E+02  0.51100000000E-03 0.  1.
        -12    1    3    3    0    0  0.94577213542E+00 -0.17090347967E+01  0.30522102095E+00  0.19769786898E+01  0.00000000000E+00 0.  1.
</event>
<event>
 7    1  0.2001181E-008  0.4614232E+02  0.7816164E-02  0.1320468E+00
        -11   -1    0    0    0    0  0.00000000000E+00  0.00000000000E+00  0.45593999997E+02  0.45594000000E+02  0.51100000000E-03 0.  1.
         11   -1    0    0    0    0 -0.00000000000E+00 -0.00000000000E+00 -0.45593999997E+02  0.45594000000E+02  0.51100000000E-03 0. -1.
    9900012    2    1    2    0    0  0.41182723408E+02  0.17959253195E+02 -0.32499396741E+01  0.46142316628E+02  0.99999896656E+01 0.  0.
        -12    1    1    2    0    0 -0.41182723408E+02 -0.17959253195E+02  0.32499396741E+01  0.45045683372E+02  0.00000000000E+00 0.  1.
         11    1    3    3    0    0  0.17666805681E+01  0.13583195257E+01 -0.14891487685E+01  0.26802530626E+01  0.51100000000E-03 0. -1.
        -11    1    3    3    0    0  0.74889225973E+01  0.20935805344E+00  0.44688230695E+00  0.75051646564E+01  0.51100000000E-03 0.  1.
        -12    1    3    3    0    0  0.31927120242E+02  0.16391575616E+02 -0.22076732126E+01  0.35956898909E+02  0.00000000000E+00 0.  1.
</event>
<event>
 7    1  0.2001181E-008  0.4614232E+02  0.7816164E-02  0.1320468E+00
        -11   -1    0    0    0    0  0.00000000000E+00  0.00000000000E+00  0.45593999997E+02  0.45594000000E+02  0.51100000000E-03 0.  1.
         11   -1    0    0    0    0 -0.00000000000E+00 -0.00000000000E+00 -0.45593999997E+02  0.45594000000E+02  0.51100000000E-03 0. -1.
    9900012    2    1    2    0    0  0.69882010604E+01 -0.19656643772E+02 -0.39923609944E+02  0.46142320635E+02  0.10000026209E+02 0.  0.
        -12    1    1    2    0    0 -0.69882010604E+01  0.19656643772E+02  0.39923609944E+02  0.45045679365E+02  0.00000000000E+00 0.  1.
         11    1    3    3    0    0  0.49706229954E+01 -0.10168058037E+02 -0.15523611819E+02  0.19211429446E+02  0.51100000000E-03 0. -1.
        -11    1    3    3    0    0  0.88769920381E+00 -0.33963742726E+00 -0.11779424021E+00  0.95772605821E+00  0.51100000000E-03 0.  1.
        -12    1    3    3    0    0  0.11298788612E+01 -0.91489483070E+01 -0.24282203886E+02  0.25973165131E+02  0.00000000000E+00 0.  1.
</event>
<event>
 7    1  0.2001181E-008  0.4614232E+02  0.7816164E-02  0.1320468E+00
        -11   -1    0    0    0    0  0.00000000000E+00  0.00000000000E+00  0.45593999997E+02  0.45594000000E+02  0.51100000000E-03 0.  1.
         11   -1    0    0    0    0 -0.00000000000E+00 -0.00000000000E+00 -0.45593999997E+02  0.45594000000E+02  0.51100000000E-03 0. -1.
    9900012    2    1    2    0    0 -0.17659936007E+02  0.12616807823E+02 -0.39472222019E+02  0.46142317737E+02  0.99999997794E+01 0.  0.
        -12    1    1    2    0    0  0.17659936007E+02 -0.12616807823E+02  0.39472222019E+02  0.45045682263E+02  0.00000000000E+00 0.  1.
         11    1    3    3    0    0 -0.18499339847E+02  0.10500735233E+02 -0.36413882811E+02  0.42171813772E+02  0.51100000000E-03 0. -1.
        -11    1    3    3    0    0  0.36491288663E+00  0.13823176174E+00 -0.14265063269E+00  0.41547430596E+00  0.51100000000E-03 0.  1.
        -12    1    3    3    0    0  0.47449095322E+00  0.19778408276E+01 -0.29156885756E+01  0.35550296587E+01  0.00000000000E+00 0.  1.
</event>
<event>
 7    1  0.2001181E-008  0.4614232E+02  0.7816164E-02  0.1320468E+00
        -11   -1    0    0    0    0  0.00000000000E+00  0.00000000000E+00  0.45593999997E+02  0.45594000000E+02  0.51100000000E-03 0.  1.
         11   -1    0    0    0    0 -0.00000000000E+00 -0.00000000000E+00 -0.45593999997E+02  0.45594000000E+02  0.51100000000E-03 0. -1.
    9900012    2    1    2    0    0  0.40267170554E+02 -0.53300003960E+01 -0.19474585482E+02  0.46142318649E+02  0.10000008097E+02 0.  0.
        -12    1    1    2    0    0 -0.40267170554E+02  0.53300003960E+01  0.19474585482E+02  0.45045681351E+02  0.00000000000E+00 0.  1.
         11    1    3    3    0    0  0.20952379266E+02 -0.74732685307E+01 -0.95889372767E+01  0.24223948022E+02  0.51100000000E-03 0. -1.
        -11    1    3    3    0    0  0.70912173282E+01  0.16035680756E+01 -0.44982942192E+01  0.85493534792E+01  0.51100000000E-03 0.  1.
         12    1    3    3    0    0  0.12223573961E+02  0.53970005914E+00 -0.53873539861E+01  0.13369017148E+02  0.00000000000E+00 0. -1.
</event>
<event>
 7    1  0.2001181E-008  0.4614232E+02  0.7816164E-02  0.1320468E+00
        -11   -1    0    0    0    0  0.00000000000E+00  0.00000000000E+00  0.45593999997E+02  0.45594000000E+02  0.51100000000E-03 0.  1.
         11   -1    0    0    0    0 -0.00000000000E+00 -0.00000000000E+00 -0.45593999997E+02  0.45594000000E+02  0.51100000000E-03 0. -1.
    9900012    2    1    2    0    0 -0.72283189524E+01 -0.44420915116E+02  0.19097672706E+01  0.46142317569E+02  0.99999982486E+01 0.  0.
        -12    1    1    2    0    0  0.72283189524E+01  0.44420915116E+02 -0.19097672706E+01  0.45045682431E+02  0.00000000000E+00 0.  1.
         11    1    3    3    0    0  0.84738494488E-01 -0.15861220432E+01 -0.83423002451E+00  0.17941303585E+01  0.51100000000E-03 0. -1.
        -11    1    3    3    0    0 -0.11953225404E+01 -0.26716587374E+01  0.22949306739E+01  0.37193095386E+01  0.51100000000E-03 0.  1.
        -12    1    3    3    0    0 -0.61177349065E+01 -0.40163134336E+02  0.44906662114E+00  0.40628877672E+02  0.00000000000E+00 0.  1.
</event>
<event>
 7    1  0.2001181E-008  0.4614232E+02  0.7816164E-02  0.1320468E+00
        -11   -1    0    0    0    0  0.00000000000E+00  0.00000000000E+00  0.45593999997E+02  0.45594000000E+02  0.51100000000E-03 0. -1.
         11   -1    0    0    0    0 -0.00000000000E+00 -0.00000000000E+00 -0.45593999997E+02  0.45594000000E+02  0.51100000000E-03 0.  1.
    9900012    2    1    2    0    0  0.15826380615E+02 -0.28108620506E+02  0.31441125039E+02  0.46142320809E+02  0.10000027790E+02 0.  0.
        -12    1    1    2    0    0 -0.15826380615E+02  0.28108620506E+02 -0.31441125039E+02  0.45045679191E+02  0.00000000000E+00 0.  1.
         11    1    3    3    0    0  0.10543160613E+02 -0.11759014059E+02  0.18438170549E+02  0.24277536548E+02  0.51100000000E-03 0. -1.
        -11    1    3    3    0    0  0.24244681249E+01 -0.12308944506E+02  0.10254732612E+02  0.16203323787E+02  0.51100000000E-03 0.  1.
        -12    1    3    3    0    0  0.28587518765E+01 -0.40406619401E+01  0.27482218782E+01  0.56614604739E+01  0.00000000000E+00 0.  1.
</event>
<event>
 7    1  0.2001181E-008  0.4614232E+02  0.7816164E-02  0.1320468E+00
        -11   -1    0    0    0    0  0.00000000000E+00  0.00000000000E+00  0.45593999997E+02  0.45594000000E+02  0.51100000000E-03 0. -1.
         11   -1    0    0    0    0 -0.00000000000E+00 -0.00000000000E+00 -0.45593999997E+02  0.45594000000E+02  0.51100000000E-03 0.  1.
    9900012    2    1    2    0    0  0.23488641581E+02  0.33133203202E+02 -0.19483019366E+02  0.46142317839E+02  0.10000000707E+02 0.  0.
        -12    1    1    2    0    0 -0.23488641581E+02 -0.33133203202E+02  0.19483019366E+02  0.45045682161E+02  0.00000000000E+00 0.  1.
         11    1    3    3    0    0  0.62469178286E+01  0.13222775697E+02 -0.28054317403E+01  0.14890810152E+02  0.51100000000E-03 0. -1.
        -11    1    3    3    0    0  0.11664911649E+01  0.17113890481E+01 -0.70834226179E+00  0.21889045508E+01  0.51100000000E-03 0.  1.
         12    1    3    3    0    0  0.16075232587E+02  0.18199038457E+02 -0.15969245364E+02  0.29062603135E+02  0.00000000000E+00 0. -1.
</event>
<event>
 7    1  0.2001181E-008  0.4614232E+02  0.7816164E-02  0.1320468E+00
        -11   -1    0    0    0    0  0.00000000000E+00  0.00000000000E+00  0.45593999997E+02  0.45594000000E+02  0.51100000000E-03 0.  1.
         11   -1    0    0    0    0 -0.00000000000E+00 -0.00000000000E+00 -0.45593999997E+02  0.45594000000E+02  0.51100000000E-03 0. -1.
    9900012    2    1    2    0    0 -0.25864351348E+02  0.28000868781E+02 -0.24002081815E+02  0.46142320356E+02  0.10000023661E+02 0.  0.
        -12    1    1    2    0    0  0.25864351348E+02 -0.28000868781E+02  0.24002081815E+02  0.45045679644E+02  0.00000000000E+00 0.  1.
         11    1    3    3    0    0 -0.92736338945E+01  0.77785675078E+01 -0.10478957658E+02  0.16009839223E+02  0.51100000000E-03 0.  1.
        -11    1    3    3    0    0 -0.30258520865E+01  0.75562480094E+00 -0.23590112224E+01  0.39104582721E+01  0.51100000000E-03 0. -1.
         12    1    3    3    0    0 -0.13564865367E+02  0.19466676473E+02 -0.11164112934E+02  0.26222022861E+02  0.00000000000E+00 0. -1.
</event>
<event>
 7    1  0.2001181E-008  0.4614232E+02  0.7816164E-02  0.1320468E+00
        -11   -1    0    0    0    0  0.00000000000E+00  0.00000000000E+00  0.45593999997E+02  0.45594000000E+02  0.51100000000E-03 0.  1.
         11   -1    0    0    0    0 -0.00000000000E+00 -0.00000000000E+00 -0.45593999997E+02  0.45594000000E+02  0.51100000000E-03 0. -1.
    9900012    2    1    2    0    0 -0.95924386587E+00  0.11700816589E+02 -0.43488899500E+02  0.46142316107E+02  0.99999849140E+01 0.  0.
        -12    1    1    2    0    0  0.95924386587E+00 -0.11700816589E+02  0.43488899500E+02  0.45045683893E+02  0.00000000000E+00 0.  1.
         11    1    3    3    0    0  0.10768089430E+01  0.27797119727E+01 -0.12247478019E+02  0.12605040033E+02  0.51100000000E-03 0. -1.
        -11    1    3    3    0    0  0.27402546178E+01  0.12581965319E+01 -0.57288194259E+01  0.64739034715E+01  0.51100000000E-03 0.  1.
         12    1    3    3    0    0 -0.47763074266E+01  0.76629080849E+01 -0.25512602055E+02  0.27063372602E+02  0.00000000000E+00 0. -1.
</event>
<event>
 7    1  0.2001181E-008  0.4614232E+02  0.7816164E-02  0.1320468E+00
        -11   -1    0    0    0    0  0.00000000000E+00  0.00000000000E+00  0.45593999997E+02  0.45594000000E+02  0.51100000000E-03 0.  1.
         11   -1    0    0    0    0 -0.00000000000E+00 -0.00000000000E+00 -0.45593999997E+02  0.45594000000E+02  0.51100000000E-03 0. -1.
    9900012    2    1    2    0    0 -0.65189125491E+01 -0.17432845440E+02 -0.41020887535E+02  0.46142317242E+02  0.99999952680E+01 0.  0.
        -12    1    1    2    0    0  0.65189125491E+01  0.17432845440E+02  0.41020887535E+02  0.45045682758E+02  0.00000000000E+00 0.  1.
         11    1    3    3    0    0 -0.55814717043E+01 -0.16522138042E+02 -0.31730074919E+02  0.36206788404E+02  0.51100000000E-03 0. -1.
        -11    1    3    3    0    0 -0.23223628774E+00 -0.52065744702E+00  0.38567409160E-01  0.57140666486E+00  0.51100000000E-03 0.  1.
        -12    1    3    3    0    0 -0.70520455701E+00 -0.39004995066E+00 -0.93293800247E+01  0.93641221733E+01  0.00000000000E+00 0.  1.
</event>
<event>
 7    1  0.2001181E-008  0.4614232E+02  0.7816164E-02  0.1320468E+00
        -11   -1    0    0    0    0  0.00000000000E+00  0.00000000000E+00  0.45593999997E+02  0.45594000000E+02  0.51100000000E-03 0.  1.
         11   -1    0    0    0    0 -0.00000000000E+00 -0.00000000000E+00 -0.45593999997E+02  0.45594000000E+02  0.51100000000E-03 0. -1.
    9900012    2    1    2    0    0  0.25186394301E+02 -0.37168525285E+02  0.36413876926E+01  0.46142318364E+02  0.10000005497E+02 0.  0.
        -12    1    1    2    0    0 -0.25186394301E+02  0.37168525285E+02 -0.36413876926E+01  0.45045681636E+02  0.00000000000E+00 0.  1.
         11    1    3    3    0    0  0.59791093598E+01 -0.13039644938E+02  0.25250404495E+01  0.14565641708E+02  0.51100000000E-03 0. -1.
        -11    1    3    3    0    0  0.49174388844E+01 -0.70232495651E+01  0.32870708615E+01  0.91821606795E+01  0.51100000000E-03 0.  1.
        -12    1    3    3    0    0  0.14289846057E+02 -0.17105630782E+02 -0.21707236184E+01  0.22394515976E+02  0.00000000000E+00 0.  1.
</event>
<event>
 7    1  0.2001181E-008  0.4614232E+02  0.7816164E-02  0.1320468E+00
        -11   -1    0    0    0    0  0.00000000000E+00  0.00000000000E+00  0.45593999997E+02  0.45594000000E+02  0.51100000000E-03 0. -1.
         11   -1    0    0    0    0 -0.00000000000E+00 -0.00000000000E+00 -0.45593999997E+02  0.45594000000E+02  0.51100000000E-03 0.  1.
    9900012    2    1    2    0    0 -0.11265539432E+02 -0.42948422503E+02 -0.75917018643E+01  0.46142319726E+02  0.10000017915E+02 0.  0.
        -12    1    1    2    0    0  0.11265539432E+02  0.42948422503E+02  0.75917018643E+01  0.45045680274E+02  0.00000000000E+00 0.  1.
         11    1    3    3    0    0 -0.88756057794E+01 -0.18996887668E+02 -0.36610612216E+01  0.21285241096E+02  0.51100000000E-03 0. -1.
        -11    1    3    3    0    0 -0.10583392209E+01 -0.79138794207E+01  0.94942095164E+00  0.80405826776E+01  0.51100000000E-03 0.  1.
        -12    1    3    3    0    0 -0.13315944319E+01 -0.16037655415E+02 -0.48800615943E+01  0.16816495952E+02  0.00000000000E+00 0.  1.
</event>
<event>
 7    1  0.2001181E-008  0.4614231E+02  0.7816164E-02  0.1320468E+00
        -11   -1    0    0    0    0  0.00000000000E+00  0.00000000000E+00  0.45593999997E+02  0.45594000000E+02  0.51100000000E-03 0.  1.
         11   -1    0    0    0    0 -0.00000000000E+00 -0.00000000000E+00 -0.45593999997E+02  0.45594000000E+02  0.51100000000E-03 0. -1.
    9900012    2    1    2    0    0  0.37007387822E+02 -0.22296968933E+02 -0.12744112361E+02  0.46142312339E+02  0.99999505543E+01 0.  0.
        -12    1    1    2    0    0 -0.37007387822E+02  0.22296968933E+02  0.12744112361E+02  0.45045687661E+02  0.00000000000E+00 0.  1.
         11    1    3    3    0    0  0.44071036173E+01 -0.12120837144E+01 -0.25005191863E+01  0.52100197395E+01  0.51100000000E-03 0. -1.
        -11    1    3    3    0    0  0.52807246589E+01 -0.23210010674E+01  0.11576951658E+01  0.58833117576E+01  0.51100000000E-03 0.  1.
         12    1    3    3    0    0  0.27319559546E+02 -0.18763884151E+02 -0.11401288341E+02  0.35048980842E+02  0.00000000000E+00 0. -1.
</event>
<event>
 7    1  0.2001181E-008  0.4614232E+02  0.7816164E-02  0.1320468E+00
        -11   -1    0    0    0    0  0.00000000000E+00  0.00000000000E+00  0.45593999997E+02  0.45594000000E+02  0.51100000000E-03 0.  1.
         11   -1    0    0    0    0 -0.00000000000E+00 -0.00000000000E+00 -0.45593999997E+02  0.45594000000E+02  0.51100000000E-03 0. -1.
    9900012    2    1    2    0    0 -0.26272859441E+02 -0.78005788132E+01 -0.35749146105E+02  0.46142316297E+02  0.99999866494E+01 0.  0.
        -12    1    1    2    0    0  0.26272859441E+02  0.78005788132E+01  0.35749146105E+02  0.45045683703E+02  0.00000000000E+00 0.  1.
         11    1    3    3    0    0 -0.10933320254E+02 -0.72178156021E+01 -0.16668139585E+02  0.21200500733E+02  0.51100000000E-03 0. -1.
        -11    1    3    3    0    0 -0.85332052433E+01 -0.24332922981E+01 -0.90039647871E+01  0.12641514359E+02  0.51100000000E-03 0.  1.
        -12    1    3    3    0    0 -0.68063339440E+01  0.18505290870E+01 -0.10077041733E+02  0.12300301205E+02  0.00000000000E+00 0.  1.
</event>
<event>
 7    1  0.2001181E-008  0.4614232E+02  0.7816164E-02  0.1320468E+00
        -11   -1    0    0    0    0  0.00000000000E+00  0.00000000000E+00  0.45593999997E+02  0.45594000000E+02  0.51100000000E-03 0.  1.
         11   -1    0    0    0    0 -0.00000000000E+00 -0.00000000000E+00 -0.45593999997E+02  0.45594000000E+02  0.51100000000E-03 0. -1.
    9900012    2    1    2    0    0  0.39163428580E+02 -0.17184063212E+02  0.14143809205E+02  0.46142317572E+02  0.99999982711E+01 0.  0.
        -12    1    1    2    0    0 -0.39163428580E+02  0.17184063212E+02 -0.14143809205E+02  0.45045682428E+02  0.00000000000E+00 0.  1.
         11    1    3    3    0    0  0.15206174746E+02 -0.54744759652E+01  0.75574761659E+01  0.17841330774E+02  0.51100000000E-03 0. -1.
        -11    1    3    3    0    0  0.82316090944E+01 -0.76955418441E+00  0.88993377419E+00  0.83152621311E+01  0.51100000000E-03 0.  1.
        -12    1    3    3    0    0  0.15725644739E+02 -0.10940033063E+02  0.56963992653E+01  0.19985724667E+02  0.00000000000E+00 0.  1.
</event>
<event>
 7    1  0.2001181E-008  0.4614232E+02  0.7816164E-02  0.1320468E+00
        -11   -1    0    0    0    0  0.00000000000E+00  0.00000000000E+00  0.45593999997E+02  0.45594000000E+02  0.51100000000E-03 0.  1.
         11   -1    0    0    0    0 -0.00000000000E+00 -0.00000000000E+00 -0.45593999997E+02  0.45594000000E+02  0.51100000000E-03 0. -1.
    9900012    2    1    2    0    0 -0.37774930656E+02 -0.91077975112E+01 -0.22786313323E+02  0.46142318338E+02  0.10000005263E+02 0.  0.
        -12    1    1    2    0    0  0.37774930656E+02  0.91077975112E+01  0.22786313323E+02  0.45045681662E+02  0.00000000000E+00 0.  1.
         11    1    3    3    0    0 -0.12738293393E+02 -0.11684778632E+01 -0.51442064616E+01  0.13787397124E+02  0.51100000000E-03 0. -1.
        -11    1    3    3    0    0 -0.55003793843E+01  0.92229552623E+00 -0.25925846836E+01  0.61503087737E+01  0.51100000000E-03 0.  1.
        -12    1    3    3    0    0 -0.19536257879E+02 -0.88616151743E+01 -0.15049522177E+02  0.26204612441E+02  0.00000000000E+00 0.  1.
</event>
<event>
 7    1  0.2001181E-008  0.4614232E+02  0.7816164E-02  0.1320468E+00
        -11   -1    0    0    0    0  0.00000000000E+00  0.00000000000E+00  0.45593999997E+02  0.45594000000E+02  0.51100000000E-03 0.  1.
         11   -1    0    0    0    0 -0.00000000000E+00 -0.00000000000E+00 -0.45593999997E+02  0.45594000000E+02  0.51100000000E-03 0. -1.
    9900012    2    1    2    0    0 -0.37779501502E+02 -0.24420685685E+02 -0.23351040895E+01  0.46142319473E+02  0.10000015608E+02 0.  0.
        -12    1    1    2    0    0  0.37779501502E+02  0.24420685685E+02  0.23351040895E+01  0.45045680527E+02  0.00000000000E+00 0.  1.
         11    1    3    3    0    0 -0.96517324594E+00 -0.28602294163E+01  0.45961610452E+00  0.30534765323E+01  0.51100000000E-03 0. -1.
        -11    1    3    3    0    0  0.23597991923E-01 -0.45933299333E+00 -0.32596144508E+00  0.56373290554E+00  0.51100000000E-03 0.  1.
         12    1    3    3    0    0 -0.36837926248E+02 -0.21101123276E+02 -0.24687587490E+01  0.42525110035E+02  0.00000000000E+00 0. -1.
</event>
<event>
 7    1  0.2001181E-008  0.4614232E+02  0.7816164E-02  0.1320468E+00
        -11   -1    0    0    0    0  0.00000000000E+00  0.00000000000E+00  0.45593999997E+02  0.45594000000E+02  0.51100000000E-03 0.  1.
         11   -1    0    0    0    0 -0.00000000000E+00 -0.00000000000E+00 -0.45593999997E+02  0.45594000000E+02  0.51100000000E-03 0. -1.
    9900012    2    1    2    0    0 -0.26616933278E+02  0.29275394681E+01 -0.36222670457E+02  0.46142317860E+02  0.10000000901E+02 0.  0.
        -12    1    1    2    0    0  0.26616933278E+02 -0.29275394681E+01  0.36222670457E+02  0.45045682140E+02  0.00000000000E+00 0.  1.
         11    1    3    3    0    0 -0.34598989069E+01 -0.16800567224E+01 -0.22839821438E+01  0.44732611963E+01  0.51100000000E-03 0. -1.
        -11    1    3    3    0    0 -0.46929555525E-01  0.69698701190E+00 -0.14336155445E+01  0.15947561157E+01  0.51100000000E-03 0.  1.
         12    1    3    3    0    0 -0.23110104815E+02  0.39106091785E+01 -0.32505072769E+02  0.40074300548E+02  0.00000000000E+00 0. -1.
</event>
<event>
 7    1  0.2001181E-008  0.4614232E+02  0.7816164E-02  0.1320468E+00
        -11   -1    0    0    0    0  0.00000000000E+00  0.00000000000E+00  0.45593999997E+02  0.45594000000E+02  0.51100000000E-03 0.  1.
         11   -1    0    0    0    0 -0.00000000000E+00 -0.00000000000E+00 -0.45593999997E+02  0.45594000000E+02  0.51100000000E-03 0. -1.
    9900012    2    1    2    0    0  0.49252460741E+01 -0.62755937323E+01 -0.44333648398E+02  0.46142317567E+02  0.99999982281E+01 0.  0.
        -12    1    1    2    0    0 -0.49252460741E+01  0.62755937323E+01  0.44333648398E+02  0.45045682433E+02  0.00000000000E+00 0.  1.
         11    1    3    3    0    0 -0.44367452455E+00 -0.60053608482E+00 -0.68526981597E+01  0.68932548917E+01  0.51100000000E-03 0. -1.
        -11    1    3    3    0    0  0.76810492501E+01 -0.41685770452E+01 -0.25556139098E+02  0.27009105835E+02  0.51100000000E-03 0.  1.
        -12    1    3    3    0    0 -0.23121286514E+01 -0.15064806023E+01 -0.11924811140E+02  0.12239956840E+02  0.00000000000E+00 0.  1.
</event>
<event>
 7    1  0.2001181E-008  0.4614231E+02  0.7816164E-02  0.1320468E+00
        -11   -1    0    0    0    0  0.00000000000E+00  0.00000000000E+00  0.45593999997E+02  0.45594000000E+02  0.51100000000E-03 0.  1.
         11   -1    0    0    0    0 -0.00000000000E+00 -0.00000000000E+00 -0.45593999997E+02  0.45594000000E+02  0.51100000000E-03 0. -1.
    9900012    2    1    2    0    0  0.16100034078E+02 -0.38412299760E+02 -0.17158039797E+02  0.46142309864E+02  0.99999279842E+01 0.  0.
        -12    1    1    2    0    0 -0.16100034078E+02  0.38412299760E+02  0.17158039797E+02  0.45045690136E+02  0.00000000000E+00 0.  1.
         11    1    3    3    0    0  0.26134220548E+01 -0.12682150638E+01 -0.91236249401E+00  0.30447906112E+01  0.51100000000E-03 0. -1.
        -11    1    3    3    0    0  0.24291377671E+01 -0.12411596957E+02 -0.32938095447E+01  0.13068956763E+02  0.51100000000E-03 0.  1.
         12    1    3    3    0    0  0.11057474256E+02 -0.24732487740E+02 -0.12951867759E+02  0.30028562489E+02  0.00000000000E+00 0. -1.
</event>
<event>
 7    1  0.2001181E-008  0.4614232E+02  0.7816164E-02  0.1320468E+00
        -11   -1    0    0    0    0  0.00000000000E+00  0.00000000000E+00  0.45593999997E+02  0.45594000000E+02  0.51100000000E-03 0.  1.
         11   -1    0    0    0    0 -0.00000000000E+00 -0.00000000000E+00 -0.45593999997E+02  0.45594000000E+02  0.51100000000E-03 0. -1.
    9900012    2    1    2    0    0 -0.59729407685E+01  0.12512747322E+02 -0.42858704970E+02  0.46142318091E+02  0.10000003005E+02 0.  0.
        -12    1    1    2    0    0  0.59729407685E+01 -0.12512747322E+02  0.42858704970E+02  0.45045681909E+02  0.00000000000E+00 0.  1.
         11    1    3    3    0    0 -0.35226554984E+01  0.52542450605E+01 -0.16516178470E+02  0.17686162513E+02  0.51100000000E-03 0. -1.
        -11    1    3    3    0    0 -0.30821402327E+00  0.81453605750E+01 -0.22884753271E+02  0.24293081882E+02  0.51100000000E-03 0.  1.
         12    1    3    3    0    0 -0.21420712468E+01 -0.88685831339E+00 -0.34577732286E+01  0.41630736956E+01  0.00000000000E+00 0. -1.
</event>
<event>
 7    1  0.2001181E-008  0.4614232E+02  0.7816164E-02  0.1320468E+00
        -11   -1    0    0    0    0  0.00000000000E+00  0.00000000000E+00  0.45593999997E+02  0.45594000000E+02  0.51100000000E-03 0. -1.
         11   -1    0    0    0    0 -0.00000000000E+00 -0.00000000000E+00 -0.45593999997E+02  0.45594000000E+02  0.51100000000E-03 0.  1.
    9900012    2    1    2    0    0 -0.16123231568E+01  0.44103724833E+02 -0.90208328526E+01  0.46142317016E+02  0.99999932085E+01 0.  0.
        -12    1    1    2    0    0  0.16123231568E+01 -0.44103724833E+02  0.90208328526E+01  0.45045682984E+02  0.00000000000E+00 0.  1.
         11    1    3    3    0    0 -0.43898798025E+01  0.19450352266E+02 -0.30007815571E+01  0.20164125029E+02  0.51100000000E-03 0. -1.
        -11    1    3    3    0    0 -0.63232523462E+00  0.33878475738E+00 -0.21235133618E+00  0.74813345419E+00  0.51100000000E-03 0.  1.
        -12    1    3    3    0    0  0.34098818803E+01  0.24314587810E+02 -0.58076999593E+01  0.25230058534E+02  0.00000000000E+00 0.  1.
</event>
<event>
 7    1  0.2001181E-008  0.4614232E+02  0.7816164E-02  0.1320468E+00
        -11   -1    0    0    0    0  0.00000000000E+00  0.00000000000E+00  0.45593999997E+02  0.45594000000E+02  0.51100000000E-03 0.  1.
         11   -1    0    0    0    0 -0.00000000000E+00 -0.00000000000E+00 -0.45593999997E+02  0.45594000000E+02  0.51100000000E-03 0. -1.
    9900012    2    1    2    0    0 -0.23590577697E+02 -0.15728497697E+01 -0.38342198020E+02  0.46142319170E+02  0.10000012844E+02 0.  0.
        -12    1    1    2    0    0  0.23590577697E+02  0.15728497697E+01  0.38342198020E+02  0.45045680830E+02  0.00000000000E+00 0.  1.
         11    1    3    3    0    0 -0.33650737732E+01  0.21414088601E+01 -0.85992126279E+01  0.94792305324E+01  0.51100000000E-03 0.  1.
        -11    1    3    3    0    0 -0.53477722298E+01 -0.15116073050E+01 -0.13106831371E+02  0.14236314598E+02  0.51100000000E-03 0. -1.
        -12    1    3    3    0    0 -0.14877731694E+02 -0.22026513247E+01 -0.16636154021E+02  0.22426774039E+02  0.00000000000E+00 0.  1.
</event>
<event>
 7    1  0.2001181E-008  0.4614232E+02  0.7816164E-02  0.1320468E+00
        -11   -1    0    0    0    0  0.00000000000E+00  0.00000000000E+00  0.45593999997E+02  0.45594000000E+02  0.51100000000E-03 0.  1.
         11   -1    0    0    0    0 -0.00000000000E+00 -0.00000000000E+00 -0.45593999997E+02  0.45594000000E+02  0.51100000000E-03 0. -1.
    9900012    2    1    2    0    0  0.79593526710E+01 -0.21365767895E+02 -0.38849274708E+02  0.46142317876E+02  0.10000001044E+02 0.  0.
        -12    1    1    2    0    0 -0.79593526710E+01  0.21365767895E+02  0.38849274708E+02  0.45045682124E+02  0.00000000000E+00 0.  1.
         11    1    3    3    0    0 -0.72707697657E+00 -0.30148045512E+01 -0.82806092988E+01  0.88422948397E+01  0.51100000000E-03 0. -1.
        -11    1    3    3    0    0  0.97361709555E+01 -0.15576852402E+02 -0.27056086860E+02  0.32702648089E+02  0.51100000000E-03 0.  1.
        -12    1    3    3    0    0 -0.10497413080E+01 -0.27741109417E+01 -0.35125785499E+01  0.45973749466E+01  0.00000000000E+00 0.  1.
</event>
<event>
 7    1  0.2001181E-008  0.4614232E+02  0.7816164E-02  0.1320468E+00
        -11   -1    0    0    0    0  0.00000000000E+00  0.00000000000E+00  0.45593999997E+02  0.45594000000E+02  0.51100000000E-03 0. -1.
         11   -1    0    0    0    0 -0.00000000000E+00 -0.00000000000E+00 -0.45593999997E+02  0.45594000000E+02  0.51100000000E-03 0.  1.
    9900012    2    1    2    0    0 -0.24754475475E+01 -0.11882068112E+02  0.43379742640E+02  0.46142318135E+02  0.10000003408E+02 0.  0.
        -12    1    1    2    0    0  0.24754475475E+01  0.11882068112E+02 -0.43379742640E+02  0.45045681865E+02  0.00000000000E+00 0.  1.
         11    1    3    3    0    0 -0.13347559414E+00 -0.28264236634E+01  0.22936291946E+02  0.23110170379E+02  0.51100000000E-03 0. -1.
        -11    1    3    3    0    0 -0.15871621060E+00  0.40519390457E+00  0.40938878355E-01  0.43709173944E+00  0.51100000000E-03 0.  1.
        -12    1    3    3    0    0 -0.21832557428E+01 -0.94608383533E+01  0.20402511816E+02  0.22595056016E+02  0.00000000000E+00 0.  1.
</event>
<event>
 7    1  0.2001181E-008  0.4614232E+02  0.7816164E-02  0.1320468E+00
        -11   -1    0    0    0    0  0.00000000000E+00  0.00000000000E+00  0.45593999997E+02  0.45594000000E+02  0.51100000000E-03 0.  1.
         11   -1    0    0    0    0 -0.00000000000E+00 -0.00000000000E+00 -0.45593999997E+02  0.45594000000E+02  0.51100000000E-03 0. -1.
    9900012    2    1    2    0    0 -0.16703571228E+02 -0.28700619239E+02 -0.30436468852E+02  0.46142317936E+02  0.10000001596E+02 0.  0.
        -12    1    1    2    0    0  0.16703571228E+02  0.28700619239E+02  0.30436468852E+02  0.45045682064E+02  0.00000000000E+00 0.  1.
         11    1    3    3    0    0 -0.46543047828E+01 -0.28313037932E+01 -0.76844598275E+01  0.94196474075E+01  0.51100000000E-03 0. -1.
        -11    1    3    3    0    0 -0.49439596063E+00 -0.35291178942E+01 -0.39519295269E+01  0.53213576955E+01  0.51100000000E-03 0.  1.
         12    1    3    3    0    0 -0.11554870485E+02 -0.22340197551E+02 -0.18800079497E+02  0.31401312833E+02  0.00000000000E+00 0. -1.
</event>
<event>
 7    1  0.2001181E-008  0.4614232E+02  0.7816164E-02  0.1320468E+00
        -11   -1    0    0    0    0  0.00000000000E+00  0.00000000000E+00  0.45593999997E+02  0.45594000000E+02  0.51100000000E-03 0. -1.
         11   -1    0    0    0    0 -0.00000000000E+00 -0.00000000000E+00 -0.45593999997E+02  0.45594000000E+02  0.51100000000E-03 0.  1.
    9900012    2    1    2    0    0 -0.12153614922E+02  0.91518666930E+01  0.42398661324E+02  0.46142317613E+02  0.99999986510E+01 0.  0.
        -12    1    1    2    0    0  0.12153614922E+02 -0.91518666930E+01 -0.42398661324E+02  0.45045682387E+02  0.00000000000E+00 0.  1.
         11    1    3    3    0    0 -0.90679910494E+01  0.61756037142E+01  0.23557681698E+02  0.25987129702E+02  0.51100000000E-03 0. -1.
        -11    1    3    3    0    0 -0.19214662044E+01  0.32305786059E+01  0.18552107354E+02  0.18929061203E+02  0.51100000000E-03 0.  1.
        -12    1    3    3    0    0 -0.11641576678E+01 -0.25431562716E+00  0.28887227186E+00  0.12261267077E+01  0.00000000000E+00 0.  1.
</event>
<event>
 7    1  0.2001181E-008  0.4614232E+02  0.7816164E-02  0.1320468E+00
        -11   -1    0    0    0    0  0.00000000000E+00  0.00000000000E+00  0.45593999997E+02  0.45594000000E+02  0.51100000000E-03 0.  1.
         11   -1    0    0    0    0 -0.00000000000E+00 -0.00000000000E+00 -0.45593999997E+02  0.45594000000E+02  0.51100000000E-03 0. -1.
    9900012    2    1    2    0    0  0.30522338217E+02  0.27433576829E+02 -0.18571462913E+02  0.46142317603E+02  0.99999985568E+01 0.  0.
        -12    1    1    2    0    0 -0.30522338217E+02 -0.27433576829E+02  0.18571462913E+02  0.45045682397E+02  0.00000000000E+00 0.  1.
         11    1    3    3    0    0  0.22279636414E+02  0.20847692977E+02 -0.15475661813E+02  0.34212638162E+02  0.51100000000E-03 0. -1.
        -11    1    3    3    0    0  0.21508904544E+00  0.26507213560E+00 -0.15607114766E+01  0.15976066815E+01  0.51100000000E-03 0.  1.
        -12    1    3    3    0    0  0.80276127584E+01  0.63208117168E+01 -0.15350896233E+01  0.10332072760E+02  0.00000000000E+00 0.  1.
</event>
<event>
 7    1  0.2001181E-008  0.4614232E+02  0.7816164E-02  0.1320468E+00
        -11   -1    0    0    0    0  0.00000000000E+00  0.00000000000E+00  0.45593999997E+02  0.45594000000E+02  0.51100000000E-03 0. -1.
         11   -1    0    0    0    0 -0.00000000000E+00 -0.00000000000E+00 -0.45593999997E+02  0.45594000000E+02  0.51100000000E-03 0.  1.
    9900012    2    1    2    0    0  0.18694631603E+02 -0.21961827042E+02  0.34602058260E+02  0.46142317259E+02  0.99999954189E+01 0.  0.
        -12    1    1    2    0    0 -0.18694631603E+02  0.21961827042E+02 -0.34602058260E+02  0.45045682741E+02  0.00000000000E+00 0.  1.
         11    1    3    3    0    0  0.49392927325E+00 -0.41774078492E+01  0.56336115544E+01  0.70308094749E+01  0.51100000000E-03 0. -1.
        -11    1    3    3    0    0  0.17293440746E+02 -0.14837925541E+02  0.27448509055E+02  0.35674189224E+02  0.51100000000E-03 0.  1.
        -12    1    3    3    0    0  0.90726158358E+00 -0.29464936511E+01  0.15199376510E+01  0.34373185595E+01  0.00000000000E+00 0.  1.
</event>
<event>
 7    1  0.2001181E-008  0.4614232E+02  0.7816164E-02  0.1320468E+00
        -11   -1    0    0    0    0  0.00000000000E+00  0.00000000000E+00  0.45593999997E+02  0.45594000000E+02  0.51100000000E-03 0.  1.
         11   -1    0    0    0    0 -0.00000000000E+00 -0.00000000000E+00 -0.45593999997E+02  0.45594000000E+02  0.51100000000E-03 0. -1.
    9900012    2    1    2    0    0  0.31228114803E+02 -0.42502129219E+01  0.32184684824E+02  0.46142318728E+02  0.10000008815E+02 0.  0.
        -12    1    1    2    0    0 -0.31228114803E+02  0.42502129219E+01 -0.32184684824E+02  0.45045681272E+02  0.00000000000E+00 0.  1.
         11    1    3    3    0    0  0.12224017392E+01 -0.12354528463E+01  0.39012717962E+01  0.42708935408E+01  0.51100000000E-03 0. -1.
        -11    1    3    3    0    0  0.15632700701E+02  0.14950385500E+01  0.12692490587E+02  0.20191973381E+02  0.51100000000E-03 0.  1.
        -12    1    3    3    0    0  0.14373012364E+02 -0.45097986256E+01  0.15590922441E+02  0.21679451806E+02  0.00000000000E+00 0.  1.
</event>
<event>
 7    1  0.2001181E-008  0.4614232E+02  0.7816164E-02  0.1320468E+00
        -11   -1    0    0    0    0  0.00000000000E+00  0.00000000000E+00  0.45593999997E+02  0.45594000000E+02  0.51100000000E-03 0.  1.
         11   -1    0    0    0    0 -0.00000000000E+00 -0.00000000000E+00 -0.45593999997E+02  0.45594000000E+02  0.51100000000E-03 0. -1.
    9900012    2    1    2    0    0  0.69072331874E+01  0.17980457136E+02 -0.40719856981E+02  0.46142318058E+02  0.10000002706E+02 0.  0.
        -12    1    1    2    0    0 -0.69072331874E+01 -0.17980457136E+02  0.40719856981E+02  0.45045681942E+02  0.00000000000E+00 0.  1.
         11    1    3    3    0    0  0.19561877202E+01  0.10754778135E+01 -0.93341253015E+01  0.95973547569E+01  0.51100000000E-03 0.  1.
        -11    1    3    3    0    0 -0.48549846762E+00  0.76497799607E+01 -0.16492899442E+02  0.18187099122E+02  0.51100000000E-03 0. -1.
        -12    1    3    3    0    0  0.54365439348E+01  0.92551993614E+01 -0.14892832237E+02  0.18357864179E+02  0.00000000000E+00 0.  1.
</event>
<event>
 7    1  0.2001181E-008  0.4614232E+02  0.7816164E-02  0.1320468E+00
        -11   -1    0    0    0    0  0.00000000000E+00  0.00000000000E+00  0.45593999997E+02  0.45594000000E+02  0.51100000000E-03 0.  1.
         11   -1    0    0    0    0 -0.00000000000E+00 -0.00000000000E+00 -0.45593999997E+02  0.45594000000E+02  0.51100000000E-03 0. -1.
    9900012    2    1    2    0    0  0.38556846721E+02 -0.20775216414E+02 -0.10529644531E+02  0.46142318076E+02  0.10000002868E+02 0.  0.
        -12    1    1    2    0    0 -0.38556846721E+02  0.20775216414E+02  0.10529644531E+02  0.45045681924E+02  0.00000000000E+00 0.  1.
         11    1    3    3    0    0  0.44943442297E+01 -0.81446871909E+00 -0.73557425535E+00  0.46263980693E+01  0.51100000000E-03 0.  1.
        -11    1    3    3    0    0  0.28351778028E+02 -0.14092857765E+02 -0.10347417018E+02  0.33309172859E+02  0.51100000000E-03 0. -1.
         12    1    3    3    0    0  0.57107244629E+01 -0.58678899305E+01  0.55334674249E+00  0.82067471476E+01  0.00000000000E+00 0. -1.
</event>
<event>
 7    1  0.2001181E-008  0.4614232E+02  0.7816164E-02  0.1320468E+00
        -11   -1    0    0    0    0  0.00000000000E+00  0.00000000000E+00  0.45593999997E+02  0.45594000000E+02  0.51100000000E-03 0.  1.
         11   -1    0    0    0    0 -0.00000000000E+00 -0.00000000000E+00 -0.45593999997E+02  0.45594000000E+02  0.51100000000E-03 0. -1.
    9900012    2    1    2    0    0  0.68999226893E+01 -0.35048113926E+02 -0.27443291357E+02  0.46142318038E+02  0.10000002527E+02 0.  0.
        -12    1    1    2    0    0 -0.68999226893E+01  0.35048113926E+02  0.27443291357E+02  0.45045681962E+02  0.00000000000E+00 0.  1.
         11    1    3    3    0    0  0.20277927995E+01 -0.11991084339E+02 -0.86695294654E+01  0.14935152784E+02  0.51100000000E-03 0. -1.
        -11    1    3    3    0    0  0.67687005951E+01 -0.20852744509E+02 -0.17408165391E+02  0.27994579544E+02  0.51100000000E-03 0.  1.
        -12    1    3    3    0    0 -0.18965707053E+01 -0.22042850780E+01 -0.13655965014E+01  0.32125857109E+01  0.00000000000E+00 0.  1.
</event>
<event>
 7    1  0.2001181E-008  0.4614232E+02  0.7816164E-02  0.1320468E+00
        -11   -1    0    0    0    0  0.00000000000E+00  0.00000000000E+00  0.45593999997E+02  0.45594000000E+02  0.51100000000E-03 0.  1.
         11   -1    0    0    0    0 -0.00000000000E+00 -0.00000000000E+00 -0.45593999997E+02  0.45594000000E+02  0.51100000000E-03 0. -1.
    9900012    2    1    2    0    0  0.61994302315E+01 -0.15359448854E+02 -0.41889950263E+02  0.46142317218E+02  0.99999950477E+01 0.  0.
        -12    1    1    2    0    0 -0.61994302315E+01  0.15359448854E+02  0.41889950263E+02  0.45045682782E+02  0.00000000000E+00 0.  1.
         11    1    3    3    0    0  0.62111066784E+01 -0.10338444384E+02 -0.31859095351E+02  0.34065572582E+02  0.51100000000E-03 0. -1.
        -11    1    3    3    0    0  0.12784084452E+01 -0.20113445145E+01 -0.76919867547E+01  0.80527321701E+01  0.51100000000E-03 0.  1.
        -12    1    3    3    0    0 -0.12900848921E+01 -0.30096599549E+01 -0.23388681567E+01  0.40240124661E+01  0.00000000000E+00 0.  1.
</event>
<event>
 7    1  0.2001181E-008  0.4614232E+02  0.7816164E-02  0.1320468E+00
        -11   -1    0    0    0    0  0.00000000000E+00  0.00000000000E+00  0.45593999997E+02  0.45594000000E+02  0.51100000000E-03 0. -1.
         11   -1    0    0    0    0 -0.00000000000E+00 -0.00000000000E+00 -0.45593999997E+02  0.45594000000E+02  0.51100000000E-03 0.  1.
    9900012    2    1    2    0    0  0.26254687374E+01 -0.39643392303E+02  0.21227859630E+02  0.46142315813E+02  0.99999822375E+01 0.  0.
        -12    1    1    2    0    0 -0.26254687374E+01  0.39643392303E+02 -0.21227859630E+02  0.45045684187E+02  0.00000000000E+00 0.  1.
         11    1    3    3    0    0  0.39870292658E+01 -0.19432562249E+02  0.10173511713E+02  0.22293972701E+02  0.51100000000E-03 0.  1.
        -11    1    3    3    0    0 -0.11254456072E+00 -0.18376258947E+02  0.79267961398E+01  0.20013336964E+02  0.51100000000E-03 0. -1.
        -12    1    3    3    0    0 -0.12490159677E+01 -0.18345711070E+01  0.31275517779E+01  0.38350061483E+01  0.00000000000E+00 0.  1.
</event>
<event>
 7    1  0.2001181E-008  0.4614232E+02  0.7816164E-02  0.1320468E+00
        -11   -1    0    0    0    0  0.00000000000E+00  0.00000000000E+00  0.45593999997E+02  0.45594000000E+02  0.51100000000E-03 0. -1.
         11   -1    0    0    0    0 -0.00000000000E+00 -0.00000000000E+00 -0.45593999997E+02  0.45594000000E+02  0.51100000000E-03 0.  1.
    9900012    2    1    2    0    0 -0.35232012617E+02  0.27199756116E+02  0.69276259568E+01  0.46142318217E+02  0.10000004161E+02 0.  0.
        -12    1    1    2    0    0  0.35232012617E+02 -0.27199756116E+02 -0.69276259568E+01  0.45045681783E+02  0.00000000000E+00 0.  1.
         11    1    3    3    0    0 -0.18884020737E+02  0.12470416061E+02  0.76753288629E+01  0.23896196127E+02  0.51100000000E-03 0. -1.
        -11    1    3    3    0    0 -0.11829588529E+01  0.17535357670E+01  0.71771849744E+00  0.22336963618E+01  0.51100000000E-03 0.  1.
        -12    1    3    3    0    0 -0.15165033028E+02  0.12975804289E+02 -0.14654214035E+01  0.20012425729E+02  0.00000000000E+00 0.  1.
</event>
<event>
 7    1  0.2001181E-008  0.4614232E+02  0.7816164E-02  0.1320468E+00
        -11   -1    0    0    0    0  0.00000000000E+00  0.00000000000E+00  0.45593999997E+02  0.45594000000E+02  0.51100000000E-03 0.  1.
         11   -1    0    0    0    0 -0.00000000000E+00 -0.00000000000E+00 -0.45593999997E+02  0.45594000000E+02  0.51100000000E-03 0. -1.
    9900012    2    1    2    0    0  0.17528101123E+02 -0.17231632123E+02 -0.37748510894E+02  0.46142317085E+02  0.99999938309E+01 0.  0.
        -12    1    1    2    0    0 -0.17528101123E+02  0.17231632123E+02  0.37748510894E+02  0.45045682915E+02  0.00000000000E+00 0.  1.
         11    1    3    3    0    0  0.12066505847E+02 -0.56131040374E+01 -0.16856348469E+02  0.21476591542E+02  0.51100000000E-03 0. -1.
        -11    1    3    3    0    0  0.50362315050E+01 -0.97314775452E+01 -0.15882550924E+02  0.19295613675E+02  0.51100000000E-03 0.  1.
        -12    1    3    3    0    0  0.42536377126E+00 -0.18870505405E+01 -0.50096115011E+01  0.53701118678E+01  0.00000000000E+00 0.  1.
</event>
<event>
 7    1  0.2001181E-008  0.4614232E+02  0.7816164E-02  0.1320468E+00
        -11   -1    0    0    0    0  0.00000000000E+00  0.00000000000E+00  0.45593999997E+02  0.45594000000E+02  0.51100000000E-03 0.  1.
         11   -1    0    0    0    0 -0.00000000000E+00 -0.00000000000E+00 -0.45593999997E+02  0.45594000000E+02  0.51100000000E-03 0. -1.
    9900012    2    1    2    0    0  0.15070246487E+02 -0.41534215768E+02  0.87698407570E+01  0.46142317459E+02  0.99999972471E+01 0.  0.
        -12    1    1    2    0    0 -0.15070246487E+02  0.41534215768E+02 -0.87698407570E+01  0.45045682541E+02  0.00000000000E+00 0.  1.
         11    1    3    3    0    0  0.32743266184E+01 -0.92432890637E+01 -0.74900275325E+00  0.98346638430E+01  0.51100000000E-03 0. -1.
        -11    1    3    3    0    0  0.32628516416E+01 -0.67262661608E+01 -0.64505259600E+00  0.75036624666E+01  0.51100000000E-03 0.  1.
         12    1    3    3    0    0  0.85330682268E+01 -0.25564660544E+02  0.10163896106E+02  0.28803991150E+02  0.00000000000E+00 0. -1.
</event>
<event>
 7    1  0.2001181E-008  0.4614232E+02  0.7816164E-02  0.1320468E+00
        -11   -1    0    0    0    0  0.00000000000E+00  0.00000000000E+00  0.45593999997E+02  0.45594000000E+02  0.51100000000E-03 0.  1.
         11   -1    0    0    0    0 -0.00000000000E+00 -0.00000000000E+00 -0.45593999997E+02  0.45594000000E+02  0.51100000000E-03 0. -1.
    9900012    2    1    2    0    0 -0.36231001867E+02  0.26121154363E+02  0.58406667372E+01  0.46142316638E+02  0.99999897628E+01 0.  0.
        -12    1    1    2    0    0  0.36231001867E+02 -0.26121154363E+02 -0.58406667372E+01  0.45045683362E+02  0.00000000000E+00 0.  1.
         11    1    3    3    0    0 -0.72623659470E+01  0.64999438854E+01 -0.18032263920E+01  0.99117533939E+01  0.51100000000E-03 0. -1.
        -11    1    3    3    0    0 -0.13654758938E+02  0.77790177950E+01  0.59284178455E+01  0.16796181052E+02  0.51100000000E-03 0.  1.
        -12    1    3    3    0    0 -0.15313876982E+02  0.11842192683E+02  0.17154752837E+01  0.19434382193E+02  0.00000000000E+00 0.  1.
</event>
<event>
 7    1  0.2001181E-008  0.4614232E+02  0.7816164E-02  0.1320468E+00
        -11   -1    0    0    0    0  0.00000000000E+00  0.00000000000E+00  0.45593999997E+02  0.45594000000E+02  0.51100000000E-03 0.  1.
         11   -1    0    0    0    0 -0.00000000000E+00 -0.00000000000E+00 -0.45593999997E+02  0.45594000000E+02  0.51100000000E-03 0. -1.
    9900012    2    1    2    0    0 -0.21974106332E+02  0.32493536894E+02 -0.22145476135E+02  0.46142318718E+02  0.10000008722E+02 0.  0.
        -12    1    1    2    0    0  0.21974106332E+02 -0.32493536894E+02  0.22145476135E+02  0.45045681282E+02  0.00000000000E+00 0.  1.
         11    1    3    3    0    0 -0.56517099201E+01  0.37282373282E+01 -0.25077472909E+01  0.72201367946E+01  0.51100000000E-03 0. -1.
        -11    1    3    3    0    0 -0.31716867200E+01  0.71813215213E+01 -0.76023816437E+01  0.10928274446E+02  0.51100000000E-03 0.  1.
         12    1    3    3    0    0 -0.13150709692E+02  0.21583978044E+02 -0.12035347200E+02  0.27993907477E+02  0.00000000000E+00 0. -1.
</event>
<event>
 7    1  0.2001181E-008  0.4614232E+02  0.7816164E-02  0.1320468E+00
        -11   -1    0    0    0    0  0.00000000000E+00  0.00000000000E+00  0.45593999997E+02  0.45594000000E+02  0.51100000000E-03 0.  1.
         11   -1    0    0    0    0 -0.00000000000E+00 -0.00000000000E+00 -0.45593999997E+02  0.45594000000E+02  0.51100000000E-03 0. -1.
    9900012    2    1    2    0    0  0.20350912948E+02 -0.39128557306E+02 -0.91602294071E+01  0.46142318104E+02  0.10000003129E+02 0.  0.
        -12    1    1    2    0    0 -0.20350912948E+02  0.39128557306E+02  0.91602294071E+01  0.45045681896E+02  0.00000000000E+00 0.  1.
         11    1    3    3    0    0  0.41482695334E+01 -0.11700951896E+02 -0.48113704818E+01  0.13314266843E+02  0.51100000000E-03 0.  1.
        -11    1    3    3    0    0  0.14499982804E+02 -0.27130628235E+02 -0.37092901896E+01  0.30985146824E+02  0.51100000000E-03 0. -1.
        -12    1    3    3    0    0  0.17026606109E+01 -0.29697717558E+00 -0.63956873572E+00  0.18429044377E+01  0.00000000000E+00 0.  1.
</event>
<event>
 7    1  0.2001181E-008  0.4614232E+02  0.7816164E-02  0.1320468E+00
        -11   -1    0    0    0    0  0.00000000000E+00  0.00000000000E+00  0.45593999997E+02  0.45594000000E+02  0.51100000000E-03 0.  1.
         11   -1    0    0    0    0 -0.00000000000E+00 -0.00000000000E+00 -0.45593999997E+02  0.45594000000E+02  0.51100000000E-03 0. -1.
    9900012    2    1    2    0    0 -0.34241596991E+01 -0.36656826172E+02 -0.25955071353E+02  0.46142317592E+02  0.99999984591E+01 0.  0.
        -12    1    1    2    0    0  0.34241596991E+01  0.36656826172E+02  0.25955071353E+02  0.45045682408E+02  0.00000000000E+00 0.  1.
         11    1    3    3    0    0  0.12239466357E+01 -0.18121528058E+02 -0.15761317759E+02  0.24048013687E+02  0.51100000000E-03 0. -1.
        -11    1    3    3    0    0 -0.10633761255E+01 -0.56368989969E+01 -0.92230829519E+00  0.58099958639E+01  0.51100000000E-03 0.  1.
        -12    1    3    3    0    0 -0.35847302093E+01 -0.12898399117E+02 -0.92714452989E+01  0.16284308041E+02  0.00000000000E+00 0.  1.
</event>
<event>
 7    1  0.2001181E-008  0.4614231E+02  0.7816164E-02  0.1320468E+00
        -11   -1    0    0    0    0  0.00000000000E+00  0.00000000000E+00  0.45593999997E+02  0.45594000000E+02  0.51100000000E-03 0.  1.
         11   -1    0    0    0    0 -0.00000000000E+00 -0.00000000000E+00 -0.45593999997E+02  0.45594000000E+02  0.51100000000E-03 0. -1.
    9900012    2    1    2    0    0  0.47054070327E+00  0.42245682722E+02 -0.15626729613E+02  0.46142314350E+02  0.99999688976E+01 0.  0.
        -12    1    1    2    0    0 -0.47054070327E+00 -0.42245682722E+02  0.15626729613E+02  0.45045685650E+02  0.00000000000E+00 0.  1.
         11    1    3    3    0    0  0.28512876346E+01  0.14996149374E+02 -0.32849066531E+01  0.15614254680E+02  0.51100000000E-03 0. -1.
        -11    1    3    3    0    0 -0.18637558823E+01  0.32792968361E+01 -0.55812509999E+00  0.38129880168E+01  0.51100000000E-03 0.  1.
         12    1    3    3    0    0 -0.51699104901E+00  0.23970236512E+02 -0.11783697860E+02  0.26715071653E+02  0.00000000000E+00 0. -1.
</event>
<event>
 7    1  0.2001181E-008  0.4614232E+02  0.7816164E-02  0.1320468E+00
        -11   -1    0    0    0    0  0.00000000000E+00  0.00000000000E+00  0.45593999997E+02  0.45594000000E+02  0.51100000000E-03 0. -1.
         11   -1    0    0    0    0 -0.00000000000E+00 -0.00000000000E+00 -0.45593999997E+02  0.45594000000E+02  0.51100000000E-03 0.  1.
    9900012    2    1    2    0    0 -0.16346549103E+02 -0.37182621163E+02  0.19477067656E+02  0.46142321533E+02  0.10000034392E+02 0.  0.
        -12    1    1    2    0    0  0.16346549103E+02  0.37182621163E+02 -0.19477067656E+02  0.45045678467E+02  0.00000000000E+00 0.  1.
         11    1    3    3    0    0 -0.31994046846E+01 -0.37343012639E+01  0.34899368861E+01  0.60299963512E+01  0.51100000000E-03 0. -1.
        -11    1    3    3    0    0 -0.77257242149E+01 -0.12659516333E+02  0.34105574697E+01  0.15217820834E+02  0.51100000000E-03 0.  1.
         12    1    3    3    0    0 -0.54214202037E+01 -0.20788803566E+02  0.12576573300E+02  0.24894504347E+02  0.00000000000E+00 0. -1.
</event>
<event>
 7    1  0.2001181E-008  0.4614232E+02  0.7816164E-02  0.1320468E+00
        -11   -1    0    0    0    0  0.00000000000E+00  0.00000000000E+00  0.45593999997E+02  0.45594000000E+02  0.51100000000E-03 0.  1.
         11   -1    0    0    0    0 -0.00000000000E+00 -0.00000000000E+00 -0.45593999997E+02  0.45594000000E+02  0.51100000000E-03 0. -1.
    9900012    2    1    2    0    0  0.20986210067E+02  0.16134401481E+02 -0.36446859351E+02  0.46142317847E+02  0.10000000779E+02 0.  0.
        -12    1    1    2    0    0 -0.20986210067E+02 -0.16134401481E+02  0.36446859351E+02  0.45045682153E+02  0.00000000000E+00 0.  1.
         11    1    3    3    0    0  0.15833572092E+02  0.97609100279E+01 -0.26398806557E+02  0.32293565267E+02  0.51100000000E-03 0. -1.
        -11    1    3    3    0    0  0.46077582803E+01  0.70923110484E+01 -0.97306278866E+01  0.12892533952E+02  0.51100000000E-03 0.  1.
        -12    1    3    3    0    0  0.54487969464E+00 -0.71881959497E+00 -0.31742490747E+00  0.95621862752E+00  0.00000000000E+00 0.  1.
</event>
<event>
 7    1  0.2001181E-008  0.4614232E+02  0.7816164E-02  0.1320468E+00
        -11   -1    0    0    0    0  0.00000000000E+00  0.00000000000E+00  0.45593999997E+02  0.45594000000E+02  0.51100000000E-03 0. -1.
         11   -1    0    0    0    0 -0.00000000000E+00 -0.00000000000E+00 -0.45593999997E+02  0.45594000000E+02  0.51100000000E-03 0.  1.
    9900012    2    1    2    0    0  0.41734042400E+02  0.16225983076E+02 -0.49092310224E+01  0.46142319063E+02  0.10000011872E+02 0.  0.
        -12    1    1    2    0    0 -0.41734042400E+02 -0.16225983076E+02  0.49092310224E+01  0.45045680937E+02  0.00000000000E+00 0.  1.
         11    1    3    3    0    0  0.18625635783E+02  0.84241022717E+01 -0.48007407536E+01  0.20998259915E+02  0.51100000000E-03 0. -1.
        -11    1    3    3    0    0  0.76531191596E+01  0.45430540722E+01 -0.23135457953E+01  0.91957635671E+01  0.51100000000E-03 0.  1.
        -12    1    3    3    0    0  0.15455287457E+02  0.32588267319E+01  0.22050555266E+01  0.15948295581E+02  0.00000000000E+00 0.  1.
</event>
<event>
 7    1  0.2001181E-008  0.4614232E+02  0.7816164E-02  0.1320468E+00
        -11   -1    0    0    0    0  0.00000000000E+00  0.00000000000E+00  0.45593999997E+02  0.45594000000E+02  0.51100000000E-03 0.  1.
         11   -1    0    0    0    0 -0.00000000000E+00 -0.00000000000E+00 -0.45593999997E+02  0.45594000000E+02  0.51100000000E-03 0. -1.
    9900012    2    1    2    0    0  0.39648803123E+02 -0.21355669064E+02 -0.10105507680E+01  0.46142318707E+02  0.10000008628E+02 0.  0.
        -12    1    1    2    0    0 -0.39648803123E+02  0.21355669064E+02  0.10105507680E+01  0.45045681293E+02  0.00000000000E+00 0.  1.
         11    1    3    3    0    0  0.18893016106E+02 -0.98739014578E+01 -0.19614182770E+01  0.21407642316E+02  0.51100000000E-03 0. -1.
        -11    1    3    3    0    0  0.12072784330E+02 -0.31566906346E+01  0.20869224574E+01  0.12651958855E+02  0.51100000000E-03 0.  1.
         12    1    3    3    0    0  0.86830026860E+01 -0.83250769720E+01 -0.11360549484E+01  0.12082717537E+02  0.00000000000E+00 0. -1.
</event>
<event>
 7    1  0.2001181E-008  0.4614232E+02  0.7816164E-02  0.1320468E+00
        -11   -1    0    0    0    0  0.00000000000E+00  0.00000000000E+00  0.45593999997E+02  0.45594000000E+02  0.51100000000E-03 0.  1.
         11   -1    0    0    0    0 -0.00000000000E+00 -0.00000000000E+00 -0.45593999997E+02  0.45594000000E+02  0.51100000000E-03 0. -1.
    9900012    2    1    2    0    0  0.31957528455E+02  0.20413169401E+02 -0.24313213399E+02  0.46142318123E+02  0.10000003304E+02 0.  0.
        -12    1    1    2    0    0 -0.31957528455E+02 -0.20413169401E+02  0.24313213399E+02  0.45045681877E+02  0.00000000000E+00 0.  1.
         11    1    3    3    0    0  0.14867238781E+02  0.10311217054E+02 -0.15160936477E+02  0.23605295619E+02  0.51100000000E-03 0. -1.
        -11    1    3    3    0    0  0.93327093448E+01  0.84031503966E+01 -0.45425268531E+01  0.13354660264E+02  0.51100000000E-03 0.  1.
        -12    1    3    3    0    0  0.77575803287E+01  0.16988019511E+01 -0.46097500683E+01  0.91823622406E+01  0.00000000000E+00 0.  1.
</event>
<event>
 7    1  0.2001181E-008  0.4614232E+02  0.7816164E-02  0.1320468E+00
        -11   -1    0    0    0    0  0.00000000000E+00  0.00000000000E+00  0.45593999997E+02  0.45594000000E+02  0.51100000000E-03 0.  1.
         11   -1    0    0    0    0 -0.00000000000E+00 -0.00000000000E+00 -0.45593999997E+02  0.45594000000E+02  0.51100000000E-03 0. -1.
    9900012    2    1    2    0    0 -0.26305909550E+02 -0.19681027745E+02 -0.30818336034E+02  0.46142316896E+02  0.99999921147E+01 0.  0.
        -12    1    1    2    0    0  0.26305909550E+02  0.19681027745E+02  0.30818336034E+02  0.45045683104E+02  0.00000000000E+00 0.  1.
         11    1    3    3    0    0 -0.22756248915E+02 -0.15312331144E+02 -0.25135180765E+02  0.37203382401E+02  0.51100000000E-03 0. -1.
        -11    1    3    3    0    0 -0.30173187396E+01 -0.41462092679E+01 -0.62807877378E+01  0.81082401628E+01  0.51100000000E-03 0.  1.
         12    1    3    3    0    0 -0.53234189510E+00 -0.22248733345E+00  0.59763246827E+00  0.83069433245E+00  0.00000000000E+00 0. -1.
</event>
<event>
 7    1  0.2001181E-008  0.4614232E+02  0.7816164E-02  0.1320468E+00
        -11   -1    0    0    0    0  0.00000000000E+00  0.00000000000E+00  0.45593999997E+02  0.45594000000E+02  0.51100000000E-03 0.  1.
         11   -1    0    0    0    0 -0.00000000000E+00 -0.00000000000E+00 -0.45593999997E+02  0.45594000000E+02  0.51100000000E-03 0. -1.
    9900012    2    1    2    0    0  0.35247957286E+02  0.43238641944E+01 -0.27712792972E+02  0.46142321087E+02  0.10000030329E+02 0.  0.
        -12    1    1    2    0    0 -0.35247957286E+02 -0.43238641944E+01  0.27712792972E+02  0.45045678913E+02  0.00000000000E+00 0.  1.
         11    1    3    3    0    0  0.85605947277E+01  0.20785641752E+01 -0.54671558185E+01  0.10367931526E+02  0.51100000000E-03 0. -1.
        -11    1    3    3    0    0  0.41808072029E+01 -0.22539846312E+01 -0.19438181910E+01  0.51320585544E+01  0.51100000000E-03 0.  1.
         12    1    3    3    0    0  0.22506555355E+02  0.44992846503E+01 -0.20301818963E+02  0.30642331007E+02  0.00000000000E+00 0. -1.
</event>
<event>
 7    1  0.2001181E-008  0.4614232E+02  0.7816164E-02  0.1320468E+00
        -11   -1    0    0    0    0  0.00000000000E+00  0.00000000000E+00  0.45593999997E+02  0.45594000000E+02  0.51100000000E-03 0.  1.
         11   -1    0    0    0    0 -0.00000000000E+00 -0.00000000000E+00 -0.45593999997E+02  0.45594000000E+02  0.51100000000E-03 0. -1.
    9900012    2    1    2    0    0 -0.52843821499E+01 -0.10337251361E+02 -0.43523899981E+02  0.46142319519E+02  0.10000016030E+02 0.  0.
        -12    1    1    2    0    0  0.52843821499E+01  0.10337251361E+02  0.43523899981E+02  0.45045680481E+02  0.00000000000E+00 0.  1.
         11    1    3    3    0    0  0.51070792884E+00 -0.33903289761E+01 -0.89990898825E+01  0.96300972025E+01  0.51100000000E-03 0. -1.
        -11    1    3    3    0    0 -0.44422948632E+01 -0.43780455109E+01 -0.32184042671E+02  0.32782828875E+02  0.51100000000E-03 0.  1.
        -12    1    3    3    0    0 -0.13527952156E+01 -0.25688768744E+01 -0.23407674282E+01  0.37293934418E+01  0.00000000000E+00 0.  1.
</event>
<event>
 7    1  0.2001181E-008  0.4614232E+02  0.7816164E-02  0.1320468E+00
        -11   -1    0    0    0    0  0.00000000000E+00  0.00000000000E+00  0.45593999997E+02  0.45594000000E+02  0.51100000000E-03 0.  1.
         11   -1    0    0    0    0 -0.00000000000E+00 -0.00000000000E+00 -0.45593999997E+02  0.45594000000E+02  0.51100000000E-03 0. -1.
    9900012    2    1    2    0    0  0.16427652032E+02 -0.40849895244E+02  0.95148199028E+01  0.46142317737E+02  0.99999997832E+01 0.  0.
        -12    1    1    2    0    0 -0.16427652032E+02  0.40849895244E+02 -0.95148199028E+01  0.45045682263E+02  0.00000000000E+00 0.  1.
         11    1    3    3    0    0  0.10820670378E+02 -0.25448494639E+02  0.66446066769E+01  0.28440527157E+02  0.51100000000E-03 0. -1.
        -11    1    3    3    0    0  0.65805505374E+01 -0.99810492220E+01  0.17614277736E+01  0.12084188720E+02  0.51100000000E-03 0.  1.
         12    1    3    3    0    0 -0.97356888348E+00 -0.54203513831E+01  0.11087854523E+01  0.56176018608E+01  0.00000000000E+00 0. -1.
</event>
<event>
 7    1  0.2001181E-008  0.4614232E+02  0.7816164E-02  0.1320468E+00
        -11   -1    0    0    0    0  0.00000000000E+00  0.00000000000E+00  0.45593999997E+02  0.45594000000E+02  0.51100000000E-03 0.  1.
         11   -1    0    0    0    0 -0.00000000000E+00 -0.00000000000E+00 -0.45593999997E+02  0.45594000000E+02  0.51100000000E-03 0. -1.
    9900012    2    1    2    0    0  0.28295526918E+02 -0.31138778215E+02 -0.16088914938E+02  0.46142317230E+02  0.99999951600E+01 0.  0.
        -12    1    1    2    0    0 -0.28295526918E+02  0.31138778215E+02  0.16088914938E+02  0.45045682770E+02  0.00000000000E+00 0.  1.
         11    1    3    3    0    0  0.16687992319E+02 -0.21965998411E+02 -0.10899280813E+02  0.29661228841E+02  0.51100000000E-03 0. -1.
        -11    1    3    3    0    0  0.83149594350E+01 -0.65353139183E+01 -0.60377711309E+01  0.12177994864E+02  0.51100000000E-03 0.  1.
        -12    1    3    3    0    0  0.32925751637E+01 -0.26374658860E+01  0.84813700621E+00  0.43030935256E+01  0.00000000000E+00 0.  1.
</event>
<event>
 7    1  0.2001181E-008  0.4614232E+02  0.7816164E-02  0.1320468E+00
        -11   -1    0    0    0    0  0.00000000000E+00  0.00000000000E+00  0.45593999997E+02  0.45594000000E+02  0.51100000000E-03 0.  1.
         11   -1    0    0    0    0 -0.00000000000E+00 -0.00000000000E+00 -0.45593999997E+02  0.45594000000E+02  0.51100000000E-03 0. -1.
    9900012    2    1    2    0    0  0.76156252678E+00 -0.38750903530E+02 -0.22954324969E+02  0.46142317225E+02  0.99999951149E+01 0.  0.
        -12    1    1    2    0    0 -0.76156252678E+00  0.38750903530E+02  0.22954324969E+02  0.45045682775E+02  0.00000000000E+00 0.  1.
         11    1    3    3    0    0 -0.28561011911E-01 -0.16924058967E+02 -0.12132471291E+02  0.20823579124E+02  0.51100000000E-03 0. -1.
        -11    1    3    3    0    0 -0.50073536388E+00  0.19136270083E+00 -0.10827927147E+01  0.12082201422E+01  0.51100000000E-03 0.  1.
        -12    1    3    3    0    0  0.12908589026E+01 -0.22018207264E+02 -0.97390609630E+01  0.24110517959E+02  0.00000000000E+00 0.  1.
</event>
<event>
 7    1  0.2001181E-008  0.4614232E+02  0.7816164E-02  0.1320468E+00
        -11   -1    0    0    0    0  0.00000000000E+00  0.00000000000E+00  0.45593999997E+02  0.45594000000E+02  0.51100000000E-03 0. -1.
         11   -1    0    0    0    0 -0.00000000000E+00 -0.00000000000E+00 -0.45593999997E+02  0.45594000000E+02  0.51100000000E-03 0.  1.
    9900012    2    1    2    0    0 -0.27384783856E+02  0.19359260944E+02  0.30073345294E+02  0.46142317984E+02  0.10000002032E+02 0.  0.
        -12    1    1    2    0    0  0.27384783856E+02 -0.19359260944E+02 -0.30073345294E+02  0.45045682016E+02  0.00000000000E+00 0.  1.
         11    1    3    3    0    0 -0.18929592873E+01  0.38019978875E+00  0.27446057005E+01  0.33556977598E+01  0.51100000000E-03 0. -1.
        -11    1    3    3    0    0 -0.12234232821E+01  0.39027369606E+01  0.17849543085E+01  0.44625309473E+01  0.51100000000E-03 0.  1.
         12    1    3    3    0    0 -0.24268401287E+02  0.15076324194E+02  0.25543785285E+02  0.38324089277E+02  0.00000000000E+00 0. -1.
</event>
<event>
 7    1  0.2001181E-008  0.4614232E+02  0.7816164E-02  0.1320468E+00
        -11   -1    0    0    0    0  0.00000000000E+00  0.00000000000E+00  0.45593999997E+02  0.45594000000E+02  0.51100000000E-03 0.  1.
         11   -1    0    0    0    0 -0.00000000000E+00 -0.00000000000E+00 -0.45593999997E+02  0.45594000000E+02  0.51100000000E-03 0. -1.
    9900012    2    1    2    0    0 -0.32779574395E+02 -0.26787559262E+00 -0.30895651595E+02  0.46142317162E+02  0.99999945400E+01 0.  0.
        -12    1    1    2    0    0  0.32779574395E+02  0.26787559262E+00  0.30895651595E+02  0.45045682838E+02  0.00000000000E+00 0.  1.
         11    1    3    3    0    0 -0.53414369828E+01  0.90620970146E+00 -0.44881973685E+01  0.70353451191E+01  0.51100000000E-03 0. -1.
        -11    1    3    3    0    0 -0.13467534273E+02 -0.25428945837E+01 -0.18409026748E+02  0.22950665749E+02  0.51100000000E-03 0.  1.
        -12    1    3    3    0    0 -0.13970603140E+02  0.13688092896E+01 -0.79984274782E+01  0.16156306294E+02  0.00000000000E+00 0.  1.
</event>
<event>
 7    1  0.2001181E-008  0.4614232E+02  0.7816164E-02  0.1320468E+00
        -11   -1    0    0    0    0  0.00000000000E+00  0.00000000000E+00  0.45593999997E+02  0.45594000000E+02  0.51100000000E-03 0.  1.
         11   -1    0    0    0    0 -0.00000000000E+00 -0.00000000000E+00 -0.45593999997E+02  0.45594000000E+02  0.51100000000E-03 0. -1.
    9900012    2    1    2    0    0 -0.48989958712E+01  0.41886153759E+02  0.15832357446E+02  0.46142316749E+02  0.99999907667E+01 0.  0.
        -12    1    1    2    0    0  0.48989958712E+01 -0.41886153759E+02 -0.15832357446E+02  0.45045683251E+02  0.00000000000E+00 0.  1.
         11    1    3    3    0    0 -0.33216088422E+01  0.82365438285E+01  0.36057790244E+01  0.95851646920E+01  0.51100000000E-03 0. -1.
        -11    1    3    3    0    0 -0.89317061983E-01  0.30825657280E+02  0.12682375603E+02  0.33332743294E+02  0.51100000000E-03 0.  1.
        -12    1    3    3    0    0 -0.14880699669E+01  0.28239526503E+01 -0.45579718112E+00  0.32244087625E+01  0.00000000000E+00 0.  1.
</event>
<event>
 7    1  0.2001181E-008  0.4614232E+02  0.7816164E-02  0.1320468E+00
        -11   -1    0    0    0    0  0.00000000000E+00  0.00000000000E+00  0.45593999997E+02  0.45594000000E+02  0.51100000000E-03 0.  1.
         11   -1    0    0    0    0 -0.00000000000E+00 -0.00000000000E+00 -0.45593999997E+02  0.45594000000E+02  0.51100000000E-03 0. -1.
    9900012    2    1    2    0    0 -0.13559517755E+01 -0.17096458477E+02 -0.41653163578E+02  0.46142317258E+02  0.99999954102E+01 0.  0.
        -12    1    1    2    0    0  0.13559517755E+01  0.17096458477E+02  0.41653163578E+02  0.45045682742E+02  0.00000000000E+00 0.  1.
         11    1    3    3    0    0 -0.73930635944E+00 -0.12095102623E+02 -0.23311041338E+02  0.26272470952E+02  0.51100000000E-03 0. -1.
        -11    1    3    3    0    0 -0.23885070157E+01 -0.28912307528E+01 -0.50221445964E+01  0.62678638816E+01  0.51100000000E-03 0.  1.
         12    1    3    3    0    0  0.17718615997E+01 -0.21101251011E+01 -0.13319977643E+02  0.13601982425E+02  0.00000000000E+00 0. -1.
</event>
<event>
 7    1  0.2001181E-008  0.4614232E+02  0.7816164E-02  0.1320468E+00
        -11   -1    0    0    0    0  0.00000000000E+00  0.00000000000E+00  0.45593999997E+02  0.45594000000E+02  0.51100000000E-03 0.  1.
         11   -1    0    0    0    0 -0.00000000000E+00 -0.00000000000E+00 -0.45593999997E+02  0.45594000000E+02  0.51100000000E-03 0. -1.
    9900012    2    1    2    0    0 -0.30336166211E+02  0.25086163961E+02 -0.21897827277E+02  0.46142318274E+02  0.10000004679E+02 0.  0.
        -12    1    1    2    0    0  0.30336166211E+02 -0.25086163961E+02  0.21897827277E+02  0.45045681726E+02  0.00000000000E+00 0.  1.
         11    1    3    3    0    0 -0.11166672068E+02  0.48654568179E+01 -0.60614196834E+01  0.13605441704E+02  0.51100000000E-03 0. -1.
        -11    1    3    3    0    0 -0.52217495788E+01  0.44871849479E+01 -0.67166698445E+01  0.96184796866E+01  0.51100000000E-03 0.  1.
        -12    1    3    3    0    0 -0.13947744565E+02  0.15733522195E+02 -0.91197377490E+01  0.22918396884E+02  0.00000000000E+00 0.  1.
</event>
<event>
 7    1  0.2001181E-008  0.4614232E+02  0.7816164E-02  0.1320468E+00
        -11   -1    0    0    0    0  0.00000000000E+00  0.00000000000E+00  0.45593999997E+02  0.45594000000E+02  0.51100000000E-03 0.  1.
         11   -1    0    0    0    0 -0.00000000000E+00 -0.00000000000E+00 -0.45593999997E+02  0.45594000000E+02  0.51100000000E-03 0. -1.
    9900012    2    1    2    0    0  0.19679389056E+02 -0.12345642033E+02 -0.38593006442E+02  0.46142318996E+02  0.10000011264E+02 0.  0.
        -12    1    1    2    0    0 -0.19679389056E+02  0.12345642033E+02  0.38593006442E+02  0.45045681004E+02  0.00000000000E+00 0.  1.
         11    1    3    3    0    0  0.30762104081E+00 -0.12343845025E+01 -0.63732715069E+00  0.14228569721E+01  0.51100000000E-03 0. -1.
        -11    1    3    3    0    0  0.29286038724E+01  0.69581768025E-01 -0.99522712402E+01  0.10374452533E+02  0.51100000000E-03 0.  1.
         12    1    3    3    0    0  0.16443164143E+02 -0.11180839298E+02 -0.28003408052E+02  0.34345009491E+02  0.00000000000E+00 0. -1.
</event>
<event>
 7    1  0.2001181E-008  0.4614232E+02  0.7816164E-02  0.1320468E+00
        -11   -1    0    0    0    0  0.00000000000E+00  0.00000000000E+00  0.45593999997E+02  0.45594000000E+02  0.51100000000E-03 0. -1.
         11   -1    0    0    0    0 -0.00000000000E+00 -0.00000000000E+00 -0.45593999997E+02  0.45594000000E+02  0.51100000000E-03 0.  1.
    9900012    2    1    2    0    0 -0.43222409406E+02 -0.12616307473E+02 -0.13287043003E+01  0.46142319361E+02  0.10000014587E+02 0.  0.
        -12    1    1    2    0    0  0.43222409406E+02  0.12616307473E+02  0.13287043003E+01  0.45045680639E+02  0.00000000000E+00 0.  1.
         11    1    3    3    0    0 -0.54080009352E+01 -0.12253331239E+01 -0.20622567368E+01  0.59161489577E+01  0.51100000000E-03 0. -1.
        -11    1    3    3    0    0 -0.39476510803E+01  0.79538446583E+00 -0.11388996150E+01  0.41849346583E+01  0.51100000000E-03 0.  1.
         12    1    3    3    0    0 -0.33866757391E+02 -0.12186358815E+02  0.18724520515E+01  0.36041235745E+02  0.00000000000E+00 0. -1.
</event>
<event>
 7    1  0.2001181E-008  0.4614232E+02  0.7816164E-02  0.1320468E+00
        -11   -1    0    0    0    0  0.00000000000E+00  0.00000000000E+00  0.45593999997E+02  0.45594000000E+02  0.51100000000E-03 0. -1.
         11   -1    0    0    0    0 -0.00000000000E+00 -0.00000000000E+00 -0.45593999997E+02  0.45594000000E+02  0.51100000000E-03 0.  1.
    9900012    2    1    2    0    0  0.42138212818E+02  0.15741136156E+02  0.23876749295E+01  0.46142319424E+02  0.10000015166E+02 0.  0.
        -12    1    1    2    0    0 -0.42138212818E+02 -0.15741136156E+02 -0.23876749295E+01  0.45045680576E+02  0.00000000000E+00 0.  1.
         11    1    3    3    0    0  0.12086815052E+02  0.36339728278E+01  0.51005520185E+01  0.13612952940E+02  0.51100000000E-03 0. -1.
        -11    1    3    3    0    0  0.37272896062E+01  0.15365518203E+01 -0.68952357056E+00  0.40901249761E+01  0.51100000000E-03 0.  1.
         12    1    3    3    0    0  0.26324108160E+02  0.10570611508E+02 -0.20233535185E+01  0.28439241508E+02  0.00000000000E+00 0. -1.
</event>
<event>
 7    1  0.2001181E-008  0.4614232E+02  0.7816164E-02  0.1320468E+00
        -11   -1    0    0    0    0  0.00000000000E+00  0.00000000000E+00  0.45593999997E+02  0.45594000000E+02  0.51100000000E-03 0.  1.
         11   -1    0    0    0    0 -0.00000000000E+00 -0.00000000000E+00 -0.45593999997E+02  0.45594000000E+02  0.51100000000E-03 0. -1.
    9900012    2    1    2    0    0  0.15208773848E+02 -0.39655333330E+02 -0.15008704904E+02  0.46142317783E+02  0.10000000203E+02 0.  0.
        -12    1    1    2    0    0 -0.15208773848E+02  0.39655333330E+02  0.15008704904E+02  0.45045682217E+02  0.00000000000E+00 0.  1.
         11    1    3    3    0    0  0.10476499499E+02 -0.25750959499E+02 -0.78918142031E+01  0.28898956530E+02  0.51100000000E-03 0. -1.
        -11    1    3    3    0    0  0.35082594662E+01 -0.26882124553E+01 -0.21707373451E+01  0.49240706300E+01  0.51100000000E-03 0.  1.
        -12    1    3    3    0    0  0.12240148831E+01 -0.11216161376E+02 -0.49461533554E+01  0.12319290623E+02  0.00000000000E+00 0.  1.
</event>
<event>
 7    1  0.2001181E-008  0.4614232E+02  0.7816164E-02  0.1320468E+00
        -11   -1    0    0    0    0  0.00000000000E+00  0.00000000000E+00  0.45593999997E+02  0.45594000000E+02  0.51100000000E-03 0. -1.
         11   -1    0    0    0    0 -0.00000000000E+00 -0.00000000000E+00 -0.45593999997E+02  0.45594000000E+02  0.51100000000E-03 0.  1.
    9900012    2    1    2    0    0 -0.19983538331E+02  0.37902083777E+02  0.13899775289E+02  0.46142317499E+02  0.99999976130E+01 0.  0.
        -12    1    1    2    0    0  0.19983538331E+02 -0.37902083777E+02 -0.13899775289E+02  0.45045682501E+02  0.00000000000E+00 0.  1.
         11    1    3    3    0    0 -0.15856538039E+01  0.34002997542E+01  0.17211595797E+01  0.41277992882E+01  0.51100000000E-03 0. -1.
        -11    1    3    3    0    0 -0.13149168130E+02  0.29138099240E+02  0.65451118821E+01  0.32630782088E+02  0.51100000000E-03 0.  1.
        -12    1    3    3    0    0 -0.52487163970E+01  0.53636847828E+01  0.56335038272E+01  0.93837361235E+01  0.00000000000E+00 0.  1.
</event>
<event>
 7    1  0.2001181E-008  0.4614232E+02  0.7816164E-02  0.1320468E+00
        -11   -1    0    0    0    0  0.00000000000E+00  0.00000000000E+00  0.45593999997E+02  0.45594000000E+02  0.51100000000E-03 0.  1.
         11   -1    0    0    0    0 -0.00000000000E+00 -0.00000000000E+00 -0.45593999997E+02  0.45594000000E+02  0.51100000000E-03 0. -1.
    9900012    2    1    2    0    0 -0.31391656191E+02  0.28654301687E+02  0.14920066372E+02  0.46142318030E+02  0.10000002454E+02 0.  0.
        -12    1    1    2    0    0  0.31391656191E+02 -0.28654301687E+02 -0.14920066372E+02  0.45045681970E+02  0.00000000000E+00 0.  1.
         11    1    3    3    0    0 -0.14680276328E+02  0.86666139157E+01  0.76494663177E+01  0.18685155740E+02  0.51100000000E-03 0. -1.
        -11    1    3    3    0    0  0.88926080100E-01  0.14653076020E+01  0.48960679322E+00  0.15474977509E+01  0.51100000000E-03 0.  1.
        -12    1    3    3    0    0 -0.16800305943E+02  0.18522380170E+02  0.67809932610E+01  0.25909664539E+02  0.00000000000E+00 0.  1.
</event>
<event>
 7    1  0.2001181E-008  0.4614232E+02  0.7816164E-02  0.1320468E+00
        -11   -1    0    0    0    0  0.00000000000E+00  0.00000000000E+00  0.45593999997E+02  0.45594000000E+02  0.51100000000E-03 0. -1.
         11   -1    0    0    0    0 -0.00000000000E+00 -0.00000000000E+00 -0.45593999997E+02  0.45594000000E+02  0.51100000000E-03 0.  1.
    9900012    2    1    2    0    0 -0.32695556908E+02  0.25412613582E+02  0.17728878591E+02  0.46142317558E+02  0.99999981458E+01 0.  0.
        -12    1    1    2    0    0  0.32695556908E+02 -0.25412613582E+02 -0.17728878591E+02  0.45045682442E+02  0.00000000000E+00 0.  1.
         11    1    3    3    0    0 -0.76219780670E+01  0.49709260372E+01  0.43649395455E+00  0.91101691836E+01  0.51100000000E-03 0. -1.
        -11    1    3    3    0    0 -0.16807435053E+01  0.30463125572E-01  0.61152426232E+00  0.17887953816E+01  0.51100000000E-03 0.  1.
         12    1    3    3    0    0 -0.23392835336E+02  0.20411224419E+02  0.16680860374E+02  0.35243352993E+02  0.00000000000E+00 0. -1.
</event>
<event>
 7    1  0.2001181E-008  0.4614232E+02  0.7816164E-02  0.1320468E+00
        -11   -1    0    0    0    0  0.00000000000E+00  0.00000000000E+00  0.45593999997E+02  0.45594000000E+02  0.51100000000E-03 0.  1.
         11   -1    0    0    0    0 -0.00000000000E+00 -0.00000000000E+00 -0.45593999997E+02  0.45594000000E+02  0.51100000000E-03 0. -1.
    9900012    2    1    2    0    0 -0.17409953243E+02 -0.11443066721E+02 -0.39938242053E+02  0.46142318452E+02  0.10000006296E+02 0.  0.
        -12    1    1    2    0    0  0.17409953243E+02  0.11443066721E+02  0.39938242053E+02  0.45045681548E+02  0.00000000000E+00 0.  1.
         11    1    3    3    0    0 -0.13708552703E+01  0.20731858763E+00 -0.11582307914E+01  0.18065779796E+01  0.51100000000E-03 0. -1.
        -11    1    3    3    0    0 -0.59284646687E+01  0.34539991211E-01 -0.88475067911E+01  0.10650176666E+02  0.51100000000E-03 0.  1.
         12    1    3    3    0    0 -0.10110633304E+02 -0.11684925299E+02 -0.29932504470E+02  0.33685563806E+02  0.00000000000E+00 0. -1.
</event>
<event>
 7    1  0.2001181E-008  0.4614232E+02  0.7816164E-02  0.1320468E+00
        -11   -1    0    0    0    0  0.00000000000E+00  0.00000000000E+00  0.45593999997E+02  0.45594000000E+02  0.51100000000E-03 0.  1.
         11   -1    0    0    0    0 -0.00000000000E+00 -0.00000000000E+00 -0.45593999997E+02  0.45594000000E+02  0.51100000000E-03 0. -1.
    9900012    2    1    2    0    0 -0.32125508339E+02  0.31039074629E+02 -0.58000875996E+01  0.46142318120E+02  0.10000003272E+02 0.  0.
        -12    1    1    2    0    0  0.32125508339E+02 -0.31039074629E+02  0.58000875996E+01  0.45045681880E+02  0.00000000000E+00 0.  1.
         11    1    3    3    0    0 -0.26859608415E+02  0.23648450052E+02 -0.81763405288E+01  0.36708858587E+02  0.51100000000E-03 0. -1.
        -11    1    3    3    0    0 -0.40812661406E+01  0.49442538530E+01  0.16834799029E+01  0.66284601770E+01  0.51100000000E-03 0.  1.
         12    1    3    3    0    0 -0.11846337841E+01  0.24463707240E+01  0.69277302628E+00  0.28049993561E+01  0.00000000000E+00 0. -1.
</event>
<event>
 7    1  0.2001181E-008  0.4614232E+02  0.7816164E-02  0.1320468E+00
        -11   -1    0    0    0    0  0.00000000000E+00  0.00000000000E+00  0.45593999997E+02  0.45594000000E+02  0.51100000000E-03 0.  1.
         11   -1    0    0    0    0 -0.00000000000E+00 -0.00000000000E+00 -0.45593999997E+02  0.45594000000E+02  0.51100000000E-03 0. -1.
    9900012    2    1    2    0    0 -0.60898054230E+01  0.80264391910E+01 -0.43904487193E+02  0.46142318166E+02  0.10000003695E+02 0.  0.
        -12    1    1    2    0    0  0.60898054230E+01 -0.80264391910E+01  0.43904487193E+02  0.45045681834E+02  0.00000000000E+00 0.  1.
         11    1    3    3    0    0 -0.18575942409E+01  0.21479351064E+01 -0.28998925669E+02  0.29137638405E+02  0.51100000000E-03 0. -1.
        -11    1    3    3    0    0 -0.89490416535E+00 -0.44387055210E+00 -0.24046909799E+01  0.26039227143E+01  0.51100000000E-03 0.  1.
         12    1    3    3    0    0 -0.33373070167E+01  0.63223746366E+01 -0.12500870544E+02  0.14400757047E+02  0.00000000000E+00 0. -1.
</event>
<event>
 7    1  0.2001181E-008  0.4614232E+02  0.7816164E-02  0.1320468E+00
        -11   -1    0    0    0    0  0.00000000000E+00  0.00000000000E+00  0.45593999997E+02  0.45594000000E+02  0.51100000000E-03 0.  1.
         11   -1    0    0    0    0 -0.00000000000E+00 -0.00000000000E+00 -0.45593999997E+02  0.45594000000E+02  0.51100000000E-03 0. -1.
    9900012    2    1    2    0    0 -0.19766525088E+02  0.66463547615E+01 -0.39927733857E+02  0.46142317891E+02  0.10000001188E+02 0.  0.
        -12    1    1    2    0    0  0.19766525088E+02 -0.66463547615E+01  0.39927733857E+02  0.45045682109E+02  0.00000000000E+00 0.  1.
         11    1    3    3    0    0 -0.81467445076E+01 -0.68485009034E+00 -0.13045775054E+02  0.15395801789E+02  0.51100000000E-03 0. -1.
        -11    1    3    3    0    0 -0.87706894972E+01  0.35793793966E+01 -0.12987997671E+02  0.16075603717E+02  0.51100000000E-03 0.  1.
        -12    1    3    3    0    0 -0.28490910826E+01  0.37518254553E+01 -0.13893961133E+02  0.14670912385E+02  0.00000000000E+00 0.  1.
</event>
<event>
 7    1  0.2001181E-008  0.4614232E+02  0.7816164E-02  0.1320468E+00
        -11   -1    0    0    0    0  0.00000000000E+00  0.00000000000E+00  0.45593999997E+02  0.45594000000E+02  0.51100000000E-03 0. -1.
         11   -1    0    0    0    0 -0.00000000000E+00 -0.00000000000E+00 -0.45593999997E+02  0.45594000000E+02  0.51100000000E-03 0.  1.
    9900012    2    1    2    0    0 -0.13065417756E+02 -0.29535761839E+02  0.31401386839E+02  0.46142318032E+02  0.10000002470E+02 0.  0.
        -12    1    1    2    0    0  0.13065417756E+02  0.29535761839E+02 -0.31401386839E+02  0.45045681968E+02  0.00000000000E+00 0.  1.
         11    1    3    3    0    0 -0.55668256283E+01 -0.82519925879E+01  0.10779399722E+02  0.14672436330E+02  0.51100000000E-03 0. -1.
        -11    1    3    3    0    0 -0.32123088492E+01 -0.13575558644E+02  0.16854925929E+02  0.21879288128E+02  0.51100000000E-03 0.  1.
        -12    1    3    3    0    0 -0.42862832782E+01 -0.77082106070E+01  0.37670611888E+01  0.95905935741E+01  0.00000000000E+00 0.  1.
</event>
<event>
 7    1  0.2001181E-008  0.4614232E+02  0.7816164E-02  0.1320468E+00
        -11   -1    0    0    0    0  0.00000000000E+00  0.00000000000E+00  0.45593999997E+02  0.45594000000E+02  0.51100000000E-03 0.  1.
         11   -1    0    0    0    0 -0.00000000000E+00 -0.00000000000E+00 -0.45593999997E+02  0.45594000000E+02  0.51100000000E-03 0. -1.
    9900012    2    1    2    0    0 -0.40084482753E+02  0.48172952156E+01 -0.19978523954E+02  0.46142317520E+02  0.99999977969E+01 0.  0.
        -12    1    1    2    0    0  0.40084482753E+02 -0.48172952156E+01  0.19978523954E+02  0.45045682480E+02  0.00000000000E+00 0.  1.
         11    1    3    3    0    0 -0.15523179748E+02  0.22222453710E+01 -0.11529442261E+02  0.19463697570E+02  0.51100000000E-03 0. -1.
        -11    1    3    3    0    0 -0.57625748700E+01 -0.12796139752E+01 -0.56968368282E+00  0.59303643073E+01  0.51100000000E-03 0.  1.
         12    1    3    3    0    0 -0.18798728134E+02  0.38746638198E+01 -0.78793980106E+01  0.20748255642E+02  0.00000000000E+00 0. -1.
</event>
<event>
 7    1  0.2001181E-008  0.4614232E+02  0.7816164E-02  0.1320468E+00
        -11   -1    0    0    0    0  0.00000000000E+00  0.00000000000E+00  0.45593999997E+02  0.45594000000E+02  0.51100000000E-03 0. -1.
         11   -1    0    0    0    0 -0.00000000000E+00 -0.00000000000E+00 -0.45593999997E+02  0.45594000000E+02  0.51100000000E-03 0.  1.
    9900012    2    1    2    0    0 -0.24271363408E+02 -0.29584913833E+02  0.23764416751E+02  0.46142315282E+02  0.99999773948E+01 0.  0.
        -12    1    1    2    0    0  0.24271363408E+02  0.29584913833E+02 -0.23764416751E+02  0.45045684718E+02  0.00000000000E+00 0.  1.
         11    1    3    3    0    0 -0.98261695194E+01 -0.10929599940E+02  0.62906817326E+01  0.15986945899E+02  0.51100000000E-03 0. -1.
        -11    1    3    3    0    0 -0.12382401409E+02 -0.18034968683E+02  0.17478258956E+02  0.28001312406E+02  0.51100000000E-03 0.  1.
        -12    1    3    3    0    0 -0.20627924795E+01 -0.62034521081E+00 -0.45239382257E-02  0.21540569770E+01  0.00000000000E+00 0.  1.
</event>
<event>
 7    1  0.2001181E-008  0.4614232E+02  0.7816164E-02  0.1320468E+00
        -11   -1    0    0    0    0  0.00000000000E+00  0.00000000000E+00  0.45593999997E+02  0.45594000000E+02  0.51100000000E-03 0. -1.
         11   -1    0    0    0    0 -0.00000000000E+00 -0.00000000000E+00 -0.45593999997E+02  0.45594000000E+02  0.51100000000E-03 0.  1.
    9900012    2    1    2    0    0  0.11921098338E+02 -0.30374479389E+02  0.31054660626E+02  0.46142317295E+02  0.99999957516E+01 0.  0.
        -12    1    1    2    0    0 -0.11921098338E+02  0.30374479389E+02 -0.31054660626E+02  0.45045682705E+02  0.00000000000E+00 0.  1.
         11    1    3    3    0    0  0.97132537155E+01 -0.27031450686E+02  0.22252477576E+02  0.36334823276E+02  0.51100000000E-03 0. -1.
        -11    1    3    3    0    0  0.36661845951E+00 -0.16851414929E+01  0.25126488802E+01  0.30475425514E+01  0.51100000000E-03 0.  1.
        -12    1    3    3    0    0  0.18412261634E+01 -0.16578872105E+01  0.62895341693E+01  0.67599514683E+01  0.00000000000E+00 0.  1.
</event>
<event>
 7    1  0.2001181E-008  0.4614232E+02  0.7816164E-02  0.1320468E+00
        -11   -1    0    0    0    0  0.00000000000E+00  0.00000000000E+00  0.45593999997E+02  0.45594000000E+02  0.51100000000E-03 0.  1.
         11   -1    0    0    0    0 -0.00000000000E+00 -0.00000000000E+00 -0.45593999997E+02  0.45594000000E+02  0.51100000000E-03 0. -1.
    9900012    2    1    2    0    0 -0.28087788864E+02 -0.15180890474E+02 -0.31776252118E+02  0.46142317437E+02  0.99999970447E+01 0.  0.
        -12    1    1    2    0    0  0.28087788864E+02  0.15180890474E+02  0.31776252118E+02  0.45045682563E+02  0.00000000000E+00 0.  1.
         11    1    3    3    0    0 -0.63295024846E+01 -0.28560948783E+01 -0.76236093900E+01  0.10312094843E+02  0.51100000000E-03 0. -1.
        -11    1    3    3    0    0 -0.12296817981E+02 -0.11070207453E+02 -0.12323413383E+02  0.20630747519E+02  0.51100000000E-03 0.  1.
        -12    1    3    3    0    0 -0.94614683987E+01 -0.12545881432E+01 -0.11829229345E+02  0.15199475075E+02  0.00000000000E+00 0.  1.
</event>
<event>
 7    1  0.2001181E-008  0.4614232E+02  0.7816164E-02  0.1320468E+00
        -11   -1    0    0    0    0  0.00000000000E+00  0.00000000000E+00  0.45593999997E+02  0.45594000000E+02  0.51100000000E-03 0. -1.
         11   -1    0    0    0    0 -0.00000000000E+00 -0.00000000000E+00 -0.45593999997E+02  0.45594000000E+02  0.51100000000E-03 0.  1.
    9900012    2    1    2    0    0  0.10042271302E+02  0.42291963501E+02 -0.11817621355E+02  0.46142316920E+02  0.99999923280E+01 0.  0.
        -12    1    1    2    0    0 -0.10042271302E+02 -0.42291963501E+02  0.11817621355E+02  0.45045683080E+02  0.00000000000E+00 0.  1.
         11    1    3    3    0    0  0.30245763909E+01  0.46225198837E+01 -0.38661409714E+01  0.67426106733E+01  0.51100000000E-03 0. -1.
        -11    1    3    3    0    0 -0.25542731226E+00  0.68616165433E+01 -0.53095522137E+00  0.68868670966E+01  0.51100000000E-03 0.  1.
         12    1    3    3    0    0  0.72731222238E+01  0.30807827074E+02 -0.74205251623E+01  0.32512839150E+02  0.00000000000E+00 0. -1.
</event>
<event>
 7    1  0.2001181E-008  0.4614232E+02  0.7816164E-02  0.1320468E+00
        -11   -1    0    0    0    0  0.00000000000E+00  0.00000000000E+00  0.45593999997E+02  0.45594000000E+02  0.51100000000E-03 0.  1.
         11   -1    0    0    0    0 -0.00000000000E+00 -0.00000000000E+00 -0.45593999997E+02  0.45594000000E+02  0.51100000000E-03 0. -1.
    9900012    2    1    2    0    0 -0.16900152857E+02  0.32794610886E+02 -0.25845927208E+02  0.46142316267E+02  0.99999863755E+01 0.  0.
        -12    1    1    2    0    0  0.16900152857E+02 -0.32794610886E+02  0.25845927208E+02  0.45045683733E+02  0.00000000000E+00 0.  1.
         11    1    3    3    0    0 -0.64444486824E+01  0.80247507048E+01 -0.57876201061E+01  0.11807797824E+02  0.51100000000E-03 0. -1.
        -11    1    3    3    0    0  0.45542459425E+00  0.62554194086E+00  0.38964032510E+00  0.86633372604E+00  0.51100000000E-03 0.  1.
         12    1    3    3    0    0 -0.10911128769E+02  0.24144318240E+02 -0.20447947427E+02  0.33468184717E+02  0.00000000000E+00 0. -1.
</event>
<event>
 7    1  0.2001181E-008  0.4614232E+02  0.7816164E-02  0.1320468E+00
        -11   -1    0    0    0    0  0.00000000000E+00  0.00000000000E+00  0.45593999997E+02  0.45594000000E+02  0.51100000000E-03 0. -1.
         11   -1    0    0    0    0 -0.00000000000E+00 -0.00000000000E+00 -0.45593999997E+02  0.45594000000E+02  0.51100000000E-03 0.  1.
    9900012    2    1    2    0    0  0.28664291689E+02 -0.16201768935E+02  0.30740438433E+02  0.46142317746E+02  0.99999998644E+01 0.  0.
        -12    1    1    2    0    0 -0.28664291689E+02  0.16201768935E+02 -0.30740438433E+02  0.45045682254E+02  0.00000000000E+00 0.  1.
         11    1    3    3    0    0  0.15911325168E+02 -0.10556658693E+02  0.14324982634E+02  0.23870870094E+02  0.51100000000E-03 0. -1.
        -11    1    3    3    0    0  0.43448831666E+01  0.20230546694E+00  0.25778123785E+01  0.50560907976E+01  0.51100000000E-03 0.  1.
        -12    1    3    3    0    0  0.84080833546E+01 -0.58474157088E+01  0.13837643421E+02  0.17215356854E+02  0.00000000000E+00 0.  1.
</event>
<event>
 7    1  0.2001181E-008  0.4614232E+02  0.7816164E-02  0.1320468E+00
        -11   -1    0    0    0    0  0.00000000000E+00  0.00000000000E+00  0.45593999997E+02  0.45594000000E+02  0.51100000000E-03 0.  1.
         11   -1    0    0    0    0 -0.00000000000E+00 -0.00000000000E+00 -0.45593999997E+02  0.45594000000E+02  0.51100000000E-03 0. -1.
    9900012    2    1    2    0    0 -0.15533190394E+02 -0.41065296184E+02 -0.10073475718E+02  0.46142317992E+02  0.10000002107E+02 0.  0.
        -12    1    1    2    0    0  0.15533190394E+02  0.41065296184E+02  0.10073475718E+02  0.45045682008E+02  0.00000000000E+00 0.  1.
         11    1    3    3    0    0 -0.10684526364E+02 -0.21167659990E+02 -0.82129697052E+01  0.25093461394E+02  0.51100000000E-03 0. -1.
        -11    1    3    3    0    0 -0.33472022447E+01 -0.76710013188E+01  0.92177540859E+00  0.84200768562E+01  0.51100000000E-03 0.  1.
         12    1    3    3    0    0 -0.15014617850E+01 -0.12226634875E+02 -0.27822814216E+01  0.12628779742E+02  0.00000000000E+00 0. -1.
</event>
<event>
 7    1  0.2001181E-008  0.4614231E+02  0.7816164E-02  0.1320468E+00
        -11   -1    0    0    0    0  0.00000000000E+00  0.00000000000E+00  0.45593999997E+02  0.45594000000E+02  0.51100000000E-03 0.  1.
         11   -1    0    0    0    0 -0.00000000000E+00 -0.00000000000E+00 -0.45593999997E+02  0.45594000000E+02  0.51100000000E-03 0. -1.
    9900012    2    1    2    0    0  0.86443379345E+01  0.43108931041E+02 -0.97984306233E+01  0.46142314785E+02  0.99999728585E+01 0.  0.
        -12    1    1    2    0    0 -0.86443379345E+01 -0.43108931041E+02  0.97984306233E+01  0.45045685215E+02  0.00000000000E+00 0.  1.
         11    1    3    3    0    0  0.28163565695E+01  0.81827378216E+01 -0.52259244676E+01  0.10109369386E+02  0.51100000000E-03 0. -1.
        -11    1    3    3    0    0  0.58186774285E+00  0.10480453210E+02  0.55108996155E+00  0.10511049899E+02  0.51100000000E-03 0.  1.
         12    1    3    3    0    0  0.52461136221E+01  0.24445740009E+02 -0.51235961173E+01  0.25521895500E+02  0.00000000000E+00 0. -1.
</event>
<event>
 7    1  0.2001181E-008  0.4614232E+02  0.7816164E-02  0.1320468E+00
        -11   -1    0    0    0    0  0.00000000000E+00  0.00000000000E+00  0.45593999997E+02  0.45594000000E+02  0.51100000000E-03 0.  1.
         11   -1    0    0    0    0 -0.00000000000E+00 -0.00000000000E+00 -0.45593999997E+02  0.45594000000E+02  0.51100000000E-03 0. -1.
    9900012    2    1    2    0    0  0.38418932396E+02  0.11032859645E+02 -0.20769571256E+02  0.46142318203E+02  0.10000004028E+02 0.  0.
        -12    1    1    2    0    0 -0.38418932396E+02 -0.11032859645E+02  0.20769571256E+02  0.45045681797E+02  0.00000000000E+00 0.  1.
         11    1    3    3    0    0  0.51602136530E+01  0.39781487635E+01 -0.32745622097E+01  0.72922034019E+01  0.51100000000E-03 0. -1.
        -11    1    3    3    0    0  0.24589509300E+02  0.71087571479E+01 -0.15601341207E+02  0.29976328053E+02  0.51100000000E-03 0.  1.
        -12    1    3    3    0    0  0.86692094429E+01 -0.54046266060E-01 -0.18936678395E+01  0.88737867481E+01  0.00000000000E+00 0.  1.
</event>
<event>
 7    1  0.2001181E-008  0.4614232E+02  0.7816164E-02  0.1320468E+00
        -11   -1    0    0    0    0  0.00000000000E+00  0.00000000000E+00  0.45593999997E+02  0.45594000000E+02  0.51100000000E-03 0.  1.
         11   -1    0    0    0    0 -0.00000000000E+00 -0.00000000000E+00 -0.45593999997E+02  0.45594000000E+02  0.51100000000E-03 0. -1.
    9900012    2    1    2    0    0  0.20240743688E+02  0.22720629613E+02 -0.33214427116E+02  0.46142324473E+02  0.10000061204E+02 0.  0.
        -12    1    1    2    0    0 -0.20240743688E+02 -0.22720629613E+02  0.33214427116E+02  0.45045675527E+02  0.00000000000E+00 0.  1.
         11    1    3    3    0    0  0.13666636443E+01  0.40999355671E+01 -0.90327913945E+01  0.10013419087E+02  0.51100000000E-03 0. -1.
        -11    1    3    3    0    0  0.66854676666E+01  0.44859523637E+01 -0.57163482846E+01  0.98740004305E+01  0.51100000000E-03 0.  1.
        -12    1    3    3    0    0  0.12188612377E+02  0.14134741682E+02 -0.18465287437E+02  0.26254904956E+02  0.00000000000E+00 0.  1.
</event>
<event>
 7    1  0.2001181E-008  0.4614232E+02  0.7816164E-02  0.1320468E+00
        -11   -1    0    0    0    0  0.00000000000E+00  0.00000000000E+00  0.45593999997E+02  0.45594000000E+02  0.51100000000E-03 0. -1.
         11   -1    0    0    0    0 -0.00000000000E+00 -0.00000000000E+00 -0.45593999997E+02  0.45594000000E+02  0.51100000000E-03 0.  1.
    9900012    2    1    2    0    0 -0.11466325839E+02 -0.75130663411E+01  0.42909097438E+02  0.46142318331E+02  0.10000005198E+02 0.  0.
        -12    1    1    2    0    0  0.11466325839E+02  0.75130663411E+01 -0.42909097438E+02  0.45045681669E+02  0.00000000000E+00 0.  1.
         11    1    3    3    0    0 -0.63129610287E+01 -0.44818230587E+01  0.17798607547E+02  0.19409550375E+02  0.51100000000E-03 0. -1.
        -11    1    3    3    0    0  0.54069617774E+00  0.14301312828E+01  0.81805175371E+01  0.83221689047E+01  0.51100000000E-03 0.  1.
         12    1    3    3    0    0 -0.56940609880E+01 -0.44613745652E+01  0.16929972354E+02  0.18410599052E+02  0.00000000000E+00 0. -1.
</event>
<event>
 7    1  0.2001181E-008  0.4614232E+02  0.7816164E-02  0.1320468E+00
        -11   -1    0    0    0    0  0.00000000000E+00  0.00000000000E+00  0.45593999997E+02  0.45594000000E+02  0.51100000000E-03 0.  1.
         11   -1    0    0    0    0 -0.00000000000E+00 -0.00000000000E+00 -0.45593999997E+02  0.45594000000E+02  0.51100000000E-03 0. -1.
    9900012    2    1    2    0    0 -0.22465340200E+02  0.24648245490E+02 -0.30280124924E+02  0.46142317838E+02  0.10000000702E+02 0.  0.
        -12    1    1    2    0    0  0.22465340200E+02 -0.24648245490E+02  0.30280124924E+02  0.45045682162E+02  0.00000000000E+00 0.  1.
         11    1    3    3    0    0 -0.46647107204E+01  0.47845449751E+01 -0.83041113631E+01  0.10658783351E+02  0.51100000000E-03 0. -1.
        -11    1    3    3    0    0 -0.10555246920E+01  0.60170797636E+01 -0.54128957621E+01  0.81620354109E+01  0.51100000000E-03 0.  1.
         12    1    3    3    0    0 -0.16745104787E+02  0.13846620751E+02 -0.16563117799E+02  0.27321499076E+02  0.00000000000E+00 0. -1.
</event>
<event>
 7    1  0.2001181E-008  0.4614232E+02  0.7816164E-02  0.1320468E+00
        -11   -1    0    0    0    0  0.00000000000E+00  0.00000000000E+00  0.45593999997E+02  0.45594000000E+02  0.51100000000E-03 0.  1.
         11   -1    0    0    0    0 -0.00000000000E+00 -0.00000000000E+00 -0.45593999997E+02  0.45594000000E+02  0.51100000000E-03 0. -1.
    9900012    2    1    2    0    0  0.26795912509E+02 -0.11165125252E+02 -0.34444630141E+02  0.46142317692E+02  0.99999993677E+01 0.  0.
        -12    1    1    2    0    0 -0.26795912509E+02  0.11165125252E+02  0.34444630141E+02  0.45045682308E+02  0.00000000000E+00 0.  1.
         11    1    3    3    0    0  0.11654887516E+02 -0.15142343394E+01 -0.17060621683E+02  0.20717000776E+02  0.51100000000E-03 0. -1.
        -11    1    3    3    0    0  0.11260102482E+02 -0.46021753079E+01 -0.10822763739E+02  0.16281957520E+02  0.51100000000E-03 0.  1.
        -12    1    3    3    0    0  0.38809225101E+01 -0.50487156050E+01 -0.65612447184E+01  0.91433593960E+01  0.00000000000E+00 0.  1.
</event>
<event>
 7    1  0.2001181E-008  0.4614232E+02  0.7816164E-02  0.1320468E+00
        -11   -1    0    0    0    0  0.00000000000E+00  0.00000000000E+00  0.45593999997E+02  0.45594000000E+02  0.51100000000E-03 0.  1.
         11   -1    0    0    0    0 -0.00000000000E+00 -0.00000000000E+00 -0.45593999997E+02  0.45594000000E+02  0.51100000000E-03 0. -1.
    9900012    2    1    2    0    0  0.15451005768E+02 -0.33968201673E+01 -0.42176315227E+02  0.46142317270E+02  0.99999955194E+01 0.  0.
        -12    1    1    2    0    0 -0.15451005768E+02  0.33968201673E+01  0.42176315227E+02  0.45045682730E+02  0.00000000000E+00 0.  1.
         11    1    3    3    0    0 -0.70200621254E-01 -0.23391895946E+01 -0.88426561769E+01  0.91470926862E+01  0.51100000000E-03 0. -1.
        -11    1    3    3    0    0  0.52756861303E+01 -0.96626200480E-01 -0.15881433835E+02  0.16735057266E+02  0.51100000000E-03 0.  1.
        -12    1    3    3    0    0  0.10245520259E+02 -0.96100437223E+00 -0.17452225215E+02  0.20260167318E+02  0.00000000000E+00 0.  1.
</event>
<event>
 7    1  0.2001181E-008  0.4614232E+02  0.7816164E-02  0.1320468E+00
        -11   -1    0    0    0    0  0.00000000000E+00  0.00000000000E+00  0.45593999997E+02  0.45594000000E+02  0.51100000000E-03 0.  1.
         11   -1    0    0    0    0 -0.00000000000E+00 -0.00000000000E+00 -0.45593999997E+02  0.45594000000E+02  0.51100000000E-03 0. -1.
    9900012    2    1    2    0    0  0.17320308405E+02  0.25746151849E+01 -0.41502913760E+02  0.46142316775E+02  0.99999910108E+01 0.  0.
        -12    1    1    2    0    0 -0.17320308405E+02 -0.25746151849E+01  0.41502913760E+02  0.45045683225E+02  0.00000000000E+00 0.  1.
         11    1    3    3    0    0  0.38183587409E+01 -0.22841600451E+01 -0.14844112441E+02  0.15496610114E+02  0.51100000000E-03 0. -1.
        -11    1    3    3    0    0  0.80099409777E+01  0.17131412915E+01 -0.19131175688E+02  0.20810956033E+02  0.51100000000E-03 0.  1.
        -12    1    3    3    0    0  0.54920086859E+01  0.31456339385E+01 -0.75276256312E+01  0.98347506285E+01  0.00000000000E+00 0.  1.
</event>
<event>
 7    1  0.2001181E-008  0.4614232E+02  0.7816164E-02  0.1320468E+00
        -11   -1    0    0    0    0  0.00000000000E+00  0.00000000000E+00  0.45593999997E+02  0.45594000000E+02  0.51100000000E-03 0. -1.
         11   -1    0    0    0    0 -0.00000000000E+00 -0.00000000000E+00 -0.45593999997E+02  0.45594000000E+02  0.51100000000E-03 0.  1.
    9900012    2    1    2    0    0 -0.19295755733E+02  0.29665943639E+02 -0.27869673199E+02  0.46142322233E+02  0.10000040775E+02 0.  0.
        -12    1    1    2    0    0  0.19295755733E+02 -0.29665943639E+02  0.27869673199E+02  0.45045677767E+02  0.00000000000E+00 0.  1.
         11    1    3    3    0    0 -0.67222720779E+01  0.10557893256E+02 -0.57595357370E+01  0.13777891858E+02  0.51100000000E-03 0. -1.
        -11    1    3    3    0    0  0.36907031387E+00  0.26625977937E+01 -0.29437947506E+01  0.39864229207E+01  0.51100000000E-03 0.  1.
         12    1    3    3    0    0 -0.12942553969E+02  0.16445452590E+02 -0.19166342711E+02  0.28378007454E+02  0.00000000000E+00 0. -1.
</event>
<event>
 7    1  0.2001181E-008  0.4614232E+02  0.7816164E-02  0.1320468E+00
        -11   -1    0    0    0    0  0.00000000000E+00  0.00000000000E+00  0.45593999997E+02  0.45594000000E+02  0.51100000000E-03 0.  1.
         11   -1    0    0    0    0 -0.00000000000E+00 -0.00000000000E+00 -0.45593999997E+02  0.45594000000E+02  0.51100000000E-03 0. -1.
    9900012    2    1    2    0    0  0.28603110296E+02  0.33681190569E+02 -0.87494564291E+01  0.46142317582E+02  0.99999983653E+01 0.  0.
        -12    1    1    2    0    0 -0.28603110296E+02 -0.33681190569E+02  0.87494564291E+01  0.45045682418E+02  0.00000000000E+00 0.  1.
         11    1    3    3    0    0  0.15172603883E+02  0.23360261052E+02 -0.63435656352E+01  0.28568348399E+02  0.51100000000E-03 0. -1.
        -11    1    3    3    0    0  0.61255783816E+01  0.71741638124E+01 -0.87402924983E+00  0.94739254961E+01  0.51100000000E-03 0.  1.
        -12    1    3    3    0    0  0.73049280315E+01  0.31467657044E+01 -0.15318615441E+01  0.81000436872E+01  0.00000000000E+00 0.  1.
</event>
<event>
 7    1  0.2001181E-008  0.4614231E+02  0.7816164E-02  0.1320468E+00
        -11   -1    0    0    0    0  0.00000000000E+00  0.00000000000E+00  0.45593999997E+02  0.45594000000E+02  0.51100000000E-03 0.  1.
         11   -1    0    0    0    0 -0.00000000000E+00 -0.00000000000E+00 -0.45593999997E+02  0.45594000000E+02  0.51100000000E-03 0. -1.
    9900012    2    1    2    0    0  0.63929997740E+01  0.34740557454E+01 -0.44454184843E+02  0.46142311422E+02  0.99999421970E+01 0.  0.
        -12    1    1    2    0    0 -0.63929997740E+01 -0.34740557454E+01  0.44454184843E+02  0.45045688578E+02  0.00000000000E+00 0.  1.
         11    1    3    3    0    0  0.17177911976E+01  0.63209439862E+00 -0.10441245592E+02  0.10600469786E+02  0.51100000000E-03 0. -1.
        -11    1    3    3    0    0  0.48517268612E+01 -0.10505406759E+01 -0.94769953595E+01  0.10698426546E+02  0.51100000000E-03 0.  1.
        -12    1    3    3    0    0 -0.17651828477E+00  0.38925020226E+01 -0.24535943891E+02  0.24843415090E+02  0.00000000000E+00 0.  1.
</event>
<event>
 7    1  0.2001181E-008  0.4614232E+02  0.7816164E-02  0.1320468E+00
        -11   -1    0    0    0    0  0.00000000000E+00  0.00000000000E+00  0.45593999997E+02  0.45594000000E+02  0.51100000000E-03 0.  1.
         11   -1    0    0    0    0 -0.00000000000E+00 -0.00000000000E+00 -0.45593999997E+02  0.45594000000E+02  0.51100000000E-03 0. -1.
    9900012    2    1    2    0    0  0.29367864991E+02 -0.25323320883E+02 -0.22920981603E+02  0.46142317939E+02  0.10000001621E+02 0.  0.
        -12    1    1    2    0    0 -0.29367864991E+02  0.25323320883E+02  0.22920981603E+02  0.45045682061E+02  0.00000000000E+00 0.  1.
         11    1    3    3    0    0 -0.39772573033E+00 -0.13222268861E+01 -0.53983601570E+00  0.14825292172E+01  0.51100000000E-03 0.  1.
        -11    1    3    3    0    0  0.26270447359E+02 -0.20113812509E+02 -0.17160296759E+02  0.37271673470E+02  0.51100000000E-03 0. -1.
        -12    1    3    3    0    0  0.34951433628E+01 -0.38872814877E+01 -0.52208488281E+01  0.73881152520E+01  0.00000000000E+00 0.  1.
</event>
<event>
 7    1  0.2001181E-008  0.4614232E+02  0.7816164E-02  0.1320468E+00
        -11   -1    0    0    0    0  0.00000000000E+00  0.00000000000E+00  0.45593999997E+02  0.45594000000E+02  0.51100000000E-03 0. -1.
         11   -1    0    0    0    0 -0.00000000000E+00 -0.00000000000E+00 -0.45593999997E+02  0.45594000000E+02  0.51100000000E-03 0.  1.
    9900012    2    1    2    0    0  0.10291754570E+01  0.15275203306E+01  0.45008010048E+02  0.46142317754E+02  0.99999999374E+01 0.  0.
        -12    1    1    2    0    0 -0.10291754570E+01 -0.15275203306E+01 -0.45008010048E+02  0.45045682246E+02  0.00000000000E+00 0.  1.
         11    1    3    3    0    0 -0.22239705376E+01 -0.24158897105E+01  0.98824499659E+01  0.10413711425E+02  0.51100000000E-03 0. -1.
        -11    1    3    3    0    0  0.18697919912E+01 -0.16571121235E+00  0.61388501871E+01  0.64194286488E+01  0.51100000000E-03 0.  1.
         12    1    3    3    0    0  0.13833540034E+01  0.41091212534E+01  0.28986709895E+02  0.29309177681E+02  0.00000000000E+00 0. -1.
</event>
<event>
 7    1  0.2001181E-008  0.4614233E+02  0.7816164E-02  0.1320468E+00
        -11   -1    0    0    0    0  0.00000000000E+00  0.00000000000E+00  0.45593999997E+02  0.45594000000E+02  0.51100000000E-03 0. -1.
         11   -1    0    0    0    0 -0.00000000000E+00 -0.00000000000E+00 -0.45593999997E+02  0.45594000000E+02  0.51100000000E-03 0.  1.
    9900012    2    1    2    0    0 -0.42320968574E+02 -0.12068647302E+02  0.96122903308E+01  0.46142325911E+02  0.10000074319E+02 0.  0.
        -12    1    1    2    0    0  0.42320968574E+02  0.12068647302E+02 -0.96122903308E+01  0.45045674089E+02  0.00000000000E+00 0.  1.
         11    1    3    3    0    0 -0.37262866211E+01  0.78242492369E+00  0.19126863905E+01  0.42609588397E+01  0.51100000000E-03 0. -1.
        -11    1    3    3    0    0 -0.30316231665E+02 -0.76719282783E+01  0.44337017221E+01  0.31584649707E+02  0.51100000000E-03 0.  1.
        -12    1    3    3    0    0 -0.82784502871E+01 -0.51791439472E+01  0.32659022181E+01  0.10296717364E+02  0.00000000000E+00 0.  1.
</event>
<event>
 7    1  0.2001181E-008  0.4614231E+02  0.7816164E-02  0.1320468E+00
        -11   -1    0    0    0    0  0.00000000000E+00  0.00000000000E+00  0.45593999997E+02  0.45594000000E+02  0.51100000000E-03 0.  1.
         11   -1    0    0    0    0 -0.00000000000E+00 -0.00000000000E+00 -0.45593999997E+02  0.45594000000E+02  0.51100000000E-03 0. -1.
    9900012    2    1    2    0    0 -0.31487789765E+02 -0.26028314038E+02 -0.18977876522E+02  0.46142313933E+02  0.99999650922E+01 0.  0.
        -12    1    1    2    0    0  0.31487789765E+02  0.26028314038E+02  0.18977876522E+02  0.45045686067E+02  0.00000000000E+00 0.  1.
         11    1    3    3    0    0 -0.11450183660E+02 -0.11700556776E+02 -0.62773837907E+01  0.17533262168E+02  0.51100000000E-03 0. -1.
        -11    1    3    3    0    0 -0.30131506927E+01 -0.57482090432E+01 -0.22537173113E+01  0.68702420832E+01  0.51100000000E-03 0.  1.
        -12    1    3    3    0    0 -0.17024455412E+02 -0.85795482191E+01 -0.10446775420E+02  0.21738809682E+02  0.00000000000E+00 0.  1.
</event>
<event>
 7    1  0.2001181E-008  0.4614232E+02  0.7816164E-02  0.1320468E+00
        -11   -1    0    0    0    0  0.00000000000E+00  0.00000000000E+00  0.45593999997E+02  0.45594000000E+02  0.51100000000E-03 0.  1.
         11   -1    0    0    0    0 -0.00000000000E+00 -0.00000000000E+00 -0.45593999997E+02  0.45594000000E+02  0.51100000000E-03 0. -1.
    9900012    2    1    2    0    0  0.17552289620E+02 -0.73159890756E+01 -0.40835118853E+02  0.46142317645E+02  0.99999989392E+01 0.  0.
        -12    1    1    2    0    0 -0.17552289620E+02  0.73159890756E+01  0.40835118853E+02  0.45045682355E+02  0.00000000000E+00 0.  1.
         11    1    3    3    0    0  0.13396108313E+02 -0.73700160367E+01 -0.28945693837E+02  0.32735699874E+02  0.51100000000E-03 0. -1.
        -11    1    3    3    0    0 -0.81803595752E+00  0.71344960805E+00 -0.13384549393E+01  0.17232687129E+01  0.51100000000E-03 0.  1.
        -12    1    3    3    0    0  0.49742172653E+01 -0.65942264690E+00 -0.10550970077E+02  0.11683349058E+02  0.00000000000E+00 0.  1.
</event>
<event>
 7    1  0.2001181E-008  0.4614232E+02  0.7816164E-02  0.1320468E+00
        -11   -1    0    0    0    0  0.00000000000E+00  0.00000000000E+00  0.45593999997E+02  0.45594000000E+02  0.51100000000E-03 0.  1.
         11   -1    0    0    0    0 -0.00000000000E+00 -0.00000000000E+00 -0.45593999997E+02  0.45594000000E+02  0.51100000000E-03 0. -1.
    9900012    2    1    2    0    0  0.17438010967E+02  0.18510896898E+02 -0.37180316772E+02  0.46142317791E+02  0.10000000268E+02 0.  0.
        -12    1    1    2    0    0 -0.17438010967E+02 -0.18510896898E+02  0.37180316772E+02  0.45045682209E+02  0.00000000000E+00 0.  1.
         11    1    3    3    0    0 -0.91342964277E-01 -0.84078515543E+00 -0.84768373724E+00  0.11974269056E+01  0.51100000000E-03 0. -1.
        -11    1    3    3    0    0  0.14428542896E+01  0.38470586231E+01 -0.52923877307E+01  0.67000788580E+01  0.51100000000E-03 0.  1.
         12    1    3    3    0    0  0.16086499642E+02  0.15504623431E+02 -0.31040245304E+02  0.38244812027E+02  0.00000000000E+00 0. -1.
</event>
<event>
 7    1  0.2001181E-008  0.4614232E+02  0.7816164E-02  0.1320468E+00
        -11   -1    0    0    0    0  0.00000000000E+00  0.00000000000E+00  0.45593999997E+02  0.45594000000E+02  0.51100000000E-03 0. -1.
         11   -1    0    0    0    0 -0.00000000000E+00 -0.00000000000E+00 -0.45593999997E+02  0.45594000000E+02  0.51100000000E-03 0.  1.
    9900012    2    1    2    0    0  0.24894312763E+02 -0.37517458753E+02 -0.13516465805E+01  0.46142317991E+02  0.10000002092E+02 0.  0.
        -12    1    1    2    0    0 -0.24894312763E+02  0.37517458753E+02  0.13516465805E+01  0.45045682009E+02  0.00000000000E+00 0.  1.
         11    1    3    3    0    0  0.14523772444E+02 -0.20149728574E+02 -0.15184654516E+01  0.24884880253E+02  0.51100000000E-03 0. -1.
        -11    1    3    3    0    0  0.78865790327E+00 -0.22437903114E+00  0.13531727215E+01  0.15822148758E+01  0.51100000000E-03 0.  1.
         12    1    3    3    0    0  0.95818824154E+01 -0.17143351148E+02 -0.11863538504E+01  0.19675222862E+02  0.00000000000E+00 0. -1.
</event>
<event>
 7    1  0.2001181E-008  0.4614232E+02  0.7816164E-02  0.1320468E+00
        -11   -1    0    0    0    0  0.00000000000E+00  0.00000000000E+00  0.45593999997E+02  0.45594000000E+02  0.51100000000E-03 0.  1.
         11   -1    0    0    0    0 -0.00000000000E+00 -0.00000000000E+00 -0.45593999997E+02  0.45594000000E+02  0.51100000000E-03 0. -1.
    9900012    2    1    2    0    0 -0.23314616292E+02  0.33807509339E+02 -0.18509313133E+02  0.46142315488E+02  0.99999792684E+01 0.  0.
        -12    1    1    2    0    0  0.23314616292E+02 -0.33807509339E+02  0.18509313133E+02  0.45045684512E+02  0.00000000000E+00 0.  1.
         11    1    3    3    0    0 -0.64107505230E+01  0.11283756183E+02 -0.76994594011E+01  0.15089816142E+02  0.51100000000E-03 0. -1.
        -11    1    3    3    0    0 -0.95014557942E+01  0.17807773591E+02 -0.60677241103E+01  0.21076331242E+02  0.51100000000E-03 0.  1.
        -12    1    3    3    0    0 -0.74024099750E+01  0.47159795652E+01 -0.47421296214E+01  0.99761681042E+01  0.00000000000E+00 0.  1.
</event>
<event>
 7    1  0.2001181E-008  0.4614232E+02  0.7816164E-02  0.1320468E+00
        -11   -1    0    0    0    0  0.00000000000E+00  0.00000000000E+00  0.45593999997E+02  0.45594000000E+02  0.51100000000E-03 0.  1.
         11   -1    0    0    0    0 -0.00000000000E+00 -0.00000000000E+00 -0.45593999997E+02  0.45594000000E+02  0.51100000000E-03 0. -1.
    9900012    2    1    2    0    0  0.31725491588E+02  0.29205125392E+02 -0.13025641276E+02  0.46142317672E+02  0.99999991912E+01 0.  0.
        -12    1    1    2    0    0 -0.31725491588E+02 -0.29205125392E+02  0.13025641276E+02  0.45045682328E+02  0.00000000000E+00 0.  1.
         11    1    3    3    0    0  0.10538492431E+02  0.14653466973E+02 -0.54203274938E+01  0.18845791770E+02  0.51100000000E-03 0. -1.
        -11    1    3    3    0    0  0.11911555632E+02  0.10684395413E+02 -0.61494338783E+01  0.17142257734E+02  0.51100000000E-03 0.  1.
        -12    1    3    3    0    0  0.92754435250E+01  0.38672630066E+01 -0.14558799041E+01  0.10154268169E+02  0.00000000000E+00 0.  1.
</event>
<event>
 7    1  0.2001181E-008  0.4614232E+02  0.7816164E-02  0.1320468E+00
        -11   -1    0    0    0    0  0.00000000000E+00  0.00000000000E+00  0.45593999997E+02  0.45594000000E+02  0.51100000000E-03 0. -1.
         11   -1    0    0    0    0 -0.00000000000E+00 -0.00000000000E+00 -0.45593999997E+02  0.45594000000E+02  0.51100000000E-03 0.  1.
    9900012    2    1    2    0    0 -0.83912508142E+01 -0.10847187445E+02  0.42907329427E+02  0.46142317807E+02  0.10000000421E+02 0.  0.
        -12    1    1    2    0    0  0.83912508142E+01  0.10847187445E+02 -0.42907329427E+02  0.45045682193E+02  0.00000000000E+00 0.  1.
         11    1    3    3    0    0 -0.41007349114E+01 -0.36146877788E+01  0.15147946290E+02  0.16104107290E+02  0.51100000000E-03 0. -1.
        -11    1    3    3    0    0 -0.25392514995E+01 -0.32286659268E+01  0.23766005528E+02  0.24118356098E+02  0.51100000000E-03 0.  1.
        -12    1    3    3    0    0 -0.17512644033E+01 -0.40038337390E+01  0.39933776086E+01  0.59198544192E+01  0.00000000000E+00 0.  1.
</event>
<event>
 7    1  0.2001181E-008  0.4614232E+02  0.7816164E-02  0.1320468E+00
        -11   -1    0    0    0    0  0.00000000000E+00  0.00000000000E+00  0.45593999997E+02  0.45594000000E+02  0.51100000000E-03 0. -1.
         11   -1    0    0    0    0 -0.00000000000E+00 -0.00000000000E+00 -0.45593999997E+02  0.45594000000E+02  0.51100000000E-03 0.  1.
    9900012    2    1    2    0    0 -0.11772546571E+02 -0.40186466054E+02  0.16600258371E+02  0.46142317802E+02  0.10000000375E+02 0.  0.
        -12    1    1    2    0    0  0.11772546571E+02  0.40186466054E+02 -0.16600258371E+02  0.45045682198E+02  0.00000000000E+00 0.  1.
         11    1    3    3    0    0 -0.27081267895E+01 -0.79295242092E+01  0.19725183428E+01  0.86082596247E+01  0.51100000000E-03 0. -1.
        -11    1    3    3    0    0 -0.27057840959E+01 -0.60927688001E+01  0.67323924459E+01  0.94746085688E+01  0.51100000000E-03 0.  1.
        -12    1    3    3    0    0 -0.63586356857E+01 -0.26164173045E+02  0.78953475822E+01  0.28059449609E+02  0.00000000000E+00 0.  1.
</event>
<event>
 7    1  0.2001181E-008  0.4614232E+02  0.7816164E-02  0.1320468E+00
        -11   -1    0    0    0    0  0.00000000000E+00  0.00000000000E+00  0.45593999997E+02  0.45594000000E+02  0.51100000000E-03 0.  1.
         11   -1    0    0    0    0 -0.00000000000E+00 -0.00000000000E+00 -0.45593999997E+02  0.45594000000E+02  0.51100000000E-03 0. -1.
    9900012    2    1    2    0    0  0.17661225897E+02 -0.32090218537E+02 -0.26218552155E+02  0.46142317598E+02  0.99999985153E+01 0.  0.
        -12    1    1    2    0    0 -0.17661225897E+02  0.32090218537E+02  0.26218552155E+02  0.45045682402E+02  0.00000000000E+00 0.  1.
         11    1    3    3    0    0  0.28486586474E+01 -0.64213054907E+01 -0.52481000136E+01  0.87687270631E+01  0.51100000000E-03 0. -1.
        -11    1    3    3    0    0  0.52573636722E+01 -0.16852540577E+02 -0.14532587266E+02  0.22865784254E+02  0.51100000000E-03 0.  1.
         12    1    3    3    0    0  0.95552035769E+01 -0.88163724698E+01 -0.64378648756E+01  0.14507806281E+02  0.00000000000E+00 0. -1.
</event>
<event>
 7    1  0.2001181E-008  0.4614232E+02  0.7816164E-02  0.1320468E+00
        -11   -1    0    0    0    0  0.00000000000E+00  0.00000000000E+00  0.45593999997E+02  0.45594000000E+02  0.51100000000E-03 0.  1.
         11   -1    0    0    0    0 -0.00000000000E+00 -0.00000000000E+00 -0.45593999997E+02  0.45594000000E+02  0.51100000000E-03 0. -1.
    9900012    2    1    2    0    0 -0.28861506617E+02 -0.11940682230E+02 -0.32458386612E+02  0.46142319654E+02  0.10000017265E+02 0.  0.
        -12    1    1    2    0    0  0.28861506617E+02  0.11940682230E+02  0.32458386612E+02  0.45045680346E+02  0.00000000000E+00 0.  1.
         11    1    3    3    0    0 -0.53705196835E+01 -0.41317993187E+00 -0.58224105865E+01  0.79318134513E+01  0.51100000000E-03 0. -1.
        -11    1    3    3    0    0 -0.15495897670E+02 -0.75169961970E+01 -0.11768086704E+02  0.20859432911E+02  0.51100000000E-03 0.  1.
         12    1    3    3    0    0 -0.79950892635E+01 -0.40105061011E+01 -0.14867889321E+02  0.17351073292E+02  0.00000000000E+00 0. -1.
</event>
<event>
 7    1  0.2001181E-008  0.4614232E+02  0.7816164E-02  0.1320468E+00
        -11   -1    0    0    0    0  0.00000000000E+00  0.00000000000E+00  0.45593999997E+02  0.45594000000E+02  0.51100000000E-03 0.  1.
         11   -1    0    0    0    0 -0.00000000000E+00 -0.00000000000E+00 -0.45593999997E+02  0.45594000000E+02  0.51100000000E-03 0. -1.
    9900012    2    1    2    0    0  0.80494990327E+01 -0.22451363390E+02 -0.38213286055E+02  0.46142318921E+02  0.10000010577E+02 0.  0.
        -12    1    1    2    0    0 -0.80494990327E+01  0.22451363390E+02  0.38213286055E+02  0.45045681079E+02  0.00000000000E+00 0.  1.
         11    1    3    3    0    0  0.25078994497E+01 -0.74302552144E+01 -0.16528810864E+02  0.18294803662E+02  0.51100000000E-03 0. -1.
        -11    1    3    3    0    0  0.25336176075E+01 -0.12942865202E+02 -0.19643902554E+02  0.23660513216E+02  0.51100000000E-03 0.  1.
        -12    1    3    3    0    0  0.30079819755E+01 -0.20782429736E+01 -0.20405726370E+01  0.41870020431E+01  0.00000000000E+00 0.  1.
</event>
<event>
 7    1  0.2001181E-008  0.4614232E+02  0.7816164E-02  0.1320468E+00
        -11   -1    0    0    0    0  0.00000000000E+00  0.00000000000E+00  0.45593999997E+02  0.45594000000E+02  0.51100000000E-03 0.  1.
         11   -1    0    0    0    0 -0.00000000000E+00 -0.00000000000E+00 -0.45593999997E+02  0.45594000000E+02  0.51100000000E-03 0. -1.
    9900012    2    1    2    0    0 -0.98435012297E+01  0.35958301627E+02 -0.25282790789E+02  0.46142317827E+02  0.10000000603E+02 0.  0.
        -12    1    1    2    0    0  0.98435012297E+01 -0.35958301627E+02  0.25282790789E+02  0.45045682173E+02  0.00000000000E+00 0.  1.
         11    1    3    3    0    0 -0.58189508975E+01  0.15176903936E+02 -0.10997629792E+02  0.19625148762E+02  0.51100000000E-03 0. -1.
        -11    1    3    3    0    0 -0.39100397691E+01  0.20977081356E+02 -0.12525514459E+02  0.24742976093E+02  0.51100000000E-03 0.  1.
        -12    1    3    3    0    0 -0.11451056321E+00 -0.19568366513E+00 -0.17596465372E+01  0.17741929720E+01  0.00000000000E+00 0.  1.
</event>
<event>
 7    1  0.2001181E-008  0.4614232E+02  0.7816164E-02  0.1320468E+00
        -11   -1    0    0    0    0  0.00000000000E+00  0.00000000000E+00  0.45593999997E+02  0.45594000000E+02  0.51100000000E-03 0. -1.
         11   -1    0    0    0    0 -0.00000000000E+00 -0.00000000000E+00 -0.45593999997E+02  0.45594000000E+02  0.51100000000E-03 0.  1.
    9900012    2    1    2    0    0  0.31234612603E+02 -0.23862177324E+02  0.22002475896E+02  0.46142317891E+02  0.10000001184E+02 0.  0.
        -12    1    1    2    0    0 -0.31234612603E+02  0.23862177324E+02 -0.22002475896E+02  0.45045682109E+02  0.00000000000E+00 0.  1.
         11    1    3    3    0    0  0.24183796453E+01 -0.29993453351E+01 -0.54655141414E-01  0.38532609558E+01  0.51100000000E-03 0. -1.
        -11    1    3    3    0    0  0.14183545165E+02 -0.97319146696E+01  0.14159326134E+02  0.22279354420E+02  0.51100000000E-03 0.  1.
         12    1    3    3    0    0  0.14632687794E+02 -0.11130917319E+02  0.78978049041E+01  0.20009702515E+02  0.00000000000E+00 0. -1.
</event>
<event>
 7    1  0.2001181E-008  0.4614232E+02  0.7816164E-02  0.1320468E+00
        -11   -1    0    0    0    0  0.00000000000E+00  0.00000000000E+00  0.45593999997E+02  0.45594000000E+02  0.51100000000E-03 0.  1.
         11   -1    0    0    0    0 -0.00000000000E+00 -0.00000000000E+00 -0.45593999997E+02  0.45594000000E+02  0.51100000000E-03 0. -1.
    9900012    2    1    2    0    0 -0.11167354522E+02  0.22685890595E+02 -0.37279404631E+02  0.46142318201E+02  0.10000004010E+02 0.  0.
        -12    1    1    2    0    0  0.11167354522E+02 -0.22685890595E+02  0.37279404631E+02  0.45045681799E+02  0.00000000000E+00 0.  1.
         11    1    3    3    0    0 -0.57538475372E+01  0.16211464845E+02 -0.26035952359E+02  0.31205595162E+02  0.51100000000E-03 0. -1.
        -11    1    3    3    0    0 -0.71452655644E+00  0.37565919463E+00  0.45910675376E+00  0.92868040942E+00  0.51100000000E-03 0.  1.
        -12    1    3    3    0    0 -0.46989804286E+01  0.60987665554E+01 -0.11702559025E+02  0.14008042629E+02  0.00000000000E+00 0.  1.
</event>
<event>
 7    1  0.2001181E-008  0.4614232E+02  0.7816164E-02  0.1320468E+00
        -11   -1    0    0    0    0  0.00000000000E+00  0.00000000000E+00  0.45593999997E+02  0.45594000000E+02  0.51100000000E-03 0.  1.
         11   -1    0    0    0    0 -0.00000000000E+00 -0.00000000000E+00 -0.45593999997E+02  0.45594000000E+02  0.51100000000E-03 0. -1.
    9900012    2    1    2    0    0 -0.14253027523E+02  0.38530558857E+02 -0.18475949393E+02  0.46142318016E+02  0.10000002327E+02 0.  0.
        -12    1    1    2    0    0  0.14253027523E+02 -0.38530558857E+02  0.18475949393E+02  0.45045681984E+02  0.00000000000E+00 0.  1.
         11    1    3    3    0    0 -0.66328880045E+01  0.17155381429E+02 -0.86743521270E+01  0.20335847667E+02  0.51100000000E-03 0. -1.
        -11    1    3    3    0    0 -0.27045482863E+01  0.17165354929E+02 -0.76476723760E+01  0.18985544087E+02  0.51100000000E-03 0.  1.
        -12    1    3    3    0    0 -0.49155912319E+01  0.42098224987E+01 -0.21539248904E+01  0.68209262614E+01  0.00000000000E+00 0.  1.
</event>
<event>
 7    1  0.2001181E-008  0.4614232E+02  0.7816164E-02  0.1320468E+00
        -11   -1    0    0    0    0  0.00000000000E+00  0.00000000000E+00  0.45593999997E+02  0.45594000000E+02  0.51100000000E-03 0.  1.
         11   -1    0    0    0    0 -0.00000000000E+00 -0.00000000000E+00 -0.45593999997E+02  0.45594000000E+02  0.51100000000E-03 0. -1.
    9900012    2    1    2    0    0 -0.39590678661E+02 -0.21482938254E+02 -0.41827471567E+00  0.46142318447E+02  0.10000006252E+02 0.  0.
        -12    1    1    2    0    0  0.39590678661E+02  0.21482938254E+02  0.41827471567E+00  0.45045681553E+02  0.00000000000E+00 0.  1.
         11    1    3    3    0    0 -0.10255050642E+02 -0.54456971425E+01 -0.28874616560E+01  0.11964911872E+02  0.51100000000E-03 0. -1.
        -11    1    3    3    0    0 -0.15800084459E+02 -0.69289746747E+01 -0.17062744791E+01  0.17336802814E+02  0.51100000000E-03 0.  1.
        -12    1    3    3    0    0 -0.13535543560E+02 -0.91082664367E+01  0.41754614194E+01  0.16840603761E+02  0.00000000000E+00 0.  1.
</event>
<event>
 7    1  0.2001181E-008  0.4614232E+02  0.7816164E-02  0.1320468E+00
        -11   -1    0    0    0    0  0.00000000000E+00  0.00000000000E+00  0.45593999997E+02  0.45594000000E+02  0.51100000000E-03 0. -1.
         11   -1    0    0    0    0 -0.00000000000E+00 -0.00000000000E+00 -0.45593999997E+02  0.45594000000E+02  0.51100000000E-03 0.  1.
    9900012    2    1    2    0    0  0.36050560367E+02 -0.27008333838E+02 -0.14277370174E+00  0.46142318922E+02  0.10000010589E+02 0.  0.
        -12    1    1    2    0    0 -0.36050560367E+02  0.27008333838E+02  0.14277370174E+00  0.45045681078E+02  0.00000000000E+00 0.  1.
         11    1    3    3    0    0  0.61169227860E+01 -0.77147658427E+01 -0.22990936043E+01  0.10110399994E+02  0.51100000000E-03 0. -1.
        -11    1    3    3    0    0  0.11226927090E+02 -0.73766747711E+01  0.32636357695E+01  0.13824273625E+02  0.51100000000E-03 0.  1.
        -12    1    3    3    0    0  0.18706710490E+02 -0.11916893224E+02 -0.11073158670E+01  0.22207645303E+02  0.00000000000E+00 0.  1.
</event>
<event>
 7    1  0.2001181E-008  0.4614232E+02  0.7816164E-02  0.1320468E+00
        -11   -1    0    0    0    0  0.00000000000E+00  0.00000000000E+00  0.45593999997E+02  0.45594000000E+02  0.51100000000E-03 0.  1.
         11   -1    0    0    0    0 -0.00000000000E+00 -0.00000000000E+00 -0.45593999997E+02  0.45594000000E+02  0.51100000000E-03 0. -1.
    9900012    2    1    2    0    0 -0.19525143871E+02  0.20690063604E+02 -0.34925685318E+02  0.46142317964E+02  0.10000001852E+02 0.  0.
        -12    1    1    2    0    0  0.19525143871E+02 -0.20690063604E+02  0.34925685318E+02  0.45045682036E+02  0.00000000000E+00 0.  1.
         11    1    3    3    0    0 -0.14019988431E+02  0.10808201607E+02 -0.22417833584E+02  0.28564603278E+02  0.51100000000E-03 0. -1.
        -11    1    3    3    0    0 -0.35967070402E+01  0.17846444235E+01 -0.44975960791E+01  0.60290652677E+01  0.51100000000E-03 0.  1.
        -12    1    3    3    0    0 -0.19084484002E+01  0.80972175732E+01 -0.80102556552E+01  0.11548649418E+02  0.00000000000E+00 0.  1.
</event>
<event>
 7    1  0.2001181E-008  0.4614232E+02  0.7816164E-02  0.1320468E+00
        -11   -1    0    0    0    0  0.00000000000E+00  0.00000000000E+00  0.45593999997E+02  0.45594000000E+02  0.51100000000E-03 0. -1.
         11   -1    0    0    0    0 -0.00000000000E+00 -0.00000000000E+00 -0.45593999997E+02  0.45594000000E+02  0.51100000000E-03 0.  1.
    9900012    2    1    2    0    0  0.17709116157E+02  0.56681619383E+01  0.41028923958E+02  0.46142318121E+02  0.10000003281E+02 0.  0.
        -12    1    1    2    0    0 -0.17709116157E+02 -0.56681619383E+01 -0.41028923958E+02  0.45045681879E+02  0.00000000000E+00 0.  1.
         11    1    3    3    0    0  0.40126984424E+01  0.15691671354E+01  0.16086989769E+02  0.16653986741E+02  0.51100000000E-03 0. -1.
        -11    1    3    3    0    0  0.89012783798E+01  0.57415381655E+01  0.15530565257E+02  0.18798842378E+02  0.51100000000E-03 0.  1.
        -12    1    3    3    0    0  0.47951393353E+01 -0.16425433626E+01  0.94113689324E+01  0.10689489002E+02  0.00000000000E+00 0.  1.
</event>
<event>
 7    1  0.2001181E-008  0.4614232E+02  0.7816164E-02  0.1320468E+00
        -11   -1    0    0    0    0  0.00000000000E+00  0.00000000000E+00  0.45593999997E+02  0.45594000000E+02  0.51100000000E-03 0.  1.
         11   -1    0    0    0    0 -0.00000000000E+00 -0.00000000000E+00 -0.45593999997E+02  0.45594000000E+02  0.51100000000E-03 0. -1.
    9900012    2    1    2    0    0  0.35844041173E+02  0.19998248292E+02 -0.18557702303E+02  0.46142317220E+02  0.99999950618E+01 0.  0.
        -12    1    1    2    0    0 -0.35844041173E+02 -0.19998248292E+02  0.18557702303E+02  0.45045682780E+02  0.00000000000E+00 0.  1.
         11    1    3    3    0    0  0.63975956672E+01  0.24710428223E+01 -0.33475631929E+01  0.76316094332E+01  0.51100000000E-03 0. -1.
        -11    1    3    3    0    0  0.87342968059E+01  0.26072373786E+01 -0.76174072558E+01  0.11878994949E+02  0.51100000000E-03 0.  1.
         12    1    3    3    0    0  0.20712148700E+02  0.14919968091E+02 -0.75927318542E+01  0.26631712837E+02  0.00000000000E+00 0. -1.
</event>
<event>
 7    1  0.2001181E-008  0.4614232E+02  0.7816164E-02  0.1320468E+00
        -11   -1    0    0    0    0  0.00000000000E+00  0.00000000000E+00  0.45593999997E+02  0.45594000000E+02  0.51100000000E-03 0.  1.
         11   -1    0    0    0    0 -0.00000000000E+00 -0.00000000000E+00 -0.45593999997E+02  0.45594000000E+02  0.51100000000E-03 0. -1.
    9900012    2    1    2    0    0  0.85324891520E+01 -0.14627211326E+02 -0.41741523624E+02  0.46142317890E+02  0.10000001176E+02 0.  0.
        -12    1    1    2    0    0 -0.85324891520E+01  0.14627211326E+02  0.41741523624E+02  0.45045682110E+02  0.00000000000E+00 0.  1.
         11    1    3    3    0    0  0.39347421807E+00 -0.68968019889E+00 -0.20200541177E+01  0.21705067695E+01  0.51100000000E-03 0. -1.
        -11    1    3    3    0    0  0.22589243155E+01 -0.12025660431E+02 -0.30564862473E+02  0.32923093204E+02  0.51100000000E-03 0.  1.
         12    1    3    3    0    0  0.58800906184E+01 -0.19118706968E+01 -0.91566070334E+01  0.11048717917E+02  0.00000000000E+00 0. -1.
</event>
<event>
 7    1  0.2001181E-008  0.4614232E+02  0.7816164E-02  0.1320468E+00
        -11   -1    0    0    0    0  0.00000000000E+00  0.00000000000E+00  0.45593999997E+02  0.45594000000E+02  0.51100000000E-03 0. -1.
         11   -1    0    0    0    0 -0.00000000000E+00 -0.00000000000E+00 -0.45593999997E+02  0.45594000000E+02  0.51100000000E-03 0.  1.
    9900012    2    1    2    0    0 -0.26298897045E+02  0.29282391211E+02  0.21909429993E+02  0.46142317150E+02  0.99999944276E+01 0.  0.
        -12    1    1    2    0    0  0.26298897045E+02 -0.29282391211E+02 -0.21909429993E+02  0.45045682850E+02  0.00000000000E+00 0.  1.
         11    1    3    3    0    0 -0.21729309152E+01  0.34784486257E+01  0.11360483901E+01  0.42558007248E+01  0.51100000000E-03 0. -1.
        -11    1    3    3    0    0 -0.14976314660E+01  0.25469638602E+01 -0.62134304008E+00  0.30192701681E+01  0.51100000000E-03 0.  1.
         12    1    3    3    0    0 -0.22628334663E+02  0.23256978725E+02  0.21394724643E+02  0.38867246257E+02  0.00000000000E+00 0. -1.
</event>
<event>
 7    1  0.2001181E-008  0.4614232E+02  0.7816164E-02  0.1320468E+00
        -11   -1    0    0    0    0  0.00000000000E+00  0.00000000000E+00  0.45593999997E+02  0.45594000000E+02  0.51100000000E-03 0.  1.
         11   -1    0    0    0    0 -0.00000000000E+00 -0.00000000000E+00 -0.45593999997E+02  0.45594000000E+02  0.51100000000E-03 0. -1.
    9900012    2    1    2    0    0  0.58678869118E+01  0.23574255801E+02 -0.37933307398E+02  0.46142318259E+02  0.10000004539E+02 0.  0.
        -12    1    1    2    0    0 -0.58678869118E+01 -0.23574255801E+02  0.37933307398E+02  0.45045681741E+02  0.00000000000E+00 0.  1.
         11    1    3    3    0    0 -0.21585881476E+00 -0.16550678548E-01  0.20114550116E+00  0.29551434251E+00  0.51100000000E-03 0. -1.
        -11    1    3    3    0    0  0.43459379127E+01  0.16614668418E+02 -0.32324242889E+02  0.36603156443E+02  0.51100000000E-03 0.  1.
         12    1    3    3    0    0  0.17378078138E+01  0.69761380615E+01 -0.58102100097E+01  0.92436474732E+01  0.00000000000E+00 0. -1.
</event>
<event>
 7    1  0.2001181E-008  0.4614232E+02  0.7816164E-02  0.1320468E+00
        -11   -1    0    0    0    0  0.00000000000E+00  0.00000000000E+00  0.45593999997E+02  0.45594000000E+02  0.51100000000E-03 0. -1.
         11   -1    0    0    0    0 -0.00000000000E+00 -0.00000000000E+00 -0.45593999997E+02  0.45594000000E+02  0.51100000000E-03 0.  1.
    9900012    2    1    2    0    0 -0.16472588719E+02 -0.10984381314E+02  0.40461222866E+02  0.46142319100E+02  0.10000012208E+02 0.  0.
        -12    1    1    2    0    0  0.16472588719E+02  0.10984381314E+02 -0.40461222866E+02  0.45045680900E+02  0.00000000000E+00 0.  1.
         11    1    3    3    0    0 -0.10121733149E+01  0.30244604478E+00  0.21758856748E+00  0.10785701068E+01  0.51100000000E-03 0. -1.
        -11    1    3    3    0    0 -0.86186597891E+01 -0.81391039648E+01  0.30681599400E+02  0.32892048460E+02  0.51100000000E-03 0.  1.
         12    1    3    3    0    0 -0.68417556153E+01 -0.31477233943E+01  0.95620348985E+01  0.12171700533E+02  0.00000000000E+00 0. -1.
</event>
<event>
 7    1  0.2001181E-008  0.4614232E+02  0.7816164E-02  0.1320468E+00
        -11   -1    0    0    0    0  0.00000000000E+00  0.00000000000E+00  0.45593999997E+02  0.45594000000E+02  0.51100000000E-03 0. -1.
         11   -1    0    0    0    0 -0.00000000000E+00 -0.00000000000E+00 -0.45593999997E+02  0.45594000000E+02  0.51100000000E-03 0.  1.
    9900012    2    1    2    0    0  0.27079921535E+02 -0.26208567283E+02  0.24675946307E+02  0.46142317903E+02  0.10000001294E+02 0.  0.
        -12    1    1    2    0    0 -0.27079921535E+02  0.26208567283E+02 -0.24675946307E+02  0.45045682097E+02  0.00000000000E+00 0.  1.
         11    1    3    3    0    0  0.10815070729E+02 -0.76552741590E+01  0.72840589621E+01  0.15120399880E+02  0.51100000000E-03 0. -1.
        -11    1    3    3    0    0  0.97254751596E+01 -0.62121970271E+01  0.60487329228E+01  0.13029329577E+02  0.51100000000E-03 0.  1.
        -12    1    3    3    0    0  0.65393756470E+01 -0.12341096097E+02  0.11343154423E+02  0.17992588446E+02  0.00000000000E+00 0.  1.
</event>
<event>
 7    1  0.2001181E-008  0.4614232E+02  0.7816164E-02  0.1320468E+00
        -11   -1    0    0    0    0  0.00000000000E+00  0.00000000000E+00  0.45593999997E+02  0.45594000000E+02  0.51100000000E-03 0.  1.
         11   -1    0    0    0    0 -0.00000000000E+00 -0.00000000000E+00 -0.45593999997E+02  0.45594000000E+02  0.51100000000E-03 0. -1.
    9900012    2    1    2    0    0 -0.19335123428E+01  0.62455302947E+01 -0.44568691291E+02  0.46142319164E+02  0.10000012790E+02 0.  0.
        -12    1    1    2    0    0  0.19335123428E+01 -0.62455302947E+01  0.44568691291E+02  0.45045680836E+02  0.00000000000E+00 0.  1.
         11    1    3    3    0    0  0.20715489008E+01  0.14872327096E+01 -0.38418389550E+01  0.46111715212E+01  0.51100000000E-03 0. -1.
        -11    1    3    3    0    0  0.60444090043E+00  0.36868604756E+00 -0.68027379553E+00  0.98186093811E+00  0.51100000000E-03 0.  1.
         12    1    3    3    0    0 -0.46095021440E+01  0.43896115375E+01 -0.40046578540E+02  0.40549286704E+02  0.00000000000E+00 0. -1.
</event>
<event>
 7    1  0.2001181E-008  0.4614232E+02  0.7816164E-02  0.1320468E+00
        -11   -1    0    0    0    0  0.00000000000E+00  0.00000000000E+00  0.45593999997E+02  0.45594000000E+02  0.51100000000E-03 0. -1.
         11   -1    0    0    0    0 -0.00000000000E+00 -0.00000000000E+00 -0.45593999997E+02  0.45594000000E+02  0.51100000000E-03 0.  1.
    9900012    2    1    2    0    0  0.20791675911E+02  0.37893163826E+02  0.12685735681E+02  0.46142317169E+02  0.99999946040E+01 0.  0.
        -12    1    1    2    0    0 -0.20791675911E+02 -0.37893163826E+02 -0.12685735681E+02  0.45045682831E+02  0.00000000000E+00 0.  1.
         11    1    3    3    0    0  0.20539923092E+01  0.28679861517E+00  0.83647561673E-02  0.20739354094E+01  0.51100000000E-03 0. -1.
        -11    1    3    3    0    0  0.72117763867E+01  0.11530838048E+02  0.27160409655E+01  0.13868915730E+02  0.51100000000E-03 0.  1.
         12    1    3    3    0    0  0.11525907215E+02  0.26075527162E+02  0.99613299592E+01  0.30199466030E+02  0.00000000000E+00 0. -1.
</event>
<event>
 7    1  0.2001181E-008  0.4614232E+02  0.7816164E-02  0.1320468E+00
        -11   -1    0    0    0    0  0.00000000000E+00  0.00000000000E+00  0.45593999997E+02  0.45594000000E+02  0.51100000000E-03 0.  1.
         11   -1    0    0    0    0 -0.00000000000E+00 -0.00000000000E+00 -0.45593999997E+02  0.45594000000E+02  0.51100000000E-03 0. -1.
    9900012    2    1    2    0    0 -0.37344060161E+02 -0.13009306360E+02  0.21570642051E+02  0.46142317856E+02  0.10000000865E+02 0.  0.
        -12    1    1    2    0    0  0.37344060161E+02  0.13009306360E+02 -0.21570642051E+02  0.45045682144E+02  0.00000000000E+00 0.  1.
         11    1    3    3    0    0 -0.21279571297E+02 -0.52256003492E+01  0.15229280543E+02  0.26684415671E+02  0.51100000000E-03 0. -1.
        -11    1    3    3    0    0 -0.64429067608E+01 -0.12727148020E+01  0.89866707725E+00  0.66286086981E+01  0.51100000000E-03 0.  1.
         12    1    3    3    0    0 -0.96215821041E+01 -0.65109912091E+01  0.54426944311E+01  0.12829293487E+02  0.00000000000E+00 0. -1.
</event>
<event>
 7    1  0.2001181E-008  0.4614232E+02  0.7816164E-02  0.1320468E+00
        -11   -1    0    0    0    0  0.00000000000E+00  0.00000000000E+00  0.45593999997E+02  0.45594000000E+02  0.51100000000E-03 0.  1.
         11   -1    0    0    0    0 -0.00000000000E+00 -0.00000000000E+00 -0.45593999997E+02  0.45594000000E+02  0.51100000000E-03 0. -1.
    9900012    2    1    2    0    0  0.30993876282E+02 -0.11038548381E+02 -0.30767574124E+02  0.46142317245E+02  0.99999952955E+01 0.  0.
        -12    1    1    2    0    0 -0.30993876282E+02  0.11038548381E+02  0.30767574124E+02  0.45045682755E+02  0.00000000000E+00 0.  1.
         11    1    3    3    0    0  0.27458653625E+02 -0.82914937451E+01 -0.27607531131E+02  0.39810831476E+02  0.51100000000E-03 0. -1.
        -11    1    3    3    0    0  0.84339841364E+00  0.70439904734E+00 -0.47995749611E+00  0.11991073185E+01  0.51100000000E-03 0.  1.
         12    1    3    3    0    0  0.26918242437E+01 -0.34514536834E+01 -0.26800854968E+01  0.51323784504E+01  0.00000000000E+00 0. -1.
</event>
<event>
 7    1  0.2001181E-008  0.4614232E+02  0.7816164E-02  0.1320468E+00
        -11   -1    0    0    0    0  0.00000000000E+00  0.00000000000E+00  0.45593999997E+02  0.45594000000E+02  0.51100000000E-03 0. -1.
         11   -1    0    0    0    0 -0.00000000000E+00 -0.00000000000E+00 -0.45593999997E+02  0.45594000000E+02  0.51100000000E-03 0.  1.
    9900012    2    1    2    0    0  0.29697523971E+02  0.13252527380E+02  0.31169552020E+02  0.46142318907E+02  0.10000010449E+02 0.  0.
        -12    1    1    2    0    0 -0.29697523971E+02 -0.13252527380E+02 -0.31169552020E+02  0.45045681093E+02  0.00000000000E+00 0.  1.
         11    1    3    3    0    0  0.53737627960E+01  0.36077464156E+01  0.86408376150E+01  0.10796167641E+02  0.51100000000E-03 0.  1.
        -11    1    3    3    0    0  0.15225209295E+02  0.97550691428E+01  0.16028557857E+02  0.24163671892E+02  0.51100000000E-03 0. -1.
         12    1    3    3    0    0  0.90985518800E+01 -0.11028817801E+00  0.65001565479E+01  0.11182479374E+02  0.00000000000E+00 0. -1.
</event>
<event>
 7    1  0.2001181E-008  0.4614232E+02  0.7816164E-02  0.1320468E+00
        -11   -1    0    0    0    0  0.00000000000E+00  0.00000000000E+00  0.45593999997E+02  0.45594000000E+02  0.51100000000E-03 0.  1.
         11   -1    0    0    0    0 -0.00000000000E+00 -0.00000000000E+00 -0.45593999997E+02  0.45594000000E+02  0.51100000000E-03 0. -1.
    9900012    2    1    2    0    0 -0.11673378673E+01 -0.17939187021E+02 -0.41302985075E+02  0.46142315581E+02  0.99999801176E+01 0.  0.
        -12    1    1    2    0    0  0.11673378673E+01  0.17939187021E+02  0.41302985075E+02  0.45045684419E+02  0.00000000000E+00 0.  1.
         11    1    3    3    0    0 -0.93114724796E+00 -0.45935765094E+01 -0.15806069481E+02  0.16486352327E+02  0.51100000000E-03 0. -1.
        -11    1    3    3    0    0 -0.14287846975E+01 -0.17399953504E+01 -0.88549136346E+00  0.24193190668E+01  0.51100000000E-03 0.  1.
         12    1    3    3    0    0  0.11925940781E+01 -0.11605615161E+02 -0.24611424231E+02  0.27236644187E+02  0.00000000000E+00 0. -1.
</event>
<event>
 7    1  0.2001181E-008  0.4614232E+02  0.7816164E-02  0.1320468E+00
        -11   -1    0    0    0    0  0.00000000000E+00  0.00000000000E+00  0.45593999997E+02  0.45594000000E+02  0.51100000000E-03 0.  1.
         11   -1    0    0    0    0 -0.00000000000E+00 -0.00000000000E+00 -0.45593999997E+02  0.45594000000E+02  0.51100000000E-03 0. -1.
    9900012    2    1    2    0    0 -0.95116960442E+01 -0.18773573566E+02 -0.39827052685E+02  0.46142317059E+02  0.99999935936E+01 0.  0.
        -12    1    1    2    0    0  0.95116960442E+01  0.18773573566E+02  0.39827052685E+02  0.45045682941E+02  0.00000000000E+00 0.  1.
         11    1    3    3    0    0 -0.44000646634E+01 -0.56562231153E+01 -0.16788904017E+02  0.18254334480E+02  0.51100000000E-03 0. -1.
        -11    1    3    3    0    0 -0.66759082248E+01 -0.88715662249E+01 -0.14974427980E+02  0.18641510976E+02  0.51100000000E-03 0.  1.
         12    1    3    3    0    0  0.15642768440E+01 -0.42457842255E+01 -0.80637206889E+01  0.92464716018E+01  0.00000000000E+00 0. -1.
</event>
<event>
 7    1  0.2001181E-008  0.4614232E+02  0.7816164E-02  0.1320468E+00
        -11   -1    0    0    0    0  0.00000000000E+00  0.00000000000E+00  0.45593999997E+02  0.45594000000E+02  0.51100000000E-03 0.  1.
         11   -1    0    0    0    0 -0.00000000000E+00 -0.00000000000E+00 -0.45593999997E+02  0.45594000000E+02  0.51100000000E-03 0. -1.
    9900012    2    1    2    0    0  0.22204781777E+02  0.21181301341E+02 -0.32975956991E+02  0.46142316525E+02  0.99999887299E+01 0.  0.
        -12    1    1    2    0    0 -0.22204781777E+02 -0.21181301341E+02  0.32975956991E+02  0.45045683475E+02  0.00000000000E+00 0.  1.
         11    1    3    3    0    0  0.70397679982E+00  0.40580830396E+01 -0.32471915752E+01  0.52447950082E+01  0.51100000000E-03 0. -1.
        -11    1    3    3    0    0  0.73327662324E+00 -0.42877119226E+00 -0.54367539743E+00  0.10085249330E+01  0.51100000000E-03 0.  1.
         12    1    3    3    0    0  0.20767528354E+02  0.17551989493E+02 -0.29185090018E+02  0.39888996584E+02  0.00000000000E+00 0. -1.
</event>
<event>
 7    1  0.2001181E-008  0.4614232E+02  0.7816164E-02  0.1320468E+00
        -11   -1    0    0    0    0  0.00000000000E+00  0.00000000000E+00  0.45593999997E+02  0.45594000000E+02  0.51100000000E-03 0.  1.
         11   -1    0    0    0    0 -0.00000000000E+00 -0.00000000000E+00 -0.45593999997E+02  0.45594000000E+02  0.51100000000E-03 0. -1.
    9900012    2    1    2    0    0 -0.38612674492E+02  0.16939645418E+02 -0.15850012810E+02  0.46142321802E+02  0.10000036844E+02 0.  0.
        -12    1    1    2    0    0  0.38612674492E+02 -0.16939645418E+02  0.15850012810E+02  0.45045678198E+02  0.00000000000E+00 0.  1.
         11    1    3    3    0    0 -0.24408368837E+02  0.12635571164E+02 -0.93812508830E+01  0.29041935134E+02  0.51100000000E-03 0. -1.
        -11    1    3    3    0    0 -0.93776095152E+01  0.12391004812E+01 -0.63287985952E+01  0.11381064192E+02  0.51100000000E-03 0.  1.
        -12    1    3    3    0    0 -0.48266961391E+01  0.30649737721E+01 -0.13996333218E+00  0.57193224754E+01  0.00000000000E+00 0.  1.
</event>
<event>
 7    1  0.2001181E-008  0.4614232E+02  0.7816164E-02  0.1320468E+00
        -11   -1    0    0    0    0  0.00000000000E+00  0.00000000000E+00  0.45593999997E+02  0.45594000000E+02  0.51100000000E-03 0. -1.
         11   -1    0    0    0    0 -0.00000000000E+00 -0.00000000000E+00 -0.45593999997E+02  0.45594000000E+02  0.51100000000E-03 0.  1.
    9900012    2    1    2    0    0  0.42352356114E+02 -0.75594316422E+00  0.15323836900E+02  0.46142317678E+02  0.99999992446E+01 0.  0.
        -12    1    1    2    0    0 -0.42352356114E+02  0.75594316422E+00 -0.15323836900E+02  0.45045682322E+02  0.00000000000E+00 0.  1.
         11    1    3    3    0    0  0.29584481173E+02  0.33278098363E+01  0.83514080250E+01  0.30920250013E+02  0.51100000000E-03 0. -1.
        -11    1    3    3    0    0  0.83685181754E+01 -0.27632580428E+01  0.35821408188E+01  0.95131185513E+01  0.51100000000E-03 0.  1.
         12    1    3    3    0    0  0.43993567656E+01 -0.13204949577E+01  0.33902880563E+01  0.57089491142E+01  0.00000000000E+00 0. -1.
</event>
<event>
 7    1  0.2001181E-008  0.4614232E+02  0.7816164E-02  0.1320468E+00
        -11   -1    0    0    0    0  0.00000000000E+00  0.00000000000E+00  0.45593999997E+02  0.45594000000E+02  0.51100000000E-03 0. -1.
         11   -1    0    0    0    0 -0.00000000000E+00 -0.00000000000E+00 -0.45593999997E+02  0.45594000000E+02  0.51100000000E-03 0.  1.
    9900012    2    1    2    0    0 -0.33936185397E+02 -0.20526887537E+02  0.21356397630E+02  0.46142317510E+02  0.99999977119E+01 0.  0.
        -12    1    1    2    0    0  0.33936185397E+02  0.20526887537E+02 -0.21356397630E+02  0.45045682490E+02  0.00000000000E+00 0.  1.
         11    1    3    3    0    0 -0.12929885333E+02 -0.10594285613E+02  0.74113714765E+01  0.18285219435E+02  0.51100000000E-03 0. -1.
        -11    1    3    3    0    0 -0.53566477305E+00 -0.67093930651E+00  0.24968184536E+01  0.26403028147E+01  0.51100000000E-03 0.  1.
        -12    1    3    3    0    0 -0.20470635291E+02 -0.92616626173E+01  0.11448207700E+02  0.25216795260E+02  0.00000000000E+00 0.  1.
</event>
<event>
 7    1  0.2001181E-008  0.4614232E+02  0.7816164E-02  0.1320468E+00
        -11   -1    0    0    0    0  0.00000000000E+00  0.00000000000E+00  0.45593999997E+02  0.45594000000E+02  0.51100000000E-03 0. -1.
         11   -1    0    0    0    0 -0.00000000000E+00 -0.00000000000E+00 -0.45593999997E+02  0.45594000000E+02  0.51100000000E-03 0.  1.
    9900012    2    1    2    0    0  0.28929521923E+02  0.34510317339E+02 -0.11109447205E+01  0.46142318301E+02  0.10000004928E+02 0.  0.
        -12    1    1    2    0    0 -0.28929521923E+02 -0.34510317339E+02  0.11109447205E+01  0.45045681699E+02  0.00000000000E+00 0.  1.
         11    1    3    3    0    0  0.16446317644E+02  0.16439792206E+02  0.38194895607E+01  0.23565581524E+02  0.51100000000E-03 0. -1.
        -11    1    3    3    0    0  0.65857070654E+01  0.99269120983E+01 -0.35304709524E+01  0.12424948562E+02  0.51100000000E-03 0.  1.
         12    1    3    3    0    0  0.58974972129E+01  0.81436130352E+01 -0.13999633288E+01  0.10151788215E+02  0.00000000000E+00 0. -1.
</event>
<event>
 7    1  0.2001181E-008  0.4614232E+02  0.7816164E-02  0.1320468E+00
        -11   -1    0    0    0    0  0.00000000000E+00  0.00000000000E+00  0.45593999997E+02  0.45594000000E+02  0.51100000000E-03 0.  1.
         11   -1    0    0    0    0 -0.00000000000E+00 -0.00000000000E+00 -0.45593999997E+02  0.45594000000E+02  0.51100000000E-03 0. -1.
    9900012    2    1    2    0    0  0.15916369277E+02 -0.49133788395E+01 -0.41852614215E+02  0.46142318528E+02  0.10000006996E+02 0.  0.
        -12    1    1    2    0    0 -0.15916369277E+02  0.49133788395E+01  0.41852614215E+02  0.45045681472E+02  0.00000000000E+00 0.  1.
         11    1    3    3    0    0  0.45284703373E+01 -0.20446360275E+01 -0.15587853192E+02  0.16360585182E+02  0.51100000000E-03 0.  1.
        -11    1    3    3    0    0  0.54055108949E+01 -0.50839997763E+01 -0.16821935475E+02  0.18385976045E+02  0.51100000000E-03 0. -1.
        -12    1    3    3    0    0  0.59823880446E+01  0.22152569643E+01 -0.94428255486E+01  0.11395757302E+02  0.00000000000E+00 0.  1.
</event>
<event>
 7    1  0.2001181E-008  0.4614232E+02  0.7816164E-02  0.1320468E+00
        -11   -1    0    0    0    0  0.00000000000E+00  0.00000000000E+00  0.45593999997E+02  0.45594000000E+02  0.51100000000E-03 0.  1.
         11   -1    0    0    0    0 -0.00000000000E+00 -0.00000000000E+00 -0.45593999997E+02  0.45594000000E+02  0.51100000000E-03 0. -1.
    9900012    2    1    2    0    0 -0.15967241040E+02  0.13033459037E+02 -0.40053585055E+02  0.46142317448E+02  0.99999971413E+01 0.  0.
        -12    1    1    2    0    0  0.15967241040E+02 -0.13033459037E+02  0.40053585055E+02  0.45045682552E+02  0.00000000000E+00 0.  1.
         11    1    3    3    0    0 -0.17737493665E+01  0.14973630357E+01 -0.31116454866E+01  0.38820897428E+01  0.51100000000E-03 0. -1.
        -11    1    3    3    0    0 -0.68300332782E+01  0.10936459155E+00 -0.10457084822E+02  0.12490473907E+02  0.51100000000E-03 0.  1.
         12    1    3    3    0    0 -0.73634583948E+01  0.11426731410E+02 -0.26484854746E+02  0.29769753797E+02  0.00000000000E+00 0. -1.
</event>
<event>
 7    1  0.2001181E-008  0.4614232E+02  0.7816164E-02  0.1320468E+00
        -11   -1    0    0    0    0  0.00000000000E+00  0.00000000000E+00  0.45593999997E+02  0.45594000000E+02  0.51100000000E-03 0.  1.
         11   -1    0    0    0    0 -0.00000000000E+00 -0.00000000000E+00 -0.45593999997E+02  0.45594000000E+02  0.51100000000E-03 0. -1.
    9900012    2    1    2    0    0 -0.88238155966E+01 -0.15971368098E+02 -0.41184574913E+02  0.46142317284E+02  0.99999956480E+01 0.  0.
        -12    1    1    2    0    0  0.88238155966E+01  0.15971368098E+02  0.41184574913E+02  0.45045682716E+02  0.00000000000E+00 0.  1.
         11    1    3    3    0    0  0.10601738954E+01 -0.25110678711E+01 -0.67078001189E+01  0.72404428896E+01  0.51100000000E-03 0. -1.
        -11    1    3    3    0    0 -0.50481165736E+01 -0.11582124872E+02 -0.26898798121E+02  0.29718250927E+02  0.51100000000E-03 0.  1.
        -12    1    3    3    0    0 -0.48358729184E+01 -0.18781753548E+01 -0.75779766726E+01  0.91836234677E+01  0.00000000000E+00 0.  1.
</event>
<event>
 7    1  0.2001181E-008  0.4614232E+02  0.7816164E-02  0.1320468E+00
        -11   -1    0    0    0    0  0.00000000000E+00  0.00000000000E+00  0.45593999997E+02  0.45594000000E+02  0.51100000000E-03 0. -1.
         11   -1    0    0    0    0 -0.00000000000E+00 -0.00000000000E+00 -0.45593999997E+02  0.45594000000E+02  0.51100000000E-03 0.  1.
    9900012    2    1    2    0    0  0.40286369140E+02 -0.19340174516E+02  0.56638872908E+01  0.46142317542E+02  0.99999980064E+01 0.  0.
        -12    1    1    2    0    0 -0.40286369140E+02  0.19340174516E+02 -0.56638872908E+01  0.45045682458E+02  0.00000000000E+00 0.  1.
         11    1    3    3    0    0  0.25066767450E+02 -0.11146184282E+02  0.57703068845E-01  0.27433256903E+02  0.51100000000E-03 0. -1.
        -11    1    3    3    0    0  0.14697300289E+02 -0.65355788156E+01  0.53515502435E+01  0.16951799802E+02  0.51100000000E-03 0.  1.
        -12    1    3    3    0    0  0.52230140139E+00 -0.16584114189E+01  0.25463397845E+00  0.17572608375E+01  0.00000000000E+00 0.  1.
</event>
<event>
 7    1  0.2001181E-008  0.4614231E+02  0.7816164E-02  0.1320468E+00
        -11   -1    0    0    0    0  0.00000000000E+00  0.00000000000E+00  0.45593999997E+02  0.45594000000E+02  0.51100000000E-03 0.  1.
         11   -1    0    0    0    0 -0.00000000000E+00 -0.00000000000E+00 -0.45593999997E+02  0.45594000000E+02  0.51100000000E-03 0. -1.
    9900012    2    1    2    0    0  0.11619989248E+02  0.21684016692E+02 -0.37734514670E+02  0.46142308448E+02  0.99999150741E+01 0.  0.
        -12    1    1    2    0    0 -0.11619989248E+02 -0.21684016692E+02  0.37734514670E+02  0.45045691552E+02  0.00000000000E+00 0.  1.
         11    1    3    3    0    0  0.89292278518E+01  0.17922177288E+02 -0.27543769187E+02  0.34052823232E+02  0.51100000000E-03 0. -1.
        -11    1    3    3    0    0  0.11507980931E+01  0.32449097963E+01 -0.25668945313E+01  0.42944992296E+01  0.51100000000E-03 0.  1.
        -12    1    3    3    0    0  0.15399633030E+01  0.51692960778E+00 -0.76238509516E+01  0.77949859863E+01  0.00000000000E+00 0.  1.
</event>
<event>
 7    1  0.2001181E-008  0.4614232E+02  0.7816164E-02  0.1320468E+00
        -11   -1    0    0    0    0  0.00000000000E+00  0.00000000000E+00  0.45593999997E+02  0.45594000000E+02  0.51100000000E-03 0. -1.
         11   -1    0    0    0    0 -0.00000000000E+00 -0.00000000000E+00 -0.45593999997E+02  0.45594000000E+02  0.51100000000E-03 0.  1.
    9900012    2    1    2    0    0  0.15643766393E+02  0.41170900878E+02  0.94521449212E+01  0.46142317081E+02  0.99999937969E+01 0.  0.
        -12    1    1    2    0    0 -0.15643766393E+02 -0.41170900878E+02 -0.94521449212E+01  0.45045682919E+02  0.00000000000E+00 0.  1.
         11    1    3    3    0    0  0.30345234419E+01  0.27453368298E+01  0.65885768553E+00  0.41447919778E+01  0.51100000000E-03 0. -1.
        -11    1    3    3    0    0 -0.73357153745E+00  0.64134068492E+00  0.59385520613E-02  0.97441295261E+00  0.51100000000E-03 0.  1.
         12    1    3    3    0    0  0.13342814488E+02  0.37784223363E+02  0.87873486836E+01  0.41023112150E+02  0.00000000000E+00 0. -1.
</event>
<event>
 7    1  0.2001181E-008  0.4614232E+02  0.7816164E-02  0.1320468E+00
        -11   -1    0    0    0    0  0.00000000000E+00  0.00000000000E+00  0.45593999997E+02  0.45594000000E+02  0.51100000000E-03 0. -1.
         11   -1    0    0    0    0 -0.00000000000E+00 -0.00000000000E+00 -0.45593999997E+02  0.45594000000E+02  0.51100000000E-03 0.  1.
    9900012    2    1    2    0    0 -0.42093094947E+02  0.10221706236E+02  0.12361293548E+02  0.46142317645E+02  0.99999989435E+01 0.  0.
        -12    1    1    2    0    0  0.42093094947E+02 -0.10221706236E+02 -0.12361293548E+02  0.45045682355E+02  0.00000000000E+00 0.  1.
         11    1    3    3    0    0 -0.26337977926E+02  0.67117444507E+01  0.44917586581E+01  0.27548366393E+02  0.51100000000E-03 0. -1.
        -11    1    3    3    0    0 -0.53763479752E+01  0.35367655974E+01  0.24554780295E+01  0.68879025150E+01  0.51100000000E-03 0.  1.
        -12    1    3    3    0    0 -0.10378769046E+02 -0.26803811722E-01  0.54140568608E+01  0.11706048737E+02  0.00000000000E+00 0.  1.
</event>
<event>
 7    1  0.2001181E-008  0.4614232E+02  0.7816164E-02  0.1320468E+00
        -11   -1    0    0    0    0  0.00000000000E+00  0.00000000000E+00  0.45593999997E+02  0.45594000000E+02  0.51100000000E-03 0.  1.
         11   -1    0    0    0    0 -0.00000000000E+00 -0.00000000000E+00 -0.45593999997E+02  0.45594000000E+02  0.51100000000E-03 0. -1.
    9900012    2    1    2    0    0  0.18520997877E+02 -0.19030701722E+02 -0.36385691514E+02  0.46142317440E+02  0.99999970674E+01 0.  0.
        -12    1    1    2    0    0 -0.18520997877E+02  0.19030701722E+02  0.36385691514E+02  0.45045682560E+02  0.00000000000E+00 0.  1.
         11    1    3    3    0    0  0.86193402590E+01 -0.69840014909E+01 -0.16766333909E+02  0.20104209916E+02  0.51100000000E-03 0. -1.
        -11    1    3    3    0    0  0.10555310476E+02 -0.88233468546E+01 -0.16731518770E+02  0.21661249954E+02  0.51100000000E-03 0.  1.
        -12    1    3    3    0    0 -0.65365285787E+00 -0.32233533767E+01 -0.28878388345E+01  0.43768575695E+01  0.00000000000E+00 0.  1.
</event>
<event>
 7    1  0.2001181E-008  0.4614231E+02  0.7816164E-02  0.1320468E+00
        -11   -1    0    0    0    0  0.00000000000E+00  0.00000000000E+00  0.45593999997E+02  0.45594000000E+02  0.51100000000E-03 0.  1.
         11   -1    0    0    0    0 -0.00000000000E+00 -0.00000000000E+00 -0.45593999997E+02  0.45594000000E+02  0.51100000000E-03 0. -1.
    9900012    2    1    2    0    0  0.28227038086E+01  0.33477086144E+02 -0.30007179148E+02  0.46142314814E+02  0.99999731232E+01 0.  0.
        -12    1    1    2    0    0 -0.28227038086E+01 -0.33477086144E+02  0.30007179148E+02  0.45045685186E+02  0.00000000000E+00 0.  1.
         11    1    3    3    0    0  0.42961487722E+00  0.27445833840E+00 -0.15887452441E+01  0.16685346966E+01  0.51100000000E-03 0. -1.
        -11    1    3    3    0    0 -0.94495465605E+00  0.17001613242E+01 -0.44214147072E-01  0.19456214899E+01  0.51100000000E-03 0.  1.
         12    1    3    3    0    0  0.33380435874E+01  0.31502466481E+02 -0.28374219757E+02  0.42528158627E+02  0.00000000000E+00 0. -1.
</event>
<event>
 7    1  0.2001181E-008  0.4614232E+02  0.7816164E-02  0.1320468E+00
        -11   -1    0    0    0    0  0.00000000000E+00  0.00000000000E+00  0.45593999997E+02  0.45594000000E+02  0.51100000000E-03 0.  1.
         11   -1    0    0    0    0 -0.00000000000E+00 -0.00000000000E+00 -0.45593999997E+02  0.45594000000E+02  0.51100000000E-03 0. -1.
    9900012    2    1    2    0    0 -0.35064624773E+02  0.13109860854E+02 -0.25054284319E+02  0.46142317356E+02  0.99999963096E+01 0.  0.
        -12    1    1    2    0    0  0.35064624773E+02 -0.13109860854E+02  0.25054284319E+02  0.45045682644E+02  0.00000000000E+00 0.  1.
         11    1    3    3    0    0 -0.17843775632E+02  0.75231618945E+01 -0.10728054703E+02  0.22137964036E+02  0.51100000000E-03 0. -1.
        -11    1    3    3    0    0 -0.10389610109E+02  0.23202704536E+01 -0.43982249136E+01  0.11518334768E+02  0.51100000000E-03 0.  1.
        -12    1    3    3    0    0 -0.68312390325E+01  0.32664285057E+01 -0.99280047024E+01  0.12486018552E+02  0.00000000000E+00 0.  1.
</event>
<event>
 7    1  0.2001181E-008  0.4614232E+02  0.7816164E-02  0.1320468E+00
        -11   -1    0    0    0    0  0.00000000000E+00  0.00000000000E+00  0.45593999997E+02  0.45594000000E+02  0.51100000000E-03 0.  1.
         11   -1    0    0    0    0 -0.00000000000E+00 -0.00000000000E+00 -0.45593999997E+02  0.45594000000E+02  0.51100000000E-03 0. -1.
    9900012    2    1    2    0    0 -0.39826349486E+02 -0.67324111152E+01 -0.19941163398E+02  0.46142317960E+02  0.10000001810E+02 0.  0.
        -12    1    1    2    0    0  0.39826349486E+02  0.67324111152E+01  0.19941163398E+02  0.45045682040E+02  0.00000000000E+00 0.  1.
         11    1    3    3    0    0 -0.11727007983E+02 -0.11932403659E+01 -0.88295564688E+01  0.14727783489E+02  0.51100000000E-03 0. -1.
        -11    1    3    3    0    0 -0.19993604006E+02 -0.41774691334E+01 -0.10990033896E+02  0.23194316002E+02  0.51100000000E-03 0.  1.
        -12    1    3    3    0    0 -0.81057374974E+01 -0.13617016159E+01 -0.12157303302E+00  0.82202184685E+01  0.00000000000E+00 0.  1.
</event>
<event>
 7    1  0.2001181E-008  0.4614232E+02  0.7816164E-02  0.1320468E+00
        -11   -1    0    0    0    0  0.00000000000E+00  0.00000000000E+00  0.45593999997E+02  0.45594000000E+02  0.51100000000E-03 0. -1.
         11   -1    0    0    0    0 -0.00000000000E+00 -0.00000000000E+00 -0.45593999997E+02  0.45594000000E+02  0.51100000000E-03 0.  1.
    9900012    2    1    2    0    0 -0.29137876591E+02  0.15422765550E+02  0.30695862475E+02  0.46142317382E+02  0.99999965437E+01 0.  0.
        -12    1    1    2    0    0  0.29137876591E+02 -0.15422765550E+02 -0.30695862475E+02  0.45045682618E+02  0.00000000000E+00 0.  1.
         11    1    3    3    0    0 -0.11142050341E+02  0.59224078944E+01  0.99800922177E+01  0.16087959535E+02  0.51100000000E-03 0. -1.
        -11    1    3    3    0    0 -0.71628670003E+01  0.75629989805E+01  0.12776086140E+02  0.16484356056E+02  0.51100000000E-03 0.  1.
         12    1    3    3    0    0 -0.10832959250E+02  0.19373586748E+01  0.79396841173E+01  0.13570001792E+02  0.00000000000E+00 0. -1.
</event>
<event>
 7    1  0.2001181E-008  0.4614232E+02  0.7816164E-02  0.1320468E+00
        -11   -1    0    0    0    0  0.00000000000E+00  0.00000000000E+00  0.45593999997E+02  0.45594000000E+02  0.51100000000E-03 0.  1.
         11   -1    0    0    0    0 -0.00000000000E+00 -0.00000000000E+00 -0.45593999997E+02  0.45594000000E+02  0.51100000000E-03 0. -1.
    9900012    2    1    2    0    0 -0.77354593886E+01  0.11365245776E+00 -0.44376379848E+02  0.46142319438E+02  0.10000015296E+02 0.  0.
        -12    1    1    2    0    0  0.77354593886E+01 -0.11365245776E+00  0.44376379848E+02  0.45045680562E+02  0.00000000000E+00 0.  1.
         11    1    3    3    0    0 -0.20636587801E+01  0.17619167933E+01 -0.22564923592E+02  0.22727490300E+02  0.51100000000E-03 0. -1.
        -11    1    3    3    0    0 -0.34543681752E+01  0.21159875678E+01 -0.12253100600E+02  0.12905368552E+02  0.51100000000E-03 0.  1.
        -12    1    3    3    0    0 -0.22174324333E+01 -0.37642519033E+01 -0.95583556556E+01  0.10509460587E+02  0.00000000000E+00 0.  1.
</event>
<event>
 7    1  0.2001181E-008  0.4614232E+02  0.7816164E-02  0.1320468E+00
        -11   -1    0    0    0    0  0.00000000000E+00  0.00000000000E+00  0.45593999997E+02  0.45594000000E+02  0.51100000000E-03 0.  1.
         11   -1    0    0    0    0 -0.00000000000E+00 -0.00000000000E+00 -0.45593999997E+02  0.45594000000E+02  0.51100000000E-03 0. -1.
    9900012    2    1    2    0    0  0.16805600956E+01  0.53909331577E+00 -0.45011094992E+02  0.46142316786E+02  0.99999911096E+01 0.  0.
        -12    1    1    2    0    0 -0.16805600956E+01 -0.53909331577E+00  0.45011094992E+02  0.45045683214E+02  0.00000000000E+00 0.  1.
         11    1    3    3    0    0  0.23891390323E+01  0.36949865130E+01 -0.24040681375E+02  0.24440034204E+02  0.51100000000E-03 0. -1.
        -11    1    3    3    0    0  0.78568909513E+00 -0.31557004524E+01 -0.78486030642E+01  0.84956649545E+01  0.51100000000E-03 0.  1.
         12    1    3    3    0    0 -0.14942680318E+01 -0.19274479076E-03 -0.13121810553E+02  0.13206617628E+02  0.00000000000E+00 0. -1.
</event>
<event>
 7    1  0.2001181E-008  0.4614232E+02  0.7816164E-02  0.1320468E+00
        -11   -1    0    0    0    0  0.00000000000E+00  0.00000000000E+00  0.45593999997E+02  0.45594000000E+02  0.51100000000E-03 0.  1.
         11   -1    0    0    0    0 -0.00000000000E+00 -0.00000000000E+00 -0.45593999997E+02  0.45594000000E+02  0.51100000000E-03 0. -1.
    9900012    2    1    2    0    0 -0.46250151296E+01  0.10267999975E+02 -0.43615259675E+02  0.46142318021E+02  0.10000002368E+02 0.  0.
        -12    1    1    2    0    0  0.46250151296E+01 -0.10267999975E+02  0.43615259675E+02  0.45045681979E+02  0.00000000000E+00 0.  1.
         11    1    3    3    0    0 -0.21437707057E+01  0.32448963509E+00 -0.57150009355E+01  0.61124694122E+01  0.51100000000E-03 0. -1.
        -11    1    3    3    0    0  0.19287911084E+01 -0.49456302913E-01 -0.47700438357E+01  0.51454834098E+01  0.51100000000E-03 0.  1.
         12    1    3    3    0    0 -0.44100355324E+01  0.99929666430E+01 -0.33130214904E+02  0.34884365199E+02  0.00000000000E+00 0. -1.
</event>
<event>
 7    1  0.2001181E-008  0.4614232E+02  0.7816164E-02  0.1320468E+00
        -11   -1    0    0    0    0  0.00000000000E+00  0.00000000000E+00  0.45593999997E+02  0.45594000000E+02  0.51100000000E-03 0. -1.
         11   -1    0    0    0    0 -0.00000000000E+00 -0.00000000000E+00 -0.45593999997E+02  0.45594000000E+02  0.51100000000E-03 0.  1.
    9900012    2    1    2    0    0  0.36227477047E+02  0.24898505835E+02  0.98360413356E+01  0.46142318795E+02  0.10000009431E+02 0.  0.
        -12    1    1    2    0    0 -0.36227477047E+02 -0.24898505835E+02 -0.98360413356E+01  0.45045681205E+02  0.00000000000E+00 0.  1.
         11    1    3    3    0    0  0.38861647112E+01  0.32889462808E+01  0.41620677790E+01  0.65758841427E+01  0.51100000000E-03 0. -1.
        -11    1    3    3    0    0  0.80296997492E+01  0.76948184530E+01  0.22389231741E+01  0.11344561972E+02  0.51100000000E-03 0.  1.
         12    1    3    3    0    0  0.24311612587E+02  0.13914741101E+02  0.34350503825E+01  0.28221872681E+02  0.00000000000E+00 0. -1.
</event>
<event>
 7    1  0.2001181E-008  0.4614232E+02  0.7816164E-02  0.1320468E+00
        -11   -1    0    0    0    0  0.00000000000E+00  0.00000000000E+00  0.45593999997E+02  0.45594000000E+02  0.51100000000E-03 0.  1.
         11   -1    0    0    0    0 -0.00000000000E+00 -0.00000000000E+00 -0.45593999997E+02  0.45594000000E+02  0.51100000000E-03 0. -1.
    9900012    2    1    2    0    0  0.18482360184E+02  0.29786807720E+02 -0.28288897586E+02  0.46142320088E+02  0.10000021218E+02 0.  0.
        -12    1    1    2    0    0 -0.18482360184E+02 -0.29786807720E+02  0.28288897586E+02  0.45045679912E+02  0.00000000000E+00 0.  1.
         11    1    3    3    0    0  0.58901126951E+01  0.11799940220E+02 -0.12782643817E+02  0.18366491226E+02  0.51100000000E-03 0.  1.
        -11    1    3    3    0    0  0.39493825076E+01  0.50792476900E+01 -0.98027123061E+00  0.65082494754E+01  0.51100000000E-03 0. -1.
         12    1    3    3    0    0  0.86428649811E+01  0.12907619810E+02 -0.14525982538E+02  0.21267579386E+02  0.00000000000E+00 0. -1.
</event>
<event>
 7    1  0.2001181E-008  0.4614232E+02  0.7816164E-02  0.1320468E+00
        -11   -1    0    0    0    0  0.00000000000E+00  0.00000000000E+00  0.45593999997E+02  0.45594000000E+02  0.51100000000E-03 0.  1.
         11   -1    0    0    0    0 -0.00000000000E+00 -0.00000000000E+00 -0.45593999997E+02  0.45594000000E+02  0.51100000000E-03 0. -1.
    9900012    2    1    2    0    0  0.17299163421E+02  0.41361367826E+02 -0.43691772449E+01  0.46142317485E+02  0.99999974819E+01 0.  0.
        -12    1    1    2    0    0 -0.17299163421E+02 -0.41361367826E+02  0.43691772449E+01  0.45045682515E+02  0.00000000000E+00 0.  1.
         11    1    3    3    0    0  0.24460838969E+01  0.45291023497E+01 -0.12095841335E+01  0.52876448975E+01  0.51100000000E-03 0. -1.
        -11    1    3    3    0    0  0.46871676882E+00  0.28218709356E+01  0.21084398361E+01  0.35536136242E+01  0.51100000000E-03 0.  1.
        -12    1    3    3    0    0  0.14384362755E+02  0.34010394540E+02 -0.52680329475E+01  0.37301058963E+02  0.00000000000E+00 0.  1.
</event>
<event>
 7    1  0.2001181E-008  0.4614232E+02  0.7816164E-02  0.1320468E+00
        -11   -1    0    0    0    0  0.00000000000E+00  0.00000000000E+00  0.45593999997E+02  0.45594000000E+02  0.51100000000E-03 0.  1.
         11   -1    0    0    0    0 -0.00000000000E+00 -0.00000000000E+00 -0.45593999997E+02  0.45594000000E+02  0.51100000000E-03 0. -1.
    9900012    2    1    2    0    0  0.16884337567E+02 -0.33260917117E+02 -0.25253592744E+02  0.46142318642E+02  0.10000008029E+02 0.  0.
        -12    1    1    2    0    0 -0.16884337567E+02  0.33260917117E+02  0.25253592744E+02  0.45045681358E+02  0.00000000000E+00 0.  1.
         11    1    3    3    0    0  0.44387847612E+01 -0.86482700711E+01 -0.92659414488E+01  0.13429559061E+02  0.51100000000E-03 0. -1.
        -11    1    3    3    0    0  0.14970007195E+01 -0.58886156060E+01 -0.57245366733E+00  0.61028278996E+01  0.51100000000E-03 0.  1.
        -12    1    3    3    0    0  0.10948552086E+02 -0.18724031440E+02 -0.15415197628E+02  0.26609931681E+02  0.00000000000E+00 0.  1.
</event>
<event>
 7    1  0.2001181E-008  0.4614231E+02  0.7816164E-02  0.1320468E+00
        -11   -1    0    0    0    0  0.00000000000E+00  0.00000000000E+00  0.45593999997E+02  0.45594000000E+02  0.51100000000E-03 0.  1.
         11   -1    0    0    0    0 -0.00000000000E+00 -0.00000000000E+00 -0.45593999997E+02  0.45594000000E+02  0.51100000000E-03 0. -1.
    9900012    2    1    2    0    0 -0.32542897453E+02 -0.29216692499E+01 -0.31008675912E+02  0.46142308667E+02  0.99999170747E+01 0.  0.
        -12    1    1    2    0    0  0.32542897453E+02  0.29216692499E+01  0.31008675912E+02  0.45045691333E+02  0.00000000000E+00 0.  1.
         11    1    3    3    0    0 -0.74586596406E+01  0.15482362019E+01 -0.47526532953E+01  0.89786609568E+01  0.51100000000E-03 0. -1.
        -11    1    3    3    0    0 -0.13626263169E+02 -0.30481034769E+01 -0.97904748375E+01  0.17053427238E+02  0.51100000000E-03 0.  1.
        -12    1    3    3    0    0 -0.11457974643E+02 -0.14218019749E+01 -0.16465547779E+02  0.20110220472E+02  0.00000000000E+00 0.  1.
</event>
<event>
 7    1  0.2001181E-008  0.4614232E+02  0.7816164E-02  0.1320468E+00
        -11   -1    0    0    0    0  0.00000000000E+00  0.00000000000E+00  0.45593999997E+02  0.45594000000E+02  0.51100000000E-03 0.  1.
         11   -1    0    0    0    0 -0.00000000000E+00 -0.00000000000E+00 -0.45593999997E+02  0.45594000000E+02  0.51100000000E-03 0. -1.
    9900012    2    1    2    0    0 -0.43797801719E+02 -0.10501232054E+02  0.76823146652E+00  0.46142317747E+02  0.99999998684E+01 0.  0.
        -12    1    1    2    0    0  0.43797801719E+02  0.10501232054E+02 -0.76823146652E+00  0.45045682253E+02  0.00000000000E+00 0.  1.
         11    1    3    3    0    0 -0.14905589203E+02  0.82133124548E-01  0.18992565370E+01  0.15026327262E+02  0.51100000000E-03 0. -1.
        -11    1    3    3    0    0 -0.77585453763E+01 -0.41913549751E+01  0.12594662186E+01  0.89077908766E+01  0.51100000000E-03 0.  1.
         12    1    3    3    0    0 -0.21133667140E+02 -0.63920102034E+01 -0.23904912891E+01  0.22208199608E+02  0.00000000000E+00 0. -1.
</event>
<event>
 7    1  0.2001181E-008  0.4614232E+02  0.7816164E-02  0.1320468E+00
        -11   -1    0    0    0    0  0.00000000000E+00  0.00000000000E+00  0.45593999997E+02  0.45594000000E+02  0.51100000000E-03 0.  1.
         11   -1    0    0    0    0 -0.00000000000E+00 -0.00000000000E+00 -0.45593999997E+02  0.45594000000E+02  0.51100000000E-03 0. -1.
    9900012    2    1    2    0    0  0.11491586562E+02  0.38651293756E+02 -0.20078203752E+02  0.46142319445E+02  0.10000015352E+02 0.  0.
        -12    1    1    2    0    0 -0.11491586562E+02 -0.38651293756E+02  0.20078203752E+02  0.45045680555E+02  0.00000000000E+00 0.  1.
         11    1    3    3    0    0  0.42941582667E+01  0.47664661813E+01 -0.39864001058E+01  0.75531702709E+01  0.51100000000E-03 0. -1.
        -11    1    3    3    0    0  0.39201778654E+00  0.95533260772E+00  0.43657147168E+00  0.11211303436E+01  0.51100000000E-03 0.  1.
         12    1    3    3    0    0  0.68054105091E+01  0.32929494967E+02 -0.16528375118E+02  0.37468018830E+02  0.00000000000E+00 0. -1.
</event>
<event>
 7    1  0.2001181E-008  0.4614233E+02  0.7816164E-02  0.1320468E+00
        -11   -1    0    0    0    0  0.00000000000E+00  0.00000000000E+00  0.45593999997E+02  0.45594000000E+02  0.51100000000E-03 0. -1.
         11   -1    0    0    0    0 -0.00000000000E+00 -0.00000000000E+00 -0.45593999997E+02  0.45594000000E+02  0.51100000000E-03 0.  1.
    9900012    2    1    2    0    0  0.94009563129E+01  0.42409769143E+02 -0.11922485764E+02  0.46142332449E+02  0.10000133931E+02 0.  0.
        -12    1    1    2    0    0 -0.94009563129E+01 -0.42409769143E+02  0.11922485764E+02  0.45045667551E+02  0.00000000000E+00 0.  1.
         11    1    3    3    0    0  0.33716950875E+01  0.11485903237E+02 -0.20421377836E+01  0.12143501469E+02  0.51100000000E-03 0.  1.
        -11    1    3    3    0    0  0.53622418437E+01  0.30166876386E+02 -0.76941399350E+01  0.31591040788E+02  0.51100000000E-03 0. -1.
        -12    1    3    3    0    0  0.66701938171E+00  0.75698952022E+00 -0.21862080458E+01  0.24077901920E+01  0.00000000000E+00 0.  1.
</event>
<event>
 7    1  0.2001181E-008  0.4614232E+02  0.7816164E-02  0.1320468E+00
        -11   -1    0    0    0    0  0.00000000000E+00  0.00000000000E+00  0.45593999997E+02  0.45594000000E+02  0.51100000000E-03 0.  1.
         11   -1    0    0    0    0 -0.00000000000E+00 -0.00000000000E+00 -0.45593999997E+02  0.45594000000E+02  0.51100000000E-03 0. -1.
    9900012    2    1    2    0    0 -0.12153043468E+02  0.36877151138E+02 -0.22836215528E+02  0.46142317840E+02  0.10000000722E+02 0.  0.
        -12    1    1    2    0    0  0.12153043468E+02 -0.36877151138E+02  0.22836215528E+02  0.45045682160E+02  0.00000000000E+00 0.  1.
         11    1    3    3    0    0 -0.60550910118E+01  0.12759116229E+02 -0.10328230979E+02  0.17496614802E+02  0.51100000000E-03 0. -1.
        -11    1    3    3    0    0  0.94216483089E+00  0.21303843087E+01  0.11634651726E+00  0.23323268734E+01  0.51100000000E-03 0.  1.
        -12    1    3    3    0    0 -0.70401172875E+01  0.21987650600E+02 -0.12624331067E+02  0.26313376165E+02  0.00000000000E+00 0.  1.
</event>
<event>
 7    1  0.2001181E-008  0.4614232E+02  0.7816164E-02  0.1320468E+00
        -11   -1    0    0    0    0  0.00000000000E+00  0.00000000000E+00  0.45593999997E+02  0.45594000000E+02  0.51100000000E-03 0.  1.
         11   -1    0    0    0    0 -0.00000000000E+00 -0.00000000000E+00 -0.45593999997E+02  0.45594000000E+02  0.51100000000E-03 0. -1.
    9900012    2    1    2    0    0  0.29950997533E+02 -0.12580637578E+02 -0.31205428607E+02  0.46142317969E+02  0.10000001896E+02 0.  0.
        -12    1    1    2    0    0 -0.29950997533E+02  0.12580637578E+02  0.31205428607E+02  0.45045682031E+02  0.00000000000E+00 0.  1.
         11    1    3    3    0    0  0.21721892493E+02 -0.11053235168E+02 -0.17565978045E+02  0.30042939372E+02  0.51100000000E-03 0. -1.
        -11    1    3    3    0    0  0.17248986171E+00  0.48039779745E-01  0.11326592215E-02  0.17905897595E+00  0.51100000000E-03 0.  1.
         12    1    3    3    0    0  0.80566151780E+01 -0.15754421896E+01 -0.13640583221E+02  0.15920319621E+02  0.00000000000E+00 0. -1.
</event>
<event>
 7    1  0.2001181E-008  0.4614231E+02  0.7816164E-02  0.1320468E+00
        -11   -1    0    0    0    0  0.00000000000E+00  0.00000000000E+00  0.45593999997E+02  0.45594000000E+02  0.51100000000E-03 0.  1.
         11   -1    0    0    0    0 -0.00000000000E+00 -0.00000000000E+00 -0.45593999997E+02  0.45594000000E+02  0.51100000000E-03 0. -1.
    9900012    2    1    2    0    0 -0.13165380165E+01  0.36028745745E+02 -0.27005755613E+02  0.46142305105E+02  0.99998845907E+01 0.  0.
        -12    1    1    2    0    0  0.13165380165E+01 -0.36028745745E+02  0.27005755613E+02  0.45045694895E+02  0.00000000000E+00 0.  1.
         11    1    3    3    0    0 -0.13075950512E+01  0.13580901695E+02 -0.14755806344E+02  0.20096878285E+02  0.51100000000E-03 0. -1.
        -11    1    3    3    0    0 -0.24907064424E-02  0.37042345029E+01 -0.43272362705E+01  0.56961683137E+01  0.51100000000E-03 0.  1.
         12    1    3    3    0    0 -0.64522587878E-02  0.18743609548E+02 -0.79227129981E+01  0.20349258506E+02  0.00000000000E+00 0. -1.
</event>
<event>
 7    1  0.2001181E-008  0.4614231E+02  0.7816164E-02  0.1320468E+00
        -11   -1    0    0    0    0  0.00000000000E+00  0.00000000000E+00  0.45593999997E+02  0.45594000000E+02  0.51100000000E-03 0. -1.
         11   -1    0    0    0    0 -0.00000000000E+00 -0.00000000000E+00 -0.45593999997E+02  0.45594000000E+02  0.51100000000E-03 0.  1.
    9900012    2    1    2    0    0 -0.18148832665E+02 -0.37233335849E+02  0.17703468726E+02  0.46142309523E+02  0.99999248826E+01 0.  0.
        -12    1    1    2    0    0  0.18148832665E+02  0.37233335849E+02 -0.17703468726E+02  0.45045690477E+02  0.00000000000E+00 0.  1.
         11    1    3    3    0    0 -0.64782306538E+01 -0.11521483347E+02  0.42707258480E+01  0.13890685744E+02  0.51100000000E-03 0. -1.
        -11    1    3    3    0    0 -0.92696675233E+00 -0.10452720810E+02  0.64990066704E+01  0.12343246237E+02  0.51100000000E-03 0.  1.
        -12    1    3    3    0    0 -0.10743635259E+02 -0.15259131692E+02  0.69337362078E+01  0.19908377542E+02  0.00000000000E+00 0.  1.
</event>
<event>
 7    1  0.2001181E-008  0.4614232E+02  0.7816164E-02  0.1320468E+00
        -11   -1    0    0    0    0  0.00000000000E+00  0.00000000000E+00  0.45593999997E+02  0.45594000000E+02  0.51100000000E-03 0.  1.
         11   -1    0    0    0    0 -0.00000000000E+00 -0.00000000000E+00 -0.45593999997E+02  0.45594000000E+02  0.51100000000E-03 0. -1.
    9900012    2    1    2    0    0  0.29580228667E+02 -0.88448506423E+01 -0.32800793232E+02  0.46142319325E+02  0.10000014260E+02 0.  0.
        -12    1    1    2    0    0 -0.29580228667E+02  0.88448506423E+01  0.32800793232E+02  0.45045680675E+02  0.00000000000E+00 0.  1.
         11    1    3    3    0    0  0.91396402737E+01 -0.65049853428E+01 -0.11179930888E+02  0.15837888545E+02  0.51100000000E-03 0. -1.
        -11    1    3    3    0    0  0.57211587357E+01 -0.22922654365E+01 -0.90394856203E+01  0.10940678162E+02  0.51100000000E-03 0.  1.
        -12    1    3    3    0    0  0.14719429657E+02 -0.47599863030E-01 -0.12581376723E+02  0.19363752618E+02  0.00000000000E+00 0.  1.
</event>
<event>
 7    1  0.2001181E-008  0.4614232E+02  0.7816164E-02  0.1320468E+00
        -11   -1    0    0    0    0  0.00000000000E+00  0.00000000000E+00  0.45593999997E+02  0.45594000000E+02  0.51100000000E-03 0.  1.
         11   -1    0    0    0    0 -0.00000000000E+00 -0.00000000000E+00 -0.45593999997E+02  0.45594000000E+02  0.51100000000E-03 0. -1.
    9900012    2    1    2    0    0 -0.44888691117E+02  0.71901120955E+00  0.36880723256E+01  0.46142318245E+02  0.10000004410E+02 0.  0.
        -12    1    1    2    0    0  0.44888691117E+02 -0.71901120955E+00 -0.36880723256E+01  0.45045681755E+02  0.00000000000E+00 0.  1.
         11    1    3    3    0    0 -0.20322649189E+02 -0.28519414300E+01  0.22101560163E+01  0.20640456145E+02  0.51100000000E-03 0. -1.
        -11    1    3    3    0    0 -0.13070086964E+01 -0.97834422095E-01  0.14509047695E+01  0.19552412173E+01  0.51100000000E-03 0.  1.
         12    1    3    3    0    0 -0.23259033232E+02  0.36687870617E+01  0.27011539821E-01  0.23546620883E+02  0.00000000000E+00 0. -1.
</event>
<event>
 7    1  0.2001181E-008  0.4614232E+02  0.7816164E-02  0.1320468E+00
        -11   -1    0    0    0    0  0.00000000000E+00  0.00000000000E+00  0.45593999997E+02  0.45594000000E+02  0.51100000000E-03 0. -1.
         11   -1    0    0    0    0 -0.00000000000E+00 -0.00000000000E+00 -0.45593999997E+02  0.45594000000E+02  0.51100000000E-03 0.  1.
    9900012    2    1    2    0    0  0.28174775951E+02  0.33139991547E+02  0.11706247208E+02  0.46142320259E+02  0.10000022778E+02 0.  0.
        -12    1    1    2    0    0 -0.28174775951E+02 -0.33139991547E+02 -0.11706247208E+02  0.45045679741E+02  0.00000000000E+00 0.  1.
         11    1    3    3    0    0  0.11266830359E+02  0.11212585390E+02  0.91142717250E+01  0.18323031594E+02  0.51100000000E-03 0. -1.
        -11    1    3    3    0    0  0.61465641390E+01  0.74362091866E+01  0.81414386715E+00  0.96819568415E+01  0.51100000000E-03 0.  1.
         12    1    3    3    0    0  0.10761381453E+02  0.14491196971E+02  0.17778316162E+01  0.18137331823E+02  0.00000000000E+00 0. -1.
</event>
<event>
 7    1  0.2001181E-008  0.4614232E+02  0.7816164E-02  0.1320468E+00
        -11   -1    0    0    0    0  0.00000000000E+00  0.00000000000E+00  0.45593999997E+02  0.45594000000E+02  0.51100000000E-03 0.  1.
         11   -1    0    0    0    0 -0.00000000000E+00 -0.00000000000E+00 -0.45593999997E+02  0.45594000000E+02  0.51100000000E-03 0. -1.
    9900012    2    1    2    0    0  0.46890108218E+00  0.18308816366E+02 -0.41154354999E+02  0.46142316962E+02  0.99999927126E+01 0.  0.
        -12    1    1    2    0    0 -0.46890108218E+00 -0.18308816366E+02  0.41154354999E+02  0.45045683038E+02  0.00000000000E+00 0.  1.
         11    1    3    3    0    0 -0.24561219179E+01  0.53874762721E+01 -0.16081013578E+02  0.17136406666E+02  0.51100000000E-03 0. -1.
        -11    1    3    3    0    0  0.29010145924E+01  0.38907229161E+01 -0.13369126662E+02  0.14222769015E+02  0.51100000000E-03 0.  1.
        -12    1    3    3    0    0  0.24008407658E-01  0.90306171780E+01 -0.11704214759E+02  0.14783141281E+02  0.00000000000E+00 0.  1.
</event>
<event>
 7    1  0.2001181E-008  0.4614232E+02  0.7816164E-02  0.1320468E+00
        -11   -1    0    0    0    0  0.00000000000E+00  0.00000000000E+00  0.45593999997E+02  0.45594000000E+02  0.51100000000E-03 0.  1.
         11   -1    0    0    0    0 -0.00000000000E+00 -0.00000000000E+00 -0.45593999997E+02  0.45594000000E+02  0.51100000000E-03 0. -1.
    9900012    2    1    2    0    0 -0.22946603375E+02  0.37582441960E+02  0.94935226829E+01  0.46142317376E+02  0.99999964842E+01 0.  0.
        -12    1    1    2    0    0  0.22946603375E+02 -0.37582441960E+02 -0.94935226829E+01  0.45045682624E+02  0.00000000000E+00 0.  1.
         11    1    3    3    0    0 -0.11225815221E+02  0.23323789394E+02  0.20896533575E+01  0.25968918546E+02  0.51100000000E-03 0. -1.
        -11    1    3    3    0    0 -0.33049572913E+01  0.57441651314E+01  0.39432612222E+01  0.77115163932E+01  0.51100000000E-03 0.  1.
         12    1    3    3    0    0 -0.84158308634E+01  0.85144874353E+01  0.34606081033E+01  0.12461882436E+02  0.00000000000E+00 0. -1.
</event>
<event>
 7    1  0.2001181E-008  0.4614232E+02  0.7816164E-02  0.1320468E+00
        -11   -1    0    0    0    0  0.00000000000E+00  0.00000000000E+00  0.45593999997E+02  0.45594000000E+02  0.51100000000E-03 0. -1.
         11   -1    0    0    0    0 -0.00000000000E+00 -0.00000000000E+00 -0.45593999997E+02  0.45594000000E+02  0.51100000000E-03 0.  1.
    9900012    2    1    2    0    0  0.31159757868E+02  0.19921038880E+02  0.25716440571E+02  0.46142316344E+02  0.99999870755E+01 0.  0.
        -12    1    1    2    0    0 -0.31159757868E+02 -0.19921038880E+02 -0.25716440571E+02  0.45045683656E+02  0.00000000000E+00 0.  1.
         11    1    3    3    0    0  0.60749653970E+01  0.28189457213E+01  0.30014296067E+01  0.73389535698E+01  0.51100000000E-03 0. -1.
        -11    1    3    3    0    0  0.98802435196E+01  0.57502796171E+01  0.13558999083E+02  0.17735032677E+02  0.51100000000E-03 0.  1.
        -12    1    3    3    0    0  0.15204548951E+02  0.11351813542E+02  0.91560118813E+01  0.21068330097E+02  0.00000000000E+00 0.  1.
</event>
<event>
 7    1  0.2001181E-008  0.4614232E+02  0.7816164E-02  0.1320468E+00
        -11   -1    0    0    0    0  0.00000000000E+00  0.00000000000E+00  0.45593999997E+02  0.45594000000E+02  0.51100000000E-03 0. -1.
         11   -1    0    0    0    0 -0.00000000000E+00 -0.00000000000E+00 -0.45593999997E+02  0.45594000000E+02  0.51100000000E-03 0.  1.
    9900012    2    1    2    0    0  0.47182745618E+01  0.37214008916E+02  0.24939306909E+02  0.46142316483E+02  0.99999883460E+01 0.  0.
        -12    1    1    2    0    0 -0.47182745618E+01 -0.37214008916E+02 -0.24939306909E+02  0.45045683517E+02  0.00000000000E+00 0.  1.
         11    1    3    3    0    0  0.12652947693E+01  0.79589836246E+01  0.76023097270E+01  0.11078876506E+02  0.51100000000E-03 0. -1.
        -11    1    3    3    0    0  0.47110623853E+01  0.26299435686E+02  0.17339160615E+02  0.31851231017E+02  0.51100000000E-03 0.  1.
        -12    1    3    3    0    0 -0.12580825928E+01  0.29555896052E+01 -0.21634329954E-02  0.32122089604E+01  0.00000000000E+00 0.  1.
</event>
<event>
 7    1  0.2001181E-008  0.4614232E+02  0.7816164E-02  0.1320468E+00
        -11   -1    0    0    0    0  0.00000000000E+00  0.00000000000E+00  0.45593999997E+02  0.45594000000E+02  0.51100000000E-03 0.  1.
         11   -1    0    0    0    0 -0.00000000000E+00 -0.00000000000E+00 -0.45593999997E+02  0.45594000000E+02  0.51100000000E-03 0. -1.
    9900012    2    1    2    0    0  0.19194286007E+02 -0.72193371301E+01 -0.40107031939E+02  0.46142318133E+02  0.10000003392E+02 0.  0.
        -12    1    1    2    0    0 -0.19194286007E+02  0.72193371301E+01  0.40107031939E+02  0.45045681867E+02  0.00000000000E+00 0.  1.
         11    1    3    3    0    0  0.16516296334E+02 -0.88481942644E+01 -0.31507145162E+02  0.36657588339E+02  0.51100000000E-03 0. -1.
        -11    1    3    3    0    0 -0.43759600759E+00  0.51921305186E+00 -0.17828205128E+01  0.19077530503E+01  0.51100000000E-03 0.  1.
         12    1    3    3    0    0  0.31155856804E+01  0.11096440824E+01 -0.68170662639E+01  0.75769767432E+01  0.00000000000E+00 0. -1.
</event>
<event>
 7    1  0.2001181E-008  0.4614232E+02  0.7816164E-02  0.1320468E+00
        -11   -1    0    0    0    0  0.00000000000E+00  0.00000000000E+00  0.45593999997E+02  0.45594000000E+02  0.51100000000E-03 0. -1.
         11   -1    0    0    0    0 -0.00000000000E+00 -0.00000000000E+00 -0.45593999997E+02  0.45594000000E+02  0.51100000000E-03 0.  1.
    9900012    2    1    2    0    0 -0.13496496704E+02  0.42173857779E+02  0.82658173507E+01  0.46142318301E+02  0.10000004920E+02 0.  0.
        -12    1    1    2    0    0  0.13496496704E+02 -0.42173857779E+02 -0.82658173507E+01  0.45045681699E+02  0.00000000000E+00 0.  1.
         11    1    3    3    0    0 -0.24687254760E+01  0.12418683672E+02  0.27412431749E+01  0.12955026979E+02  0.51100000000E-03 0. -1.
        -11    1    3    3    0    0 -0.26833495011E+01  0.15552805477E+02 -0.94776355990E-01  0.15782873806E+02  0.51100000000E-03 0.  1.
         12    1    3    3    0    0 -0.83444217267E+01  0.14202368631E+02  0.56193505318E+01  0.17404417516E+02  0.00000000000E+00 0. -1.
</event>
<event>
 7    1  0.2001181E-008  0.4614232E+02  0.7816164E-02  0.1320468E+00
        -11   -1    0    0    0    0  0.00000000000E+00  0.00000000000E+00  0.45593999997E+02  0.45594000000E+02  0.51100000000E-03 0.  1.
         11   -1    0    0    0    0 -0.00000000000E+00 -0.00000000000E+00 -0.45593999997E+02  0.45594000000E+02  0.51100000000E-03 0. -1.
    9900012    2    1    2    0    0 -0.11817759575E+02 -0.40421653681E+02  0.15985742175E+02  0.46142317848E+02  0.10000000791E+02 0.  0.
        -12    1    1    2    0    0  0.11817759575E+02  0.40421653681E+02 -0.15985742175E+02  0.45045682152E+02  0.00000000000E+00 0.  1.
         11    1    3    3    0    0  0.91013794772E+00 -0.11284584358E+02  0.47125330076E+01  0.12262877429E+02  0.51100000000E-03 0. -1.
        -11    1    3    3    0    0 -0.24248708278E+01 -0.36340087468E+01  0.76677446066E+00  0.44355339519E+01  0.51100000000E-03 0.  1.
         12    1    3    3    0    0 -0.10303026695E+02 -0.25503060576E+02  0.10506434707E+02  0.29443906467E+02  0.00000000000E+00 0. -1.
</event>
<event>
 7    1  0.2001181E-008  0.4614232E+02  0.7816164E-02  0.1320468E+00
        -11   -1    0    0    0    0  0.00000000000E+00  0.00000000000E+00  0.45593999997E+02  0.45594000000E+02  0.51100000000E-03 0.  1.
         11   -1    0    0    0    0 -0.00000000000E+00 -0.00000000000E+00 -0.45593999997E+02  0.45594000000E+02  0.51100000000E-03 0. -1.
    9900012    2    1    2    0    0  0.16786901436E+02  0.39602970512E+02 -0.13376027023E+02  0.46142318386E+02  0.10000005695E+02 0.  0.
        -12    1    1    2    0    0 -0.16786901436E+02 -0.39602970512E+02  0.13376027023E+02  0.45045681614E+02  0.00000000000E+00 0.  1.
         11    1    3    3    0    0  0.36422508909E+01  0.17769229300E+02 -0.82272701053E+01  0.19917315961E+02  0.51100000000E-03 0. -1.
        -11    1    3    3    0    0  0.91574087962E+01  0.16243563695E+02 -0.22896073146E+01  0.18787064680E+02  0.51100000000E-03 0.  1.
        -12    1    3    3    0    0  0.39872417489E+01  0.55901775175E+01 -0.28591496034E+01  0.74379377448E+01  0.00000000000E+00 0.  1.
</event>
<event>
 7    1  0.2001181E-008  0.4614231E+02  0.7816164E-02  0.1320468E+00
        -11   -1    0    0    0    0  0.00000000000E+00  0.00000000000E+00  0.45593999997E+02  0.45594000000E+02  0.51100000000E-03 0.  1.
         11   -1    0    0    0    0 -0.00000000000E+00 -0.00000000000E+00 -0.45593999997E+02  0.45594000000E+02  0.51100000000E-03 0. -1.
    9900012    2    1    2    0    0  0.39743646705E+02  0.13302794193E+02 -0.16510360756E+02  0.46142314312E+02  0.99999685477E+01 0.  0.
        -12    1    1    2    0    0 -0.39743646705E+02 -0.13302794193E+02  0.16510360756E+02  0.45045685688E+02  0.00000000000E+00 0.  1.
         11    1    3    3    0    0  0.17228336933E+02  0.46651613236E+01 -0.50133428465E+01  0.18539496498E+02  0.51100000000E-03 0. -1.
        -11    1    3    3    0    0  0.13078094701E+02  0.65352527526E+01 -0.34450201096E+01  0.15020461157E+02  0.51100000000E-03 0.  1.
        -12    1    3    3    0    0  0.94372150715E+01  0.21023801173E+01 -0.80519978003E+01  0.12582356657E+02  0.00000000000E+00 0.  1.
</event>
<event>
 7    1  0.2001181E-008  0.4614232E+02  0.7816164E-02  0.1320468E+00
        -11   -1    0    0    0    0  0.00000000000E+00  0.00000000000E+00  0.45593999997E+02  0.45594000000E+02  0.51100000000E-03 0.  1.
         11   -1    0    0    0    0 -0.00000000000E+00 -0.00000000000E+00 -0.45593999997E+02  0.45594000000E+02  0.51100000000E-03 0. -1.
    9900012    2    1    2    0    0 -0.41046727213E+02 -0.16463398558E+02 -0.85578094235E+01  0.46142318640E+02  0.10000008018E+02 0.  0.
        -12    1    1    2    0    0  0.41046727213E+02  0.16463398558E+02  0.85578094235E+01  0.45045681360E+02  0.00000000000E+00 0.  1.
         11    1    3    3    0    0 -0.24199317482E+02 -0.12952995766E+02 -0.52052747144E+01  0.27937107063E+02  0.51100000000E-03 0. -1.
        -11    1    3    3    0    0 -0.33995494929E+01 -0.16868447849E+01  0.10506965962E+01  0.39378097569E+01  0.51100000000E-03 0.  1.
        -12    1    3    3    0    0 -0.13447860238E+02 -0.18235580080E+01 -0.44032313053E+01  0.14267401821E+02  0.00000000000E+00 0.  1.
</event>
<event>
 7    1  0.2001181E-008  0.4614232E+02  0.7816164E-02  0.1320468E+00
        -11   -1    0    0    0    0  0.00000000000E+00  0.00000000000E+00  0.45593999997E+02  0.45594000000E+02  0.51100000000E-03 0.  1.
         11   -1    0    0    0    0 -0.00000000000E+00 -0.00000000000E+00 -0.45593999997E+02  0.45594000000E+02  0.51100000000E-03 0. -1.
    9900012    2    1    2    0    0 -0.30477529941E+02 -0.27986950844E+02 -0.17803489162E+02  0.46142317907E+02  0.10000001331E+02 0.  0.
        -12    1    1    2    0    0  0.30477529941E+02  0.27986950844E+02  0.17803489162E+02  0.45045682093E+02  0.00000000000E+00 0.  1.
         11    1    3    3    0    0 -0.40853846257E+01 -0.19449631492E+01 -0.43851982367E+01  0.63010485658E+01  0.51100000000E-03 0. -1.
        -11    1    3    3    0    0 -0.92340553132E+00 -0.12250438716E+01 -0.19422315568E+01  0.24750098876E+01  0.51100000000E-03 0.  1.
         12    1    3    3    0    0 -0.25468739784E+02 -0.24816943823E+02 -0.11476059369E+02  0.37366259454E+02  0.00000000000E+00 0. -1.
</event>
<event>
 7    1  0.2001181E-008  0.4614232E+02  0.7816164E-02  0.1320468E+00
        -11   -1    0    0    0    0  0.00000000000E+00  0.00000000000E+00  0.45593999997E+02  0.45594000000E+02  0.51100000000E-03 0.  1.
         11   -1    0    0    0    0 -0.00000000000E+00 -0.00000000000E+00 -0.45593999997E+02  0.45594000000E+02  0.51100000000E-03 0. -1.
    9900012    2    1    2    0    0  0.71565695031E+01  0.26799982209E+02 -0.35491660324E+02  0.46142317787E+02  0.10000000238E+02 0.  0.
        -12    1    1    2    0    0 -0.71565695031E+01 -0.26799982209E+02  0.35491660324E+02  0.45045682213E+02  0.00000000000E+00 0.  1.
         11    1    3    3    0    0  0.20152373811E+01  0.21845489869E+01 -0.68945678105E+01  0.75078959458E+01  0.51100000000E-03 0.  1.
        -11    1    3    3    0    0  0.52000002446E+01  0.10323504191E+02 -0.14692541679E+02  0.18694531890E+02  0.51100000000E-03 0. -1.
         12    1    3    3    0    0 -0.58668122563E-01  0.14291929031E+02 -0.13904550834E+02  0.19939889951E+02  0.00000000000E+00 0. -1.
</event>
<event>
 7    1  0.2001181E-008  0.4614232E+02  0.7816164E-02  0.1320468E+00
        -11   -1    0    0    0    0  0.00000000000E+00  0.00000000000E+00  0.45593999997E+02  0.45594000000E+02  0.51100000000E-03 0. -1.
         11   -1    0    0    0    0 -0.00000000000E+00 -0.00000000000E+00 -0.45593999997E+02  0.45594000000E+02  0.51100000000E-03 0.  1.
    9900012    2    1    2    0    0 -0.19337507697E+02  0.16115629514E+02  0.37355866387E+02  0.46142317942E+02  0.10000001649E+02 0.  0.
        -12    1    1    2    0    0  0.19337507697E+02 -0.16115629514E+02 -0.37355866387E+02  0.45045682058E+02  0.00000000000E+00 0.  1.
         11    1    3    3    0    0 -0.57933564787E+01  0.35813580035E+01  0.62204372360E+01  0.92240416362E+01  0.51100000000E-03 0. -1.
        -11    1    3    3    0    0 -0.46076371247E+00  0.23601787340E+01  0.86922228433E+01  0.90187296819E+01  0.51100000000E-03 0.  1.
         12    1    3    3    0    0 -0.13083387506E+02  0.10174092777E+02  0.22443206307E+02  0.27899546624E+02  0.00000000000E+00 0. -1.
</event>
<event>
 7    1  0.2001181E-008  0.4614232E+02  0.7816164E-02  0.1320468E+00
        -11   -1    0    0    0    0  0.00000000000E+00  0.00000000000E+00  0.45593999997E+02  0.45594000000E+02  0.51100000000E-03 0. -1.
         11   -1    0    0    0    0 -0.00000000000E+00 -0.00000000000E+00 -0.45593999997E+02  0.45594000000E+02  0.51100000000E-03 0.  1.
    9900012    2    1    2    0    0 -0.27592755659E+02 -0.26875141205E+02  0.23355516959E+02  0.46142317054E+02  0.99999935523E+01 0.  0.
        -12    1    1    2    0    0  0.27592755659E+02  0.26875141205E+02 -0.23355516959E+02  0.45045682946E+02  0.00000000000E+00 0.  1.
         11    1    3    3    0    0 -0.95973478818E+01 -0.58397417266E+01  0.35572189445E+01  0.11784119682E+02  0.51100000000E-03 0. -1.
        -11    1    3    3    0    0 -0.18185001924E+02 -0.21094323031E+02  0.19777306888E+02  0.34158551303E+02  0.51100000000E-03 0.  1.
         12    1    3    3    0    0  0.18959414689E+00  0.58923552274E-01  0.20991126137E-01  0.19964606914E+00  0.00000000000E+00 0. -1.
</event>
<event>
 7    1  0.2001181E-008  0.4614232E+02  0.7816164E-02  0.1320468E+00
        -11   -1    0    0    0    0  0.00000000000E+00  0.00000000000E+00  0.45593999997E+02  0.45594000000E+02  0.51100000000E-03 0. -1.
         11   -1    0    0    0    0 -0.00000000000E+00 -0.00000000000E+00 -0.45593999997E+02  0.45594000000E+02  0.51100000000E-03 0.  1.
    9900012    2    1    2    0    0 -0.20333036073E+02  0.39317511109E+02 -0.83555057849E+01  0.46142317491E+02  0.99999975409E+01 0.  0.
        -12    1    1    2    0    0  0.20333036073E+02 -0.39317511109E+02  0.83555057849E+01  0.45045682509E+02  0.00000000000E+00 0.  1.
         11    1    3    3    0    0 -0.10567326679E+02  0.21998307825E+02 -0.43646754615E+01  0.24792021548E+02  0.51100000000E-03 0. -1.
        -11    1    3    3    0    0 -0.47083499028E+01  0.11952854100E+02 -0.52344870885E+01  0.13872243340E+02  0.51100000000E-03 0.  1.
        -12    1    3    3    0    0 -0.50573594914E+01  0.53663491840E+01  0.12436567651E+01  0.74780526034E+01  0.00000000000E+00 0.  1.
</event>
<event>
 7    1  0.2001181E-008  0.4614232E+02  0.7816164E-02  0.1320468E+00
        -11   -1    0    0    0    0  0.00000000000E+00  0.00000000000E+00  0.45593999997E+02  0.45594000000E+02  0.51100000000E-03 0.  1.
         11   -1    0    0    0    0 -0.00000000000E+00 -0.00000000000E+00 -0.45593999997E+02  0.45594000000E+02  0.51100000000E-03 0. -1.
    9900012    2    1    2    0    0 -0.29309225864E+02  0.11987722576E+01 -0.34185462273E+02  0.46142316450E+02  0.99999880447E+01 0.  0.
        -12    1    1    2    0    0  0.29309225864E+02 -0.11987722576E+01  0.34185462273E+02  0.45045683550E+02  0.00000000000E+00 0.  1.
         11    1    3    3    0    0 -0.78248359583E+01  0.71078291868E-01 -0.13146023797E+02  0.15298727131E+02  0.51100000000E-03 0. -1.
        -11    1    3    3    0    0 -0.32516858208E+01 -0.26449242538E+00 -0.72209170030E+01  0.79237023888E+01  0.51100000000E-03 0.  1.
         12    1    3    3    0    0 -0.18232704085E+02  0.13921863911E+01 -0.13818521473E+02  0.22919886930E+02  0.00000000000E+00 0. -1.
</event>
<event>
 7    1  0.2001181E-008  0.4614232E+02  0.7816164E-02  0.1320468E+00
        -11   -1    0    0    0    0  0.00000000000E+00  0.00000000000E+00  0.45593999997E+02  0.45594000000E+02  0.51100000000E-03 0. -1.
         11   -1    0    0    0    0 -0.00000000000E+00 -0.00000000000E+00 -0.45593999997E+02  0.45594000000E+02  0.51100000000E-03 0.  1.
    9900012    2    1    2    0    0  0.14076715672E+02 -0.33771590267E+02  0.26276210565E+02  0.46142317910E+02  0.10000001359E+02 0.  0.
        -12    1    1    2    0    0 -0.14076715672E+02  0.33771590267E+02 -0.26276210565E+02  0.45045682090E+02  0.00000000000E+00 0.  1.
         11    1    3    3    0    0 -0.58256285947E+00 -0.37611014683E+01  0.13357734031E+01  0.40335535927E+01  0.51100000000E-03 0.  1.
        -11    1    3    3    0    0  0.13888647163E+02 -0.27938178189E+02  0.21059591300E+02  0.37642299432E+02  0.51100000000E-03 0. -1.
         12    1    3    3    0    0  0.77063136854E+00 -0.20723106098E+01  0.38808458618E+01  0.44664648854E+01  0.00000000000E+00 0. -1.
</event>
<event>
 7    1  0.2001181E-008  0.4614232E+02  0.7816164E-02  0.1320468E+00
        -11   -1    0    0    0    0  0.00000000000E+00  0.00000000000E+00  0.45593999997E+02  0.45594000000E+02  0.51100000000E-03 0. -1.
         11   -1    0    0    0    0 -0.00000000000E+00 -0.00000000000E+00 -0.45593999997E+02  0.45594000000E+02  0.51100000000E-03 0.  1.
    9900012    2    1    2    0    0  0.32041693209E+02  0.30573254923E+02  0.82291741077E+01  0.46142319554E+02  0.10000016352E+02 0.  0.
        -12    1    1    2    0    0 -0.32041693209E+02 -0.30573254923E+02 -0.82291741077E+01  0.45045680446E+02  0.00000000000E+00 0.  1.
         11    1    3    3    0    0  0.23939896061E+02  0.19592996468E+02  0.36792814034E+01  0.31153510972E+02  0.51100000000E-03 0. -1.
        -11    1    3    3    0    0  0.41054477299E+01  0.24090780037E+01  0.85866169315E+00  0.48369058348E+01  0.51100000000E-03 0.  1.
        -12    1    3    3    0    0  0.39963494187E+01  0.85711804521E+01  0.36912310111E+01  0.10151902748E+02  0.00000000000E+00 0.  1.
</event>
<event>
 7    1  0.2001181E-008  0.4614232E+02  0.7816164E-02  0.1320468E+00
        -11   -1    0    0    0    0  0.00000000000E+00  0.00000000000E+00  0.45593999997E+02  0.45594000000E+02  0.51100000000E-03 0. -1.
         11   -1    0    0    0    0 -0.00000000000E+00 -0.00000000000E+00 -0.45593999997E+02  0.45594000000E+02  0.51100000000E-03 0.  1.
    9900012    2    1    2    0    0  0.40692597806E+02 -0.13078500974E+02  0.14218958642E+02  0.46142317757E+02  0.99999999587E+01 0.  0.
        -12    1    1    2    0    0 -0.40692597806E+02  0.13078500974E+02 -0.14218958642E+02  0.45045682243E+02  0.00000000000E+00 0.  1.
         11    1    3    3    0    0  0.15674502972E+02 -0.49588945011E+01  0.34910071707E+01  0.16806778675E+02  0.51100000000E-03 0. -1.
        -11    1    3    3    0    0  0.11918582336E+02 -0.25982827125E+00  0.34284027517E+01  0.12404598394E+02  0.51100000000E-03 0.  1.
        -12    1    3    3    0    0  0.13099512498E+02 -0.78597782021E+01  0.72995487196E+01  0.16930940688E+02  0.00000000000E+00 0.  1.
</event>
<event>
 7    1  0.2001181E-008  0.4614232E+02  0.7816164E-02  0.1320468E+00
        -11   -1    0    0    0    0  0.00000000000E+00  0.00000000000E+00  0.45593999997E+02  0.45594000000E+02  0.51100000000E-03 0.  1.
         11   -1    0    0    0    0 -0.00000000000E+00 -0.00000000000E+00 -0.45593999997E+02  0.45594000000E+02  0.51100000000E-03 0. -1.
    9900012    2    1    2    0    0 -0.99746404265E+01 -0.39508808195E+02 -0.19200888909E+02  0.46142317504E+02  0.99999976555E+01 0.  0.
        -12    1    1    2    0    0  0.99746404265E+01  0.39508808195E+02  0.19200888909E+02  0.45045682496E+02  0.00000000000E+00 0.  1.
         11    1    3    3    0    0 -0.70870789606E-01 -0.37994182627E+01 -0.78869848689E+00  0.38810626596E+01  0.51100000000E-03 0.  1.
        -11    1    3    3    0    0 -0.38662833255E+01 -0.26203839822E+02 -0.15254106676E+02  0.30565947375E+02  0.51100000000E-03 0. -1.
         12    1    3    3    0    0 -0.60374863114E+01 -0.95055501107E+01 -0.31580837458E+01  0.11695307470E+02  0.00000000000E+00 0. -1.
</event>
<event>
 7    1  0.2001181E-008  0.4614232E+02  0.7816164E-02  0.1320468E+00
        -11   -1    0    0    0    0  0.00000000000E+00  0.00000000000E+00  0.45593999997E+02  0.45594000000E+02  0.51100000000E-03 0. -1.
         11   -1    0    0    0    0 -0.00000000000E+00 -0.00000000000E+00 -0.45593999997E+02  0.45594000000E+02  0.51100000000E-03 0.  1.
    9900012    2    1    2    0    0  0.34366374040E+02  0.12116696012E+02 -0.26481153534E+02  0.46142317861E+02  0.10000000909E+02 0.  0.
        -12    1    1    2    0    0 -0.34366374040E+02 -0.12116696012E+02  0.26481153534E+02  0.45045682139E+02  0.00000000000E+00 0.  1.
         11    1    3    3    0    0  0.16252126491E+02  0.76879575577E+01 -0.10405492447E+02  0.20772832744E+02  0.51100000000E-03 0. -1.
        -11    1    3    3    0    0  0.70635425862E+01  0.38829870524E+01 -0.40235895950E+01  0.90089120212E+01  0.51100000000E-03 0.  1.
         12    1    3    3    0    0  0.11050704962E+02  0.54575140223E+00 -0.12052071492E+02  0.16360573095E+02  0.00000000000E+00 0. -1.
</event>
<event>
 7    1  0.2001181E-008  0.4614232E+02  0.7816164E-02  0.1320468E+00
        -11   -1    0    0    0    0  0.00000000000E+00  0.00000000000E+00  0.45593999997E+02  0.45594000000E+02  0.51100000000E-03 0.  1.
         11   -1    0    0    0    0 -0.00000000000E+00 -0.00000000000E+00 -0.45593999997E+02  0.45594000000E+02  0.51100000000E-03 0. -1.
    9900012    2    1    2    0    0  0.23493100752E+02  0.24009311258E+02  0.30012343738E+02  0.46142316670E+02  0.99999900490E+01 0.  0.
        -12    1    1    2    0    0 -0.23493100752E+02 -0.24009311258E+02 -0.30012343738E+02  0.45045683330E+02  0.00000000000E+00 0.  1.
         11    1    3    3    0    0  0.17786143364E+01  0.64034177942E+01  0.40926501734E+01  0.78049352405E+01  0.51100000000E-03 0. -1.
        -11    1    3    3    0    0  0.51225510146E+01  0.21763286135E+01  0.44916779608E+01  0.71520700707E+01  0.51100000000E-03 0.  1.
         12    1    3    3    0    0  0.16591935401E+02  0.15429564850E+02  0.21428015604E+02  0.31185311359E+02  0.00000000000E+00 0. -1.
</event>
<event>
 7    1  0.2001181E-008  0.4614232E+02  0.7816164E-02  0.1320468E+00
        -11   -1    0    0    0    0  0.00000000000E+00  0.00000000000E+00  0.45593999997E+02  0.45594000000E+02  0.51100000000E-03 0.  1.
         11   -1    0    0    0    0 -0.00000000000E+00 -0.00000000000E+00 -0.45593999997E+02  0.45594000000E+02  0.51100000000E-03 0. -1.
    9900012    2    1    2    0    0  0.36840517835E+02 -0.20319055666E+02 -0.16094276000E+02  0.46142317660E+02  0.99999990788E+01 0.  0.
        -12    1    1    2    0    0 -0.36840517835E+02  0.20319055666E+02  0.16094276000E+02  0.45045682340E+02  0.00000000000E+00 0.  1.
         11    1    3    3    0    0  0.12843394149E+02 -0.91132269520E+01 -0.33588685862E+01  0.16102350052E+02  0.51100000000E-03 0. -1.
        -11    1    3    3    0    0  0.61231846789E+01 -0.11603964121E+01 -0.54551560039E+01  0.82824294584E+01  0.51100000000E-03 0.  1.
        -12    1    3    3    0    0  0.17873939007E+02 -0.10045432302E+02 -0.72802514095E+01  0.21757538150E+02  0.00000000000E+00 0.  1.
</event>
<event>
 7    1  0.2001181E-008  0.4614232E+02  0.7816164E-02  0.1320468E+00
        -11   -1    0    0    0    0  0.00000000000E+00  0.00000000000E+00  0.45593999997E+02  0.45594000000E+02  0.51100000000E-03 0. -1.
         11   -1    0    0    0    0 -0.00000000000E+00 -0.00000000000E+00 -0.45593999997E+02  0.45594000000E+02  0.51100000000E-03 0.  1.
    9900012    2    1    2    0    0 -0.17584636092E+02  0.11468150425E+02  0.39854432153E+02  0.46142315823E+02  0.99999823293E+01 0.  0.
        -12    1    1    2    0    0  0.17584636092E+02 -0.11468150425E+02 -0.39854432153E+02  0.45045684177E+02  0.00000000000E+00 0.  1.
         11    1    3    3    0    0 -0.61392285050E+01  0.33343313261E+01  0.84058269183E+01  0.10930042016E+02  0.51100000000E-03 0. -1.
        -11    1    3    3    0    0 -0.38396902054E+01  0.71306559121E+01  0.17789463383E+02  0.19546214015E+02  0.51100000000E-03 0.  1.
        -12    1    3    3    0    0 -0.76057173820E+01  0.10031631870E+01  0.13659141852E+02  0.15666059792E+02  0.00000000000E+00 0.  1.
</event>
<event>
 7    1  0.2001181E-008  0.4614232E+02  0.7816164E-02  0.1320468E+00
        -11   -1    0    0    0    0  0.00000000000E+00  0.00000000000E+00  0.45593999997E+02  0.45594000000E+02  0.51100000000E-03 0.  1.
         11   -1    0    0    0    0 -0.00000000000E+00 -0.00000000000E+00 -0.45593999997E+02  0.45594000000E+02  0.51100000000E-03 0. -1.
    9900012    2    1    2    0    0  0.37949460078E+02  0.93842612061E+01 -0.22380521794E+02  0.46142316141E+02  0.99999852272E+01 0.  0.
        -12    1    1    2    0    0 -0.37949460078E+02 -0.93842612061E+01  0.22380521794E+02  0.45045683859E+02  0.00000000000E+00 0.  1.
         11    1    3    3    0    0  0.88218769435E+01  0.35827596431E+01 -0.49089886303E+01  0.10712602350E+02  0.51100000000E-03 0. -1.
        -11    1    3    3    0    0  0.26210161834E+02  0.33847117981E+01 -0.12654125249E+02  0.29301121880E+02  0.51100000000E-03 0.  1.
         12    1    3    3    0    0  0.29174212998E+01  0.24167897649E+01 -0.48174079142E+01  0.61285919117E+01  0.00000000000E+00 0. -1.
</event>
<event>
 7    1  0.2001181E-008  0.4614232E+02  0.7816164E-02  0.1320468E+00
        -11   -1    0    0    0    0  0.00000000000E+00  0.00000000000E+00  0.45593999997E+02  0.45594000000E+02  0.51100000000E-03 0.  1.
         11   -1    0    0    0    0 -0.00000000000E+00 -0.00000000000E+00 -0.45593999997E+02  0.45594000000E+02  0.51100000000E-03 0. -1.
    9900012    2    1    2    0    0 -0.37082888441E+01  0.37703766644E+02 -0.24367766911E+02  0.46142317748E+02  0.99999998833E+01 0.  0.
        -12    1    1    2    0    0  0.37082888441E+01 -0.37703766644E+02  0.24367766911E+02  0.45045682252E+02  0.00000000000E+00 0.  1.
         11    1    3    3    0    0 -0.21654316580E+01  0.74804299006E+01 -0.23241296442E+01  0.81269615864E+01  0.51100000000E-03 0. -1.
        -11    1    3    3    0    0 -0.11097061898E+01  0.11248694386E+02 -0.12212846775E+02  0.16640859347E+02  0.51100000000E-03 0.  1.
         12    1    3    3    0    0 -0.43315099629E+00  0.18974642357E+02 -0.98307904924E+01  0.21374496815E+02  0.00000000000E+00 0. -1.
</event>
<event>
 7    1  0.2001181E-008  0.4614232E+02  0.7816164E-02  0.1320468E+00
        -11   -1    0    0    0    0  0.00000000000E+00  0.00000000000E+00  0.45593999997E+02  0.45594000000E+02  0.51100000000E-03 0. -1.
         11   -1    0    0    0    0 -0.00000000000E+00 -0.00000000000E+00 -0.45593999997E+02  0.45594000000E+02  0.51100000000E-03 0.  1.
    9900012    2    1    2    0    0 -0.34669552610E+02 -0.27966160077E+02 -0.67104029937E+01  0.46142317677E+02  0.99999992325E+01 0.  0.
        -12    1    1    2    0    0  0.34669552610E+02  0.27966160077E+02  0.67104029937E+01  0.45045682323E+02  0.00000000000E+00 0.  1.
         11    1    3    3    0    0 -0.12290669078E+02 -0.99098362988E+01  0.35865334574E+00  0.15792214358E+02  0.51100000000E-03 0. -1.
        -11    1    3    3    0    0 -0.48349086288E+01 -0.78364678042E+01 -0.19802773868E+01  0.94184960522E+01  0.51100000000E-03 0.  1.
        -12    1    3    3    0    0 -0.17543974904E+02 -0.10219855973E+02 -0.50887789527E+01  0.20931607267E+02  0.00000000000E+00 0.  1.
</event>
<event>
 7    1  0.2001181E-008  0.4614232E+02  0.7816164E-02  0.1320468E+00
        -11   -1    0    0    0    0  0.00000000000E+00  0.00000000000E+00  0.45593999997E+02  0.45594000000E+02  0.51100000000E-03 0. -1.
         11   -1    0    0    0    0 -0.00000000000E+00 -0.00000000000E+00 -0.45593999997E+02  0.45594000000E+02  0.51100000000E-03 0.  1.
    9900012    2    1    2    0    0 -0.75699688497E+01  0.39936758435E+02 -0.19412996783E+02  0.46142317113E+02  0.99999940916E+01 0.  0.
        -12    1    1    2    0    0  0.75699688497E+01 -0.39936758435E+02  0.19412996783E+02  0.45045682887E+02  0.00000000000E+00 0.  1.
         11    1    3    3    0    0 -0.28034075682E+00  0.32541370606E+01 -0.27805632603E+01  0.42894674792E+01  0.51100000000E-03 0. -1.
        -11    1    3    3    0    0 -0.27498857362E+01  0.32643175124E+01 -0.39691657529E+01  0.58285433360E+01  0.51100000000E-03 0.  1.
        -12    1    3    3    0    0 -0.45397423567E+01  0.33418303862E+02 -0.12663267770E+02  0.36024306298E+02  0.00000000000E+00 0.  1.
</event>
<event>
 7    1  0.2001181E-008  0.4614232E+02  0.7816164E-02  0.1320468E+00
        -11   -1    0    0    0    0  0.00000000000E+00  0.00000000000E+00  0.45593999997E+02  0.45594000000E+02  0.51100000000E-03 0.  1.
         11   -1    0    0    0    0 -0.00000000000E+00 -0.00000000000E+00 -0.45593999997E+02  0.45594000000E+02  0.51100000000E-03 0. -1.
    9900012    2    1    2    0    0  0.15253785209E+02  0.31932166473E+02 -0.27870634529E+02  0.46142317766E+02  0.10000000048E+02 0.  0.
        -12    1    1    2    0    0 -0.15253785209E+02 -0.31932166473E+02  0.27870634529E+02  0.45045682234E+02  0.00000000000E+00 0.  1.
         11    1    3    3    0    0  0.19295398680E+01  0.13418380600E+01 -0.25793796321E+01  0.34895347869E+01  0.51100000000E-03 0.  1.
        -11    1    3    3    0    0  0.61606381807E+01  0.20634375742E+02 -0.19650360052E+02  0.29152488324E+02  0.51100000000E-03 0. -1.
         12    1    3    3    0    0  0.71636071599E+01  0.99559526714E+01 -0.56408948447E+01  0.13500294656E+02  0.00000000000E+00 0. -1.
</event>
<event>
 7    1  0.2001181E-008  0.4614232E+02  0.7816164E-02  0.1320468E+00
        -11   -1    0    0    0    0  0.00000000000E+00  0.00000000000E+00  0.45593999997E+02  0.45594000000E+02  0.51100000000E-03 0.  1.
         11   -1    0    0    0    0 -0.00000000000E+00 -0.00000000000E+00 -0.45593999997E+02  0.45594000000E+02  0.51100000000E-03 0. -1.
    9900012    2    1    2    0    0  0.60772027700E+01 -0.12193079077E+02 -0.42936115686E+02  0.46142316510E+02  0.99999885923E+01 0.  0.
        -12    1    1    2    0    0 -0.60772027700E+01  0.12193079077E+02  0.42936115686E+02  0.45045683490E+02  0.00000000000E+00 0.  1.
         11    1    3    3    0    0  0.13718634248E+01 -0.36981385721E+01 -0.41956057891E+01  0.57585889203E+01  0.51100000000E-03 0. -1.
        -11    1    3    3    0    0  0.53272551374E+01 -0.84316198891E+01 -0.29867401065E+02  0.31488625056E+02  0.51100000000E-03 0.  1.
        -12    1    3    3    0    0 -0.62191579223E+00 -0.63320615498E-01 -0.88731088314E+01  0.88951025338E+01  0.00000000000E+00 0.  1.
</event>
<event>
 7    1  0.2001181E-008  0.4614232E+02  0.7816164E-02  0.1320468E+00
        -11   -1    0    0    0    0  0.00000000000E+00  0.00000000000E+00  0.45593999997E+02  0.45594000000E+02  0.51100000000E-03 0.  1.
         11   -1    0    0    0    0 -0.00000000000E+00 -0.00000000000E+00 -0.45593999997E+02  0.45594000000E+02  0.51100000000E-03 0. -1.
    9900012    2    1    2    0    0 -0.30140272118E+02  0.31605225673E+02 -0.11035722387E+02  0.46142318056E+02  0.10000002692E+02 0.  0.
        -12    1    1    2    0    0  0.30140272118E+02 -0.31605225673E+02  0.11035722387E+02  0.45045681944E+02  0.00000000000E+00 0.  1.
         11    1    3    3    0    0 -0.44464128845E+01  0.11343134668E+01 -0.26972235321E+01  0.53228065552E+01  0.51100000000E-03 0. -1.
        -11    1    3    3    0    0 -0.75113764209E+00  0.55057971855E+00  0.17256553424E+00  0.94716677970E+00  0.51100000000E-03 0.  1.
         12    1    3    3    0    0 -0.24942721591E+02  0.29920332488E+02 -0.85110643894E+01  0.39872344721E+02  0.00000000000E+00 0. -1.
</event>
<event>
 7    1  0.2001181E-008  0.4614232E+02  0.7816164E-02  0.1320468E+00
        -11   -1    0    0    0    0  0.00000000000E+00  0.00000000000E+00  0.45593999997E+02  0.45594000000E+02  0.51100000000E-03 0.  1.
         11   -1    0    0    0    0 -0.00000000000E+00 -0.00000000000E+00 -0.45593999997E+02  0.45594000000E+02  0.51100000000E-03 0. -1.
    9900012    2    1    2    0    0  0.16757746288E+01 -0.40100330340E+02 -0.20451619579E+02  0.46142318105E+02  0.10000003134E+02 0.  0.
        -12    1    1    2    0    0 -0.16757746288E+01  0.40100330340E+02  0.20451619579E+02  0.45045681895E+02  0.00000000000E+00 0.  1.
         11    1    3    3    0    0  0.10222579808E+01 -0.63741265396E+01 -0.35558632659E+01  0.73701196971E+01  0.51100000000E-03 0. -1.
        -11    1    3    3    0    0  0.31401860823E+01 -0.30204995375E+02 -0.16157668808E+02  0.34398732183E+02  0.51100000000E-03 0.  1.
        -12    1    3    3    0    0 -0.24866694343E+01 -0.35212084261E+01 -0.73808750492E+00  0.43734662249E+01  0.00000000000E+00 0.  1.
</event>
<event>
 7    1  0.2001181E-008  0.4614232E+02  0.7816164E-02  0.1320468E+00
        -11   -1    0    0    0    0  0.00000000000E+00  0.00000000000E+00  0.45593999997E+02  0.45594000000E+02  0.51100000000E-03 0.  1.
         11   -1    0    0    0    0 -0.00000000000E+00 -0.00000000000E+00 -0.45593999997E+02  0.45594000000E+02  0.51100000000E-03 0. -1.
    9900012    2    1    2    0    0  0.22571062604E+02  0.30391018337E+02 -0.24414064777E+02  0.46142318502E+02  0.10000006759E+02 0.  0.
        -12    1    1    2    0    0 -0.22571062604E+02 -0.30391018337E+02  0.24414064777E+02  0.45045681498E+02  0.00000000000E+00 0.  1.
         11    1    3    3    0    0  0.47380548401E+01  0.71478343155E+01 -0.71314698973E+01  0.11153410341E+02  0.51100000000E-03 0.  1.
        -11    1    3    3    0    0  0.15874200692E+02  0.23253841406E+02 -0.14743715526E+02  0.31782204698E+02  0.51100000000E-03 0. -1.
        -12    1    3    3    0    0  0.19588070726E+01 -0.10657384204E-01 -0.25388793540E+01  0.32067034633E+01  0.00000000000E+00 0.  1.
</event>
<event>
 7    1  0.2001181E-008  0.4614232E+02  0.7816164E-02  0.1320468E+00
        -11   -1    0    0    0    0  0.00000000000E+00  0.00000000000E+00  0.45593999997E+02  0.45594000000E+02  0.51100000000E-03 0. -1.
         11   -1    0    0    0    0 -0.00000000000E+00 -0.00000000000E+00 -0.45593999997E+02  0.45594000000E+02  0.51100000000E-03 0.  1.
    9900012    2    1    2    0    0 -0.40166819367E+02  0.19568725620E+02  0.57275688164E+01  0.46142318242E+02  0.10000004388E+02 0.  0.
        -12    1    1    2    0    0  0.40166819367E+02 -0.19568725620E+02 -0.57275688164E+01  0.45045681758E+02  0.00000000000E+00 0.  1.
         11    1    3    3    0    0 -0.98268007517E+01  0.59376711633E+01  0.10591476029E-01  0.11481379024E+02  0.51100000000E-03 0. -1.
        -11    1    3    3    0    0 -0.58984258998E+00  0.69530541006E+00 -0.11838418705E+01  0.14942709693E+01  0.51100000000E-03 0.  1.
        -12    1    3    3    0    0 -0.29750176025E+02  0.12935749047E+02  0.69008192108E+01  0.33166668249E+02  0.00000000000E+00 0.  1.
</event>
<event>
 7    1  0.2001181E-008  0.4614232E+02  0.7816164E-02  0.1320468E+00
        -11   -1    0    0    0    0  0.00000000000E+00  0.00000000000E+00  0.45593999997E+02  0.45594000000E+02  0.51100000000E-03 0. -1.
         11   -1    0    0    0    0 -0.00000000000E+00 -0.00000000000E+00 -0.45593999997E+02  0.45594000000E+02  0.51100000000E-03 0.  1.
    9900012    2    1    2    0    0 -0.13250034217E+02  0.95133101467E+01  0.41988653405E+02  0.46142317727E+02  0.99999996906E+01 0.  0.
        -12    1    1    2    0    0  0.13250034217E+02 -0.95133101467E+01 -0.41988653405E+02  0.45045682273E+02  0.00000000000E+00 0.  1.
         11    1    3    3    0    0 -0.75973185659E+01  0.58056835323E+01  0.27193786388E+02  0.28825808385E+02  0.51100000000E-03 0. -1.
        -11    1    3    3    0    0  0.23519294954E+00 -0.68120047295E+00 -0.82521058407E-01  0.72536872973E+00  0.51100000000E-03 0.  1.
         12    1    3    3    0    0 -0.58879086002E+01  0.43888270873E+01  0.14877388075E+02  0.16591140612E+02  0.00000000000E+00 0. -1.
</event>
<event>
 7    1  0.2001181E-008  0.4614232E+02  0.7816164E-02  0.1320468E+00
        -11   -1    0    0    0    0  0.00000000000E+00  0.00000000000E+00  0.45593999997E+02  0.45594000000E+02  0.51100000000E-03 0.  1.
         11   -1    0    0    0    0 -0.00000000000E+00 -0.00000000000E+00 -0.45593999997E+02  0.45594000000E+02  0.51100000000E-03 0. -1.
    9900012    2    1    2    0    0 -0.41290876264E+02 -0.22525748494E+01 -0.17863452114E+02  0.46142317882E+02  0.10000001101E+02 0.  0.
        -12    1    1    2    0    0  0.41290876264E+02  0.22525748494E+01  0.17863452114E+02  0.45045682118E+02  0.00000000000E+00 0.  1.
         11    1    3    3    0    0 -0.25161497995E+02  0.47962941795E+00 -0.10404202330E+02  0.27231938090E+02  0.51100000000E-03 0. -1.
        -11    1    3    3    0    0 -0.13486560716E+02 -0.80946741034E+00 -0.78388241100E+01  0.15620170329E+02  0.51100000000E-03 0.  1.
        -12    1    3    3    0    0 -0.26428175527E+01 -0.19227368570E+01  0.37957432671E+00  0.32902094626E+01  0.00000000000E+00 0.  1.
</event>
<event>
 7    1  0.2001181E-008  0.4614232E+02  0.7816164E-02  0.1320468E+00
        -11   -1    0    0    0    0  0.00000000000E+00  0.00000000000E+00  0.45593999997E+02  0.45594000000E+02  0.51100000000E-03 0.  1.
         11   -1    0    0    0    0 -0.00000000000E+00 -0.00000000000E+00 -0.45593999997E+02  0.45594000000E+02  0.51100000000E-03 0. -1.
    9900012    2    1    2    0    0 -0.25144258433E+02 -0.33802376629E+02 -0.15946132461E+02  0.46142317206E+02  0.99999949406E+01 0.  0.
        -12    1    1    2    0    0  0.25144258433E+02  0.33802376629E+02  0.15946132461E+02  0.45045682794E+02  0.00000000000E+00 0.  1.
         11    1    3    3    0    0 -0.13463391590E+02 -0.16015572586E+02 -0.95062437724E+01  0.22981082422E+02  0.51100000000E-03 0. -1.
        -11    1    3    3    0    0 -0.22263868159E+01 -0.30591943750E+01 -0.39742489724E+01  0.54872692328E+01  0.51100000000E-03 0.  1.
        -12    1    3    3    0    0 -0.94544800272E+01 -0.14727609667E+02 -0.24656397160E+01  0.17673965551E+02  0.00000000000E+00 0.  1.
</event>
<event>
 7    1  0.2001181E-008  0.4614232E+02  0.7816164E-02  0.1320468E+00
        -11   -1    0    0    0    0  0.00000000000E+00  0.00000000000E+00  0.45593999997E+02  0.45594000000E+02  0.51100000000E-03 0. -1.
         11   -1    0    0    0    0 -0.00000000000E+00 -0.00000000000E+00 -0.45593999997E+02  0.45594000000E+02  0.51100000000E-03 0.  1.
    9900012    2    1    2    0    0  0.16583897979E+02 -0.34408852702E+02  0.23877157816E+02  0.46142317834E+02  0.10000000660E+02 0.  0.
        -12    1    1    2    0    0 -0.16583897979E+02  0.34408852702E+02 -0.23877157816E+02  0.45045682166E+02  0.00000000000E+00 0.  1.
         11    1    3    3    0    0  0.10664064455E+02 -0.26034521551E+02  0.19699855145E+02  0.34345347226E+02  0.51100000000E-03 0. -1.
        -11    1    3    3    0    0  0.21327273344E+00 -0.46356947302E+00 -0.71990604739E+00  0.88240970832E+00  0.51100000000E-03 0.  1.
         12    1    3    3    0    0  0.57065607906E+01 -0.79107616779E+01  0.48972087188E+01  0.10914560899E+02  0.00000000000E+00 0. -1.
</event>
<event>
 7    1  0.2001181E-008  0.4614232E+02  0.7816164E-02  0.1320468E+00
        -11   -1    0    0    0    0  0.00000000000E+00  0.00000000000E+00  0.45593999997E+02  0.45594000000E+02  0.51100000000E-03 0.  1.
         11   -1    0    0    0    0 -0.00000000000E+00 -0.00000000000E+00 -0.45593999997E+02  0.45594000000E+02  0.51100000000E-03 0. -1.
    9900012    2    1    2    0    0  0.61181799591E+01 -0.34344261788E+02 -0.28498295991E+02  0.46142319650E+02  0.10000017223E+02 0.  0.
        -12    1    1    2    0    0 -0.61181799591E+01  0.34344261788E+02  0.28498295991E+02  0.45045680350E+02  0.00000000000E+00 0.  1.
         11    1    3    3    0    0  0.18326651010E+01 -0.19441829680E+02 -0.13375961021E+02  0.23669806425E+02  0.51100000000E-03 0. -1.
        -11    1    3    3    0    0  0.32687478125E+01 -0.15206926603E+02 -0.13985230643E+02  0.20917026686E+02  0.51100000000E-03 0.  1.
        -12    1    3    3    0    0  0.10167670456E+01  0.30449449513E+00 -0.11371043274E+01  0.15554865393E+01  0.00000000000E+00 0.  1.
</event>
<event>
 7    1  0.2001181E-008  0.4614232E+02  0.7816164E-02  0.1320468E+00
        -11   -1    0    0    0    0  0.00000000000E+00  0.00000000000E+00  0.45593999997E+02  0.45594000000E+02  0.51100000000E-03 0. -1.
         11   -1    0    0    0    0 -0.00000000000E+00 -0.00000000000E+00 -0.45593999997E+02  0.45594000000E+02  0.51100000000E-03 0.  1.
    9900012    2    1    2    0    0  0.50291818125E+01  0.20924095272E+02  0.39572757358E+02  0.46142316993E+02  0.99999929970E+01 0.  0.
        -12    1    1    2    0    0 -0.50291818125E+01 -0.20924095272E+02 -0.39572757358E+02  0.45045683007E+02  0.00000000000E+00 0.  1.
         11    1    3    3    0    0  0.56921009765E+01  0.12362805379E+02  0.29148266211E+02  0.32169246086E+02  0.51100000000E-03 0. -1.
        -11    1    3    3    0    0  0.11446359456E+01  0.23921602579E+01  0.45411241106E+01  0.52587480066E+01  0.51100000000E-03 0.  1.
        -12    1    3    3    0    0 -0.18075551095E+01  0.61691296361E+01  0.58833670358E+01  0.87143229007E+01  0.00000000000E+00 0.  1.
</event>
<event>
 7    1  0.2001181E-008  0.4614232E+02  0.7816164E-02  0.1320468E+00
        -11   -1    0    0    0    0  0.00000000000E+00  0.00000000000E+00  0.45593999997E+02  0.45594000000E+02  0.51100000000E-03 0. -1.
         11   -1    0    0    0    0 -0.00000000000E+00 -0.00000000000E+00 -0.45593999997E+02  0.45594000000E+02  0.51100000000E-03 0.  1.
    9900012    2    1    2    0    0  0.25056317848E+00 -0.80423290844E+01  0.44321231985E+02  0.46142318257E+02  0.10000004523E+02 0.  0.
        -12    1    1    2    0    0 -0.25056317848E+00  0.80423290844E+01 -0.44321231985E+02  0.45045681743E+02  0.00000000000E+00 0.  1.
         11    1    3    3    0    0  0.18127480507E+01 -0.24952935316E+01  0.81987742706E+01  0.87597057660E+01  0.51100000000E-03 0. -1.
        -11    1    3    3    0    0 -0.32525702504E+01 -0.19857608298E+01  0.67888353812E+01  0.77852903222E+01  0.51100000000E-03 0.  1.
         12    1    3    3    0    0  0.16903853781E+01 -0.35612747230E+01  0.29333622333E+02  0.29597322169E+02  0.00000000000E+00 0. -1.
</event>
<event>
 7    1  0.2001181E-008  0.4614232E+02  0.7816164E-02  0.1320468E+00
        -11   -1    0    0    0    0  0.00000000000E+00  0.00000000000E+00  0.45593999997E+02  0.45594000000E+02  0.51100000000E-03 0.  1.
         11   -1    0    0    0    0 -0.00000000000E+00 -0.00000000000E+00 -0.45593999997E+02  0.45594000000E+02  0.51100000000E-03 0. -1.
    9900012    2    1    2    0    0 -0.51848170673E+01  0.13494457706E+02 -0.42662990499E+02  0.46142317908E+02  0.10000001339E+02 0.  0.
        -12    1    1    2    0    0  0.51848170673E+01 -0.13494457706E+02  0.42662990499E+02  0.45045682092E+02  0.00000000000E+00 0.  1.
         11    1    3    3    0    0  0.19235784877E+01  0.21342298537E+01 -0.93197530991E+01  0.97525837272E+01  0.51100000000E-03 0. -1.
        -11    1    3    3    0    0 -0.21172278533E+01  0.43042769856E+01 -0.58233632298E+01  0.75446016276E+01  0.51100000000E-03 0.  1.
         12    1    3    3    0    0 -0.49911677017E+01  0.70559508663E+01 -0.27519874170E+02  0.28845132553E+02  0.00000000000E+00 0. -1.
</event>
<event>
 7    1  0.2001181E-008  0.4614232E+02  0.7816164E-02  0.1320468E+00
        -11   -1    0    0    0    0  0.00000000000E+00  0.00000000000E+00  0.45593999997E+02  0.45594000000E+02  0.51100000000E-03 0.  1.
         11   -1    0    0    0    0 -0.00000000000E+00 -0.00000000000E+00 -0.45593999997E+02  0.45594000000E+02  0.51100000000E-03 0. -1.
    9900012    2    1    2    0    0 -0.42043849993E+02 -0.11015494979E+02 -0.11835834492E+02  0.46142318409E+02  0.10000005909E+02 0.  0.
        -12    1    1    2    0    0  0.42043849993E+02  0.11015494979E+02  0.11835834492E+02  0.45045681591E+02  0.00000000000E+00 0.  1.
         11    1    3    3    0    0 -0.48765797437E+01  0.12721388864E+01 -0.12124639513E+01  0.51835737130E+01  0.51100000000E-03 0. -1.
        -11    1    3    3    0    0 -0.77782070016E+01 -0.13015678409E+01 -0.41912100187E+01  0.89308915953E+01  0.51100000000E-03 0.  1.
         12    1    3    3    0    0 -0.29389063248E+02 -0.10986066024E+02 -0.64321605216E+01  0.32027853101E+02  0.00000000000E+00 0. -1.
</event>
<event>
 7    1  0.2001181E-008  0.4614232E+02  0.7816164E-02  0.1320468E+00
        -11   -1    0    0    0    0  0.00000000000E+00  0.00000000000E+00  0.45593999997E+02  0.45594000000E+02  0.51100000000E-03 0. -1.
         11   -1    0    0    0    0 -0.00000000000E+00 -0.00000000000E+00 -0.45593999997E+02  0.45594000000E+02  0.51100000000E-03 0.  1.
    9900012    2    1    2    0    0 -0.26585707150E+02 -0.36282080244E+02  0.24339894694E+01  0.46142317896E+02  0.10000001231E+02 0.  0.
        -12    1    1    2    0    0  0.26585707150E+02  0.36282080244E+02 -0.24339894694E+01  0.45045682104E+02  0.00000000000E+00 0.  1.
         11    1    3    3    0    0 -0.12709312424E+02 -0.13489264393E+02 -0.11119564478E+01  0.18566726248E+02  0.51100000000E-03 0. -1.
        -11    1    3    3    0    0 -0.19238028529E+01 -0.25893557303E+01 -0.15119345930E+01  0.35625450158E+01  0.51100000000E-03 0.  1.
        -12    1    3    3    0    0 -0.11952591873E+02 -0.20203460120E+02  0.50578805102E+01  0.24013046632E+02  0.00000000000E+00 0.  1.
</event>
<event>
 7    1  0.2001181E-008  0.4614232E+02  0.7816164E-02  0.1320468E+00
        -11   -1    0    0    0    0  0.00000000000E+00  0.00000000000E+00  0.45593999997E+02  0.45594000000E+02  0.51100000000E-03 0.  1.
         11   -1    0    0    0    0 -0.00000000000E+00 -0.00000000000E+00 -0.45593999997E+02  0.45594000000E+02  0.51100000000E-03 0. -1.
    9900012    2    1    2    0    0 -0.29367689157E+02 -0.21844138845E+02 -0.26258062921E+02  0.46142318335E+02  0.10000005233E+02 0.  0.
        -12    1    1    2    0    0  0.29367689157E+02  0.21844138845E+02  0.26258062921E+02  0.45045681665E+02  0.00000000000E+00 0.  1.
         11    1    3    3    0    0 -0.54220817658E+01 -0.87676195791E+00 -0.28549597448E+01  0.61901920496E+01  0.51100000000E-03 0.  1.
        -11    1    3    3    0    0 -0.93407045665E+01 -0.63092054624E+01 -0.11394801576E+02  0.16027986105E+02  0.51100000000E-03 0. -1.
         12    1    3    3    0    0 -0.14604902825E+02 -0.14658171425E+02 -0.12008301600E+02  0.23924140180E+02  0.00000000000E+00 0. -1.
</event>
<event>
 7    1  0.2001181E-008  0.4614232E+02  0.7816164E-02  0.1320468E+00
        -11   -1    0    0    0    0  0.00000000000E+00  0.00000000000E+00  0.45593999997E+02  0.45594000000E+02  0.51100000000E-03 0. -1.
         11   -1    0    0    0    0 -0.00000000000E+00 -0.00000000000E+00 -0.45593999997E+02  0.45594000000E+02  0.51100000000E-03 0.  1.
    9900012    2    1    2    0    0  0.36105249378E+02  0.26009706764E+02  0.70014064972E+01  0.46142316838E+02  0.99999915783E+01 0.  0.
        -12    1    1    2    0    0 -0.36105249378E+02 -0.26009706764E+02 -0.70014064972E+01  0.45045683162E+02  0.00000000000E+00 0.  1.
         11    1    3    3    0    0  0.12078480202E+02  0.10532267570E+02 -0.13878445542E+01  0.16085535643E+02  0.51100000000E-03 0. -1.
        -11    1    3    3    0    0 -0.88113834838E-01  0.32840886991E+00 -0.72823150828E-01  0.34773539673E+00  0.51100000000E-03 0.  1.
         12    1    3    3    0    0  0.24114883011E+02  0.15149030324E+02  0.84620742023E+01  0.29709045798E+02  0.00000000000E+00 0. -1.
</event>
<event>
 7    1  0.2001181E-008  0.4614232E+02  0.7816164E-02  0.1320468E+00
        -11   -1    0    0    0    0  0.00000000000E+00  0.00000000000E+00  0.45593999997E+02  0.45594000000E+02  0.51100000000E-03 0.  1.
         11   -1    0    0    0    0 -0.00000000000E+00 -0.00000000000E+00 -0.45593999997E+02  0.45594000000E+02  0.51100000000E-03 0. -1.
    9900012    2    1    2    0    0  0.41120062871E+02  0.16162567306E+02  0.87764078013E+01  0.46142317783E+02  0.10000000204E+02 0.  0.
        -12    1    1    2    0    0 -0.41120062871E+02 -0.16162567306E+02 -0.87764078013E+01  0.45045682217E+02  0.00000000000E+00 0.  1.
         11    1    3    3    0    0  0.87198887811E+01  0.34634078517E+01 -0.36159003821E+00  0.93894835811E+01  0.51100000000E-03 0. -1.
        -11    1    3    3    0    0  0.17723468028E+02  0.93740737342E+01  0.21624246238E+01  0.20166076907E+02  0.51100000000E-03 0.  1.
        -12    1    3    3    0    0  0.14676706062E+02  0.33250857198E+01  0.69755732157E+01  0.16586757295E+02  0.00000000000E+00 0.  1.
</event>
<event>
 7    1  0.2001181E-008  0.4614232E+02  0.7816164E-02  0.1320468E+00
        -11   -1    0    0    0    0  0.00000000000E+00  0.00000000000E+00  0.45593999997E+02  0.45594000000E+02  0.51100000000E-03 0.  1.
         11   -1    0    0    0    0 -0.00000000000E+00 -0.00000000000E+00 -0.45593999997E+02  0.45594000000E+02  0.51100000000E-03 0. -1.
    9900012    2    1    2    0    0 -0.29540966466E+02  0.33615257314E+02 -0.51438366630E+01  0.46142320078E+02  0.10000021127E+02 0.  0.
        -12    1    1    2    0    0  0.29540966466E+02 -0.33615257314E+02  0.51438366630E+01  0.45045679922E+02  0.00000000000E+00 0.  1.
         11    1    3    3    0    0 -0.20896472845E+02  0.19435557686E+02 -0.42894563944E+01  0.28858324906E+02  0.51100000000E-03 0. -1.
        -11    1    3    3    0    0 -0.47727571906E+01  0.58693513361E+01  0.17268721088E+01  0.77595479152E+01  0.51100000000E-03 0.  1.
         12    1    3    3    0    0 -0.38717364298E+01  0.83103482920E+01 -0.25812523774E+01  0.95244472570E+01  0.00000000000E+00 0. -1.
</event>
<event>
 7    1  0.2001181E-008  0.4614232E+02  0.7816164E-02  0.1320468E+00
        -11   -1    0    0    0    0  0.00000000000E+00  0.00000000000E+00  0.45593999997E+02  0.45594000000E+02  0.51100000000E-03 0.  1.
         11   -1    0    0    0    0 -0.00000000000E+00 -0.00000000000E+00 -0.45593999997E+02  0.45594000000E+02  0.51100000000E-03 0. -1.
    9900012    2    1    2    0    0 -0.25754957920E+02 -0.35904720699E+02 -0.87548063406E+01  0.46142318076E+02  0.10000002870E+02 0.  0.
        -12    1    1    2    0    0  0.25754957920E+02  0.35904720699E+02  0.87548063406E+01  0.45045681924E+02  0.00000000000E+00 0.  1.
         11    1    3    3    0    0 -0.93349300858E+01 -0.14844640476E+02 -0.81043460201E+01  0.19317988903E+02  0.51100000000E-03 0. -1.
        -11    1    3    3    0    0 -0.10361258616E+02 -0.11789269901E+02 -0.11554547551E+01  0.15737777507E+02  0.51100000000E-03 0.  1.
         12    1    3    3    0    0 -0.60587692186E+01 -0.92708103213E+01  0.50499443452E+00  0.11086551666E+02  0.00000000000E+00 0. -1.
</event>
<event>
 7    1  0.2001181E-008  0.4614232E+02  0.7816164E-02  0.1320468E+00
        -11   -1    0    0    0    0  0.00000000000E+00  0.00000000000E+00  0.45593999997E+02  0.45594000000E+02  0.51100000000E-03 0.  1.
         11   -1    0    0    0    0 -0.00000000000E+00 -0.00000000000E+00 -0.45593999997E+02  0.45594000000E+02  0.51100000000E-03 0. -1.
    9900012    2    1    2    0    0 -0.31094003810E+02 -0.15352903747E+02 -0.28750039457E+02  0.46142317686E+02  0.99999993106E+01 0.  0.
        -12    1    1    2    0    0  0.31094003810E+02  0.15352903747E+02  0.28750039457E+02  0.45045682314E+02  0.00000000000E+00 0.  1.
         11    1    3    3    0    0 -0.39609319522E+01 -0.41718313979E+01 -0.58740218090E+01  0.82217572098E+01  0.51100000000E-03 0. -1.
        -11    1    3    3    0    0 -0.11674391659E+01  0.38667955386E+00  0.27478669989E+00  0.12601362129E+01  0.51100000000E-03 0.  1.
        -12    1    3    3    0    0 -0.25965632692E+02 -0.11567751902E+02 -0.23150804348E+02  0.36660424263E+02  0.00000000000E+00 0.  1.
</event>
<event>
 7    1  0.2001181E-008  0.4614232E+02  0.7816164E-02  0.1320468E+00
        -11   -1    0    0    0    0  0.00000000000E+00  0.00000000000E+00  0.45593999997E+02  0.45594000000E+02  0.51100000000E-03 0. -1.
         11   -1    0    0    0    0 -0.00000000000E+00 -0.00000000000E+00 -0.45593999997E+02  0.45594000000E+02  0.51100000000E-03 0.  1.
    9900012    2    1    2    0    0 -0.32827211722E+02 -0.71307101251E+01  0.30010675888E+02  0.46142317370E+02  0.99999964333E+01 0.  0.
        -12    1    1    2    0    0  0.32827211722E+02  0.71307101251E+01 -0.30010675888E+02  0.45045682630E+02  0.00000000000E+00 0.  1.
         11    1    3    3    0    0 -0.34821525382E+01 -0.13500331745E+01  0.52411625671E+01  0.64356632283E+01  0.51100000000E-03 0. -1.
        -11    1    3    3    0    0 -0.15996012113E+02  0.97345136467E+00  0.11710394171E+02  0.19848257933E+02  0.51100000000E-03 0.  1.
         12    1    3    3    0    0 -0.13349047071E+02 -0.67541283153E+01  0.13059119150E+02  0.19858396209E+02  0.00000000000E+00 0. -1.
</event>
<event>
 7    1  0.2001181E-008  0.4614232E+02  0.7816164E-02  0.1320468E+00
        -11   -1    0    0    0    0  0.00000000000E+00  0.00000000000E+00  0.45593999997E+02  0.45594000000E+02  0.51100000000E-03 0.  1.
         11   -1    0    0    0    0 -0.00000000000E+00 -0.00000000000E+00 -0.45593999997E+02  0.45594000000E+02  0.51100000000E-03 0. -1.
    9900012    2    1    2    0    0  0.39896100465E+02 -0.38513724035E+01 -0.20556789857E+02  0.46142317511E+02  0.99999977191E+01 0.  0.
        -12    1    1    2    0    0 -0.39896100465E+02  0.38513724035E+01  0.20556789857E+02  0.45045682489E+02  0.00000000000E+00 0.  1.
         11    1    3    3    0    0  0.12220869148E+02 -0.41257711276E+00 -0.38351408542E+01  0.12815153852E+02  0.51100000000E-03 0. -1.
        -11    1    3    3    0    0  0.38019625129E+01 -0.30197158348E+01 -0.38855122622E+01  0.62185857294E+01  0.51100000000E-03 0.  1.
         12    1    3    3    0    0  0.23873268804E+02 -0.41907945587E+00 -0.12836136740E+02  0.27108577930E+02  0.00000000000E+00 0. -1.
</event>
<event>
 7    1  0.2001181E-008  0.4614232E+02  0.7816164E-02  0.1320468E+00
        -11   -1    0    0    0    0  0.00000000000E+00  0.00000000000E+00  0.45593999997E+02  0.45594000000E+02  0.51100000000E-03 0. -1.
         11   -1    0    0    0    0 -0.00000000000E+00 -0.00000000000E+00 -0.45593999997E+02  0.45594000000E+02  0.51100000000E-03 0.  1.
    9900012    2    1    2    0    0  0.11492965005E+02 -0.42052002322E+02  0.11342589601E+02  0.46142317823E+02  0.10000000565E+02 0.  0.
        -12    1    1    2    0    0 -0.11492965005E+02  0.42052002322E+02 -0.11342589601E+02  0.45045682177E+02  0.00000000000E+00 0.  1.
         11    1    3    3    0    0  0.10995718134E+02 -0.31737930067E+02  0.10841644049E+02  0.35295088443E+02  0.51100000000E-03 0. -1.
        -11    1    3    3    0    0  0.12540945267E+01 -0.98685862174E+01  0.58405465031E+00  0.99650823935E+01  0.51100000000E-03 0.  1.
        -12    1    3    3    0    0 -0.75684765596E+00 -0.44548603752E+00 -0.83109098023E-01  0.88214698669E+00  0.00000000000E+00 0.  1.
</event>
<event>
 7    1  0.2001181E-008  0.4614232E+02  0.7816164E-02  0.1320468E+00
        -11   -1    0    0    0    0  0.00000000000E+00  0.00000000000E+00  0.45593999997E+02  0.45594000000E+02  0.51100000000E-03 0.  1.
         11   -1    0    0    0    0 -0.00000000000E+00 -0.00000000000E+00 -0.45593999997E+02  0.45594000000E+02  0.51100000000E-03 0. -1.
    9900012    2    1    2    0    0 -0.25724453090E+02 -0.14336838733E+02 -0.34085495825E+02  0.46142318106E+02  0.10000003146E+02 0.  0.
        -12    1    1    2    0    0  0.25724453090E+02  0.14336838733E+02  0.34085495825E+02  0.45045681894E+02  0.00000000000E+00 0.  1.
         11    1    3    3    0    0 -0.14767441771E+02 -0.59884951721E+01 -0.14564041599E+02  0.21588207866E+02  0.51100000000E-03 0. -1.
        -11    1    3    3    0    0 -0.95598393734E+01 -0.46649959303E+01 -0.16306480824E+02  0.19469310029E+02  0.51100000000E-03 0.  1.
         12    1    3    3    0    0 -0.13971719455E+01 -0.36833476310E+01 -0.32149734020E+01  0.50848002115E+01  0.00000000000E+00 0. -1.
</event>
<event>
 7    1  0.2001181E-008  0.4614232E+02  0.7816164E-02  0.1320468E+00
        -11   -1    0    0    0    0  0.00000000000E+00  0.00000000000E+00  0.45593999997E+02  0.45594000000E+02  0.51100000000E-03 0.  1.
         11   -1    0    0    0    0 -0.00000000000E+00 -0.00000000000E+00 -0.45593999997E+02  0.45594000000E+02  0.51100000000E-03 0. -1.
    9900012    2    1    2    0    0 -0.21540360071E+02  0.11279659873E+02 -0.37919594525E+02  0.46142317767E+02  0.10000000055E+02 0.  0.
        -12    1    1    2    0    0  0.21540360071E+02 -0.11279659873E+02  0.37919594525E+02  0.45045682233E+02  0.00000000000E+00 0.  1.
         11    1    3    3    0    0 -0.39664788393E+01  0.43494410336E+01 -0.39957607170E+01  0.71145411416E+01  0.51100000000E-03 0. -1.
        -11    1    3    3    0    0 -0.61885418148E+01  0.35396565153E+01 -0.95967477617E+01  0.11955115470E+02  0.51100000000E-03 0.  1.
        -12    1    3    3    0    0 -0.11385339417E+02  0.33905623242E+01 -0.24327086047E+02  0.27072661156E+02  0.00000000000E+00 0.  1.
</event>
<event>
 7    1  0.2001181E-008  0.4614232E+02  0.7816164E-02  0.1320468E+00
        -11   -1    0    0    0    0  0.00000000000E+00  0.00000000000E+00  0.45593999997E+02  0.45594000000E+02  0.51100000000E-03 0. -1.
         11   -1    0    0    0    0 -0.00000000000E+00 -0.00000000000E+00 -0.45593999997E+02  0.45594000000E+02  0.51100000000E-03 0.  1.
    9900012    2    1    2    0    0  0.42708357694E+02 -0.75662405160E+01 -0.12159840047E+02  0.46142317383E+02  0.99999965528E+01 0.  0.
        -12    1    1    2    0    0 -0.42708357694E+02  0.75662405160E+01  0.12159840047E+02  0.45045682617E+02  0.00000000000E+00 0.  1.
         11    1    3    3    0    0  0.19085098937E+02 -0.91745498721E-01 -0.59626549514E+01  0.19995066217E+02  0.51100000000E-03 0. -1.
        -11    1    3    3    0    0  0.39838704161E+00 -0.11233808633E+01  0.25759037450E+00  0.12194465389E+01  0.51100000000E-03 0.  1.
         12    1    3    3    0    0  0.23224871715E+02 -0.63511141539E+01 -0.64547754703E+01  0.24927804628E+02  0.00000000000E+00 0. -1.
</event>
<event>
 7    1  0.2001181E-008  0.4614232E+02  0.7816164E-02  0.1320468E+00
        -11   -1    0    0    0    0  0.00000000000E+00  0.00000000000E+00  0.45593999997E+02  0.45594000000E+02  0.51100000000E-03 0.  1.
         11   -1    0    0    0    0 -0.00000000000E+00 -0.00000000000E+00 -0.45593999997E+02  0.45594000000E+02  0.51100000000E-03 0. -1.
    9900012    2    1    2    0    0  0.12500254752E+02 -0.19630581601E+02 -0.38568087553E+02  0.46142317851E+02  0.10000000815E+02 0.  0.
        -12    1    1    2    0    0 -0.12500254752E+02  0.19630581601E+02  0.38568087553E+02  0.45045682149E+02  0.00000000000E+00 0.  1.
         11    1    3    3    0    0  0.50313799027E+01 -0.12837334250E+02 -0.22535891005E+02  0.26419279287E+02  0.51100000000E-03 0. -1.
        -11    1    3    3    0    0  0.62763668462E+01 -0.76932283093E+01 -0.13157244082E+02  0.16483070548E+02  0.51100000000E-03 0.  1.
        -12    1    3    3    0    0  0.11925080032E+01  0.89998095843E+00 -0.28749524658E+01  0.32399680159E+01  0.00000000000E+00 0.  1.
</event>
<event>
 7    1  0.2001181E-008  0.4614232E+02  0.7816164E-02  0.1320468E+00
        -11   -1    0    0    0    0  0.00000000000E+00  0.00000000000E+00  0.45593999997E+02  0.45594000000E+02  0.51100000000E-03 0.  1.
         11   -1    0    0    0    0 -0.00000000000E+00 -0.00000000000E+00 -0.45593999997E+02  0.45594000000E+02  0.51100000000E-03 0. -1.
    9900012    2    1    2    0    0 -0.40304541078E+01  0.33564150052E+02 -0.29771071178E+02  0.46142318652E+02  0.10000008122E+02 0.  0.
        -12    1    1    2    0    0  0.40304541078E+01 -0.33564150052E+02  0.29771071178E+02  0.45045681348E+02  0.00000000000E+00 0.  1.
         11    1    3    3    0    0  0.95805697699E+00  0.61640996529E+01 -0.67933173376E+01  0.92229690671E+01  0.51100000000E-03 0. -1.
        -11    1    3    3    0    0 -0.54614684687E+01  0.18276445881E+02 -0.19102445954E+02  0.26995546921E+02  0.51100000000E-03 0.  1.
         12    1    3    3    0    0  0.47295738388E+00  0.91236045181E+01 -0.38753078862E+01  0.99238026635E+01  0.00000000000E+00 0. -1.
</event>
<event>
 7    1  0.2001181E-008  0.4614232E+02  0.7816164E-02  0.1320468E+00
        -11   -1    0    0    0    0  0.00000000000E+00  0.00000000000E+00  0.45593999997E+02  0.45594000000E+02  0.51100000000E-03 0.  1.
         11   -1    0    0    0    0 -0.00000000000E+00 -0.00000000000E+00 -0.45593999997E+02  0.45594000000E+02  0.51100000000E-03 0. -1.
    9900012    2    1    2    0    0  0.13271655945E+02  0.11389443628E+02 -0.41512134668E+02  0.46142316496E+02  0.99999884629E+01 0.  0.
        -12    1    1    2    0    0 -0.13271655945E+02 -0.11389443628E+02  0.41512134668E+02  0.45045683504E+02  0.00000000000E+00 0.  1.
         11    1    3    3    0    0  0.69852125516E+01  0.16159645028E+01 -0.11466336771E+02  0.13523365516E+02  0.51100000000E-03 0.  1.
        -11    1    3    3    0    0  0.33999769784E+01  0.63811913538E+01 -0.24276186066E+02  0.25330074156E+02  0.51100000000E-03 0. -1.
         12    1    3    3    0    0  0.28864664146E+01  0.33922877714E+01 -0.57696118308E+01  0.72888768246E+01  0.00000000000E+00 0. -1.
</event>
<event>
 7    1  0.2001181E-008  0.4614232E+02  0.7816164E-02  0.1320468E+00
        -11   -1    0    0    0    0  0.00000000000E+00  0.00000000000E+00  0.45593999997E+02  0.45594000000E+02  0.51100000000E-03 0.  1.
         11   -1    0    0    0    0 -0.00000000000E+00 -0.00000000000E+00 -0.45593999997E+02  0.45594000000E+02  0.51100000000E-03 0. -1.
    9900012    2    1    2    0    0  0.40596718787E+02  0.10509423774E+02 -0.16449067706E+02  0.46142318823E+02  0.10000009680E+02 0.  0.
        -12    1    1    2    0    0 -0.40596718787E+02 -0.10509423774E+02  0.16449067706E+02  0.45045681177E+02  0.00000000000E+00 0.  1.
         11    1    3    3    0    0  0.90055249960E+01  0.18162998942E+01 -0.23342507144E+01  0.94787737824E+01  0.51100000000E-03 0. -1.
        -11    1    3    3    0    0  0.15267917122E+02  0.70547089268E+01 -0.10616491926E+02  0.19889396984E+02  0.51100000000E-03 0.  1.
        -12    1    3    3    0    0  0.16323276669E+02  0.16384149533E+01 -0.34983250654E+01  0.16774148056E+02  0.00000000000E+00 0.  1.
</event>
<event>
 7    1  0.2001181E-008  0.4614232E+02  0.7816164E-02  0.1320468E+00
        -11   -1    0    0    0    0  0.00000000000E+00  0.00000000000E+00  0.45593999997E+02  0.45594000000E+02  0.51100000000E-03 0.  1.
         11   -1    0    0    0    0 -0.00000000000E+00 -0.00000000000E+00 -0.45593999997E+02  0.45594000000E+02  0.51100000000E-03 0. -1.
    9900012    2    1    2    0    0  0.20477406577E+02  0.36365523729E+02 -0.16951045624E+02  0.46142318255E+02  0.10000004500E+02 0.  0.
        -12    1    1    2    0    0 -0.20477406577E+02 -0.36365523729E+02  0.16951045624E+02  0.45045681745E+02  0.00000000000E+00 0.  1.
         11    1    3    3    0    0  0.62354854957E+01  0.12888743094E+02 -0.94416876164E+01  0.17150698039E+02  0.51100000000E-03 0. -1.
        -11    1    3    3    0    0  0.51013047977E+01  0.48574256587E+01 -0.35001772066E+01  0.78656935744E+01  0.51100000000E-03 0.  1.
         12    1    3    3    0    0  0.91406162833E+01  0.18619354976E+02 -0.40091808007E+01  0.21125926642E+02  0.00000000000E+00 0. -1.
</event>
