<event>
 8    1  0.4964753E-012  0.9118800E+02  0.7816164E-02  0.1184000E+00
        -11   -1    0    0    0    0  0.00000000000E+00  0.00000000000E+00  0.45593999997E+02  0.45594000000E+02  0.51100000000E-03 0. -1.
         11   -1    0    0    0    0 -0.00000000000E+00 -0.00000000000E+00 -0.45593999997E+02  0.45594000000E+02  0.51100000000E-03 0.  1.
         23    2    1    2    0    0 -0.22204460493E-14 -0.17763568394E-14  0.00000000000E+00  0.91188000000E+02  0.91188000000E+02 0.  0.
    9900012    2    3    3    0    0  0.11176993087E+01 -0.11030035374E+02 -0.39118471661E+02  0.50528858873E+02  0.29999997030E+02 0.  0.
         12    1    3    3    0    0 -0.11176993087E+01  0.11030035374E+02  0.39118471661E+02  0.40659141127E+02  0.00000000000E+00 0. -1.
         11    1    4    4    0    0 -0.75041467510E+01  0.10574875197E+01 -0.33274184257E+01  0.82766063067E+01  0.51100000000E-03 0. -1.
        -11    1    4    4    0    0 -0.32850851319E+01 -0.35479054779E+01 -0.20545800972E+02  0.21107092539E+02  0.51100000000E-03 0.  1.
         12    1    4    4    0    0  0.11906931192E+02 -0.85396174160E+01 -0.15245252263E+02  0.21145160027E+02  0.00000000000E+00 0. -1.
</event>
<event>
 8    1  0.6587889E-012  0.9118800E+02  0.7816164E-02  0.1184000E+00
        -11   -1    0    0    0    0  0.00000000000E+00  0.00000000000E+00  0.45593999997E+02  0.45594000000E+02  0.51100000000E-03 0. -1.
         11   -1    0    0    0    0 -0.00000000000E+00 -0.00000000000E+00 -0.45593999997E+02  0.45594000000E+02  0.51100000000E-03 0.  1.
         23    2    1    2    0    0  0.00000000000E+00 -0.17763568394E-14  0.00000000000E+00  0.91188000000E+02  0.91188000000E+02 0.  0.
    9900012    2    3    3    0    0  0.88696185023E+01  0.12278194924E+02 -0.37732472582E+02  0.50528884293E+02  0.30000074296E+02 0.  0.
         12    1    3    3    0    0 -0.88696185023E+01 -0.12278194924E+02  0.37732472582E+02  0.40659115707E+02  0.00000000000E+00 0. -1.
         11    1    4    4    0    0  0.15615746974E+00  0.45201517263E+01 -0.17795082708E+02  0.18360858521E+02  0.51100000000E-03 0.  1.
        -11    1    4    4    0    0  0.13963837121E+02 -0.18259660165E+00 -0.17409877906E+02  0.22318735126E+02  0.51100000000E-03 0. -1.
         12    1    4    4    0    0 -0.52503760880E+01  0.79406397989E+01 -0.25275119680E+01  0.98492906460E+01  0.00000000000E+00 0. -1.
</event>
<event>
 8    1  0.4964753E-012  0.9118800E+02  0.7816164E-02  0.1184000E+00
        -11   -1    0    0    0    0  0.00000000000E+00  0.00000000000E+00  0.45593999997E+02  0.45594000000E+02  0.51100000000E-03 0. -1.
         11   -1    0    0    0    0 -0.00000000000E+00 -0.00000000000E+00 -0.45593999997E+02  0.45594000000E+02  0.51100000000E-03 0.  1.
         23    2    1    2    0    0  0.00000000000E+00  0.00000000000E+00  0.00000000000E+00  0.91188000000E+02  0.91188000000E+02 0.  0.
    9900012    2    3    3    0    0  0.16912139756E+02 -0.28950547255E+02  0.23000255310E+02  0.50528850946E+02  0.29999972935E+02 0.  0.
        -12    1    3    3    0    0 -0.16912139756E+02  0.28950547255E+02 -0.23000255310E+02  0.40659149054E+02  0.00000000000E+00 0.  1.
         11    1    4    4    0    0  0.13984729503E+02 -0.10403356072E+02  0.78173965451E+01  0.19102726660E+02  0.51100000000E-03 0. -1.
        -11    1    4    4    0    0  0.18301779663E+01 -0.12749600960E+02 -0.22020554357E+01  0.13067169717E+02  0.51100000000E-03 0.  1.
        -12    1    4    4    0    0  0.10972322866E+01 -0.57975902228E+01  0.17384914201E+02  0.18358954568E+02  0.00000000000E+00 0.  1.
</event>
<event>
 8    1  0.4964753E-012  0.9118800E+02  0.7816164E-02  0.1184000E+00
        -11   -1    0    0    0    0  0.00000000000E+00  0.00000000000E+00  0.45593999997E+02  0.45594000000E+02  0.51100000000E-03 0. -1.
         11   -1    0    0    0    0 -0.00000000000E+00 -0.00000000000E+00 -0.45593999997E+02  0.45594000000E+02  0.51100000000E-03 0.  1.
         23    2    1    2    0    0 -0.17763568394E-14  0.35527136788E-14  0.00000000000E+00  0.91188000000E+02  0.91188000000E+02 0.  0.
    9900012    2    3    3    0    0 -0.34846272948E+01 -0.19598637021E+02 -0.35453018676E+02  0.50528859162E+02  0.29999997909E+02 0.  0.
         12    1    3    3    0    0  0.34846272948E+01  0.19598637021E+02  0.35453018676E+02  0.40659140838E+02  0.00000000000E+00 0. -1.
         11    1    4    4    0    0 -0.14459159628E+01 -0.84306802777E+01 -0.16649914434E+02  0.18718618909E+02  0.51100000000E-03 0. -1.
        -11    1    4    4    0    0  0.10010755893E+02 -0.52138833896E+01 -0.12871005971E+02  0.17119071485E+02  0.51100000000E-03 0.  1.
         12    1    4    4    0    0 -0.12049467225E+02 -0.59540733536E+01 -0.59320982704E+01  0.14691168769E+02  0.00000000000E+00 0. -1.
</event>
<event>
 8    1  0.4964753E-012  0.9118800E+02  0.7816164E-02  0.1184000E+00
        -11   -1    0    0    0    0  0.00000000000E+00  0.00000000000E+00  0.45593999997E+02  0.45594000000E+02  0.51100000000E-03 0. -1.
         11   -1    0    0    0    0 -0.00000000000E+00 -0.00000000000E+00 -0.45593999997E+02  0.45594000000E+02  0.51100000000E-03 0.  1.
         23    2    1    2    0    0  0.88817841970E-15  0.00000000000E+00 -0.71054273576E-14  0.91188000000E+02  0.91188000000E+02 0.  0.
    9900012    2    3    3    0    0  0.67441540382E+01 -0.17797151420E+02 -0.35929707952E+02  0.50528854339E+02  0.29999983249E+02 0.  0.
         12    1    3    3    0    0 -0.67441540382E+01  0.17797151420E+02  0.35929707952E+02  0.40659145661E+02  0.00000000000E+00 0. -1.
         11    1    4    4    0    0 -0.91749021573E+01 -0.10953629710E+02 -0.10434210423E+02  0.17692755037E+02  0.51100000000E-03 0. -1.
        -11    1    4    4    0    0  0.44104870423E+00  0.96167062695E+00 -0.84803158828E+01  0.85460571077E+01  0.51100000000E-03 0.  1.
         12    1    4    4    0    0  0.15478007491E+02 -0.78051923379E+01 -0.17015181646E+02  0.24290042194E+02  0.00000000000E+00 0. -1.
</event>
<event>
 8    1  0.4964753E-012  0.9118800E+02  0.7816164E-02  0.1184000E+00
        -11   -1    0    0    0    0  0.00000000000E+00  0.00000000000E+00  0.45593999997E+02  0.45594000000E+02  0.51100000000E-03 0. -1.
         11   -1    0    0    0    0 -0.00000000000E+00 -0.00000000000E+00 -0.45593999997E+02  0.45594000000E+02  0.51100000000E-03 0.  1.
         23    2    1    2    0    0  0.88817841970E-15  0.00000000000E+00  0.00000000000E+00  0.91188000000E+02  0.91188000000E+02 0.  0.
    9900012    2    3    3    0    0  0.79988892271E+01  0.25727368534E+02 -0.30451377126E+02  0.50528854787E+02  0.29999984612E+02 0.  0.
         12    1    3    3    0    0 -0.79988892271E+01 -0.25727368534E+02  0.30451377126E+02  0.40659145213E+02  0.00000000000E+00 0. -1.
         11    1    4    4    0    0  0.26661363851E+01 -0.39726023491E+01  0.18898811275E+01  0.51440746093E+01  0.51100000000E-03 0. -1.
        -11    1    4    4    0    0  0.35934830149E+01  0.62644795845E+01 -0.30699706401E+01  0.78473909445E+01  0.51100000000E-03 0.  1.
        -12    1    4    4    0    0  0.17392698271E+01  0.23435491298E+02 -0.29271287614E+02  0.37537389234E+02  0.00000000000E+00 0.  1.
</event>
<event>
 8    1  0.4964753E-012  0.9118800E+02  0.7816164E-02  0.1184000E+00
        -11   -1    0    0    0    0  0.00000000000E+00  0.00000000000E+00  0.45593999997E+02  0.45594000000E+02  0.51100000000E-03 0. -1.
         11   -1    0    0    0    0 -0.00000000000E+00 -0.00000000000E+00 -0.45593999997E+02  0.45594000000E+02  0.51100000000E-03 0.  1.
         23    2    1    2    0    0  0.00000000000E+00  0.00000000000E+00  0.17763568394E-14  0.91188000000E+02  0.91188000000E+02 0.  0.
    9900012    2    3    3    0    0 -0.22520375827E+02  0.31471466109E+02  0.12471777654E+02  0.50528859031E+02  0.29999997512E+02 0.  0.
        -12    1    3    3    0    0  0.22520375827E+02 -0.31471466109E+02 -0.12471777654E+02  0.40659140969E+02  0.00000000000E+00 0.  1.
         11    1    4    4    0    0 -0.65522519644E+01  0.19596650895E+02 -0.11124896053E+00  0.20663327628E+02  0.51100000000E-03 0. -1.
        -11    1    4    4    0    0 -0.12587791309E+01  0.85373732826E+01  0.11987420371E+02  0.14770562443E+02  0.51100000000E-03 0.  1.
        -12    1    4    4    0    0 -0.14709344732E+02  0.33374419317E+01  0.59560624322E+00  0.15094968960E+02  0.00000000000E+00 0.  1.
</event>
<event>
 8    1  0.4964753E-012  0.9118800E+02  0.7816164E-02  0.1184000E+00
        -11   -1    0    0    0    0  0.00000000000E+00  0.00000000000E+00  0.45593999997E+02  0.45594000000E+02  0.51100000000E-03 0. -1.
         11   -1    0    0    0    0 -0.00000000000E+00 -0.00000000000E+00 -0.45593999997E+02  0.45594000000E+02  0.51100000000E-03 0.  1.
         23    2    1    2    0    0 -0.16653345369E-15  0.00000000000E+00  0.35527136788E-14  0.91188000000E+02  0.91188000000E+02 0.  0.
    9900012    2    3    3    0    0  0.38472734101E+00  0.26908133104E+02 -0.30479007614E+02  0.50528861453E+02  0.30000004871E+02 0.  0.
         12    1    3    3    0    0 -0.38472734101E+00 -0.26908133104E+02  0.30479007614E+02  0.40659138547E+02  0.00000000000E+00 0. -1.
         11    1    4    4    0    0 -0.32764674121E+00  0.89552676823E+01 -0.10627511807E+02  0.13901373282E+02  0.51100000000E-03 0. -1.
        -11    1    4    4    0    0 -0.10208972969E+02  0.15875377275E+01 -0.10879323050E+02  0.15003435453E+02  0.51100000000E-03 0.  1.
         12    1    4    4    0    0  0.10921347051E+02  0.16365327695E+02 -0.89721727571E+01  0.21624052718E+02  0.00000000000E+00 0. -1.
</event>
<event>
 8    1  0.4964753E-012  0.9118800E+02  0.7816164E-02  0.1184000E+00
        -11   -1    0    0    0    0  0.00000000000E+00  0.00000000000E+00  0.45593999997E+02  0.45594000000E+02  0.51100000000E-03 0. -1.
         11   -1    0    0    0    0 -0.00000000000E+00 -0.00000000000E+00 -0.45593999997E+02  0.45594000000E+02  0.51100000000E-03 0.  1.
         23    2    1    2    0    0  0.00000000000E+00  0.35527136788E-14  0.00000000000E+00  0.91188000000E+02  0.91188000000E+02 0.  0.
    9900012    2    3    3    0    0  0.14309281049E+02  0.20300191822E+02  0.32191815537E+02  0.50528852202E+02  0.29999976752E+02 0.  0.
        -12    1    3    3    0    0 -0.14309281049E+02 -0.20300191822E+02 -0.32191815537E+02  0.40659147798E+02  0.00000000000E+00 0.  1.
         11    1    4    4    0    0  0.86739594826E+01  0.81791655575E+01  0.19138503360E+02  0.22548140354E+02  0.51100000000E-03 0. -1.
        -11    1    4    4    0    0 -0.43136251434E+01  0.27391254801E+01  0.13358518008E+02  0.14302453422E+02  0.51100000000E-03 0.  1.
         12    1    4    4    0    0  0.99489467098E+01  0.93819007840E+01 -0.30520583051E+00  0.13678258426E+02  0.00000000000E+00 0. -1.
</event>
<event>
 8    1  0.4964753E-012  0.9118800E+02  0.7816164E-02  0.1184000E+00
        -11   -1    0    0    0    0  0.00000000000E+00  0.00000000000E+00  0.45593999997E+02  0.45594000000E+02  0.51100000000E-03 0. -1.
         11   -1    0    0    0    0 -0.00000000000E+00 -0.00000000000E+00 -0.45593999997E+02  0.45594000000E+02  0.51100000000E-03 0.  1.
         23    2    1    2    0    0  0.00000000000E+00 -0.15543122345E-14  0.00000000000E+00  0.91188000000E+02  0.91188000000E+02 0.  0.
    9900012    2    3    3    0    0 -0.20877574696E+02  0.16060564301E+01  0.34852743575E+02  0.50528852478E+02  0.29999977593E+02 0.  0.
        -12    1    3    3    0    0  0.20877574696E+02 -0.16060564301E+01 -0.34852743575E+02  0.40659147522E+02  0.00000000000E+00 0.  1.
         11    1    4    4    0    0 -0.71220084012E+01 -0.48550464195E+01  0.12250828753E+02  0.14979228444E+02  0.51100000000E-03 0. -1.
        -11    1    4    4    0    0 -0.95632182085E+00 -0.41971572377E+01 -0.28280401365E+01  0.51505816737E+01  0.51100000000E-03 0.  1.
        -12    1    4    4    0    0 -0.12799244474E+02  0.10658260087E+02  0.25429954959E+02  0.30399042360E+02  0.00000000000E+00 0.  1.
</event>
<event>
 8    1  0.4964753E-012  0.9118800E+02  0.7816164E-02  0.1184000E+00
        -11   -1    0    0    0    0  0.00000000000E+00  0.00000000000E+00  0.45593999997E+02  0.45594000000E+02  0.51100000000E-03 0. -1.
         11   -1    0    0    0    0 -0.00000000000E+00 -0.00000000000E+00 -0.45593999997E+02  0.45594000000E+02  0.51100000000E-03 0.  1.
         23    2    1    2    0    0  0.00000000000E+00  0.00000000000E+00  0.00000000000E+00  0.91188000000E+02  0.91188000000E+02 0.  0.
    9900012    2    3    3    0    0 -0.26904689321E+02 -0.64201506845E+01  0.29800766816E+02  0.50528851643E+02  0.29999975055E+02 0.  0.
        -12    1    3    3    0    0  0.26904689321E+02  0.64201506845E+01 -0.29800766816E+02  0.40659148357E+02  0.00000000000E+00 0.  1.
         11    1    4    4    0    0  0.21893702748E+01 -0.64762430900E+01  0.11660608999E+02  0.13516836510E+02  0.51100000000E-03 0. -1.
        -11    1    4    4    0    0 -0.57645583351E+01 -0.56630910947E+01  0.30076722261E+01  0.86224605552E+01  0.51100000000E-03 0.  1.
        -12    1    4    4    0    0 -0.23329501260E+02  0.57191835001E+01  0.15132485592E+02  0.28389554578E+02  0.00000000000E+00 0.  1.
</event>
<event>
 8    1  0.4964753E-012  0.9118800E+02  0.7816164E-02  0.1184000E+00
        -11   -1    0    0    0    0  0.00000000000E+00  0.00000000000E+00  0.45593999997E+02  0.45594000000E+02  0.51100000000E-03 0. -1.
         11   -1    0    0    0    0 -0.00000000000E+00 -0.00000000000E+00 -0.45593999997E+02  0.45594000000E+02  0.51100000000E-03 0.  1.
         23    2    1    2    0    0  0.35527136788E-14  0.00000000000E+00  0.00000000000E+00  0.91188000000E+02  0.91188000000E+02 0.  0.
    9900012    2    3    3    0    0  0.26569573331E+02 -0.22452284250E+02 -0.21050370428E+02  0.50528863386E+02  0.30000010747E+02 0.  0.
         12    1    3    3    0    0 -0.26569573331E+02  0.22452284250E+02  0.21050370428E+02  0.40659136614E+02  0.00000000000E+00 0. -1.
         11    1    4    4    0    0  0.20005567719E+02 -0.15811732143E+02 -0.10958907437E+02  0.27754842201E+02  0.51100000000E-03 0. -1.
        -11    1    4    4    0    0  0.43059344415E+01 -0.98690167941E+01 -0.13704430524E+02  0.17428424488E+02  0.51100000000E-03 0.  1.
         12    1    4    4    0    0  0.22580711712E+01  0.32284646870E+01  0.36129675330E+01  0.53455966967E+01  0.00000000000E+00 0. -1.
</event>
<event>
 8    1  0.4964753E-012  0.9118800E+02  0.7816164E-02  0.1184000E+00
        -11   -1    0    0    0    0  0.00000000000E+00  0.00000000000E+00  0.45593999997E+02  0.45594000000E+02  0.51100000000E-03 0. -1.
         11   -1    0    0    0    0 -0.00000000000E+00 -0.00000000000E+00 -0.45593999997E+02  0.45594000000E+02  0.51100000000E-03 0.  1.
         23    2    1    2    0    0 -0.17763568394E-14  0.17763568394E-14  0.00000000000E+00  0.91188000000E+02  0.91188000000E+02 0.  0.
    9900012    2    3    3    0    0 -0.15800796182E+02  0.13149034179E+02 -0.35079950425E+02  0.50528865950E+02  0.30000018543E+02 0.  0.
         12    1    3    3    0    0  0.15800796182E+02 -0.13149034179E+02  0.35079950425E+02  0.40659134050E+02  0.00000000000E+00 0. -1.
         11    1    4    4    0    0 -0.10566001292E+01  0.10834974439E+02 -0.26115698921E+02  0.28293865153E+02  0.51100000000E-03 0.  1.
        -11    1    4    4    0    0 -0.11735676430E+02 -0.21258163981E+00 -0.12357708487E+02  0.17043598550E+02  0.51100000000E-03 0. -1.
         12    1    4    4    0    0 -0.30085196229E+01  0.25266413804E+01  0.33934569835E+01  0.51914022465E+01  0.00000000000E+00 0. -1.
</event>
<event>
 8    1  0.4964753E-012  0.9118800E+02  0.7816164E-02  0.1184000E+00
        -11   -1    0    0    0    0  0.00000000000E+00  0.00000000000E+00  0.45593999997E+02  0.45594000000E+02  0.51100000000E-03 0. -1.
         11   -1    0    0    0    0 -0.00000000000E+00 -0.00000000000E+00 -0.45593999997E+02  0.45594000000E+02  0.51100000000E-03 0.  1.
         23    2    1    2    0    0 -0.13322676296E-14 -0.35527136788E-14  0.71054273576E-14  0.91188000000E+02  0.91188000000E+02 0.  0.
    9900012    2    3    3    0    0  0.16714860498E+01 -0.13470908288E+02  0.38326322622E+02  0.50528852918E+02  0.29999978930E+02 0.  0.
        -12    1    3    3    0    0 -0.16714860498E+01  0.13470908288E+02 -0.38326322622E+02  0.40659147082E+02  0.00000000000E+00 0.  1.
         11    1    4    4    0    0  0.20283496086E+01 -0.13433719189E+02  0.10226658291E+02  0.17004809716E+02  0.51100000000E-03 0. -1.
        -11    1    4    4    0    0 -0.92331762451E+01 -0.48368001634E+00  0.12182793792E+02  0.15293984268E+02  0.51100000000E-03 0.  1.
         12    1    4    4    0    0  0.88763126863E+01  0.44649091741E+00  0.15916870538E+02  0.18230058935E+02  0.00000000000E+00 0. -1.
</event>
<event>
 8    1  0.4964753E-012  0.9118800E+02  0.7816164E-02  0.1184000E+00
        -11   -1    0    0    0    0  0.00000000000E+00  0.00000000000E+00  0.45593999997E+02  0.45594000000E+02  0.51100000000E-03 0. -1.
         11   -1    0    0    0    0 -0.00000000000E+00 -0.00000000000E+00 -0.45593999997E+02  0.45594000000E+02  0.51100000000E-03 0.  1.
         23    2    1    2    0    0  0.00000000000E+00 -0.88817841970E-15  0.71054273576E-14  0.91188000000E+02  0.91188000000E+02 0.  0.
    9900012    2    3    3    0    0  0.13685141993E+02  0.64191768832E+01 -0.37744888391E+02  0.50528861509E+02  0.30000005042E+02 0.  0.
         12    1    3    3    0    0 -0.13685141993E+02 -0.64191768832E+01  0.37744888391E+02  0.40659138491E+02  0.00000000000E+00 0. -1.
         11    1    4    4    0    0 -0.28421843867E+01 -0.47650284291E+00  0.29511551890E+01  0.41248496043E+01  0.51100000000E-03 0. -1.
        -11    1    4    4    0    0  0.10821949325E+02 -0.37524556621E+00 -0.11569956392E+02  0.15846743754E+02  0.51100000000E-03 0.  1.
        -12    1    4    4    0    0  0.57053770546E+01  0.72709252923E+01 -0.29126087188E+02  0.30557268151E+02  0.00000000000E+00 0.  1.
</event>
<event>
 8    1  0.4964753E-012  0.9118800E+02  0.7816164E-02  0.1184000E+00
        -11   -1    0    0    0    0  0.00000000000E+00  0.00000000000E+00  0.45593999997E+02  0.45594000000E+02  0.51100000000E-03 0.  1.
         11   -1    0    0    0    0 -0.00000000000E+00 -0.00000000000E+00 -0.45593999997E+02  0.45594000000E+02  0.51100000000E-03 0. -1.
         23    2    1    2    0    0  0.88817841970E-15  0.00000000000E+00  0.35527136788E-14  0.91188000000E+02  0.91188000000E+02 0.  0.
    9900012    2    3    3    0    0  0.19369219214E+01  0.31009189648E+02  0.26226786014E+02  0.50528858177E+02  0.29999994915E+02 0.  0.
        -12    1    3    3    0    0 -0.19369219214E+01 -0.31009189648E+02 -0.26226786014E+02  0.40659141823E+02  0.00000000000E+00 0.  1.
         11    1    4    4    0    0 -0.13480778854E+01  0.22042728606E+01  0.55364893123E+01  0.61097337909E+01  0.51100000000E-03 0.  1.
        -11    1    4    4    0    0 -0.78995685494E+01  0.25082148052E+01 -0.12626399275E+01  0.83838287568E+01  0.51100000000E-03 0. -1.
         12    1    4    4    0    0  0.11184568356E+02  0.26296701982E+02  0.21952936630E+02  0.36035295629E+02  0.00000000000E+00 0. -1.
</event>
<event>
 8    1  0.4964753E-012  0.9118800E+02  0.7816164E-02  0.1184000E+00
        -11   -1    0    0    0    0  0.00000000000E+00  0.00000000000E+00  0.45593999997E+02  0.45594000000E+02  0.51100000000E-03 0. -1.
         11   -1    0    0    0    0 -0.00000000000E+00 -0.00000000000E+00 -0.45593999997E+02  0.45594000000E+02  0.51100000000E-03 0.  1.
         23    2    1    2    0    0  0.17763568394E-14 -0.35527136788E-14  0.35527136788E-14  0.91188000000E+02  0.91188000000E+02 0.  0.
    9900012    2    3    3    0    0 -0.12371811459E+02  0.28666249863E+02 -0.26045169268E+02  0.50528850449E+02  0.29999971425E+02 0.  0.
         12    1    3    3    0    0  0.12371811459E+02 -0.28666249863E+02  0.26045169268E+02  0.40659149551E+02  0.00000000000E+00 0. -1.
         11    1    4    4    0    0 -0.21086722014E+01  0.63595108480E+01  0.55399370069E+01  0.86937206638E+01  0.51100000000E-03 0. -1.
        -11    1    4    4    0    0  0.23859975682E+01  0.24102958480E+01 -0.69643238452E+01  0.77462453713E+01  0.51100000000E-03 0.  1.
        -12    1    4    4    0    0 -0.12649136826E+02  0.19896443167E+02 -0.24620782430E+02  0.34088884414E+02  0.00000000000E+00 0.  1.
</event>
<event>
 8    1  0.4964753E-012  0.9118800E+02  0.7816164E-02  0.1184000E+00
        -11   -1    0    0    0    0  0.00000000000E+00  0.00000000000E+00  0.45593999997E+02  0.45594000000E+02  0.51100000000E-03 0. -1.
         11   -1    0    0    0    0 -0.00000000000E+00 -0.00000000000E+00 -0.45593999997E+02  0.45594000000E+02  0.51100000000E-03 0.  1.
         23    2    1    2    0    0  0.00000000000E+00  0.00000000000E+00 -0.71054273576E-14  0.91188000000E+02  0.91188000000E+02 0.  0.
    9900012    2    3    3    0    0  0.10573518155E+02  0.86486701957E+01  0.38295785029E+02  0.50528856708E+02  0.29999990448E+02 0.  0.
        -12    1    3    3    0    0 -0.10573518155E+02 -0.86486701957E+01 -0.38295785029E+02  0.40659143292E+02  0.00000000000E+00 0.  1.
         11    1    4    4    0    0 -0.19763076624E+01  0.73714870133E+01  0.25603471843E+02  0.26716706074E+02  0.51100000000E-03 0. -1.
        -11    1    4    4    0    0 -0.20857095166E+00 -0.38124353322E+01  0.87104680164E+01  0.95105424835E+01  0.51100000000E-03 0.  1.
        -12    1    4    4    0    0  0.12758396769E+02  0.50896185146E+01  0.39818451692E+01  0.14301608150E+02  0.00000000000E+00 0.  1.
</event>
<event>
 8    1  0.4964753E-012  0.9118800E+02  0.7816164E-02  0.1184000E+00
        -11   -1    0    0    0    0  0.00000000000E+00  0.00000000000E+00  0.45593999997E+02  0.45594000000E+02  0.51100000000E-03 0. -1.
         11   -1    0    0    0    0 -0.00000000000E+00 -0.00000000000E+00 -0.45593999997E+02  0.45594000000E+02  0.51100000000E-03 0.  1.
         23    2    1    2    0    0  0.00000000000E+00 -0.88817841970E-15 -0.71054273576E-14  0.91188000000E+02  0.91188000000E+02 0.  0.
    9900012    2    3    3    0    0 -0.74487914125E+01  0.66257084178E+01  0.39418030589E+02  0.50528860301E+02  0.30000001370E+02 0.  0.
        -12    1    3    3    0    0  0.74487914125E+01 -0.66257084178E+01 -0.39418030589E+02  0.40659139699E+02  0.00000000000E+00 0.  1.
         11    1    4    4    0    0  0.24649088778E+01  0.55408425439E+01  0.32850239301E+01  0.68969626905E+01  0.51100000000E-03 0. -1.
        -11    1    4    4    0    0  0.35413572081E+01 -0.76369482051E+01  0.12833371330E+02  0.15347951288E+02  0.51100000000E-03 0.  1.
        -12    1    4    4    0    0 -0.13455057498E+02  0.87218140790E+01  0.23299635329E+02  0.28283946322E+02  0.00000000000E+00 0.  1.
</event>
<event>
 8    1  0.4964753E-012  0.9118800E+02  0.7816164E-02  0.1184000E+00
        -11   -1    0    0    0    0  0.00000000000E+00  0.00000000000E+00  0.45593999997E+02  0.45594000000E+02  0.51100000000E-03 0. -1.
         11   -1    0    0    0    0 -0.00000000000E+00 -0.00000000000E+00 -0.45593999997E+02  0.45594000000E+02  0.51100000000E-03 0.  1.
         23    2    1    2    0    0  0.00000000000E+00 -0.35527136788E-14  0.35527136788E-14  0.91188000000E+02  0.91188000000E+02 0.  0.
    9900012    2    3    3    0    0  0.21379167443E+02 -0.22322087047E+02 -0.26416305269E+02  0.50528861362E+02  0.30000004597E+02 0.  0.
         12    1    3    3    0    0 -0.21379167443E+02  0.22322087047E+02  0.26416305269E+02  0.40659138638E+02  0.00000000000E+00 0. -1.
         11    1    4    4    0    0  0.47698806147E+01  0.61510256235E+01 -0.21193247677E+01  0.80671193763E+01  0.51100000000E-03 0. -1.
        -11    1    4    4    0    0 -0.15945223246E+01 -0.40554237963E+01 -0.27260468248E+01  0.51400676224E+01  0.51100000000E-03 0.  1.
        -12    1    4    4    0    0  0.18203809152E+02 -0.24417688874E+02 -0.21570933677E+02  0.37321674364E+02  0.00000000000E+00 0.  1.
</event>
<event>
 8    1  0.4964753E-012  0.9118800E+02  0.7816164E-02  0.1184000E+00
        -11   -1    0    0    0    0  0.00000000000E+00  0.00000000000E+00  0.45593999997E+02  0.45594000000E+02  0.51100000000E-03 0. -1.
         11   -1    0    0    0    0 -0.00000000000E+00 -0.00000000000E+00 -0.45593999997E+02  0.45594000000E+02  0.51100000000E-03 0.  1.
         23    2    1    2    0    0  0.35527136788E-14 -0.35527136788E-14  0.00000000000E+00  0.91188000000E+02  0.91188000000E+02 0.  0.
    9900012    2    3    3    0    0  0.21480591882E+02  0.30942808120E+02 -0.15306615572E+02  0.50528859795E+02  0.29999999833E+02 0.  0.
         12    1    3    3    0    0 -0.21480591882E+02 -0.30942808120E+02  0.15306615572E+02  0.40659140205E+02  0.00000000000E+00 0. -1.
         11    1    4    4    0    0  0.84169211866E+01  0.95336698425E+01  0.14335430344E+01  0.12798065042E+02  0.51100000000E-03 0. -1.
        -11    1    4    4    0    0  0.14571791707E+02  0.25170042094E+02 -0.11914806003E+02  0.31429774656E+02  0.51100000000E-03 0.  1.
        -12    1    4    4    0    0 -0.15081210121E+01 -0.37609038171E+01 -0.48253526038E+01  0.63010200967E+01  0.00000000000E+00 0.  1.
</event>
<event>
 8    1  0.4964753E-012  0.9118800E+02  0.7816164E-02  0.1184000E+00
        -11   -1    0    0    0    0  0.00000000000E+00  0.00000000000E+00  0.45593999997E+02  0.45594000000E+02  0.51100000000E-03 0. -1.
         11   -1    0    0    0    0 -0.00000000000E+00 -0.00000000000E+00 -0.45593999997E+02  0.45594000000E+02  0.51100000000E-03 0.  1.
         23    2    1    2    0    0 -0.35527136788E-14  0.00000000000E+00  0.00000000000E+00  0.91188000000E+02  0.91188000000E+02 0.  0.
    9900012    2    3    3    0    0 -0.26269833921E+02 -0.27049363436E+02  0.15211606808E+02  0.50528865501E+02  0.30000017176E+02 0.  0.
        -12    1    3    3    0    0  0.26269833921E+02  0.27049363436E+02 -0.15211606808E+02  0.40659134499E+02  0.00000000000E+00 0.  1.
         11    1    4    4    0    0  0.39548357412E+00 -0.16649263530E+01  0.62252509918E+01  0.64561704741E+01  0.51100000000E-03 0. -1.
        -11    1    4    4    0    0  0.34450594393E+01  0.37687004791E+00  0.12846995346E+00  0.34679922669E+01  0.51100000000E-03 0.  1.
         12    1    4    4    0    0 -0.30110376935E+02 -0.25761307131E+02  0.88578858624E+01  0.40604702760E+02  0.00000000000E+00 0. -1.
</event>
<event>
 8    1  0.4964753E-012  0.9118800E+02  0.7816164E-02  0.1184000E+00
        -11   -1    0    0    0    0  0.00000000000E+00  0.00000000000E+00  0.45593999997E+02  0.45594000000E+02  0.51100000000E-03 0. -1.
         11   -1    0    0    0    0 -0.00000000000E+00 -0.00000000000E+00 -0.45593999997E+02  0.45594000000E+02  0.51100000000E-03 0.  1.
         23    2    1    2    0    0  0.00000000000E+00  0.00000000000E+00  0.00000000000E+00  0.91188000000E+02  0.91188000000E+02 0.  0.
    9900012    2    3    3    0    0  0.31112603235E+02  0.22992443753E+02  0.12510785633E+02  0.50528852112E+02  0.29999976480E+02 0.  0.
        -12    1    3    3    0    0 -0.31112603235E+02 -0.22992443753E+02 -0.12510785633E+02  0.40659147888E+02  0.00000000000E+00 0.  1.
         11    1    4    4    0    0  0.26314737831E+01  0.12645076886E+02  0.27546630098E+01  0.13206467820E+02  0.51100000000E-03 0. -1.
        -11    1    4    4    0    0  0.21180122518E+02  0.10422362149E+02 -0.17769893454E+01  0.23672366042E+02  0.51100000000E-03 0.  1.
        -12    1    4    4    0    0  0.73010069336E+01 -0.74995281523E-01  0.11533111968E+02  0.13650018250E+02  0.00000000000E+00 0.  1.
</event>
<event>
 8    1  0.4964753E-012  0.9118800E+02  0.7816164E-02  0.1184000E+00
        -11   -1    0    0    0    0  0.00000000000E+00  0.00000000000E+00  0.45593999997E+02  0.45594000000E+02  0.51100000000E-03 0. -1.
         11   -1    0    0    0    0 -0.00000000000E+00 -0.00000000000E+00 -0.45593999997E+02  0.45594000000E+02  0.51100000000E-03 0.  1.
         23    2    1    2    0    0  0.00000000000E+00  0.35527136788E-14  0.35527136788E-14  0.91188000000E+02  0.91188000000E+02 0.  0.
    9900012    2    3    3    0    0  0.20405390249E+02  0.24448570878E+02 -0.25279495121E+02  0.50528862739E+02  0.30000008783E+02 0.  0.
         12    1    3    3    0    0 -0.20405390249E+02 -0.24448570878E+02  0.25279495121E+02  0.40659137261E+02  0.00000000000E+00 0. -1.
         11    1    4    4    0    0 -0.57215297404E+00 -0.20018598518E+01  0.26681330259E+01  0.33843368622E+01  0.51100000000E-03 0. -1.
        -11    1    4    4    0    0  0.12528409017E+02  0.51616273951E+01 -0.42825241112E+01  0.14210680592E+02  0.51100000000E-03 0.  1.
        -12    1    4    4    0    0  0.84491342066E+01  0.21288803335E+02 -0.23665104036E+02  0.32933845286E+02  0.00000000000E+00 0.  1.
</event>
<event>
 8    1  0.4964753E-012  0.9118800E+02  0.7816164E-02  0.1184000E+00
        -11   -1    0    0    0    0  0.00000000000E+00  0.00000000000E+00  0.45593999997E+02  0.45594000000E+02  0.51100000000E-03 0. -1.
         11   -1    0    0    0    0 -0.00000000000E+00 -0.00000000000E+00 -0.45593999997E+02  0.45594000000E+02  0.51100000000E-03 0.  1.
         23    2    1    2    0    0  0.00000000000E+00  0.17763568394E-14  0.22204460493E-15  0.91188000000E+02  0.91188000000E+02 0.  0.
    9900012    2    3    3    0    0 -0.38788314158E+02 -0.12178116559E+02  0.56723837502E+00  0.50528910025E+02  0.30000152513E+02 0.  0.
        -12    1    3    3    0    0  0.38788314158E+02  0.12178116559E+02 -0.56723837502E+00  0.40659089975E+02  0.00000000000E+00 0.  1.
         11    1    4    4    0    0 -0.23011504772E+02 -0.14554349548E+02  0.14215187245E+01  0.27264980439E+02  0.51100000000E-03 0. -1.
        -11    1    4    4    0    0 -0.93879979260E+01 -0.40413684824E+00  0.77584689290E+01  0.12185715902E+02  0.51100000000E-03 0.  1.
        -12    1    4    4    0    0 -0.63888114609E+01  0.27803698364E+01 -0.86127492785E+01  0.11078213685E+02  0.00000000000E+00 0.  1.
</event>
<event>
 8    1  0.4964753E-012  0.9118800E+02  0.7816164E-02  0.1184000E+00
        -11   -1    0    0    0    0  0.00000000000E+00  0.00000000000E+00  0.45593999997E+02  0.45594000000E+02  0.51100000000E-03 0. -1.
         11   -1    0    0    0    0 -0.00000000000E+00 -0.00000000000E+00 -0.45593999997E+02  0.45594000000E+02  0.51100000000E-03 0.  1.
         23    2    1    2    0    0  0.00000000000E+00  0.00000000000E+00 -0.33306690739E-15  0.91188000000E+02  0.91188000000E+02 0.  0.
    9900012    2    3    3    0    0  0.18113388094E+02  0.36398338418E+02 -0.48103955085E+00  0.50528864902E+02  0.30000015357E+02 0.  0.
         12    1    3    3    0    0 -0.18113388094E+02 -0.36398338418E+02  0.48103955085E+00  0.40659135098E+02  0.00000000000E+00 0. -1.
         11    1    4    4    0    0  0.10708936104E+01  0.25452352751E+01  0.54897973776E+01  0.61451534756E+01  0.51100000000E-03 0. -1.
        -11    1    4    4    0    0  0.17306807674E+02  0.12004014344E+02  0.19251491082E+01  0.21150133607E+02  0.51100000000E-03 0.  1.
        -12    1    4    4    0    0 -0.26431319037E+00  0.21849088799E+02 -0.78959860367E+01  0.23233577819E+02  0.00000000000E+00 0.  1.
</event>
<event>
 8    1  0.4964753E-012  0.9118800E+02  0.7816164E-02  0.1184000E+00
        -11   -1    0    0    0    0  0.00000000000E+00  0.00000000000E+00  0.45593999997E+02  0.45594000000E+02  0.51100000000E-03 0. -1.
         11   -1    0    0    0    0 -0.00000000000E+00 -0.00000000000E+00 -0.45593999997E+02  0.45594000000E+02  0.51100000000E-03 0.  1.
         23    2    1    2    0    0  0.00000000000E+00 -0.88817841970E-15  0.00000000000E+00  0.91188000000E+02  0.91188000000E+02 0.  0.
    9900012    2    3    3    0    0  0.30813978288E+02  0.64301489091E+01  0.25735500998E+02  0.50528879442E+02  0.30000059553E+02 0.  0.
        -12    1    3    3    0    0 -0.30813978288E+02 -0.64301489091E+01 -0.25735500998E+02  0.40659120558E+02  0.00000000000E+00 0.  1.
         11    1    4    4    0    0  0.67478050907E+01  0.37956751353E+01  0.14034121746E+02  0.16027994158E+02  0.51100000000E-03 0.  1.
        -11    1    4    4    0    0  0.10447274460E+02  0.11768383901E+02  0.33125484637E+01  0.16081460782E+02  0.51100000000E-03 0. -1.
         12    1    4    4    0    0  0.13618898737E+02 -0.91339101276E+01  0.83888307879E+01  0.18419424503E+02  0.00000000000E+00 0. -1.
</event>
<event>
 8    1  0.4964753E-012  0.9118800E+02  0.7816164E-02  0.1184000E+00
        -11   -1    0    0    0    0  0.00000000000E+00  0.00000000000E+00  0.45593999997E+02  0.45594000000E+02  0.51100000000E-03 0. -1.
         11   -1    0    0    0    0 -0.00000000000E+00 -0.00000000000E+00 -0.45593999997E+02  0.45594000000E+02  0.51100000000E-03 0.  1.
         23    2    1    2    0    0  0.00000000000E+00 -0.44408920985E-15  0.00000000000E+00  0.91188000000E+02  0.91188000000E+02 0.  0.
    9900012    2    3    3    0    0  0.13030053744E+02 -0.39937314080E+01 -0.38307090552E+02  0.50528863540E+02  0.30000011215E+02 0.  0.
         12    1    3    3    0    0 -0.13030053744E+02  0.39937314080E+01  0.38307090552E+02  0.40659136460E+02  0.00000000000E+00 0. -1.
         11    1    4    4    0    0  0.37515082344E+00 -0.15337035384E+01  0.61723664449E+00  0.16952775644E+01  0.51100000000E-03 0. -1.
        -11    1    4    4    0    0  0.22167701940E+01  0.11693266850E+02 -0.15458836417E+02  0.19509540828E+02  0.51100000000E-03 0.  1.
        -12    1    4    4    0    0  0.10438132727E+02 -0.14153294719E+02 -0.23465490780E+02  0.29324045147E+02  0.00000000000E+00 0.  1.
</event>
<event>
 8    1  0.4964753E-012  0.9118800E+02  0.7816164E-02  0.1184000E+00
        -11   -1    0    0    0    0  0.00000000000E+00  0.00000000000E+00  0.45593999997E+02  0.45594000000E+02  0.51100000000E-03 0. -1.
         11   -1    0    0    0    0 -0.00000000000E+00 -0.00000000000E+00 -0.45593999997E+02  0.45594000000E+02  0.51100000000E-03 0.  1.
         23    2    1    2    0    0  0.00000000000E+00 -0.22204460493E-15  0.00000000000E+00  0.91188000000E+02  0.91188000000E+02 0.  0.
    9900012    2    3    3    0    0 -0.20720825104E+02 -0.15782611688E+01  0.34947422518E+02  0.50528857830E+02  0.29999993861E+02 0.  0.
        -12    1    3    3    0    0  0.20720825104E+02  0.15782611688E+01 -0.34947422518E+02  0.40659142170E+02  0.00000000000E+00 0.  1.
         11    1    4    4    0    0 -0.10815644494E+02  0.42955097623E+01 -0.25756027951E+00  0.11640270937E+02  0.51100000000E-03 0. -1.
        -11    1    4    4    0    0 -0.56557345249E+01  0.25084186220E-01  0.42054475508E+01  0.70479608112E+01  0.51100000000E-03 0.  1.
         12    1    4    4    0    0 -0.42494460850E+01 -0.58988551174E+01  0.30999535247E+02  0.31840626082E+02  0.00000000000E+00 0. -1.
</event>
<event>
 8    1  0.4964753E-012  0.9118800E+02  0.7816164E-02  0.1184000E+00
        -11   -1    0    0    0    0  0.00000000000E+00  0.00000000000E+00  0.45593999997E+02  0.45594000000E+02  0.51100000000E-03 0. -1.
         11   -1    0    0    0    0 -0.00000000000E+00 -0.00000000000E+00 -0.45593999997E+02  0.45594000000E+02  0.51100000000E-03 0.  1.
         23    2    1    2    0    0 -0.44408920985E-15  0.00000000000E+00  0.00000000000E+00  0.91188000000E+02  0.91188000000E+02 0.  0.
    9900012    2    3    3    0    0  0.23548653038E+01 -0.64072472043E+01 -0.40081992501E+02  0.50528876421E+02  0.30000050369E+02 0.  0.
         12    1    3    3    0    0 -0.23548653038E+01  0.64072472043E+01  0.40081992501E+02  0.40659123579E+02  0.00000000000E+00 0. -1.
         11    1    4    4    0    0  0.65041273070E+01  0.15767325253E+01 -0.51951407831E+01  0.84722633044E+01  0.51100000000E-03 0. -1.
        -11    1    4    4    0    0  0.23586001493E+01 -0.12004316294E+02 -0.93472419088E+01  0.15396023380E+02  0.51100000000E-03 0.  1.
        -12    1    4    4    0    0 -0.65078621525E+01  0.40203365644E+01 -0.25539609809E+02  0.26660589737E+02  0.00000000000E+00 0.  1.
</event>
<event>
 8    1  0.4964753E-012  0.9118800E+02  0.7816164E-02  0.1184000E+00
        -11   -1    0    0    0    0  0.00000000000E+00  0.00000000000E+00  0.45593999997E+02  0.45594000000E+02  0.51100000000E-03 0. -1.
         11   -1    0    0    0    0 -0.00000000000E+00 -0.00000000000E+00 -0.45593999997E+02  0.45594000000E+02  0.51100000000E-03 0.  1.
         23    2    1    2    0    0  0.00000000000E+00  0.00000000000E+00  0.00000000000E+00  0.91188000000E+02  0.91188000000E+02 0.  0.
    9900012    2    3    3    0    0  0.16463416264E+02  0.96587775287E+00  0.37164345442E+02  0.50528861212E+02  0.30000004139E+02 0.  0.
        -12    1    3    3    0    0 -0.16463416264E+02 -0.96587775287E+00 -0.37164345442E+02  0.40659138788E+02  0.00000000000E+00 0.  1.
         11    1    4    4    0    0  0.91956067414E+01  0.53966105454E+01  0.26532570385E+01  0.10987372839E+02  0.51100000000E-03 0. -1.
        -11    1    4    4    0    0 -0.39856315815E+01  0.36821034295E+01  0.99293184751E+01  0.11315233555E+02  0.51100000000E-03 0.  1.
        -12    1    4    4    0    0  0.11253441104E+02 -0.81128362220E+01  0.24581769928E+02  0.28226254818E+02  0.00000000000E+00 0.  1.
</event>
<event>
 8    1  0.6733598E-012  0.9118800E+02  0.7816164E-02  0.1184000E+00
        -11   -1    0    0    0    0  0.00000000000E+00  0.00000000000E+00  0.45593999997E+02  0.45594000000E+02  0.51100000000E-03 0. -1.
         11   -1    0    0    0    0 -0.00000000000E+00 -0.00000000000E+00 -0.45593999997E+02  0.45594000000E+02  0.51100000000E-03 0.  1.
         23    2    1    2    0    0  0.71054273576E-14 -0.88817841970E-15 -0.35527136788E-14  0.91188000000E+02  0.91188000000E+02 0.  0.
    9900012    2    3    3    0    0 -0.28637120126E+02  0.66563993575E+01 -0.28085100835E+02  0.50528865842E+02  0.30000018214E+02 0.  0.
         12    1    3    3    0    0  0.28637120126E+02 -0.66563993575E+01  0.28085100835E+02  0.40659134158E+02  0.00000000000E+00 0. -1.
         11    1    4    4    0    0 -0.37915148228E+01  0.14690793471E+01  0.28595823953E+01  0.49710150388E+01  0.51100000000E-03 0. -1.
        -11    1    4    4    0    0 -0.21671854707E+02 -0.54340154401E+01 -0.20224158070E+02  0.30136595364E+02  0.51100000000E-03 0.  1.
         12    1    4    4    0    0 -0.31737505965E+01  0.10621335451E+02 -0.10720525161E+02  0.15421255439E+02  0.00000000000E+00 0. -1.
</event>
<event>
 8    1  0.4964753E-012  0.9118800E+02  0.7816164E-02  0.1184000E+00
        -11   -1    0    0    0    0  0.00000000000E+00  0.00000000000E+00  0.45593999997E+02  0.45594000000E+02  0.51100000000E-03 0. -1.
         11   -1    0    0    0    0 -0.00000000000E+00 -0.00000000000E+00 -0.45593999997E+02  0.45594000000E+02  0.51100000000E-03 0.  1.
         23    2    1    2    0    0  0.00000000000E+00  0.71054273576E-14 -0.35527136788E-14  0.91188000000E+02  0.91188000000E+02 0.  0.
    9900012    2    3    3    0    0  0.60629111528E+01  0.36256794812E+02 -0.17373863141E+02  0.50528865944E+02  0.30000018524E+02 0.  0.
         12    1    3    3    0    0 -0.60629111528E+01 -0.36256794812E+02  0.17373863141E+02  0.40659134056E+02  0.00000000000E+00 0. -1.
         11    1    4    4    0    0 -0.43135801840E+01  0.10959053229E+02 -0.14254206454E+02  0.18490273756E+02  0.51100000000E-03 0. -1.
        -11    1    4    4    0    0  0.58659841348E+01  0.13501298924E+02 -0.98653342941E+01  0.17720599975E+02  0.51100000000E-03 0.  1.
         12    1    4    4    0    0  0.45105072021E+01  0.11796442659E+02  0.67456776064E+01  0.14317992213E+02  0.00000000000E+00 0. -1.
</event>
<event>
 8    1  0.4964753E-012  0.9118800E+02  0.7816164E-02  0.1184000E+00
        -11   -1    0    0    0    0  0.00000000000E+00  0.00000000000E+00  0.45593999997E+02  0.45594000000E+02  0.51100000000E-03 0. -1.
         11   -1    0    0    0    0 -0.00000000000E+00 -0.00000000000E+00 -0.45593999997E+02  0.45594000000E+02  0.51100000000E-03 0.  1.
         23    2    1    2    0    0  0.00000000000E+00  0.00000000000E+00  0.71054273576E-14  0.91188000000E+02  0.91188000000E+02 0.  0.
    9900012    2    3    3    0    0 -0.26150875713E+02  0.13496208808E+02  0.28056182406E+02  0.50528864201E+02  0.30000013225E+02 0.  0.
        -12    1    3    3    0    0  0.26150875713E+02 -0.13496208808E+02 -0.28056182406E+02  0.40659135799E+02  0.00000000000E+00 0.  1.
         11    1    4    4    0    0 -0.10285971740E+02 -0.18023317988E+01  0.86473674423E+01  0.13558266058E+02  0.51100000000E-03 0. -1.
        -11    1    4    4    0    0 -0.17608578179E+02  0.19104528960E+02  0.19939071398E+02  0.32750749927E+02  0.51100000000E-03 0.  1.
        -12    1    4    4    0    0  0.17436742060E+01 -0.38059883533E+01 -0.53025643457E+00  0.42198482163E+01  0.00000000000E+00 0.  1.
</event>
<event>
 8    1  0.4964753E-012  0.9118800E+02  0.7816164E-02  0.1184000E+00
        -11   -1    0    0    0    0  0.00000000000E+00  0.00000000000E+00  0.45593999997E+02  0.45594000000E+02  0.51100000000E-03 0. -1.
         11   -1    0    0    0    0 -0.00000000000E+00 -0.00000000000E+00 -0.45593999997E+02  0.45594000000E+02  0.51100000000E-03 0.  1.
         23    2    1    2    0    0 -0.17763568394E-14  0.17763568394E-14  0.71054273576E-14  0.91188000000E+02  0.91188000000E+02 0.  0.
    9900012    2    3    3    0    0  0.13938711402E+02 -0.52617421123E+01 -0.37831100965E+02  0.50528858275E+02  0.29999995211E+02 0.  0.
         12    1    3    3    0    0 -0.13938711402E+02  0.52617421123E+01  0.37831100965E+02  0.40659141725E+02  0.00000000000E+00 0. -1.
         11    1    4    4    0    0 -0.12450016234E+01 -0.28281865227E+01  0.29311036943E+01  0.42591122523E+01  0.51100000000E-03 0. -1.
        -11    1    4    4    0    0  0.15156922376E+01 -0.64096069628E+01 -0.20312196390E+02  0.21353353526E+02  0.51100000000E-03 0.  1.
        -12    1    4    4    0    0  0.13668020788E+02  0.39760513732E+01 -0.20450008270E+02  0.24916392496E+02  0.00000000000E+00 0.  1.
</event>
<event>
 8    1  0.4964753E-012  0.9118800E+02  0.7816164E-02  0.1184000E+00
        -11   -1    0    0    0    0  0.00000000000E+00  0.00000000000E+00  0.45593999997E+02  0.45594000000E+02  0.51100000000E-03 0. -1.
         11   -1    0    0    0    0 -0.00000000000E+00 -0.00000000000E+00 -0.45593999997E+02  0.45594000000E+02  0.51100000000E-03 0.  1.
         23    2    1    2    0    0  0.00000000000E+00 -0.17763568394E-14  0.00000000000E+00  0.91188000000E+02  0.91188000000E+02 0.  0.
    9900012    2    3    3    0    0 -0.70444927729E+01 -0.12830516838E+02  0.37933079643E+02  0.50528861151E+02  0.30000003953E+02 0.  0.
        -12    1    3    3    0    0  0.70444927729E+01  0.12830516838E+02 -0.37933079643E+02  0.40659138849E+02  0.00000000000E+00 0.  1.
         11    1    4    4    0    0 -0.10016374935E+01  0.35128641242E+01  0.99976550219E+01  0.10644087477E+02  0.51100000000E-03 0. -1.
        -11    1    4    4    0    0  0.23291365780E+01 -0.14262460062E+01 -0.32930271146E+01  0.42782102225E+01  0.51100000000E-03 0.  1.
         12    1    4    4    0    0 -0.83719918574E+01 -0.14917134956E+02  0.31228451736E+02  0.35606563451E+02  0.00000000000E+00 0. -1.
</event>
<event>
 8    1  0.4964753E-012  0.9118800E+02  0.7816164E-02  0.1184000E+00
        -11   -1    0    0    0    0  0.00000000000E+00  0.00000000000E+00  0.45593999997E+02  0.45594000000E+02  0.51100000000E-03 0. -1.
         11   -1    0    0    0    0 -0.00000000000E+00 -0.00000000000E+00 -0.45593999997E+02  0.45594000000E+02  0.51100000000E-03 0.  1.
         23    2    1    2    0    0 -0.17763568394E-14  0.44408920985E-15  0.00000000000E+00  0.91188000000E+02  0.91188000000E+02 0.  0.
    9900012    2    3    3    0    0  0.90248697597E+01  0.20681825414E+01  0.39590906379E+02  0.50528861776E+02  0.30000005855E+02 0.  0.
        -12    1    3    3    0    0 -0.90248697597E+01 -0.20681825414E+01 -0.39590906379E+02  0.40659138224E+02  0.00000000000E+00 0.  1.
         11    1    4    4    0    0 -0.23294881783E+01  0.18432526881E+01 -0.13259479600E+00  0.29734958023E+01  0.51100000000E-03 0.  1.
        -11    1    4    4    0    0  0.18393483128E+02  0.27597975713E+01  0.29790763385E+02  0.35120169241E+02  0.51100000000E-03 0. -1.
         12    1    4    4    0    0 -0.70391251898E+01 -0.25348677180E+01  0.99327377898E+01  0.12435196733E+02  0.00000000000E+00 0. -1.
</event>
<event>
 8    1  0.4964753E-012  0.9118800E+02  0.7816164E-02  0.1184000E+00
        -11   -1    0    0    0    0  0.00000000000E+00  0.00000000000E+00  0.45593999997E+02  0.45594000000E+02  0.51100000000E-03 0. -1.
         11   -1    0    0    0    0 -0.00000000000E+00 -0.00000000000E+00 -0.45593999997E+02  0.45594000000E+02  0.51100000000E-03 0.  1.
         23    2    1    2    0    0  0.35527136788E-14  0.88817841970E-15  0.00000000000E+00  0.91188000000E+02  0.91188000000E+02 0.  0.
    9900012    2    3    3    0    0 -0.31093260663E+02 -0.69423034874E+01  0.25262232756E+02  0.50528845555E+02  0.29999956548E+02 0.  0.
        -12    1    3    3    0    0  0.31093260663E+02  0.69423034874E+01 -0.25262232756E+02  0.40659154445E+02  0.00000000000E+00 0.  1.
         11    1    4    4    0    0 -0.75364822337E+01 -0.48455515905E+01  0.18579664543E+02  0.20627211868E+02  0.51100000000E-03 0. -1.
        -11    1    4    4    0    0  0.23506907168E+01 -0.42438815404E+00 -0.13272981740E+01  0.27326860147E+01  0.51100000000E-03 0.  1.
        -12    1    4    4    0    0 -0.25907469146E+02 -0.16723637429E+01  0.80098663878E+01  0.27168947672E+02  0.00000000000E+00 0.  1.
</event>
<event>
 8    1  0.4964753E-012  0.9118800E+02  0.7816164E-02  0.1184000E+00
        -11   -1    0    0    0    0  0.00000000000E+00  0.00000000000E+00  0.45593999997E+02  0.45594000000E+02  0.51100000000E-03 0. -1.
         11   -1    0    0    0    0 -0.00000000000E+00 -0.00000000000E+00 -0.45593999997E+02  0.45594000000E+02  0.51100000000E-03 0.  1.
         23    2    1    2    0    0 -0.17763568394E-14  0.00000000000E+00  0.00000000000E+00  0.91188000000E+02  0.91188000000E+02 0.  0.
    9900012    2    3    3    0    0  0.10534077561E+02 -0.11424396438E+02  0.37572328159E+02  0.50528887033E+02  0.30000082624E+02 0.  0.
        -12    1    3    3    0    0 -0.10534077561E+02  0.11424396438E+02 -0.37572328159E+02  0.40659112967E+02  0.00000000000E+00 0.  1.
         11    1    4    4    0    0  0.11308976088E+02 -0.60027551348E+01  0.25548174462E+02  0.28576830265E+02  0.51100000000E-03 0. -1.
        -11    1    4    4    0    0  0.74123550280E+01 -0.67300236874E+01  0.56681413579E+01  0.11504957740E+02  0.51100000000E-03 0.  1.
         12    1    4    4    0    0 -0.81872535553E+01  0.13083823843E+01  0.63560123387E+01  0.10447099028E+02  0.00000000000E+00 0. -1.
</event>
<event>
 8    1  0.4964753E-012  0.9118800E+02  0.7816164E-02  0.1184000E+00
        -11   -1    0    0    0    0  0.00000000000E+00  0.00000000000E+00  0.45593999997E+02  0.45594000000E+02  0.51100000000E-03 0. -1.
         11   -1    0    0    0    0 -0.00000000000E+00 -0.00000000000E+00 -0.45593999997E+02  0.45594000000E+02  0.51100000000E-03 0.  1.
         23    2    1    2    0    0  0.00000000000E+00  0.00000000000E+00 -0.35527136788E-14  0.91188000000E+02  0.91188000000E+02 0.  0.
    9900012    2    3    3    0    0  0.16351059400E+02  0.19165903526E+02  0.31913576089E+02  0.50528864000E+02  0.30000012615E+02 0.  0.
        -12    1    3    3    0    0 -0.16351059400E+02 -0.19165903526E+02 -0.31913576089E+02  0.40659136000E+02  0.00000000000E+00 0.  1.
         11    1    4    4    0    0 -0.21487650310E+01  0.14185018130E+02  0.19402305232E+02  0.24130507228E+02  0.51100000000E-03 0. -1.
        -11    1    4    4    0    0  0.15068726341E+01 -0.29653302667E+01  0.53887233179E+01  0.63326288367E+01  0.51100000000E-03 0.  1.
        -12    1    4    4    0    0  0.16992951797E+02  0.79462156627E+01  0.71225475387E+01  0.20065727935E+02  0.00000000000E+00 0.  1.
</event>
<event>
 8    1  0.4964753E-012  0.9118800E+02  0.7816164E-02  0.1184000E+00
        -11   -1    0    0    0    0  0.00000000000E+00  0.00000000000E+00  0.45593999997E+02  0.45594000000E+02  0.51100000000E-03 0. -1.
         11   -1    0    0    0    0 -0.00000000000E+00 -0.00000000000E+00 -0.45593999997E+02  0.45594000000E+02  0.51100000000E-03 0.  1.
         23    2    1    2    0    0 -0.44408920985E-15  0.88817841970E-15  0.00000000000E+00  0.91188000000E+02  0.91188000000E+02 0.  0.
    9900012    2    3    3    0    0  0.21347670451E+01 -0.61635697045E+01 -0.40132514824E+02  0.50528861200E+02  0.30000004104E+02 0.  0.
         12    1    3    3    0    0 -0.21347670451E+01  0.61635697045E+01  0.40132514824E+02  0.40659138800E+02  0.00000000000E+00 0. -1.
         11    1    4    4    0    0 -0.49560944151E+00 -0.13861517847E+02 -0.22400555066E+02  0.26347147347E+02  0.51100000000E-03 0. -1.
        -11    1    4    4    0    0  0.34748789390E+01  0.16452377822E+00 -0.16042202850E+02  0.16415057852E+02  0.51100000000E-03 0.  1.
         12    1    4    4    0    0 -0.84450245232E+00  0.75334243647E+01 -0.16897569072E+01  0.77666560021E+01  0.00000000000E+00 0. -1.
</event>
<event>
 8    1  0.4964753E-012  0.9118800E+02  0.7816164E-02  0.1184000E+00
        -11   -1    0    0    0    0  0.00000000000E+00  0.00000000000E+00  0.45593999997E+02  0.45594000000E+02  0.51100000000E-03 0.  1.
         11   -1    0    0    0    0 -0.00000000000E+00 -0.00000000000E+00 -0.45593999997E+02  0.45594000000E+02  0.51100000000E-03 0. -1.
         23    2    1    2    0    0 -0.88817841970E-15  0.71054273576E-14  0.00000000000E+00  0.91188000000E+02  0.91188000000E+02 0.  0.
    9900012    2    3    3    0    0  0.53796932103E+01 -0.30542035419E+02  0.26294667165E+02  0.50528849149E+02  0.29999967474E+02 0.  0.
        -12    1    3    3    0    0 -0.53796932103E+01  0.30542035419E+02 -0.26294667165E+02  0.40659150851E+02  0.00000000000E+00 0.  1.
         11    1    4    4    0    0  0.54632119482E+01 -0.16320305106E+02  0.22913060770E+02  0.28656716449E+02  0.51100000000E-03 0. -1.
        -11    1    4    4    0    0  0.18274280879E+01 -0.27000635784E+01  0.85126429391E+01  0.91156418762E+01  0.51100000000E-03 0.  1.
         12    1    4    4    0    0 -0.19109468258E+01 -0.11521666735E+02 -0.51310365443E+01  0.12756490824E+02  0.00000000000E+00 0. -1.
</event>
<event>
 8    1  0.4964753E-012  0.9118800E+02  0.7816164E-02  0.1184000E+00
        -11   -1    0    0    0    0  0.00000000000E+00  0.00000000000E+00  0.45593999997E+02  0.45594000000E+02  0.51100000000E-03 0. -1.
         11   -1    0    0    0    0 -0.00000000000E+00 -0.00000000000E+00 -0.45593999997E+02  0.45594000000E+02  0.51100000000E-03 0.  1.
         23    2    1    2    0    0  0.00000000000E+00  0.00000000000E+00  0.00000000000E+00  0.91188000000E+02  0.91188000000E+02 0.  0.
    9900012    2    3    3    0    0  0.23879779078E+02 -0.17188635149E+02  0.28061951176E+02  0.50528854278E+02  0.29999983062E+02 0.  0.
        -12    1    3    3    0    0 -0.23879779078E+02  0.17188635149E+02 -0.28061951176E+02  0.40659145722E+02  0.00000000000E+00 0.  1.
         11    1    4    4    0    0  0.60371527190E+01 -0.12958502687E+02  0.11709413704E+02  0.18479187601E+02  0.51100000000E-03 0. -1.
        -11    1    4    4    0    0  0.74474954225E+01 -0.81308688800E+01 -0.13962321178E+01  0.11114210777E+02  0.51100000000E-03 0.  1.
         12    1    4    4    0    0  0.10395130936E+02  0.39007364178E+01  0.17748769589E+02  0.20935455899E+02  0.00000000000E+00 0. -1.
</event>
<event>
 8    1  0.4964753E-012  0.9118800E+02  0.7816164E-02  0.1184000E+00
        -11   -1    0    0    0    0  0.00000000000E+00  0.00000000000E+00  0.45593999997E+02  0.45594000000E+02  0.51100000000E-03 0. -1.
         11   -1    0    0    0    0 -0.00000000000E+00 -0.00000000000E+00 -0.45593999997E+02  0.45594000000E+02  0.51100000000E-03 0.  1.
         23    2    1    2    0    0  0.00000000000E+00 -0.88817841970E-15  0.00000000000E+00  0.91188000000E+02  0.91188000000E+02 0.  0.
    9900012    2    3    3    0    0 -0.14906175014E+02  0.56810327986E+01  0.37399143097E+02  0.50528879355E+02  0.30000059289E+02 0.  0.
        -12    1    3    3    0    0  0.14906175014E+02 -0.56810327986E+01 -0.37399143097E+02  0.40659120645E+02  0.00000000000E+00 0.  1.
         11    1    4    4    0    0 -0.69853496601E+01  0.60925103660E+01  0.15149251818E+02  0.17759888044E+02  0.51100000000E-03 0. -1.
        -11    1    4    4    0    0 -0.15128268845E+02 -0.12432197115E+01  0.89567529745E+01  0.17624798938E+02  0.51100000000E-03 0.  1.
        -12    1    4    4    0    0  0.72074434908E+01  0.83174214407E+00  0.13293138304E+02  0.15144192373E+02  0.00000000000E+00 0.  1.
</event>
<event>
 8    1  0.4964753E-012  0.9118800E+02  0.7816164E-02  0.1184000E+00
        -11   -1    0    0    0    0  0.00000000000E+00  0.00000000000E+00  0.45593999997E+02  0.45594000000E+02  0.51100000000E-03 0. -1.
         11   -1    0    0    0    0 -0.00000000000E+00 -0.00000000000E+00 -0.45593999997E+02  0.45594000000E+02  0.51100000000E-03 0.  1.
         23    2    1    2    0    0 -0.35527136788E-14  0.00000000000E+00  0.00000000000E+00  0.91188000000E+02  0.91188000000E+02 0.  0.
    9900012    2    3    3    0    0 -0.20013196640E+02  0.14846581683E+02  0.32128128586E+02  0.50528859898E+02  0.30000000145E+02 0.  0.
        -12    1    3    3    0    0  0.20013196640E+02 -0.14846581683E+02 -0.32128128586E+02  0.40659140102E+02  0.00000000000E+00 0.  1.
         11    1    4    4    0    0 -0.10051370102E+02  0.17304069923E+02  0.11527369634E+02  0.23094179521E+02  0.51100000000E-03 0.  1.
        -11    1    4    4    0    0 -0.12796697338E+02  0.17040608576E+01  0.13030045506E+02  0.18342338245E+02  0.51100000000E-03 0. -1.
        -12    1    4    4    0    0  0.28348707994E+01 -0.41615490976E+01  0.75707134461E+01  0.90923421308E+01  0.00000000000E+00 0.  1.
</event>
<event>
 8    1  0.4964753E-012  0.9118800E+02  0.7816164E-02  0.1184000E+00
        -11   -1    0    0    0    0  0.00000000000E+00  0.00000000000E+00  0.45593999997E+02  0.45594000000E+02  0.51100000000E-03 0. -1.
         11   -1    0    0    0    0 -0.00000000000E+00 -0.00000000000E+00 -0.45593999997E+02  0.45594000000E+02  0.51100000000E-03 0.  1.
         23    2    1    2    0    0  0.17763568394E-14  0.35527136788E-14  0.35527136788E-14  0.91188000000E+02  0.91188000000E+02 0.  0.
    9900012    2    3    3    0    0 -0.13295984498E+02 -0.30831833200E+02 -0.22929895095E+02  0.50528865340E+02  0.30000016688E+02 0.  0.
         12    1    3    3    0    0  0.13295984498E+02  0.30831833200E+02  0.22929895095E+02  0.40659134660E+02  0.00000000000E+00 0. -1.
         11    1    4    4    0    0 -0.46766502624E+01 -0.52482679948E+01  0.18519076856E+01  0.72694523150E+01  0.51100000000E-03 0. -1.
        -11    1    4    4    0    0 -0.11603951015E+02 -0.25155067328E+02 -0.12109926564E+02  0.30233746263E+02  0.51100000000E-03 0.  1.
         12    1    4    4    0    0  0.29846167798E+01 -0.42849787649E+00 -0.12671876216E+02  0.13025666762E+02  0.00000000000E+00 0. -1.
</event>
<event>
 8    1  0.4964753E-012  0.9118800E+02  0.7816164E-02  0.1184000E+00
        -11   -1    0    0    0    0  0.00000000000E+00  0.00000000000E+00  0.45593999997E+02  0.45594000000E+02  0.51100000000E-03 0. -1.
         11   -1    0    0    0    0 -0.00000000000E+00 -0.00000000000E+00 -0.45593999997E+02  0.45594000000E+02  0.51100000000E-03 0.  1.
         23    2    1    2    0    0  0.17763568394E-14  0.71054273576E-14  0.00000000000E+00  0.91188000000E+02  0.91188000000E+02 0.  0.
    9900012    2    3    3    0    0 -0.15477733115E+02 -0.27215729645E+02  0.25940488585E+02  0.50528866825E+02  0.30000021202E+02 0.  0.
        -12    1    3    3    0    0  0.15477733115E+02  0.27215729645E+02 -0.25940488585E+02  0.40659133175E+02  0.00000000000E+00 0.  1.
         11    1    4    4    0    0  0.31162976579E+01 -0.15517466254E+00 -0.85799627925E+00  0.32359771545E+01  0.51100000000E-03 0. -1.
        -11    1    4    4    0    0 -0.71574997776E+01 -0.25155158187E+02  0.12804321575E+02  0.29119794604E+02  0.51100000000E-03 0.  1.
         12    1    4    4    0    0 -0.11436530995E+02 -0.19053967952E+01  0.13994163289E+02  0.18173095067E+02  0.00000000000E+00 0. -1.
</event>
<event>
 8    1  0.4964753E-012  0.9118800E+02  0.7816164E-02  0.1184000E+00
        -11   -1    0    0    0    0  0.00000000000E+00  0.00000000000E+00  0.45593999997E+02  0.45594000000E+02  0.51100000000E-03 0. -1.
         11   -1    0    0    0    0 -0.00000000000E+00 -0.00000000000E+00 -0.45593999997E+02  0.45594000000E+02  0.51100000000E-03 0.  1.
         23    2    1    2    0    0  0.00000000000E+00  0.00000000000E+00  0.00000000000E+00  0.91188000000E+02  0.91188000000E+02 0.  0.
    9900012    2    3    3    0    0 -0.34302975501E+02  0.90371551734E+01 -0.19869612405E+02  0.50528858359E+02  0.29999995469E+02 0.  0.
         12    1    3    3    0    0  0.34302975501E+02 -0.90371551734E+01  0.19869612405E+02  0.40659141641E+02  0.00000000000E+00 0. -1.
         11    1    4    4    0    0 -0.10348908088E+02  0.53743494286E+01 -0.16359020965E+02  0.20089825723E+02  0.51100000000E-03 0. -1.
        -11    1    4    4    0    0 -0.92364288656E+01  0.10271761951E+02 -0.37139240693E+01  0.14304333051E+02  0.51100000000E-03 0.  1.
        -12    1    4    4    0    0 -0.14717638548E+02 -0.66089562064E+01  0.20333262967E+00  0.16134699585E+02  0.00000000000E+00 0.  1.
</event>
<event>
 8    1  0.4964753E-012  0.9118800E+02  0.7816164E-02  0.1184000E+00
        -11   -1    0    0    0    0  0.00000000000E+00  0.00000000000E+00  0.45593999997E+02  0.45594000000E+02  0.51100000000E-03 0. -1.
         11   -1    0    0    0    0 -0.00000000000E+00 -0.00000000000E+00 -0.45593999997E+02  0.45594000000E+02  0.51100000000E-03 0.  1.
         23    2    1    2    0    0 -0.17763568394E-14 -0.35527136788E-14  0.00000000000E+00  0.91188000000E+02  0.91188000000E+02 0.  0.
    9900012    2    3    3    0    0  0.12009824413E+02  0.15038620401E+02 -0.35815754692E+02  0.50528877159E+02  0.30000052614E+02 0.  0.
         12    1    3    3    0    0 -0.12009824413E+02 -0.15038620401E+02  0.35815754692E+02  0.40659122841E+02  0.00000000000E+00 0. -1.
         11    1    4    4    0    0 -0.48744802510E+00 -0.49369960641E+01 -0.10401874361E+02  0.11524344936E+02  0.51100000000E-03 0.  1.
        -11    1    4    4    0    0  0.10720789836E+02  0.18677212871E+02 -0.10553786333E+02  0.23982410670E+02  0.51100000000E-03 0. -1.
         12    1    4    4    0    0  0.17764826026E+01  0.12984035940E+01 -0.14860093999E+02  0.15022121554E+02  0.00000000000E+00 0. -1.
</event>
<event>
 8    1  0.4964753E-012  0.9118800E+02  0.7816164E-02  0.1184000E+00
        -11   -1    0    0    0    0  0.00000000000E+00  0.00000000000E+00  0.45593999997E+02  0.45594000000E+02  0.51100000000E-03 0. -1.
         11   -1    0    0    0    0 -0.00000000000E+00 -0.00000000000E+00 -0.45593999997E+02  0.45594000000E+02  0.51100000000E-03 0.  1.
         23    2    1    2    0    0 -0.88817841970E-15  0.00000000000E+00  0.00000000000E+00  0.91188000000E+02  0.91188000000E+02 0.  0.
    9900012    2    3    3    0    0 -0.47349941034E+01  0.28898236145E+02  0.28207049891E+02  0.50528857301E+02  0.29999992251E+02 0.  0.
        -12    1    3    3    0    0  0.47349941034E+01 -0.28898236145E+02 -0.28207049891E+02  0.40659142699E+02  0.00000000000E+00 0.  1.
         11    1    4    4    0    0  0.29623057043E+01  0.62616001374E+01  0.14999732982E+02  0.16521951494E+02  0.51100000000E-03 0. -1.
        -11    1    4    4    0    0  0.42423201157E+01  0.20730178634E+01  0.85638324351E+01  0.97792591367E+01  0.51100000000E-03 0.  1.
         12    1    4    4    0    0 -0.11939619923E+02  0.20563618145E+02  0.46434844743E+01  0.24227646670E+02  0.00000000000E+00 0. -1.
</event>
<event>
 8    1  0.6362983E-012  0.9118800E+02  0.7816164E-02  0.1184000E+00
        -11   -1    0    0    0    0  0.00000000000E+00  0.00000000000E+00  0.45593999997E+02  0.45594000000E+02  0.51100000000E-03 0. -1.
         11   -1    0    0    0    0 -0.00000000000E+00 -0.00000000000E+00 -0.45593999997E+02  0.45594000000E+02  0.51100000000E-03 0.  1.
         23    2    1    2    0    0  0.17763568394E-14 -0.35527136788E-14  0.00000000000E+00  0.91188000000E+02  0.91188000000E+02 0.  0.
    9900012    2    3    3    0    0 -0.83066738390E+01  0.21719890757E+02 -0.33352827368E+02  0.50528861075E+02  0.30000003722E+02 0.  0.
         12    1    3    3    0    0  0.83066738390E+01 -0.21719890757E+02  0.33352827368E+02  0.40659138925E+02  0.00000000000E+00 0. -1.
         11    1    4    4    0    0 -0.89171018802E+01  0.11189666570E+02 -0.15129207004E+02  0.20823454294E+02  0.51100000000E-03 0. -1.
        -11    1    4    4    0    0  0.16562467430E+01  0.16640607356E+02 -0.15928928761E+02  0.23095102039E+02  0.51100000000E-03 0.  1.
         12    1    4    4    0    0 -0.10458187019E+01 -0.61103831691E+01 -0.22946916024E+01  0.66103047419E+01  0.00000000000E+00 0. -1.
</event>
<event>
 8    1  0.4964753E-012  0.9118800E+02  0.7816164E-02  0.1184000E+00
        -11   -1    0    0    0    0  0.00000000000E+00  0.00000000000E+00  0.45593999997E+02  0.45594000000E+02  0.51100000000E-03 0.  1.
         11   -1    0    0    0    0 -0.00000000000E+00 -0.00000000000E+00 -0.45593999997E+02  0.45594000000E+02  0.51100000000E-03 0. -1.
         23    2    1    2    0    0  0.35527136788E-14  0.00000000000E+00 -0.22204460493E-15  0.91188000000E+02  0.91188000000E+02 0.  0.
    9900012    2    3    3    0    0  0.29628893663E+02 -0.27822239592E+02 -0.11033027129E+01  0.50528860406E+02  0.30000001691E+02 0.  0.
        -12    1    3    3    0    0 -0.29628893663E+02  0.27822239592E+02  0.11033027129E+01  0.40659139594E+02  0.00000000000E+00 0.  1.
         11    1    4    4    0    0  0.59814639814E+00 -0.14996782160E+01 -0.56713555028E+00  0.17112734611E+01  0.51100000000E-03 0. -1.
        -11    1    4    4    0    0 -0.17835054290E+01 -0.36541535030E+01  0.85778356944E+01  0.94927864665E+01  0.51100000000E-03 0.  1.
         12    1    4    4    0    0  0.30814252694E+02 -0.22668407873E+02 -0.91140028570E+01  0.39324800479E+02  0.00000000000E+00 0. -1.
</event>
<event>
 8    1  0.4964753E-012  0.9118800E+02  0.7816164E-02  0.1184000E+00
        -11   -1    0    0    0    0  0.00000000000E+00  0.00000000000E+00  0.45593999997E+02  0.45594000000E+02  0.51100000000E-03 0. -1.
         11   -1    0    0    0    0 -0.00000000000E+00 -0.00000000000E+00 -0.45593999997E+02  0.45594000000E+02  0.51100000000E-03 0.  1.
         23    2    1    2    0    0  0.35527136788E-14  0.35388358910E-15  0.00000000000E+00  0.91188000000E+02  0.91188000000E+02 0.  0.
    9900012    2    3    3    0    0 -0.11929466590E+02 -0.40062214502E-01  0.38869677148E+02  0.50528861056E+02  0.30000003666E+02 0.  0.
        -12    1    3    3    0    0  0.11929466590E+02  0.40062214502E-01 -0.38869677148E+02  0.40659138944E+02  0.00000000000E+00 0.  1.
         11    1    4    4    0    0 -0.72291749119E+01 -0.13934074284E+01  0.13112500293E+02  0.15037959249E+02  0.51100000000E-03 0. -1.
        -11    1    4    4    0    0 -0.13316174703E+02  0.57342852576E+01  0.12905857840E+02  0.19410401927E+02  0.51100000000E-03 0.  1.
         12    1    4    4    0    0  0.86158830250E+01 -0.43809400436E+01  0.12851319015E+02  0.16080499880E+02  0.00000000000E+00 0. -1.
</event>
<event>
 8    1  0.4964753E-012  0.9118800E+02  0.7816164E-02  0.1184000E+00
        -11   -1    0    0    0    0  0.00000000000E+00  0.00000000000E+00  0.45593999997E+02  0.45594000000E+02  0.51100000000E-03 0. -1.
         11   -1    0    0    0    0 -0.00000000000E+00 -0.00000000000E+00 -0.45593999997E+02  0.45594000000E+02  0.51100000000E-03 0.  1.
         23    2    1    2    0    0  0.00000000000E+00 -0.17763568394E-14  0.00000000000E+00  0.91188000000E+02  0.91188000000E+02 0.  0.
    9900012    2    3    3    0    0 -0.15230709984E+01 -0.13702481765E+02  0.38250339049E+02  0.50528853560E+02  0.29999980882E+02 0.  0.
        -12    1    3    3    0    0  0.15230709984E+01  0.13702481765E+02 -0.38250339049E+02  0.40659146440E+02  0.00000000000E+00 0.  1.
         11    1    4    4    0    0 -0.16485488092E+01 -0.64520569755E+01  0.22718641769E+02  0.23674531389E+02  0.51100000000E-03 0. -1.
        -11    1    4    4    0    0 -0.10719600719E+01  0.45723532052E+01  0.14128395347E+02  0.14888487753E+02  0.51100000000E-03 0.  1.
         12    1    4    4    0    0  0.11974378827E+01 -0.11822777995E+02  0.14033019329E+01  0.11965834418E+02  0.00000000000E+00 0. -1.
</event>
<event>
 8    1  0.4964753E-012  0.9118800E+02  0.7816164E-02  0.1184000E+00
        -11   -1    0    0    0    0  0.00000000000E+00  0.00000000000E+00  0.45593999997E+02  0.45594000000E+02  0.51100000000E-03 0. -1.
         11   -1    0    0    0    0 -0.00000000000E+00 -0.00000000000E+00 -0.45593999997E+02  0.45594000000E+02  0.51100000000E-03 0.  1.
         23    2    1    2    0    0  0.00000000000E+00  0.00000000000E+00  0.71054273576E-14  0.91188000000E+02  0.91188000000E+02 0.  0.
    9900012    2    3    3    0    0 -0.90789685364E+01 -0.11223976405E+02 -0.38010005686E+02  0.50528857753E+02  0.29999993625E+02 0.  0.
         12    1    3    3    0    0  0.90789685364E+01  0.11223976405E+02  0.38010005686E+02  0.40659142247E+02  0.00000000000E+00 0. -1.
         11    1    4    4    0    0  0.78900130156E+01 -0.97613183317E-01 -0.79477448627E+01  0.11199485809E+02  0.51100000000E-03 0. -1.
        -11    1    4    4    0    0 -0.44610826832E+01  0.23160210179E+01 -0.12763983938E+01  0.51859816026E+01  0.51100000000E-03 0.  1.
        -12    1    4    4    0    0 -0.12507898869E+02 -0.13442384239E+02 -0.28785862430E+02  0.34143390341E+02  0.00000000000E+00 0.  1.
</event>
<event>
 8    1  0.4964753E-012  0.9118800E+02  0.7816164E-02  0.1184000E+00
        -11   -1    0    0    0    0  0.00000000000E+00  0.00000000000E+00  0.45593999997E+02  0.45594000000E+02  0.51100000000E-03 0. -1.
         11   -1    0    0    0    0 -0.00000000000E+00 -0.00000000000E+00 -0.45593999997E+02  0.45594000000E+02  0.51100000000E-03 0.  1.
         23    2    1    2    0    0  0.17763568394E-14  0.35527136788E-14 -0.71054273576E-14  0.91188000000E+02  0.91188000000E+02 0.  0.
    9900012    2    3    3    0    0  0.10739887141E+02 -0.21109536444E+02 -0.33048581097E+02  0.50528850756E+02  0.29999972359E+02 0.  0.
         12    1    3    3    0    0 -0.10739887141E+02  0.21109536444E+02  0.33048581097E+02  0.40659149244E+02  0.00000000000E+00 0. -1.
         11    1    4    4    0    0  0.33646138974E+01 -0.20125155272E+01 -0.15735725028E+02  0.16216777974E+02  0.51100000000E-03 0. -1.
        -11    1    4    4    0    0 -0.31628029549E+01  0.29372344424E+01  0.97467457094E-01  0.43174261855E+01  0.51100000000E-03 0.  1.
        -12    1    4    4    0    0  0.10538076198E+02 -0.22034255359E+02 -0.17410323526E+02  0.29994646597E+02  0.00000000000E+00 0.  1.
</event>
<event>
 8    1  0.4964753E-012  0.9118800E+02  0.7816164E-02  0.1184000E+00
        -11   -1    0    0    0    0  0.00000000000E+00  0.00000000000E+00  0.45593999997E+02  0.45594000000E+02  0.51100000000E-03 0. -1.
         11   -1    0    0    0    0 -0.00000000000E+00 -0.00000000000E+00 -0.45593999997E+02  0.45594000000E+02  0.51100000000E-03 0.  1.
         23    2    1    2    0    0  0.00000000000E+00  0.35527136788E-14  0.00000000000E+00  0.91188000000E+02  0.91188000000E+02 0.  0.
    9900012    2    3    3    0    0  0.12229719853E+02  0.30740989437E+02  0.23634553950E+02  0.50528848267E+02  0.29999964793E+02 0.  0.
        -12    1    3    3    0    0 -0.12229719853E+02 -0.30740989437E+02 -0.23634553950E+02  0.40659151733E+02  0.00000000000E+00 0.  1.
         11    1    4    4    0    0  0.67895984129E+01  0.41753516601E+01  0.13869380976E+01  0.80904762309E+01  0.51100000000E-03 0. -1.
        -11    1    4    4    0    0 -0.70433751452E+01  0.54614990169E+00  0.63021997252E+01  0.94670552332E+01  0.51100000000E-03 0.  1.
         12    1    4    4    0    0  0.12483496586E+02  0.26019487875E+02  0.15945416127E+02  0.32971316803E+02  0.00000000000E+00 0. -1.
</event>
<event>
 8    1  0.4964753E-012  0.9118800E+02  0.7816164E-02  0.1184000E+00
        -11   -1    0    0    0    0  0.00000000000E+00  0.00000000000E+00  0.45593999997E+02  0.45594000000E+02  0.51100000000E-03 0. -1.
         11   -1    0    0    0    0 -0.00000000000E+00 -0.00000000000E+00 -0.45593999997E+02  0.45594000000E+02  0.51100000000E-03 0.  1.
         23    2    1    2    0    0  0.35527136788E-14  0.00000000000E+00  0.17763568394E-14  0.91188000000E+02  0.91188000000E+02 0.  0.
    9900012    2    3    3    0    0 -0.30457531103E+02 -0.21933581241E+02 -0.15633993079E+02  0.50528869088E+02  0.30000028078E+02 0.  0.
         12    1    3    3    0    0  0.30457531103E+02  0.21933581241E+02  0.15633993079E+02  0.40659130912E+02  0.00000000000E+00 0. -1.
         11    1    4    4    0    0  0.40786676743E+01  0.21527428677E+01 -0.34262345503E+01  0.57453385720E+01  0.51100000000E-03 0. -1.
        -11    1    4    4    0    0 -0.12498895316E+02 -0.52030982574E+01 -0.71984329641E+01  0.15333364047E+02  0.51100000000E-03 0.  1.
        -12    1    4    4    0    0 -0.22037303461E+02 -0.18883225852E+02 -0.50093255641E+01  0.29450166469E+02  0.00000000000E+00 0.  1.
</event>
<event>
 8    1  0.4964753E-012  0.9118800E+02  0.7816164E-02  0.1184000E+00
        -11   -1    0    0    0    0  0.00000000000E+00  0.00000000000E+00  0.45593999997E+02  0.45594000000E+02  0.51100000000E-03 0. -1.
         11   -1    0    0    0    0 -0.00000000000E+00 -0.00000000000E+00 -0.45593999997E+02  0.45594000000E+02  0.51100000000E-03 0.  1.
         23    2    1    2    0    0  0.17763568394E-14  0.00000000000E+00  0.00000000000E+00  0.91188000000E+02  0.91188000000E+02 0.  0.
    9900012    2    3    3    0    0 -0.26719006062E+01 -0.39383387645E+02 -0.97455224058E+01  0.50528862255E+02  0.30000007310E+02 0.  0.
         12    1    3    3    0    0  0.26719006062E+01  0.39383387645E+02  0.97455224058E+01  0.40659137745E+02  0.00000000000E+00 0. -1.
         11    1    4    4    0    0  0.66610182165E+01 -0.56012638797E+01  0.24153204296E+01  0.90320038623E+01  0.51100000000E-03 0. -1.
        -11    1    4    4    0    0 -0.13354736288E+02 -0.16659522454E+02 -0.26895571891E+01  0.21520278526E+02  0.51100000000E-03 0.  1.
        -12    1    4    4    0    0  0.40218174650E+01 -0.17122601311E+02 -0.94712856463E+01  0.19976579866E+02  0.00000000000E+00 0.  1.
</event>
<event>
 8    1  0.4964753E-012  0.9118800E+02  0.7816164E-02  0.1184000E+00
        -11   -1    0    0    0    0  0.00000000000E+00  0.00000000000E+00  0.45593999997E+02  0.45594000000E+02  0.51100000000E-03 0. -1.
         11   -1    0    0    0    0 -0.00000000000E+00 -0.00000000000E+00 -0.45593999997E+02  0.45594000000E+02  0.51100000000E-03 0.  1.
         23    2    1    2    0    0  0.00000000000E+00  0.00000000000E+00  0.35527136788E-14  0.91188000000E+02  0.91188000000E+02 0.  0.
    9900012    2    3    3    0    0 -0.22076793948E+02 -0.22330173374E+02 -0.25829184895E+02  0.50528828018E+02  0.29999903243E+02 0.  0.
         12    1    3    3    0    0  0.22076793948E+02  0.22330173374E+02  0.25829184895E+02  0.40659171982E+02  0.00000000000E+00 0. -1.
         11    1    4    4    0    0 -0.27861550033E+01  0.23971377312E+01 -0.14275980851E+02  0.14741524972E+02  0.51100000000E-03 0. -1.
        -11    1    4    4    0    0 -0.84009222524E+01 -0.15253724999E+02 -0.12322563147E+02  0.21333006910E+02  0.51100000000E-03 0.  1.
         12    1    4    4    0    0 -0.10889716692E+02 -0.94735861058E+01  0.76935910256E+00  0.14454296135E+02  0.00000000000E+00 0. -1.
</event>
<event>
 8    1  0.4964753E-012  0.9118800E+02  0.7816164E-02  0.1184000E+00
        -11   -1    0    0    0    0  0.00000000000E+00  0.00000000000E+00  0.45593999997E+02  0.45594000000E+02  0.51100000000E-03 0. -1.
         11   -1    0    0    0    0 -0.00000000000E+00 -0.00000000000E+00 -0.45593999997E+02  0.45594000000E+02  0.51100000000E-03 0.  1.
         23    2    1    2    0    0  0.35527136788E-14 -0.19984014443E-14 -0.71054273576E-14  0.91188000000E+02  0.91188000000E+02 0.  0.
    9900012    2    3    3    0    0 -0.29972992984E+02 -0.17395215033E+01  0.27418228590E+02  0.50528862005E+02  0.30000006550E+02 0.  0.
        -12    1    3    3    0    0  0.29972992984E+02  0.17395215033E+01 -0.27418228590E+02  0.40659137995E+02  0.00000000000E+00 0.  1.
         11    1    4    4    0    0 -0.20130979866E+02  0.46216001687E+01  0.99498291717E+01  0.22926287081E+02  0.51100000000E-03 0. -1.
        -11    1    4    4    0    0  0.33303057572E+01  0.35633577867E+01  0.41444196008E+01  0.64003647740E+01  0.51100000000E-03 0.  1.
         12    1    4    4    0    0 -0.13172318875E+02 -0.99244794587E+01  0.13323979818E+02  0.21202210150E+02  0.00000000000E+00 0. -1.
</event>
<event>
 8    1  0.4964753E-012  0.9118800E+02  0.7816164E-02  0.1184000E+00
        -11   -1    0    0    0    0  0.00000000000E+00  0.00000000000E+00  0.45593999997E+02  0.45594000000E+02  0.51100000000E-03 0. -1.
         11   -1    0    0    0    0 -0.00000000000E+00 -0.00000000000E+00 -0.45593999997E+02  0.45594000000E+02  0.51100000000E-03 0.  1.
         23    2    1    2    0    0  0.00000000000E+00  0.00000000000E+00  0.00000000000E+00  0.91188000000E+02  0.91188000000E+02 0.  0.
    9900012    2    3    3    0    0  0.20011999102E+02 -0.20628889969E+02 -0.28759948198E+02  0.50528857981E+02  0.29999994319E+02 0.  0.
         12    1    3    3    0    0 -0.20011999102E+02  0.20628889969E+02  0.28759948198E+02  0.40659142019E+02  0.00000000000E+00 0. -1.
         11    1    4    4    0    0  0.42796840820E+01 -0.15318248239E+01 -0.10388340134E+02  0.11339303071E+02  0.51100000000E-03 0. -1.
        -11    1    4    4    0    0  0.14650351321E+02 -0.15605547670E+02 -0.24201115717E+02  0.32308820996E+02  0.51100000000E-03 0.  1.
         12    1    4    4    0    0  0.10819636990E+01 -0.34915174746E+01  0.58295076533E+01  0.68807339144E+01  0.00000000000E+00 0. -1.
</event>
<event>
 8    1  0.4964753E-012  0.9118800E+02  0.7816164E-02  0.1184000E+00
        -11   -1    0    0    0    0  0.00000000000E+00  0.00000000000E+00  0.45593999997E+02  0.45594000000E+02  0.51100000000E-03 0.  1.
         11   -1    0    0    0    0 -0.00000000000E+00 -0.00000000000E+00 -0.45593999997E+02  0.45594000000E+02  0.51100000000E-03 0. -1.
         23    2    1    2    0    0  0.77715611724E-15  0.00000000000E+00  0.00000000000E+00  0.91188000000E+02  0.91188000000E+02 0.  0.
    9900012    2    3    3    0    0 -0.80336450141E+00 -0.36748844850E+02  0.17379382500E+02  0.50528856767E+02  0.29999990630E+02 0.  0.
        -12    1    3    3    0    0  0.80336450141E+00  0.36748844850E+02 -0.17379382500E+02  0.40659143233E+02  0.00000000000E+00 0.  1.
         11    1    4    4    0    0 -0.51335207725E+01 -0.18155447233E+02  0.90256242173E+01  0.20914951411E+02  0.51100000000E-03 0. -1.
        -11    1    4    4    0    0 -0.26335232595E+01 -0.52780630429E+01  0.12673520138E+02  0.13978966600E+02  0.51100000000E-03 0.  1.
         12    1    4    4    0    0  0.69636795306E+01 -0.13315334575E+02 -0.43197618559E+01  0.15634938757E+02  0.00000000000E+00 0. -1.
</event>
<event>
 8    1  0.4964753E-012  0.9118800E+02  0.7816164E-02  0.1184000E+00
        -11   -1    0    0    0    0  0.00000000000E+00  0.00000000000E+00  0.45593999997E+02  0.45594000000E+02  0.51100000000E-03 0. -1.
         11   -1    0    0    0    0 -0.00000000000E+00 -0.00000000000E+00 -0.45593999997E+02  0.45594000000E+02  0.51100000000E-03 0.  1.
         23    2    1    2    0    0  0.00000000000E+00  0.35527136788E-14  0.00000000000E+00  0.91188000000E+02  0.91188000000E+02 0.  0.
    9900012    2    3    3    0    0 -0.32686412653E+02 -0.23459685265E+02  0.58657083186E+01  0.50528868935E+02  0.30000027614E+02 0.  0.
        -12    1    3    3    0    0  0.32686412653E+02  0.23459685265E+02 -0.58657083186E+01  0.40659131065E+02  0.00000000000E+00 0.  1.
         11    1    4    4    0    0 -0.14111230033E+02 -0.20456308814E+02 -0.46335832125E+01  0.25279586171E+02  0.51100000000E-03 0. -1.
        -11    1    4    4    0    0 -0.63860697266E+01 -0.57903618587E+01  0.93117889770E+01  0.12689349519E+02  0.51100000000E-03 0.  1.
        -12    1    4    4    0    0 -0.12189112894E+02  0.27869854071E+01  0.11875025541E+01  0.12559933245E+02  0.00000000000E+00 0.  1.
</event>
<event>
 8    1  0.4964753E-012  0.9118800E+02  0.7816164E-02  0.1184000E+00
        -11   -1    0    0    0    0  0.00000000000E+00  0.00000000000E+00  0.45593999997E+02  0.45594000000E+02  0.51100000000E-03 0. -1.
         11   -1    0    0    0    0 -0.00000000000E+00 -0.00000000000E+00 -0.45593999997E+02  0.45594000000E+02  0.51100000000E-03 0.  1.
         23    2    1    2    0    0  0.17763568394E-14  0.00000000000E+00  0.00000000000E+00  0.91188000000E+02  0.91188000000E+02 0.  0.
    9900012    2    3    3    0    0  0.58365654382E+00  0.35340783487E+02  0.20096110408E+02  0.50528864668E+02  0.30000014645E+02 0.  0.
        -12    1    3    3    0    0 -0.58365654382E+00 -0.35340783487E+02 -0.20096110408E+02  0.40659135332E+02  0.00000000000E+00 0.  1.
         11    1    4    4    0    0  0.54705107981E+00  0.33227507893E+01  0.71582914804E+01  0.79108201137E+01  0.51100000000E-03 0. -1.
        -11    1    4    4    0    0 -0.91958176912E+01  0.25997551316E+01  0.12213189133E+01  0.96339716578E+01  0.51100000000E-03 0.  1.
         12    1    4    4    0    0  0.92324231552E+01  0.29418277566E+02  0.11716500014E+02  0.32984072897E+02  0.00000000000E+00 0. -1.
</event>
<event>
 8    1  0.4964753E-012  0.9118800E+02  0.7816164E-02  0.1184000E+00
        -11   -1    0    0    0    0  0.00000000000E+00  0.00000000000E+00  0.45593999997E+02  0.45594000000E+02  0.51100000000E-03 0. -1.
         11   -1    0    0    0    0 -0.00000000000E+00 -0.00000000000E+00 -0.45593999997E+02  0.45594000000E+02  0.51100000000E-03 0.  1.
         23    2    1    2    0    0 -0.35527136788E-14 -0.27755575616E-16  0.00000000000E+00  0.91188000000E+02  0.91188000000E+02 0.  0.
    9900012    2    3    3    0    0  0.17561810823E+02 -0.12830796565E+00  0.36670608774E+02  0.50528841005E+02  0.29999942718E+02 0.  0.
        -12    1    3    3    0    0 -0.17561810823E+02  0.12830796565E+00 -0.36670608774E+02  0.40659158995E+02  0.00000000000E+00 0.  1.
         11    1    4    4    0    0  0.12346527688E+02 -0.57409136424E+01  0.12125623374E+02  0.18232541728E+02  0.51100000000E-03 0. -1.
        -11    1    4    4    0    0 -0.46422195506E+01 -0.45088569165E+01  0.49926554484E+01  0.81735305551E+01  0.51100000000E-03 0.  1.
        -12    1    4    4    0    0  0.98575026852E+01  0.10121462593E+02  0.19552329952E+02  0.24122768721E+02  0.00000000000E+00 0.  1.
</event>
<event>
 8    1  0.4964753E-012  0.9118800E+02  0.7816164E-02  0.1184000E+00
        -11   -1    0    0    0    0  0.00000000000E+00  0.00000000000E+00  0.45593999997E+02  0.45594000000E+02  0.51100000000E-03 0. -1.
         11   -1    0    0    0    0 -0.00000000000E+00 -0.00000000000E+00 -0.45593999997E+02  0.45594000000E+02  0.51100000000E-03 0.  1.
         23    2    1    2    0    0 -0.88817841970E-15  0.00000000000E+00  0.00000000000E+00  0.91188000000E+02  0.91188000000E+02 0.  0.
    9900012    2    3    3    0    0  0.68177664041E+01 -0.80309959147E+01 -0.39270686008E+02  0.50528860638E+02  0.30000002396E+02 0.  0.
         12    1    3    3    0    0 -0.68177664041E+01  0.80309959147E+01  0.39270686008E+02  0.40659139362E+02  0.00000000000E+00 0. -1.
         11    1    4    4    0    0  0.37025646031E+01 -0.53648924786E+01  0.20329225316E+01  0.68281644845E+01  0.51100000000E-03 0. -1.
        -11    1    4    4    0    0 -0.18064606890E+01 -0.70801781542E+01 -0.16786816469E+02  0.18308179329E+02  0.51100000000E-03 0.  1.
         12    1    4    4    0    0  0.49216624901E+01  0.44140747181E+01 -0.24516792070E+02  0.25392516825E+02  0.00000000000E+00 0. -1.
</event>
<event>
 8    1  0.4964753E-012  0.9118800E+02  0.7816164E-02  0.1184000E+00
        -11   -1    0    0    0    0  0.00000000000E+00  0.00000000000E+00  0.45593999997E+02  0.45594000000E+02  0.51100000000E-03 0. -1.
         11   -1    0    0    0    0 -0.00000000000E+00 -0.00000000000E+00 -0.45593999997E+02  0.45594000000E+02  0.51100000000E-03 0.  1.
         23    2    1    2    0    0 -0.35527136788E-14 -0.44408920985E-15 -0.35527136788E-14  0.91188000000E+02  0.91188000000E+02 0.  0.
    9900012    2    3    3    0    0 -0.29475568399E+02 -0.16052033473E+01 -0.27960370920E+02  0.50528829420E+02  0.29999907505E+02 0.  0.
         12    1    3    3    0    0  0.29475568399E+02  0.16052033473E+01  0.27960370920E+02  0.40659170580E+02  0.00000000000E+00 0. -1.
         11    1    4    4    0    0 -0.16375683240E+02 -0.19935844603E+01 -0.47689495468E+01  0.17172077935E+02  0.51100000000E-03 0. -1.
        -11    1    4    4    0    0  0.40549267254E+01  0.47645265910E+01 -0.65807386180E+01  0.90801577852E+01  0.51100000000E-03 0.  1.
         12    1    4    4    0    0 -0.17154811885E+02 -0.43761454780E+01 -0.16610682756E+02  0.24276593700E+02  0.00000000000E+00 0. -1.
</event>
<event>
 8    1  0.4964753E-012  0.9118800E+02  0.7816164E-02  0.1184000E+00
        -11   -1    0    0    0    0  0.00000000000E+00  0.00000000000E+00  0.45593999997E+02  0.45594000000E+02  0.51100000000E-03 0. -1.
         11   -1    0    0    0    0 -0.00000000000E+00 -0.00000000000E+00 -0.45593999997E+02  0.45594000000E+02  0.51100000000E-03 0.  1.
         23    2    1    2    0    0 -0.88817841970E-15  0.00000000000E+00  0.00000000000E+00  0.91188000000E+02  0.91188000000E+02 0.  0.
    9900012    2    3    3    0    0  0.45167936826E+01  0.50538590789E+01  0.40090176317E+02  0.50528866292E+02  0.30000019580E+02 0.  0.
        -12    1    3    3    0    0 -0.45167936826E+01 -0.50538590789E+01 -0.40090176317E+02  0.40659133708E+02  0.00000000000E+00 0.  1.
         11    1    4    4    0    0 -0.29780535252E+01  0.66279612194E+01  0.11175128369E+02  0.13329747449E+02  0.51100000000E-03 0. -1.
        -11    1    4    4    0    0  0.88319874766E+01 -0.21388315624E+01  0.88362063256E+00  0.91301363036E+01  0.51100000000E-03 0.  1.
         12    1    4    4    0    0 -0.13371402688E+01  0.56472942188E+00  0.28031427316E+02  0.28068982539E+02  0.00000000000E+00 0. -1.
</event>
<event>
 8    1  0.4964753E-012  0.9118800E+02  0.7816164E-02  0.1184000E+00
        -11   -1    0    0    0    0  0.00000000000E+00  0.00000000000E+00  0.45593999997E+02  0.45594000000E+02  0.51100000000E-03 0. -1.
         11   -1    0    0    0    0 -0.00000000000E+00 -0.00000000000E+00 -0.45593999997E+02  0.45594000000E+02  0.51100000000E-03 0.  1.
         23    2    1    2    0    0 -0.10658141036E-13  0.17763568394E-14  0.35527136788E-14  0.91188000000E+02  0.91188000000E+02 0.  0.
    9900012    2    3    3    0    0  0.31312205205E+02 -0.87494871079E+01 -0.24416355687E+02  0.50528854110E+02  0.29999982553E+02 0.  0.
         12    1    3    3    0    0 -0.31312205205E+02  0.87494871079E+01  0.24416355687E+02  0.40659145890E+02  0.00000000000E+00 0. -1.
         11    1    4    4    0    0 -0.96890899705E+00 -0.27713521693E+01  0.13099850398E+01  0.32148465837E+01  0.51100000000E-03 0. -1.
        -11    1    4    4    0    0  0.18572621877E+02 -0.12103287707E+02 -0.68666058458E+01  0.23207372380E+02  0.51100000000E-03 0.  1.
        -12    1    4    4    0    0  0.13708492325E+02  0.61251527684E+01 -0.18859734881E+02  0.24106635146E+02  0.00000000000E+00 0.  1.
</event>
<event>
 8    1  0.4964753E-012  0.9118800E+02  0.7816164E-02  0.1184000E+00
        -11   -1    0    0    0    0  0.00000000000E+00  0.00000000000E+00  0.45593999997E+02  0.45594000000E+02  0.51100000000E-03 0. -1.
         11   -1    0    0    0    0 -0.00000000000E+00 -0.00000000000E+00 -0.45593999997E+02  0.45594000000E+02  0.51100000000E-03 0.  1.
         23    2    1    2    0    0  0.17763568394E-14  0.00000000000E+00  0.00000000000E+00  0.91188000000E+02  0.91188000000E+02 0.  0.
    9900012    2    3    3    0    0  0.80304935982E+01 -0.33809721588E+02 -0.21108737591E+02  0.50528869365E+02  0.30000028922E+02 0.  0.
         12    1    3    3    0    0 -0.80304935982E+01  0.33809721588E+02  0.21108737591E+02  0.40659130635E+02  0.00000000000E+00 0. -1.
         11    1    4    4    0    0 -0.29635657695E+01 -0.72203003196E+01 -0.33163999827E+01  0.84802103678E+01  0.51100000000E-03 0. -1.
        -11    1    4    4    0    0  0.93301211851E+01 -0.29136095844E+02 -0.77559096791E+01  0.31561327247E+02  0.51100000000E-03 0.  1.
        -12    1    4    4    0    0  0.16639381826E+01  0.25466745756E+01 -0.10036427929E+02  0.10487331750E+02  0.00000000000E+00 0.  1.
</event>
<event>
 8    1  0.4964753E-012  0.9118800E+02  0.7816164E-02  0.1184000E+00
        -11   -1    0    0    0    0  0.00000000000E+00  0.00000000000E+00  0.45593999997E+02  0.45594000000E+02  0.51100000000E-03 0. -1.
         11   -1    0    0    0    0 -0.00000000000E+00 -0.00000000000E+00 -0.45593999997E+02  0.45594000000E+02  0.51100000000E-03 0.  1.
         23    2    1    2    0    0  0.00000000000E+00 -0.35527136788E-14 -0.17763568394E-14  0.91188000000E+02  0.91188000000E+02 0.  0.
    9900012    2    3    3    0    0 -0.32938339924E+02  0.18556676452E+02  0.14962648677E+02  0.50528864085E+02  0.30000012873E+02 0.  0.
        -12    1    3    3    0    0  0.32938339924E+02 -0.18556676452E+02 -0.14962648677E+02  0.40659135915E+02  0.00000000000E+00 0.  1.
         11    1    4    4    0    0 -0.60914332488E+01  0.27287973154E+01  0.25337211689E+01  0.71394423477E+01  0.51100000000E-03 0. -1.
        -11    1    4    4    0    0  0.16835237026E+01  0.98230872787E+00  0.11026167097E+02  0.11197122113E+02  0.51100000000E-03 0.  1.
         12    1    4    4    0    0 -0.28530430378E+02  0.14845570409E+02  0.14027604108E+01  0.32192299624E+02  0.00000000000E+00 0. -1.
</event>
<event>
 8    1  0.4964753E-012  0.9118800E+02  0.7816164E-02  0.1184000E+00
        -11   -1    0    0    0    0  0.00000000000E+00  0.00000000000E+00  0.45593999997E+02  0.45594000000E+02  0.51100000000E-03 0. -1.
         11   -1    0    0    0    0 -0.00000000000E+00 -0.00000000000E+00 -0.45593999997E+02  0.45594000000E+02  0.51100000000E-03 0.  1.
         23    2    1    2    0    0  0.00000000000E+00  0.17763568394E-14 -0.35527136788E-14  0.91188000000E+02  0.91188000000E+02 0.  0.
    9900012    2    3    3    0    0  0.28490917138E+02  0.10915959371E+02 -0.26875164683E+02  0.50528868121E+02  0.30000025141E+02 0.  0.
         12    1    3    3    0    0 -0.28490917138E+02 -0.10915959371E+02  0.26875164683E+02  0.40659131879E+02  0.00000000000E+00 0. -1.
         11    1    4    4    0    0  0.49259451123E+00 -0.13407854882E+01 -0.25891319823E+01  0.29570187285E+01  0.51100000000E-03 0.  1.
        -11    1    4    4    0    0  0.21370167474E+02  0.77072420307E+01 -0.30056488630E+02  0.37675962451E+02  0.51100000000E-03 0. -1.
         12    1    4    4    0    0  0.66281551537E+01  0.45495028285E+01  0.57704559294E+01  0.98958869415E+01  0.00000000000E+00 0. -1.
</event>
<event>
 8    1  0.4964753E-012  0.9118800E+02  0.7816164E-02  0.1184000E+00
        -11   -1    0    0    0    0  0.00000000000E+00  0.00000000000E+00  0.45593999997E+02  0.45594000000E+02  0.51100000000E-03 0. -1.
         11   -1    0    0    0    0 -0.00000000000E+00 -0.00000000000E+00 -0.45593999997E+02  0.45594000000E+02  0.51100000000E-03 0.  1.
         23    2    1    2    0    0  0.00000000000E+00  0.00000000000E+00  0.00000000000E+00  0.91188000000E+02  0.91188000000E+02 0.  0.
    9900012    2    3    3    0    0 -0.20353413051E+01 -0.38828844292E+02 -0.11888815889E+02  0.50528859496E+02  0.29999998923E+02 0.  0.
         12    1    3    3    0    0  0.20353413051E+01  0.38828844292E+02  0.11888815889E+02  0.40659140504E+02  0.00000000000E+00 0. -1.
         11    1    4    4    0    0  0.68614793761E+01 -0.31537706690E+02 -0.42651472677E+01  0.32556079678E+02  0.51100000000E-03 0. -1.
        -11    1    4    4    0    0 -0.31773346863E+01 -0.95885479260E+01 -0.50515852292E+01  0.11293990465E+02  0.51100000000E-03 0.  1.
         12    1    4    4    0    0 -0.57194859949E+01  0.22974103237E+01 -0.25720833922E+01  0.66787893527E+01  0.00000000000E+00 0. -1.
</event>
<event>
 8    1  0.4964753E-012  0.9118800E+02  0.7816164E-02  0.1184000E+00
        -11   -1    0    0    0    0  0.00000000000E+00  0.00000000000E+00  0.45593999997E+02  0.45594000000E+02  0.51100000000E-03 0. -1.
         11   -1    0    0    0    0 -0.00000000000E+00 -0.00000000000E+00 -0.45593999997E+02  0.45594000000E+02  0.51100000000E-03 0.  1.
         23    2    1    2    0    0  0.00000000000E+00  0.00000000000E+00  0.00000000000E+00  0.91188000000E+02  0.91188000000E+02 0.  0.
    9900012    2    3    3    0    0  0.27892003277E+01 -0.20300452569E+02  0.35118066046E+02  0.50528848807E+02  0.29999966433E+02 0.  0.
        -12    1    3    3    0    0 -0.27892003277E+01  0.20300452569E+02 -0.35118066046E+02  0.40659151193E+02  0.00000000000E+00 0.  1.
         11    1    4    4    0    0 -0.97640970833E+01 -0.10541325949E+02  0.69829388754E+01  0.15975561968E+02  0.51100000000E-03 0. -1.
        -11    1    4    4    0    0  0.40205632286E+01  0.24196787810E+01  0.38171921994E+01  0.60490272463E+01  0.51100000000E-03 0.  1.
         12    1    4    4    0    0  0.85327341824E+01 -0.12178805401E+02  0.24317934971E+02  0.28504259592E+02  0.00000000000E+00 0. -1.
</event>
<event>
 8    1  0.4964753E-012  0.9118800E+02  0.7816164E-02  0.1184000E+00
        -11   -1    0    0    0    0  0.00000000000E+00  0.00000000000E+00  0.45593999997E+02  0.45594000000E+02  0.51100000000E-03 0. -1.
         11   -1    0    0    0    0 -0.00000000000E+00 -0.00000000000E+00 -0.45593999997E+02  0.45594000000E+02  0.51100000000E-03 0.  1.
         23    2    1    2    0    0 -0.44408920985E-15  0.00000000000E+00  0.00000000000E+00  0.91188000000E+02  0.91188000000E+02 0.  0.
    9900012    2    3    3    0    0  0.19493200544E+01  0.79191383275E+01  0.39832783404E+02  0.50528889899E+02  0.30000091336E+02 0.  0.
        -12    1    3    3    0    0 -0.19493200544E+01 -0.79191383275E+01 -0.39832783404E+02  0.40659110101E+02  0.00000000000E+00 0.  1.
         11    1    4    4    0    0 -0.31188553641E+01  0.26283041150E+01  0.26771628759E+01  0.48787747057E+01  0.51100000000E-03 0. -1.
        -11    1    4    4    0    0  0.10531375206E+02  0.83836866081E+01  0.76475993456E+01  0.15481661438E+02  0.51100000000E-03 0.  1.
        -12    1    4    4    0    0 -0.54631997875E+01 -0.30928523956E+01  0.29508021182E+02  0.30168453755E+02  0.00000000000E+00 0.  1.
</event>
<event>
 8    1  0.4964753E-012  0.9118800E+02  0.7816164E-02  0.1184000E+00
        -11   -1    0    0    0    0  0.00000000000E+00  0.00000000000E+00  0.45593999997E+02  0.45594000000E+02  0.51100000000E-03 0. -1.
         11   -1    0    0    0    0 -0.00000000000E+00 -0.00000000000E+00 -0.45593999997E+02  0.45594000000E+02  0.51100000000E-03 0.  1.
         23    2    1    2    0    0  0.00000000000E+00  0.00000000000E+00  0.00000000000E+00  0.91188000000E+02  0.91188000000E+02 0.  0.
    9900012    2    3    3    0    0  0.32675082989E+02  0.22886721900E+02 -0.78551633277E+01  0.50528847542E+02  0.29999962590E+02 0.  0.
         12    1    3    3    0    0 -0.32675082989E+02 -0.22886721900E+02  0.78551633277E+01  0.40659152458E+02  0.00000000000E+00 0. -1.
         11    1    4    4    0    0  0.29158436265E+02  0.59240949511E+01 -0.30917357731E+01  0.29914346671E+02  0.51100000000E-03 0. -1.
        -11    1    4    4    0    0  0.66767107237E+01  0.74367503175E+01 -0.29020754291E+01  0.10407005498E+02  0.51100000000E-03 0.  1.
        -12    1    4    4    0    0 -0.31600639994E+01  0.95258766311E+01 -0.18613521255E+01  0.10207495374E+02  0.00000000000E+00 0.  1.
</event>
<event>
 8    1  0.4964753E-012  0.9118800E+02  0.7816164E-02  0.1184000E+00
        -11   -1    0    0    0    0  0.00000000000E+00  0.00000000000E+00  0.45593999997E+02  0.45594000000E+02  0.51100000000E-03 0. -1.
         11   -1    0    0    0    0 -0.00000000000E+00 -0.00000000000E+00 -0.45593999997E+02  0.45594000000E+02  0.51100000000E-03 0.  1.
         23    2    1    2    0    0  0.35527136788E-14  0.11102230246E-15  0.00000000000E+00  0.91188000000E+02  0.91188000000E+02 0.  0.
    9900012    2    3    3    0    0 -0.19749949721E+02  0.63032072379E+00  0.35534596825E+02  0.50528863392E+02  0.30000010767E+02 0.  0.
        -12    1    3    3    0    0  0.19749949721E+02 -0.63032072379E+00 -0.35534596825E+02  0.40659136608E+02  0.00000000000E+00 0.  1.
         11    1    4    4    0    0  0.20789802646E+01  0.13810104931E+01  0.20895548987E+01  0.32550866131E+01  0.51100000000E-03 0. -1.
        -11    1    4    4    0    0  0.14586429523E+01  0.57670197232E+01 -0.65356325847E-01  0.59489854144E+01  0.51100000000E-03 0.  1.
         12    1    4    4    0    0 -0.23287572938E+02 -0.65177094925E+01  0.33510398252E+02  0.41324791365E+02  0.00000000000E+00 0. -1.
</event>
<event>
 8    1  0.4964753E-012  0.9118800E+02  0.7816164E-02  0.1184000E+00
        -11   -1    0    0    0    0  0.00000000000E+00  0.00000000000E+00  0.45593999997E+02  0.45594000000E+02  0.51100000000E-03 0. -1.
         11   -1    0    0    0    0 -0.00000000000E+00 -0.00000000000E+00 -0.45593999997E+02  0.45594000000E+02  0.51100000000E-03 0.  1.
         23    2    1    2    0    0  0.00000000000E+00  0.00000000000E+00  0.00000000000E+00  0.91188000000E+02  0.91188000000E+02 0.  0.
    9900012    2    3    3    0    0 -0.33663213268E+02  0.17722166361E+02 -0.14348476181E+02  0.50528857402E+02  0.29999992560E+02 0.  0.
         12    1    3    3    0    0  0.33663213268E+02 -0.17722166361E+02  0.14348476181E+02  0.40659142598E+02  0.00000000000E+00 0. -1.
         11    1    4    4    0    0 -0.99296490915E+01  0.51454365441E+01  0.81940939953E+00  0.11213602469E+02  0.51100000000E-03 0. -1.
        -11    1    4    4    0    0 -0.27560058656E+02  0.90439729491E+01 -0.17203045526E+02  0.33723805471E+02  0.51100000000E-03 0.  1.
        -12    1    4    4    0    0  0.38264944792E+01  0.35327568676E+01  0.20351599451E+01  0.55914494621E+01  0.00000000000E+00 0.  1.
</event>
<event>
 8    1  0.4964753E-012  0.9118800E+02  0.7816164E-02  0.1184000E+00
        -11   -1    0    0    0    0  0.00000000000E+00  0.00000000000E+00  0.45593999997E+02  0.45594000000E+02  0.51100000000E-03 0.  1.
         11   -1    0    0    0    0 -0.00000000000E+00 -0.00000000000E+00 -0.45593999997E+02  0.45594000000E+02  0.51100000000E-03 0. -1.
         23    2    1    2    0    0  0.00000000000E+00 -0.26645352591E-14  0.22204460493E-15  0.91188000000E+02  0.91188000000E+02 0.  0.
    9900012    2    3    3    0    0 -0.40291296647E+02  0.52506860956E+01  0.14861456613E+01  0.50528844587E+02  0.29999953605E+02 0.  0.
         12    1    3    3    0    0  0.40291296647E+02 -0.52506860956E+01 -0.14861456613E+01  0.40659155413E+02  0.00000000000E+00 0. -1.
         11    1    4    4    0    0 -0.40155905521E+01  0.10898633047E+02 -0.19078868040E+01  0.11770522593E+02  0.51100000000E-03 0. -1.
        -11    1    4    4    0    0 -0.13176651369E+02  0.36647099891E+01  0.51061824187E+00  0.13686305997E+02  0.51100000000E-03 0.  1.
        -12    1    4    4    0    0 -0.23099054727E+02 -0.93126569409E+01  0.28834142235E+01  0.25072015997E+02  0.00000000000E+00 0.  1.
</event>
<event>
 8    1  0.4964753E-012  0.9118800E+02  0.7816164E-02  0.1184000E+00
        -11   -1    0    0    0    0  0.00000000000E+00  0.00000000000E+00  0.45593999997E+02  0.45594000000E+02  0.51100000000E-03 0. -1.
         11   -1    0    0    0    0 -0.00000000000E+00 -0.00000000000E+00 -0.45593999997E+02  0.45594000000E+02  0.51100000000E-03 0.  1.
         23    2    1    2    0    0  0.35527136788E-14  0.00000000000E+00 -0.17763568394E-14  0.91188000000E+02  0.91188000000E+02 0.  0.
    9900012    2    3    3    0    0  0.30107773028E+02 -0.25587440198E+02  0.95901152741E+01  0.50528863222E+02  0.30000010248E+02 0.  0.
         12    1    3    3    0    0 -0.30107773028E+02  0.25587440198E+02 -0.95901152741E+01  0.40659136778E+02  0.00000000000E+00 0. -1.
         11    1    4    4    0    0  0.27736385290E+02 -0.30781900634E+02  0.65869586750E+01  0.41954981831E+02  0.51100000000E-03 0.  1.
        -11    1    4    4    0    0 -0.95692161773E+00 -0.28308709209E+00 -0.65526923807E+00  0.11938238227E+01  0.51100000000E-03 0. -1.
        -12    1    4    4    0    0  0.33283093559E+01  0.54775475285E+01  0.36584258372E+01  0.73800575676E+01  0.00000000000E+00 0.  1.
</event>
<event>
 8    1  0.4964753E-012  0.9118800E+02  0.7816164E-02  0.1184000E+00
        -11   -1    0    0    0    0  0.00000000000E+00  0.00000000000E+00  0.45593999997E+02  0.45594000000E+02  0.51100000000E-03 0. -1.
         11   -1    0    0    0    0 -0.00000000000E+00 -0.00000000000E+00 -0.45593999997E+02  0.45594000000E+02  0.51100000000E-03 0.  1.
         23    2    1    2    0    0  0.00000000000E+00  0.00000000000E+00  0.00000000000E+00  0.91188000000E+02  0.91188000000E+02 0.  0.
    9900012    2    3    3    0    0 -0.22306267139E+02 -0.16305670737E+02 -0.29828193907E+02  0.50528860762E+02  0.30000002772E+02 0.  0.
         12    1    3    3    0    0  0.22306267139E+02  0.16305670737E+02  0.29828193907E+02  0.40659139238E+02  0.00000000000E+00 0. -1.
         11    1    4    4    0    0 -0.19342095072E+02 -0.79347825686E+01 -0.10332452730E+02  0.23320312945E+02  0.51100000000E-03 0. -1.
        -11    1    4    4    0    0 -0.36306685702E+01  0.46694918695E+01 -0.64280813827E+01  0.87353385229E+01  0.51100000000E-03 0.  1.
        -12    1    4    4    0    0  0.66649650346E+00 -0.13040380037E+02 -0.13067659794E+02  0.18473209294E+02  0.00000000000E+00 0.  1.
</event>
<event>
 8    1  0.4964753E-012  0.9118800E+02  0.7816164E-02  0.1184000E+00
        -11   -1    0    0    0    0  0.00000000000E+00  0.00000000000E+00  0.45593999997E+02  0.45594000000E+02  0.51100000000E-03 0. -1.
         11   -1    0    0    0    0 -0.00000000000E+00 -0.00000000000E+00 -0.45593999997E+02  0.45594000000E+02  0.51100000000E-03 0.  1.
         23    2    1    2    0    0  0.00000000000E+00  0.17763568394E-14 -0.35527136788E-14  0.91188000000E+02  0.91188000000E+02 0.  0.
    9900012    2    3    3    0    0  0.21263662464E+02  0.13384207886E+02  0.31966951542E+02  0.50528851546E+02  0.29999974758E+02 0.  0.
        -12    1    3    3    0    0 -0.21263662464E+02 -0.13384207886E+02 -0.31966951542E+02  0.40659148454E+02  0.00000000000E+00 0.  1.
         11    1    4    4    0    0  0.19129641632E+02  0.14250137689E+02  0.13020314470E+02  0.27176059359E+02  0.51100000000E-03 0. -1.
        -11    1    4    4    0    0  0.16119335502E+01  0.62798494744E+01  0.87264704084E+01  0.10871344224E+02  0.51100000000E-03 0.  1.
        -12    1    4    4    0    0  0.52208728231E+00 -0.71457792773E+01  0.10220166664E+02  0.12481447963E+02  0.00000000000E+00 0.  1.
</event>
<event>
 8    1  0.8112927E-012  0.9118800E+02  0.7816164E-02  0.1184000E+00
        -11   -1    0    0    0    0  0.00000000000E+00  0.00000000000E+00  0.45593999997E+02  0.45594000000E+02  0.51100000000E-03 0. -1.
         11   -1    0    0    0    0 -0.00000000000E+00 -0.00000000000E+00 -0.45593999997E+02  0.45594000000E+02  0.51100000000E-03 0.  1.
         23    2    1    2    0    0 -0.35527136788E-14 -0.17763568394E-14 -0.35527136788E-14  0.91188000000E+02  0.91188000000E+02 0.  0.
    9900012    2    3    3    0    0 -0.27227790208E+02 -0.84757490346E+01 -0.28982333198E+02  0.50528849506E+02  0.29999968559E+02 0.  0.
         12    1    3    3    0    0  0.27227790208E+02  0.84757490346E+01  0.28982333198E+02  0.40659150494E+02  0.00000000000E+00 0. -1.
         11    1    4    4    0    0 -0.10947004217E+01  0.53374761095E+01 -0.54306506377E+01  0.76927879759E+01  0.51100000000E-03 0. -1.
        -11    1    4    4    0    0 -0.26133605993E+02 -0.11056664474E+02 -0.26481396804E+02  0.38813394188E+02  0.51100000000E-03 0.  1.
         12    1    4    4    0    0  0.51620636258E-03 -0.27565606703E+01  0.29297142436E+01  0.40226673420E+01  0.00000000000E+00 0. -1.
</event>
<event>
 8    1  0.4964753E-012  0.9118800E+02  0.7816164E-02  0.1184000E+00
        -11   -1    0    0    0    0  0.00000000000E+00  0.00000000000E+00  0.45593999997E+02  0.45594000000E+02  0.51100000000E-03 0. -1.
         11   -1    0    0    0    0 -0.00000000000E+00 -0.00000000000E+00 -0.45593999997E+02  0.45594000000E+02  0.51100000000E-03 0.  1.
         23    2    1    2    0    0  0.00000000000E+00  0.00000000000E+00 -0.44408920985E-15  0.91188000000E+02  0.91188000000E+02 0.  0.
    9900012    2    3    3    0    0  0.12745399583E+02 -0.38525905388E+02  0.25445854357E+01  0.50528861893E+02  0.30000006211E+02 0.  0.
        -12    1    3    3    0    0 -0.12745399583E+02  0.38525905388E+02 -0.25445854357E+01  0.40659138107E+02  0.00000000000E+00 0.  1.
         11    1    4    4    0    0 -0.51407426539E+01 -0.54869114500E+01  0.84790517387E+01  0.11332596831E+02  0.51100000000E-03 0. -1.
        -11    1    4    4    0    0  0.10188098717E+02 -0.12972789901E+02  0.12311643817E+01  0.16541051940E+02  0.51100000000E-03 0.  1.
        -12    1    4    4    0    0  0.76980435203E+01 -0.20066204038E+02 -0.71656306846E+01  0.22655213123E+02  0.00000000000E+00 0.  1.
</event>
<event>
 8    1  0.4964753E-012  0.9118800E+02  0.7816164E-02  0.1184000E+00
        -11   -1    0    0    0    0  0.00000000000E+00  0.00000000000E+00  0.45593999997E+02  0.45594000000E+02  0.51100000000E-03 0. -1.
         11   -1    0    0    0    0 -0.00000000000E+00 -0.00000000000E+00 -0.45593999997E+02  0.45594000000E+02  0.51100000000E-03 0.  1.
         23    2    1    2    0    0  0.00000000000E+00  0.00000000000E+00  0.00000000000E+00  0.91188000000E+02  0.91188000000E+02 0.  0.
    9900012    2    3    3    0    0  0.14866253875E+02  0.18240330237E+02  0.33157972915E+02  0.50528851960E+02  0.29999976019E+02 0.  0.
        -12    1    3    3    0    0 -0.14866253875E+02 -0.18240330237E+02 -0.33157972915E+02  0.40659148040E+02  0.00000000000E+00 0.  1.
         11    1    4    4    0    0 -0.17813915591E+01  0.82854837433E+01  0.22095235409E+02  0.23664784486E+02  0.51100000000E-03 0. -1.
        -11    1    4    4    0    0 -0.12859258544E+01  0.49315289395E+01 -0.19848861907E+00  0.51002922443E+01  0.51100000000E-03 0.  1.
         12    1    4    4    0    0  0.17933571288E+02  0.50233175545E+01  0.11261226126E+02  0.21763775230E+02  0.00000000000E+00 0. -1.
</event>
<event>
 8    1  0.4964753E-012  0.9118800E+02  0.7816164E-02  0.1184000E+00
        -11   -1    0    0    0    0  0.00000000000E+00  0.00000000000E+00  0.45593999997E+02  0.45594000000E+02  0.51100000000E-03 0. -1.
         11   -1    0    0    0    0 -0.00000000000E+00 -0.00000000000E+00 -0.45593999997E+02  0.45594000000E+02  0.51100000000E-03 0.  1.
         23    2    1    2    0    0  0.35527136788E-14 -0.13322676296E-14  0.00000000000E+00  0.91188000000E+02  0.91188000000E+02 0.  0.
    9900012    2    3    3    0    0 -0.20248412227E+02  0.32792712309E+01  0.35105737729E+02  0.50528872623E+02  0.30000038825E+02 0.  0.
        -12    1    3    3    0    0  0.20248412227E+02 -0.32792712309E+01 -0.35105737729E+02  0.40659127377E+02  0.00000000000E+00 0.  1.
         11    1    4    4    0    0 -0.17565703159E+02  0.70088755168E+01  0.36768603889E+02  0.41347412201E+02  0.51100000000E-03 0. -1.
        -11    1    4    4    0    0  0.19408794901E+01  0.99252601497E+00  0.48341224218E+00  0.22328924611E+01  0.51100000000E-03 0.  1.
        -12    1    4    4    0    0 -0.46235885584E+01 -0.47221303009E+01 -0.21462784020E+01  0.69485679615E+01  0.00000000000E+00 0.  1.
</event>
<event>
 8    1  0.4964753E-012  0.9118800E+02  0.7816164E-02  0.1184000E+00
        -11   -1    0    0    0    0  0.00000000000E+00  0.00000000000E+00  0.45593999997E+02  0.45594000000E+02  0.51100000000E-03 0. -1.
         11   -1    0    0    0    0 -0.00000000000E+00 -0.00000000000E+00 -0.45593999997E+02  0.45594000000E+02  0.51100000000E-03 0.  1.
         23    2    1    2    0    0  0.17763568394E-14  0.00000000000E+00  0.71054273576E-14  0.91188000000E+02  0.91188000000E+02 0.  0.
    9900012    2    3    3    0    0  0.10486888190E+02  0.83325664012E+01  0.38389565996E+02  0.50528864936E+02  0.30000015460E+02 0.  0.
        -12    1    3    3    0    0 -0.10486888190E+02 -0.83325664012E+01 -0.38389565996E+02  0.40659135064E+02  0.00000000000E+00 0.  1.
         11    1    4    4    0    0  0.89296802863E+00 -0.19776211131E+00  0.21775368196E+02  0.21794567260E+02  0.51100000000E-03 0. -1.
        -11    1    4    4    0    0 -0.38464271405E+01 -0.36516329886E+01  0.36543944589E+01  0.64408092933E+01  0.51100000000E-03 0.  1.
         12    1    4    4    0    0  0.13440347301E+02  0.12181961501E+02  0.12959803342E+02  0.22293488382E+02  0.00000000000E+00 0. -1.
</event>
<event>
 8    1  0.4964753E-012  0.9118800E+02  0.7816164E-02  0.1184000E+00
        -11   -1    0    0    0    0  0.00000000000E+00  0.00000000000E+00  0.45593999997E+02  0.45594000000E+02  0.51100000000E-03 0. -1.
         11   -1    0    0    0    0 -0.00000000000E+00 -0.00000000000E+00 -0.45593999997E+02  0.45594000000E+02  0.51100000000E-03 0.  1.
         23    2    1    2    0    0  0.00000000000E+00  0.00000000000E+00 -0.35527136788E-14  0.91188000000E+02  0.91188000000E+02 0.  0.
    9900012    2    3    3    0    0 -0.16785924031E+02  0.23693647890E+02  0.28460660001E+02  0.50528863713E+02  0.30000011743E+02 0.  0.
        -12    1    3    3    0    0  0.16785924031E+02 -0.23693647890E+02 -0.28460660001E+02  0.40659136287E+02  0.00000000000E+00 0.  1.
         11    1    4    4    0    0 -0.39185364929E+01  0.69563180635E+01  0.13249463478E+02  0.15469116716E+02  0.51100000000E-03 0. -1.
        -11    1    4    4    0    0 -0.17315849233E+02  0.19605625925E+02  0.13833941082E+02  0.29590490511E+02  0.51100000000E-03 0.  1.
        -12    1    4    4    0    0  0.44484616950E+01 -0.28682960988E+01  0.13772554406E+01  0.54692564861E+01  0.00000000000E+00 0.  1.
</event>
<event>
 8    1  0.4964753E-012  0.9118800E+02  0.7816164E-02  0.1184000E+00
        -11   -1    0    0    0    0  0.00000000000E+00  0.00000000000E+00  0.45593999997E+02  0.45594000000E+02  0.51100000000E-03 0. -1.
         11   -1    0    0    0    0 -0.00000000000E+00 -0.00000000000E+00 -0.45593999997E+02  0.45594000000E+02  0.51100000000E-03 0.  1.
         23    2    1    2    0    0  0.00000000000E+00  0.00000000000E+00  0.00000000000E+00  0.91188000000E+02  0.91188000000E+02 0.  0.
    9900012    2    3    3    0    0  0.36407519120E+02 -0.80165269922E+01  0.16229404937E+02  0.50528859108E+02  0.29999997743E+02 0.  0.
        -12    1    3    3    0    0 -0.36407519120E+02  0.80165269922E+01 -0.16229404937E+02  0.40659140892E+02  0.00000000000E+00 0.  1.
         11    1    4    4    0    0  0.82548199510E+01  0.32499338452E+01 -0.28136819186E+01  0.93070365113E+01  0.51100000000E-03 0.  1.
        -11    1    4    4    0    0  0.20199617782E+02 -0.16019128924E+02  0.18881591646E+02  0.31955462027E+02  0.51100000000E-03 0. -1.
         12    1    4    4    0    0  0.79530813872E+01  0.47526680868E+01  0.16149520980E+00  0.92663605692E+01  0.00000000000E+00 0. -1.
</event>
<event>
 8    1  0.4964753E-012  0.9118800E+02  0.7816164E-02  0.1184000E+00
        -11   -1    0    0    0    0  0.00000000000E+00  0.00000000000E+00  0.45593999997E+02  0.45594000000E+02  0.51100000000E-03 0. -1.
         11   -1    0    0    0    0 -0.00000000000E+00 -0.00000000000E+00 -0.45593999997E+02  0.45594000000E+02  0.51100000000E-03 0.  1.
         23    2    1    2    0    0  0.35527136788E-14  0.00000000000E+00  0.71054273576E-14  0.91188000000E+02  0.91188000000E+02 0.  0.
    9900012    2    3    3    0    0  0.27915991482E+02  0.20296165314E+01  0.29491411133E+02  0.50528865058E+02  0.30000015829E+02 0.  0.
        -12    1    3    3    0    0 -0.27915991482E+02 -0.20296165314E+01 -0.29491411133E+02  0.40659134942E+02  0.00000000000E+00 0.  1.
         11    1    4    4    0    0  0.24407208662E+01 -0.31807006075E+01  0.20794093445E+02  0.21177070079E+02  0.51100000000E-03 0. -1.
        -11    1    4    4    0    0  0.16285116034E+02  0.46280756878E+01  0.10564571078E+02  0.19955807453E+02  0.51100000000E-03 0.  1.
        -12    1    4    4    0    0  0.91901545819E+01  0.58224145113E+00 -0.18672533897E+01  0.93959875249E+01  0.00000000000E+00 0.  1.
</event>
<event>
 8    1  0.4964753E-012  0.9118800E+02  0.7816164E-02  0.1184000E+00
        -11   -1    0    0    0    0  0.00000000000E+00  0.00000000000E+00  0.45593999997E+02  0.45594000000E+02  0.51100000000E-03 0. -1.
         11   -1    0    0    0    0 -0.00000000000E+00 -0.00000000000E+00 -0.45593999997E+02  0.45594000000E+02  0.51100000000E-03 0.  1.
         23    2    1    2    0    0 -0.35527136788E-14  0.35527136788E-14  0.00000000000E+00  0.91188000000E+02  0.91188000000E+02 0.  0.
    9900012    2    3    3    0    0 -0.23329459673E+02  0.25645229663E+02  0.21242009578E+02  0.50528874775E+02  0.30000045367E+02 0.  0.
        -12    1    3    3    0    0  0.23329459673E+02 -0.25645229663E+02 -0.21242009578E+02  0.40659125225E+02  0.00000000000E+00 0.  1.
         11    1    4    4    0    0 -0.87118527077E+01  0.76982346240E+01  0.11527359192E+02  0.16371902887E+02  0.51100000000E-03 0. -1.
        -11    1    4    4    0    0 -0.20305382510E+02  0.11154429275E+02  0.37304854691E+01  0.23465855480E+02  0.51100000000E-03 0.  1.
         12    1    4    4    0    0  0.56877755447E+01  0.67925657646E+01  0.59841649169E+01  0.10691116409E+02  0.00000000000E+00 0. -1.
</event>
<event>
 8    1  0.4964753E-012  0.9118800E+02  0.7816164E-02  0.1184000E+00
        -11   -1    0    0    0    0  0.00000000000E+00  0.00000000000E+00  0.45593999997E+02  0.45594000000E+02  0.51100000000E-03 0. -1.
         11   -1    0    0    0    0 -0.00000000000E+00 -0.00000000000E+00 -0.45593999997E+02  0.45594000000E+02  0.51100000000E-03 0.  1.
         23    2    1    2    0    0  0.00000000000E+00  0.00000000000E+00  0.19984014443E-14  0.91188000000E+02  0.91188000000E+02 0.  0.
    9900012    2    3    3    0    0 -0.21595435704E+01 -0.40566995713E+02  0.16792527175E+01  0.50528872374E+02  0.30000038067E+02 0.  0.
        -12    1    3    3    0    0  0.21595435704E+01  0.40566995713E+02 -0.16792527175E+01  0.40659127626E+02  0.00000000000E+00 0.  1.
         11    1    4    4    0    0 -0.12279914470E+02 -0.25382955603E+02  0.84139279899E+01  0.29425922569E+02  0.51100000000E-03 0. -1.
        -11    1    4    4    0    0  0.11539634459E+01 -0.36376100551E+01  0.17518822446E+01  0.41991582737E+01  0.51100000000E-03 0.  1.
        -12    1    4    4    0    0  0.89664074539E+01 -0.11546430055E+02 -0.84865575169E+01  0.16903791531E+02  0.00000000000E+00 0.  1.
</event>
<event>
 8    1  0.4964753E-012  0.9118800E+02  0.7816164E-02  0.1184000E+00
        -11   -1    0    0    0    0  0.00000000000E+00  0.00000000000E+00  0.45593999997E+02  0.45594000000E+02  0.51100000000E-03 0. -1.
         11   -1    0    0    0    0 -0.00000000000E+00 -0.00000000000E+00 -0.45593999997E+02  0.45594000000E+02  0.51100000000E-03 0.  1.
         23    2    1    2    0    0  0.88817841970E-15  0.00000000000E+00  0.00000000000E+00  0.91188000000E+02  0.91188000000E+02 0.  0.
    9900012    2    3    3    0    0 -0.67206780458E+01  0.20983410648E+02  0.34171548434E+02  0.50528858861E+02  0.29999996994E+02 0.  0.
        -12    1    3    3    0    0  0.67206780458E+01 -0.20983410648E+02 -0.34171548434E+02  0.40659141139E+02  0.00000000000E+00 0.  1.
         11    1    4    4    0    0 -0.94671122025E+01  0.20760794428E+02  0.10461061467E+02  0.25101207262E+02  0.51100000000E-03 0.  1.
        -11    1    4    4    0    0 -0.28122097150E+01  0.18101013528E+01  0.10135796226E+02  0.10673301072E+02  0.51100000000E-03 0. -1.
        -12    1    4    4    0    0  0.55586438717E+01 -0.15874851334E+01  0.13574690741E+02  0.14754350526E+02  0.00000000000E+00 0.  1.
</event>
<event>
 8    1  0.4964753E-012  0.9118800E+02  0.7816164E-02  0.1184000E+00
        -11   -1    0    0    0    0  0.00000000000E+00  0.00000000000E+00  0.45593999997E+02  0.45594000000E+02  0.51100000000E-03 0.  1.
         11   -1    0    0    0    0 -0.00000000000E+00 -0.00000000000E+00 -0.45593999997E+02  0.45594000000E+02  0.51100000000E-03 0. -1.
         23    2    1    2    0    0  0.35527136788E-14  0.00000000000E+00  0.00000000000E+00  0.91188000000E+02  0.91188000000E+02 0.  0.
    9900012    2    3    3    0    0 -0.30067146714E+02 -0.24288465970E+02 -0.12617430087E+02  0.50528899756E+02  0.30000121297E+02 0.  0.
        -12    1    3    3    0    0  0.30067146714E+02  0.24288465970E+02  0.12617430087E+02  0.40659100244E+02  0.00000000000E+00 0.  1.
         11    1    4    4    0    0 -0.11675460443E+02 -0.19723402093E+02 -0.12304514383E+02  0.26014035464E+02  0.51100000000E-03 0. -1.
        -11    1    4    4    0    0  0.22815089138E+01  0.17614533635E+01  0.19913473447E+00  0.28892310014E+01  0.51100000000E-03 0.  1.
         12    1    4    4    0    0 -0.20673195185E+02 -0.63265172404E+01 -0.51205043805E+00  0.21625633290E+02  0.00000000000E+00 0. -1.
</event>
<event>
 8    1  0.4964753E-012  0.9118800E+02  0.7816164E-02  0.1184000E+00
        -11   -1    0    0    0    0  0.00000000000E+00  0.00000000000E+00  0.45593999997E+02  0.45594000000E+02  0.51100000000E-03 0. -1.
         11   -1    0    0    0    0 -0.00000000000E+00 -0.00000000000E+00 -0.45593999997E+02  0.45594000000E+02  0.51100000000E-03 0.  1.
         23    2    1    2    0    0  0.00000000000E+00  0.88817841970E-15  0.71054273576E-14  0.91188000000E+02  0.91188000000E+02 0.  0.
    9900012    2    3    3    0    0 -0.63533715961E+01  0.52407412496E+01  0.39816283233E+02  0.50528842238E+02  0.29999946466E+02 0.  0.
        -12    1    3    3    0    0  0.63533715961E+01 -0.52407412496E+01 -0.39816283233E+02  0.40659157762E+02  0.00000000000E+00 0.  1.
         11    1    4    4    0    0 -0.13387131015E+02 -0.86451578552E+00  0.10534087768E+02  0.17056660568E+02  0.51100000000E-03 0. -1.
        -11    1    4    4    0    0  0.58531927977E+01  0.52096418025E+01  0.53359171127E+01  0.94800973271E+01  0.51100000000E-03 0.  1.
         12    1    4    4    0    0  0.11805666215E+01  0.89561523255E+00  0.23946278352E+02  0.23992084343E+02  0.00000000000E+00 0. -1.
</event>
<event>
 8    1  0.4964753E-012  0.9118800E+02  0.7816164E-02  0.1184000E+00
        -11   -1    0    0    0    0  0.00000000000E+00  0.00000000000E+00  0.45593999997E+02  0.45594000000E+02  0.51100000000E-03 0.  1.
         11   -1    0    0    0    0 -0.00000000000E+00 -0.00000000000E+00 -0.45593999997E+02  0.45594000000E+02  0.51100000000E-03 0. -1.
         23    2    1    2    0    0  0.00000000000E+00  0.00000000000E+00  0.17763568394E-14  0.91188000000E+02  0.91188000000E+02 0.  0.
    9900012    2    3    3    0    0 -0.82174236829E+01  0.37869111150E+02  0.12311374441E+02  0.50528861151E+02  0.30000003954E+02 0.  0.
        -12    1    3    3    0    0  0.82174236829E+01 -0.37869111150E+02 -0.12311374441E+02  0.40659138849E+02  0.00000000000E+00 0.  1.
         11    1    4    4    0    0  0.10326207356E+01  0.98226733398E+01 -0.44372625441E+01  0.10827765987E+02  0.51100000000E-03 0. -1.
        -11    1    4    4    0    0 -0.10749110541E+02  0.25396085721E+02  0.55947344243E+01  0.28139040512E+02  0.51100000000E-03 0.  1.
        -12    1    4    4    0    0  0.14990661224E+01  0.26503520894E+01  0.11153902561E+02  0.11562054652E+02  0.00000000000E+00 0.  1.
</event>
<event>
 8    1  0.4964753E-012  0.9118800E+02  0.7816164E-02  0.1184000E+00
        -11   -1    0    0    0    0  0.00000000000E+00  0.00000000000E+00  0.45593999997E+02  0.45594000000E+02  0.51100000000E-03 0. -1.
         11   -1    0    0    0    0 -0.00000000000E+00 -0.00000000000E+00 -0.45593999997E+02  0.45594000000E+02  0.51100000000E-03 0.  1.
         23    2    1    2    0    0 -0.17763568394E-14  0.00000000000E+00  0.00000000000E+00  0.91188000000E+02  0.91188000000E+02 0.  0.
    9900012    2    3    3    0    0 -0.15746819088E+02 -0.27197679695E+02 -0.25797081232E+02  0.50528862131E+02  0.30000006932E+02 0.  0.
         12    1    3    3    0    0  0.15746819088E+02  0.27197679695E+02  0.25797081232E+02  0.40659137869E+02  0.00000000000E+00 0. -1.
         11    1    4    4    0    0  0.40161674992E+01 -0.81968954765E+01 -0.18292039304E+02  0.20443028127E+02  0.51100000000E-03 0. -1.
        -11    1    4    4    0    0 -0.19063968251E+01 -0.28613230731E+01 -0.47433932220E+01  0.58584381965E+01  0.51100000000E-03 0.  1.
        -12    1    4    4    0    0 -0.17856589763E+02 -0.16139461146E+02 -0.27616487058E+01  0.24227395807E+02  0.00000000000E+00 0.  1.
</event>
<event>
 8    1  0.4964753E-012  0.9118800E+02  0.7816164E-02  0.1184000E+00
        -11   -1    0    0    0    0  0.00000000000E+00  0.00000000000E+00  0.45593999997E+02  0.45594000000E+02  0.51100000000E-03 0.  1.
         11   -1    0    0    0    0 -0.00000000000E+00 -0.00000000000E+00 -0.45593999997E+02  0.45594000000E+02  0.51100000000E-03 0. -1.
         23    2    1    2    0    0  0.35527136788E-14 -0.44408920985E-15  0.35527136788E-14  0.91188000000E+02  0.91188000000E+02 0.  0.
    9900012    2    3    3    0    0 -0.27741163393E+02  0.20572261560E+01 -0.29654018159E+02  0.50528866724E+02  0.30000020893E+02 0.  0.
         12    1    3    3    0    0  0.27741163393E+02 -0.20572261560E+01  0.29654018159E+02  0.40659133276E+02  0.00000000000E+00 0. -1.
         11    1    4    4    0    0 -0.15702358358E+02  0.10415430678E+02 -0.37799224311E+01  0.19218040172E+02  0.51100000000E-03 0.  1.
        -11    1    4    4    0    0 -0.16214107806E+01 -0.22971000998E+01 -0.14393697560E+02  0.14665748242E+02  0.51100000000E-03 0. -1.
        -12    1    4    4    0    0 -0.10417394254E+02 -0.60611044217E+01 -0.11480398167E+02  0.16645078310E+02  0.00000000000E+00 0.  1.
</event>
<event>
 8    1  0.4964753E-012  0.9118800E+02  0.7816164E-02  0.1184000E+00
        -11   -1    0    0    0    0  0.00000000000E+00  0.00000000000E+00  0.45593999997E+02  0.45594000000E+02  0.51100000000E-03 0. -1.
         11   -1    0    0    0    0 -0.00000000000E+00 -0.00000000000E+00 -0.45593999997E+02  0.45594000000E+02  0.51100000000E-03 0.  1.
         23    2    1    2    0    0 -0.33306690739E-15  0.00000000000E+00  0.00000000000E+00  0.91188000000E+02  0.91188000000E+02 0.  0.
    9900012    2    3    3    0    0 -0.61910015736E+00 -0.24185829292E+02 -0.32677632667E+02  0.50528864492E+02  0.30000014111E+02 0.  0.
         12    1    3    3    0    0  0.61910015736E+00  0.24185829292E+02  0.32677632667E+02  0.40659135508E+02  0.00000000000E+00 0. -1.
         11    1    4    4    0    0  0.12216774382E+01 -0.16613363623E+02 -0.19777114877E+02  0.25857892795E+02  0.51100000000E-03 0. -1.
        -11    1    4    4    0    0 -0.73519415264E+01 -0.65852072728E+01 -0.15596217477E+02  0.18456922791E+02  0.51100000000E-03 0.  1.
         12    1    4    4    0    0  0.55111639308E+01 -0.98725839583E+00  0.26956996881E+01  0.62140489071E+01  0.00000000000E+00 0. -1.
</event>
<event>
 8    1  0.4964753E-012  0.9118800E+02  0.7816164E-02  0.1184000E+00
        -11   -1    0    0    0    0  0.00000000000E+00  0.00000000000E+00  0.45593999997E+02  0.45594000000E+02  0.51100000000E-03 0. -1.
         11   -1    0    0    0    0 -0.00000000000E+00 -0.00000000000E+00 -0.45593999997E+02  0.45594000000E+02  0.51100000000E-03 0.  1.
         23    2    1    2    0    0  0.00000000000E+00  0.55511151231E-15  0.00000000000E+00  0.91188000000E+02  0.91188000000E+02 0.  0.
    9900012    2    3    3    0    0  0.81037889841E+01  0.50903247694E+00 -0.39840125425E+02  0.50528854610E+02  0.29999984072E+02 0.  0.
         12    1    3    3    0    0 -0.81037889841E+01 -0.50903247694E+00  0.39840125425E+02  0.40659145390E+02  0.00000000000E+00 0. -1.
         11    1    4    4    0    0 -0.39251216072E+01 -0.86623873707E+01 -0.17934579380E+02  0.20300065822E+02  0.51100000000E-03 0. -1.
        -11    1    4    4    0    0  0.51507667752E+00  0.52986811434E+01 -0.15719908570E+02  0.16596892829E+02  0.51100000000E-03 0.  1.
         12    1    4    4    0    0  0.11513833914E+02  0.38727387042E+01 -0.61856374754E+01  0.13631895959E+02  0.00000000000E+00 0. -1.
</event>
<event>
 8    1  0.4964753E-012  0.9118800E+02  0.7816164E-02  0.1184000E+00
        -11   -1    0    0    0    0  0.00000000000E+00  0.00000000000E+00  0.45593999997E+02  0.45594000000E+02  0.51100000000E-03 0. -1.
         11   -1    0    0    0    0 -0.00000000000E+00 -0.00000000000E+00 -0.45593999997E+02  0.45594000000E+02  0.51100000000E-03 0.  1.
         23    2    1    2    0    0  0.44408920985E-15  0.00000000000E+00  0.00000000000E+00  0.91188000000E+02  0.91188000000E+02 0.  0.
    9900012    2    3    3    0    0 -0.33728501794E+01 -0.18559179466E+02  0.36018613322E+02  0.50528932544E+02  0.30000220960E+02 0.  0.
        -12    1    3    3    0    0  0.33728501794E+01  0.18559179466E+02 -0.36018613322E+02  0.40659067456E+02  0.00000000000E+00 0.  1.
         11    1    4    4    0    0 -0.46681016965E+01 -0.91200134094E+01  0.14479048519E+02  0.17737211289E+02  0.51100000000E-03 0. -1.
        -11    1    4    4    0    0  0.29245407408E+00 -0.99086338531E+01 -0.12355993326E+01  0.99896576615E+01  0.51100000000E-03 0.  1.
         12    1    4    4    0    0  0.10027974430E+01  0.46946779685E+00  0.22775164135E+02  0.22802063593E+02  0.00000000000E+00 0. -1.
</event>
<event>
 8    1  0.4964753E-012  0.9118800E+02  0.7816164E-02  0.1184000E+00
        -11   -1    0    0    0    0  0.00000000000E+00  0.00000000000E+00  0.45593999997E+02  0.45594000000E+02  0.51100000000E-03 0. -1.
         11   -1    0    0    0    0 -0.00000000000E+00 -0.00000000000E+00 -0.45593999997E+02  0.45594000000E+02  0.51100000000E-03 0.  1.
         23    2    1    2    0    0 -0.17763568394E-14  0.00000000000E+00  0.00000000000E+00  0.91188000000E+02  0.91188000000E+02 0.  0.
    9900012    2    3    3    0    0 -0.73087502956E+01 -0.26306028271E+02 -0.30128736725E+02  0.50528859196E+02  0.29999998013E+02 0.  0.
         12    1    3    3    0    0  0.73087502956E+01  0.26306028271E+02  0.30128736725E+02  0.40659140804E+02  0.00000000000E+00 0. -1.
         11    1    4    4    0    0  0.13455446423E+01 -0.21910419342E+02 -0.14139799321E+02  0.26111508789E+02  0.51100000000E-03 0. -1.
        -11    1    4    4    0    0 -0.85165556813E+01 -0.83771106725E+01 -0.54115628225E+01  0.13114599359E+02  0.51100000000E-03 0.  1.
         12    1    4    4    0    0 -0.13773925659E+00  0.39815017438E+01 -0.10577374581E+02  0.11302751049E+02  0.00000000000E+00 0. -1.
</event>
<event>
 8    1  0.4964753E-012  0.9118800E+02  0.7816164E-02  0.1184000E+00
        -11   -1    0    0    0    0  0.00000000000E+00  0.00000000000E+00  0.45593999997E+02  0.45594000000E+02  0.51100000000E-03 0. -1.
         11   -1    0    0    0    0 -0.00000000000E+00 -0.00000000000E+00 -0.45593999997E+02  0.45594000000E+02  0.51100000000E-03 0.  1.
         23    2    1    2    0    0  0.00000000000E+00  0.17763568394E-14  0.00000000000E+00  0.91188000000E+02  0.91188000000E+02 0.  0.
    9900012    2    3    3    0    0 -0.74477450236E+01  0.93194605824E+01  0.38869576379E+02  0.50528865487E+02  0.30000017134E+02 0.  0.
        -12    1    3    3    0    0  0.74477450236E+01 -0.93194605824E+01 -0.38869576379E+02  0.40659134513E+02  0.00000000000E+00 0.  1.
         11    1    4    4    0    0  0.10814301840E+01  0.77270768190E+01  0.33641275230E+02  0.34534223703E+02  0.51100000000E-03 0. -1.
        -11    1    4    4    0    0 -0.11585628669E+01 -0.48964584307E+01  0.38797223960E+00  0.50465924940E+01  0.51100000000E-03 0.  1.
        -12    1    4    4    0    0 -0.73706123407E+01  0.64888421941E+01  0.48403289090E+01  0.10948049289E+02  0.00000000000E+00 0.  1.
</event>
<event>
 8    1  0.4964753E-012  0.9118800E+02  0.7816164E-02  0.1184000E+00
        -11   -1    0    0    0    0  0.00000000000E+00  0.00000000000E+00  0.45593999997E+02  0.45594000000E+02  0.51100000000E-03 0. -1.
         11   -1    0    0    0    0 -0.00000000000E+00 -0.00000000000E+00 -0.45593999997E+02  0.45594000000E+02  0.51100000000E-03 0.  1.
         23    2    1    2    0    0  0.00000000000E+00  0.00000000000E+00 -0.35527136788E-14  0.91188000000E+02  0.91188000000E+02 0.  0.
    9900012    2    3    3    0    0  0.23324668125E+02 -0.18648526105E+02 -0.27592717501E+02  0.50528859230E+02  0.29999998116E+02 0.  0.
         12    1    3    3    0    0 -0.23324668125E+02  0.18648526105E+02  0.27592717501E+02  0.40659140770E+02  0.00000000000E+00 0. -1.
         11    1    4    4    0    0  0.41645910587E+01 -0.29906313759E+01  0.12359258545E+01  0.52740124850E+01  0.51100000000E-03 0. -1.
        -11    1    4    4    0    0  0.17583028566E+02  0.12210603980E+01 -0.11698059749E+02  0.21154159973E+02  0.51100000000E-03 0.  1.
        -12    1    4    4    0    0  0.15770485005E+01 -0.16878955128E+02 -0.17130583607E+02  0.24100686772E+02  0.00000000000E+00 0.  1.
</event>
<event>
 8    1  0.4964753E-012  0.9118800E+02  0.7816164E-02  0.1184000E+00
        -11   -1    0    0    0    0  0.00000000000E+00  0.00000000000E+00  0.45593999997E+02  0.45594000000E+02  0.51100000000E-03 0.  1.
         11   -1    0    0    0    0 -0.00000000000E+00 -0.00000000000E+00 -0.45593999997E+02  0.45594000000E+02  0.51100000000E-03 0. -1.
         23    2    1    2    0    0 -0.17763568394E-14  0.00000000000E+00  0.00000000000E+00  0.91188000000E+02  0.91188000000E+02 0.  0.
    9900012    2    3    3    0    0 -0.91555497201E+01 -0.36989732371E+02 -0.14181010581E+02  0.50528862618E+02  0.30000008414E+02 0.  0.
         12    1    3    3    0    0  0.91555497201E+01  0.36989732371E+02  0.14181010581E+02  0.40659137382E+02  0.00000000000E+00 0. -1.
         11    1    4    4    0    0  0.55964359077E+01 -0.11165973127E+02  0.15485866994E+01  0.12585593818E+02  0.51100000000E-03 0. -1.
        -11    1    4    4    0    0 -0.24020962730E+01 -0.20468758918E+02 -0.64545291922E+01  0.21596321574E+02  0.51100000000E-03 0.  1.
         12    1    4    4    0    0 -0.12349889355E+02 -0.53550003262E+01 -0.92750680881E+01  0.16346947226E+02  0.00000000000E+00 0. -1.
</event>
<event>
 8    1  0.4964753E-012  0.9118800E+02  0.7816164E-02  0.1184000E+00
        -11   -1    0    0    0    0  0.00000000000E+00  0.00000000000E+00  0.45593999997E+02  0.45594000000E+02  0.51100000000E-03 0. -1.
         11   -1    0    0    0    0 -0.00000000000E+00 -0.00000000000E+00 -0.45593999997E+02  0.45594000000E+02  0.51100000000E-03 0.  1.
         23    2    1    2    0    0  0.00000000000E+00  0.00000000000E+00 -0.17763568394E-14  0.91188000000E+02  0.91188000000E+02 0.  0.
    9900012    2    3    3    0    0  0.37620849976E+02 -0.13415520240E+02 -0.76066835198E+01  0.50528853791E+02  0.29999981584E+02 0.  0.
         12    1    3    3    0    0 -0.37620849976E+02  0.13415520240E+02  0.76066835198E+01  0.40659146209E+02  0.00000000000E+00 0. -1.
         11    1    4    4    0    0  0.22605330664E+02 -0.54193124230E+01  0.12401242707E+01  0.23278913850E+02  0.51100000000E-03 0. -1.
        -11    1    4    4    0    0  0.16445612960E+02 -0.12706406858E+02 -0.63532630189E+01  0.21731886989E+02  0.51100000000E-03 0.  1.
         12    1    4    4    0    0 -0.14300936478E+01  0.47101990411E+01 -0.24935447715E+01  0.55180529515E+01  0.00000000000E+00 0. -1.
</event>
<event>
 8    1  0.4964753E-012  0.9118800E+02  0.7816164E-02  0.1184000E+00
        -11   -1    0    0    0    0  0.00000000000E+00  0.00000000000E+00  0.45593999997E+02  0.45594000000E+02  0.51100000000E-03 0. -1.
         11   -1    0    0    0    0 -0.00000000000E+00 -0.00000000000E+00 -0.45593999997E+02  0.45594000000E+02  0.51100000000E-03 0.  1.
         23    2    1    2    0    0  0.00000000000E+00 -0.35527136788E-14 -0.71054273576E-14  0.91188000000E+02  0.91188000000E+02 0.  0.
    9900012    2    3    3    0    0 -0.70567234934E+01 -0.22965766044E+02 -0.32801566642E+02  0.50528849362E+02  0.29999968119E+02 0.  0.
         12    1    3    3    0    0  0.70567234934E+01  0.22965766044E+02  0.32801566642E+02  0.40659150638E+02  0.00000000000E+00 0. -1.
         11    1    4    4    0    0 -0.70531309999E+01 -0.14876603005E+01  0.26553814995E+01  0.76818514201E+01  0.51100000000E-03 0. -1.
        -11    1    4    4    0    0 -0.58231657442E+00 -0.79231972695E+01 -0.47002207382E+01  0.92308300176E+01  0.51100000000E-03 0.  1.
        -12    1    4    4    0    0  0.57872408098E+00 -0.13554908474E+02 -0.30756727404E+02  0.33616167924E+02  0.00000000000E+00 0.  1.
</event>
<event>
 8    1  0.4964753E-012  0.9118800E+02  0.7816164E-02  0.1184000E+00
        -11   -1    0    0    0    0  0.00000000000E+00  0.00000000000E+00  0.45593999997E+02  0.45594000000E+02  0.51100000000E-03 0.  1.
         11   -1    0    0    0    0 -0.00000000000E+00 -0.00000000000E+00 -0.45593999997E+02  0.45594000000E+02  0.51100000000E-03 0. -1.
         23    2    1    2    0    0  0.00000000000E+00  0.00000000000E+00  0.17763568394E-14  0.91188000000E+02  0.91188000000E+02 0.  0.
    9900012    2    3    3    0    0  0.16634517978E+02  0.33624656361E+02 -0.15679322446E+02  0.50528857656E+02  0.29999993332E+02 0.  0.
         12    1    3    3    0    0 -0.16634517978E+02 -0.33624656361E+02  0.15679322446E+02  0.40659142344E+02  0.00000000000E+00 0. -1.
         11    1    4    4    0    0  0.16362775496E+01  0.19378570947E+02 -0.10834982212E+02  0.22262148503E+02  0.51100000000E-03 0.  1.
        -11    1    4    4    0    0  0.17031935468E+02  0.16685705984E+02 -0.64605910815E+01  0.24703012920E+02  0.51100000000E-03 0. -1.
        -12    1    4    4    0    0 -0.20336950394E+01 -0.24396205700E+01  0.16162508474E+01  0.35636962330E+01  0.00000000000E+00 0.  1.
</event>
<event>
 8    1  0.4964753E-012  0.9118800E+02  0.7816164E-02  0.1184000E+00
        -11   -1    0    0    0    0  0.00000000000E+00  0.00000000000E+00  0.45593999997E+02  0.45594000000E+02  0.51100000000E-03 0. -1.
         11   -1    0    0    0    0 -0.00000000000E+00 -0.00000000000E+00 -0.45593999997E+02  0.45594000000E+02  0.51100000000E-03 0.  1.
         23    2    1    2    0    0  0.00000000000E+00  0.00000000000E+00  0.71054273576E-14  0.91188000000E+02  0.91188000000E+02 0.  0.
    9900012    2    3    3    0    0 -0.97309864270E+01 -0.12285564966E+02  0.37517143076E+02  0.50528889976E+02  0.30000091570E+02 0.  0.
        -12    1    3    3    0    0  0.97309864270E+01  0.12285564966E+02 -0.37517143076E+02  0.40659110024E+02  0.00000000000E+00 0.  1.
         11    1    4    4    0    0 -0.14225148285E+01 -0.96784437289E+01  0.13253890985E+02  0.16473052175E+02  0.51100000000E-03 0. -1.
        -11    1    4    4    0    0  0.68140549225E+01  0.33884870914E+01  0.83863819775E+01  0.11324512890E+02  0.51100000000E-03 0.  1.
        -12    1    4    4    0    0 -0.15122526521E+02 -0.59956083289E+01  0.15876870113E+02  0.22731324911E+02  0.00000000000E+00 0.  1.
</event>
<event>
 8    1  0.4964753E-012  0.9118800E+02  0.7816164E-02  0.1184000E+00
        -11   -1    0    0    0    0  0.00000000000E+00  0.00000000000E+00  0.45593999997E+02  0.45594000000E+02  0.51100000000E-03 0. -1.
         11   -1    0    0    0    0 -0.00000000000E+00 -0.00000000000E+00 -0.45593999997E+02  0.45594000000E+02  0.51100000000E-03 0.  1.
         23    2    1    2    0    0  0.00000000000E+00  0.88817841970E-15 -0.17763568394E-14  0.91188000000E+02  0.91188000000E+02 0.  0.
    9900012    2    3    3    0    0 -0.38088002282E+02 -0.79986758717E+01 -0.11768212190E+02  0.50528861400E+02  0.30000004713E+02 0.  0.
         12    1    3    3    0    0  0.38088002282E+02  0.79986758717E+01  0.11768212190E+02  0.40659138600E+02  0.00000000000E+00 0. -1.
         11    1    4    4    0    0 -0.14030336932E+02 -0.77010349368E+01 -0.16564544875E+02  0.23033463497E+02  0.51100000000E-03 0. -1.
        -11    1    4    4    0    0 -0.14102696601E+02 -0.45323567548E+01 -0.16458931054E+01  0.14904270312E+02  0.51100000000E-03 0.  1.
         12    1    4    4    0    0 -0.99549687491E+01  0.42347158198E+01  0.64422257904E+01  0.12591127591E+02  0.00000000000E+00 0. -1.
</event>
<event>
 8    1  0.7623349E-012  0.9118800E+02  0.7816164E-02  0.1184000E+00
        -11   -1    0    0    0    0  0.00000000000E+00  0.00000000000E+00  0.45593999997E+02  0.45594000000E+02  0.51100000000E-03 0. -1.
         11   -1    0    0    0    0 -0.00000000000E+00 -0.00000000000E+00 -0.45593999997E+02  0.45594000000E+02  0.51100000000E-03 0.  1.
         23    2    1    2    0    0  0.17763568394E-14  0.00000000000E+00  0.71054273576E-14  0.91188000000E+02  0.91188000000E+02 0.  0.
    9900012    2    3    3    0    0  0.80648077109E+01 -0.30718405602E+02 -0.25387075800E+02  0.50528865924E+02  0.30000018462E+02 0.  0.
         12    1    3    3    0    0 -0.80648077109E+01  0.30718405602E+02  0.25387075800E+02  0.40659134076E+02  0.00000000000E+00 0. -1.
         11    1    4    4    0    0  0.10829328368E+02 -0.48986214983E+01 -0.89363241786E+01  0.14870397963E+02  0.51100000000E-03 0. -1.
        -11    1    4    4    0    0  0.34860568868E+01 -0.20640860437E+02 -0.17740344350E+02  0.27439342741E+02  0.51100000000E-03 0.  1.
         12    1    4    4    0    0 -0.62505775436E+01 -0.51789236669E+01  0.12895927276E+01  0.82191252198E+01  0.00000000000E+00 0. -1.
</event>
<event>
 8    1  0.4964753E-012  0.9118800E+02  0.7816164E-02  0.1184000E+00
        -11   -1    0    0    0    0  0.00000000000E+00  0.00000000000E+00  0.45593999997E+02  0.45594000000E+02  0.51100000000E-03 0. -1.
         11   -1    0    0    0    0 -0.00000000000E+00 -0.00000000000E+00 -0.45593999997E+02  0.45594000000E+02  0.51100000000E-03 0.  1.
         23    2    1    2    0    0  0.00000000000E+00  0.00000000000E+00  0.00000000000E+00  0.91188000000E+02  0.91188000000E+02 0.  0.
    9900012    2    3    3    0    0 -0.20788713288E+02 -0.27844728682E+02 -0.21110789532E+02  0.50528868797E+02  0.30000027195E+02 0.  0.
         12    1    3    3    0    0  0.20788713288E+02  0.27844728682E+02  0.21110789532E+02  0.40659131203E+02  0.00000000000E+00 0. -1.
         11    1    4    4    0    0 -0.12924143843E+02 -0.61851086488E+01  0.12151150941E+01  0.14379345187E+02  0.51100000000E-03 0. -1.
        -11    1    4    4    0    0  0.16319522437E+01 -0.13073856495E+02 -0.39518652024E+01  0.13755225575E+02  0.51100000000E-03 0.  1.
        -12    1    4    4    0    0 -0.94965216890E+01 -0.85857635378E+01 -0.18374039424E+02  0.22394298034E+02  0.00000000000E+00 0.  1.
</event>
<event>
 8    1  0.4964753E-012  0.9118800E+02  0.7816164E-02  0.1184000E+00
        -11   -1    0    0    0    0  0.00000000000E+00  0.00000000000E+00  0.45593999997E+02  0.45594000000E+02  0.51100000000E-03 0. -1.
         11   -1    0    0    0    0 -0.00000000000E+00 -0.00000000000E+00 -0.45593999997E+02  0.45594000000E+02  0.51100000000E-03 0.  1.
         23    2    1    2    0    0  0.35527136788E-14  0.71054273576E-14  0.88817841970E-15  0.91188000000E+02  0.91188000000E+02 0.  0.
    9900012    2    3    3    0    0  0.21578518791E+02  0.33682508694E+02  0.72816073273E+01  0.50528859941E+02  0.30000000275E+02 0.  0.
        -12    1    3    3    0    0 -0.21578518791E+02 -0.33682508694E+02 -0.72816073273E+01  0.40659140059E+02  0.00000000000E+00 0.  1.
         11    1    4    4    0    0  0.26253429759E+01  0.27708331784E+01 -0.37409667334E+01  0.53446023804E+01  0.51100000000E-03 0. -1.
        -11    1    4    4    0    0 -0.54994188859E+01  0.10807991747E+02  0.38850197976E+01  0.12733800406E+02  0.51100000000E-03 0.  1.
         12    1    4    4    0    0  0.24452594701E+02  0.20103683768E+02  0.71375542631E+01  0.32450457154E+02  0.00000000000E+00 0. -1.
</event>
<event>
 8    1  0.4964753E-012  0.9118800E+02  0.7816164E-02  0.1184000E+00
        -11   -1    0    0    0    0  0.00000000000E+00  0.00000000000E+00  0.45593999997E+02  0.45594000000E+02  0.51100000000E-03 0. -1.
         11   -1    0    0    0    0 -0.00000000000E+00 -0.00000000000E+00 -0.45593999997E+02  0.45594000000E+02  0.51100000000E-03 0.  1.
         23    2    1    2    0    0  0.00000000000E+00  0.00000000000E+00 -0.35527136788E-14  0.91188000000E+02  0.91188000000E+02 0.  0.
    9900012    2    3    3    0    0  0.49186941260E+01  0.27538884537E+02 -0.29505629906E+02  0.50528856999E+02  0.29999991333E+02 0.  0.
         12    1    3    3    0    0 -0.49186941260E+01 -0.27538884537E+02  0.29505629906E+02  0.40659143001E+02  0.00000000000E+00 0. -1.
         11    1    4    4    0    0  0.11982980532E+02  0.10536553050E+02 -0.80440296838E+01  0.17869448409E+02  0.51100000000E-03 0. -1.
        -11    1    4    4    0    0 -0.59084855455E+01  0.11883975178E+02 -0.31906145154E+01  0.13649875044E+02  0.51100000000E-03 0.  1.
         12    1    4    4    0    0 -0.11558008609E+01  0.51183563094E+01 -0.18270985707E+02  0.19009533546E+02  0.00000000000E+00 0. -1.
</event>
<event>
 8    1  0.4964753E-012  0.9118800E+02  0.7816164E-02  0.1184000E+00
        -11   -1    0    0    0    0  0.00000000000E+00  0.00000000000E+00  0.45593999997E+02  0.45594000000E+02  0.51100000000E-03 0.  1.
         11   -1    0    0    0    0 -0.00000000000E+00 -0.00000000000E+00 -0.45593999997E+02  0.45594000000E+02  0.51100000000E-03 0. -1.
         23    2    1    2    0    0 -0.17763568394E-14  0.00000000000E+00  0.44408920985E-14  0.91188000000E+02  0.91188000000E+02 0.  0.
    9900012    2    3    3    0    0  0.11667765104E+02  0.38471061877E+02 -0.60832830417E+01  0.50528859858E+02  0.30000000025E+02 0.  0.
         12    1    3    3    0    0 -0.11667765104E+02 -0.38471061877E+02  0.60832830417E+01  0.40659140142E+02  0.00000000000E+00 0. -1.
         11    1    4    4    0    0 -0.15204979597E+01 -0.23478702526E+00 -0.12498181242E+01  0.19821918669E+01  0.51100000000E-03 0. -1.
        -11    1    4    4    0    0  0.10219665862E+02  0.22690118312E+02 -0.15274330658E+02  0.29199113285E+02  0.51100000000E-03 0.  1.
        -12    1    4    4    0    0  0.29685972016E+01  0.16015730591E+02  0.10440865740E+02  0.19347554706E+02  0.00000000000E+00 0.  1.
</event>
<event>
 8    1  0.4964753E-012  0.9118800E+02  0.7816164E-02  0.1184000E+00
        -11   -1    0    0    0    0  0.00000000000E+00  0.00000000000E+00  0.45593999997E+02  0.45594000000E+02  0.51100000000E-03 0. -1.
         11   -1    0    0    0    0 -0.00000000000E+00 -0.00000000000E+00 -0.45593999997E+02  0.45594000000E+02  0.51100000000E-03 0.  1.
         23    2    1    2    0    0  0.88817841970E-15 -0.17763568394E-14  0.71054273576E-14  0.91188000000E+02  0.91188000000E+02 0.  0.
    9900012    2    3    3    0    0  0.54505983326E+01 -0.13148424577E+02  0.38086422426E+02  0.50528860016E+02  0.30000000505E+02 0.  0.
        -12    1    3    3    0    0 -0.54505983326E+01  0.13148424577E+02 -0.38086422426E+02  0.40659139984E+02  0.00000000000E+00 0.  1.
         11    1    4    4    0    0  0.67769851241E+01  0.20663531730E+01  0.12195489336E+02  0.14104159075E+02  0.51100000000E-03 0. -1.
        -11    1    4    4    0    0 -0.14664875476E+01  0.19367535886E+01 -0.23520521674E+01  0.33813828310E+01  0.51100000000E-03 0.  1.
         12    1    4    4    0    0  0.14010075609E+00 -0.17151531339E+02  0.28242985257E+02  0.33043318110E+02  0.00000000000E+00 0. -1.
</event>
<event>
 8    1  0.4964753E-012  0.9118800E+02  0.7816164E-02  0.1184000E+00
        -11   -1    0    0    0    0  0.00000000000E+00  0.00000000000E+00  0.45593999997E+02  0.45594000000E+02  0.51100000000E-03 0. -1.
         11   -1    0    0    0    0 -0.00000000000E+00 -0.00000000000E+00 -0.45593999997E+02  0.45594000000E+02  0.51100000000E-03 0.  1.
         23    2    1    2    0    0  0.00000000000E+00  0.00000000000E+00  0.00000000000E+00  0.91188000000E+02  0.91188000000E+02 0.  0.
    9900012    2    3    3    0    0 -0.34808572182E+01 -0.36494303349E+02 -0.17584525940E+02  0.50528854701E+02  0.29999984350E+02 0.  0.
         12    1    3    3    0    0  0.34808572182E+01  0.36494303349E+02  0.17584525940E+02  0.40659145299E+02  0.00000000000E+00 0. -1.
         11    1    4    4    0    0  0.29927867045E+01  0.43959966131E-01  0.31088204178E+01  0.43154917899E+01  0.51100000000E-03 0. -1.
        -11    1    4    4    0    0  0.62621708379E+01 -0.13794484372E+02 -0.92094537148E+01  0.17728976865E+02  0.51100000000E-03 0.  1.
        -12    1    4    4    0    0 -0.12735814761E+02 -0.22743778943E+02 -0.11483892643E+02  0.28484386047E+02  0.00000000000E+00 0.  1.
</event>
<event>
 8    1  0.4964753E-012  0.9118800E+02  0.7816164E-02  0.1184000E+00
        -11   -1    0    0    0    0  0.00000000000E+00  0.00000000000E+00  0.45593999997E+02  0.45594000000E+02  0.51100000000E-03 0. -1.
         11   -1    0    0    0    0 -0.00000000000E+00 -0.00000000000E+00 -0.45593999997E+02  0.45594000000E+02  0.51100000000E-03 0.  1.
         23    2    1    2    0    0  0.00000000000E+00  0.88817841970E-15 -0.71054273576E-14  0.91188000000E+02  0.91188000000E+02 0.  0.
    9900012    2    3    3    0    0 -0.22798820904E+02  0.43755137988E+01 -0.33380133350E+02  0.50528872389E+02  0.30000038113E+02 0.  0.
         12    1    3    3    0    0  0.22798820904E+02 -0.43755137988E+01  0.33380133350E+02  0.40659127611E+02  0.00000000000E+00 0. -1.
         11    1    4    4    0    0 -0.29453547788E+01 -0.33052525392E+01 -0.34556775264E+00  0.44406335645E+01  0.51100000000E-03 0. -1.
        -11    1    4    4    0    0 -0.13384754608E+02 -0.65745154776E+01 -0.23270066180E+02  0.27638232396E+02  0.51100000000E-03 0.  1.
        -12    1    4    4    0    0 -0.64687115176E+01  0.14255281816E+02 -0.97644994169E+01  0.18450006428E+02  0.00000000000E+00 0.  1.
</event>
<event>
 8    1  0.4964753E-012  0.9118800E+02  0.7816164E-02  0.1184000E+00
        -11   -1    0    0    0    0  0.00000000000E+00  0.00000000000E+00  0.45593999997E+02  0.45594000000E+02  0.51100000000E-03 0. -1.
         11   -1    0    0    0    0 -0.00000000000E+00 -0.00000000000E+00 -0.45593999997E+02  0.45594000000E+02  0.51100000000E-03 0.  1.
         23    2    1    2    0    0 -0.35527136788E-14 -0.88817841970E-15  0.00000000000E+00  0.91188000000E+02  0.91188000000E+02 0.  0.
    9900012    2    3    3    0    0  0.14293462100E+02  0.73188978055E+01  0.37353663122E+02  0.50528862373E+02  0.30000007670E+02 0.  0.
        -12    1    3    3    0    0 -0.14293462100E+02 -0.73188978055E+01 -0.37353663122E+02  0.40659137627E+02  0.00000000000E+00 0.  1.
         11    1    4    4    0    0 -0.30398336443E+01  0.75016779212E+01  0.62765187952E+01  0.10242580176E+02  0.51100000000E-03 0. -1.
        -11    1    4    4    0    0  0.98308053029E+01  0.71472440763E+01  0.70055398890E+01  0.14028735516E+02  0.51100000000E-03 0.  1.
         12    1    4    4    0    0  0.75024904417E+01 -0.73300241921E+01  0.24071604438E+02  0.26257546681E+02  0.00000000000E+00 0. -1.
</event>
<event>
 8    1  0.4964753E-012  0.9118800E+02  0.7816164E-02  0.1184000E+00
        -11   -1    0    0    0    0  0.00000000000E+00  0.00000000000E+00  0.45593999997E+02  0.45594000000E+02  0.51100000000E-03 0. -1.
         11   -1    0    0    0    0 -0.00000000000E+00 -0.00000000000E+00 -0.45593999997E+02  0.45594000000E+02  0.51100000000E-03 0.  1.
         23    2    1    2    0    0  0.88817841970E-15 -0.17763568394E-14 -0.71054273576E-14  0.91188000000E+02  0.91188000000E+02 0.  0.
    9900012    2    3    3    0    0 -0.59731252499E+01  0.10779255962E+02  0.38746547554E+02  0.50528861646E+02  0.30000005458E+02 0.  0.
        -12    1    3    3    0    0  0.59731252499E+01 -0.10779255962E+02 -0.38746547554E+02  0.40659138354E+02  0.00000000000E+00 0.  1.
         11    1    4    4    0    0 -0.15730797790E+01 -0.57368483607E-01  0.58145779702E+01  0.60238848235E+01  0.51100000000E-03 0. -1.
        -11    1    4    4    0    0  0.42118920997E+01  0.16644608207E+02  0.11431374148E+02  0.20626665571E+02  0.51100000000E-03 0.  1.
         12    1    4    4    0    0 -0.86119375706E+01 -0.58079837614E+01  0.21500595436E+02  0.23878311251E+02  0.00000000000E+00 0. -1.
</event>
<event>
 8    1  0.4964753E-012  0.9118800E+02  0.7816164E-02  0.1184000E+00
        -11   -1    0    0    0    0  0.00000000000E+00  0.00000000000E+00  0.45593999997E+02  0.45594000000E+02  0.51100000000E-03 0. -1.
         11   -1    0    0    0    0 -0.00000000000E+00 -0.00000000000E+00 -0.45593999997E+02  0.45594000000E+02  0.51100000000E-03 0.  1.
         23    2    1    2    0    0  0.00000000000E+00  0.11102230246E-14  0.00000000000E+00  0.91188000000E+02  0.91188000000E+02 0.  0.
    9900012    2    3    3    0    0  0.11014586841E+02  0.18383007605E+01 -0.39095591036E+02  0.50528859436E+02  0.29999998743E+02 0.  0.
         12    1    3    3    0    0 -0.11014586841E+02 -0.18383007605E+01  0.39095591036E+02  0.40659140564E+02  0.00000000000E+00 0. -1.
         11    1    4    4    0    0  0.47754649859E+01  0.78956975772E+01 -0.26996285192E+02  0.28529747992E+02  0.51100000000E-03 0.  1.
        -11    1    4    4    0    0  0.49802680133E+01 -0.33926129715E+01 -0.16007534951E+02  0.17104211988E+02  0.51100000000E-03 0. -1.
         12    1    4    4    0    0  0.12588538413E+01 -0.26647838452E+01  0.39082291072E+01  0.48948994566E+01  0.00000000000E+00 0. -1.
</event>
<event>
 8    1  0.4964753E-012  0.9118800E+02  0.7816164E-02  0.1184000E+00
        -11   -1    0    0    0    0  0.00000000000E+00  0.00000000000E+00  0.45593999997E+02  0.45594000000E+02  0.51100000000E-03 0. -1.
         11   -1    0    0    0    0 -0.00000000000E+00 -0.00000000000E+00 -0.45593999997E+02  0.45594000000E+02  0.51100000000E-03 0.  1.
         23    2    1    2    0    0  0.13322676296E-14 -0.88817841970E-15  0.71054273576E-14  0.91188000000E+02  0.91188000000E+02 0.  0.
    9900012    2    3    3    0    0 -0.12674363727E+01 -0.56002304965E+01  0.40251665365E+02  0.50528861529E+02  0.30000005103E+02 0.  0.
        -12    1    3    3    0    0  0.12674363727E+01  0.56002304965E+01 -0.40251665365E+02  0.40659138471E+02  0.00000000000E+00 0.  1.
         11    1    4    4    0    0  0.11637976943E+02 -0.69039555542E+01  0.15403064133E+02  0.20502719199E+02  0.51100000000E-03 0. -1.
        -11    1    4    4    0    0 -0.21671805988E+01  0.21087562533E+01  0.15418935343E+02  0.15712641154E+02  0.51100000000E-03 0.  1.
        -12    1    4    4    0    0 -0.10738232717E+02 -0.80503119563E+00  0.94296658896E+01  0.14313501175E+02  0.00000000000E+00 0.  1.
</event>
<event>
 8    1  0.4964753E-012  0.9118800E+02  0.7816164E-02  0.1184000E+00
        -11   -1    0    0    0    0  0.00000000000E+00  0.00000000000E+00  0.45593999997E+02  0.45594000000E+02  0.51100000000E-03 0. -1.
         11   -1    0    0    0    0 -0.00000000000E+00 -0.00000000000E+00 -0.45593999997E+02  0.45594000000E+02  0.51100000000E-03 0.  1.
         23    2    1    2    0    0  0.00000000000E+00  0.00000000000E+00  0.17763568394E-14  0.91188000000E+02  0.91188000000E+02 0.  0.
    9900012    2    3    3    0    0  0.18267550079E+02 -0.34964959077E+02  0.98442920693E+01  0.50528907099E+02  0.30000143618E+02 0.  0.
        -12    1    3    3    0    0 -0.18267550079E+02  0.34964959077E+02 -0.98442920693E+01  0.40659092901E+02  0.00000000000E+00 0.  1.
         11    1    4    4    0    0  0.11882363264E+02 -0.24079057812E+02  0.12849804055E+02  0.29767583818E+02  0.51100000000E-03 0. -1.
        -11    1    4    4    0    0 -0.54073541580E+01 -0.19894797529E+01 -0.56852909522E+00  0.57897093425E+01  0.51100000000E-03 0.  1.
        -12    1    4    4    0    0  0.11792540973E+02 -0.88964215127E+01 -0.24369828904E+01  0.14971613939E+02  0.00000000000E+00 0.  1.
</event>
<event>
 8    1  0.4964753E-012  0.9118800E+02  0.7816164E-02  0.1184000E+00
        -11   -1    0    0    0    0  0.00000000000E+00  0.00000000000E+00  0.45593999997E+02  0.45594000000E+02  0.51100000000E-03 0. -1.
         11   -1    0    0    0    0 -0.00000000000E+00 -0.00000000000E+00 -0.45593999997E+02  0.45594000000E+02  0.51100000000E-03 0.  1.
         23    2    1    2    0    0 -0.88817841970E-15 -0.35527136788E-14  0.00000000000E+00  0.91188000000E+02  0.91188000000E+02 0.  0.
    9900012    2    3    3    0    0  0.73690405526E+01 -0.18722411408E+02 -0.35331767761E+02  0.50528864978E+02  0.30000015589E+02 0.  0.
         12    1    3    3    0    0 -0.73690405526E+01  0.18722411408E+02  0.35331767761E+02  0.40659135022E+02  0.00000000000E+00 0. -1.
         11    1    4    4    0    0 -0.31181730611E+01  0.68237797907E+01 -0.62488232294E+01  0.97639523700E+01  0.51100000000E-03 0. -1.
        -11    1    4    4    0    0 -0.34117895453E+00 -0.51088354072E+01 -0.78223995492E+01  0.93491463388E+01  0.51100000000E-03 0.  1.
        -12    1    4    4    0    0  0.10828392568E+02 -0.20437355792E+02 -0.21260544982E+02  0.31415766270E+02  0.00000000000E+00 0.  1.
</event>
<event>
 8    1  0.4964753E-012  0.9118800E+02  0.7816164E-02  0.1184000E+00
        -11   -1    0    0    0    0  0.00000000000E+00  0.00000000000E+00  0.45593999997E+02  0.45594000000E+02  0.51100000000E-03 0. -1.
         11   -1    0    0    0    0 -0.00000000000E+00 -0.00000000000E+00 -0.45593999997E+02  0.45594000000E+02  0.51100000000E-03 0.  1.
         23    2    1    2    0    0  0.00000000000E+00  0.00000000000E+00  0.14210854715E-13  0.91188000000E+02  0.91188000000E+02 0.  0.
    9900012    2    3    3    0    0  0.16721833100E+02  0.17757889745E+01  0.37018814758E+02  0.50528858656E+02  0.29999996371E+02 0.  0.
        -12    1    3    3    0    0 -0.16721833100E+02 -0.17757889745E+01 -0.37018814758E+02  0.40659141344E+02  0.00000000000E+00 0.  1.
         11    1    4    4    0    0  0.21673480381E+02  0.23491191549E+01  0.35858129102E+02  0.41965027530E+02  0.51100000000E-03 0.  1.
        -11    1    4    4    0    0 -0.35957456471E+01 -0.33719932598E+01  0.20356696274E+01  0.53332613283E+01  0.51100000000E-03 0. -1.
        -12    1    4    4    0    0 -0.13559016339E+01  0.27986630794E+01 -0.87498397059E+00  0.32305697982E+01  0.00000000000E+00 0.  1.
</event>
<event>
 8    1  0.4964753E-012  0.9118800E+02  0.7816164E-02  0.1184000E+00
        -11   -1    0    0    0    0  0.00000000000E+00  0.00000000000E+00  0.45593999997E+02  0.45594000000E+02  0.51100000000E-03 0. -1.
         11   -1    0    0    0    0 -0.00000000000E+00 -0.00000000000E+00 -0.45593999997E+02  0.45594000000E+02  0.51100000000E-03 0.  1.
         23    2    1    2    0    0  0.00000000000E+00  0.00000000000E+00 -0.88817841970E-15  0.91188000000E+02  0.91188000000E+02 0.  0.
    9900012    2    3    3    0    0 -0.25504367099E+02 -0.31469083990E+02 -0.35199106369E+01  0.50528858848E+02  0.29999996956E+02 0.  0.
         12    1    3    3    0    0  0.25504367099E+02  0.31469083990E+02  0.35199106369E+01  0.40659141152E+02  0.00000000000E+00 0. -1.
         11    1    4    4    0    0  0.10612494821E+01 -0.95301957831E+00  0.26515416792E+01  0.30108421277E+01  0.51100000000E-03 0. -1.
        -11    1    4    4    0    0 -0.21243548379E+02 -0.23641135458E+02  0.62143815897E+01  0.32385338848E+02  0.51100000000E-03 0.  1.
         12    1    4    4    0    0 -0.53220682012E+01 -0.68749289541E+01 -0.12385833906E+02  0.15132677873E+02  0.00000000000E+00 0. -1.
</event>
<event>
 8    1  0.4964753E-012  0.9118800E+02  0.7816164E-02  0.1184000E+00
        -11   -1    0    0    0    0  0.00000000000E+00  0.00000000000E+00  0.45593999997E+02  0.45594000000E+02  0.51100000000E-03 0. -1.
         11   -1    0    0    0    0 -0.00000000000E+00 -0.00000000000E+00 -0.45593999997E+02  0.45594000000E+02  0.51100000000E-03 0.  1.
         23    2    1    2    0    0  0.71054273576E-14  0.00000000000E+00 -0.17763568394E-14  0.91188000000E+02  0.91188000000E+02 0.  0.
    9900012    2    3    3    0    0 -0.37627838666E+02 -0.15574555859E+01  0.15325961968E+02  0.50528867929E+02  0.30000024556E+02 0.  0.
        -12    1    3    3    0    0  0.37627838666E+02  0.15574555859E+01 -0.15325961968E+02  0.40659132071E+02  0.00000000000E+00 0.  1.
         11    1    4    4    0    0 -0.48073746782E+01 -0.68011948925E+00  0.80218351509E+01  0.93767400127E+01  0.51100000000E-03 0. -1.
        -11    1    4    4    0    0  0.23760351777E+01  0.20220146247E+00 -0.35745389737E+01  0.42969474901E+01  0.51100000000E-03 0.  1.
         12    1    4    4    0    0 -0.35196499165E+02 -0.10795375591E+01  0.10878665791E+02  0.36855180426E+02  0.00000000000E+00 0. -1.
</event>
<event>
 8    1  0.4964753E-012  0.9118800E+02  0.7816164E-02  0.1184000E+00
        -11   -1    0    0    0    0  0.00000000000E+00  0.00000000000E+00  0.45593999997E+02  0.45594000000E+02  0.51100000000E-03 0. -1.
         11   -1    0    0    0    0 -0.00000000000E+00 -0.00000000000E+00 -0.45593999997E+02  0.45594000000E+02  0.51100000000E-03 0.  1.
         23    2    1    2    0    0 -0.88817841970E-15  0.00000000000E+00  0.00000000000E+00  0.91188000000E+02  0.91188000000E+02 0.  0.
    9900012    2    3    3    0    0  0.33763278659E+01 -0.39037830049E+02  0.10854208846E+02  0.50528860628E+02  0.30000002366E+02 0.  0.
        -12    1    3    3    0    0 -0.33763278659E+01  0.39037830049E+02 -0.10854208846E+02  0.40659139372E+02  0.00000000000E+00 0.  1.
         11    1    4    4    0    0  0.40927316292E+01 -0.18456100081E+01  0.36581122852E+01  0.57912446195E+01  0.51100000000E-03 0. -1.
        -11    1    4    4    0    0  0.39032662236E+01 -0.31351714285E+02  0.14086789461E+02  0.34591951569E+02  0.51100000000E-03 0.  1.
        -12    1    4    4    0    0 -0.46196699870E+01 -0.58405057560E+01 -0.68906929003E+01  0.10145664440E+02  0.00000000000E+00 0.  1.
</event>
<event>
 8    1  0.4964753E-012  0.9118800E+02  0.7816164E-02  0.1184000E+00
        -11   -1    0    0    0    0  0.00000000000E+00  0.00000000000E+00  0.45593999997E+02  0.45594000000E+02  0.51100000000E-03 0. -1.
         11   -1    0    0    0    0 -0.00000000000E+00 -0.00000000000E+00 -0.45593999997E+02  0.45594000000E+02  0.51100000000E-03 0.  1.
         23    2    1    2    0    0  0.00000000000E+00  0.53290705182E-14  0.00000000000E+00  0.91188000000E+02  0.91188000000E+02 0.  0.
    9900012    2    3    3    0    0  0.18220133268E+02  0.13160907567E+02 -0.33881874877E+02  0.50528878152E+02  0.30000055630E+02 0.  0.
         12    1    3    3    0    0 -0.18220133268E+02 -0.13160907567E+02  0.33881874877E+02  0.40659121848E+02  0.00000000000E+00 0. -1.
         11    1    4    4    0    0 -0.43773679730E+01  0.50540309501E+01 -0.80579366354E+01  0.10470669620E+02  0.51100000000E-03 0. -1.
        -11    1    4    4    0    0  0.10783893929E+02  0.13473829748E+02 -0.17848661943E+02  0.24827629564E+02  0.51100000000E-03 0.  1.
        -12    1    4    4    0    0  0.11813607312E+02 -0.53669531313E+01 -0.79752762985E+01  0.15230578967E+02  0.00000000000E+00 0.  1.
</event>
<event>
 8    1  0.4964753E-012  0.9118800E+02  0.7816164E-02  0.1184000E+00
        -11   -1    0    0    0    0  0.00000000000E+00  0.00000000000E+00  0.45593999997E+02  0.45594000000E+02  0.51100000000E-03 0. -1.
         11   -1    0    0    0    0 -0.00000000000E+00 -0.00000000000E+00 -0.45593999997E+02  0.45594000000E+02  0.51100000000E-03 0.  1.
         23    2    1    2    0    0  0.00000000000E+00 -0.35527136788E-14  0.00000000000E+00  0.91188000000E+02  0.91188000000E+02 0.  0.
    9900012    2    3    3    0    0  0.29164758112E+02 -0.19616333839E+02 -0.20439752697E+02  0.50528841630E+02  0.29999944620E+02 0.  0.
         12    1    3    3    0    0 -0.29164758112E+02  0.19616333839E+02  0.20439752697E+02  0.40659158370E+02  0.00000000000E+00 0. -1.
         11    1    4    4    0    0  0.63450270596E+01 -0.82511510044E+01 -0.20490424644E+01  0.10608460612E+02  0.51100000000E-03 0. -1.
        -11    1    4    4    0    0  0.27023419473E+02 -0.62008281474E+01 -0.10628047479E+02  0.29692942986E+02  0.51100000000E-03 0.  1.
        -12    1    4    4    0    0 -0.42036884201E+01 -0.51643546869E+01 -0.77626627533E+01  0.10227438031E+02  0.00000000000E+00 0.  1.
</event>
<event>
 8    1  0.4964753E-012  0.9118800E+02  0.7816164E-02  0.1184000E+00
        -11   -1    0    0    0    0  0.00000000000E+00  0.00000000000E+00  0.45593999997E+02  0.45594000000E+02  0.51100000000E-03 0. -1.
         11   -1    0    0    0    0 -0.00000000000E+00 -0.00000000000E+00 -0.45593999997E+02  0.45594000000E+02  0.51100000000E-03 0.  1.
         23    2    1    2    0    0  0.00000000000E+00  0.00000000000E+00  0.00000000000E+00  0.91188000000E+02  0.91188000000E+02 0.  0.
    9900012    2    3    3    0    0  0.33384035616E+02 -0.19105200730E+02  0.13178147328E+02  0.50528854707E+02  0.29999984367E+02 0.  0.
        -12    1    3    3    0    0 -0.33384035616E+02  0.19105200730E+02 -0.13178147328E+02  0.40659145293E+02  0.00000000000E+00 0.  1.
         11    1    4    4    0    0  0.17355162129E+02 -0.18538731351E+02  0.14890740156E+02  0.29438416318E+02  0.51100000000E-03 0. -1.
        -11    1    4    4    0    0  0.29550692757E+01 -0.57738443259E+01 -0.26044844039E+01  0.69894958327E+01  0.51100000000E-03 0.  1.
        -12    1    4    4    0    0  0.13073804212E+02  0.52073749471E+01  0.89189157602E+00  0.14100942557E+02  0.00000000000E+00 0.  1.
</event>
<event>
 8    1  0.4964753E-012  0.9118800E+02  0.7816164E-02  0.1184000E+00
        -11   -1    0    0    0    0  0.00000000000E+00  0.00000000000E+00  0.45593999997E+02  0.45594000000E+02  0.51100000000E-03 0. -1.
         11   -1    0    0    0    0 -0.00000000000E+00 -0.00000000000E+00 -0.45593999997E+02  0.45594000000E+02  0.51100000000E-03 0.  1.
         23    2    1    2    0    0  0.00000000000E+00  0.35527136788E-14 -0.17763568394E-14  0.91188000000E+02  0.91188000000E+02 0.  0.
    9900012    2    3    3    0    0 -0.32341610179E+02 -0.21581062075E+02  0.11893073293E+02  0.50528841357E+02  0.29999943787E+02 0.  0.
        -12    1    3    3    0    0  0.32341610179E+02  0.21581062075E+02 -0.11893073293E+02  0.40659158643E+02  0.00000000000E+00 0.  1.
         11    1    4    4    0    0 -0.13840698799E+02 -0.68064110098E+01  0.79053426978E+01  0.17331665169E+02  0.51100000000E-03 0. -1.
        -11    1    4    4    0    0  0.28128996162E+01  0.12347749237E+01 -0.42974960142E+01  0.52825699822E+01  0.51100000000E-03 0.  1.
         12    1    4    4    0    0 -0.21313810996E+02 -0.16009425988E+02  0.82852266095E+01  0.27914606206E+02  0.00000000000E+00 0. -1.
</event>
<event>
 8    1  0.4964753E-012  0.9118800E+02  0.7816164E-02  0.1184000E+00
        -11   -1    0    0    0    0  0.00000000000E+00  0.00000000000E+00  0.45593999997E+02  0.45594000000E+02  0.51100000000E-03 0.  1.
         11   -1    0    0    0    0 -0.00000000000E+00 -0.00000000000E+00 -0.45593999997E+02  0.45594000000E+02  0.51100000000E-03 0. -1.
         23    2    1    2    0    0 -0.88817841970E-15  0.00000000000E+00  0.17763568394E-14  0.91188000000E+02  0.91188000000E+02 0.  0.
    9900012    2    3    3    0    0  0.68098175052E+01  0.38936335858E+02  0.95265046204E+01  0.50528853983E+02  0.29999982167E+02 0.  0.
        -12    1    3    3    0    0 -0.68098175052E+01 -0.38936335858E+02 -0.95265046204E+01  0.40659146017E+02  0.00000000000E+00 0.  1.
         11    1    4    4    0    0 -0.33601271185E+01  0.73722942575E+01  0.49156046552E+01  0.94765155125E+01  0.51100000000E-03 0. -1.
        -11    1    4    4    0    0 -0.68178741089E+00  0.92469491449E+00 -0.65769276183E+01  0.66765164507E+01  0.51100000000E-03 0.  1.
        -12    1    4    4    0    0  0.10851732035E+02  0.30639346686E+02  0.11187827584E+02  0.34375822020E+02  0.00000000000E+00 0.  1.
</event>
<event>
 8    1  0.4964753E-012  0.9118800E+02  0.7816164E-02  0.1184000E+00
        -11   -1    0    0    0    0  0.00000000000E+00  0.00000000000E+00  0.45593999997E+02  0.45594000000E+02  0.51100000000E-03 0. -1.
         11   -1    0    0    0    0 -0.00000000000E+00 -0.00000000000E+00 -0.45593999997E+02  0.45594000000E+02  0.51100000000E-03 0.  1.
         23    2    1    2    0    0  0.00000000000E+00  0.00000000000E+00  0.00000000000E+00  0.91188000000E+02  0.91188000000E+02 0.  0.
    9900012    2    3    3    0    0 -0.21616254125E+02 -0.15334630177E+02  0.30834274694E+02  0.50528858089E+02  0.29999994647E+02 0.  0.
        -12    1    3    3    0    0  0.21616254125E+02  0.15334630177E+02 -0.30834274694E+02  0.40659141911E+02  0.00000000000E+00 0.  1.
         11    1    4    4    0    0 -0.11291081510E+02  0.67796753399E+01  0.12793274800E+02  0.18360838754E+02  0.51100000000E-03 0. -1.
        -11    1    4    4    0    0  0.10911046271E+01 -0.17782193391E+01  0.50693138928E+01  0.54818351790E+01  0.51100000000E-03 0.  1.
        -12    1    4    4    0    0 -0.11416277242E+02 -0.20336086178E+02  0.12971686001E+02  0.26686184156E+02  0.00000000000E+00 0.  1.
</event>
<event>
 8    1  0.5474158E-012  0.9118800E+02  0.7816164E-02  0.1184000E+00
        -11   -1    0    0    0    0  0.00000000000E+00  0.00000000000E+00  0.45593999997E+02  0.45594000000E+02  0.51100000000E-03 0. -1.
         11   -1    0    0    0    0 -0.00000000000E+00 -0.00000000000E+00 -0.45593999997E+02  0.45594000000E+02  0.51100000000E-03 0.  1.
         23    2    1    2    0    0  0.35527136788E-14 -0.71054273576E-14  0.00000000000E+00  0.91188000000E+02  0.91188000000E+02 0.  0.
    9900012    2    3    3    0    0 -0.54782698158E+01  0.29476928550E+02 -0.27463889205E+02  0.50528856290E+02  0.29999989180E+02 0.  0.
         12    1    3    3    0    0  0.54782698158E+01 -0.29476928550E+02  0.27463889205E+02  0.40659143710E+02  0.00000000000E+00 0. -1.
         11    1    4    4    0    0  0.41048828365E+01  0.15910081924E+02 -0.12033543779E+02  0.20366318913E+02  0.51100000000E-03 0.  1.
        -11    1    4    4    0    0 -0.15224921701E+02  0.11818405826E+02 -0.14640100397E+02  0.24203419117E+02  0.51100000000E-03 0. -1.
         12    1    4    4    0    0  0.56417690487E+01  0.17484408004E+01 -0.79024502939E+00  0.59591182601E+01  0.00000000000E+00 0. -1.
</event>
<event>
 8    1  0.4964753E-012  0.9118800E+02  0.7816164E-02  0.1184000E+00
        -11   -1    0    0    0    0  0.00000000000E+00  0.00000000000E+00  0.45593999997E+02  0.45594000000E+02  0.51100000000E-03 0. -1.
         11   -1    0    0    0    0 -0.00000000000E+00 -0.00000000000E+00 -0.45593999997E+02  0.45594000000E+02  0.51100000000E-03 0.  1.
         23    2    1    2    0    0 -0.71054273576E-14 -0.35527136788E-14  0.00000000000E+00  0.91188000000E+02  0.91188000000E+02 0.  0.
    9900012    2    3    3    0    0  0.33958993581E+02  0.17264248101E+02 -0.14209096533E+02  0.50528856726E+02  0.29999990503E+02 0.  0.
         12    1    3    3    0    0 -0.33958993581E+02 -0.17264248101E+02  0.14209096533E+02  0.40659143274E+02  0.00000000000E+00 0. -1.
         11    1    4    4    0    0 -0.20904641304E+01 -0.18902550085E+01  0.12261919690E+01  0.30735405128E+01  0.51100000000E-03 0. -1.
        -11    1    4    4    0    0  0.20312911424E+01  0.92113239184E+01 -0.31326886445E+01  0.99392338960E+01  0.51100000000E-03 0.  1.
        -12    1    4    4    0    0  0.34018166569E+02  0.99431791912E+01 -0.12302599858E+02  0.37516082317E+02  0.00000000000E+00 0.  1.
</event>
<event>
 8    1  0.4964753E-012  0.9118800E+02  0.7816164E-02  0.1184000E+00
        -11   -1    0    0    0    0  0.00000000000E+00  0.00000000000E+00  0.45593999997E+02  0.45594000000E+02  0.51100000000E-03 0. -1.
         11   -1    0    0    0    0 -0.00000000000E+00 -0.00000000000E+00 -0.45593999997E+02  0.45594000000E+02  0.51100000000E-03 0.  1.
         23    2    1    2    0    0  0.00000000000E+00  0.00000000000E+00  0.00000000000E+00  0.91188000000E+02  0.91188000000E+02 0.  0.
    9900012    2    3    3    0    0  0.29668881974E+02  0.25098846531E+02 -0.11957051759E+02  0.50528859066E+02  0.29999997616E+02 0.  0.
         12    1    3    3    0    0 -0.29668881974E+02 -0.25098846531E+02  0.11957051759E+02  0.40659140934E+02  0.00000000000E+00 0. -1.
         11    1    4    4    0    0 -0.60942661793E+00  0.28236290080E+01  0.67893700556E-01  0.28894448244E+01  0.51100000000E-03 0. -1.
        -11    1    4    4    0    0  0.22433022085E+01  0.15487841635E+02  0.16140635001E+01  0.15732477382E+02  0.51100000000E-03 0.  1.
         12    1    4    4    0    0  0.28035006384E+02  0.67873758874E+01 -0.13639008959E+02  0.31906936859E+02  0.00000000000E+00 0. -1.
</event>
<event>
 8    1  0.4964753E-012  0.9118800E+02  0.7816164E-02  0.1184000E+00
        -11   -1    0    0    0    0  0.00000000000E+00  0.00000000000E+00  0.45593999997E+02  0.45594000000E+02  0.51100000000E-03 0. -1.
         11   -1    0    0    0    0 -0.00000000000E+00 -0.00000000000E+00 -0.45593999997E+02  0.45594000000E+02  0.51100000000E-03 0.  1.
         23    2    1    2    0    0  0.00000000000E+00  0.88817841970E-15  0.00000000000E+00  0.91188000000E+02  0.91188000000E+02 0.  0.
    9900012    2    3    3    0    0  0.10497123293E+02  0.74872934209E+01  0.38560555828E+02  0.50528860487E+02  0.30000001935E+02 0.  0.
        -12    1    3    3    0    0 -0.10497123293E+02 -0.74872934209E+01 -0.38560555828E+02  0.40659139513E+02  0.00000000000E+00 0.  1.
         11    1    4    4    0    0  0.80334166521E+01 -0.47601240280E+00  0.33951817758E+01  0.87343935374E+01  0.51100000000E-03 0. -1.
        -11    1    4    4    0    0  0.28314126669E+01 -0.61676266028E+01  0.19729107432E+02  0.20863705230E+02  0.51100000000E-03 0.  1.
        -12    1    4    4    0    0 -0.36770602642E+00  0.14130932427E+02  0.15436266621E+02  0.20930761719E+02  0.00000000000E+00 0.  1.
</event>
<event>
 8    1  0.4964753E-012  0.9118800E+02  0.7816164E-02  0.1184000E+00
        -11   -1    0    0    0    0  0.00000000000E+00  0.00000000000E+00  0.45593999997E+02  0.45594000000E+02  0.51100000000E-03 0.  1.
         11   -1    0    0    0    0 -0.00000000000E+00 -0.00000000000E+00 -0.45593999997E+02  0.45594000000E+02  0.51100000000E-03 0. -1.
         23    2    1    2    0    0  0.00000000000E+00  0.00000000000E+00 -0.35527136788E-14  0.91188000000E+02  0.91188000000E+02 0.  0.
    9900012    2    3    3    0    0  0.19567966623E+02 -0.28074654144E+02  0.21956335461E+02  0.50528779767E+02  0.29999756579E+02 0.  0.
        -12    1    3    3    0    0 -0.19567966623E+02  0.28074654144E+02 -0.21956335461E+02  0.40659220233E+02  0.00000000000E+00 0.  1.
         11    1    4    4    0    0  0.22281241873E+01 -0.19034833758E+02  0.41079040468E+01  0.19600109936E+02  0.51100000000E-03 0. -1.
        -11    1    4    4    0    0  0.10432608161E+02 -0.13279359689E+02  0.14097618039E+02  0.21998262237E+02  0.51100000000E-03 0.  1.
        -12    1    4    4    0    0  0.69072342748E+01  0.42395393031E+01  0.37508133750E+01  0.89304075945E+01  0.00000000000E+00 0.  1.
</event>
<event>
 8    1  0.4964753E-012  0.9118800E+02  0.7816164E-02  0.1184000E+00
        -11   -1    0    0    0    0  0.00000000000E+00  0.00000000000E+00  0.45593999997E+02  0.45594000000E+02  0.51100000000E-03 0. -1.
         11   -1    0    0    0    0 -0.00000000000E+00 -0.00000000000E+00 -0.45593999997E+02  0.45594000000E+02  0.51100000000E-03 0.  1.
         23    2    1    2    0    0  0.35527136788E-14  0.00000000000E+00  0.35527136788E-14  0.91188000000E+02  0.91188000000E+02 0.  0.
    9900012    2    3    3    0    0  0.26700401302E+02 -0.10641701553E+02  0.28757755703E+02  0.50528858903E+02  0.29999997122E+02 0.  0.
        -12    1    3    3    0    0 -0.26700401302E+02  0.10641701553E+02 -0.28757755703E+02  0.40659141097E+02  0.00000000000E+00 0.  1.
         11    1    4    4    0    0  0.13093731753E+02 -0.99294654124E+01  0.13658966134E+02  0.21368375013E+02  0.51100000000E-03 0. -1.
        -11    1    4    4    0    0  0.10324610128E+02 -0.68274855999E+01 -0.18006337594E+00  0.12379198560E+02  0.51100000000E-03 0.  1.
        -12    1    4    4    0    0  0.32820594212E+01  0.61152494587E+01  0.15278852946E+02  0.16781285330E+02  0.00000000000E+00 0.  1.
</event>
<event>
 8    1  0.5297034E-012  0.9118800E+02  0.7816164E-02  0.1184000E+00
        -11   -1    0    0    0    0  0.00000000000E+00  0.00000000000E+00  0.45593999997E+02  0.45594000000E+02  0.51100000000E-03 0. -1.
         11   -1    0    0    0    0 -0.00000000000E+00 -0.00000000000E+00 -0.45593999997E+02  0.45594000000E+02  0.51100000000E-03 0.  1.
         23    2    1    2    0    0  0.00000000000E+00  0.00000000000E+00  0.35527136788E-14  0.91188000000E+02  0.91188000000E+02 0.  0.
    9900012    2    3    3    0    0 -0.32456196505E+02 -0.84429855772E+01 -0.22988623245E+02  0.50528862088E+02  0.30000006804E+02 0.  0.
         12    1    3    3    0    0  0.32456196505E+02  0.84429855772E+01  0.22988623245E+02  0.40659137912E+02  0.00000000000E+00 0. -1.
         11    1    4    4    0    0 -0.23189921313E+01 -0.61649939549E+01 -0.10913229778E+02  0.12746899992E+02  0.51100000000E-03 0. -1.
        -11    1    4    4    0    0 -0.20206071295E+02  0.37946359234E+01 -0.15386765526E+02  0.25679508028E+02  0.51100000000E-03 0.  1.
         12    1    4    4    0    0 -0.99311330790E+01 -0.60726275458E+01  0.33113720593E+01  0.12102454068E+02  0.00000000000E+00 0. -1.
</event>
<event>
 8    1  0.4964753E-012  0.9118800E+02  0.7816164E-02  0.1184000E+00
        -11   -1    0    0    0    0  0.00000000000E+00  0.00000000000E+00  0.45593999997E+02  0.45594000000E+02  0.51100000000E-03 0. -1.
         11   -1    0    0    0    0 -0.00000000000E+00 -0.00000000000E+00 -0.45593999997E+02  0.45594000000E+02  0.51100000000E-03 0.  1.
         23    2    1    2    0    0  0.17763568394E-14 -0.88817841970E-15  0.00000000000E+00  0.91188000000E+02  0.91188000000E+02 0.  0.
    9900012    2    3    3    0    0 -0.68292265788E+01  0.44101173201E+01 -0.39838138336E+02  0.50528871425E+02  0.30000035182E+02 0.  0.
         12    1    3    3    0    0  0.68292265788E+01 -0.44101173201E+01  0.39838138336E+02  0.40659128575E+02  0.00000000000E+00 0. -1.
         11    1    4    4    0    0 -0.34398032252E+01 -0.98630984289E+01 -0.27418413752E+02  0.29340797020E+02  0.51100000000E-03 0.  1.
        -11    1    4    4    0    0 -0.39812081052E+01  0.13633234688E+01 -0.36441915313E+01  0.55667585753E+01  0.51100000000E-03 0. -1.
         12    1    4    4    0    0  0.59178475162E+00  0.12909892280E+02 -0.87755330528E+01  0.15621315829E+02  0.00000000000E+00 0. -1.
</event>
<event>
 8    1  0.4964753E-012  0.9118800E+02  0.7816164E-02  0.1184000E+00
        -11   -1    0    0    0    0  0.00000000000E+00  0.00000000000E+00  0.45593999997E+02  0.45594000000E+02  0.51100000000E-03 0. -1.
         11   -1    0    0    0    0 -0.00000000000E+00 -0.00000000000E+00 -0.45593999997E+02  0.45594000000E+02  0.51100000000E-03 0.  1.
         23    2    1    2    0    0  0.35527136788E-14  0.00000000000E+00  0.35527136788E-14  0.91188000000E+02  0.91188000000E+02 0.  0.
    9900012    2    3    3    0    0 -0.26055090813E+02 -0.47682931198E+01 -0.30847391134E+02  0.50528856917E+02  0.29999991084E+02 0.  0.
         12    1    3    3    0    0  0.26055090813E+02  0.47682931198E+01  0.30847391134E+02  0.40659143083E+02  0.00000000000E+00 0. -1.
         11    1    4    4    0    0 -0.10950199365E+02  0.10873115673E+02 -0.84560309094E+01  0.17596476056E+02  0.51100000000E-03 0. -1.
        -11    1    4    4    0    0 -0.64735697063E+01 -0.84637358978E+00 -0.93512210340E+01  0.11404770409E+02  0.51100000000E-03 0.  1.
         12    1    4    4    0    0 -0.86313217415E+01 -0.14795035203E+02 -0.13040139190E+02  0.21527610452E+02  0.00000000000E+00 0. -1.
</event>
<event>
 8    1  0.4964753E-012  0.9118800E+02  0.7816164E-02  0.1184000E+00
        -11   -1    0    0    0    0  0.00000000000E+00  0.00000000000E+00  0.45593999997E+02  0.45594000000E+02  0.51100000000E-03 0. -1.
         11   -1    0    0    0    0 -0.00000000000E+00 -0.00000000000E+00 -0.45593999997E+02  0.45594000000E+02  0.51100000000E-03 0.  1.
         23    2    1    2    0    0  0.00000000000E+00  0.11102230246E-14  0.00000000000E+00  0.91188000000E+02  0.91188000000E+02 0.  0.
    9900012    2    3    3    0    0  0.84414768444E+01  0.12610057593E+01  0.39753201248E+02  0.50528859868E+02  0.30000000054E+02 0.  0.
        -12    1    3    3    0    0 -0.84414768444E+01 -0.12610057593E+01 -0.39753201248E+02  0.40659140132E+02  0.00000000000E+00 0.  1.
         11    1    4    4    0    0  0.11440782733E+02 -0.53419426735E+01  0.28813277930E+02  0.31458430450E+02  0.51100000000E-03 0. -1.
        -11    1    4    4    0    0  0.29351117752E+01 -0.48473059620E+00 -0.16881529111E+01  0.34204832109E+01  0.51100000000E-03 0.  1.
        -12    1    4    4    0    0 -0.59344176633E+01  0.70876790290E+01  0.12628076229E+02  0.15649946207E+02  0.00000000000E+00 0.  1.
</event>
<event>
 8    1  0.4964753E-012  0.9118800E+02  0.7816164E-02  0.1184000E+00
        -11   -1    0    0    0    0  0.00000000000E+00  0.00000000000E+00  0.45593999997E+02  0.45594000000E+02  0.51100000000E-03 0. -1.
         11   -1    0    0    0    0 -0.00000000000E+00 -0.00000000000E+00 -0.45593999997E+02  0.45594000000E+02  0.51100000000E-03 0.  1.
         23    2    1    2    0    0  0.00000000000E+00  0.00000000000E+00  0.00000000000E+00  0.91188000000E+02  0.91188000000E+02 0.  0.
    9900012    2    3    3    0    0 -0.40236163525E+01  0.22394364985E+02 -0.33696719540E+02  0.50528856140E+02  0.29999988724E+02 0.  0.
         12    1    3    3    0    0  0.40236163525E+01 -0.22394364985E+02  0.33696719540E+02  0.40659143860E+02  0.00000000000E+00 0. -1.
         11    1    4    4    0    0 -0.47808740917E+01 -0.12907483868E+01  0.19796242300E+01  0.53330761134E+01  0.51100000000E-03 0. -1.
        -11    1    4    4    0    0 -0.38599925043E+01  0.11554999823E+02 -0.78539565779E+01  0.14494902457E+02  0.51100000000E-03 0.  1.
        -12    1    4    4    0    0  0.46172502435E+01  0.12130113550E+02 -0.27822387192E+02  0.30700877570E+02  0.00000000000E+00 0.  1.
</event>
<event>
 8    1  0.4964753E-012  0.9118800E+02  0.7816164E-02  0.1184000E+00
        -11   -1    0    0    0    0  0.00000000000E+00  0.00000000000E+00  0.45593999997E+02  0.45594000000E+02  0.51100000000E-03 0. -1.
         11   -1    0    0    0    0 -0.00000000000E+00 -0.00000000000E+00 -0.45593999997E+02  0.45594000000E+02  0.51100000000E-03 0.  1.
         23    2    1    2    0    0 -0.71054273576E-14  0.00000000000E+00  0.35527136788E-14  0.91188000000E+02  0.91188000000E+02 0.  0.
    9900012    2    3    3    0    0  0.33156515351E+02  0.53406525314E+01  0.22919172300E+02  0.50528861561E+02  0.30000005201E+02 0.  0.
        -12    1    3    3    0    0 -0.33156515351E+02 -0.53406525314E+01 -0.22919172300E+02  0.40659138439E+02  0.00000000000E+00 0.  1.
         11    1    4    4    0    0 -0.25307261041E+00 -0.80143954728E+00  0.14490712179E+02  0.14515064272E+02  0.51100000000E-03 0. -1.
        -11    1    4    4    0    0  0.24268527227E+02  0.10028490107E+01  0.77892515068E+01  0.25507637272E+02  0.51100000000E-03 0.  1.
        -12    1    4    4    0    0  0.91410607338E+01  0.51392430680E+01  0.63920861427E+00  0.10506160017E+02  0.00000000000E+00 0.  1.
</event>
<event>
 8    1  0.4964753E-012  0.9118800E+02  0.7816164E-02  0.1184000E+00
        -11   -1    0    0    0    0  0.00000000000E+00  0.00000000000E+00  0.45593999997E+02  0.45594000000E+02  0.51100000000E-03 0.  1.
         11   -1    0    0    0    0 -0.00000000000E+00 -0.00000000000E+00 -0.45593999997E+02  0.45594000000E+02  0.51100000000E-03 0. -1.
         23    2    1    2    0    0  0.00000000000E+00  0.00000000000E+00  0.16653345369E-15  0.91188000000E+02  0.91188000000E+02 0.  0.
    9900012    2    3    3    0    0  0.53029844858E+01 -0.40310998203E+02  0.26012876138E+00  0.50528857270E+02  0.29999992157E+02 0.  0.
        -12    1    3    3    0    0 -0.53029844858E+01  0.40310998203E+02 -0.26012876138E+00  0.40659142730E+02  0.00000000000E+00 0.  1.
         11    1    4    4    0    0  0.20142846612E+01  0.93773261834E+00 -0.39087180830E+01  0.44960830145E+01  0.51100000000E-03 0. -1.
        -11    1    4    4    0    0 -0.50316555096E+01 -0.25696182578E+02 -0.41844550402E+01  0.26516429256E+02  0.51100000000E-03 0.  1.
         12    1    4    4    0    0  0.83203553342E+01 -0.15552548243E+02  0.83533018846E+01  0.19516344999E+02  0.00000000000E+00 0. -1.
</event>
<event>
 8    1  0.4964753E-012  0.9118800E+02  0.7816164E-02  0.1184000E+00
        -11   -1    0    0    0    0  0.00000000000E+00  0.00000000000E+00  0.45593999997E+02  0.45594000000E+02  0.51100000000E-03 0. -1.
         11   -1    0    0    0    0 -0.00000000000E+00 -0.00000000000E+00 -0.45593999997E+02  0.45594000000E+02  0.51100000000E-03 0.  1.
         23    2    1    2    0    0  0.00000000000E+00  0.17763568394E-14 -0.71054273576E-14  0.91188000000E+02  0.91188000000E+02 0.  0.
    9900012    2    3    3    0    0 -0.19272701442E+02 -0.62299691292E+01 -0.35255021446E+02  0.50528854985E+02  0.29999985211E+02 0.  0.
         12    1    3    3    0    0  0.19272701442E+02  0.62299691292E+01  0.35255021446E+02  0.40659145015E+02  0.00000000000E+00 0. -1.
         11    1    4    4    0    0  0.15063802074E+01  0.43400955895E+00  0.27503329950E+01  0.31657349022E+01  0.51100000000E-03 0. -1.
        -11    1    4    4    0    0 -0.22165171688E+01  0.48273237357E+01 -0.13693441749E+02  0.14687625744E+02  0.51100000000E-03 0.  1.
        -12    1    4    4    0    0 -0.18562564481E+02 -0.11491302424E+02 -0.24311912692E+02  0.32675494339E+02  0.00000000000E+00 0.  1.
</event>
<event>
 8    1  0.4964753E-012  0.9118800E+02  0.7816164E-02  0.1184000E+00
        -11   -1    0    0    0    0  0.00000000000E+00  0.00000000000E+00  0.45593999997E+02  0.45594000000E+02  0.51100000000E-03 0. -1.
         11   -1    0    0    0    0 -0.00000000000E+00 -0.00000000000E+00 -0.45593999997E+02  0.45594000000E+02  0.51100000000E-03 0.  1.
         23    2    1    2    0    0  0.00000000000E+00  0.00000000000E+00  0.35527136788E-14  0.91188000000E+02  0.91188000000E+02 0.  0.
    9900012    2    3    3    0    0 -0.24026786597E+02  0.76784957855E+01 -0.31889174317E+02  0.50528865598E+02  0.30000017471E+02 0.  0.
         12    1    3    3    0    0  0.24026786597E+02 -0.76784957855E+01  0.31889174317E+02  0.40659134402E+02  0.00000000000E+00 0. -1.
         11    1    4    4    0    0 -0.31499432435E+01 -0.15559786563E+00 -0.54566656644E+01  0.63025037539E+01  0.51100000000E-03 0.  1.
        -11    1    4    4    0    0  0.67760624309E+01  0.14024631802E+01 -0.36423248735E+01  0.78197478082E+01  0.51100000000E-03 0. -1.
         12    1    4    4    0    0 -0.27652905785E+02  0.64316304709E+01 -0.22790183779E+02  0.36406614036E+02  0.00000000000E+00 0. -1.
</event>
<event>
 8    1  0.4964753E-012  0.9118800E+02  0.7816164E-02  0.1184000E+00
        -11   -1    0    0    0    0  0.00000000000E+00  0.00000000000E+00  0.45593999997E+02  0.45594000000E+02  0.51100000000E-03 0. -1.
         11   -1    0    0    0    0 -0.00000000000E+00 -0.00000000000E+00 -0.45593999997E+02  0.45594000000E+02  0.51100000000E-03 0.  1.
         23    2    1    2    0    0  0.00000000000E+00  0.00000000000E+00  0.00000000000E+00  0.91188000000E+02  0.91188000000E+02 0.  0.
    9900012    2    3    3    0    0  0.10844219614E+02 -0.22544788934E+02 -0.32051388887E+02  0.50528977180E+02  0.30000356634E+02 0.  0.
         12    1    3    3    0    0 -0.10844219614E+02  0.22544788934E+02  0.32051388887E+02  0.40659022820E+02  0.00000000000E+00 0. -1.
         11    1    4    4    0    0  0.67579493007E+01 -0.97507475593E+01 -0.26953927526E+02  0.29449298227E+02  0.51100000000E-03 0. -1.
        -11    1    4    4    0    0 -0.46404337948E+01  0.29441566395E+00 -0.19224278084E+01  0.50315042807E+01  0.51100000000E-03 0.  1.
         12    1    4    4    0    0  0.87267041083E+01 -0.13088457039E+02 -0.31750335522E+01  0.16048174672E+02  0.00000000000E+00 0. -1.
</event>
<event>
 8    1  0.4964753E-012  0.9118800E+02  0.7816164E-02  0.1184000E+00
        -11   -1    0    0    0    0  0.00000000000E+00  0.00000000000E+00  0.45593999997E+02  0.45594000000E+02  0.51100000000E-03 0. -1.
         11   -1    0    0    0    0 -0.00000000000E+00 -0.00000000000E+00 -0.45593999997E+02  0.45594000000E+02  0.51100000000E-03 0.  1.
         23    2    1    2    0    0 -0.17763568394E-14  0.00000000000E+00  0.00000000000E+00  0.91188000000E+02  0.91188000000E+02 0.  0.
    9900012    2    3    3    0    0 -0.10607557435E+02  0.23391446511E+02  0.31519605968E+02  0.50528860744E+02  0.30000002719E+02 0.  0.
        -12    1    3    3    0    0  0.10607557435E+02 -0.23391446511E+02 -0.31519605968E+02  0.40659139256E+02  0.00000000000E+00 0.  1.
         11    1    4    4    0    0 -0.13266957613E+02  0.18171069730E+02  0.30592578850E+02  0.37975068405E+02  0.51100000000E-03 0. -1.
        -11    1    4    4    0    0 -0.22887052983E+01  0.42211088862E+01 -0.34175091949E+01  0.58936662214E+01  0.51100000000E-03 0.  1.
        -12    1    4    4    0    0  0.49481054761E+01  0.99926789521E+00  0.43445363129E+01  0.66601261177E+01  0.00000000000E+00 0.  1.
</event>
<event>
 8    1  0.4964753E-012  0.9118800E+02  0.7816164E-02  0.1184000E+00
        -11   -1    0    0    0    0  0.00000000000E+00  0.00000000000E+00  0.45593999997E+02  0.45594000000E+02  0.51100000000E-03 0.  1.
         11   -1    0    0    0    0 -0.00000000000E+00 -0.00000000000E+00 -0.45593999997E+02  0.45594000000E+02  0.51100000000E-03 0. -1.
         23    2    1    2    0    0 -0.35527136788E-14  0.17763568394E-14  0.00000000000E+00  0.91188000000E+02  0.91188000000E+02 0.  0.
    9900012    2    3    3    0    0  0.31658243786E+02 -0.10580022249E+02  0.23216036229E+02  0.50528860700E+02  0.30000002584E+02 0.  0.
        -12    1    3    3    0    0 -0.31658243786E+02  0.10580022249E+02 -0.23216036229E+02  0.40659139300E+02  0.00000000000E+00 0.  1.
         11    1    4    4    0    0 -0.13629937709E+01 -0.20291737359E+01  0.58241130409E+01  0.63162956742E+01  0.51100000000E-03 0. -1.
        -11    1    4    4    0    0  0.21622867080E+02 -0.11110283505E+02  0.20852788809E+02  0.32028512011E+02  0.51100000000E-03 0.  1.
         12    1    4    4    0    0  0.11398370478E+02  0.25594349920E+01 -0.34608656206E+01  0.12184053015E+02  0.00000000000E+00 0. -1.
</event>
<event>
 8    1  0.4964753E-012  0.9118800E+02  0.7816164E-02  0.1184000E+00
        -11   -1    0    0    0    0  0.00000000000E+00  0.00000000000E+00  0.45593999997E+02  0.45594000000E+02  0.51100000000E-03 0. -1.
         11   -1    0    0    0    0 -0.00000000000E+00 -0.00000000000E+00 -0.45593999997E+02  0.45594000000E+02  0.51100000000E-03 0.  1.
         23    2    1    2    0    0 -0.17763568394E-14  0.00000000000E+00  0.00000000000E+00  0.91188000000E+02  0.91188000000E+02 0.  0.
    9900012    2    3    3    0    0  0.15879352506E+02  0.87810029630E+01  0.36385519822E+02  0.50528857095E+02  0.29999991625E+02 0.  0.
        -12    1    3    3    0    0 -0.15879352506E+02 -0.87810029630E+01 -0.36385519822E+02  0.40659142905E+02  0.00000000000E+00 0.  1.
         11    1    4    4    0    0  0.16577738834E+01 -0.59881032356E+01  0.24544772200E+02  0.25318993606E+02  0.51100000000E-03 0. -1.
        -11    1    4    4    0    0  0.54422757386E+01  0.18768743770E+01  0.22323356285E+00  0.57611505905E+01  0.51100000000E-03 0.  1.
        -12    1    4    4    0    0  0.87793028844E+01  0.12892231822E+02  0.11617514059E+02  0.19448712898E+02  0.00000000000E+00 0.  1.
</event>
<event>
 8    1  0.4964753E-012  0.9118800E+02  0.7816164E-02  0.1184000E+00
        -11   -1    0    0    0    0  0.00000000000E+00  0.00000000000E+00  0.45593999997E+02  0.45594000000E+02  0.51100000000E-03 0.  1.
         11   -1    0    0    0    0 -0.00000000000E+00 -0.00000000000E+00 -0.45593999997E+02  0.45594000000E+02  0.51100000000E-03 0. -1.
         23    2    1    2    0    0  0.00000000000E+00 -0.88817841970E-15  0.00000000000E+00  0.91188000000E+02  0.91188000000E+02 0.  0.
    9900012    2    3    3    0    0  0.29386369053E+02 -0.17665522464E+01 -0.28044363220E+02  0.50528859560E+02  0.29999999118E+02 0.  0.
         12    1    3    3    0    0 -0.29386369053E+02  0.17665522464E+01  0.28044363220E+02  0.40659140440E+02  0.00000000000E+00 0. -1.
         11    1    4    4    0    0  0.53122255582E+01 -0.58808695561E+01 -0.63008404168E+01  0.10124473188E+02  0.51100000000E-03 0. -1.
        -11    1    4    4    0    0  0.24420216699E+02  0.51887442247E+00 -0.72666886497E+01  0.25483739491E+02  0.51100000000E-03 0.  1.
        -12    1    4    4    0    0 -0.34607320421E+00  0.35954428873E+01 -0.14476834153E+02  0.14920646880E+02  0.00000000000E+00 0.  1.
</event>
<event>
 8    1  0.4964753E-012  0.9118800E+02  0.7816164E-02  0.1184000E+00
        -11   -1    0    0    0    0  0.00000000000E+00  0.00000000000E+00  0.45593999997E+02  0.45594000000E+02  0.51100000000E-03 0. -1.
         11   -1    0    0    0    0 -0.00000000000E+00 -0.00000000000E+00 -0.45593999997E+02  0.45594000000E+02  0.51100000000E-03 0.  1.
         23    2    1    2    0    0  0.00000000000E+00 -0.35527136788E-14 -0.35527136788E-14  0.91188000000E+02  0.91188000000E+02 0.  0.
    9900012    2    3    3    0    0  0.17390292422E+02 -0.19579768131E+02  0.31102673154E+02  0.50528857511E+02  0.29999992891E+02 0.  0.
        -12    1    3    3    0    0 -0.17390292422E+02  0.19579768131E+02 -0.31102673154E+02  0.40659142489E+02  0.00000000000E+00 0.  1.
         11    1    4    4    0    0 -0.15489559626E+01 -0.17658579476E+01  0.17652846771E+01  0.29383242023E+01  0.51100000000E-03 0. -1.
        -11    1    4    4    0    0  0.14986988169E+02  0.37809713920E+01  0.13479363649E+02  0.20508505642E+02  0.51100000000E-03 0.  1.
        -12    1    4    4    0    0  0.39522602158E+01 -0.21594881575E+02  0.15858024828E+02  0.27082027666E+02  0.00000000000E+00 0.  1.
</event>
<event>
 8    1  0.4964753E-012  0.9118800E+02  0.7816164E-02  0.1184000E+00
        -11   -1    0    0    0    0  0.00000000000E+00  0.00000000000E+00  0.45593999997E+02  0.45594000000E+02  0.51100000000E-03 0. -1.
         11   -1    0    0    0    0 -0.00000000000E+00 -0.00000000000E+00 -0.45593999997E+02  0.45594000000E+02  0.51100000000E-03 0.  1.
         23    2    1    2    0    0  0.66613381478E-15  0.00000000000E+00  0.00000000000E+00  0.91188000000E+02  0.91188000000E+02 0.  0.
    9900012    2    3    3    0    0 -0.16846271690E+01  0.18280705181E+02 -0.36278684974E+02  0.50528866536E+02  0.30000020323E+02 0.  0.
         12    1    3    3    0    0  0.16846271690E+01 -0.18280705181E+02  0.36278684974E+02  0.40659133464E+02  0.00000000000E+00 0. -1.
         11    1    4    4    0    0 -0.10940081005E+01  0.29251803926E+00 -0.22943060269E+02  0.22970991169E+02  0.51100000000E-03 0. -1.
        -11    1    4    4    0    0 -0.27602260776E+01  0.10868746680E+01 -0.96877808983E+01  0.10131793698E+02  0.51100000000E-03 0.  1.
         12    1    4    4    0    0  0.21696070091E+01  0.16901312473E+02 -0.36478438068E+01  0.17426081669E+02  0.00000000000E+00 0. -1.
</event>
<event>
 8    1  0.4964753E-012  0.9118800E+02  0.7816164E-02  0.1184000E+00
        -11   -1    0    0    0    0  0.00000000000E+00  0.00000000000E+00  0.45593999997E+02  0.45594000000E+02  0.51100000000E-03 0. -1.
         11   -1    0    0    0    0 -0.00000000000E+00 -0.00000000000E+00 -0.45593999997E+02  0.45594000000E+02  0.51100000000E-03 0.  1.
         23    2    1    2    0    0 -0.71054273576E-14 -0.55511151231E-15  0.00000000000E+00  0.91188000000E+02  0.91188000000E+02 0.  0.
    9900012    2    3    3    0    0 -0.34724933731E+02 -0.48893879124E+00 -0.21144873209E+02  0.50528859001E+02  0.29999997420E+02 0.  0.
         12    1    3    3    0    0  0.34724933731E+02  0.48893879124E+00  0.21144873209E+02  0.40659140999E+02  0.00000000000E+00 0. -1.
         11    1    4    4    0    0 -0.20821834948E+02  0.55913653259E+01 -0.12013120467E+01  0.21592946248E+02  0.51100000000E-03 0. -1.
        -11    1    4    4    0    0 -0.42880231736E+01  0.47949700262E+01 -0.66572079310E+01  0.92572835101E+01  0.51100000000E-03 0.  1.
        -12    1    4    4    0    0 -0.96150756094E+01 -0.10875274143E+02 -0.13286353232E+02  0.19678629242E+02  0.00000000000E+00 0.  1.
</event>
<event>
 8    1  0.4964753E-012  0.9118800E+02  0.7816164E-02  0.1184000E+00
        -11   -1    0    0    0    0  0.00000000000E+00  0.00000000000E+00  0.45593999997E+02  0.45594000000E+02  0.51100000000E-03 0. -1.
         11   -1    0    0    0    0 -0.00000000000E+00 -0.00000000000E+00 -0.45593999997E+02  0.45594000000E+02  0.51100000000E-03 0.  1.
         23    2    1    2    0    0  0.17763568394E-14 -0.88817841970E-15  0.00000000000E+00  0.91188000000E+02  0.91188000000E+02 0.  0.
    9900012    2    3    3    0    0  0.96173609389E+01  0.64825953050E+01  0.38969871683E+02  0.50528824254E+02  0.29999891804E+02 0.  0.
        -12    1    3    3    0    0 -0.96173609389E+01 -0.64825953050E+01 -0.38969871683E+02  0.40659175746E+02  0.00000000000E+00 0.  1.
         11    1    4    4    0    0  0.74869156655E+01  0.33440476794E+01  0.43750532281E+01  0.92939578262E+01  0.51100000000E-03 0. -1.
        -11    1    4    4    0    0  0.87160793058E+01 -0.40814662665E+01  0.68330766714E+01  0.11803361488E+02  0.51100000000E-03 0.  1.
         12    1    4    4    0    0 -0.65856340324E+01  0.72200138921E+01  0.27761741784E+02  0.29431504941E+02  0.00000000000E+00 0. -1.
</event>
<event>
 8    1  0.4964753E-012  0.9118800E+02  0.7816164E-02  0.1184000E+00
        -11   -1    0    0    0    0  0.00000000000E+00  0.00000000000E+00  0.45593999997E+02  0.45594000000E+02  0.51100000000E-03 0. -1.
         11   -1    0    0    0    0 -0.00000000000E+00 -0.00000000000E+00 -0.45593999997E+02  0.45594000000E+02  0.51100000000E-03 0.  1.
         23    2    1    2    0    0  0.00000000000E+00  0.00000000000E+00  0.35527136788E-14  0.91188000000E+02  0.91188000000E+02 0.  0.
    9900012    2    3    3    0    0  0.31428747212E+02 -0.14828557049E+02  0.21107191813E+02  0.50528858326E+02  0.29999995368E+02 0.  0.
        -12    1    3    3    0    0 -0.31428747212E+02  0.14828557049E+02 -0.21107191813E+02  0.40659141674E+02  0.00000000000E+00 0.  1.
         11    1    4    4    0    0  0.23034298472E+02 -0.19568424395E+02  0.19024258002E+02  0.35713086288E+02  0.51100000000E-03 0. -1.
        -11    1    4    4    0    0  0.11357223205E+01 -0.17216673639E+01  0.43699538363E+01  0.48322355586E+01  0.51100000000E-03 0.  1.
         12    1    4    4    0    0  0.72587264191E+01  0.64615347106E+01 -0.22870200254E+01  0.99835364796E+01  0.00000000000E+00 0. -1.
</event>
<event>
 8    1  0.4964753E-012  0.9118800E+02  0.7816164E-02  0.1184000E+00
        -11   -1    0    0    0    0  0.00000000000E+00  0.00000000000E+00  0.45593999997E+02  0.45594000000E+02  0.51100000000E-03 0. -1.
         11   -1    0    0    0    0 -0.00000000000E+00 -0.00000000000E+00 -0.45593999997E+02  0.45594000000E+02  0.51100000000E-03 0.  1.
         23    2    1    2    0    0  0.00000000000E+00  0.00000000000E+00 -0.35527136788E-14  0.91188000000E+02  0.91188000000E+02 0.  0.
    9900012    2    3    3    0    0  0.82015500390E+01  0.26006100193E+02  0.30159298895E+02  0.50528856131E+02  0.29999988697E+02 0.  0.
        -12    1    3    3    0    0 -0.82015500390E+01 -0.26006100193E+02 -0.30159298895E+02  0.40659143869E+02  0.00000000000E+00 0.  1.
         11    1    4    4    0    0  0.75090680015E+01  0.70644248107E+01 -0.67307897774E+00  0.10331758598E+02  0.51100000000E-03 0. -1.
        -11    1    4    4    0    0 -0.50399496869E+01  0.15586470402E+02  0.12225448255E+02  0.20440174602E+02  0.51100000000E-03 0.  1.
         12    1    4    4    0    0  0.57324317244E+01  0.33552049805E+01  0.18606929618E+02  0.19756922932E+02  0.00000000000E+00 0. -1.
</event>
<event>
 8    1  0.4964753E-012  0.9118800E+02  0.7816164E-02  0.1184000E+00
        -11   -1    0    0    0    0  0.00000000000E+00  0.00000000000E+00  0.45593999997E+02  0.45594000000E+02  0.51100000000E-03 0. -1.
         11   -1    0    0    0    0 -0.00000000000E+00 -0.00000000000E+00 -0.45593999997E+02  0.45594000000E+02  0.51100000000E-03 0.  1.
         23    2    1    2    0    0  0.00000000000E+00  0.22204460493E-14  0.00000000000E+00  0.91188000000E+02  0.91188000000E+02 0.  0.
    9900012    2    3    3    0    0 -0.13975751497E+02  0.39089462982E+01 -0.37981088023E+02  0.50528873860E+02  0.30000042585E+02 0.  0.
         12    1    3    3    0    0  0.13975751497E+02 -0.39089462982E+01  0.37981088023E+02  0.40659126140E+02  0.00000000000E+00 0. -1.
         11    1    4    4    0    0 -0.13185675400E+02  0.93284824470E+01 -0.14670094588E+02  0.21819585148E+02  0.51100000000E-03 0. -1.
        -11    1    4    4    0    0 -0.44224195360E+01 -0.14529759355E+01  0.13236891415E+00  0.46568718484E+01  0.51100000000E-03 0.  1.
        -12    1    4    4    0    0  0.36323434391E+01 -0.39665602133E+01 -0.23443362349E+02  0.24052416864E+02  0.00000000000E+00 0.  1.
</event>
<event>
 8    1  0.4964753E-012  0.9118800E+02  0.7816164E-02  0.1184000E+00
        -11   -1    0    0    0    0  0.00000000000E+00  0.00000000000E+00  0.45593999997E+02  0.45594000000E+02  0.51100000000E-03 0. -1.
         11   -1    0    0    0    0 -0.00000000000E+00 -0.00000000000E+00 -0.45593999997E+02  0.45594000000E+02  0.51100000000E-03 0.  1.
         23    2    1    2    0    0  0.17763568394E-14  0.00000000000E+00  0.00000000000E+00  0.91188000000E+02  0.91188000000E+02 0.  0.
    9900012    2    3    3    0    0  0.14407397214E+02  0.28122463235E+02 -0.25587489301E+02  0.50528860295E+02  0.30000001351E+02 0.  0.
         12    1    3    3    0    0 -0.14407397214E+02 -0.28122463235E+02  0.25587489301E+02  0.40659139705E+02  0.00000000000E+00 0. -1.
         11    1    4    4    0    0  0.78362950438E+01 -0.75061746561E+00  0.12486296794E+01  0.79705723089E+01  0.51100000000E-03 0. -1.
        -11    1    4    4    0    0 -0.25387409460E+00  0.72063938830E+01  0.24028773567E+00  0.72148668255E+01  0.51100000000E-03 0.  1.
        -12    1    4    4    0    0  0.68249762647E+01  0.21666686817E+02 -0.27076406716E+02  0.35343421160E+02  0.00000000000E+00 0.  1.
</event>
<event>
 8    1  0.4964753E-012  0.9118800E+02  0.7816164E-02  0.1184000E+00
        -11   -1    0    0    0    0  0.00000000000E+00  0.00000000000E+00  0.45593999997E+02  0.45594000000E+02  0.51100000000E-03 0. -1.
         11   -1    0    0    0    0 -0.00000000000E+00 -0.00000000000E+00 -0.45593999997E+02  0.45594000000E+02  0.51100000000E-03 0.  1.
         23    2    1    2    0    0 -0.71054273576E-14  0.00000000000E+00 -0.35527136788E-14  0.91188000000E+02  0.91188000000E+02 0.  0.
    9900012    2    3    3    0    0 -0.33640697202E+02 -0.16893541866E+02 -0.15364797995E+02  0.50528864711E+02  0.30000014777E+02 0.  0.
         12    1    3    3    0    0  0.33640697202E+02  0.16893541866E+02  0.15364797995E+02  0.40659135289E+02  0.00000000000E+00 0. -1.
         11    1    4    4    0    0 -0.25878130764E+02 -0.14925970723E+02 -0.16503149218E+02  0.34129403573E+02  0.51100000000E-03 0.  1.
        -11    1    4    4    0    0 -0.14786745286E+01 -0.72463641195E+01  0.30051577202E+01  0.79829345793E+01  0.51100000000E-03 0. -1.
        -12    1    4    4    0    0 -0.62838919092E+01  0.52787929772E+01 -0.18668064968E+01  0.84165265590E+01  0.00000000000E+00 0.  1.
</event>
<event>
 8    1  0.4964753E-012  0.9118800E+02  0.7816164E-02  0.1184000E+00
        -11   -1    0    0    0    0  0.00000000000E+00  0.00000000000E+00  0.45593999997E+02  0.45594000000E+02  0.51100000000E-03 0. -1.
         11   -1    0    0    0    0 -0.00000000000E+00 -0.00000000000E+00 -0.45593999997E+02  0.45594000000E+02  0.51100000000E-03 0.  1.
         23    2    1    2    0    0  0.00000000000E+00  0.17763568394E-14  0.00000000000E+00  0.91188000000E+02  0.91188000000E+02 0.  0.
    9900012    2    3    3    0    0  0.33781595152E+02 -0.13371588174E+02  0.18252959789E+02  0.50528854874E+02  0.29999984875E+02 0.  0.
        -12    1    3    3    0    0 -0.33781595152E+02  0.13371588174E+02 -0.18252959789E+02  0.40659145126E+02  0.00000000000E+00 0.  1.
         11    1    4    4    0    0  0.26234727794E+01 -0.55503566671E+01  0.17971477750E+01  0.63967811392E+01  0.51100000000E-03 0. -1.
        -11    1    4    4    0    0  0.98586633358E+01 -0.15712604580E+01 -0.67252310245E+01  0.12037060887E+02  0.51100000000E-03 0.  1.
         12    1    4    4    0    0  0.21299459037E+02 -0.62499710491E+01  0.23181043038E+02  0.32095012848E+02  0.00000000000E+00 0. -1.
</event>
<event>
 8    1  0.4964753E-012  0.9118800E+02  0.7816164E-02  0.1184000E+00
        -11   -1    0    0    0    0  0.00000000000E+00  0.00000000000E+00  0.45593999997E+02  0.45594000000E+02  0.51100000000E-03 0. -1.
         11   -1    0    0    0    0 -0.00000000000E+00 -0.00000000000E+00 -0.45593999997E+02  0.45594000000E+02  0.51100000000E-03 0.  1.
         23    2    1    2    0    0  0.00000000000E+00 -0.71054273576E-14  0.00000000000E+00  0.91188000000E+02  0.91188000000E+02 0.  0.
    9900012    2    3    3    0    0  0.13560674149E+01  0.35847299988E+02  0.19138917216E+02  0.50528856041E+02  0.29999988422E+02 0.  0.
        -12    1    3    3    0    0 -0.13560674149E+01 -0.35847299988E+02 -0.19138917216E+02  0.40659143959E+02  0.00000000000E+00 0.  1.
         11    1    4    4    0    0 -0.68196580636E+01  0.12348702486E+02  0.42782498859E+01  0.14741153670E+02  0.51100000000E-03 0. -1.
        -11    1    4    4    0    0 -0.33351738060E+01 -0.43335404839E+00  0.75164015438E+01  0.82345292808E+01  0.51100000000E-03 0.  1.
         12    1    4    4    0    0  0.11510899284E+02  0.23931951551E+02  0.73442657861E+01  0.27553173090E+02  0.00000000000E+00 0. -1.
</event>
<event>
 8    1  0.4964753E-012  0.9118800E+02  0.7816164E-02  0.1184000E+00
        -11   -1    0    0    0    0  0.00000000000E+00  0.00000000000E+00  0.45593999997E+02  0.45594000000E+02  0.51100000000E-03 0. -1.
         11   -1    0    0    0    0 -0.00000000000E+00 -0.00000000000E+00 -0.45593999997E+02  0.45594000000E+02  0.51100000000E-03 0.  1.
         23    2    1    2    0    0  0.00000000000E+00  0.00000000000E+00  0.00000000000E+00  0.91188000000E+02  0.91188000000E+02 0.  0.
    9900012    2    3    3    0    0  0.20072737495E+02 -0.14591552975E+02  0.32207727460E+02  0.50528856909E+02  0.29999991061E+02 0.  0.
        -12    1    3    3    0    0 -0.20072737495E+02  0.14591552975E+02 -0.32207727460E+02  0.40659143091E+02  0.00000000000E+00 0.  1.
         11    1    4    4    0    0  0.13866083602E+01 -0.10960398207E+02  0.13865266049E+02  0.17728469040E+02  0.51100000000E-03 0. -1.
        -11    1    4    4    0    0 -0.31208689034E+01  0.16862603964E+01 -0.38470896880E+00  0.35680944619E+01  0.51100000000E-03 0.  1.
        -12    1    4    4    0    0  0.21806998038E+02 -0.53174151647E+01  0.18727170379E+02  0.29232293408E+02  0.00000000000E+00 0.  1.
</event>
<event>
 8    1  0.4964753E-012  0.9118800E+02  0.7816164E-02  0.1184000E+00
        -11   -1    0    0    0    0  0.00000000000E+00  0.00000000000E+00  0.45593999997E+02  0.45594000000E+02  0.51100000000E-03 0. -1.
         11   -1    0    0    0    0 -0.00000000000E+00 -0.00000000000E+00 -0.45593999997E+02  0.45594000000E+02  0.51100000000E-03 0.  1.
         23    2    1    2    0    0 -0.35527136788E-14  0.00000000000E+00  0.35527136788E-14  0.91188000000E+02  0.91188000000E+02 0.  0.
    9900012    2    3    3    0    0  0.25934025548E+02  0.22938346707E+02 -0.21317166109E+02  0.50528892758E+02  0.30000100028E+02 0.  0.
         12    1    3    3    0    0 -0.25934025548E+02 -0.22938346707E+02  0.21317166109E+02  0.40659107242E+02  0.00000000000E+00 0. -1.
         11    1    4    4    0    0  0.19866892347E+01  0.11705122841E+02 -0.62847976624E+01  0.13433373246E+02  0.51100000000E-03 0. -1.
        -11    1    4    4    0    0  0.26370501273E+01  0.16534957008E+01 -0.13308370747E+02  0.13667509415E+02  0.51100000000E-03 0.  1.
        -12    1    4    4    0    0  0.21310286186E+02  0.95797281648E+01 -0.17239976996E+01  0.23428010097E+02  0.00000000000E+00 0.  1.
</event>
<event>
 8    1  0.4964753E-012  0.9118800E+02  0.7816164E-02  0.1184000E+00
        -11   -1    0    0    0    0  0.00000000000E+00  0.00000000000E+00  0.45593999997E+02  0.45594000000E+02  0.51100000000E-03 0. -1.
         11   -1    0    0    0    0 -0.00000000000E+00 -0.00000000000E+00 -0.45593999997E+02  0.45594000000E+02  0.51100000000E-03 0.  1.
         23    2    1    2    0    0  0.00000000000E+00  0.00000000000E+00  0.00000000000E+00  0.91188000000E+02  0.91188000000E+02 0.  0.
    9900012    2    3    3    0    0  0.10853919634E+02 -0.16710557097E+02 -0.35441868114E+02  0.50528729159E+02  0.29999602749E+02 0.  0.
         12    1    3    3    0    0 -0.10853919634E+02  0.16710557097E+02  0.35441868114E+02  0.40659270841E+02  0.00000000000E+00 0. -1.
         11    1    4    4    0    0 -0.35677359130E+01  0.11662156024E+01 -0.47778289110E+01  0.60758906952E+01  0.51100000000E-03 0. -1.
        -11    1    4    4    0    0  0.33736409776E+01 -0.49462688701E+01 -0.26191405956E+02  0.26867020218E+02  0.51100000000E-03 0.  1.
         12    1    4    4    0    0  0.11048014570E+02 -0.12930503830E+02 -0.44726332465E+01  0.17585818246E+02  0.00000000000E+00 0. -1.
</event>
<event>
 8    1  0.4964753E-012  0.9118800E+02  0.7816164E-02  0.1184000E+00
        -11   -1    0    0    0    0  0.00000000000E+00  0.00000000000E+00  0.45593999997E+02  0.45594000000E+02  0.51100000000E-03 0. -1.
         11   -1    0    0    0    0 -0.00000000000E+00 -0.00000000000E+00 -0.45593999997E+02  0.45594000000E+02  0.51100000000E-03 0.  1.
         23    2    1    2    0    0  0.35527136788E-14  0.17763568394E-14  0.00000000000E+00  0.91188000000E+02  0.91188000000E+02 0.  0.
    9900012    2    3    3    0    0  0.30615047842E+02 -0.97025474261E+01 -0.24934816491E+02  0.50528860137E+02  0.30000000874E+02 0.  0.
         12    1    3    3    0    0 -0.30615047842E+02  0.97025474261E+01  0.24934816491E+02  0.40659139863E+02  0.00000000000E+00 0. -1.
         11    1    4    4    0    0  0.76243480024E+01 -0.23657234590E+01 -0.16613438385E+02  0.18431865483E+02  0.51100000000E-03 0. -1.
        -11    1    4    4    0    0  0.74948426002E+01  0.61551781314E+01 -0.60372886512E+01  0.11423998335E+02  0.51100000000E-03 0.  1.
         12    1    4    4    0    0  0.15495857240E+02 -0.13492002098E+02 -0.22840894549E+01  0.20672996320E+02  0.00000000000E+00 0. -1.
</event>
<event>
 8    1  0.4964753E-012  0.9118800E+02  0.7816164E-02  0.1184000E+00
        -11   -1    0    0    0    0  0.00000000000E+00  0.00000000000E+00  0.45593999997E+02  0.45594000000E+02  0.51100000000E-03 0. -1.
         11   -1    0    0    0    0 -0.00000000000E+00 -0.00000000000E+00 -0.45593999997E+02  0.45594000000E+02  0.51100000000E-03 0.  1.
         23    2    1    2    0    0 -0.35527136788E-14  0.71054273576E-14 -0.66613381478E-15  0.91188000000E+02  0.91188000000E+02 0.  0.
    9900012    2    3    3    0    0  0.17073310270E+02 -0.36890060234E+02 -0.88973876265E+00  0.50528854624E+02  0.29999984114E+02 0.  0.
        -12    1    3    3    0    0 -0.17073310270E+02  0.36890060234E+02  0.88973876265E+00  0.40659145376E+02  0.00000000000E+00 0.  1.
         11    1    4    4    0    0  0.26221179226E+01 -0.11556356234E+02  0.66573713317E+01  0.13592110400E+02  0.51100000000E-03 0. -1.
        -11    1    4    4    0    0 -0.29257146673E+01 -0.32336323520E+01  0.45757007098E+01  0.63208560931E+01  0.51100000000E-03 0.  1.
        -12    1    4    4    0    0  0.17376907015E+02 -0.22100071648E+02 -0.12122810804E+02  0.30615888131E+02  0.00000000000E+00 0.  1.
</event>
<event>
 8    1  0.6529163E-012  0.9118800E+02  0.7816164E-02  0.1184000E+00
        -11   -1    0    0    0    0  0.00000000000E+00  0.00000000000E+00  0.45593999997E+02  0.45594000000E+02  0.51100000000E-03 0. -1.
         11   -1    0    0    0    0 -0.00000000000E+00 -0.00000000000E+00 -0.45593999997E+02  0.45594000000E+02  0.51100000000E-03 0.  1.
         23    2    1    2    0    0  0.00000000000E+00  0.35527136788E-14 -0.35527136788E-14  0.91188000000E+02  0.91188000000E+02 0.  0.
    9900012    2    3    3    0    0  0.25496920658E+02  0.23189215385E+02 -0.21571581477E+02  0.50528858339E+02  0.29999995407E+02 0.  0.
         12    1    3    3    0    0 -0.25496920658E+02 -0.23189215385E+02  0.21571581477E+02  0.40659141661E+02  0.00000000000E+00 0. -1.
         11    1    4    4    0    0  0.23532543056E+01  0.52164728816E+01 -0.12845328997E+02  0.14062427687E+02  0.51100000000E-03 0. -1.
        -11    1    4    4    0    0  0.36359583704E+01  0.15065446526E+02 -0.56973718081E+01  0.16512053721E+02  0.51100000000E-03 0.  1.
         12    1    4    4    0    0  0.19507707982E+02  0.29072959778E+01 -0.30288806720E+01  0.19954376932E+02  0.00000000000E+00 0. -1.
</event>
<event>
 8    1  0.4964753E-012  0.9118800E+02  0.7816164E-02  0.1184000E+00
        -11   -1    0    0    0    0  0.00000000000E+00  0.00000000000E+00  0.45593999997E+02  0.45594000000E+02  0.51100000000E-03 0. -1.
         11   -1    0    0    0    0 -0.00000000000E+00 -0.00000000000E+00 -0.45593999997E+02  0.45594000000E+02  0.51100000000E-03 0.  1.
         23    2    1    2    0    0  0.88817841970E-15  0.35527136788E-14 -0.71054273576E-14  0.91188000000E+02  0.91188000000E+02 0.  0.
    9900012    2    3    3    0    0 -0.38882484316E+01 -0.18652634889E+02  0.35918324274E+02  0.50528864707E+02  0.30000014762E+02 0.  0.
        -12    1    3    3    0    0  0.38882484316E+01  0.18652634889E+02 -0.35918324274E+02  0.40659135293E+02  0.00000000000E+00 0.  1.
         11    1    4    4    0    0 -0.44847479145E+01 -0.50406448936E+01  0.15985122400E+02  0.17350654259E+02  0.51100000000E-03 0. -1.
        -11    1    4    4    0    0  0.31965284807E+01 -0.87649574696E+01  0.24380652963E+02  0.26104760350E+02  0.51100000000E-03 0.  1.
        -12    1    4    4    0    0 -0.26000289979E+01 -0.48470325262E+01 -0.44474510892E+01  0.70734500981E+01  0.00000000000E+00 0.  1.
</event>
<event>
 8    1  0.4964753E-012  0.9118800E+02  0.7816164E-02  0.1184000E+00
        -11   -1    0    0    0    0  0.00000000000E+00  0.00000000000E+00  0.45593999997E+02  0.45594000000E+02  0.51100000000E-03 0. -1.
         11   -1    0    0    0    0 -0.00000000000E+00 -0.00000000000E+00 -0.45593999997E+02  0.45594000000E+02  0.51100000000E-03 0.  1.
         23    2    1    2    0    0 -0.88817841970E-15  0.00000000000E+00  0.00000000000E+00  0.91188000000E+02  0.91188000000E+02 0.  0.
    9900012    2    3    3    0    0  0.76467947512E+01 -0.17851172932E+02  0.35721606887E+02  0.50528793864E+02  0.29999799428E+02 0.  0.
        -12    1    3    3    0    0 -0.76467947512E+01  0.17851172932E+02 -0.35721606887E+02  0.40659206136E+02  0.00000000000E+00 0.  1.
         11    1    4    4    0    0  0.38391600076E+00 -0.61365542279E+01 -0.33616600610E+00  0.61577347403E+01  0.51100000000E-03 0. -1.
        -11    1    4    4    0    0  0.14896259590E+01  0.17760389436E+01 -0.23224255102E+01  0.32813046702E+01  0.51100000000E-03 0.  1.
         12    1    4    4    0    0  0.57732527914E+01 -0.13490657648E+02  0.38380198403E+02  0.41089754453E+02  0.00000000000E+00 0. -1.
</event>
<event>
 8    1  0.4964753E-012  0.9118800E+02  0.7816164E-02  0.1184000E+00
        -11   -1    0    0    0    0  0.00000000000E+00  0.00000000000E+00  0.45593999997E+02  0.45594000000E+02  0.51100000000E-03 0. -1.
         11   -1    0    0    0    0 -0.00000000000E+00 -0.00000000000E+00 -0.45593999997E+02  0.45594000000E+02  0.51100000000E-03 0.  1.
         23    2    1    2    0    0 -0.44408920985E-15  0.00000000000E+00  0.00000000000E+00  0.91188000000E+02  0.91188000000E+02 0.  0.
    9900012    2    3    3    0    0  0.10262153370E+01 -0.39672798525E+02 -0.88420627342E+01  0.50528854238E+02  0.29999982942E+02 0.  0.
         12    1    3    3    0    0 -0.10262153370E+01  0.39672798525E+02  0.88420627342E+01  0.40659145762E+02  0.00000000000E+00 0. -1.
         11    1    4    4    0    0  0.50992399498E+01 -0.85455358918E+00  0.10186382349E+01  0.52697375663E+01  0.51100000000E-03 0. -1.
        -11    1    4    4    0    0 -0.23913962325E+01 -0.24190979711E+02 -0.16217273761E+02  0.29221947981E+02  0.51100000000E-03 0.  1.
         12    1    4    4    0    0 -0.16816283803E+01 -0.14627265225E+02  0.63565727914E+01  0.16037168691E+02  0.00000000000E+00 0. -1.
</event>
<event>
 8    1  0.4964753E-012  0.9118800E+02  0.7816164E-02  0.1184000E+00
        -11   -1    0    0    0    0  0.00000000000E+00  0.00000000000E+00  0.45593999997E+02  0.45594000000E+02  0.51100000000E-03 0. -1.
         11   -1    0    0    0    0 -0.00000000000E+00 -0.00000000000E+00 -0.45593999997E+02  0.45594000000E+02  0.51100000000E-03 0.  1.
         23    2    1    2    0    0 -0.71054273576E-14 -0.35527136788E-14  0.00000000000E+00  0.91188000000E+02  0.91188000000E+02 0.  0.
    9900012    2    3    3    0    0 -0.20279223451E+02 -0.25792858544E+02  0.24013481804E+02  0.50528858789E+02  0.29999996776E+02 0.  0.
        -12    1    3    3    0    0  0.20279223451E+02  0.25792858544E+02 -0.24013481804E+02  0.40659141211E+02  0.00000000000E+00 0.  1.
         11    1    4    4    0    0 -0.86898376639E+01 -0.18949692669E+02  0.59831619578E+01  0.21688761102E+02  0.51100000000E-03 0. -1.
        -11    1    4    4    0    0 -0.13447661569E+02 -0.11005858304E+02  0.11360478943E+02  0.20761237939E+02  0.51100000000E-03 0.  1.
        -12    1    4    4    0    0  0.18582757821E+01  0.41626924297E+01  0.66698409036E+01  0.80788597479E+01  0.00000000000E+00 0.  1.
</event>
<event>
 8    1  0.4964753E-012  0.9118800E+02  0.7816164E-02  0.1184000E+00
        -11   -1    0    0    0    0  0.00000000000E+00  0.00000000000E+00  0.45593999997E+02  0.45594000000E+02  0.51100000000E-03 0. -1.
         11   -1    0    0    0    0 -0.00000000000E+00 -0.00000000000E+00 -0.45593999997E+02  0.45594000000E+02  0.51100000000E-03 0.  1.
         23    2    1    2    0    0  0.00000000000E+00  0.00000000000E+00  0.00000000000E+00  0.91188000000E+02  0.91188000000E+02 0.  0.
    9900012    2    3    3    0    0 -0.30817602520E+01  0.59563364319E+01 -0.40102244579E+02  0.50528865599E+02  0.30000017475E+02 0.  0.
         12    1    3    3    0    0  0.30817602520E+01 -0.59563364319E+01  0.40102244579E+02  0.40659134401E+02  0.00000000000E+00 0. -1.
         11    1    4    4    0    0  0.16200372014E+01  0.31264458082E+01 -0.12207961962E+01  0.37268656455E+01  0.51100000000E-03 0.  1.
        -11    1    4    4    0    0 -0.22942395235E+01 -0.10064900126E+02 -0.74130686329E+01  0.12709025783E+02  0.51100000000E-03 0. -1.
         12    1    4    4    0    0 -0.24075579299E+01  0.12894790750E+02 -0.31468379750E+02  0.34092974170E+02  0.00000000000E+00 0. -1.
</event>
<event>
 8    1  0.4964753E-012  0.9118800E+02  0.7816164E-02  0.1184000E+00
        -11   -1    0    0    0    0  0.00000000000E+00  0.00000000000E+00  0.45593999997E+02  0.45594000000E+02  0.51100000000E-03 0. -1.
         11   -1    0    0    0    0 -0.00000000000E+00 -0.00000000000E+00 -0.45593999997E+02  0.45594000000E+02  0.51100000000E-03 0.  1.
         23    2    1    2    0    0  0.00000000000E+00  0.35527136788E-14  0.17763568394E-14  0.91188000000E+02  0.91188000000E+02 0.  0.
    9900012    2    3    3    0    0  0.35619174675E+02  0.12044789609E+02  0.15471384681E+02  0.50528852134E+02  0.29999976546E+02 0.  0.
        -12    1    3    3    0    0 -0.35619174675E+02 -0.12044789609E+02 -0.15471384681E+02  0.40659147866E+02  0.00000000000E+00 0.  1.
         11    1    4    4    0    0  0.19528200932E+02  0.77120933826E+01  0.12812779156E+02  0.24596632411E+02  0.51100000000E-03 0. -1.
        -11    1    4    4    0    0  0.16202914378E+02  0.70973944313E+01  0.83823473298E+01  0.19574758978E+02  0.51100000000E-03 0.  1.
        -12    1    4    4    0    0 -0.11194063450E+00 -0.27646982047E+01 -0.57237418050E+01  0.63574607446E+01  0.00000000000E+00 0.  1.
</event>
<event>
 8    1  0.4964753E-012  0.9118800E+02  0.7816164E-02  0.1184000E+00
        -11   -1    0    0    0    0  0.00000000000E+00  0.00000000000E+00  0.45593999997E+02  0.45594000000E+02  0.51100000000E-03 0. -1.
         11   -1    0    0    0    0 -0.00000000000E+00 -0.00000000000E+00 -0.45593999997E+02  0.45594000000E+02  0.51100000000E-03 0.  1.
         23    2    1    2    0    0 -0.17763568394E-14  0.00000000000E+00  0.00000000000E+00  0.91188000000E+02  0.91188000000E+02 0.  0.
    9900012    2    3    3    0    0 -0.96908505953E+01 -0.99981444476E+01 -0.38200649574E+02  0.50528866887E+02  0.30000021389E+02 0.  0.
         12    1    3    3    0    0  0.96908505953E+01  0.99981444476E+01  0.38200649574E+02  0.40659133113E+02  0.00000000000E+00 0. -1.
         11    1    4    4    0    0 -0.64380360911E+01  0.19483166563E+01 -0.24929139590E+02  0.25820655442E+02  0.51100000000E-03 0.  1.
        -11    1    4    4    0    0  0.10788917360E+01 -0.26948712663E+01 -0.14159727364E+02  0.14454211075E+02  0.51100000000E-03 0. -1.
         12    1    4    4    0    0 -0.43317062402E+01 -0.92515898377E+01  0.88821737968E+00  0.10254000370E+02  0.00000000000E+00 0. -1.
</event>
<event>
 8    1  0.4964753E-012  0.9118800E+02  0.7816164E-02  0.1184000E+00
        -11   -1    0    0    0    0  0.00000000000E+00  0.00000000000E+00  0.45593999997E+02  0.45594000000E+02  0.51100000000E-03 0. -1.
         11   -1    0    0    0    0 -0.00000000000E+00 -0.00000000000E+00 -0.45593999997E+02  0.45594000000E+02  0.51100000000E-03 0.  1.
         23    2    1    2    0    0  0.17763568394E-14  0.58286708793E-15  0.00000000000E+00  0.91188000000E+02  0.91188000000E+02 0.  0.
    9900012    2    3    3    0    0  0.12091577219E+02  0.12929263312E+00 -0.38819359417E+02  0.50528860538E+02  0.30000002092E+02 0.  0.
         12    1    3    3    0    0 -0.12091577219E+02 -0.12929263312E+00  0.38819359417E+02  0.40659139462E+02  0.00000000000E+00 0. -1.
         11    1    4    4    0    0  0.12026831870E+02 -0.95727066865E+01 -0.14897425043E+02  0.21405949437E+02  0.51100000000E-03 0. -1.
        -11    1    4    4    0    0 -0.14236409354E+01  0.50731603104E+00  0.14505264592E+01  0.20947912398E+01  0.51100000000E-03 0.  1.
        -12    1    4    4    0    0  0.14883862845E+01  0.91946832886E+01 -0.25372460833E+02  0.27028119861E+02  0.00000000000E+00 0.  1.
</event>
<event>
 8    1  0.4964753E-012  0.9118800E+02  0.7816164E-02  0.1184000E+00
        -11   -1    0    0    0    0  0.00000000000E+00  0.00000000000E+00  0.45593999997E+02  0.45594000000E+02  0.51100000000E-03 0.  1.
         11   -1    0    0    0    0 -0.00000000000E+00 -0.00000000000E+00 -0.45593999997E+02  0.45594000000E+02  0.51100000000E-03 0. -1.
         23    2    1    2    0    0  0.88817841970E-15  0.71054273576E-14 -0.26645352591E-14  0.91188000000E+02  0.91188000000E+02 0.  0.
    9900012    2    3    3    0    0 -0.50002562193E+01  0.40204455502E+02  0.34299735017E+01  0.50528861757E+02  0.30000005796E+02 0.  0.
         12    1    3    3    0    0  0.50002562193E+01 -0.40204455502E+02 -0.34299735017E+01  0.40659138243E+02  0.00000000000E+00 0. -1.
         11    1    4    4    0    0 -0.84145889062E+01  0.17116401319E+02  0.83764975448E+01  0.20831279653E+02  0.51100000000E-03 0. -1.
        -11    1    4    4    0    0  0.61921099968E+01  0.93990820757E+01  0.52343910587E+01  0.12413050394E+02  0.51100000000E-03 0.  1.
         12    1    4    4    0    0 -0.27777773099E+01  0.13688972107E+02 -0.10180915102E+02  0.17284531710E+02  0.00000000000E+00 0. -1.
</event>
<event>
 8    1  0.4964753E-012  0.9118800E+02  0.7816164E-02  0.1184000E+00
        -11   -1    0    0    0    0  0.00000000000E+00  0.00000000000E+00  0.45593999997E+02  0.45594000000E+02  0.51100000000E-03 0. -1.
         11   -1    0    0    0    0 -0.00000000000E+00 -0.00000000000E+00 -0.45593999997E+02  0.45594000000E+02  0.51100000000E-03 0.  1.
         23    2    1    2    0    0  0.00000000000E+00  0.00000000000E+00  0.00000000000E+00  0.91188000000E+02  0.91188000000E+02 0.  0.
    9900012    2    3    3    0    0  0.59730017564E+01 -0.13876583440E+02 -0.37748249887E+02  0.50528847432E+02  0.29999962255E+02 0.  0.
         12    1    3    3    0    0 -0.59730017564E+01  0.13876583440E+02  0.37748249887E+02  0.40659152568E+02  0.00000000000E+00 0. -1.
         11    1    4    4    0    0  0.84607408405E+01 -0.11005861379E+01 -0.26871416979E+01  0.89451750225E+01  0.51100000000E-03 0. -1.
        -11    1    4    4    0    0  0.70703398732E+01 -0.44058929968E+01 -0.73936015402E+01  0.11138534150E+02  0.51100000000E-03 0.  1.
        -12    1    4    4    0    0 -0.95580789573E+01 -0.83701043058E+01 -0.27667506649E+02  0.30445138259E+02  0.00000000000E+00 0.  1.
</event>
<event>
 8    1  0.4964753E-012  0.9118800E+02  0.7816164E-02  0.1184000E+00
        -11   -1    0    0    0    0  0.00000000000E+00  0.00000000000E+00  0.45593999997E+02  0.45594000000E+02  0.51100000000E-03 0. -1.
         11   -1    0    0    0    0 -0.00000000000E+00 -0.00000000000E+00 -0.45593999997E+02  0.45594000000E+02  0.51100000000E-03 0.  1.
         23    2    1    2    0    0  0.00000000000E+00 -0.35527136788E-14  0.35527136788E-14  0.91188000000E+02  0.91188000000E+02 0.  0.
    9900012    2    3    3    0    0  0.29898990695E+02 -0.11423998187E+02 -0.25074015427E+02  0.50528885046E+02  0.30000076586E+02 0.  0.
         12    1    3    3    0    0 -0.29898990695E+02  0.11423998187E+02  0.25074015427E+02  0.40659114954E+02  0.00000000000E+00 0. -1.
         11    1    4    4    0    0  0.51158279180E+01  0.11796330215E+00  0.32758934468E+01  0.60759434464E+01  0.51100000000E-03 0. -1.
        -11    1    4    4    0    0  0.25248301038E+01  0.50414269324E+01 -0.89885433934E+01  0.10610592121E+02  0.51100000000E-03 0.  1.
        -12    1    4    4    0    0  0.22258332673E+02 -0.16583388422E+02 -0.19361365481E+02  0.33842349479E+02  0.00000000000E+00 0.  1.
</event>
<event>
 8    1  0.4964753E-012  0.9118800E+02  0.7816164E-02  0.1184000E+00
        -11   -1    0    0    0    0  0.00000000000E+00  0.00000000000E+00  0.45593999997E+02  0.45594000000E+02  0.51100000000E-03 0. -1.
         11   -1    0    0    0    0 -0.00000000000E+00 -0.00000000000E+00 -0.45593999997E+02  0.45594000000E+02  0.51100000000E-03 0.  1.
         23    2    1    2    0    0 -0.35527136788E-14  0.17763568394E-14  0.00000000000E+00  0.91188000000E+02  0.91188000000E+02 0.  0.
    9900012    2    3    3    0    0 -0.22389081278E+02  0.24255869325E+01  0.33852718916E+02  0.50528917245E+02  0.30000174458E+02 0.  0.
        -12    1    3    3    0    0  0.22389081278E+02 -0.24255869325E+01 -0.33852718916E+02  0.40659082755E+02  0.00000000000E+00 0.  1.
         11    1    4    4    0    0 -0.18208792760E+02  0.94501653924E+01  0.18981933114E+02  0.27949589348E+02  0.51100000000E-03 0. -1.
        -11    1    4    4    0    0  0.28036487463E+01  0.30208399797E+01  0.67035289352E+01  0.78691308873E+01  0.51100000000E-03 0.  1.
        -12    1    4    4    0    0 -0.69839372644E+01 -0.10045418440E+02  0.81672568668E+01  0.14710197010E+02  0.00000000000E+00 0.  1.
</event>
<event>
 8    1  0.5411301E-012  0.9118800E+02  0.7816164E-02  0.1184000E+00
        -11   -1    0    0    0    0  0.00000000000E+00  0.00000000000E+00  0.45593999997E+02  0.45594000000E+02  0.51100000000E-03 0.  1.
         11   -1    0    0    0    0 -0.00000000000E+00 -0.00000000000E+00 -0.45593999997E+02  0.45594000000E+02  0.51100000000E-03 0. -1.
         23    2    1    2    0    0  0.17763568394E-14  0.00000000000E+00 -0.35527136788E-14  0.91188000000E+02  0.91188000000E+02 0.  0.
    9900012    2    3    3    0    0  0.46548111281E+01 -0.34806287492E+02 -0.20494426914E+02  0.50528850352E+02  0.29999971130E+02 0.  0.
         12    1    3    3    0    0 -0.46548111281E+01  0.34806287492E+02  0.20494426914E+02  0.40659149648E+02  0.00000000000E+00 0. -1.
         11    1    4    4    0    0 -0.46634478074E+00 -0.20132518496E+02 -0.22694900894E+01  0.20265398194E+02  0.51100000000E-03 0. -1.
        -11    1    4    4    0    0 -0.26956638419E+01 -0.10348953097E+02 -0.18452046419E+02  0.21327106017E+02  0.51100000000E-03 0.  1.
         12    1    4    4    0    0  0.78168197507E+01 -0.43248158986E+01  0.22710959500E+00  0.89363461403E+01  0.00000000000E+00 0. -1.
</event>
<event>
 8    1  0.4964753E-012  0.9118800E+02  0.7816164E-02  0.1184000E+00
        -11   -1    0    0    0    0  0.00000000000E+00  0.00000000000E+00  0.45593999997E+02  0.45594000000E+02  0.51100000000E-03 0.  1.
         11   -1    0    0    0    0 -0.00000000000E+00 -0.00000000000E+00 -0.45593999997E+02  0.45594000000E+02  0.51100000000E-03 0. -1.
         23    2    1    2    0    0  0.00000000000E+00  0.00000000000E+00 -0.35527136788E-14  0.91188000000E+02  0.91188000000E+02 0.  0.
    9900012    2    3    3    0    0 -0.25889571405E+02  0.53686572669E+01 -0.30888085930E+02  0.50528852926E+02  0.29999978954E+02 0.  0.
         12    1    3    3    0    0  0.25889571405E+02 -0.53686572669E+01  0.30888085930E+02  0.40659147074E+02  0.00000000000E+00 0. -1.
         11    1    4    4    0    0 -0.27299975791E+01  0.52608054791E+01 -0.34104973930E+01  0.68381615804E+01  0.51100000000E-03 0. -1.
        -11    1    4    4    0    0 -0.30681022092E+01 -0.10081118515E+01 -0.22805438026E+02  0.23032966472E+02  0.51100000000E-03 0.  1.
        -12    1    4    4    0    0 -0.20091471616E+02  0.11159636392E+01 -0.46721505106E+01  0.20657724874E+02  0.00000000000E+00 0.  1.
</event>
<event>
 8    1  0.4964753E-012  0.9118800E+02  0.7816164E-02  0.1184000E+00
        -11   -1    0    0    0    0  0.00000000000E+00  0.00000000000E+00  0.45593999997E+02  0.45594000000E+02  0.51100000000E-03 0. -1.
         11   -1    0    0    0    0 -0.00000000000E+00 -0.00000000000E+00 -0.45593999997E+02  0.45594000000E+02  0.51100000000E-03 0.  1.
         23    2    1    2    0    0  0.00000000000E+00  0.00000000000E+00  0.00000000000E+00  0.91188000000E+02  0.91188000000E+02 0.  0.
    9900012    2    3    3    0    0 -0.16208359235E+02  0.26335016543E+02  0.26399263612E+02  0.50528866651E+02  0.30000020673E+02 0.  0.
        -12    1    3    3    0    0  0.16208359235E+02 -0.26335016543E+02 -0.26399263612E+02  0.40659133349E+02  0.00000000000E+00 0.  1.
         11    1    4    4    0    0 -0.19332970039E+02  0.19437438564E+02  0.18766282795E+02  0.33222750017E+02  0.51100000000E-03 0. -1.
        -11    1    4    4    0    0 -0.37709333265E+00  0.52140465296E+01 -0.29708595883E+01  0.60128601804E+01  0.51100000000E-03 0.  1.
        -12    1    4    4    0    0  0.35017041364E+01  0.16835314491E+01  0.10603840405E+02  0.11293256454E+02  0.00000000000E+00 0.  1.
</event>
<event>
 8    1  0.4964753E-012  0.9118800E+02  0.7816164E-02  0.1184000E+00
        -11   -1    0    0    0    0  0.00000000000E+00  0.00000000000E+00  0.45593999997E+02  0.45594000000E+02  0.51100000000E-03 0. -1.
         11   -1    0    0    0    0 -0.00000000000E+00 -0.00000000000E+00 -0.45593999997E+02  0.45594000000E+02  0.51100000000E-03 0.  1.
         23    2    1    2    0    0  0.00000000000E+00 -0.17763568394E-14  0.00000000000E+00  0.91188000000E+02  0.91188000000E+02 0.  0.
    9900012    2    3    3    0    0  0.22139961084E+02 -0.12472012140E+02  0.31740147419E+02  0.50528856849E+02  0.29999990878E+02 0.  0.
        -12    1    3    3    0    0 -0.22139961084E+02  0.12472012140E+02 -0.31740147419E+02  0.40659143151E+02  0.00000000000E+00 0.  1.
         11    1    4    4    0    0  0.19989745886E+02 -0.16779730751E+02  0.13240952235E+02  0.29265544946E+02  0.51100000000E-03 0. -1.
        -11    1    4    4    0    0 -0.10944525472E+01 -0.18766157885E+01  0.10142598621E+02  0.10372647697E+02  0.51100000000E-03 0.  1.
        -12    1    4    4    0    0  0.32446677452E+01  0.61843343987E+01  0.83565965629E+01  0.10890664206E+02  0.00000000000E+00 0.  1.
</event>
<event>
 8    1  0.4964753E-012  0.9118800E+02  0.7816164E-02  0.1184000E+00
        -11   -1    0    0    0    0  0.00000000000E+00  0.00000000000E+00  0.45593999997E+02  0.45594000000E+02  0.51100000000E-03 0. -1.
         11   -1    0    0    0    0 -0.00000000000E+00 -0.00000000000E+00 -0.45593999997E+02  0.45594000000E+02  0.51100000000E-03 0.  1.
         23    2    1    2    0    0  0.00000000000E+00  0.00000000000E+00  0.00000000000E+00  0.91188000000E+02  0.91188000000E+02 0.  0.
    9900012    2    3    3    0    0  0.17001941516E+01  0.26763660274E+02 -0.30561102793E+02  0.50528866028E+02  0.30000018780E+02 0.  0.
         12    1    3    3    0    0 -0.17001941516E+01 -0.26763660274E+02  0.30561102793E+02  0.40659133972E+02  0.00000000000E+00 0. -1.
         11    1    4    4    0    0 -0.43414087268E+00  0.22501763524E+02 -0.25178161557E+02  0.33770662707E+02  0.51100000000E-03 0. -1.
        -11    1    4    4    0    0  0.54501034120E+00  0.49753136172E+01 -0.10348825554E+02  0.11495606659E+02  0.51100000000E-03 0.  1.
         12    1    4    4    0    0  0.15893246831E+01 -0.71341686751E+00  0.49658843179E+01  0.52625966627E+01  0.00000000000E+00 0. -1.
</event>
<event>
 8    1  0.4964753E-012  0.9118800E+02  0.7816164E-02  0.1184000E+00
        -11   -1    0    0    0    0  0.00000000000E+00  0.00000000000E+00  0.45593999997E+02  0.45594000000E+02  0.51100000000E-03 0. -1.
         11   -1    0    0    0    0 -0.00000000000E+00 -0.00000000000E+00 -0.45593999997E+02  0.45594000000E+02  0.51100000000E-03 0.  1.
         23    2    1    2    0    0  0.00000000000E+00  0.00000000000E+00  0.00000000000E+00  0.91188000000E+02  0.91188000000E+02 0.  0.
    9900012    2    3    3    0    0 -0.28134603319E+02 -0.19212276301E+02  0.22192283863E+02  0.50528869074E+02  0.30000028036E+02 0.  0.
        -12    1    3    3    0    0  0.28134603319E+02  0.19212276301E+02 -0.22192283863E+02  0.40659130926E+02  0.00000000000E+00 0.  1.
         11    1    4    4    0    0 -0.51810787509E+01 -0.92443131964E+01 -0.10198467171E+01  0.10646172603E+02  0.51100000000E-03 0. -1.
        -11    1    4    4    0    0  0.33198867849E+01 -0.34931127269E+01  0.64524515780E+01  0.80534226522E+01  0.51100000000E-03 0.  1.
         12    1    4    4    0    0 -0.26273411354E+02 -0.64748503779E+01  0.16759679002E+02  0.31829273819E+02  0.00000000000E+00 0. -1.
</event>
<event>
 8    1  0.4964753E-012  0.9118800E+02  0.7816164E-02  0.1184000E+00
        -11   -1    0    0    0    0  0.00000000000E+00  0.00000000000E+00  0.45593999997E+02  0.45594000000E+02  0.51100000000E-03 0. -1.
         11   -1    0    0    0    0 -0.00000000000E+00 -0.00000000000E+00 -0.45593999997E+02  0.45594000000E+02  0.51100000000E-03 0.  1.
         23    2    1    2    0    0  0.00000000000E+00  0.35527136788E-14  0.00000000000E+00  0.91188000000E+02  0.91188000000E+02 0.  0.
    9900012    2    3    3    0    0 -0.21420686722E+02  0.27248593654E+02  0.21256468076E+02  0.50528817633E+02  0.29999871676E+02 0.  0.
        -12    1    3    3    0    0  0.21420686722E+02 -0.27248593654E+02 -0.21256468076E+02  0.40659182367E+02  0.00000000000E+00 0.  1.
         11    1    4    4    0    0 -0.69687527216E+01  0.25610856512E+02  0.14325420000E+02  0.30161186055E+02  0.51100000000E-03 0. -1.
        -11    1    4    4    0    0 -0.10150788683E+02  0.65175537811E+01  0.68292696950E+01  0.13862032427E+02  0.51100000000E-03 0.  1.
        -12    1    4    4    0    0 -0.43011453172E+01 -0.48798166395E+01  0.10177838032E+00  0.65055991510E+01  0.00000000000E+00 0.  1.
</event>
<event>
 8    1  0.4964753E-012  0.9118800E+02  0.7816164E-02  0.1184000E+00
        -11   -1    0    0    0    0  0.00000000000E+00  0.00000000000E+00  0.45593999997E+02  0.45594000000E+02  0.51100000000E-03 0. -1.
         11   -1    0    0    0    0 -0.00000000000E+00 -0.00000000000E+00 -0.45593999997E+02  0.45594000000E+02  0.51100000000E-03 0.  1.
         23    2    1    2    0    0  0.00000000000E+00  0.00000000000E+00  0.00000000000E+00  0.91188000000E+02  0.91188000000E+02 0.  0.
    9900012    2    3    3    0    0 -0.22453604595E+02  0.33280309565E+02 -0.64360297745E+01  0.50528857814E+02  0.29999993810E+02 0.  0.
        -12    1    3    3    0    0  0.22453604595E+02 -0.33280309565E+02  0.64360297745E+01  0.40659142186E+02  0.00000000000E+00 0.  1.
         11    1    4    4    0    0 -0.66605699897E+01  0.34083973444E+00  0.49629933184E+01  0.83132825799E+01  0.51100000000E-03 0. -1.
        -11    1    4    4    0    0 -0.13615921774E+02  0.12667268980E+02 -0.11426093249E+02  0.21826787129E+02  0.51100000000E-03 0.  1.
        -12    1    4    4    0    0 -0.21771128316E+01  0.20272200851E+02  0.27070155594E-01  0.20388788105E+02  0.00000000000E+00 0.  1.
</event>
<event>
 8    1  0.4964753E-012  0.9118800E+02  0.7816164E-02  0.1184000E+00
        -11   -1    0    0    0    0  0.00000000000E+00  0.00000000000E+00  0.45593999997E+02  0.45594000000E+02  0.51100000000E-03 0. -1.
         11   -1    0    0    0    0 -0.00000000000E+00 -0.00000000000E+00 -0.45593999997E+02  0.45594000000E+02  0.51100000000E-03 0.  1.
         23    2    1    2    0    0  0.00000000000E+00  0.88817841970E-15  0.00000000000E+00  0.91188000000E+02  0.91188000000E+02 0.  0.
    9900012    2    3    3    0    0  0.32829681033E+02  0.68303252887E+01  0.22994004401E+02  0.50528861560E+02  0.30000005199E+02 0.  0.
        -12    1    3    3    0    0 -0.32829681033E+02 -0.68303252887E+01 -0.22994004401E+02  0.40659138440E+02  0.00000000000E+00 0.  1.
         11    1    4    4    0    0  0.13669361685E+02 -0.64960225150E+01  0.90391052198E+01  0.17628249511E+02  0.51100000000E-03 0. -1.
        -11    1    4    4    0    0  0.41083259142E+01  0.14059117256E+01 -0.45110461320E+01  0.62613470646E+01  0.51100000000E-03 0.  1.
         12    1    4    4    0    0  0.15051993434E+02  0.11920436078E+02  0.18465945313E+02  0.26639264985E+02  0.00000000000E+00 0. -1.
</event>
<event>
 8    1  0.4964753E-012  0.9118800E+02  0.7816164E-02  0.1184000E+00
        -11   -1    0    0    0    0  0.00000000000E+00  0.00000000000E+00  0.45593999997E+02  0.45594000000E+02  0.51100000000E-03 0. -1.
         11   -1    0    0    0    0 -0.00000000000E+00 -0.00000000000E+00 -0.45593999997E+02  0.45594000000E+02  0.51100000000E-03 0.  1.
         23    2    1    2    0    0 -0.11102230246E-14  0.00000000000E+00 -0.35527136788E-14  0.91188000000E+02  0.91188000000E+02 0.  0.
    9900012    2    3    3    0    0 -0.19898290136E+01 -0.34065241940E+02 -0.22108101351E+02  0.50528827932E+02  0.29999902982E+02 0.  0.
         12    1    3    3    0    0  0.19898290136E+01  0.34065241940E+02  0.22108101351E+02  0.40659172068E+02  0.00000000000E+00 0. -1.
         11    1    4    4    0    0  0.20649895493E+01 -0.12711398047E+02 -0.11520319454E+02  0.17278934653E+02  0.51100000000E-03 0. -1.
        -11    1    4    4    0    0 -0.98613126995E+01 -0.10364372170E+02 -0.14350843799E+02  0.20263573639E+02  0.51100000000E-03 0.  1.
         12    1    4    4    0    0  0.58064941366E+01 -0.10989471723E+02  0.37630619024E+01  0.12986319640E+02  0.00000000000E+00 0. -1.
</event>
<event>
 8    1  0.4964753E-012  0.9118800E+02  0.7816164E-02  0.1184000E+00
        -11   -1    0    0    0    0  0.00000000000E+00  0.00000000000E+00  0.45593999997E+02  0.45594000000E+02  0.51100000000E-03 0. -1.
         11   -1    0    0    0    0 -0.00000000000E+00 -0.00000000000E+00 -0.45593999997E+02  0.45594000000E+02  0.51100000000E-03 0.  1.
         23    2    1    2    0    0  0.35527136788E-14  0.00000000000E+00  0.17763568394E-14  0.91188000000E+02  0.91188000000E+02 0.  0.
    9900012    2    3    3    0    0  0.26399841725E+02  0.29122626399E+02  0.10396461368E+02  0.50528863014E+02  0.30000009617E+02 0.  0.
        -12    1    3    3    0    0 -0.26399841725E+02 -0.29122626399E+02 -0.10396461368E+02  0.40659136986E+02  0.00000000000E+00 0.  1.
         11    1    4    4    0    0  0.24373008666E+02  0.82553416707E+01  0.11302424417E+02  0.28105853758E+02  0.51100000000E-03 0. -1.
        -11    1    4    4    0    0  0.49276427227E+01  0.14745021766E+02 -0.15187973126E+01  0.15620629796E+02  0.51100000000E-03 0.  1.
        -12    1    4    4    0    0 -0.29008096633E+01  0.61222629618E+01  0.61283426407E+00  0.68023794595E+01  0.00000000000E+00 0.  1.
</event>
<event>
 8    1  0.4964753E-012  0.9118800E+02  0.7816164E-02  0.1184000E+00
        -11   -1    0    0    0    0  0.00000000000E+00  0.00000000000E+00  0.45593999997E+02  0.45594000000E+02  0.51100000000E-03 0. -1.
         11   -1    0    0    0    0 -0.00000000000E+00 -0.00000000000E+00 -0.45593999997E+02  0.45594000000E+02  0.51100000000E-03 0.  1.
         23    2    1    2    0    0  0.00000000000E+00  0.00000000000E+00  0.00000000000E+00  0.91188000000E+02  0.91188000000E+02 0.  0.
    9900012    2    3    3    0    0 -0.16602632636E+02 -0.24847687156E+02  0.27570091778E+02  0.50528869069E+02  0.30000028022E+02 0.  0.
        -12    1    3    3    0    0  0.16602632636E+02  0.24847687156E+02 -0.27570091778E+02  0.40659130931E+02  0.00000000000E+00 0.  1.
         11    1    4    4    0    0 -0.12116542253E+01  0.38854356796E-01 -0.90880683104E+00  0.15151058511E+01  0.51100000000E-03 0.  1.
        -11    1    4    4    0    0  0.69695721012E+01 -0.72066604383E+01  0.22451380813E+01  0.10273827681E+02  0.51100000000E-03 0. -1.
         12    1    4    4    0    0 -0.22360550512E+02 -0.17679881074E+02  0.26233760528E+02  0.38739935537E+02  0.00000000000E+00 0. -1.
</event>
<event>
 8    1  0.4964753E-012  0.9118800E+02  0.7816164E-02  0.1184000E+00
        -11   -1    0    0    0    0  0.00000000000E+00  0.00000000000E+00  0.45593999997E+02  0.45594000000E+02  0.51100000000E-03 0.  1.
         11   -1    0    0    0    0 -0.00000000000E+00 -0.00000000000E+00 -0.45593999997E+02  0.45594000000E+02  0.51100000000E-03 0. -1.
         23    2    1    2    0    0  0.00000000000E+00 -0.35527136788E-14 -0.35527136788E-14  0.91188000000E+02  0.91188000000E+02 0.  0.
    9900012    2    3    3    0    0 -0.27661812372E+02  0.16345491637E+02 -0.24916151026E+02  0.50528861513E+02  0.30000005055E+02 0.  0.
         12    1    3    3    0    0  0.27661812372E+02 -0.16345491637E+02  0.24916151026E+02  0.40659138487E+02  0.00000000000E+00 0. -1.
         11    1    4    4    0    0 -0.30660958136E+01 -0.15477189840E+01 -0.30381351868E+01  0.45854817922E+01  0.51100000000E-03 0. -1.
        -11    1    4    4    0    0 -0.17777969946E+02  0.23937962614E+02 -0.21615296757E+02  0.36828023619E+02  0.51100000000E-03 0.  1.
        -12    1    4    4    0    0 -0.68177466129E+01 -0.60447519936E+01 -0.26271908144E+00  0.91153561015E+01  0.00000000000E+00 0.  1.
</event>
<event>
 8    1  0.4964753E-012  0.9118800E+02  0.7816164E-02  0.1184000E+00
        -11   -1    0    0    0    0  0.00000000000E+00  0.00000000000E+00  0.45593999997E+02  0.45594000000E+02  0.51100000000E-03 0.  1.
         11   -1    0    0    0    0 -0.00000000000E+00 -0.00000000000E+00 -0.45593999997E+02  0.45594000000E+02  0.51100000000E-03 0. -1.
         23    2    1    2    0    0  0.00000000000E+00  0.17763568394E-14  0.88817841970E-15  0.91188000000E+02  0.91188000000E+02 0.  0.
    9900012    2    3    3    0    0 -0.37985909883E+02 -0.12500748613E+02 -0.73464759098E+01  0.50528821776E+02  0.29999884270E+02 0.  0.
         12    1    3    3    0    0  0.37985909883E+02  0.12500748613E+02  0.73464759098E+01  0.40659178224E+02  0.00000000000E+00 0. -1.
         11    1    4    4    0    0 -0.60930064020E+01  0.30470377245E+01  0.17117960496E+01  0.70242018683E+01  0.51100000000E-03 0. -1.
        -11    1    4    4    0    0 -0.33324925469E+02 -0.15737827931E+02 -0.26652482511E+01  0.36950418590E+02  0.51100000000E-03 0.  1.
        -12    1    4    4    0    0  0.14320219873E+01  0.19004159327E+00 -0.63930237082E+01  0.65542013177E+01  0.00000000000E+00 0.  1.
</event>
<event>
 8    1  0.4964753E-012  0.9118800E+02  0.7816164E-02  0.1184000E+00
        -11   -1    0    0    0    0  0.00000000000E+00  0.00000000000E+00  0.45593999997E+02  0.45594000000E+02  0.51100000000E-03 0. -1.
         11   -1    0    0    0    0 -0.00000000000E+00 -0.00000000000E+00 -0.45593999997E+02  0.45594000000E+02  0.51100000000E-03 0.  1.
         23    2    1    2    0    0  0.00000000000E+00  0.00000000000E+00  0.35527136788E-14  0.91188000000E+02  0.91188000000E+02 0.  0.
    9900012    2    3    3    0    0  0.83692592039E+01  0.27354708825E+02 -0.28893609366E+02  0.50528865027E+02  0.30000015737E+02 0.  0.
         12    1    3    3    0    0 -0.83692592039E+01 -0.27354708825E+02  0.28893609366E+02  0.40659134973E+02  0.00000000000E+00 0. -1.
         11    1    4    4    0    0  0.44088192421E+01  0.41595860146E+01  0.11843545775E+01  0.61759646169E+01  0.51100000000E-03 0. -1.
        -11    1    4    4    0    0 -0.83434728853E+01  0.41953103142E+01 -0.50866725233E+01  0.10634303270E+02  0.51100000000E-03 0.  1.
        -12    1    4    4    0    0  0.12303912847E+02  0.18999812496E+02 -0.24991291420E+02  0.33718597140E+02  0.00000000000E+00 0.  1.
</event>
<event>
 8    1  0.4964753E-012  0.9118800E+02  0.7816164E-02  0.1184000E+00
        -11   -1    0    0    0    0  0.00000000000E+00  0.00000000000E+00  0.45593999997E+02  0.45594000000E+02  0.51100000000E-03 0. -1.
         11   -1    0    0    0    0 -0.00000000000E+00 -0.00000000000E+00 -0.45593999997E+02  0.45594000000E+02  0.51100000000E-03 0.  1.
         23    2    1    2    0    0  0.17763568394E-14  0.00000000000E+00  0.71054273576E-14  0.91188000000E+02  0.91188000000E+02 0.  0.
    9900012    2    3    3    0    0  0.80430134746E+01  0.16728084349E+02  0.36175232796E+02  0.50528851711E+02  0.29999975262E+02 0.  0.
        -12    1    3    3    0    0 -0.80430134746E+01 -0.16728084349E+02 -0.36175232796E+02  0.40659148289E+02  0.00000000000E+00 0.  1.
         11    1    4    4    0    0  0.10293258882E+02  0.45996571787E+01  0.18081414938E+02  0.21308345572E+02  0.51100000000E-03 0. -1.
        -11    1    4    4    0    0  0.13400426930E+01  0.11923635666E+01 -0.39579611229E+01  0.43454460997E+01  0.51100000000E-03 0.  1.
         12    1    4    4    0    0 -0.35902881007E+01  0.10936063604E+02  0.22051778980E+02  0.24875060040E+02  0.00000000000E+00 0. -1.
</event>
<event>
 8    1  0.4964753E-012  0.9118800E+02  0.7816164E-02  0.1184000E+00
        -11   -1    0    0    0    0  0.00000000000E+00  0.00000000000E+00  0.45593999997E+02  0.45594000000E+02  0.51100000000E-03 0. -1.
         11   -1    0    0    0    0 -0.00000000000E+00 -0.00000000000E+00 -0.45593999997E+02  0.45594000000E+02  0.51100000000E-03 0.  1.
         23    2    1    2    0    0 -0.83266726847E-15  0.00000000000E+00  0.00000000000E+00  0.91188000000E+02  0.91188000000E+02 0.  0.
    9900012    2    3    3    0    0  0.33015103675E-01  0.15115761393E+02 -0.37744899555E+02  0.50528870952E+02  0.30000033747E+02 0.  0.
         12    1    3    3    0    0 -0.33015103675E-01 -0.15115761393E+02  0.37744899555E+02  0.40659129048E+02  0.00000000000E+00 0. -1.
         11    1    4    4    0    0  0.46874965215E+01 -0.24105174015E+01 -0.16131755625E+01  0.55123092655E+01  0.51100000000E-03 0. -1.
        -11    1    4    4    0    0  0.36633540782E+01 -0.36350026516E+00  0.18605669237E+00  0.36860429866E+01  0.51100000000E-03 0.  1.
        -12    1    4    4    0    0 -0.83178354960E+01  0.17889779060E+02 -0.36317780685E+02  0.41330518700E+02  0.00000000000E+00 0.  1.
</event>
<event>
 8    1  0.4964753E-012  0.9118800E+02  0.7816164E-02  0.1184000E+00
        -11   -1    0    0    0    0  0.00000000000E+00  0.00000000000E+00  0.45593999997E+02  0.45594000000E+02  0.51100000000E-03 0. -1.
         11   -1    0    0    0    0 -0.00000000000E+00 -0.00000000000E+00 -0.45593999997E+02  0.45594000000E+02  0.51100000000E-03 0.  1.
         23    2    1    2    0    0 -0.17763568394E-14  0.00000000000E+00  0.00000000000E+00  0.91188000000E+02  0.91188000000E+02 0.  0.
    9900012    2    3    3    0    0 -0.96375708914E+01  0.33799044587E+02  0.20442794343E+02  0.50528855540E+02  0.29999986899E+02 0.  0.
        -12    1    3    3    0    0  0.96375708914E+01 -0.33799044587E+02 -0.20442794343E+02  0.40659144460E+02  0.00000000000E+00 0.  1.
         11    1    4    4    0    0 -0.56964149975E+01  0.74668540840E+01 -0.13335329840E+01  0.94858507376E+01  0.51100000000E-03 0. -1.
        -11    1    4    4    0    0 -0.12344819896E+02  0.99421900866E+01  0.13622297465E+02  0.20899969150E+02  0.51100000000E-03 0.  1.
         12    1    4    4    0    0  0.84036640019E+01  0.16390000416E+02  0.81540298619E+01  0.20143035652E+02  0.00000000000E+00 0. -1.
</event>
<event>
 8    1  0.4964753E-012  0.9118800E+02  0.7816164E-02  0.1184000E+00
        -11   -1    0    0    0    0  0.00000000000E+00  0.00000000000E+00  0.45593999997E+02  0.45594000000E+02  0.51100000000E-03 0. -1.
         11   -1    0    0    0    0 -0.00000000000E+00 -0.00000000000E+00 -0.45593999997E+02  0.45594000000E+02  0.51100000000E-03 0.  1.
         23    2    1    2    0    0  0.00000000000E+00  0.00000000000E+00  0.00000000000E+00  0.91188000000E+02  0.91188000000E+02 0.  0.
    9900012    2    3    3    0    0 -0.15299941969E+02 -0.15657867117E+02  0.34262353141E+02  0.50528857490E+02  0.29999992825E+02 0.  0.
        -12    1    3    3    0    0  0.15299941969E+02  0.15657867117E+02 -0.34262353141E+02  0.40659142510E+02  0.00000000000E+00 0.  1.
         11    1    4    4    0    0 -0.13268381910E+01 -0.13959219226E+02  0.95521119533E+01  0.16966530111E+02  0.51100000000E-03 0. -1.
        -11    1    4    4    0    0  0.18708038019E+01  0.88536882202E+00 -0.16848774095E+01  0.26688193949E+01  0.51100000000E-03 0.  1.
         12    1    4    4    0    0 -0.15843907579E+02 -0.25840167137E+01  0.26395118597E+02  0.30893507984E+02  0.00000000000E+00 0. -1.
</event>
<event>
 8    1  0.4964753E-012  0.9118800E+02  0.7816164E-02  0.1184000E+00
        -11   -1    0    0    0    0  0.00000000000E+00  0.00000000000E+00  0.45593999997E+02  0.45594000000E+02  0.51100000000E-03 0. -1.
         11   -1    0    0    0    0 -0.00000000000E+00 -0.00000000000E+00 -0.45593999997E+02  0.45594000000E+02  0.51100000000E-03 0.  1.
         23    2    1    2    0    0 -0.17763568394E-14  0.35527136788E-14  0.35527136788E-14  0.91188000000E+02  0.91188000000E+02 0.  0.
    9900012    2    3    3    0    0 -0.90200894175E+01  0.31564171218E+02  0.23989727199E+02  0.50528856762E+02  0.29999990613E+02 0.  0.
        -12    1    3    3    0    0  0.90200894175E+01 -0.31564171218E+02 -0.23989727199E+02  0.40659143238E+02  0.00000000000E+00 0.  1.
         11    1    4    4    0    0 -0.15879700049E+01  0.12311234667E+02  0.53305729311E+00  0.12424664909E+02  0.51100000000E-03 0. -1.
        -11    1    4    4    0    0  0.77380865187E+01  0.59229337401E+01  0.62832971584E+01  0.11594781175E+02  0.51100000000E-03 0.  1.
        -12    1    4    4    0    0 -0.15170205931E+02  0.13330002811E+02  0.17173372748E+02  0.26509410678E+02  0.00000000000E+00 0.  1.
</event>
<event>
 8    1  0.4964753E-012  0.9118800E+02  0.7816164E-02  0.1184000E+00
        -11   -1    0    0    0    0  0.00000000000E+00  0.00000000000E+00  0.45593999997E+02  0.45594000000E+02  0.51100000000E-03 0. -1.
         11   -1    0    0    0    0 -0.00000000000E+00 -0.00000000000E+00 -0.45593999997E+02  0.45594000000E+02  0.51100000000E-03 0.  1.
         23    2    1    2    0    0  0.35527136788E-14  0.88817841970E-15 -0.35527136788E-14  0.91188000000E+02  0.91188000000E+02 0.  0.
    9900012    2    3    3    0    0  0.25562378745E+02  0.64939500936E+01 -0.30944452706E+02  0.50528858983E+02  0.29999997366E+02 0.  0.
         12    1    3    3    0    0 -0.25562378745E+02 -0.64939500936E+01  0.30944452706E+02  0.40659141017E+02  0.00000000000E+00 0. -1.
         11    1    4    4    0    0  0.68831211658E+01  0.85291764617E+01 -0.14338436745E+01  0.11053511480E+02  0.51100000000E-03 0. -1.
        -11    1    4    4    0    0  0.13439217523E+02 -0.37557951018E+01 -0.57658316304E+01  0.15098456184E+02  0.51100000000E-03 0.  1.
         12    1    4    4    0    0  0.52400400562E+01  0.17205687337E+01 -0.23744777401E+02  0.24376891319E+02  0.00000000000E+00 0. -1.
</event>
<event>
 8    1  0.4964753E-012  0.9118800E+02  0.7816164E-02  0.1184000E+00
        -11   -1    0    0    0    0  0.00000000000E+00  0.00000000000E+00  0.45593999997E+02  0.45594000000E+02  0.51100000000E-03 0. -1.
         11   -1    0    0    0    0 -0.00000000000E+00 -0.00000000000E+00 -0.45593999997E+02  0.45594000000E+02  0.51100000000E-03 0.  1.
         23    2    1    2    0    0  0.00000000000E+00 -0.17763568394E-14 -0.17763568394E-14  0.91188000000E+02  0.91188000000E+02 0.  0.
    9900012    2    3    3    0    0  0.38689130630E+02 -0.63371840184E+01 -0.10777617959E+02  0.50528858604E+02  0.29999996212E+02 0.  0.
         12    1    3    3    0    0 -0.38689130630E+02  0.63371840184E+01  0.10777617959E+02  0.40659141396E+02  0.00000000000E+00 0. -1.
         11    1    4    4    0    0  0.24956927286E+01 -0.85554633828E+01  0.24871688414E+01  0.92525912585E+01  0.51100000000E-03 0. -1.
        -11    1    4    4    0    0  0.21149681833E+02 -0.28856151618E+01 -0.13735946824E+02  0.25383302620E+02  0.51100000000E-03 0.  1.
        -12    1    4    4    0    0  0.15043756068E+02  0.51038945262E+01  0.47116002315E+00  0.15892964725E+02  0.00000000000E+00 0.  1.
</event>
<event>
 8    1  0.4964753E-012  0.9118800E+02  0.7816164E-02  0.1184000E+00
        -11   -1    0    0    0    0  0.00000000000E+00  0.00000000000E+00  0.45593999997E+02  0.45594000000E+02  0.51100000000E-03 0.  1.
         11   -1    0    0    0    0 -0.00000000000E+00 -0.00000000000E+00 -0.45593999997E+02  0.45594000000E+02  0.51100000000E-03 0. -1.
         23    2    1    2    0    0 -0.71054273576E-14  0.00000000000E+00  0.00000000000E+00  0.91188000000E+02  0.91188000000E+02 0.  0.
    9900012    2    3    3    0    0  0.35938345166E+02 -0.20857971515E+01 -0.18901071868E+02  0.50528859321E+02  0.29999998392E+02 0.  0.
         12    1    3    3    0    0 -0.35938345166E+02  0.20857971515E+01  0.18901071868E+02  0.40659140679E+02  0.00000000000E+00 0. -1.
         11    1    4    4    0    0  0.14229566741E+02 -0.22515388245E+01 -0.19133643531E+02  0.23950914633E+02  0.51100000000E-03 0. -1.
        -11    1    4    4    0    0 -0.30448637245E+00 -0.26617055856E+01 -0.31416123725E+01  0.41288154640E+01  0.51100000000E-03 0.  1.
        -12    1    4    4    0    0  0.22013264797E+02  0.28274472586E+01  0.33741840356E+01  0.22449129224E+02  0.00000000000E+00 0.  1.
</event>
<event>
 8    1  0.4964753E-012  0.9118800E+02  0.7816164E-02  0.1184000E+00
        -11   -1    0    0    0    0  0.00000000000E+00  0.00000000000E+00  0.45593999997E+02  0.45594000000E+02  0.51100000000E-03 0. -1.
         11   -1    0    0    0    0 -0.00000000000E+00 -0.00000000000E+00 -0.45593999997E+02  0.45594000000E+02  0.51100000000E-03 0.  1.
         23    2    1    2    0    0  0.00000000000E+00 -0.11102230246E-14  0.17763568394E-14  0.91188000000E+02  0.91188000000E+02 0.  0.
    9900012    2    3    3    0    0 -0.37736999018E+02  0.19413024617E+01 -0.15010522707E+02  0.50528861519E+02  0.30000005072E+02 0.  0.
         12    1    3    3    0    0  0.37736999018E+02 -0.19413024617E+01  0.15010522707E+02  0.40659138481E+02  0.00000000000E+00 0. -1.
         11    1    4    4    0    0 -0.61192624208E+01  0.57900300044E+01 -0.73581938692E+01  0.11185384987E+02  0.51100000000E-03 0. -1.
        -11    1    4    4    0    0 -0.13222898230E+02  0.90495433662E+01 -0.46031561982E+01  0.16671182321E+02  0.51100000000E-03 0.  1.
        -12    1    4    4    0    0 -0.18394838367E+02 -0.12898270909E+02 -0.30491726396E+01  0.22672294211E+02  0.00000000000E+00 0.  1.
</event>
<event>
 8    1  0.4964753E-012  0.9118800E+02  0.7816164E-02  0.1184000E+00
        -11   -1    0    0    0    0  0.00000000000E+00  0.00000000000E+00  0.45593999997E+02  0.45594000000E+02  0.51100000000E-03 0. -1.
         11   -1    0    0    0    0 -0.00000000000E+00 -0.00000000000E+00 -0.45593999997E+02  0.45594000000E+02  0.51100000000E-03 0.  1.
         23    2    1    2    0    0 -0.71054273576E-14  0.35527136788E-14 -0.17763568394E-14  0.91188000000E+02  0.91188000000E+02 0.  0.
    9900012    2    3    3    0    0 -0.31840507652E+02  0.21643096501E+02 -0.13073830646E+02  0.50528848491E+02  0.29999965472E+02 0.  0.
         12    1    3    3    0    0  0.31840507652E+02 -0.21643096501E+02  0.13073830646E+02  0.40659151509E+02  0.00000000000E+00 0. -1.
         11    1    4    4    0    0 -0.71599194934E+01  0.18339595385E+02 -0.34540025642E+01  0.19988380125E+02  0.51100000000E-03 0. -1.
        -11    1    4    4    0    0 -0.91830736503E+01  0.29412838117E+01  0.34734491241E+01  0.10249138559E+02  0.51100000000E-03 0.  1.
         12    1    4    4    0    0 -0.15497514509E+02  0.36221730380E+00 -0.13093277206E+02  0.20291329807E+02  0.00000000000E+00 0. -1.
</event>
<event>
 8    1  0.4964753E-012  0.9118800E+02  0.7816164E-02  0.1184000E+00
        -11   -1    0    0    0    0  0.00000000000E+00  0.00000000000E+00  0.45593999997E+02  0.45594000000E+02  0.51100000000E-03 0. -1.
         11   -1    0    0    0    0 -0.00000000000E+00 -0.00000000000E+00 -0.45593999997E+02  0.45594000000E+02  0.51100000000E-03 0.  1.
         23    2    1    2    0    0  0.88817841970E-15  0.00000000000E+00  0.71054273576E-14  0.91188000000E+02  0.91188000000E+02 0.  0.
    9900012    2    3    3    0    0 -0.78541129713E+01  0.65146079575E+01 -0.39357830608E+02  0.50528855425E+02  0.29999986549E+02 0.  0.
         12    1    3    3    0    0  0.78541129713E+01 -0.65146079575E+01  0.39357830608E+02  0.40659144575E+02  0.00000000000E+00 0. -1.
         11    1    4    4    0    0  0.10559974690E+01 -0.66201856011E+01 -0.16326023145E+01  0.68998100427E+01  0.51100000000E-03 0. -1.
        -11    1    4    4    0    0 -0.10797695041E+02  0.49829695914E+01 -0.13456004130E+02  0.17957846518E+02  0.51100000000E-03 0.  1.
        -12    1    4    4    0    0  0.18875846004E+01  0.81518239672E+01 -0.24269224163E+02  0.25671198864E+02  0.00000000000E+00 0.  1.
</event>
<event>
 8    1  0.4964753E-012  0.9118800E+02  0.7816164E-02  0.1184000E+00
        -11   -1    0    0    0    0  0.00000000000E+00  0.00000000000E+00  0.45593999997E+02  0.45594000000E+02  0.51100000000E-03 0. -1.
         11   -1    0    0    0    0 -0.00000000000E+00 -0.00000000000E+00 -0.45593999997E+02  0.45594000000E+02  0.51100000000E-03 0.  1.
         23    2    1    2    0    0  0.44408920985E-15 -0.17763568394E-14  0.00000000000E+00  0.91188000000E+02  0.91188000000E+02 0.  0.
    9900012    2    3    3    0    0 -0.30501908803E+01 -0.98845389871E+01  0.39321212025E+02  0.50528862153E+02  0.30000007000E+02 0.  0.
        -12    1    3    3    0    0  0.30501908803E+01  0.98845389871E+01 -0.39321212025E+02  0.40659137847E+02  0.00000000000E+00 0.  1.
         11    1    4    4    0    0 -0.11362806318E+01  0.35942153544E+01  0.71155113156E+01  0.80523300498E+01  0.51100000000E-03 0. -1.
        -11    1    4    4    0    0 -0.59337453773E+01  0.40435387575E+01  0.22220988296E+01  0.75164661481E+01  0.51100000000E-03 0.  1.
         12    1    4    4    0    0  0.40198351287E+01 -0.17522293099E+02  0.29983601879E+02  0.34960065955E+02  0.00000000000E+00 0. -1.
</event>
<event>
 8    1  0.4964753E-012  0.9118800E+02  0.7816164E-02  0.1184000E+00
        -11   -1    0    0    0    0  0.00000000000E+00  0.00000000000E+00  0.45593999997E+02  0.45594000000E+02  0.51100000000E-03 0.  1.
         11   -1    0    0    0    0 -0.00000000000E+00 -0.00000000000E+00 -0.45593999997E+02  0.45594000000E+02  0.51100000000E-03 0. -1.
         23    2    1    2    0    0  0.00000000000E+00  0.00000000000E+00  0.35527136788E-14  0.91188000000E+02  0.91188000000E+02 0.  0.
    9900012    2    3    3    0    0 -0.33057889540E+02 -0.16118477841E+02 -0.17336017013E+02  0.50528845132E+02  0.29999955263E+02 0.  0.
        -12    1    3    3    0    0  0.33057889540E+02  0.16118477841E+02  0.17336017013E+02  0.40659154868E+02  0.00000000000E+00 0.  1.
         11    1    4    4    0    0 -0.26205707443E+02 -0.10828548246E+02 -0.24532040151E+02  0.37494233609E+02  0.51100000000E-03 0. -1.
        -11    1    4    4    0    0 -0.46617574382E+01 -0.28749825243E+01  0.39349348053E+00  0.54911150332E+01  0.51100000000E-03 0.  1.
         12    1    4    4    0    0 -0.21904246586E+01 -0.24149470703E+01  0.68025296580E+01  0.75434964894E+01  0.00000000000E+00 0. -1.
</event>
<event>
 8    1  0.5031356E-012  0.9118800E+02  0.7816164E-02  0.1184000E+00
        -11   -1    0    0    0    0  0.00000000000E+00  0.00000000000E+00  0.45593999997E+02  0.45594000000E+02  0.51100000000E-03 0. -1.
         11   -1    0    0    0    0 -0.00000000000E+00 -0.00000000000E+00 -0.45593999997E+02  0.45594000000E+02  0.51100000000E-03 0.  1.
         23    2    1    2    0    0  0.00000000000E+00  0.35527136788E-14 -0.71054273576E-14  0.91188000000E+02  0.91188000000E+02 0.  0.
    9900012    2    3    3    0    0 -0.70358604373E+01  0.25319293242E+02 -0.31025737831E+02  0.50528851579E+02  0.29999974859E+02 0.  0.
         12    1    3    3    0    0  0.70358604373E+01 -0.25319293242E+02  0.31025737831E+02  0.40659148421E+02  0.00000000000E+00 0. -1.
         11    1    4    4    0    0  0.90092831218E+00  0.45047481743E+01  0.33820342677E+01  0.57046107656E+01  0.51100000000E-03 0. -1.
        -11    1    4    4    0    0  0.28479569820E+01  0.16113394435E+02 -0.15400848384E+02  0.22470835997E+02  0.51100000000E-03 0.  1.
        -12    1    4    4    0    0 -0.10784745731E+02  0.47011506326E+01 -0.19006923715E+02  0.22353404816E+02  0.00000000000E+00 0.  1.
</event>
<event>
 8    1  0.4964753E-012  0.9118800E+02  0.7816164E-02  0.1184000E+00
        -11   -1    0    0    0    0  0.00000000000E+00  0.00000000000E+00  0.45593999997E+02  0.45594000000E+02  0.51100000000E-03 0. -1.
         11   -1    0    0    0    0 -0.00000000000E+00 -0.00000000000E+00 -0.45593999997E+02  0.45594000000E+02  0.51100000000E-03 0.  1.
         23    2    1    2    0    0  0.00000000000E+00  0.11102230246E-15 -0.71054273576E-14  0.91188000000E+02  0.91188000000E+02 0.  0.
    9900012    2    3    3    0    0 -0.24798492463E+02 -0.72531144826E+00  0.32212947363E+02  0.50528864705E+02  0.30000014758E+02 0.  0.
        -12    1    3    3    0    0  0.24798492463E+02  0.72531144826E+00 -0.32212947363E+02  0.40659135295E+02  0.00000000000E+00 0.  1.
         11    1    4    4    0    0 -0.16139586040E+02  0.65920156918E+01  0.14115683549E+02  0.22431973403E+02  0.51100000000E-03 0. -1.
        -11    1    4    4    0    0 -0.13576841210E+02 -0.70575655495E+01  0.90000894119E+01  0.17752224041E+02  0.51100000000E-03 0.  1.
        -12    1    4    4    0    0  0.49179347869E+01 -0.25976159062E+00  0.90971744017E+01  0.10344667261E+02  0.00000000000E+00 0.  1.
</event>
<event>
 8    1  0.4964753E-012  0.9118800E+02  0.7816164E-02  0.1184000E+00
        -11   -1    0    0    0    0  0.00000000000E+00  0.00000000000E+00  0.45593999997E+02  0.45594000000E+02  0.51100000000E-03 0.  1.
         11   -1    0    0    0    0 -0.00000000000E+00 -0.00000000000E+00 -0.45593999997E+02  0.45594000000E+02  0.51100000000E-03 0. -1.
         23    2    1    2    0    0  0.00000000000E+00  0.00000000000E+00 -0.17763568394E-14  0.91188000000E+02  0.91188000000E+02 0.  0.
    9900012    2    3    3    0    0  0.11088075136E+02  0.37849231984E+02 -0.98821102094E+01  0.50528857434E+02  0.29999992656E+02 0.  0.
         12    1    3    3    0    0 -0.11088075136E+02 -0.37849231984E+02  0.98821102094E+01  0.40659142566E+02  0.00000000000E+00 0. -1.
         11    1    4    4    0    0 -0.59728064300E+01  0.10726671789E+02 -0.24600870238E+01  0.12521498822E+02  0.51100000000E-03 0. -1.
        -11    1    4    4    0    0  0.94095133062E+01  0.27999085739E+02 -0.52031302293E+01  0.29992670893E+02  0.51100000000E-03 0.  1.
         12    1    4    4    0    0  0.76513682598E+01 -0.87652554387E+00 -0.22188929563E+01  0.80146877186E+01  0.00000000000E+00 0. -1.
</event>
<event>
 8    1  0.4964753E-012  0.9118800E+02  0.7816164E-02  0.1184000E+00
        -11   -1    0    0    0    0  0.00000000000E+00  0.00000000000E+00  0.45593999997E+02  0.45594000000E+02  0.51100000000E-03 0. -1.
         11   -1    0    0    0    0 -0.00000000000E+00 -0.00000000000E+00 -0.45593999997E+02  0.45594000000E+02  0.51100000000E-03 0.  1.
         23    2    1    2    0    0  0.00000000000E+00  0.00000000000E+00  0.00000000000E+00  0.91188000000E+02  0.91188000000E+02 0.  0.
    9900012    2    3    3    0    0 -0.42284131365E+01  0.10634998069E+02 -0.39015132632E+02  0.50528889878E+02  0.30000091273E+02 0.  0.
         12    1    3    3    0    0  0.42284131365E+01 -0.10634998069E+02  0.39015132632E+02  0.40659110122E+02  0.00000000000E+00 0. -1.
         11    1    4    4    0    0 -0.10607343210E+02  0.16294524278E+01 -0.65518196228E+01  0.12573670340E+02  0.51100000000E-03 0.  1.
        -11    1    4    4    0    0 -0.35556844302E+01  0.84085689446E+01 -0.20157073696E+02  0.22128139183E+02  0.51100000000E-03 0. -1.
        -12    1    4    4    0    0  0.99346145037E+01  0.59697669665E+00 -0.12306239314E+02  0.15827080355E+02  0.00000000000E+00 0.  1.
</event>
<event>
 8    1  0.4964753E-012  0.9118800E+02  0.7816164E-02  0.1184000E+00
        -11   -1    0    0    0    0  0.00000000000E+00  0.00000000000E+00  0.45593999997E+02  0.45594000000E+02  0.51100000000E-03 0. -1.
         11   -1    0    0    0    0 -0.00000000000E+00 -0.00000000000E+00 -0.45593999997E+02  0.45594000000E+02  0.51100000000E-03 0.  1.
         23    2    1    2    0    0 -0.17763568394E-14  0.17763568394E-14  0.00000000000E+00  0.91188000000E+02  0.91188000000E+02 0.  0.
    9900012    2    3    3    0    0 -0.15635119521E+02 -0.11492848733E+02  0.35729862800E+02  0.50528860435E+02  0.30000001778E+02 0.  0.
        -12    1    3    3    0    0  0.15635119521E+02  0.11492848733E+02 -0.35729862800E+02  0.40659139565E+02  0.00000000000E+00 0.  1.
         11    1    4    4    0    0 -0.88424646101E+01 -0.54696492559E+01  0.92968696420E+01  0.13947689012E+02  0.51100000000E-03 0.  1.
        -11    1    4    4    0    0 -0.15461875590E+02 -0.18644179032E+01  0.14747974564E+02  0.21448739004E+02  0.51100000000E-03 0. -1.
        -12    1    4    4    0    0  0.86692206790E+01 -0.41587815739E+01  0.11685018595E+02  0.15132432419E+02  0.00000000000E+00 0.  1.
</event>
<event>
 8    1  0.4964753E-012  0.9118800E+02  0.7816164E-02  0.1184000E+00
        -11   -1    0    0    0    0  0.00000000000E+00  0.00000000000E+00  0.45593999997E+02  0.45594000000E+02  0.51100000000E-03 0. -1.
         11   -1    0    0    0    0 -0.00000000000E+00 -0.00000000000E+00 -0.45593999997E+02  0.45594000000E+02  0.51100000000E-03 0.  1.
         23    2    1    2    0    0  0.17763568394E-14 -0.33306690739E-15  0.00000000000E+00  0.91188000000E+02  0.91188000000E+02 0.  0.
    9900012    2    3    3    0    0 -0.15181238955E+02 -0.68398434235E+00  0.37712372189E+02  0.50528919010E+02  0.30000179823E+02 0.  0.
        -12    1    3    3    0    0  0.15181238955E+02  0.68398434235E+00 -0.37712372189E+02  0.40659080990E+02  0.00000000000E+00 0.  1.
         11    1    4    4    0    0 -0.56470108931E-01 -0.42950690148E+01  0.24155029973E+01  0.49280281763E+01  0.51100000000E-03 0. -1.
        -11    1    4    4    0    0 -0.11158661827E+02  0.38169390347E+01  0.18721899178E+01  0.11941099310E+02  0.51100000000E-03 0.  1.
         12    1    4    4    0    0 -0.39661070185E+01 -0.20585436228E+00  0.33424679274E+02  0.33659791525E+02  0.00000000000E+00 0. -1.
</event>
<event>
 8    1  0.4964753E-012  0.9118800E+02  0.7816164E-02  0.1184000E+00
        -11   -1    0    0    0    0  0.00000000000E+00  0.00000000000E+00  0.45593999997E+02  0.45594000000E+02  0.51100000000E-03 0. -1.
         11   -1    0    0    0    0 -0.00000000000E+00 -0.00000000000E+00 -0.45593999997E+02  0.45594000000E+02  0.51100000000E-03 0.  1.
         23    2    1    2    0    0  0.00000000000E+00 -0.35527136788E-14  0.00000000000E+00  0.91188000000E+02  0.91188000000E+02 0.  0.
    9900012    2    3    3    0    0  0.24062616028E+02  0.22833802011E+02 -0.23511145509E+02  0.50528856286E+02  0.29999989168E+02 0.  0.
         12    1    3    3    0    0 -0.24062616028E+02 -0.22833802011E+02  0.23511145509E+02  0.40659143714E+02  0.00000000000E+00 0. -1.
         11    1    4    4    0    0  0.11024189040E+02  0.14603885853E+02  0.63232324517E-01  0.18297820214E+02  0.51100000000E-03 0. -1.
        -11    1    4    4    0    0  0.11427611890E+02  0.12496531320E+02 -0.15494044467E+02  0.22952538482E+02  0.51100000000E-03 0.  1.
         12    1    4    4    0    0  0.16108150975E+01 -0.42666151621E+01 -0.80803333663E+01  0.92784975901E+01  0.00000000000E+00 0. -1.
</event>
<event>
 8    1  0.4964753E-012  0.9118800E+02  0.7816164E-02  0.1184000E+00
        -11   -1    0    0    0    0  0.00000000000E+00  0.00000000000E+00  0.45593999997E+02  0.45594000000E+02  0.51100000000E-03 0. -1.
         11   -1    0    0    0    0 -0.00000000000E+00 -0.00000000000E+00 -0.45593999997E+02  0.45594000000E+02  0.51100000000E-03 0.  1.
         23    2    1    2    0    0 -0.88817841970E-15 -0.53290705182E-14  0.00000000000E+00  0.91188000000E+02  0.91188000000E+02 0.  0.
    9900012    2    3    3    0    0  0.71118022095E+01  0.11878886879E+02 -0.38229307319E+02  0.50528860533E+02  0.30000002075E+02 0.  0.
         12    1    3    3    0    0 -0.71118022095E+01 -0.11878886879E+02  0.38229307319E+02  0.40659139467E+02  0.00000000000E+00 0. -1.
         11    1    4    4    0    0 -0.60456617085E+00  0.92335622853E+00  0.26628020782E+01  0.28824645963E+01  0.51100000000E-03 0. -1.
        -11    1    4    4    0    0  0.13518460429E+01  0.15856012642E+02 -0.22324351450E+02  0.27415639562E+02  0.51100000000E-03 0.  1.
        -12    1    4    4    0    0  0.63645223375E+01 -0.49004819913E+01 -0.18567757947E+02  0.20230756375E+02  0.00000000000E+00 0.  1.
</event>
<event>
 8    1  0.4964753E-012  0.9118800E+02  0.7816164E-02  0.1184000E+00
        -11   -1    0    0    0    0  0.00000000000E+00  0.00000000000E+00  0.45593999997E+02  0.45594000000E+02  0.51100000000E-03 0. -1.
         11   -1    0    0    0    0 -0.00000000000E+00 -0.00000000000E+00 -0.45593999997E+02  0.45594000000E+02  0.51100000000E-03 0.  1.
         23    2    1    2    0    0  0.00000000000E+00  0.00000000000E+00  0.00000000000E+00  0.91188000000E+02  0.91188000000E+02 0.  0.
    9900012    2    3    3    0    0  0.81998982020E+01  0.38495122165E+02  0.10200626021E+02  0.50528861639E+02  0.30000005438E+02 0.  0.
        -12    1    3    3    0    0 -0.81998982020E+01 -0.38495122165E+02 -0.10200626021E+02  0.40659138361E+02  0.00000000000E+00 0.  1.
         11    1    4    4    0    0  0.10398870275E+01  0.32362495016E+01 -0.63819968508E+01  0.72308063127E+01  0.51100000000E-03 0. -1.
        -11    1    4    4    0    0 -0.55471962961E+01  0.82854560094E+01  0.22797170840E+01  0.10228258810E+02  0.51100000000E-03 0.  1.
         12    1    4    4    0    0  0.12707207471E+02  0.26973416654E+02  0.14302905788E+02  0.33069796517E+02  0.00000000000E+00 0. -1.
</event>
<event>
 8    1  0.4964753E-012  0.9118800E+02  0.7816164E-02  0.1184000E+00
        -11   -1    0    0    0    0  0.00000000000E+00  0.00000000000E+00  0.45593999997E+02  0.45594000000E+02  0.51100000000E-03 0. -1.
         11   -1    0    0    0    0 -0.00000000000E+00 -0.00000000000E+00 -0.45593999997E+02  0.45594000000E+02  0.51100000000E-03 0.  1.
         23    2    1    2    0    0  0.00000000000E+00  0.00000000000E+00 -0.35527136788E-14  0.91188000000E+02  0.91188000000E+02 0.  0.
    9900012    2    3    3    0    0  0.17080561065E+02  0.25476357150E+02 -0.26690360236E+02  0.50528859952E+02  0.30000000310E+02 0.  0.
         12    1    3    3    0    0 -0.17080561065E+02 -0.25476357150E+02  0.26690360236E+02  0.40659140048E+02  0.00000000000E+00 0. -1.
         11    1    4    4    0    0  0.44953345833E+00 -0.45884314540E+01 -0.42084449910E+00  0.46295673547E+01  0.51100000000E-03 0. -1.
        -11    1    4    4    0    0  0.94086081120E+01  0.38187677613E+01 -0.48072254855E+01  0.11234514273E+02  0.51100000000E-03 0.  1.
        -12    1    4    4    0    0  0.72224194949E+01  0.26246020843E+02 -0.21462290251E+02  0.34664778324E+02  0.00000000000E+00 0.  1.
</event>
<event>
 8    1  0.4964753E-012  0.9118800E+02  0.7816164E-02  0.1184000E+00
        -11   -1    0    0    0    0  0.00000000000E+00  0.00000000000E+00  0.45593999997E+02  0.45594000000E+02  0.51100000000E-03 0. -1.
         11   -1    0    0    0    0 -0.00000000000E+00 -0.00000000000E+00 -0.45593999997E+02  0.45594000000E+02  0.51100000000E-03 0.  1.
         23    2    1    2    0    0  0.00000000000E+00  0.00000000000E+00 -0.71054273576E-14  0.91188000000E+02  0.91188000000E+02 0.  0.
    9900012    2    3    3    0    0 -0.66298459672E+01  0.99851423885E+01 -0.38852398113E+02  0.50528846477E+02  0.29999959352E+02 0.  0.
         12    1    3    3    0    0  0.66298459672E+01 -0.99851423885E+01  0.38852398113E+02  0.40659153523E+02  0.00000000000E+00 0. -1.
         11    1    4    4    0    0 -0.14328650130E+02  0.66855472999E+01 -0.38314892957E+02  0.41449219291E+02  0.51100000000E-03 0.  1.
        -11    1    4    4    0    0  0.27757814152E+01  0.21493916330E+01  0.12361117487E+01  0.37219375832E+01  0.51100000000E-03 0. -1.
        -12    1    4    4    0    0  0.49230227472E+01  0.11502034556E+01 -0.17736169045E+01  0.53576896031E+01  0.00000000000E+00 0.  1.
</event>
<event>
 8    1  0.4964753E-012  0.9118800E+02  0.7816164E-02  0.1184000E+00
        -11   -1    0    0    0    0  0.00000000000E+00  0.00000000000E+00  0.45593999997E+02  0.45594000000E+02  0.51100000000E-03 0. -1.
         11   -1    0    0    0    0 -0.00000000000E+00 -0.00000000000E+00 -0.45593999997E+02  0.45594000000E+02  0.51100000000E-03 0.  1.
         23    2    1    2    0    0  0.35527136788E-14  0.00000000000E+00  0.00000000000E+00  0.91188000000E+02  0.91188000000E+02 0.  0.
    9900012    2    3    3    0    0 -0.25686729800E+02  0.13622296533E+02  0.28421654900E+02  0.50528861815E+02  0.30000005974E+02 0.  0.
        -12    1    3    3    0    0  0.25686729800E+02 -0.13622296533E+02 -0.28421654900E+02  0.40659138185E+02  0.00000000000E+00 0.  1.
         11    1    4    4    0    0 -0.62500584356E+01  0.77652620568E+01  0.45557140746E+01  0.10959792710E+02  0.51100000000E-03 0. -1.
        -11    1    4    4    0    0 -0.74625973842E+01 -0.48717085471E+01 -0.19812618078E+01  0.91295839171E+01  0.51100000000E-03 0.  1.
         12    1    4    4    0    0 -0.11974073980E+02  0.10728743023E+02  0.25847202634E+02  0.30439485188E+02  0.00000000000E+00 0. -1.
</event>
<event>
 8    1  0.4964753E-012  0.9118800E+02  0.7816164E-02  0.1184000E+00
        -11   -1    0    0    0    0  0.00000000000E+00  0.00000000000E+00  0.45593999997E+02  0.45594000000E+02  0.51100000000E-03 0. -1.
         11   -1    0    0    0    0 -0.00000000000E+00 -0.00000000000E+00 -0.45593999997E+02  0.45594000000E+02  0.51100000000E-03 0.  1.
         23    2    1    2    0    0 -0.17763568394E-14  0.35527136788E-14 -0.35527136788E-14  0.91188000000E+02  0.91188000000E+02 0.  0.
    9900012    2    3    3    0    0 -0.11455216320E+02  0.26741841254E+02 -0.28404559879E+02  0.50528842648E+02  0.29999947714E+02 0.  0.
         12    1    3    3    0    0  0.11455216320E+02 -0.26741841254E+02  0.28404559879E+02  0.40659157352E+02  0.00000000000E+00 0. -1.
         11    1    4    4    0    0 -0.11766388419E+02 -0.10250026464E+01 -0.23907981468E+01  0.12050495546E+02  0.51100000000E-03 0. -1.
        -11    1    4    4    0    0 -0.18305934072E+01  0.13588710286E+02 -0.99216749268E+01  0.16924649275E+02  0.51100000000E-03 0.  1.
        -12    1    4    4    0    0  0.21417655065E+01  0.14178133615E+02 -0.16092086806E+02  0.21553697828E+02  0.00000000000E+00 0.  1.
</event>
<event>
 8    1  0.4964753E-012  0.9118800E+02  0.7816164E-02  0.1184000E+00
        -11   -1    0    0    0    0  0.00000000000E+00  0.00000000000E+00  0.45593999997E+02  0.45594000000E+02  0.51100000000E-03 0. -1.
         11   -1    0    0    0    0 -0.00000000000E+00 -0.00000000000E+00 -0.45593999997E+02  0.45594000000E+02  0.51100000000E-03 0.  1.
         23    2    1    2    0    0  0.00000000000E+00  0.17763568394E-14  0.00000000000E+00  0.91188000000E+02  0.91188000000E+02 0.  0.
    9900012    2    3    3    0    0  0.35630525441E+02  0.82772570399E+01 -0.17751588308E+02  0.50528853247E+02  0.29999979928E+02 0.  0.
         12    1    3    3    0    0 -0.35630525441E+02 -0.82772570399E+01  0.17751588308E+02  0.40659146753E+02  0.00000000000E+00 0. -1.
         11    1    4    4    0    0 -0.25500928258E+00 -0.73674117465E+00  0.31418811539E+01  0.32371646141E+01  0.51100000000E-03 0. -1.
        -11    1    4    4    0    0  0.22561770895E+02 -0.29101958977E+01 -0.48308847574E+01  0.23255971144E+02  0.51100000000E-03 0.  1.
        -12    1    4    4    0    0  0.13323763828E+02  0.11924194112E+02 -0.16062584704E+02  0.24035717488E+02  0.00000000000E+00 0.  1.
</event>
<event>
 8    1  0.4964753E-012  0.9118800E+02  0.7816164E-02  0.1184000E+00
        -11   -1    0    0    0    0  0.00000000000E+00  0.00000000000E+00  0.45593999997E+02  0.45594000000E+02  0.51100000000E-03 0. -1.
         11   -1    0    0    0    0 -0.00000000000E+00 -0.00000000000E+00 -0.45593999997E+02  0.45594000000E+02  0.51100000000E-03 0.  1.
         23    2    1    2    0    0  0.88817841970E-15  0.17763568394E-14 -0.71054273576E-14  0.91188000000E+02  0.91188000000E+02 0.  0.
    9900012    2    3    3    0    0 -0.72215473293E+01 -0.11059995443E+02  0.38453757488E+02  0.50528859453E+02  0.29999998794E+02 0.  0.
        -12    1    3    3    0    0  0.72215473293E+01  0.11059995443E+02 -0.38453757488E+02  0.40659140547E+02  0.00000000000E+00 0.  1.
         11    1    4    4    0    0 -0.22767867699E+01 -0.12306158974E+02  0.16065003171E+02  0.20364420783E+02  0.51100000000E-03 0. -1.
        -11    1    4    4    0    0 -0.11635564114E+01  0.28198644139E+01 -0.30997283843E+01  0.43490016271E+01  0.51100000000E-03 0.  1.
         12    1    4    4    0    0 -0.37812041480E+01 -0.15737008827E+01  0.25488482702E+02  0.25815437043E+02  0.00000000000E+00 0. -1.
</event>
<event>
 8    1  0.4964753E-012  0.9118800E+02  0.7816164E-02  0.1184000E+00
        -11   -1    0    0    0    0  0.00000000000E+00  0.00000000000E+00  0.45593999997E+02  0.45594000000E+02  0.51100000000E-03 0. -1.
         11   -1    0    0    0    0 -0.00000000000E+00 -0.00000000000E+00 -0.45593999997E+02  0.45594000000E+02  0.51100000000E-03 0.  1.
         23    2    1    2    0    0 -0.35527136788E-14  0.31086244690E-14 -0.35527136788E-14  0.91188000000E+02  0.91188000000E+02 0.  0.
    9900012    2    3    3    0    0  0.25336080784E+02  0.22744508429E+01  0.31718691516E+02  0.50528861942E+02  0.30000006359E+02 0.  0.
        -12    1    3    3    0    0 -0.25336080784E+02 -0.22744508429E+01 -0.31718691516E+02  0.40659138058E+02  0.00000000000E+00 0.  1.
         11    1    4    4    0    0  0.84005946603E+01  0.43626123245E+00  0.92490694369E+01  0.12502223811E+02  0.51100000000E-03 0.  1.
        -11    1    4    4    0    0  0.11675433926E+02  0.11931481683E+02  0.54667105178E+01  0.17565902671E+02  0.51100000000E-03 0. -1.
        -12    1    4    4    0    0  0.52600521973E+01 -0.10093292073E+02  0.17002911561E+02  0.20460735460E+02  0.00000000000E+00 0.  1.
</event>
<event>
 8    1  0.4964753E-012  0.9118800E+02  0.7816164E-02  0.1184000E+00
        -11   -1    0    0    0    0  0.00000000000E+00  0.00000000000E+00  0.45593999997E+02  0.45594000000E+02  0.51100000000E-03 0. -1.
         11   -1    0    0    0    0 -0.00000000000E+00 -0.00000000000E+00 -0.45593999997E+02  0.45594000000E+02  0.51100000000E-03 0.  1.
         23    2    1    2    0    0 -0.13322676296E-14 -0.17763568394E-14  0.00000000000E+00  0.91188000000E+02  0.91188000000E+02 0.  0.
    9900012    2    3    3    0    0 -0.68187136101E+00  0.92129726219E+01  0.39595714455E+02  0.50528875362E+02  0.30000047151E+02 0.  0.
        -12    1    3    3    0    0  0.68187136101E+00 -0.92129726219E+01 -0.39595714455E+02  0.40659124638E+02  0.00000000000E+00 0.  1.
         11    1    4    4    0    0 -0.35777689141E+01  0.80839976214E+01  0.25440404330E+02  0.26932612586E+02  0.51100000000E-03 0. -1.
        -11    1    4    4    0    0 -0.77026297219E+01  0.85457392038E+00  0.33021296947E+01  0.84240644584E+01  0.51100000000E-03 0.  1.
         12    1    4    4    0    0  0.10598527275E+02  0.27440108010E+00  0.10853180430E+02  0.15172198318E+02  0.00000000000E+00 0. -1.
</event>
<event>
 8    1  0.7618468E-012  0.9118800E+02  0.7816164E-02  0.1184000E+00
        -11   -1    0    0    0    0  0.00000000000E+00  0.00000000000E+00  0.45593999997E+02  0.45594000000E+02  0.51100000000E-03 0. -1.
         11   -1    0    0    0    0 -0.00000000000E+00 -0.00000000000E+00 -0.45593999997E+02  0.45594000000E+02  0.51100000000E-03 0.  1.
         23    2    1    2    0    0  0.00000000000E+00  0.00000000000E+00 -0.35527136788E-14  0.91188000000E+02  0.91188000000E+02 0.  0.
    9900012    2    3    3    0    0  0.22582359202E+02  0.11013867389E+02 -0.31967132251E+02  0.50528858760E+02  0.29999996688E+02 0.  0.
         12    1    3    3    0    0 -0.22582359202E+02 -0.11013867389E+02  0.31967132251E+02  0.40659141240E+02  0.00000000000E+00 0. -1.
         11    1    4    4    0    0  0.14146177891E+02 -0.19246156789E+01 -0.88471656519E+01  0.16795559971E+02  0.51100000000E-03 0. -1.
        -11    1    4    4    0    0  0.27329028618E+01  0.26339162870E+01 -0.21514564880E+02  0.21846802405E+02  0.51100000000E-03 0.  1.
         12    1    4    4    0    0  0.57032784500E+01  0.10304566781E+02 -0.16054017189E+01  0.11886496384E+02  0.00000000000E+00 0. -1.
</event>
<event>
 8    1  0.4964753E-012  0.9118800E+02  0.7816164E-02  0.1184000E+00
        -11   -1    0    0    0    0  0.00000000000E+00  0.00000000000E+00  0.45593999997E+02  0.45594000000E+02  0.51100000000E-03 0.  1.
         11   -1    0    0    0    0 -0.00000000000E+00 -0.00000000000E+00 -0.45593999997E+02  0.45594000000E+02  0.51100000000E-03 0. -1.
         23    2    1    2    0    0  0.44408920985E-15  0.00000000000E+00  0.00000000000E+00  0.91188000000E+02  0.91188000000E+02 0.  0.
    9900012    2    3    3    0    0 -0.37126121515E+01  0.35233571369E+02  0.19949311105E+02  0.50528892115E+02  0.30000098074E+02 0.  0.
        -12    1    3    3    0    0  0.37126121515E+01 -0.35233571369E+02 -0.19949311105E+02  0.40659107885E+02  0.00000000000E+00 0.  1.
         11    1    4    4    0    0  0.76306698909E+01  0.26844692118E+02  0.96553148906E+01  0.29531165297E+02  0.51100000000E-03 0. -1.
        -11    1    4    4    0    0 -0.30215874131E+01  0.55535122689E+01 -0.12928582971E+01  0.64531365903E+01  0.51100000000E-03 0.  1.
         12    1    4    4    0    0 -0.83216946294E+01  0.28353669817E+01  0.11586854512E+02  0.14544590228E+02  0.00000000000E+00 0. -1.
</event>
<event>
 8    1  0.4964753E-012  0.9118800E+02  0.7816164E-02  0.1184000E+00
        -11   -1    0    0    0    0  0.00000000000E+00  0.00000000000E+00  0.45593999997E+02  0.45594000000E+02  0.51100000000E-03 0.  1.
         11   -1    0    0    0    0 -0.00000000000E+00 -0.00000000000E+00 -0.45593999997E+02  0.45594000000E+02  0.51100000000E-03 0. -1.
         23    2    1    2    0    0  0.00000000000E+00  0.35527136788E-14  0.00000000000E+00  0.91188000000E+02  0.91188000000E+02 0.  0.
    9900012    2    3    3    0    0 -0.27514062978E+02  0.28523279355E+02  0.90865564589E+01  0.50528848078E+02  0.29999964217E+02 0.  0.
        -12    1    3    3    0    0  0.27514062978E+02 -0.28523279355E+02 -0.90865564589E+01  0.40659151922E+02  0.00000000000E+00 0.  1.
         11    1    4    4    0    0 -0.13263914391E+02  0.16678115502E+02  0.18476818457E+01  0.21389363948E+02  0.51100000000E-03 0. -1.
        -11    1    4    4    0    0  0.18098317413E+01  0.10732427442E+02 -0.12231735299E+01  0.10952472026E+02  0.51100000000E-03 0.  1.
        -12    1    4    4    0    0 -0.16059980329E+02  0.11127364115E+01  0.84620481432E+01  0.18187012104E+02  0.00000000000E+00 0.  1.
</event>
<event>
 8    1  0.4964753E-012  0.9118800E+02  0.7816164E-02  0.1184000E+00
        -11   -1    0    0    0    0  0.00000000000E+00  0.00000000000E+00  0.45593999997E+02  0.45594000000E+02  0.51100000000E-03 0. -1.
         11   -1    0    0    0    0 -0.00000000000E+00 -0.00000000000E+00 -0.45593999997E+02  0.45594000000E+02  0.51100000000E-03 0.  1.
         23    2    1    2    0    0 -0.35527136788E-14 -0.13322676296E-14  0.71054273576E-14  0.91188000000E+02  0.91188000000E+02 0.  0.
    9900012    2    3    3    0    0 -0.28017495430E+02 -0.24675392991E+01  0.29361502518E+02  0.50528848134E+02  0.29999964388E+02 0.  0.
        -12    1    3    3    0    0  0.28017495430E+02  0.24675392991E+01 -0.29361502518E+02  0.40659151866E+02  0.00000000000E+00 0.  1.
         11    1    4    4    0    0 -0.18830362969E+01  0.74340957096E+01  0.88547423881E+01  0.11714011599E+02  0.51100000000E-03 0.  1.
        -11    1    4    4    0    0 -0.12629176545E+02 -0.91352192046E+01  0.19895416777E+02  0.25274017075E+02  0.51100000000E-03 0. -1.
         12    1    4    4    0    0 -0.13505282588E+02 -0.76641580417E+00  0.61134335298E+00  0.13540819460E+02  0.00000000000E+00 0. -1.
</event>
<event>
 8    1  0.4964753E-012  0.9118800E+02  0.7816164E-02  0.1184000E+00
        -11   -1    0    0    0    0  0.00000000000E+00  0.00000000000E+00  0.45593999997E+02  0.45594000000E+02  0.51100000000E-03 0.  1.
         11   -1    0    0    0    0 -0.00000000000E+00 -0.00000000000E+00 -0.45593999997E+02  0.45594000000E+02  0.51100000000E-03 0. -1.
         23    2    1    2    0    0 -0.71054273576E-14  0.00000000000E+00  0.00000000000E+00  0.91188000000E+02  0.91188000000E+02 0.  0.
    9900012    2    3    3    0    0  0.33279650905E+02  0.82262950788E+01  0.21862161807E+02  0.50528914743E+02  0.30000166852E+02 0.  0.
        -12    1    3    3    0    0 -0.33279650905E+02 -0.82262950788E+01 -0.21862161807E+02  0.40659085257E+02  0.00000000000E+00 0.  1.
         11    1    4    4    0    0  0.77594910412E+01 -0.39534162370E+01 -0.17809467013E+01  0.88888116515E+01  0.51100000000E-03 0. -1.
        -11    1    4    4    0    0  0.68136405947E+01  0.27380143243E+01  0.18729381336E+02  0.20117458738E+02  0.51100000000E-03 0.  1.
         12    1    4    4    0    0  0.18706519269E+02  0.94416969915E+01  0.49137271720E+01  0.21522644354E+02  0.00000000000E+00 0. -1.
</event>
<event>
 8    1  0.4964753E-012  0.9118800E+02  0.7816164E-02  0.1184000E+00
        -11   -1    0    0    0    0  0.00000000000E+00  0.00000000000E+00  0.45593999997E+02  0.45594000000E+02  0.51100000000E-03 0. -1.
         11   -1    0    0    0    0 -0.00000000000E+00 -0.00000000000E+00 -0.45593999997E+02  0.45594000000E+02  0.51100000000E-03 0.  1.
         23    2    1    2    0    0  0.00000000000E+00 -0.17763568394E-14  0.00000000000E+00  0.91188000000E+02  0.91188000000E+02 0.  0.
    9900012    2    3    3    0    0 -0.11522527365E+02  0.14081433215E+02  0.36360855718E+02  0.50528840800E+02  0.29999942096E+02 0.  0.
        -12    1    3    3    0    0  0.11522527365E+02 -0.14081433215E+02 -0.36360855718E+02  0.40659159200E+02  0.00000000000E+00 0.  1.
         11    1    4    4    0    0 -0.77441944700E+01 -0.13441456142E+01  0.24023905273E+01  0.82189266896E+01  0.51100000000E-03 0. -1.
        -11    1    4    4    0    0 -0.25723767333E+00 -0.64807560148E+00 -0.23476329450E+01  0.24489903861E+01  0.51100000000E-03 0.  1.
         12    1    4    4    0    0 -0.35210952217E+01  0.16073654430E+02  0.36306098136E+02  0.39860923725E+02  0.00000000000E+00 0. -1.
</event>
<event>
 8    1  0.4964753E-012  0.9118800E+02  0.7816164E-02  0.1184000E+00
        -11   -1    0    0    0    0  0.00000000000E+00  0.00000000000E+00  0.45593999997E+02  0.45594000000E+02  0.51100000000E-03 0. -1.
         11   -1    0    0    0    0 -0.00000000000E+00 -0.00000000000E+00 -0.45593999997E+02  0.45594000000E+02  0.51100000000E-03 0.  1.
         23    2    1    2    0    0  0.00000000000E+00  0.71054273576E-14  0.00000000000E+00  0.91188000000E+02  0.91188000000E+02 0.  0.
    9900012    2    3    3    0    0 -0.60077491083E+01 -0.33206382169E+02 -0.22680619563E+02  0.50528839041E+02  0.29999936750E+02 0.  0.
         12    1    3    3    0    0  0.60077491083E+01  0.33206382169E+02  0.22680619563E+02  0.40659160959E+02  0.00000000000E+00 0. -1.
         11    1    4    4    0    0 -0.90416457372E+00 -0.15189650426E+02 -0.23781641937E+01  0.15401255106E+02  0.51100000000E-03 0. -1.
        -11    1    4    4    0    0  0.34165655345E+01 -0.18466235038E+02 -0.18591508300E+02  0.26425724922E+02  0.51100000000E-03 0.  1.
        -12    1    4    4    0    0 -0.85201500691E+01  0.44950329538E+00 -0.17109470691E+01  0.87018590133E+01  0.00000000000E+00 0.  1.
</event>
<event>
 8    1  0.4964753E-012  0.9118800E+02  0.7816164E-02  0.1184000E+00
        -11   -1    0    0    0    0  0.00000000000E+00  0.00000000000E+00  0.45593999997E+02  0.45594000000E+02  0.51100000000E-03 0. -1.
         11   -1    0    0    0    0 -0.00000000000E+00 -0.00000000000E+00 -0.45593999997E+02  0.45594000000E+02  0.51100000000E-03 0.  1.
         23    2    1    2    0    0 -0.33306690739E-15  0.00000000000E+00  0.00000000000E+00  0.91188000000E+02  0.91188000000E+02 0.  0.
    9900012    2    3    3    0    0 -0.92356349681E+00 -0.24944048050E+02  0.32095285435E+02  0.50528857734E+02  0.29999993569E+02 0.  0.
        -12    1    3    3    0    0  0.92356349681E+00  0.24944048050E+02 -0.32095285435E+02  0.40659142266E+02  0.00000000000E+00 0.  1.
         11    1    4    4    0    0 -0.39785079385E+01  0.23698331320E+01  0.16799363561E+02  0.17425936153E+02  0.51100000000E-03 0. -1.
        -11    1    4    4    0    0  0.33997679936E+01 -0.14183335862E+02  0.13447618632E+02  0.19838444639E+02  0.51100000000E-03 0.  1.
        -12    1    4    4    0    0 -0.34482355198E+00 -0.13130545320E+02  0.18483032427E+01  0.13264476943E+02  0.00000000000E+00 0.  1.
</event>
<event>
 8    1  0.4964753E-012  0.9118800E+02  0.7816164E-02  0.1184000E+00
        -11   -1    0    0    0    0  0.00000000000E+00  0.00000000000E+00  0.45593999997E+02  0.45594000000E+02  0.51100000000E-03 0. -1.
         11   -1    0    0    0    0 -0.00000000000E+00 -0.00000000000E+00 -0.45593999997E+02  0.45594000000E+02  0.51100000000E-03 0.  1.
         23    2    1    2    0    0 -0.17763568394E-14 -0.88817841970E-15 -0.71054273576E-14  0.91188000000E+02  0.91188000000E+02 0.  0.
    9900012    2    3    3    0    0 -0.11657591376E+02 -0.64589264979E+01 -0.38412871343E+02  0.50528857695E+02  0.29999993449E+02 0.  0.
         12    1    3    3    0    0  0.11657591376E+02  0.64589264979E+01  0.38412871343E+02  0.40659142305E+02  0.00000000000E+00 0. -1.
         11    1    4    4    0    0  0.62564451401E+01 -0.22603947165E+01 -0.13893500931E+02  0.15403955935E+02  0.51100000000E-03 0. -1.
        -11    1    4    4    0    0 -0.13614758862E+02 -0.60830081729E+01 -0.26193844549E+02  0.30141037471E+02  0.51100000000E-03 0.  1.
         12    1    4    4    0    0 -0.42992776541E+01  0.18844763916E+01  0.16744741368E+01  0.49838642891E+01  0.00000000000E+00 0. -1.
</event>
<event>
 8    1  0.4964753E-012  0.9118800E+02  0.7816164E-02  0.1184000E+00
        -11   -1    0    0    0    0  0.00000000000E+00  0.00000000000E+00  0.45593999997E+02  0.45594000000E+02  0.51100000000E-03 0. -1.
         11   -1    0    0    0    0 -0.00000000000E+00 -0.00000000000E+00 -0.45593999997E+02  0.45594000000E+02  0.51100000000E-03 0.  1.
         23    2    1    2    0    0  0.00000000000E+00  0.00000000000E+00 -0.17763568394E-14  0.91188000000E+02  0.91188000000E+02 0.  0.
    9900012    2    3    3    0    0 -0.37396608187E+02  0.56746737924E+01  0.14915023462E+02  0.50528854025E+02  0.29999982293E+02 0.  0.
        -12    1    3    3    0    0  0.37396608187E+02 -0.56746737924E+01 -0.14915023462E+02  0.40659145975E+02  0.00000000000E+00 0.  1.
         11    1    4    4    0    0  0.10131559444E+01 -0.42554078784E+01  0.61666067253E+01  0.75605568541E+01  0.51100000000E-03 0. -1.
        -11    1    4    4    0    0 -0.22337672856E+02  0.82379034713E+01  0.11719686009E+02  0.26536497935E+02  0.51100000000E-03 0.  1.
        -12    1    4    4    0    0 -0.16072091276E+02  0.16921781995E+01 -0.29712692719E+01  0.16431799236E+02  0.00000000000E+00 0.  1.
</event>
<event>
 8    1  0.4964753E-012  0.9118800E+02  0.7816164E-02  0.1184000E+00
        -11   -1    0    0    0    0  0.00000000000E+00  0.00000000000E+00  0.45593999997E+02  0.45594000000E+02  0.51100000000E-03 0. -1.
         11   -1    0    0    0    0 -0.00000000000E+00 -0.00000000000E+00 -0.45593999997E+02  0.45594000000E+02  0.51100000000E-03 0.  1.
         23    2    1    2    0    0  0.88817841970E-15  0.00000000000E+00  0.00000000000E+00  0.91188000000E+02  0.91188000000E+02 0.  0.
    9900012    2    3    3    0    0  0.47946855527E+01  0.31030937173E+02  0.25831328978E+02  0.50528860460E+02  0.30000001854E+02 0.  0.
        -12    1    3    3    0    0 -0.47946855527E+01 -0.31030937173E+02 -0.25831328978E+02  0.40659139540E+02  0.00000000000E+00 0.  1.
         11    1    4    4    0    0  0.94554785558E+01  0.17123639961E+02  0.15665341645E+02  0.25060487812E+02  0.51100000000E-03 0. -1.
        -11    1    4    4    0    0 -0.19497886526E+01  0.13160177073E+02 -0.15737032103E+01  0.13396584581E+02  0.51100000000E-03 0.  1.
         12    1    4    4    0    0 -0.27110043505E+01  0.74712013831E+00  0.11739690543E+02  0.12071788067E+02  0.00000000000E+00 0. -1.
</event>
<event>
 8    1  0.4964753E-012  0.9118800E+02  0.7816164E-02  0.1184000E+00
        -11   -1    0    0    0    0  0.00000000000E+00  0.00000000000E+00  0.45593999997E+02  0.45594000000E+02  0.51100000000E-03 0. -1.
         11   -1    0    0    0    0 -0.00000000000E+00 -0.00000000000E+00 -0.45593999997E+02  0.45594000000E+02  0.51100000000E-03 0.  1.
         23    2    1    2    0    0  0.00000000000E+00  0.00000000000E+00  0.00000000000E+00  0.91188000000E+02  0.91188000000E+02 0.  0.
    9900012    2    3    3    0    0 -0.20291778005E+02  0.24009712638E+02 -0.25786491449E+02  0.50528859616E+02  0.29999999287E+02 0.  0.
         12    1    3    3    0    0  0.20291778005E+02 -0.24009712638E+02  0.25786491449E+02  0.40659140384E+02  0.00000000000E+00 0. -1.
         11    1    4    4    0    0 -0.10183493746E+02  0.89622620230E+01  0.86480663070E+00  0.13593144456E+02  0.51100000000E-03 0. -1.
        -11    1    4    4    0    0  0.51658945121E+01  0.23192611360E+01 -0.52111992412E+01  0.76955854955E+01  0.51100000000E-03 0.  1.
         12    1    4    4    0    0 -0.15274178771E+02  0.12728189479E+02 -0.21440098839E+02  0.29240129664E+02  0.00000000000E+00 0. -1.
</event>
<event>
 8    1  0.4964753E-012  0.9118800E+02  0.7816164E-02  0.1184000E+00
        -11   -1    0    0    0    0  0.00000000000E+00  0.00000000000E+00  0.45593999997E+02  0.45594000000E+02  0.51100000000E-03 0. -1.
         11   -1    0    0    0    0 -0.00000000000E+00 -0.00000000000E+00 -0.45593999997E+02  0.45594000000E+02  0.51100000000E-03 0.  1.
         23    2    1    2    0    0  0.35527136788E-14 -0.17763568394E-14 -0.35527136788E-14  0.91188000000E+02  0.91188000000E+02 0.  0.
    9900012    2    3    3    0    0  0.28819099177E+02 -0.14686668461E+02 -0.24635879932E+02  0.50528864644E+02  0.30000014573E+02 0.  0.
         12    1    3    3    0    0 -0.28819099177E+02  0.14686668461E+02  0.24635879932E+02  0.40659135356E+02  0.00000000000E+00 0. -1.
         11    1    4    4    0    0  0.16191719053E+01 -0.88981146377E+01 -0.10487772448E+02  0.13848882011E+02  0.51100000000E-03 0. -1.
        -11    1    4    4    0    0  0.78151994340E+00  0.26043652406E+01 -0.77756695254E+01  0.82373860270E+01  0.51100000000E-03 0.  1.
         12    1    4    4    0    0  0.26418407328E+02 -0.83929190637E+01 -0.63724379580E+01  0.28442596606E+02  0.00000000000E+00 0. -1.
</event>
<event>
 8    1  0.4964753E-012  0.9118800E+02  0.7816164E-02  0.1184000E+00
        -11   -1    0    0    0    0  0.00000000000E+00  0.00000000000E+00  0.45593999997E+02  0.45594000000E+02  0.51100000000E-03 0. -1.
         11   -1    0    0    0    0 -0.00000000000E+00 -0.00000000000E+00 -0.45593999997E+02  0.45594000000E+02  0.51100000000E-03 0.  1.
         23    2    1    2    0    0 -0.26645352591E-14 -0.17763568394E-14  0.71054273576E-14  0.91188000000E+02  0.91188000000E+02 0.  0.
    9900012    2    3    3    0    0 -0.79098948234E+01 -0.86789449384E+01  0.38926527989E+02  0.50528866923E+02  0.30000021498E+02 0.  0.
        -12    1    3    3    0    0  0.79098948234E+01  0.86789449384E+01 -0.38926527989E+02  0.40659133077E+02  0.00000000000E+00 0.  1.
         11    1    4    4    0    0 -0.28399494377E+01 -0.68414136873E+01  0.29909890627E+02  0.30813500477E+02  0.51100000000E-03 0. -1.
        -11    1    4    4    0    0 -0.10113046476E+02 -0.28378577313E+01  0.99750244148E+01  0.14485449867E+02  0.51100000000E-03 0.  1.
         12    1    4    4    0    0  0.50431010900E+01  0.10003264802E+01 -0.95838705360E+00  0.52299165782E+01  0.00000000000E+00 0. -1.
</event>
<event>
 8    1  0.4964753E-012  0.9118800E+02  0.7816164E-02  0.1184000E+00
        -11   -1    0    0    0    0  0.00000000000E+00  0.00000000000E+00  0.45593999997E+02  0.45594000000E+02  0.51100000000E-03 0. -1.
         11   -1    0    0    0    0 -0.00000000000E+00 -0.00000000000E+00 -0.45593999997E+02  0.45594000000E+02  0.51100000000E-03 0.  1.
         23    2    1    2    0    0  0.00000000000E+00  0.35527136788E-14  0.00000000000E+00  0.91188000000E+02  0.91188000000E+02 0.  0.
    9900012    2    3    3    0    0  0.23733817953E+02  0.25267808060E+02  0.21246434585E+02  0.50528840868E+02  0.29999942301E+02 0.  0.
        -12    1    3    3    0    0 -0.23733817953E+02 -0.25267808060E+02 -0.21246434585E+02  0.40659159132E+02  0.00000000000E+00 0.  1.
         11    1    4    4    0    0 -0.37645198676E+00 -0.11829023720E+01 -0.48192015412E+01  0.49765126219E+01  0.51100000000E-03 0. -1.
        -11    1    4    4    0    0  0.44965773878E+00  0.32823756019E+01  0.59397333918E+01  0.68012215595E+01  0.51100000000E-03 0.  1.
         12    1    4    4    0    0  0.23660612201E+02  0.23168334830E+02  0.20125902735E+02  0.38751106686E+02  0.00000000000E+00 0. -1.
</event>
<event>
 8    1  0.4964753E-012  0.9118800E+02  0.7816164E-02  0.1184000E+00
        -11   -1    0    0    0    0  0.00000000000E+00  0.00000000000E+00  0.45593999997E+02  0.45594000000E+02  0.51100000000E-03 0. -1.
         11   -1    0    0    0    0 -0.00000000000E+00 -0.00000000000E+00 -0.45593999997E+02  0.45594000000E+02  0.51100000000E-03 0.  1.
         23    2    1    2    0    0  0.00000000000E+00  0.00000000000E+00  0.00000000000E+00  0.91188000000E+02  0.91188000000E+02 0.  0.
    9900012    2    3    3    0    0 -0.59913425368E+01  0.18660606490E+02  0.35623743098E+02  0.50528862130E+02  0.30000006931E+02 0.  0.
        -12    1    3    3    0    0  0.59913425368E+01 -0.18660606490E+02 -0.35623743098E+02  0.40659137870E+02  0.00000000000E+00 0.  1.
         11    1    4    4    0    0 -0.21432399255E+01 -0.26960379766E+01  0.10701471000E+01  0.36065652949E+01  0.51100000000E-03 0. -1.
        -11    1    4    4    0    0 -0.32866902134E+01 -0.10860789505E+01 -0.20203162551E+01  0.40079393805E+01  0.51100000000E-03 0.  1.
        -12    1    4    4    0    0 -0.56141239790E+00  0.22442723417E+02  0.36573912253E+02  0.42914357455E+02  0.00000000000E+00 0.  1.
</event>
<event>
 8    1  0.4964753E-012  0.9118800E+02  0.7816164E-02  0.1184000E+00
        -11   -1    0    0    0    0  0.00000000000E+00  0.00000000000E+00  0.45593999997E+02  0.45594000000E+02  0.51100000000E-03 0. -1.
         11   -1    0    0    0    0 -0.00000000000E+00 -0.00000000000E+00 -0.45593999997E+02  0.45594000000E+02  0.51100000000E-03 0.  1.
         23    2    1    2    0    0  0.00000000000E+00 -0.17763568394E-14 -0.35527136788E-14  0.91188000000E+02  0.91188000000E+02 0.  0.
    9900012    2    3    3    0    0  0.32840970406E+02  0.94103081267E+01  0.22047278695E+02  0.50528859156E+02  0.29999997892E+02 0.  0.
        -12    1    3    3    0    0 -0.32840970406E+02 -0.94103081267E+01 -0.22047278695E+02  0.40659140844E+02  0.00000000000E+00 0.  1.
         11    1    4    4    0    0  0.20496041113E+02  0.18742005307E+01  0.13588477825E+01  0.20626361689E+02  0.51100000000E-03 0. -1.
        -11    1    4    4    0    0  0.10101804174E+02 -0.32179703101E+01  0.99126330966E+01  0.14514202550E+02  0.51100000000E-03 0.  1.
        -12    1    4    4    0    0  0.22431251192E+01  0.10754077906E+02  0.10775797816E+02  0.15388294918E+02  0.00000000000E+00 0.  1.
</event>
<event>
 8    1  0.4964753E-012  0.9118800E+02  0.7816164E-02  0.1184000E+00
        -11   -1    0    0    0    0  0.00000000000E+00  0.00000000000E+00  0.45593999997E+02  0.45594000000E+02  0.51100000000E-03 0.  1.
         11   -1    0    0    0    0 -0.00000000000E+00 -0.00000000000E+00 -0.45593999997E+02  0.45594000000E+02  0.51100000000E-03 0. -1.
         23    2    1    2    0    0  0.10658141036E-13 -0.71054273576E-14  0.17763568394E-14  0.91188000000E+02  0.91188000000E+02 0.  0.
    9900012    2    3    3    0    0 -0.31457514940E+02  0.23093408974E+02 -0.11414248582E+02  0.50528857671E+02  0.29999993378E+02 0.  0.
         12    1    3    3    0    0  0.31457514940E+02 -0.23093408974E+02  0.11414248582E+02  0.40659142329E+02  0.00000000000E+00 0. -1.
         11    1    4    4    0    0 -0.24274928490E+02  0.10229225392E+02 -0.10974915728E+02  0.28536958157E+02  0.51100000000E-03 0. -1.
        -11    1    4    4    0    0 -0.11887073256E+02  0.12520356544E+02 -0.13389674827E+00  0.17264986742E+02  0.51100000000E-03 0.  1.
         12    1    4    4    0    0  0.47044868066E+01  0.34382703702E+00 -0.30543610517E+00  0.47269127726E+01  0.00000000000E+00 0. -1.
</event>
<event>
 8    1  0.4964753E-012  0.9118800E+02  0.7816164E-02  0.1184000E+00
        -11   -1    0    0    0    0  0.00000000000E+00  0.00000000000E+00  0.45593999997E+02  0.45594000000E+02  0.51100000000E-03 0. -1.
         11   -1    0    0    0    0 -0.00000000000E+00 -0.00000000000E+00 -0.45593999997E+02  0.45594000000E+02  0.51100000000E-03 0.  1.
         23    2    1    2    0    0  0.00000000000E+00  0.00000000000E+00  0.00000000000E+00  0.91188000000E+02  0.91188000000E+02 0.  0.
    9900012    2    3    3    0    0  0.33702464500E+02  0.12293407216E+02 -0.19135873578E+02  0.50528860413E+02  0.30000001711E+02 0.  0.
         12    1    3    3    0    0 -0.33702464500E+02 -0.12293407216E+02  0.19135873578E+02  0.40659139587E+02  0.00000000000E+00 0. -1.
         11    1    4    4    0    0  0.30996230021E+01  0.91989720169E+00  0.33324135857E+01  0.46431513204E+01  0.51100000000E-03 0. -1.
        -11    1    4    4    0    0 -0.25344980919E+01 -0.19172597613E+00 -0.71548250762E+01  0.75928888811E+01  0.51100000000E-03 0.  1.
        -12    1    4    4    0    0  0.33137339590E+02  0.11565235991E+02 -0.15313462088E+02  0.38292820211E+02  0.00000000000E+00 0.  1.
</event>
<event>
 8    1  0.4964753E-012  0.9118800E+02  0.7816164E-02  0.1184000E+00
        -11   -1    0    0    0    0  0.00000000000E+00  0.00000000000E+00  0.45593999997E+02  0.45594000000E+02  0.51100000000E-03 0. -1.
         11   -1    0    0    0    0 -0.00000000000E+00 -0.00000000000E+00 -0.45593999997E+02  0.45594000000E+02  0.51100000000E-03 0.  1.
         23    2    1    2    0    0 -0.35527136788E-14  0.17763568394E-14  0.00000000000E+00  0.91188000000E+02  0.91188000000E+02 0.  0.
    9900012    2    3    3    0    0  0.27361203506E+02  0.11772549440E+02  0.27675615955E+02  0.50528830110E+02  0.29999909603E+02 0.  0.
        -12    1    3    3    0    0 -0.27361203506E+02 -0.11772549440E+02 -0.27675615955E+02  0.40659169890E+02  0.00000000000E+00 0.  1.
         11    1    4    4    0    0 -0.34481810555E+01 -0.29434833191E+01 -0.89700391050E+00  0.46215433480E+01  0.51100000000E-03 0.  1.
        -11    1    4    4    0    0  0.14616181816E+02  0.43185172209E+01  0.63507602914E+01  0.16511042318E+02  0.51100000000E-03 0. -1.
        -12    1    4    4    0    0  0.16193202745E+02  0.10397515538E+02  0.22221859574E+02  0.29396244445E+02  0.00000000000E+00 0.  1.
</event>
<event>
 8    1  0.4964753E-012  0.9118800E+02  0.7816164E-02  0.1184000E+00
        -11   -1    0    0    0    0  0.00000000000E+00  0.00000000000E+00  0.45593999997E+02  0.45594000000E+02  0.51100000000E-03 0. -1.
         11   -1    0    0    0    0 -0.00000000000E+00 -0.00000000000E+00 -0.45593999997E+02  0.45594000000E+02  0.51100000000E-03 0.  1.
         23    2    1    2    0    0  0.00000000000E+00  0.35527136788E-14  0.00000000000E+00  0.91188000000E+02  0.91188000000E+02 0.  0.
    9900012    2    3    3    0    0  0.24516521938E+01 -0.26417112044E+02 -0.30810590188E+02  0.50528845127E+02  0.29999955247E+02 0.  0.
         12    1    3    3    0    0 -0.24516521938E+01  0.26417112044E+02  0.30810590188E+02  0.40659154873E+02  0.00000000000E+00 0. -1.
         11    1    4    4    0    0 -0.40028649771E+01 -0.30673539703E+02 -0.19686493437E+02  0.36666701380E+02  0.51100000000E-03 0. -1.
        -11    1    4    4    0    0  0.10959700068E+01 -0.18810127843E+00 -0.27861417213E+01  0.29998530463E+01  0.51100000000E-03 0.  1.
         12    1    4    4    0    0  0.53585471642E+01  0.44445289376E+01 -0.83379550297E+01  0.10862290701E+02  0.00000000000E+00 0. -1.
</event>
<event>
 8    1  0.4964753E-012  0.9118800E+02  0.7816164E-02  0.1184000E+00
        -11   -1    0    0    0    0  0.00000000000E+00  0.00000000000E+00  0.45593999997E+02  0.45594000000E+02  0.51100000000E-03 0. -1.
         11   -1    0    0    0    0 -0.00000000000E+00 -0.00000000000E+00 -0.45593999997E+02  0.45594000000E+02  0.51100000000E-03 0.  1.
         23    2    1    2    0    0 -0.35527136788E-14  0.17763568394E-14  0.00000000000E+00  0.91188000000E+02  0.91188000000E+02 0.  0.
    9900012    2    3    3    0    0 -0.28613821965E+02 -0.12447952813E+02 -0.26066538171E+02  0.50528846678E+02  0.29999959961E+02 0.  0.
         12    1    3    3    0    0  0.28613821965E+02  0.12447952813E+02  0.26066538171E+02  0.40659153322E+02  0.00000000000E+00 0. -1.
         11    1    4    4    0    0 -0.26353573008E+01 -0.12685958546E+02 -0.54420489637E+01  0.14053275402E+02  0.51100000000E-03 0. -1.
        -11    1    4    4    0    0 -0.41546390937E+01 -0.23416137429E+01 -0.11920104412E+02  0.12838733208E+02  0.51100000000E-03 0.  1.
        -12    1    4    4    0    0 -0.21823825571E+02  0.25796194761E+01 -0.87043847945E+01  0.23636838068E+02  0.00000000000E+00 0.  1.
</event>
<event>
 8    1  0.4964753E-012  0.9118800E+02  0.7816164E-02  0.1184000E+00
        -11   -1    0    0    0    0  0.00000000000E+00  0.00000000000E+00  0.45593999997E+02  0.45594000000E+02  0.51100000000E-03 0. -1.
         11   -1    0    0    0    0 -0.00000000000E+00 -0.00000000000E+00 -0.45593999997E+02  0.45594000000E+02  0.51100000000E-03 0.  1.
         23    2    1    2    0    0 -0.71054273576E-14  0.35527136788E-14  0.00000000000E+00  0.91188000000E+02  0.91188000000E+02 0.  0.
    9900012    2    3    3    0    0  0.29891645349E+02 -0.19213241456E+02  0.19761246243E+02  0.50528856354E+02  0.29999989374E+02 0.  0.
        -12    1    3    3    0    0 -0.29891645349E+02  0.19213241456E+02 -0.19761246243E+02  0.40659143646E+02  0.00000000000E+00 0.  1.
         11    1    4    4    0    0  0.13394941628E+02 -0.13666555825E+02  0.13591344654E+02  0.23471767277E+02  0.51100000000E-03 0. -1.
        -11    1    4    4    0    0 -0.70855586479E+00 -0.38994298658E+01  0.87272218425E+01  0.95849885780E+01  0.51100000000E-03 0.  1.
        -12    1    4    4    0    0  0.17205259586E+02 -0.16472557658E+01 -0.25573202536E+01  0.17472100499E+02  0.00000000000E+00 0.  1.
</event>
<event>
 8    1  0.4964753E-012  0.9118800E+02  0.7816164E-02  0.1184000E+00
        -11   -1    0    0    0    0  0.00000000000E+00  0.00000000000E+00  0.45593999997E+02  0.45594000000E+02  0.51100000000E-03 0. -1.
         11   -1    0    0    0    0 -0.00000000000E+00 -0.00000000000E+00 -0.45593999997E+02  0.45594000000E+02  0.51100000000E-03 0.  1.
         23    2    1    2    0    0 -0.35527136788E-14  0.35527136788E-14  0.35527136788E-14  0.91188000000E+02  0.91188000000E+02 0.  0.
    9900012    2    3    3    0    0 -0.15101577141E+02  0.25055384886E+02  0.28237177919E+02  0.50528829316E+02  0.29999907188E+02 0.  0.
        -12    1    3    3    0    0  0.15101577141E+02 -0.25055384886E+02 -0.28237177919E+02  0.40659170684E+02  0.00000000000E+00 0.  1.
         11    1    4    4    0    0 -0.16517173069E+02  0.27877144664E+02  0.20225951601E+02  0.38197399378E+02  0.51100000000E-03 0. -1.
        -11    1    4    4    0    0 -0.36027557281E+01 -0.76341131550E+00  0.18450019986E+01  0.41190627949E+01  0.51100000000E-03 0.  1.
         12    1    4    4    0    0  0.50183516564E+01 -0.20583484627E+01  0.61662243188E+01  0.82123671430E+01  0.00000000000E+00 0. -1.
</event>
<event>
 8    1  0.4964753E-012  0.9118800E+02  0.7816164E-02  0.1184000E+00
        -11   -1    0    0    0    0  0.00000000000E+00  0.00000000000E+00  0.45593999997E+02  0.45594000000E+02  0.51100000000E-03 0. -1.
         11   -1    0    0    0    0 -0.00000000000E+00 -0.00000000000E+00 -0.45593999997E+02  0.45594000000E+02  0.51100000000E-03 0.  1.
         23    2    1    2    0    0  0.35527136788E-14  0.00000000000E+00  0.00000000000E+00  0.91188000000E+02  0.91188000000E+02 0.  0.
    9900012    2    3    3    0    0 -0.20004331575E+02  0.28507299376E+02  0.20983961479E+02  0.50528855410E+02  0.29999986504E+02 0.  0.
        -12    1    3    3    0    0  0.20004331575E+02 -0.28507299376E+02 -0.20983961479E+02  0.40659144590E+02  0.00000000000E+00 0.  1.
         11    1    4    4    0    0 -0.16335829165E+01 -0.57914631080E+00  0.23444365708E+01  0.29155422634E+01  0.51100000000E-03 0. -1.
        -11    1    4    4    0    0 -0.24551912127E+02  0.28080080443E+02  0.14089277117E+02  0.39872233907E+02  0.51100000000E-03 0.  1.
        -12    1    4    4    0    0  0.61811634690E+01  0.10063652438E+01  0.45502477911E+01  0.77410792397E+01  0.00000000000E+00 0.  1.
</event>
<event>
 8    1  0.4964753E-012  0.9118800E+02  0.7816164E-02  0.1184000E+00
        -11   -1    0    0    0    0  0.00000000000E+00  0.00000000000E+00  0.45593999997E+02  0.45594000000E+02  0.51100000000E-03 0. -1.
         11   -1    0    0    0    0 -0.00000000000E+00 -0.00000000000E+00 -0.45593999997E+02  0.45594000000E+02  0.51100000000E-03 0.  1.
         23    2    1    2    0    0  0.00000000000E+00  0.00000000000E+00  0.00000000000E+00  0.91188000000E+02  0.91188000000E+02 0.  0.
    9900012    2    3    3    0    0 -0.83433135843E+01  0.18765059844E+02 -0.35091701880E+02  0.50528857198E+02  0.29999991940E+02 0.  0.
         12    1    3    3    0    0  0.83433135843E+01 -0.18765059844E+02  0.35091701880E+02  0.40659142802E+02  0.00000000000E+00 0. -1.
         11    1    4    4    0    0  0.23129094946E+00 -0.28561331980E+01 -0.29899530436E+01  0.41413538622E+01  0.51100000000E-03 0. -1.
        -11    1    4    4    0    0  0.78813612695E+01  0.84730718751E+01 -0.16596619376E+02  0.20232562306E+02  0.51100000000E-03 0.  1.
        -12    1    4    4    0    0 -0.16455965803E+02  0.13148121167E+02 -0.15505129460E+02  0.26154941031E+02  0.00000000000E+00 0.  1.
</event>
<event>
 8    1  0.4964753E-012  0.9118800E+02  0.7816164E-02  0.1184000E+00
        -11   -1    0    0    0    0  0.00000000000E+00  0.00000000000E+00  0.45593999997E+02  0.45594000000E+02  0.51100000000E-03 0. -1.
         11   -1    0    0    0    0 -0.00000000000E+00 -0.00000000000E+00 -0.45593999997E+02  0.45594000000E+02  0.51100000000E-03 0.  1.
         23    2    1    2    0    0  0.35527136788E-14  0.00000000000E+00  0.00000000000E+00  0.91188000000E+02  0.91188000000E+02 0.  0.
    9900012    2    3    3    0    0  0.25904230165E+02 -0.28233370035E+02 -0.13601954649E+02  0.50528862106E+02  0.30000006859E+02 0.  0.
         12    1    3    3    0    0 -0.25904230165E+02  0.28233370035E+02  0.13601954649E+02  0.40659137894E+02  0.00000000000E+00 0. -1.
         11    1    4    4    0    0  0.60856062531E+00  0.10220026839E+01  0.11315395048E+01  0.16417117386E+01  0.51100000000E-03 0. -1.
        -11    1    4    4    0    0  0.20480947386E+01 -0.11853925919E+02 -0.15764370277E+02  0.19829917354E+02  0.51100000000E-03 0.  1.
        -12    1    4    4    0    0  0.23247574801E+02 -0.17401446800E+02  0.10308761234E+01  0.29057233014E+02  0.00000000000E+00 0.  1.
</event>
<event>
 8    1  0.4964753E-012  0.9118800E+02  0.7816164E-02  0.1184000E+00
        -11   -1    0    0    0    0  0.00000000000E+00  0.00000000000E+00  0.45593999997E+02  0.45594000000E+02  0.51100000000E-03 0. -1.
         11   -1    0    0    0    0 -0.00000000000E+00 -0.00000000000E+00 -0.45593999997E+02  0.45594000000E+02  0.51100000000E-03 0.  1.
         23    2    1    2    0    0  0.35527136788E-14  0.00000000000E+00  0.00000000000E+00  0.91188000000E+02  0.91188000000E+02 0.  0.
    9900012    2    3    3    0    0 -0.21350123588E+02  0.48294477835E+01  0.34263881170E+02  0.50528869464E+02  0.30000029223E+02 0.  0.
        -12    1    3    3    0    0  0.21350123588E+02 -0.48294477835E+01 -0.34263881170E+02  0.40659130536E+02  0.00000000000E+00 0.  1.
         11    1    4    4    0    0  0.14449883267E+01 -0.43317367225E-01  0.66631112447E+00  0.15918035162E+01  0.51100000000E-03 0. -1.
        -11    1    4    4    0    0 -0.63152772650E+01  0.22843276468E+01 -0.39916568287E+01  0.78124390706E+01  0.51100000000E-03 0.  1.
         12    1    4    4    0    0 -0.16479834650E+02  0.25884375040E+01  0.37589226874E+02  0.41124626877E+02  0.00000000000E+00 0. -1.
</event>
<event>
 8    1  0.4964753E-012  0.9118800E+02  0.7816164E-02  0.1184000E+00
        -11   -1    0    0    0    0  0.00000000000E+00  0.00000000000E+00  0.45593999997E+02  0.45594000000E+02  0.51100000000E-03 0. -1.
         11   -1    0    0    0    0 -0.00000000000E+00 -0.00000000000E+00 -0.45593999997E+02  0.45594000000E+02  0.51100000000E-03 0.  1.
         23    2    1    2    0    0  0.00000000000E+00  0.00000000000E+00 -0.71054273576E-14  0.91188000000E+02  0.91188000000E+02 0.  0.
    9900012    2    3    3    0    0  0.46505166943E+01  0.36380226931E+00  0.40390668705E+02  0.50528858641E+02  0.29999996324E+02 0.  0.
        -12    1    3    3    0    0 -0.46505166943E+01 -0.36380226931E+00 -0.40390668705E+02  0.40659141359E+02  0.00000000000E+00 0.  1.
         11    1    4    4    0    0 -0.24765113955E+01 -0.66078315462E+01  0.31612866843E+02  0.32390892188E+02  0.51100000000E-03 0. -1.
        -11    1    4    4    0    0  0.21476590670E+01  0.40744900010E+01  0.11029594523E+02  0.11952650913E+02  0.51100000000E-03 0.  1.
        -12    1    4    4    0    0  0.49793690228E+01  0.28971438145E+01 -0.22517926606E+01  0.61853155404E+01  0.00000000000E+00 0.  1.
</event>
<event>
 8    1  0.4964753E-012  0.9118800E+02  0.7816164E-02  0.1184000E+00
        -11   -1    0    0    0    0  0.00000000000E+00  0.00000000000E+00  0.45593999997E+02  0.45594000000E+02  0.51100000000E-03 0. -1.
         11   -1    0    0    0    0 -0.00000000000E+00 -0.00000000000E+00 -0.45593999997E+02  0.45594000000E+02  0.51100000000E-03 0.  1.
         23    2    1    2    0    0 -0.35527136788E-14 -0.35527136788E-14  0.00000000000E+00  0.91188000000E+02  0.91188000000E+02 0.  0.
    9900012    2    3    3    0    0  0.25189161653E+02  0.19511443000E+02 -0.25258199898E+02  0.50528844391E+02  0.29999953012E+02 0.  0.
         12    1    3    3    0    0 -0.25189161653E+02 -0.19511443000E+02  0.25258199898E+02  0.40659155609E+02  0.00000000000E+00 0. -1.
         11    1    4    4    0    0 -0.70585527599E+00  0.73442575549E+01 -0.10664296904E+01  0.74547718442E+01  0.51100000000E-03 0. -1.
        -11    1    4    4    0    0  0.18083385210E+02  0.14163519215E+02 -0.68820089689E+01  0.23978660199E+02  0.51100000000E-03 0.  1.
        -12    1    4    4    0    0  0.78116317185E+01 -0.19963337692E+01 -0.17309761238E+02  0.19095412348E+02  0.00000000000E+00 0.  1.
</event>
<event>
 8    1  0.4964753E-012  0.9118800E+02  0.7816164E-02  0.1184000E+00
        -11   -1    0    0    0    0  0.00000000000E+00  0.00000000000E+00  0.45593999997E+02  0.45594000000E+02  0.51100000000E-03 0. -1.
         11   -1    0    0    0    0 -0.00000000000E+00 -0.00000000000E+00 -0.45593999997E+02  0.45594000000E+02  0.51100000000E-03 0.  1.
         23    2    1    2    0    0 -0.35527136788E-14 -0.88817841970E-15 -0.35527136788E-14  0.91188000000E+02  0.91188000000E+02 0.  0.
    9900012    2    3    3    0    0  0.27613735382E+02  0.60655324282E+01  0.29220835192E+02  0.50528852509E+02  0.29999977685E+02 0.  0.
        -12    1    3    3    0    0 -0.27613735382E+02 -0.60655324282E+01 -0.29220835192E+02  0.40659147491E+02  0.00000000000E+00 0.  1.
         11    1    4    4    0    0  0.12699595753E+02 -0.27123622630E+01  0.24773517421E+01  0.13220208517E+02  0.51100000000E-03 0. -1.
        -11    1    4    4    0    0  0.18790472705E+02  0.29613921920E+01  0.19370883621E+02  0.27149269616E+02  0.51100000000E-03 0.  1.
        -12    1    4    4    0    0 -0.38763330760E+01  0.58165024992E+01  0.73725998298E+01  0.10159374375E+02  0.00000000000E+00 0.  1.
</event>
<event>
 8    1  0.4964753E-012  0.9118800E+02  0.7816164E-02  0.1184000E+00
        -11   -1    0    0    0    0  0.00000000000E+00  0.00000000000E+00  0.45593999997E+02  0.45594000000E+02  0.51100000000E-03 0. -1.
         11   -1    0    0    0    0 -0.00000000000E+00 -0.00000000000E+00 -0.45593999997E+02  0.45594000000E+02  0.51100000000E-03 0.  1.
         23    2    1    2    0    0  0.00000000000E+00  0.44408920985E-15  0.00000000000E+00  0.91188000000E+02  0.91188000000E+02 0.  0.
    9900012    2    3    3    0    0  0.11000280584E+02 -0.26475938083E+01  0.39053168977E+02  0.50528856710E+02  0.29999990457E+02 0.  0.
        -12    1    3    3    0    0 -0.11000280584E+02  0.26475938083E+01 -0.39053168977E+02  0.40659143290E+02  0.00000000000E+00 0.  1.
         11    1    4    4    0    0  0.87067245971E+01  0.27473508563E+01  0.24517811701E+01  0.94533708858E+01  0.51100000000E-03 0. -1.
        -11    1    4    4    0    0 -0.50834899779E+01  0.10670578432E+01  0.28429465528E+01  0.59213873509E+01  0.51100000000E-03 0.  1.
         12    1    4    4    0    0  0.73770459649E+01 -0.64620025078E+01  0.33758441254E+02  0.35154098474E+02  0.00000000000E+00 0. -1.
</event>
<event>
 8    1  0.4964753E-012  0.9118800E+02  0.7816164E-02  0.1184000E+00
        -11   -1    0    0    0    0  0.00000000000E+00  0.00000000000E+00  0.45593999997E+02  0.45594000000E+02  0.51100000000E-03 0. -1.
         11   -1    0    0    0    0 -0.00000000000E+00 -0.00000000000E+00 -0.45593999997E+02  0.45594000000E+02  0.51100000000E-03 0.  1.
         23    2    1    2    0    0 -0.71054273576E-14 -0.88817841970E-15  0.00000000000E+00  0.91188000000E+02  0.91188000000E+02 0.  0.
    9900012    2    3    3    0    0  0.34004893496E+02 -0.71889899050E+01  0.21098606511E+02  0.50528861369E+02  0.30000004617E+02 0.  0.
        -12    1    3    3    0    0 -0.34004893496E+02  0.71889899050E+01 -0.21098606511E+02  0.40659138631E+02  0.00000000000E+00 0.  1.
         11    1    4    4    0    0  0.14353292315E+02  0.82896773832E+01  0.69554735549E+01  0.17975382167E+02  0.51100000000E-03 0. -1.
        -11    1    4    4    0    0  0.51789608977E+01 -0.64661857627E+01 -0.25746031108E+01  0.86753545021E+01  0.51100000000E-03 0.  1.
        -12    1    4    4    0    0  0.14472640283E+02 -0.90124815255E+01  0.16717736067E+02  0.23878124700E+02  0.00000000000E+00 0.  1.
</event>
<event>
 8    1  0.4964753E-012  0.9118800E+02  0.7816164E-02  0.1184000E+00
        -11   -1    0    0    0    0  0.00000000000E+00  0.00000000000E+00  0.45593999997E+02  0.45594000000E+02  0.51100000000E-03 0. -1.
         11   -1    0    0    0    0 -0.00000000000E+00 -0.00000000000E+00 -0.45593999997E+02  0.45594000000E+02  0.51100000000E-03 0.  1.
         23    2    1    2    0    0 -0.17763568394E-14  0.35527136788E-14  0.00000000000E+00  0.91188000000E+02  0.91188000000E+02 0.  0.
    9900012    2    3    3    0    0 -0.14505778304E+02  0.28114163831E+02  0.25540986842E+02  0.50528858088E+02  0.29999994645E+02 0.  0.
        -12    1    3    3    0    0  0.14505778304E+02 -0.28114163831E+02 -0.25540986842E+02  0.40659141912E+02  0.00000000000E+00 0.  1.
         11    1    4    4    0    0  0.24294971866E+01  0.12089941410E+02  0.18238050143E+02  0.22015803714E+02  0.51100000000E-03 0. -1.
        -11    1    4    4    0    0 -0.22071514994E+01 -0.15444386700E+01 -0.24103671912E+01  0.36147861354E+01  0.51100000000E-03 0.  1.
         12    1    4    4    0    0 -0.14728123991E+02  0.17568661091E+02  0.97133038901E+01  0.24898268239E+02  0.00000000000E+00 0. -1.
</event>
<event>
 8    1  0.4964753E-012  0.9118800E+02  0.7816164E-02  0.1184000E+00
        -11   -1    0    0    0    0  0.00000000000E+00  0.00000000000E+00  0.45593999997E+02  0.45594000000E+02  0.51100000000E-03 0. -1.
         11   -1    0    0    0    0 -0.00000000000E+00 -0.00000000000E+00 -0.45593999997E+02  0.45594000000E+02  0.51100000000E-03 0.  1.
         23    2    1    2    0    0 -0.35527136788E-14 -0.17763568394E-14 -0.35527136788E-14  0.91188000000E+02  0.91188000000E+02 0.  0.
    9900012    2    3    3    0    0  0.26417085534E+02  0.55977703048E+01  0.30396848186E+02  0.50528858099E+02  0.29999994678E+02 0.  0.
        -12    1    3    3    0    0 -0.26417085534E+02 -0.55977703048E+01 -0.30396848186E+02  0.40659141901E+02  0.00000000000E+00 0.  1.
         11    1    4    4    0    0  0.17790269246E+02 -0.10151220212E+01  0.77727481169E+01  0.19440672985E+02  0.51100000000E-03 0. -1.
        -11    1    4    4    0    0  0.90529856902E+01  0.84264111361E+01  0.49586155943E+01  0.13324744779E+02  0.51100000000E-03 0.  1.
         12    1    4    4    0    0 -0.42616940241E+00 -0.18135188101E+01  0.17665484475E+02  0.17763440336E+02  0.00000000000E+00 0. -1.
</event>
<event>
 8    1  0.4964753E-012  0.9118800E+02  0.7816164E-02  0.1184000E+00
        -11   -1    0    0    0    0  0.00000000000E+00  0.00000000000E+00  0.45593999997E+02  0.45594000000E+02  0.51100000000E-03 0.  1.
         11   -1    0    0    0    0 -0.00000000000E+00 -0.00000000000E+00 -0.45593999997E+02  0.45594000000E+02  0.51100000000E-03 0. -1.
         23    2    1    2    0    0  0.00000000000E+00  0.00000000000E+00  0.35527136788E-14  0.91188000000E+02  0.91188000000E+02 0.  0.
    9900012    2    3    3    0    0 -0.29567170926E+02 -0.14311460577E+02 -0.23961011263E+02  0.50528861284E+02  0.30000004358E+02 0.  0.
         12    1    3    3    0    0  0.29567170926E+02  0.14311460577E+02  0.23961011263E+02  0.40659138716E+02  0.00000000000E+00 0. -1.
         11    1    4    4    0    0  0.32301449832E+01 -0.71421454342E+01 -0.55350157931E+01  0.95958573409E+01  0.51100000000E-03 0. -1.
        -11    1    4    4    0    0 -0.82081562868E+01 -0.83814919455E+01 -0.39769881609E+01  0.12387076812E+02  0.51100000000E-03 0.  1.
        -12    1    4    4    0    0 -0.24589159622E+02  0.12121768025E+01 -0.14449007309E+02  0.28545927130E+02  0.00000000000E+00 0.  1.
</event>
<event>
 8    1  0.4964753E-012  0.9118800E+02  0.7816164E-02  0.1184000E+00
        -11   -1    0    0    0    0  0.00000000000E+00  0.00000000000E+00  0.45593999997E+02  0.45594000000E+02  0.51100000000E-03 0. -1.
         11   -1    0    0    0    0 -0.00000000000E+00 -0.00000000000E+00 -0.45593999997E+02  0.45594000000E+02  0.51100000000E-03 0.  1.
         23    2    1    2    0    0  0.00000000000E+00  0.00000000000E+00  0.00000000000E+00  0.91188000000E+02  0.91188000000E+02 0.  0.
    9900012    2    3    3    0    0  0.30661168120E+02 -0.17416051566E+02 -0.20242016857E+02  0.50528864137E+02  0.30000013031E+02 0.  0.
         12    1    3    3    0    0 -0.30661168120E+02  0.17416051566E+02  0.20242016857E+02  0.40659135863E+02  0.00000000000E+00 0. -1.
         11    1    4    4    0    0  0.66436394244E+01  0.15521871737E+01 -0.13902722323E+02  0.15486539900E+02  0.51100000000E-03 0. -1.
        -11    1    4    4    0    0  0.35418034978E+00  0.24433398051E+01 -0.10988738936E+01  0.27023836179E+01  0.51100000000E-03 0.  1.
         12    1    4    4    0    0  0.23663348346E+02 -0.21411578545E+02 -0.52404206404E+01  0.32339940619E+02  0.00000000000E+00 0. -1.
</event>
<event>
 8    1  0.4964753E-012  0.9118800E+02  0.7816164E-02  0.1184000E+00
        -11   -1    0    0    0    0  0.00000000000E+00  0.00000000000E+00  0.45593999997E+02  0.45594000000E+02  0.51100000000E-03 0. -1.
         11   -1    0    0    0    0 -0.00000000000E+00 -0.00000000000E+00 -0.45593999997E+02  0.45594000000E+02  0.51100000000E-03 0.  1.
         23    2    1    2    0    0  0.00000000000E+00  0.35527136788E-14  0.00000000000E+00  0.91188000000E+02  0.91188000000E+02 0.  0.
    9900012    2    3    3    0    0 -0.30989366162E+02 -0.20140380706E+02  0.16946955570E+02  0.50528744557E+02  0.29999649553E+02 0.  0.
        -12    1    3    3    0    0  0.30989366162E+02  0.20140380706E+02 -0.16946955570E+02  0.40659255443E+02  0.00000000000E+00 0.  1.
         11    1    4    4    0    0 -0.17379591158E+02 -0.18651658735E+02  0.58915654697E+01  0.26165723883E+02  0.51100000000E-03 0. -1.
        -11    1    4    4    0    0 -0.49589396229E+01 -0.69304588474E+01 -0.97514162309E+00  0.85774846817E+01  0.51100000000E-03 0.  1.
         12    1    4    4    0    0 -0.86508353812E+01  0.54417368762E+01  0.12030531723E+02  0.15785535992E+02  0.00000000000E+00 0. -1.
</event>
<event>
 8    1  0.4964753E-012  0.9118800E+02  0.7816164E-02  0.1184000E+00
        -11   -1    0    0    0    0  0.00000000000E+00  0.00000000000E+00  0.45593999997E+02  0.45594000000E+02  0.51100000000E-03 0. -1.
         11   -1    0    0    0    0 -0.00000000000E+00 -0.00000000000E+00 -0.45593999997E+02  0.45594000000E+02  0.51100000000E-03 0.  1.
         23    2    1    2    0    0  0.00000000000E+00  0.00000000000E+00  0.71054273576E-14  0.91188000000E+02  0.91188000000E+02 0.  0.
    9900012    2    3    3    0    0 -0.85959263621E+01 -0.16850272050E+02 -0.35990894015E+02  0.50528855024E+02  0.29999985331E+02 0.  0.
         12    1    3    3    0    0  0.85959263621E+01  0.16850272050E+02  0.35990894015E+02  0.40659144976E+02  0.00000000000E+00 0. -1.
         11    1    4    4    0    0  0.23128956484E+01 -0.69123193981E+01 -0.50201511294E+01  0.88505120398E+01  0.51100000000E-03 0. -1.
        -11    1    4    4    0    0 -0.13102046314E+02 -0.12292936025E+02 -0.33209721080E+02  0.37757985489E+02  0.51100000000E-03 0.  1.
         12    1    4    4    0    0  0.21932243031E+01  0.23549833729E+01  0.22389781948E+01  0.39203574948E+01  0.00000000000E+00 0. -1.
</event>
<event>
 8    1  0.4964753E-012  0.9118800E+02  0.7816164E-02  0.1184000E+00
        -11   -1    0    0    0    0  0.00000000000E+00  0.00000000000E+00  0.45593999997E+02  0.45594000000E+02  0.51100000000E-03 0. -1.
         11   -1    0    0    0    0 -0.00000000000E+00 -0.00000000000E+00 -0.45593999997E+02  0.45594000000E+02  0.51100000000E-03 0.  1.
         23    2    1    2    0    0  0.00000000000E+00  0.88817841970E-15  0.00000000000E+00  0.91188000000E+02  0.91188000000E+02 0.  0.
    9900012    2    3    3    0    0 -0.12473222967E+02 -0.12370289947E+01 -0.38678854630E+02  0.50528864158E+02  0.30000013094E+02 0.  0.
         12    1    3    3    0    0  0.12473222967E+02  0.12370289947E+01  0.38678854630E+02  0.40659135842E+02  0.00000000000E+00 0. -1.
         11    1    4    4    0    0  0.45224032342E+01  0.10307045820E+01 -0.22873811749E+01  0.51717111142E+01  0.51100000000E-03 0. -1.
        -11    1    4    4    0    0 -0.79623007705E+01 -0.11563523365E+02 -0.20558747685E+02  0.24895288968E+02  0.51100000000E-03 0.  1.
         12    1    4    4    0    0 -0.90333254309E+01  0.92957897881E+01 -0.15832725770E+02  0.20461864075E+02  0.00000000000E+00 0. -1.
</event>
<event>
 8    1  0.4964753E-012  0.9118800E+02  0.7816164E-02  0.1184000E+00
        -11   -1    0    0    0    0  0.00000000000E+00  0.00000000000E+00  0.45593999997E+02  0.45594000000E+02  0.51100000000E-03 0. -1.
         11   -1    0    0    0    0 -0.00000000000E+00 -0.00000000000E+00 -0.45593999997E+02  0.45594000000E+02  0.51100000000E-03 0.  1.
         23    2    1    2    0    0  0.71054273576E-14 -0.14210854715E-13  0.00000000000E+00  0.91188000000E+02  0.91188000000E+02 0.  0.
    9900012    2    3    3    0    0  0.16283459091E+02 -0.35824769017E+02  0.10227443776E+02  0.50528859315E+02  0.29999998373E+02 0.  0.
        -12    1    3    3    0    0 -0.16283459091E+02  0.35824769017E+02 -0.10227443776E+02  0.40659140685E+02  0.00000000000E+00 0.  1.
         11    1    4    4    0    0  0.76168628022E+01 -0.96657687911E+01 -0.10944231389E+01  0.12354814751E+02  0.51100000000E-03 0.  1.
        -11    1    4    4    0    0  0.12179683630E+02 -0.17870080867E+02  0.17019445378E+02  0.27519920144E+02  0.51100000000E-03 0. -1.
         12    1    4    4    0    0 -0.35130873409E+01 -0.82889193589E+01 -0.56975784629E+01  0.10654124419E+02  0.00000000000E+00 0. -1.
</event>
<event>
 8    1  0.4964753E-012  0.9118800E+02  0.7816164E-02  0.1184000E+00
        -11   -1    0    0    0    0  0.00000000000E+00  0.00000000000E+00  0.45593999997E+02  0.45594000000E+02  0.51100000000E-03 0. -1.
         11   -1    0    0    0    0 -0.00000000000E+00 -0.00000000000E+00 -0.45593999997E+02  0.45594000000E+02  0.51100000000E-03 0.  1.
         23    2    1    2    0    0 -0.44408920985E-15  0.00000000000E+00  0.00000000000E+00  0.91188000000E+02  0.91188000000E+02 0.  0.
    9900012    2    3    3    0    0 -0.34282085928E+01  0.38923206328E+02 -0.11242645639E+02  0.50528859749E+02  0.29999999694E+02 0.  0.
         12    1    3    3    0    0  0.34282085928E+01 -0.38923206328E+02  0.11242645639E+02  0.40659140251E+02  0.00000000000E+00 0. -1.
         11    1    4    4    0    0  0.20068046057E+01  0.39050533666E+01  0.32745912023E+01  0.54771940193E+01  0.51100000000E-03 0. -1.
        -11    1    4    4    0    0  0.81281495291E+01  0.22927782214E+02 -0.10189137894E+02  0.26373633487E+02  0.51100000000E-03 0.  1.
        -12    1    4    4    0    0 -0.13563162728E+02  0.12090370747E+02 -0.43280989474E+01  0.18678032243E+02  0.00000000000E+00 0.  1.
</event>
<event>
 8    1  0.4964753E-012  0.9118800E+02  0.7816164E-02  0.1184000E+00
        -11   -1    0    0    0    0  0.00000000000E+00  0.00000000000E+00  0.45593999997E+02  0.45594000000E+02  0.51100000000E-03 0. -1.
         11   -1    0    0    0    0 -0.00000000000E+00 -0.00000000000E+00 -0.45593999997E+02  0.45594000000E+02  0.51100000000E-03 0.  1.
         23    2    1    2    0    0  0.00000000000E+00 -0.35527136788E-14  0.35527136788E-14  0.91188000000E+02  0.91188000000E+02 0.  0.
    9900012    2    3    3    0    0  0.16038349951E+02 -0.24607436128E+02 -0.28114250352E+02  0.50528860132E+02  0.30000000857E+02 0.  0.
         12    1    3    3    0    0 -0.16038349951E+02  0.24607436128E+02  0.28114250352E+02  0.40659139868E+02  0.00000000000E+00 0. -1.
         11    1    4    4    0    0  0.15501097261E+01 -0.18825771730E+02 -0.11865219350E+02  0.22306858852E+02  0.51100000000E-03 0. -1.
        -11    1    4    4    0    0  0.60138715104E+01 -0.61154412458E+00 -0.17217561978E+02  0.18247878712E+02  0.51100000000E-03 0.  1.
         12    1    4    4    0    0  0.84743687145E+01 -0.51701202733E+01  0.96853097494E+00  0.99741225679E+01  0.00000000000E+00 0. -1.
</event>
<event>
 8    1  0.4964753E-012  0.9118800E+02  0.7816164E-02  0.1184000E+00
        -11   -1    0    0    0    0  0.00000000000E+00  0.00000000000E+00  0.45593999997E+02  0.45594000000E+02  0.51100000000E-03 0.  1.
         11   -1    0    0    0    0 -0.00000000000E+00 -0.00000000000E+00 -0.45593999997E+02  0.45594000000E+02  0.51100000000E-03 0. -1.
         23    2    1    2    0    0  0.00000000000E+00 -0.35527136788E-14  0.00000000000E+00  0.91188000000E+02  0.91188000000E+02 0.  0.
    9900012    2    3    3    0    0  0.33765620750E+02 -0.22271811515E+02 -0.41247756688E+01  0.50528874246E+02  0.30000043757E+02 0.  0.
        -12    1    3    3    0    0 -0.33765620750E+02  0.22271811515E+02  0.41247756688E+01  0.40659125754E+02  0.00000000000E+00 0.  1.
         11    1    4    4    0    0 -0.39922758836E+00 -0.61217069887E+01  0.53487688221E+01  0.81390421609E+01  0.51100000000E-03 0. -1.
        -11    1    4    4    0    0  0.60950135650E+01 -0.61817339303E+00  0.42925831450E+01  0.74804812024E+01  0.51100000000E-03 0.  1.
         12    1    4    4    0    0  0.28069834773E+02 -0.15531931133E+02 -0.13766127636E+02  0.34909350882E+02  0.00000000000E+00 0. -1.
</event>
<event>
 8    1  0.4964753E-012  0.9118800E+02  0.7816164E-02  0.1184000E+00
        -11   -1    0    0    0    0  0.00000000000E+00  0.00000000000E+00  0.45593999997E+02  0.45594000000E+02  0.51100000000E-03 0. -1.
         11   -1    0    0    0    0 -0.00000000000E+00 -0.00000000000E+00 -0.45593999997E+02  0.45594000000E+02  0.51100000000E-03 0.  1.
         23    2    1    2    0    0  0.00000000000E+00 -0.35527136788E-14  0.35527136788E-14  0.91188000000E+02  0.91188000000E+02 0.  0.
    9900012    2    3    3    0    0  0.29209525792E+02  0.25123332319E+02  0.12991840250E+02  0.50528854203E+02  0.29999982836E+02 0.  0.
        -12    1    3    3    0    0 -0.29209525792E+02 -0.25123332319E+02 -0.12991840250E+02  0.40659145797E+02  0.00000000000E+00 0.  1.
         11    1    4    4    0    0  0.57930367858E+01  0.19228548706E+02  0.12568905279E+02  0.23691216531E+02  0.51100000000E-03 0. -1.
        -11    1    4    4    0    0  0.31872065724E+01 -0.95861579957E+00  0.39763198093E+01  0.51853977160E+01  0.51100000000E-03 0.  1.
        -12    1    4    4    0    0  0.20229282434E+02  0.68533994126E+01 -0.35533848382E+01  0.21652239956E+02  0.00000000000E+00 0.  1.
</event>
<event>
 8    1  0.4964753E-012  0.9118800E+02  0.7816164E-02  0.1184000E+00
        -11   -1    0    0    0    0  0.00000000000E+00  0.00000000000E+00  0.45593999997E+02  0.45594000000E+02  0.51100000000E-03 0. -1.
         11   -1    0    0    0    0 -0.00000000000E+00 -0.00000000000E+00 -0.45593999997E+02  0.45594000000E+02  0.51100000000E-03 0.  1.
         23    2    1    2    0    0 -0.44408920985E-15  0.00000000000E+00  0.71054273576E-14  0.91188000000E+02  0.91188000000E+02 0.  0.
    9900012    2    3    3    0    0 -0.25300728154E+01 -0.26913495653E+02  0.30371504249E+02  0.50528858505E+02  0.29999995912E+02 0.  0.
        -12    1    3    3    0    0  0.25300728154E+01  0.26913495653E+02 -0.30371504249E+02  0.40659141495E+02  0.00000000000E+00 0.  1.
         11    1    4    4    0    0  0.85936809924E+00  0.40847544239E+01  0.91554346920E+01  0.10062093067E+02  0.51100000000E-03 0. -1.
        -11    1    4    4    0    0 -0.83681691924E+01 -0.15892092361E+02  0.14960998449E+02  0.23375549835E+02  0.51100000000E-03 0.  1.
        -12    1    4    4    0    0  0.49787282778E+01 -0.15106157716E+02  0.62550711083E+01  0.17091215603E+02  0.00000000000E+00 0.  1.
</event>
<event>
 8    1  0.4964753E-012  0.9118800E+02  0.7816164E-02  0.1184000E+00
        -11   -1    0    0    0    0  0.00000000000E+00  0.00000000000E+00  0.45593999997E+02  0.45594000000E+02  0.51100000000E-03 0. -1.
         11   -1    0    0    0    0 -0.00000000000E+00 -0.00000000000E+00 -0.45593999997E+02  0.45594000000E+02  0.51100000000E-03 0.  1.
         23    2    1    2    0    0 -0.35527136788E-14  0.66613381478E-15 -0.35527136788E-14  0.91188000000E+02  0.91188000000E+02 0.  0.
    9900012    2    3    3    0    0  0.27404450120E+02  0.11029856581E+01 -0.30015757285E+02  0.50528854053E+02  0.29999982378E+02 0.  0.
         12    1    3    3    0    0 -0.27404450120E+02 -0.11029856581E+01  0.30015757285E+02  0.40659145947E+02  0.00000000000E+00 0. -1.
         11    1    4    4    0    0  0.14666538722E+02  0.15562525230E+01 -0.12681218697E+02  0.19451030510E+02  0.51100000000E-03 0.  1.
        -11    1    4    4    0    0  0.14204766329E+02 -0.70147469331E+01 -0.43067046873E+01  0.16417361741E+02  0.51100000000E-03 0. -1.
         12    1    4    4    0    0 -0.14668549316E+01  0.65614800682E+01 -0.13027833901E+02  0.14660461802E+02  0.00000000000E+00 0. -1.
</event>
<event>
 8    1  0.4964753E-012  0.9118800E+02  0.7816164E-02  0.1184000E+00
        -11   -1    0    0    0    0  0.00000000000E+00  0.00000000000E+00  0.45593999997E+02  0.45594000000E+02  0.51100000000E-03 0.  1.
         11   -1    0    0    0    0 -0.00000000000E+00 -0.00000000000E+00 -0.45593999997E+02  0.45594000000E+02  0.51100000000E-03 0. -1.
         23    2    1    2    0    0  0.17763568394E-14  0.00000000000E+00  0.35527136788E-14  0.91188000000E+02  0.91188000000E+02 0.  0.
    9900012    2    3    3    0    0 -0.80621655933E+01 -0.36662427435E+02 -0.15621580447E+02  0.50528857422E+02  0.29999992620E+02 0.  0.
         12    1    3    3    0    0  0.80621655933E+01  0.36662427435E+02  0.15621580447E+02  0.40659142578E+02  0.00000000000E+00 0. -1.
         11    1    4    4    0    0 -0.84735168860E+01 -0.64773924847E+01 -0.98743349008E+00  0.10711308369E+02  0.51100000000E-03 0.  1.
        -11    1    4    4    0    0  0.34866369466E+01 -0.32557647520E+02 -0.11122539791E+02  0.34581323585E+02  0.51100000000E-03 0. -1.
         12    1    4    4    0    0 -0.30752856538E+01  0.23726125693E+01 -0.35116071665E+01  0.52362254677E+01  0.00000000000E+00 0. -1.
</event>
<event>
 8    1  0.4964753E-012  0.9118800E+02  0.7816164E-02  0.1184000E+00
        -11   -1    0    0    0    0  0.00000000000E+00  0.00000000000E+00  0.45593999997E+02  0.45594000000E+02  0.51100000000E-03 0. -1.
         11   -1    0    0    0    0 -0.00000000000E+00 -0.00000000000E+00 -0.45593999997E+02  0.45594000000E+02  0.51100000000E-03 0.  1.
         23    2    1    2    0    0  0.44408920985E-15  0.13322676296E-14  0.00000000000E+00  0.91188000000E+02  0.91188000000E+02 0.  0.
    9900012    2    3    3    0    0  0.38166122138E+01  0.37112772579E+01  0.40309121861E+02  0.50528863107E+02  0.30000009899E+02 0.  0.
        -12    1    3    3    0    0 -0.38166122138E+01 -0.37112772579E+01 -0.40309121861E+02  0.40659136893E+02  0.00000000000E+00 0.  1.
         11    1    4    4    0    0  0.49634339016E+01  0.59264099333E+01  0.77936850964E+01  0.10977228176E+02  0.51100000000E-03 0. -1.
        -11    1    4    4    0    0 -0.73508076037E+00  0.21985794272E-01  0.35661661776E+02  0.35669243726E+02  0.51100000000E-03 0.  1.
        -12    1    4    4    0    0 -0.41174092742E+00 -0.22371184697E+01 -0.31462250112E+01  0.38823912039E+01  0.00000000000E+00 0.  1.
</event>
<event>
 8    1  0.4964753E-012  0.9118800E+02  0.7816164E-02  0.1184000E+00
        -11   -1    0    0    0    0  0.00000000000E+00  0.00000000000E+00  0.45593999997E+02  0.45594000000E+02  0.51100000000E-03 0. -1.
         11   -1    0    0    0    0 -0.00000000000E+00 -0.00000000000E+00 -0.45593999997E+02  0.45594000000E+02  0.51100000000E-03 0.  1.
         23    2    1    2    0    0  0.00000000000E+00 -0.71054273576E-14  0.35527136788E-14  0.91188000000E+02  0.91188000000E+02 0.  0.
    9900012    2    3    3    0    0 -0.23102029296E+01 -0.31550111961E+02  0.25542499333E+02  0.50528857430E+02  0.29999992645E+02 0.  0.
        -12    1    3    3    0    0  0.23102029296E+01  0.31550111961E+02 -0.25542499333E+02  0.40659142570E+02  0.00000000000E+00 0.  1.
         11    1    4    4    0    0 -0.76044809094E+01 -0.80385972531E+01  0.16013688251E+02  0.19464978484E+02  0.51100000000E-03 0. -1.
        -11    1    4    4    0    0  0.54687393642E+01 -0.59310464927E+01  0.10749642134E+02  0.13440209410E+02  0.51100000000E-03 0.  1.
        -12    1    4    4    0    0 -0.17446138439E+00 -0.17580468216E+02 -0.12208310526E+01  0.17623669536E+02  0.00000000000E+00 0.  1.
</event>
<event>
 8    1  0.4964753E-012  0.9118800E+02  0.7816164E-02  0.1184000E+00
        -11   -1    0    0    0    0  0.00000000000E+00  0.00000000000E+00  0.45593999997E+02  0.45594000000E+02  0.51100000000E-03 0. -1.
         11   -1    0    0    0    0 -0.00000000000E+00 -0.00000000000E+00 -0.45593999997E+02  0.45594000000E+02  0.51100000000E-03 0.  1.
         23    2    1    2    0    0  0.88817841970E-15  0.17763568394E-14  0.00000000000E+00  0.91188000000E+02  0.91188000000E+02 0.  0.
    9900012    2    3    3    0    0  0.46984822166E+01 -0.89740421531E+01 -0.39377112676E+02  0.50528853792E+02  0.29999981586E+02 0.  0.
         12    1    3    3    0    0 -0.46984822166E+01  0.89740421531E+01  0.39377112676E+02  0.40659146208E+02  0.00000000000E+00 0. -1.
         11    1    4    4    0    0  0.71848375189E+01 -0.13520801268E+01 -0.11710910768E+02  0.13805630812E+02  0.51100000000E-03 0. -1.
        -11    1    4    4    0    0  0.61479639994E+01 -0.92019869484E+01 -0.44944211066E+01  0.11944615795E+02  0.51100000000E-03 0.  1.
         12    1    4    4    0    0 -0.86343193017E+01  0.15800249220E+01 -0.23171780801E+02  0.24778607185E+02  0.00000000000E+00 0. -1.
</event>
<event>
 8    1  0.4964753E-012  0.9118800E+02  0.7816164E-02  0.1184000E+00
        -11   -1    0    0    0    0  0.00000000000E+00  0.00000000000E+00  0.45593999997E+02  0.45594000000E+02  0.51100000000E-03 0. -1.
         11   -1    0    0    0    0 -0.00000000000E+00 -0.00000000000E+00 -0.45593999997E+02  0.45594000000E+02  0.51100000000E-03 0.  1.
         23    2    1    2    0    0  0.00000000000E+00 -0.26645352591E-14  0.00000000000E+00  0.91188000000E+02  0.91188000000E+02 0.  0.
    9900012    2    3    3    0    0 -0.65529569207E+01  0.43185540907E+01  0.39894540938E+02  0.50528861415E+02  0.30000004756E+02 0.  0.
        -12    1    3    3    0    0  0.65529569207E+01 -0.43185540907E+01 -0.39894540938E+02  0.40659138585E+02  0.00000000000E+00 0.  1.
         11    1    4    4    0    0 -0.31958243908E+01  0.45422604590E-01 -0.24079225809E+00  0.32052048175E+01  0.51100000000E-03 0. -1.
        -11    1    4    4    0    0  0.33123758888E+01 -0.92019082015E+01  0.12592023294E+02  0.15943838919E+02  0.51100000000E-03 0.  1.
         12    1    4    4    0    0 -0.66695084187E+01  0.13475039688E+02  0.27543309902E+02  0.31379817678E+02  0.00000000000E+00 0. -1.
</event>
<event>
 8    1  0.4964753E-012  0.9118800E+02  0.7816164E-02  0.1184000E+00
        -11   -1    0    0    0    0  0.00000000000E+00  0.00000000000E+00  0.45593999997E+02  0.45594000000E+02  0.51100000000E-03 0. -1.
         11   -1    0    0    0    0 -0.00000000000E+00 -0.00000000000E+00 -0.45593999997E+02  0.45594000000E+02  0.51100000000E-03 0.  1.
         23    2    1    2    0    0  0.00000000000E+00  0.00000000000E+00 -0.35527136788E-14  0.91188000000E+02  0.91188000000E+02 0.  0.
    9900012    2    3    3    0    0  0.13803536979E+02  0.26330178440E+02  0.27737156995E+02  0.50528858248E+02  0.29999995130E+02 0.  0.
        -12    1    3    3    0    0 -0.13803536979E+02 -0.26330178440E+02 -0.27737156995E+02  0.40659141752E+02  0.00000000000E+00 0.  1.
         11    1    4    4    0    0  0.48383450965E+01  0.14062170303E+02  0.14823005318E+02  0.20997040359E+02  0.51100000000E-03 0. -1.
        -11    1    4    4    0    0 -0.13297377052E+01  0.14260878410E+02  0.21128500385E+01  0.14477741224E+02  0.51100000000E-03 0.  1.
        -12    1    4    4    0    0  0.10294929588E+02 -0.19928702729E+01  0.10801301639E+02  0.15054076665E+02  0.00000000000E+00 0.  1.
</event>
<event>
 8    1  0.4964753E-012  0.9118800E+02  0.7816164E-02  0.1184000E+00
        -11   -1    0    0    0    0  0.00000000000E+00  0.00000000000E+00  0.45593999997E+02  0.45594000000E+02  0.51100000000E-03 0. -1.
         11   -1    0    0    0    0 -0.00000000000E+00 -0.00000000000E+00 -0.45593999997E+02  0.45594000000E+02  0.51100000000E-03 0.  1.
         23    2    1    2    0    0  0.00000000000E+00  0.00000000000E+00  0.44408920985E-15  0.91188000000E+02  0.91188000000E+02 0.  0.
    9900012    2    3    3    0    0  0.79817769742E+01  0.39843087225E+02  0.14092905661E+01  0.50528850191E+02  0.29999970640E+02 0.  0.
         12    1    3    3    0    0 -0.79817769742E+01 -0.39843087225E+02 -0.14092905661E+01  0.40659149809E+02  0.00000000000E+00 0. -1.
         11    1    4    4    0    0 -0.32310876733E+01  0.22456564202E+01 -0.74631586847E+01  0.84369211282E+01  0.51100000000E-03 0. -1.
        -11    1    4    4    0    0  0.58275768055E+01  0.47689285764E+01 -0.44856827144E+00  0.75435101210E+01  0.51100000000E-03 0.  1.
         12    1    4    4    0    0  0.53852878420E+01  0.32828502229E+02  0.93210175222E+01  0.34548418942E+02  0.00000000000E+00 0. -1.
</event>
<event>
 8    1  0.4964753E-012  0.9118800E+02  0.7816164E-02  0.1184000E+00
        -11   -1    0    0    0    0  0.00000000000E+00  0.00000000000E+00  0.45593999997E+02  0.45594000000E+02  0.51100000000E-03 0. -1.
         11   -1    0    0    0    0 -0.00000000000E+00 -0.00000000000E+00 -0.45593999997E+02  0.45594000000E+02  0.51100000000E-03 0.  1.
         23    2    1    2    0    0  0.00000000000E+00 -0.71054273576E-14  0.00000000000E+00  0.91188000000E+02  0.91188000000E+02 0.  0.
    9900012    2    3    3    0    0  0.95147992832E+01  0.34550563831E+02  0.19206580390E+02  0.50528860846E+02  0.30000003029E+02 0.  0.
        -12    1    3    3    0    0 -0.95147992832E+01 -0.34550563831E+02 -0.19206580390E+02  0.40659139154E+02  0.00000000000E+00 0.  1.
         11    1    4    4    0    0 -0.17065158089E+01  0.15315502267E+02  0.15406021164E+02  0.21790417487E+02  0.51100000000E-03 0. -1.
        -11    1    4    4    0    0 -0.14758224841E+01 -0.14485982645E+01  0.39605702950E+01  0.44679532517E+01  0.51100000000E-03 0.  1.
         12    1    4    4    0    0  0.12697137576E+02  0.20683659828E+02 -0.16001106857E+00  0.24270490108E+02  0.00000000000E+00 0. -1.
</event>
<event>
 8    1  0.4964753E-012  0.9118800E+02  0.7816164E-02  0.1184000E+00
        -11   -1    0    0    0    0  0.00000000000E+00  0.00000000000E+00  0.45593999997E+02  0.45594000000E+02  0.51100000000E-03 0. -1.
         11   -1    0    0    0    0 -0.00000000000E+00 -0.00000000000E+00 -0.45593999997E+02  0.45594000000E+02  0.51100000000E-03 0.  1.
         23    2    1    2    0    0 -0.14432899320E-14  0.00000000000E+00 -0.35527136788E-14  0.91188000000E+02  0.91188000000E+02 0.  0.
    9900012    2    3    3    0    0  0.57280075157E+00  0.25431942287E+02  0.31718353040E+02  0.50528859469E+02  0.29999998841E+02 0.  0.
        -12    1    3    3    0    0 -0.57280075157E+00 -0.25431942287E+02 -0.31718353040E+02  0.40659140531E+02  0.00000000000E+00 0.  1.
         11    1    4    4    0    0  0.88107001041E+01  0.61899559258E+01  0.34462329324E+01  0.11305773409E+02  0.51100000000E-03 0. -1.
        -11    1    4    4    0    0  0.95280822007E+00  0.12812249889E+02  0.57771437536E+01  0.14086766163E+02  0.51100000000E-03 0.  1.
        -12    1    4    4    0    0 -0.91907075726E+01  0.64297364723E+01  0.22494976354E+02  0.25136319897E+02  0.00000000000E+00 0.  1.
</event>
<event>
 8    1  0.4964753E-012  0.9118800E+02  0.7816164E-02  0.1184000E+00
        -11   -1    0    0    0    0  0.00000000000E+00  0.00000000000E+00  0.45593999997E+02  0.45594000000E+02  0.51100000000E-03 0. -1.
         11   -1    0    0    0    0 -0.00000000000E+00 -0.00000000000E+00 -0.45593999997E+02  0.45594000000E+02  0.51100000000E-03 0.  1.
         23    2    1    2    0    0  0.13322676296E-14  0.88817841970E-15  0.00000000000E+00  0.91188000000E+02  0.91188000000E+02 0.  0.
    9900012    2    3    3    0    0  0.23155338180E+01  0.62817861056E+01 -0.40104169337E+02  0.50528844429E+02  0.29999953126E+02 0.  0.
         12    1    3    3    0    0 -0.23155338180E+01 -0.62817861056E+01  0.40104169337E+02  0.40659155571E+02  0.00000000000E+00 0. -1.
         11    1    4    4    0    0  0.51040260538E+01  0.11357667422E+02 -0.48968138219E+01  0.13380077619E+02  0.51100000000E-03 0. -1.
        -11    1    4    4    0    0  0.38881023197E+01 -0.23233132847E+01 -0.15995607677E+02  0.16624517722E+02  0.51100000000E-03 0.  1.
        -12    1    4    4    0    0 -0.66765945555E+01 -0.27525680316E+01 -0.19211747838E+02  0.20524249088E+02  0.00000000000E+00 0.  1.
</event>
<event>
 8    1  0.4964753E-012  0.9118800E+02  0.7816164E-02  0.1184000E+00
        -11   -1    0    0    0    0  0.00000000000E+00  0.00000000000E+00  0.45593999997E+02  0.45594000000E+02  0.51100000000E-03 0. -1.
         11   -1    0    0    0    0 -0.00000000000E+00 -0.00000000000E+00 -0.45593999997E+02  0.45594000000E+02  0.51100000000E-03 0.  1.
         23    2    1    2    0    0  0.00000000000E+00 -0.11102230246E-15  0.00000000000E+00  0.91188000000E+02  0.91188000000E+02 0.  0.
    9900012    2    3    3    0    0 -0.10021599635E+02  0.95254867836E+00 -0.39393221230E+02  0.50528859735E+02  0.29999999650E+02 0.  0.
         12    1    3    3    0    0  0.10021599635E+02 -0.95254867836E+00  0.39393221230E+02  0.40659140265E+02  0.00000000000E+00 0. -1.
         11    1    4    4    0    0  0.52793199896E+01  0.17758463531E+01 -0.16817204504E+01  0.58183359955E+01  0.51100000000E-03 0. -1.
        -11    1    4    4    0    0 -0.48488400002E+01 -0.29555152310E+01 -0.16811578014E+00  0.56810723288E+01  0.51100000000E-03 0.  1.
        -12    1    4    4    0    0 -0.10452079625E+02  0.21322175563E+01 -0.37543384999E+02  0.39029451410E+02  0.00000000000E+00 0.  1.
</event>
<event>
 8    1  0.4964753E-012  0.9118800E+02  0.7816164E-02  0.1184000E+00
        -11   -1    0    0    0    0  0.00000000000E+00  0.00000000000E+00  0.45593999997E+02  0.45594000000E+02  0.51100000000E-03 0. -1.
         11   -1    0    0    0    0 -0.00000000000E+00 -0.00000000000E+00 -0.45593999997E+02  0.45594000000E+02  0.51100000000E-03 0.  1.
         23    2    1    2    0    0  0.35527136788E-14 -0.35527136788E-14 -0.35527136788E-14  0.91188000000E+02  0.91188000000E+02 0.  0.
    9900012    2    3    3    0    0 -0.19107748734E+02 -0.27409824423E+02 -0.23168102984E+02  0.50528861636E+02  0.30000005429E+02 0.  0.
         12    1    3    3    0    0  0.19107748734E+02  0.27409824423E+02  0.23168102984E+02  0.40659138364E+02  0.00000000000E+00 0. -1.
         11    1    4    4    0    0 -0.33292321582E+00 -0.16727666341E+00  0.13425459705E+01  0.13932872259E+01  0.51100000000E-03 0. -1.
        -11    1    4    4    0    0 -0.19906358992E+02 -0.22798521864E+02 -0.29565715871E+02  0.42310368502E+02  0.51100000000E-03 0.  1.
        -12    1    4    4    0    0  0.11315334736E+01 -0.44440258956E+01  0.50550669166E+01  0.68252059086E+01  0.00000000000E+00 0.  1.
</event>
<event>
 8    1  0.4964753E-012  0.9118800E+02  0.7816164E-02  0.1184000E+00
        -11   -1    0    0    0    0  0.00000000000E+00  0.00000000000E+00  0.45593999997E+02  0.45594000000E+02  0.51100000000E-03 0. -1.
         11   -1    0    0    0    0 -0.00000000000E+00 -0.00000000000E+00 -0.45593999997E+02  0.45594000000E+02  0.51100000000E-03 0.  1.
         23    2    1    2    0    0  0.35527136788E-14  0.00000000000E+00  0.00000000000E+00  0.91188000000E+02  0.91188000000E+02 0.  0.
    9900012    2    3    3    0    0  0.30488191604E+02 -0.14212811701E+02  0.22839261825E+02  0.50528859276E+02  0.29999998255E+02 0.  0.
        -12    1    3    3    0    0 -0.30488191604E+02  0.14212811701E+02 -0.22839261825E+02  0.40659140724E+02  0.00000000000E+00 0.  1.
         11    1    4    4    0    0 -0.21515793218E+01  0.88070989430E+00  0.34909784066E+01  0.41942668003E+01  0.51100000000E-03 0. -1.
        -11    1    4    4    0    0  0.36045116881E+01  0.52680469164E+01  0.48741559854E+01  0.80313273906E+01  0.51100000000E-03 0.  1.
         12    1    4    4    0    0  0.29035259238E+02 -0.20361568511E+02  0.14474127433E+02  0.38303265085E+02  0.00000000000E+00 0. -1.
</event>
<event>
 8    1  0.4964753E-012  0.9118800E+02  0.7816164E-02  0.1184000E+00
        -11   -1    0    0    0    0  0.00000000000E+00  0.00000000000E+00  0.45593999997E+02  0.45594000000E+02  0.51100000000E-03 0. -1.
         11   -1    0    0    0    0 -0.00000000000E+00 -0.00000000000E+00 -0.45593999997E+02  0.45594000000E+02  0.51100000000E-03 0.  1.
         23    2    1    2    0    0  0.00000000000E+00  0.00000000000E+00  0.00000000000E+00  0.91188000000E+02  0.91188000000E+02 0.  0.
    9900012    2    3    3    0    0 -0.12002819051E+02  0.89992632738E+01  0.37790333128E+02  0.50528884385E+02  0.30000074576E+02 0.  0.
        -12    1    3    3    0    0  0.12002819051E+02 -0.89992632738E+01 -0.37790333128E+02  0.40659115615E+02  0.00000000000E+00 0.  1.
         11    1    4    4    0    0  0.64177194163E+01  0.73100499883E+01  0.10611127928E+02  0.14395137703E+02  0.51100000000E-03 0. -1.
        -11    1    4    4    0    0 -0.97289233602E+00 -0.25066724080E+01  0.12965821421E+02  0.13241693678E+02  0.51100000000E-03 0.  1.
        -12    1    4    4    0    0 -0.17447646131E+02  0.41958856936E+01  0.14213383779E+02  0.22892053004E+02  0.00000000000E+00 0.  1.
</event>
<event>
 8    1  0.4964753E-012  0.9118800E+02  0.7816164E-02  0.1184000E+00
        -11   -1    0    0    0    0  0.00000000000E+00  0.00000000000E+00  0.45593999997E+02  0.45594000000E+02  0.51100000000E-03 0.  1.
         11   -1    0    0    0    0 -0.00000000000E+00 -0.00000000000E+00 -0.45593999997E+02  0.45594000000E+02  0.51100000000E-03 0. -1.
         23    2    1    2    0    0  0.00000000000E+00  0.35527136788E-14  0.26645352591E-14  0.91188000000E+02  0.91188000000E+02 0.  0.
    9900012    2    3    3    0    0  0.24360915176E+02  0.31787668660E+02  0.70182505703E+01  0.50528857017E+02  0.29999991390E+02 0.  0.
        -12    1    3    3    0    0 -0.24360915176E+02 -0.31787668660E+02 -0.70182505703E+01  0.40659142983E+02  0.00000000000E+00 0.  1.
         11    1    4    4    0    0  0.53187830422E+01  0.47126802267E+01  0.13069914200E+02  0.14876876871E+02  0.51100000000E-03 0.  1.
        -11    1    4    4    0    0  0.94997190891E+01  0.52737461112E+01  0.77799132622E+00  0.10893224113E+02  0.51100000000E-03 0. -1.
        -12    1    4    4    0    0  0.95424130447E+01  0.21801242322E+02 -0.68296549564E+01  0.24758756033E+02  0.00000000000E+00 0.  1.
</event>
<event>
 8    1  0.4964753E-012  0.9118800E+02  0.7816164E-02  0.1184000E+00
        -11   -1    0    0    0    0  0.00000000000E+00  0.00000000000E+00  0.45593999997E+02  0.45594000000E+02  0.51100000000E-03 0. -1.
         11   -1    0    0    0    0 -0.00000000000E+00 -0.00000000000E+00 -0.45593999997E+02  0.45594000000E+02  0.51100000000E-03 0.  1.
         23    2    1    2    0    0  0.35527136788E-14  0.00000000000E+00  0.00000000000E+00  0.91188000000E+02  0.91188000000E+02 0.  0.
    9900012    2    3    3    0    0 -0.16422909319E+02 -0.17335177339E+02 -0.32908057255E+02  0.50528922832E+02  0.30000191439E+02 0.  0.
         12    1    3    3    0    0  0.16422909319E+02  0.17335177339E+02  0.32908057255E+02  0.40659077168E+02  0.00000000000E+00 0. -1.
         11    1    4    4    0    0 -0.15460830255E+02 -0.17021421602E+00 -0.74212869298E+01  0.17150561070E+02  0.51100000000E-03 0. -1.
        -11    1    4    4    0    0 -0.28956200317E+01 -0.79970563629E+01 -0.30018208511E+01  0.90193378096E+01  0.51100000000E-03 0.  1.
         12    1    4    4    0    0  0.19335409681E+01 -0.91679067603E+01 -0.22484949474E+02  0.24359023952E+02  0.00000000000E+00 0. -1.
</event>
<event>
 8    1  0.4964753E-012  0.9118800E+02  0.7816164E-02  0.1184000E+00
        -11   -1    0    0    0    0  0.00000000000E+00  0.00000000000E+00  0.45593999997E+02  0.45594000000E+02  0.51100000000E-03 0. -1.
         11   -1    0    0    0    0 -0.00000000000E+00 -0.00000000000E+00 -0.45593999997E+02  0.45594000000E+02  0.51100000000E-03 0.  1.
         23    2    1    2    0    0 -0.35527136788E-14  0.00000000000E+00  0.00000000000E+00  0.91188000000E+02  0.91188000000E+02 0.  0.
    9900012    2    3    3    0    0 -0.25853681062E+02  0.17954294466E+02  0.25737052001E+02  0.50528863758E+02  0.30000011880E+02 0.  0.
        -12    1    3    3    0    0  0.25853681062E+02 -0.17954294466E+02 -0.25737052001E+02  0.40659136242E+02  0.00000000000E+00 0.  1.
         11    1    4    4    0    0  0.42698502839E+01  0.60502712607E+01  0.60196329146E+01  0.95432376300E+01  0.51100000000E-03 0.  1.
        -11    1    4    4    0    0 -0.70454138309E+01  0.80767494579E+01  0.53162023013E+00  0.10730999869E+02  0.51100000000E-03 0. -1.
        -12    1    4    4    0    0 -0.23078117515E+02  0.38272737475E+01  0.19185798856E+02  0.30254626260E+02  0.00000000000E+00 0.  1.
</event>
<event>
 8    1  0.4964753E-012  0.9118800E+02  0.7816164E-02  0.1184000E+00
        -11   -1    0    0    0    0  0.00000000000E+00  0.00000000000E+00  0.45593999997E+02  0.45594000000E+02  0.51100000000E-03 0. -1.
         11   -1    0    0    0    0 -0.00000000000E+00 -0.00000000000E+00 -0.45593999997E+02  0.45594000000E+02  0.51100000000E-03 0.  1.
         23    2    1    2    0    0 -0.35527136788E-14  0.00000000000E+00  0.00000000000E+00  0.91188000000E+02  0.91188000000E+02 0.  0.
    9900012    2    3    3    0    0  0.28116583236E+02  0.17148235657E+02  0.23844511561E+02  0.50528868546E+02  0.30000026434E+02 0.  0.
        -12    1    3    3    0    0 -0.28116583236E+02 -0.17148235657E+02 -0.23844511561E+02  0.40659131454E+02  0.00000000000E+00 0.  1.
         11    1    4    4    0    0  0.97944205918E+01  0.11237843378E+02  0.78114388291E+01  0.16829687322E+02  0.51100000000E-03 0. -1.
        -11    1    4    4    0    0  0.23427347748E+02  0.26477960245E+01  0.13017723820E+02  0.26931627876E+02  0.51100000000E-03 0.  1.
        -12    1    4    4    0    0 -0.51051851044E+01  0.32625962539E+01  0.30153489115E+01  0.67675533485E+01  0.00000000000E+00 0.  1.
</event>
<event>
 8    1  0.4964753E-012  0.9118800E+02  0.7816164E-02  0.1184000E+00
        -11   -1    0    0    0    0  0.00000000000E+00  0.00000000000E+00  0.45593999997E+02  0.45594000000E+02  0.51100000000E-03 0. -1.
         11   -1    0    0    0    0 -0.00000000000E+00 -0.00000000000E+00 -0.45593999997E+02  0.45594000000E+02  0.51100000000E-03 0.  1.
         23    2    1    2    0    0  0.17763568394E-14  0.00000000000E+00  0.00000000000E+00  0.91188000000E+02  0.91188000000E+02 0.  0.
    9900012    2    3    3    0    0  0.69118591982E+01  0.21252928051E+02  0.33966244732E+02  0.50528849376E+02  0.29999968163E+02 0.  0.
        -12    1    3    3    0    0 -0.69118591982E+01 -0.21252928051E+02 -0.33966244732E+02  0.40659150624E+02  0.00000000000E+00 0.  1.
         11    1    4    4    0    0  0.68601629382E+01  0.10044767316E+02  0.98762474146E+01  0.15668422040E+02  0.51100000000E-03 0. -1.
        -11    1    4    4    0    0  0.70516220016E+01 -0.51118544191E+00 -0.11550553924E+00  0.70710695938E+01  0.51100000000E-03 0.  1.
        -12    1    4    4    0    0 -0.69999257417E+01  0.11719346177E+02  0.24205502856E+02  0.27789357742E+02  0.00000000000E+00 0.  1.
</event>
<event>
 8    1  0.4964753E-012  0.9118800E+02  0.7816164E-02  0.1184000E+00
        -11   -1    0    0    0    0  0.00000000000E+00  0.00000000000E+00  0.45593999997E+02  0.45594000000E+02  0.51100000000E-03 0. -1.
         11   -1    0    0    0    0 -0.00000000000E+00 -0.00000000000E+00 -0.45593999997E+02  0.45594000000E+02  0.51100000000E-03 0.  1.
         23    2    1    2    0    0  0.00000000000E+00  0.00000000000E+00  0.00000000000E+00  0.91188000000E+02  0.91188000000E+02 0.  0.
    9900012    2    3    3    0    0  0.19649197145E+02 -0.34342902566E+01  0.35429946713E+02  0.50528850697E+02  0.29999972178E+02 0.  0.
        -12    1    3    3    0    0 -0.19649197145E+02  0.34342902566E+01 -0.35429946713E+02  0.40659149303E+02  0.00000000000E+00 0.  1.
         11    1    4    4    0    0 -0.35138647184E+01 -0.49962705822E+01  0.44998315057E+01  0.75867284670E+01  0.51100000000E-03 0. -1.
        -11    1    4    4    0    0  0.70431908977E+01 -0.15391626779E+01 -0.76342591716E+00  0.72497157988E+01  0.51100000000E-03 0.  1.
         12    1    4    4    0    0  0.16119870966E+02  0.31011430035E+01  0.31693541124E+02  0.35692406431E+02  0.00000000000E+00 0. -1.
</event>
<event>
 8    1  0.4964753E-012  0.9118800E+02  0.7816164E-02  0.1184000E+00
        -11   -1    0    0    0    0  0.00000000000E+00  0.00000000000E+00  0.45593999997E+02  0.45594000000E+02  0.51100000000E-03 0. -1.
         11   -1    0    0    0    0 -0.00000000000E+00 -0.00000000000E+00 -0.45593999997E+02  0.45594000000E+02  0.51100000000E-03 0.  1.
         23    2    1    2    0    0  0.33306690739E-15  0.00000000000E+00  0.35527136788E-14  0.91188000000E+02  0.91188000000E+02 0.  0.
    9900012    2    3    3    0    0 -0.25703830820E+00  0.36715768529E+02 -0.17465749606E+02  0.50528854207E+02  0.29999982847E+02 0.  0.
         12    1    3    3    0    0  0.25703830820E+00 -0.36715768529E+02  0.17465749606E+02  0.40659145793E+02  0.00000000000E+00 0. -1.
         11    1    4    4    0    0 -0.71911352595E+01  0.12471248406E+02  0.23415681997E+00  0.14397891957E+02  0.51100000000E-03 0. -1.
        -11    1    4    4    0    0  0.35695880910E+01  0.25293965078E+02 -0.19534397212E+02  0.32157725404E+02  0.51100000000E-03 0.  1.
         12    1    4    4    0    0  0.33645088603E+01 -0.10494449552E+01  0.18344907861E+01  0.39732368454E+01  0.00000000000E+00 0. -1.
</event>
<event>
 8    1  0.4964753E-012  0.9118800E+02  0.7816164E-02  0.1184000E+00
        -11   -1    0    0    0    0  0.00000000000E+00  0.00000000000E+00  0.45593999997E+02  0.45594000000E+02  0.51100000000E-03 0. -1.
         11   -1    0    0    0    0 -0.00000000000E+00 -0.00000000000E+00 -0.45593999997E+02  0.45594000000E+02  0.51100000000E-03 0.  1.
         23    2    1    2    0    0  0.00000000000E+00  0.35527136788E-14 -0.17763568394E-14  0.91188000000E+02  0.91188000000E+02 0.  0.
    9900012    2    3    3    0    0  0.25651822272E+02  0.28957011874E+02 -0.12515639930E+02  0.50528858771E+02  0.29999996721E+02 0.  0.
         12    1    3    3    0    0 -0.25651822272E+02 -0.28957011874E+02  0.12515639930E+02  0.40659141229E+02  0.00000000000E+00 0. -1.
         11    1    4    4    0    0 -0.14781285083E+00  0.97947550359E+01 -0.88170015104E+01  0.13179476118E+02  0.51100000000E-03 0. -1.
        -11    1    4    4    0    0  0.15842241211E+01 -0.12975574499E+01 -0.52241047454E+01  0.56111221742E+01  0.51100000000E-03 0.  1.
         12    1    4    4    0    0  0.24215411002E+02  0.20459814288E+02  0.15254663255E+01  0.31738260479E+02  0.00000000000E+00 0. -1.
</event>
<event>
 8    1  0.4964753E-012  0.9118800E+02  0.7816164E-02  0.1184000E+00
        -11   -1    0    0    0    0  0.00000000000E+00  0.00000000000E+00  0.45593999997E+02  0.45594000000E+02  0.51100000000E-03 0.  1.
         11   -1    0    0    0    0 -0.00000000000E+00 -0.00000000000E+00 -0.45593999997E+02  0.45594000000E+02  0.51100000000E-03 0. -1.
         23    2    1    2    0    0  0.00000000000E+00  0.00000000000E+00 -0.17763568394E-14  0.91188000000E+02  0.91188000000E+02 0.  0.
    9900012    2    3    3    0    0 -0.38670155834E+02 -0.41704012401E+01 -0.11848758850E+02  0.50528852382E+02  0.29999977302E+02 0.  0.
         12    1    3    3    0    0  0.38670155834E+02  0.41704012401E+01  0.11848758850E+02  0.40659147618E+02  0.00000000000E+00 0. -1.
         11    1    4    4    0    0 -0.19064013277E+00  0.30701471918E+01  0.71970142277E+00  0.31591324503E+01  0.51100000000E-03 0. -1.
        -11    1    4    4    0    0 -0.26570772493E+02 -0.40617214520E+01  0.35130013104E+01  0.27108019303E+02  0.51100000000E-03 0.  1.
         12    1    4    4    0    0 -0.11908743207E+02 -0.31788269799E+01 -0.16081461583E+02  0.20261700629E+02  0.00000000000E+00 0. -1.
</event>
<event>
 8    1  0.4964753E-012  0.9118800E+02  0.7816164E-02  0.1184000E+00
        -11   -1    0    0    0    0  0.00000000000E+00  0.00000000000E+00  0.45593999997E+02  0.45594000000E+02  0.51100000000E-03 0.  1.
         11   -1    0    0    0    0 -0.00000000000E+00 -0.00000000000E+00 -0.45593999997E+02  0.45594000000E+02  0.51100000000E-03 0. -1.
         23    2    1    2    0    0  0.71054273576E-14 -0.44408920985E-15  0.00000000000E+00  0.91188000000E+02  0.91188000000E+02 0.  0.
    9900012    2    3    3    0    0 -0.40378688347E+02  0.39709309090E+01  0.26372666253E+01  0.50528905813E+02  0.30000139708E+02 0.  0.
        -12    1    3    3    0    0  0.40378688347E+02 -0.39709309090E+01 -0.26372666253E+01  0.40659094187E+02  0.00000000000E+00 0.  1.
         11    1    4    4    0    0 -0.75983404179E+01 -0.15370264092E+01 -0.25557087468E+01  0.81626512083E+01  0.51100000000E-03 0. -1.
        -11    1    4    4    0    0  0.41682563863E+01  0.75485428863E-01 -0.14899506610E+01  0.44271901456E+01  0.51100000000E-03 0.  1.
         12    1    4    4    0    0 -0.36948604315E+02  0.54324718894E+01  0.66829260331E+01  0.37939064459E+02  0.00000000000E+00 0. -1.
</event>
<event>
 8    1  0.4976225E-012  0.9118800E+02  0.7816164E-02  0.1184000E+00
        -11   -1    0    0    0    0  0.00000000000E+00  0.00000000000E+00  0.45593999997E+02  0.45594000000E+02  0.51100000000E-03 0. -1.
         11   -1    0    0    0    0 -0.00000000000E+00 -0.00000000000E+00 -0.45593999997E+02  0.45594000000E+02  0.51100000000E-03 0.  1.
         23    2    1    2    0    0  0.88817841970E-15 -0.71054273576E-14  0.00000000000E+00  0.91188000000E+02  0.91188000000E+02 0.  0.
    9900012    2    3    3    0    0  0.42573452233E+01 -0.36074063449E+02 -0.18267505365E+02  0.50528870714E+02  0.30000033021E+02 0.  0.
         12    1    3    3    0    0 -0.42573452233E+01  0.36074063449E+02  0.18267505365E+02  0.40659129286E+02  0.00000000000E+00 0. -1.
         11    1    4    4    0    0 -0.39598444896E+01 -0.13273677800E+02 -0.10992673033E+02  0.17683601199E+02  0.51100000000E-03 0. -1.
        -11    1    4    4    0    0  0.74598118821E+01 -0.23077439310E+02 -0.12688548538E+02  0.27371815115E+02  0.51100000000E-03 0.  1.
         12    1    4    4    0    0  0.75737783072E+00  0.27705366114E+00  0.54137162053E+01  0.54734543993E+01  0.00000000000E+00 0. -1.
</event>
<event>
 8    1  0.4964753E-012  0.9118800E+02  0.7816164E-02  0.1184000E+00
        -11   -1    0    0    0    0  0.00000000000E+00  0.00000000000E+00  0.45593999997E+02  0.45594000000E+02  0.51100000000E-03 0. -1.
         11   -1    0    0    0    0 -0.00000000000E+00 -0.00000000000E+00 -0.45593999997E+02  0.45594000000E+02  0.51100000000E-03 0.  1.
         23    2    1    2    0    0 -0.71054273576E-14 -0.22204460493E-15  0.35527136788E-14  0.91188000000E+02  0.91188000000E+02 0.  0.
    9900012    2    3    3    0    0 -0.31358903570E+02 -0.19170261617E+01  0.25809089886E+02  0.50528868884E+02  0.30000027458E+02 0.  0.
        -12    1    3    3    0    0  0.31358903570E+02  0.19170261617E+01 -0.25809089886E+02  0.40659131116E+02  0.00000000000E+00 0.  1.
         11    1    4    4    0    0  0.13847114502E+01 -0.60746692377E+01  0.10990336688E+02  0.12633547915E+02  0.51100000000E-03 0.  1.
        -11    1    4    4    0    0 -0.15491654674E+02  0.14106150746E+01  0.13108663341E+02  0.20342523301E+02  0.51100000000E-03 0. -1.
        -12    1    4    4    0    0 -0.17251960346E+02  0.27470280014E+01  0.17100898574E+01  0.17552797667E+02  0.00000000000E+00 0.  1.
</event>
<event>
 8    1  0.4964753E-012  0.9118800E+02  0.7816164E-02  0.1184000E+00
        -11   -1    0    0    0    0  0.00000000000E+00  0.00000000000E+00  0.45593999997E+02  0.45594000000E+02  0.51100000000E-03 0. -1.
         11   -1    0    0    0    0 -0.00000000000E+00 -0.00000000000E+00 -0.45593999997E+02  0.45594000000E+02  0.51100000000E-03 0.  1.
         23    2    1    2    0    0 -0.35527136788E-14  0.88817841970E-15  0.71054273576E-14  0.91188000000E+02  0.91188000000E+02 0.  0.
    9900012    2    3    3    0    0  0.18650697229E+02 -0.41950494066E+01 -0.35884795137E+02  0.50528862421E+02  0.30000007814E+02 0.  0.
         12    1    3    3    0    0 -0.18650697229E+02  0.41950494066E+01  0.35884795137E+02  0.40659137579E+02  0.00000000000E+00 0. -1.
         11    1    4    4    0    0  0.15135055529E+02 -0.47248028673E+01 -0.78591451089E+01  0.17696322502E+02  0.51100000000E-03 0. -1.
        -11    1    4    4    0    0  0.82164809753E+01  0.56668788567E+01 -0.18662150916E+02  0.21163646960E+02  0.51100000000E-03 0.  1.
        -12    1    4    4    0    0 -0.47008392758E+01 -0.51371253960E+01 -0.93634991130E+01  0.11668892958E+02  0.00000000000E+00 0.  1.
</event>
<event>
 8    1  0.4964753E-012  0.9118800E+02  0.7816164E-02  0.1184000E+00
        -11   -1    0    0    0    0  0.00000000000E+00  0.00000000000E+00  0.45593999997E+02  0.45594000000E+02  0.51100000000E-03 0.  1.
         11   -1    0    0    0    0 -0.00000000000E+00 -0.00000000000E+00 -0.45593999997E+02  0.45594000000E+02  0.51100000000E-03 0. -1.
         23    2    1    2    0    0  0.35527136788E-14  0.00000000000E+00  0.35527136788E-14  0.91188000000E+02  0.91188000000E+02 0.  0.
    9900012    2    3    3    0    0 -0.20787285908E+02  0.18250714266E+02 -0.29798711908E+02  0.50528892066E+02  0.30000097923E+02 0.  0.
         12    1    3    3    0    0  0.20787285908E+02 -0.18250714266E+02  0.29798711908E+02  0.40659107934E+02  0.00000000000E+00 0. -1.
         11    1    4    4    0    0  0.16734291463E+01 -0.13901778415E+01 -0.42333147938E+00  0.22163414316E+01  0.51100000000E-03 0. -1.
        -11    1    4    4    0    0 -0.13604064192E+02  0.31560268665E+00 -0.21589690896E+01  0.13777928559E+02  0.51100000000E-03 0.  1.
        -12    1    4    4    0    0 -0.88566508623E+01  0.19325289421E+02 -0.27216411339E+02  0.34534622075E+02  0.00000000000E+00 0.  1.
</event>
<event>
 8    1  0.4964753E-012  0.9118800E+02  0.7816164E-02  0.1184000E+00
        -11   -1    0    0    0    0  0.00000000000E+00  0.00000000000E+00  0.45593999997E+02  0.45594000000E+02  0.51100000000E-03 0. -1.
         11   -1    0    0    0    0 -0.00000000000E+00 -0.00000000000E+00 -0.45593999997E+02  0.45594000000E+02  0.51100000000E-03 0.  1.
         23    2    1    2    0    0 -0.71054273576E-14  0.00000000000E+00  0.00000000000E+00  0.91188000000E+02  0.91188000000E+02 0.  0.
    9900012    2    3    3    0    0  0.35699495723E+02  0.17771776928E+02 -0.79288559187E+01  0.50528968946E+02  0.30000331608E+02 0.  0.
         12    1    3    3    0    0 -0.35699495723E+02 -0.17771776928E+02  0.79288559187E+01  0.40659031054E+02  0.00000000000E+00 0. -1.
         11    1    4    4    0    0 -0.36583854962E+01  0.20135712660E+01 -0.29935746996E+01  0.51380680635E+01  0.51100000000E-03 0. -1.
        -11    1    4    4    0    0  0.26599622041E+02  0.29195045050E+01 -0.53378349366E+01  0.27286551291E+02  0.51100000000E-03 0.  1.
         12    1    4    4    0    0  0.12758259178E+02  0.12838701157E+02  0.40255371745E+00  0.18104349592E+02  0.00000000000E+00 0. -1.
</event>
<event>
 8    1  0.4964753E-012  0.9118800E+02  0.7816164E-02  0.1184000E+00
        -11   -1    0    0    0    0  0.00000000000E+00  0.00000000000E+00  0.45593999997E+02  0.45594000000E+02  0.51100000000E-03 0. -1.
         11   -1    0    0    0    0 -0.00000000000E+00 -0.00000000000E+00 -0.45593999997E+02  0.45594000000E+02  0.51100000000E-03 0.  1.
         23    2    1    2    0    0  0.00000000000E+00  0.00000000000E+00  0.00000000000E+00  0.91188000000E+02  0.91188000000E+02 0.  0.
    9900012    2    3    3    0    0 -0.84008192917E+01  0.34784047113E+02 -0.19304456392E+02  0.50528859147E+02  0.29999997864E+02 0.  0.
         12    1    3    3    0    0  0.84008192917E+01 -0.34784047113E+02  0.19304456392E+02  0.40659140853E+02  0.00000000000E+00 0. -1.
         11    1    4    4    0    0  0.49412987995E+01  0.18675319727E+02 -0.14578361991E+02  0.24201500767E+02  0.51100000000E-03 0. -1.
        -11    1    4    4    0    0 -0.34973153801E+01  0.15160788594E+02 -0.52562721152E+01  0.16422823218E+02  0.51100000000E-03 0.  1.
        -12    1    4    4    0    0 -0.98448027111E+01  0.94793879164E+00  0.53017771475E+00  0.99045351623E+01  0.00000000000E+00 0.  1.
</event>
<event>
 8    1  0.4964753E-012  0.9118800E+02  0.7816164E-02  0.1184000E+00
        -11   -1    0    0    0    0  0.00000000000E+00  0.00000000000E+00  0.45593999997E+02  0.45594000000E+02  0.51100000000E-03 0. -1.
         11   -1    0    0    0    0 -0.00000000000E+00 -0.00000000000E+00 -0.45593999997E+02  0.45594000000E+02  0.51100000000E-03 0.  1.
         23    2    1    2    0    0  0.35527136788E-14  0.00000000000E+00  0.35527136788E-14  0.91188000000E+02  0.91188000000E+02 0.  0.
    9900012    2    3    3    0    0  0.19208155762E+02 -0.18517414864E+02 -0.30680910236E+02  0.50528853994E+02  0.29999982200E+02 0.  0.
         12    1    3    3    0    0 -0.19208155762E+02  0.18517414864E+02  0.30680910236E+02  0.40659146006E+02  0.00000000000E+00 0. -1.
         11    1    4    4    0    0 -0.34268220441E+00 -0.43079386203E+00  0.75430440511E+00  0.93380396308E+00  0.51100000000E-03 0. -1.
        -11    1    4    4    0    0  0.18701706549E+02 -0.11124210566E+02 -0.35388760521E+02  0.41543546551E+02  0.51100000000E-03 0.  1.
        -12    1    4    4    0    0  0.84913141722E+00 -0.69624104369E+01  0.39535458802E+01  0.80515034796E+01  0.00000000000E+00 0.  1.
</event>
<event>
 8    1  0.4964753E-012  0.9118800E+02  0.7816164E-02  0.1184000E+00
        -11   -1    0    0    0    0  0.00000000000E+00  0.00000000000E+00  0.45593999997E+02  0.45594000000E+02  0.51100000000E-03 0. -1.
         11   -1    0    0    0    0 -0.00000000000E+00 -0.00000000000E+00 -0.45593999997E+02  0.45594000000E+02  0.51100000000E-03 0.  1.
         23    2    1    2    0    0  0.00000000000E+00 -0.71054273576E-14  0.35527136788E-14  0.91188000000E+02  0.91188000000E+02 0.  0.
    9900012    2    3    3    0    0  0.89988097098E+01  0.33844760386E+02 -0.20657186571E+02  0.50528859099E+02  0.29999997717E+02 0.  0.
         12    1    3    3    0    0 -0.89988097098E+01 -0.33844760386E+02  0.20657186571E+02  0.40659140901E+02  0.00000000000E+00 0. -1.
         11    1    4    4    0    0 -0.12089501558E+01  0.11032037044E+02  0.11802193175E+01  0.11160659466E+02  0.51100000000E-03 0. -1.
        -11    1    4    4    0    0 -0.19622983385E+01  0.18908353863E+02 -0.17591097419E+02  0.25900254231E+02  0.51100000000E-03 0.  1.
        -12    1    4    4    0    0  0.12170058204E+02  0.39043694794E+01 -0.42463084696E+01  0.13467945402E+02  0.00000000000E+00 0.  1.
</event>
<event>
 8    1  0.4964753E-012  0.9118800E+02  0.7816164E-02  0.1184000E+00
        -11   -1    0    0    0    0  0.00000000000E+00  0.00000000000E+00  0.45593999997E+02  0.45594000000E+02  0.51100000000E-03 0.  1.
         11   -1    0    0    0    0 -0.00000000000E+00 -0.00000000000E+00 -0.45593999997E+02  0.45594000000E+02  0.51100000000E-03 0. -1.
         23    2    1    2    0    0  0.00000000000E+00 -0.71054273576E-14  0.00000000000E+00  0.91188000000E+02  0.91188000000E+02 0.  0.
    9900012    2    3    3    0    0 -0.73037494228E+01 -0.38874387162E+02  0.94129031710E+01  0.50528862295E+02  0.30000007431E+02 0.  0.
        -12    1    3    3    0    0  0.73037494228E+01  0.38874387162E+02 -0.94129031710E+01  0.40659137705E+02  0.00000000000E+00 0.  1.
         11    1    4    4    0    0 -0.64688049649E+01 -0.20084537552E+02 -0.23412685369E+01  0.21230064177E+02  0.51100000000E-03 0. -1.
        -11    1    4    4    0    0 -0.64392594284E+01 -0.19430182650E+02  0.11859971726E+02  0.23657028330E+02  0.51100000000E-03 0.  1.
         12    1    4    4    0    0  0.56043149705E+01  0.64033304026E+00 -0.10580001771E+00  0.56417697874E+01  0.00000000000E+00 0. -1.
</event>
<event>
 8    1  0.4964753E-012  0.9118800E+02  0.7816164E-02  0.1184000E+00
        -11   -1    0    0    0    0  0.00000000000E+00  0.00000000000E+00  0.45593999997E+02  0.45594000000E+02  0.51100000000E-03 0. -1.
         11   -1    0    0    0    0 -0.00000000000E+00 -0.00000000000E+00 -0.45593999997E+02  0.45594000000E+02  0.51100000000E-03 0.  1.
         23    2    1    2    0    0  0.17763568394E-14  0.88817841970E-15 -0.71054273576E-14  0.91188000000E+02  0.91188000000E+02 0.  0.
    9900012    2    3    3    0    0 -0.15274899705E+02 -0.85401854377E+00 -0.37671115097E+02  0.50528870382E+02  0.30000032012E+02 0.  0.
         12    1    3    3    0    0  0.15274899705E+02  0.85401854377E+00  0.37671115097E+02  0.40659129618E+02  0.00000000000E+00 0. -1.
         11    1    4    4    0    0  0.25158251247E+01  0.25884454865E+01 -0.52453652026E+00  0.36475423119E+01  0.51100000000E-03 0. -1.
        -11    1    4    4    0    0 -0.16804646537E+02  0.63749863114E+01 -0.18548333925E+02  0.25827839386E+02  0.51100000000E-03 0.  1.
        -12    1    4    4    0    0 -0.98607829220E+00 -0.98174503418E+01 -0.18598244652E+02  0.21053488684E+02  0.00000000000E+00 0.  1.
</event>
<event>
 8    1  0.4964753E-012  0.9118800E+02  0.7816164E-02  0.1184000E+00
        -11   -1    0    0    0    0  0.00000000000E+00  0.00000000000E+00  0.45593999997E+02  0.45594000000E+02  0.51100000000E-03 0. -1.
         11   -1    0    0    0    0 -0.00000000000E+00 -0.00000000000E+00 -0.45593999997E+02  0.45594000000E+02  0.51100000000E-03 0.  1.
         23    2    1    2    0    0  0.00000000000E+00  0.71054273576E-14  0.35527136788E-14  0.91188000000E+02  0.91188000000E+02 0.  0.
    9900012    2    3    3    0    0  0.64003480911E+01 -0.36215939459E+02 -0.17338014001E+02  0.50528862576E+02  0.30000008285E+02 0.  0.
         12    1    3    3    0    0 -0.64003480911E+01  0.36215939459E+02  0.17338014001E+02  0.40659137424E+02  0.00000000000E+00 0. -1.
         11    1    4    4    0    0  0.67278268253E+00 -0.12288619264E+02 -0.32691001732E+01  0.12733806036E+02  0.51100000000E-03 0.  1.
        -11    1    4    4    0    0  0.10905878786E+02 -0.12307095080E+02  0.27856598693E+01  0.16678209813E+02  0.51100000000E-03 0. -1.
         12    1    4    4    0    0 -0.51783133776E+01 -0.11620225115E+02 -0.16854573697E+02  0.21116846726E+02  0.00000000000E+00 0. -1.
</event>
<event>
 8    1  0.4964753E-012  0.9118800E+02  0.7816164E-02  0.1184000E+00
        -11   -1    0    0    0    0  0.00000000000E+00  0.00000000000E+00  0.45593999997E+02  0.45594000000E+02  0.51100000000E-03 0. -1.
         11   -1    0    0    0    0 -0.00000000000E+00 -0.00000000000E+00 -0.45593999997E+02  0.45594000000E+02  0.51100000000E-03 0.  1.
         23    2    1    2    0    0  0.00000000000E+00  0.00000000000E+00  0.00000000000E+00  0.91188000000E+02  0.91188000000E+02 0.  0.
    9900012    2    3    3    0    0 -0.30212728755E+02 -0.25314370260E+02 -0.99769337040E+01  0.50528861708E+02  0.30000005649E+02 0.  0.
         12    1    3    3    0    0  0.30212728755E+02  0.25314370260E+02  0.99769337040E+01  0.40659138292E+02  0.00000000000E+00 0. -1.
         11    1    4    4    0    0  0.26119279165E+01 -0.39373992880E+01 -0.32781893081E+01  0.57508091600E+01  0.51100000000E-03 0.  1.
        -11    1    4    4    0    0 -0.16977324446E+02 -0.14708733724E+01 -0.89255844658E+01  0.19236919507E+02  0.51100000000E-03 0. -1.
         12    1    4    4    0    0 -0.15847332226E+02 -0.19906097599E+02  0.22268400700E+01  0.25541133041E+02  0.00000000000E+00 0. -1.
</event>
<event>
 8    1  0.4964753E-012  0.9118800E+02  0.7816164E-02  0.1184000E+00
        -11   -1    0    0    0    0  0.00000000000E+00  0.00000000000E+00  0.45593999997E+02  0.45594000000E+02  0.51100000000E-03 0.  1.
         11   -1    0    0    0    0 -0.00000000000E+00 -0.00000000000E+00 -0.45593999997E+02  0.45594000000E+02  0.51100000000E-03 0. -1.
         23    2    1    2    0    0  0.35527136788E-14 -0.35527136788E-14  0.00000000000E+00  0.91188000000E+02  0.91188000000E+02 0.  0.
    9900012    2    3    3    0    0  0.88503212560E+01 -0.28749898417E+02  0.27354727110E+02  0.50528856617E+02  0.29999990174E+02 0.  0.
        -12    1    3    3    0    0 -0.88503212560E+01  0.28749898417E+02 -0.27354727110E+02  0.40659143383E+02  0.00000000000E+00 0.  1.
         11    1    4    4    0    0  0.15127892210E+01 -0.61280837498E+01 -0.34684912240E+00  0.63215699194E+01  0.51100000000E-03 0. -1.
        -11    1    4    4    0    0  0.13745220051E+02 -0.24107978505E+02  0.20863279743E+02  0.34718901823E+02  0.51100000000E-03 0.  1.
        -12    1    4    4    0    0 -0.64076880164E+01  0.14861638374E+01  0.68382964892E+01  0.94883848753E+01  0.00000000000E+00 0.  1.
</event>
<event>
 8    1  0.4964753E-012  0.9118800E+02  0.7816164E-02  0.1184000E+00
        -11   -1    0    0    0    0  0.00000000000E+00  0.00000000000E+00  0.45593999997E+02  0.45594000000E+02  0.51100000000E-03 0. -1.
         11   -1    0    0    0    0 -0.00000000000E+00 -0.00000000000E+00 -0.45593999997E+02  0.45594000000E+02  0.51100000000E-03 0.  1.
         23    2    1    2    0    0  0.00000000000E+00  0.00000000000E+00  0.35527136788E-14  0.91188000000E+02  0.91188000000E+02 0.  0.
    9900012    2    3    3    0    0  0.27851641029E+02 -0.94695322899E+01 -0.28067452786E+02  0.50528833066E+02  0.29999918589E+02 0.  0.
         12    1    3    3    0    0 -0.27851641029E+02  0.94695322899E+01  0.28067452786E+02  0.40659166934E+02  0.00000000000E+00 0. -1.
         11    1    4    4    0    0  0.18271270664E+02 -0.41724258611E+01 -0.12949288795E+02  0.22780091084E+02  0.51100000000E-03 0. -1.
        -11    1    4    4    0    0  0.94444149172E+01 -0.56178181654E+01 -0.20018354696E+02  0.22836185738E+02  0.51100000000E-03 0.  1.
         12    1    4    4    0    0  0.13595544798E+00  0.32071173664E+00  0.49001907051E+01  0.49125562437E+01  0.00000000000E+00 0. -1.
</event>
<event>
 8    1  0.4964753E-012  0.9118800E+02  0.7816164E-02  0.1184000E+00
        -11   -1    0    0    0    0  0.00000000000E+00  0.00000000000E+00  0.45593999997E+02  0.45594000000E+02  0.51100000000E-03 0. -1.
         11   -1    0    0    0    0 -0.00000000000E+00 -0.00000000000E+00 -0.45593999997E+02  0.45594000000E+02  0.51100000000E-03 0.  1.
         23    2    1    2    0    0 -0.17763568394E-14  0.00000000000E+00  0.00000000000E+00  0.91188000000E+02  0.91188000000E+02 0.  0.
    9900012    2    3    3    0    0  0.95818179633E+01  0.20040231952E+02  0.34055008175E+02  0.50528859404E+02  0.29999998645E+02 0.  0.
        -12    1    3    3    0    0 -0.95818179633E+01 -0.20040231952E+02 -0.34055008175E+02  0.40659140596E+02  0.00000000000E+00 0.  1.
         11    1    4    4    0    0  0.57777873865E+01  0.11054199708E+02  0.53957620897E+01  0.13590158463E+02  0.51100000000E-03 0. -1.
        -11    1    4    4    0    0  0.10024899707E+02 -0.23585001795E+01  0.14112226041E+02  0.17470433919E+02  0.51100000000E-03 0.  1.
        -12    1    4    4    0    0 -0.62208691303E+01  0.11344532424E+02  0.14547020045E+02  0.19468267022E+02  0.00000000000E+00 0.  1.
</event>
<event>
 8    1  0.4964753E-012  0.9118800E+02  0.7816164E-02  0.1184000E+00
        -11   -1    0    0    0    0  0.00000000000E+00  0.00000000000E+00  0.45593999997E+02  0.45594000000E+02  0.51100000000E-03 0. -1.
         11   -1    0    0    0    0 -0.00000000000E+00 -0.00000000000E+00 -0.45593999997E+02  0.45594000000E+02  0.51100000000E-03 0.  1.
         23    2    1    2    0    0  0.17763568394E-14 -0.88817841970E-15  0.71054273576E-14  0.91188000000E+02  0.91188000000E+02 0.  0.
    9900012    2    3    3    0    0  0.11268743528E+02  0.24699618625E+01  0.38988203614E+02  0.50528864331E+02  0.30000013620E+02 0.  0.
        -12    1    3    3    0    0 -0.11268743528E+02 -0.24699618625E+01 -0.38988203614E+02  0.40659135669E+02  0.00000000000E+00 0.  1.
         11    1    4    4    0    0  0.10594070212E+01 -0.37911953623E+01  0.17986462501E+02  0.18412179096E+02  0.51100000000E-03 0. -1.
        -11    1    4    4    0    0  0.15128554691E+02  0.10312417065E+01  0.19633693295E+02  0.24807630664E+02  0.51100000000E-03 0.  1.
        -12    1    4    4    0    0 -0.49192181847E+01  0.52299155182E+01  0.13680478182E+01  0.73090545701E+01  0.00000000000E+00 0.  1.
</event>
<event>
 8    1  0.4964753E-012  0.9118800E+02  0.7816164E-02  0.1184000E+00
        -11   -1    0    0    0    0  0.00000000000E+00  0.00000000000E+00  0.45593999997E+02  0.45594000000E+02  0.51100000000E-03 0. -1.
         11   -1    0    0    0    0 -0.00000000000E+00 -0.00000000000E+00 -0.45593999997E+02  0.45594000000E+02  0.51100000000E-03 0.  1.
         23    2    1    2    0    0  0.00000000000E+00  0.00000000000E+00  0.00000000000E+00  0.91188000000E+02  0.91188000000E+02 0.  0.
    9900012    2    3    3    0    0 -0.74632940964E+01 -0.14110140485E+02  0.37394656179E+02  0.50528964915E+02  0.30000319354E+02 0.  0.
        -12    1    3    3    0    0  0.74632940964E+01  0.14110140485E+02 -0.37394656179E+02  0.40659035085E+02  0.00000000000E+00 0.  1.
         11    1    4    4    0    0  0.64831253895E+01 -0.39849060023E+01  0.77889027122E+01  0.10889324882E+02  0.51100000000E-03 0. -1.
        -11    1    4    4    0    0 -0.64556627636E+01  0.55882970027E+01  0.66091415165E+01  0.10797471785E+02  0.51100000000E-03 0.  1.
        -12    1    4    4    0    0 -0.74907567223E+01 -0.15713531485E+02  0.22996611951E+02  0.28842168248E+02  0.00000000000E+00 0.  1.
</event>
<event>
 8    1  0.7476526E-012  0.9118800E+02  0.7816164E-02  0.1184000E+00
        -11   -1    0    0    0    0  0.00000000000E+00  0.00000000000E+00  0.45593999997E+02  0.45594000000E+02  0.51100000000E-03 0. -1.
         11   -1    0    0    0    0 -0.00000000000E+00 -0.00000000000E+00 -0.45593999997E+02  0.45594000000E+02  0.51100000000E-03 0.  1.
         23    2    1    2    0    0  0.00000000000E+00 -0.35527136788E-14  0.00000000000E+00  0.91188000000E+02  0.91188000000E+02 0.  0.
    9900012    2    3    3    0    0  0.41497190627E+01  0.24317707454E+02 -0.32320192583E+02  0.50528856960E+02  0.29999991217E+02 0.  0.
         12    1    3    3    0    0 -0.41497190627E+01 -0.24317707454E+02  0.32320192583E+02  0.40659143040E+02  0.00000000000E+00 0. -1.
         11    1    4    4    0    0  0.47725608630E+01  0.23728524982E+02 -0.17278653559E+02  0.29738394444E+02  0.51100000000E-03 0. -1.
        -11    1    4    4    0    0  0.14290169131E+01  0.45269326525E+01 -0.15608238262E+02  0.16314175139E+02  0.51100000000E-03 0.  1.
         12    1    4    4    0    0 -0.20518587133E+01 -0.39377501799E+01  0.56669923846E+00  0.44762873775E+01  0.00000000000E+00 0. -1.
</event>
<event>
 8    1  0.4964753E-012  0.9118800E+02  0.7816164E-02  0.1184000E+00
        -11   -1    0    0    0    0  0.00000000000E+00  0.00000000000E+00  0.45593999997E+02  0.45594000000E+02  0.51100000000E-03 0. -1.
         11   -1    0    0    0    0 -0.00000000000E+00 -0.00000000000E+00 -0.45593999997E+02  0.45594000000E+02  0.51100000000E-03 0.  1.
         23    2    1    2    0    0  0.00000000000E+00  0.00000000000E+00  0.00000000000E+00  0.91188000000E+02  0.91188000000E+02 0.  0.
    9900012    2    3    3    0    0 -0.54410359219E+01  0.16650823278E+02 -0.36692113341E+02  0.50528856266E+02  0.29999989107E+02 0.  0.
         12    1    3    3    0    0  0.54410359219E+01 -0.16650823278E+02  0.36692113341E+02  0.40659143734E+02  0.00000000000E+00 0. -1.
         11    1    4    4    0    0  0.10705687524E+02  0.13141213285E+02 -0.21895358118E+02  0.27689527611E+02  0.51100000000E-03 0. -1.
        -11    1    4    4    0    0 -0.38537922328E+01  0.13786977394E+01 -0.95164367986E+00  0.42021599189E+01  0.51100000000E-03 0.  1.
        -12    1    4    4    0    0 -0.12292931213E+02  0.21309122532E+01 -0.13845111543E+02  0.18637168736E+02  0.00000000000E+00 0.  1.
</event>
<event>
 8    1  0.4964753E-012  0.9118800E+02  0.7816164E-02  0.1184000E+00
        -11   -1    0    0    0    0  0.00000000000E+00  0.00000000000E+00  0.45593999997E+02  0.45594000000E+02  0.51100000000E-03 0.  1.
         11   -1    0    0    0    0 -0.00000000000E+00 -0.00000000000E+00 -0.45593999997E+02  0.45594000000E+02  0.51100000000E-03 0. -1.
         23    2    1    2    0    0 -0.71054273576E-14  0.00000000000E+00  0.00000000000E+00  0.91188000000E+02  0.91188000000E+02 0.  0.
    9900012    2    3    3    0    0 -0.36235204523E+02  0.56869250586E+01 -0.17545215969E+02  0.50528858754E+02  0.29999996669E+02 0.  0.
         12    1    3    3    0    0  0.36235204523E+02 -0.56869250586E+01  0.17545215969E+02  0.40659141246E+02  0.00000000000E+00 0. -1.
         11    1    4    4    0    0 -0.44899873373E+00 -0.96905646982E+00  0.21785343937E+01  0.24262486827E+01  0.51100000000E-03 0.  1.
        -11    1    4    4    0    0 -0.30896307837E+02  0.47279764126E+01 -0.39845605579E+01  0.31508924482E+02  0.51100000000E-03 0. -1.
         12    1    4    4    0    0 -0.48898979522E+01  0.19280051158E+01 -0.15739189805E+02  0.16593685589E+02  0.00000000000E+00 0. -1.
</event>
<event>
 8    1  0.4964753E-012  0.9118800E+02  0.7816164E-02  0.1184000E+00
        -11   -1    0    0    0    0  0.00000000000E+00  0.00000000000E+00  0.45593999997E+02  0.45594000000E+02  0.51100000000E-03 0. -1.
         11   -1    0    0    0    0 -0.00000000000E+00 -0.00000000000E+00 -0.45593999997E+02  0.45594000000E+02  0.51100000000E-03 0.  1.
         23    2    1    2    0    0 -0.17763568394E-14  0.35527136788E-14  0.35527136788E-14  0.91188000000E+02  0.91188000000E+02 0.  0.
    9900012    2    3    3    0    0 -0.12187178431E+02  0.24226612025E+02  0.30293726888E+02  0.50528856661E+02  0.29999990306E+02 0.  0.
        -12    1    3    3    0    0  0.12187178431E+02 -0.24226612025E+02 -0.30293726888E+02  0.40659143339E+02  0.00000000000E+00 0.  1.
         11    1    4    4    0    0  0.41518209148E+01  0.10840625942E+02  0.44208672707E+01  0.12421789541E+02  0.51100000000E-03 0. -1.
        -11    1    4    4    0    0  0.31161184745E+01 -0.11198150667E+01  0.55079560606E+01  0.64266445644E+01  0.51100000000E-03 0.  1.
         12    1    4    4    0    0 -0.19455117820E+02  0.14505801149E+02  0.20364903557E+02  0.31680422555E+02  0.00000000000E+00 0. -1.
</event>
<event>
 8    1  0.4964753E-012  0.9118800E+02  0.7816164E-02  0.1184000E+00
        -11   -1    0    0    0    0  0.00000000000E+00  0.00000000000E+00  0.45593999997E+02  0.45594000000E+02  0.51100000000E-03 0. -1.
         11   -1    0    0    0    0 -0.00000000000E+00 -0.00000000000E+00 -0.45593999997E+02  0.45594000000E+02  0.51100000000E-03 0.  1.
         23    2    1    2    0    0  0.00000000000E+00  0.35527136788E-14  0.35527136788E-14  0.91188000000E+02  0.91188000000E+02 0.  0.
    9900012    2    3    3    0    0 -0.90858194850E+01  0.24497461571E+02  0.31152667152E+02  0.50528850847E+02  0.29999972635E+02 0.  0.
        -12    1    3    3    0    0  0.90858194850E+01 -0.24497461571E+02 -0.31152667152E+02  0.40659149153E+02  0.00000000000E+00 0.  1.
         11    1    4    4    0    0 -0.83295926318E+01  0.84076081743E+01  0.11280727868E+02  0.16350070646E+02  0.51100000000E-03 0. -1.
        -11    1    4    4    0    0 -0.69203851099E+01  0.12852220725E+02  0.16719453307E+01  0.14692403108E+02  0.51100000000E-03 0.  1.
        -12    1    4    4    0    0  0.61641582567E+01  0.32376326713E+01  0.18199993954E+02  0.19486377094E+02  0.00000000000E+00 0.  1.
</event>
<event>
 8    1  0.4964753E-012  0.9118800E+02  0.7816164E-02  0.1184000E+00
        -11   -1    0    0    0    0  0.00000000000E+00  0.00000000000E+00  0.45593999997E+02  0.45594000000E+02  0.51100000000E-03 0. -1.
         11   -1    0    0    0    0 -0.00000000000E+00 -0.00000000000E+00 -0.45593999997E+02  0.45594000000E+02  0.51100000000E-03 0.  1.
         23    2    1    2    0    0  0.00000000000E+00 -0.17763568394E-14  0.19984014443E-14  0.91188000000E+02  0.91188000000E+02 0.  0.
    9900012    2    3    3    0    0  0.37922557787E+02 -0.14611717155E+02 -0.12407916925E+01  0.50528902231E+02  0.30000128822E+02 0.  0.
        -12    1    3    3    0    0 -0.37922557787E+02  0.14611717155E+02  0.12407916925E+01  0.40659097769E+02  0.00000000000E+00 0.  1.
         11    1    4    4    0    0  0.11619383962E+01 -0.10128302928E+02  0.37257837850E+01  0.10854219737E+02  0.51100000000E-03 0. -1.
        -11    1    4    4    0    0  0.15049671451E+02 -0.58075531193E+01  0.31911309193E+01  0.16443953321E+02  0.51100000000E-03 0.  1.
        -12    1    4    4    0    0  0.21710947940E+02  0.13241388918E+01 -0.81577063968E+01  0.23230729173E+02  0.00000000000E+00 0.  1.
</event>
<event>
 8    1  0.4964753E-012  0.9118800E+02  0.7816164E-02  0.1184000E+00
        -11   -1    0    0    0    0  0.00000000000E+00  0.00000000000E+00  0.45593999997E+02  0.45594000000E+02  0.51100000000E-03 0. -1.
         11   -1    0    0    0    0 -0.00000000000E+00 -0.00000000000E+00 -0.45593999997E+02  0.45594000000E+02  0.51100000000E-03 0.  1.
         23    2    1    2    0    0  0.00000000000E+00  0.17763568394E-14  0.71054273576E-14  0.91188000000E+02  0.91188000000E+02 0.  0.
    9900012    2    3    3    0    0  0.22639016273E+02  0.13287118727E+02  0.31049861133E+02  0.50528850251E+02  0.29999970824E+02 0.  0.
        -12    1    3    3    0    0 -0.22639016273E+02 -0.13287118727E+02 -0.31049861133E+02  0.40659149749E+02  0.00000000000E+00 0.  1.
         11    1    4    4    0    0  0.13378086620E+02  0.10488296305E+02 -0.37416353057E+00  0.17003457284E+02  0.51100000000E-03 0.  1.
        -11    1    4    4    0    0  0.48587085155E+01  0.48118055138E+01  0.18818155793E+02  0.20022075528E+02  0.51100000000E-03 0. -1.
        -12    1    4    4    0    0  0.44022211377E+01 -0.20129830922E+01  0.12605868871E+02  0.13503317439E+02  0.00000000000E+00 0.  1.
</event>
<event>
 8    1  0.4964753E-012  0.9118800E+02  0.7816164E-02  0.1184000E+00
        -11   -1    0    0    0    0  0.00000000000E+00  0.00000000000E+00  0.45593999997E+02  0.45594000000E+02  0.51100000000E-03 0. -1.
         11   -1    0    0    0    0 -0.00000000000E+00 -0.00000000000E+00 -0.45593999997E+02  0.45594000000E+02  0.51100000000E-03 0.  1.
         23    2    1    2    0    0 -0.22204460493E-15 -0.88817841970E-15  0.00000000000E+00  0.91188000000E+02  0.91188000000E+02 0.  0.
    9900012    2    3    3    0    0  0.15539438812E+01  0.25611444853E+01  0.40548631081E+02  0.50528859758E+02  0.29999999720E+02 0.  0.
        -12    1    3    3    0    0 -0.15539438812E+01 -0.25611444853E+01 -0.40548631081E+02  0.40659140242E+02  0.00000000000E+00 0.  1.
         11    1    4    4    0    0 -0.66991721087E+01  0.60853006427E+01  0.16145632248E+02  0.18509220184E+02  0.51100000000E-03 0. -1.
        -11    1    4    4    0    0 -0.19703944272E+01  0.28915725987E+01  0.18038119857E+02  0.18374368412E+02  0.51100000000E-03 0.  1.
         12    1    4    4    0    0  0.10223510417E+02 -0.64157287560E+01  0.63648789764E+01  0.13645271163E+02  0.00000000000E+00 0. -1.
</event>
<event>
 8    1  0.4964753E-012  0.9118800E+02  0.7816164E-02  0.1184000E+00
        -11   -1    0    0    0    0  0.00000000000E+00  0.00000000000E+00  0.45593999997E+02  0.45594000000E+02  0.51100000000E-03 0. -1.
         11   -1    0    0    0    0 -0.00000000000E+00 -0.00000000000E+00 -0.45593999997E+02  0.45594000000E+02  0.51100000000E-03 0.  1.
         23    2    1    2    0    0 -0.35527136788E-14  0.00000000000E+00  0.00000000000E+00  0.91188000000E+02  0.91188000000E+02 0.  0.
    9900012    2    3    3    0    0  0.25237293212E+02 -0.17919785073E+02  0.26365243851E+02  0.50528858973E+02  0.29999997334E+02 0.  0.
        -12    1    3    3    0    0 -0.25237293212E+02  0.17919785073E+02 -0.26365243851E+02  0.40659141027E+02  0.00000000000E+00 0.  1.
         11    1    4    4    0    0  0.23345313208E+01 -0.82634246700E+01  0.20421419897E+01  0.88263564358E+01  0.51100000000E-03 0. -1.
        -11    1    4    4    0    0 -0.48811567207E-01 -0.10702469054E+02  0.98716328113E+01  0.14560026135E+02  0.51100000000E-03 0.  1.
        -12    1    4    4    0    0  0.22951573458E+02  0.10461086515E+01  0.14451469050E+02  0.27142476402E+02  0.00000000000E+00 0.  1.
</event>
<event>
 8    1  0.4964753E-012  0.9118800E+02  0.7816164E-02  0.1184000E+00
        -11   -1    0    0    0    0  0.00000000000E+00  0.00000000000E+00  0.45593999997E+02  0.45594000000E+02  0.51100000000E-03 0. -1.
         11   -1    0    0    0    0 -0.00000000000E+00 -0.00000000000E+00 -0.45593999997E+02  0.45594000000E+02  0.51100000000E-03 0.  1.
         23    2    1    2    0    0  0.00000000000E+00  0.00000000000E+00  0.00000000000E+00  0.91188000000E+02  0.91188000000E+02 0.  0.
    9900012    2    3    3    0    0  0.65720028116E+01 -0.56991269864E+01 -0.39717683840E+02  0.50528859835E+02  0.29999999954E+02 0.  0.
         12    1    3    3    0    0 -0.65720028116E+01  0.56991269864E+01  0.39717683840E+02  0.40659140165E+02  0.00000000000E+00 0. -1.
         11    1    4    4    0    0  0.76513377178E-01 -0.29715600756E+01 -0.23553182935E+02  0.23740017907E+02  0.51100000000E-03 0.  1.
        -11    1    4    4    0    0 -0.70139336575E+00 -0.10641598891E+02 -0.81726539567E+01  0.13436065368E+02  0.51100000000E-03 0. -1.
         12    1    4    4    0    0  0.71968828002E+01  0.79140319801E+01 -0.79918469480E+01  0.13352776560E+02  0.00000000000E+00 0. -1.
</event>
<event>
 8    1  0.4964753E-012  0.9118800E+02  0.7816164E-02  0.1184000E+00
        -11   -1    0    0    0    0  0.00000000000E+00  0.00000000000E+00  0.45593999997E+02  0.45594000000E+02  0.51100000000E-03 0. -1.
         11   -1    0    0    0    0 -0.00000000000E+00 -0.00000000000E+00 -0.45593999997E+02  0.45594000000E+02  0.51100000000E-03 0.  1.
         23    2    1    2    0    0  0.00000000000E+00 -0.17763568394E-14  0.00000000000E+00  0.91188000000E+02  0.91188000000E+02 0.  0.
    9900012    2    3    3    0    0 -0.18804884031E+02  0.12230543017E+02  0.33910994504E+02  0.50528863337E+02  0.30000010601E+02 0.  0.
        -12    1    3    3    0    0  0.18804884031E+02 -0.12230543017E+02 -0.33910994504E+02  0.40659136663E+02  0.00000000000E+00 0.  1.
         11    1    4    4    0    0 -0.18246205123E+02  0.10199872648E+02  0.13316039439E+02  0.24784638590E+02  0.51100000000E-03 0. -1.
        -11    1    4    4    0    0  0.19024129523E+01 -0.10000971640E+01 -0.19268429215E+01  0.28865365551E+01  0.51100000000E-03 0.  1.
        -12    1    4    4    0    0 -0.24610918599E+01  0.30307675334E+01  0.22521797986E+02  0.22857688193E+02  0.00000000000E+00 0.  1.
</event>
<event>
 8    1  0.4964753E-012  0.9118800E+02  0.7816164E-02  0.1184000E+00
        -11   -1    0    0    0    0  0.00000000000E+00  0.00000000000E+00  0.45593999997E+02  0.45594000000E+02  0.51100000000E-03 0.  1.
         11   -1    0    0    0    0 -0.00000000000E+00 -0.00000000000E+00 -0.45593999997E+02  0.45594000000E+02  0.51100000000E-03 0. -1.
         23    2    1    2    0    0  0.00000000000E+00  0.00000000000E+00  0.88817841970E-15  0.91188000000E+02  0.91188000000E+02 0.  0.
    9900012    2    3    3    0    0 -0.38698754931E+02  0.11247020155E+02 -0.53922582906E+01  0.50528861481E+02  0.30000004958E+02 0.  0.
         12    1    3    3    0    0  0.38698754931E+02 -0.11247020155E+02  0.53922582906E+01  0.40659138519E+02  0.00000000000E+00 0. -1.
         11    1    4    4    0    0  0.22220926532E+01  0.33863383993E+01  0.21485334637E+01  0.45848860203E+01  0.51100000000E-03 0. -1.
        -11    1    4    4    0    0 -0.81098828237E+01 -0.43527495924E+01  0.24712139209E+01  0.95301378234E+01  0.51100000000E-03 0.  1.
         12    1    4    4    0    0 -0.32810964761E+02  0.12213431349E+02 -0.10012005675E+02  0.36413837638E+02  0.00000000000E+00 0. -1.
</event>
<event>
 8    1  0.4964753E-012  0.9118800E+02  0.7816164E-02  0.1184000E+00
        -11   -1    0    0    0    0  0.00000000000E+00  0.00000000000E+00  0.45593999997E+02  0.45594000000E+02  0.51100000000E-03 0. -1.
         11   -1    0    0    0    0 -0.00000000000E+00 -0.00000000000E+00 -0.45593999997E+02  0.45594000000E+02  0.51100000000E-03 0.  1.
         23    2    1    2    0    0  0.00000000000E+00 -0.22204460493E-15  0.00000000000E+00  0.91188000000E+02  0.91188000000E+02 0.  0.
    9900012    2    3    3    0    0  0.23415605838E+02  0.53458239331E+00 -0.33235358505E+02  0.50528862895E+02  0.30000009257E+02 0.  0.
         12    1    3    3    0    0 -0.23415605838E+02 -0.53458239331E+00  0.33235358505E+02  0.40659137105E+02  0.00000000000E+00 0. -1.
         11    1    4    4    0    0  0.98080858461E+01 -0.48840774862E+01 -0.18496604118E+01  0.11111885743E+02  0.51100000000E-03 0. -1.
        -11    1    4    4    0    0  0.18027488368E+02  0.27753376523E+01 -0.27349055390E+02  0.32873449270E+02  0.51100000000E-03 0.  1.
        -12    1    4    4    0    0 -0.44199683755E+01  0.26433222272E+01 -0.40366427035E+01  0.65435278828E+01  0.00000000000E+00 0.  1.
</event>
<event>
 8    1  0.4964753E-012  0.9118800E+02  0.7816164E-02  0.1184000E+00
        -11   -1    0    0    0    0  0.00000000000E+00  0.00000000000E+00  0.45593999997E+02  0.45594000000E+02  0.51100000000E-03 0. -1.
         11   -1    0    0    0    0 -0.00000000000E+00 -0.00000000000E+00 -0.45593999997E+02  0.45594000000E+02  0.51100000000E-03 0.  1.
         23    2    1    2    0    0  0.35527136788E-14  0.00000000000E+00 -0.17763568394E-14  0.91188000000E+02  0.91188000000E+02 0.  0.
    9900012    2    3    3    0    0 -0.27006221833E+02 -0.26401437544E+02  0.15059619845E+02  0.50528879597E+02  0.30000060022E+02 0.  0.
        -12    1    3    3    0    0  0.27006221833E+02  0.26401437544E+02 -0.15059619845E+02  0.40659120403E+02  0.00000000000E+00 0.  1.
         11    1    4    4    0    0 -0.52054000582E-01  0.29913628072E+00  0.10109201641E+02  0.10113760439E+02  0.51100000000E-03 0. -1.
        -11    1    4    4    0    0 -0.13121424361E+02 -0.17857880197E+02  0.82921842042E+01  0.23660853356E+02  0.51100000000E-03 0.  1.
        -12    1    4    4    0    0 -0.13832743472E+02 -0.88426936271E+01 -0.33417660005E+01  0.16754265801E+02  0.00000000000E+00 0.  1.
</event>
<event>
 8    1  0.4964753E-012  0.9118800E+02  0.7816164E-02  0.1184000E+00
        -11   -1    0    0    0    0  0.00000000000E+00  0.00000000000E+00  0.45593999997E+02  0.45594000000E+02  0.51100000000E-03 0. -1.
         11   -1    0    0    0    0 -0.00000000000E+00 -0.00000000000E+00 -0.45593999997E+02  0.45594000000E+02  0.51100000000E-03 0.  1.
         23    2    1    2    0    0 -0.88817841970E-15  0.00000000000E+00  0.00000000000E+00  0.91188000000E+02  0.91188000000E+02 0.  0.
    9900012    2    3    3    0    0 -0.67832042938E+01  0.22736353141E+02 -0.33018352617E+02  0.50528865427E+02  0.30000016952E+02 0.  0.
         12    1    3    3    0    0  0.67832042938E+01 -0.22736353141E+02  0.33018352617E+02  0.40659134573E+02  0.00000000000E+00 0. -1.
         11    1    4    4    0    0  0.13366545104E+01  0.94118901641E+01 -0.94593770378E+00  0.95532779789E+01  0.51100000000E-03 0. -1.
        -11    1    4    4    0    0 -0.70970142057E+01 -0.48916929917E+00 -0.13030667712E+01  0.72322113154E+01  0.51100000000E-03 0.  1.
        -12    1    4    4    0    0 -0.10228445985E+01  0.13813632276E+02 -0.30769348142E+02  0.33743376133E+02  0.00000000000E+00 0.  1.
</event>
<event>
 8    1  0.4964753E-012  0.9118800E+02  0.7816164E-02  0.1184000E+00
        -11   -1    0    0    0    0  0.00000000000E+00  0.00000000000E+00  0.45593999997E+02  0.45594000000E+02  0.51100000000E-03 0. -1.
         11   -1    0    0    0    0 -0.00000000000E+00 -0.00000000000E+00 -0.45593999997E+02  0.45594000000E+02  0.51100000000E-03 0.  1.
         23    2    1    2    0    0  0.00000000000E+00  0.00000000000E+00  0.00000000000E+00  0.91188000000E+02  0.91188000000E+02 0.  0.
    9900012    2    3    3    0    0 -0.16744407856E+02  0.27180968695E+02  0.25179063920E+02  0.50528861869E+02  0.30000006137E+02 0.  0.
        -12    1    3    3    0    0  0.16744407856E+02 -0.27180968695E+02 -0.25179063920E+02  0.40659138131E+02  0.00000000000E+00 0.  1.
         11    1    4    4    0    0 -0.15600332246E+02  0.22850437986E+02  0.13038764691E+02  0.30586308494E+02  0.51100000000E-03 0. -1.
        -11    1    4    4    0    0 -0.59155274144E+01  0.76987719697E+01  0.93137381888E+01  0.13454005862E+02  0.51100000000E-03 0.  1.
        -12    1    4    4    0    0  0.47714518045E+01 -0.33682412608E+01  0.28265610409E+01  0.64885475133E+01  0.00000000000E+00 0.  1.
</event>
<event>
 8    1  0.4964753E-012  0.9118800E+02  0.7816164E-02  0.1184000E+00
        -11   -1    0    0    0    0  0.00000000000E+00  0.00000000000E+00  0.45593999997E+02  0.45594000000E+02  0.51100000000E-03 0. -1.
         11   -1    0    0    0    0 -0.00000000000E+00 -0.00000000000E+00 -0.45593999997E+02  0.45594000000E+02  0.51100000000E-03 0.  1.
         23    2    1    2    0    0 -0.35527136788E-14  0.00000000000E+00  0.00000000000E+00  0.91188000000E+02  0.91188000000E+02 0.  0.
    9900012    2    3    3    0    0 -0.19492176821E+02  0.51570394960E+01 -0.35307599241E+02  0.50528848783E+02  0.29999966359E+02 0.  0.
         12    1    3    3    0    0  0.19492176821E+02 -0.51570394960E+01  0.35307599241E+02  0.40659151217E+02  0.00000000000E+00 0. -1.
         11    1    4    4    0    0 -0.85615800677E+01 -0.15505072724E+01 -0.24954103822E+02  0.26427486144E+02  0.51100000000E-03 0. -1.
        -11    1    4    4    0    0 -0.12573384407E+02 -0.21370128450E+01 -0.56340959959E+01  0.13942734929E+02  0.51100000000E-03 0.  1.
         12    1    4    4    0    0  0.16427876540E+01  0.88445596134E+01 -0.47193994228E+01  0.10158627710E+02  0.00000000000E+00 0. -1.
</event>
<event>
 8    1  0.4964753E-012  0.9118800E+02  0.7816164E-02  0.1184000E+00
        -11   -1    0    0    0    0  0.00000000000E+00  0.00000000000E+00  0.45593999997E+02  0.45594000000E+02  0.51100000000E-03 0. -1.
         11   -1    0    0    0    0 -0.00000000000E+00 -0.00000000000E+00 -0.45593999997E+02  0.45594000000E+02  0.51100000000E-03 0.  1.
         23    2    1    2    0    0  0.00000000000E+00  0.17763568394E-14  0.00000000000E+00  0.91188000000E+02  0.91188000000E+02 0.  0.
    9900012    2    3    3    0    0 -0.64693163672E+01  0.15006064256E+02 -0.37230787098E+02  0.50528861708E+02  0.30000005646E+02 0.  0.
         12    1    3    3    0    0  0.64693163672E+01 -0.15006064256E+02  0.37230787098E+02  0.40659138292E+02  0.00000000000E+00 0. -1.
         11    1    4    4    0    0  0.35670369159E+01  0.69715430812E+01 -0.95366760823E+00  0.78889573113E+01  0.51100000000E-03 0. -1.
        -11    1    4    4    0    0 -0.67348075995E+01  0.14030638891E+02 -0.25226094700E+02  0.29640720557E+02  0.51100000000E-03 0.  1.
        -12    1    4    4    0    0 -0.33015456836E+01 -0.59961177159E+01 -0.11051024790E+02  0.12999183839E+02  0.00000000000E+00 0.  1.
</event>
<event>
 8    1  0.4964753E-012  0.9118800E+02  0.7816164E-02  0.1184000E+00
        -11   -1    0    0    0    0  0.00000000000E+00  0.00000000000E+00  0.45593999997E+02  0.45594000000E+02  0.51100000000E-03 0. -1.
         11   -1    0    0    0    0 -0.00000000000E+00 -0.00000000000E+00 -0.45593999997E+02  0.45594000000E+02  0.51100000000E-03 0.  1.
         23    2    1    2    0    0  0.71054273576E-14  0.00000000000E+00  0.71054273576E-14  0.91188000000E+02  0.91188000000E+02 0.  0.
    9900012    2    3    3    0    0 -0.25321342998E+02 -0.17768600973E+02 -0.26386966119E+02  0.50528861141E+02  0.30000003925E+02 0.  0.
         12    1    3    3    0    0  0.25321342998E+02  0.17768600973E+02  0.26386966119E+02  0.40659138859E+02  0.00000000000E+00 0. -1.
         11    1    4    4    0    0 -0.18687381141E+02 -0.11816515604E+02 -0.26755963949E+02  0.34709218690E+02  0.51100000000E-03 0. -1.
        -11    1    4    4    0    0 -0.70896527640E+01  0.21659023931E+01 -0.12814388280E+01  0.75230575714E+01  0.51100000000E-03 0.  1.
         12    1    4    4    0    0  0.45569090710E+00 -0.81179877624E+01  0.16504366580E+01  0.82965848802E+01  0.00000000000E+00 0. -1.
</event>
<event>
 8    1  0.4964753E-012  0.9118800E+02  0.7816164E-02  0.1184000E+00
        -11   -1    0    0    0    0  0.00000000000E+00  0.00000000000E+00  0.45593999997E+02  0.45594000000E+02  0.51100000000E-03 0. -1.
         11   -1    0    0    0    0 -0.00000000000E+00 -0.00000000000E+00 -0.45593999997E+02  0.45594000000E+02  0.51100000000E-03 0.  1.
         23    2    1    2    0    0  0.17763568394E-14 -0.35527136788E-14 -0.35527136788E-14  0.91188000000E+02  0.91188000000E+02 0.  0.
    9900012    2    3    3    0    0 -0.14115721240E+02  0.25849661696E+02 -0.28030492691E+02  0.50528842158E+02  0.29999946223E+02 0.  0.
         12    1    3    3    0    0  0.14115721240E+02 -0.25849661696E+02  0.28030492691E+02  0.40659157842E+02  0.00000000000E+00 0. -1.
         11    1    4    4    0    0 -0.14674171943E+02  0.22297576647E+02 -0.20693770450E+02  0.33774922387E+02  0.51100000000E-03 0. -1.
        -11    1    4    4    0    0 -0.37535356093E+01  0.18564147194E+01 -0.10391919769E+02  0.11203896729E+02  0.51100000000E-03 0.  1.
        -12    1    4    4    0    0  0.43119863127E+01  0.16956703295E+01  0.30551975273E+01  0.55500230412E+01  0.00000000000E+00 0.  1.
</event>
<event>
 8    1  0.4964753E-012  0.9118800E+02  0.7816164E-02  0.1184000E+00
        -11   -1    0    0    0    0  0.00000000000E+00  0.00000000000E+00  0.45593999997E+02  0.45594000000E+02  0.51100000000E-03 0. -1.
         11   -1    0    0    0    0 -0.00000000000E+00 -0.00000000000E+00 -0.45593999997E+02  0.45594000000E+02  0.51100000000E-03 0.  1.
         23    2    1    2    0    0  0.35527136788E-14 -0.35527136788E-14  0.71054273576E-14  0.91188000000E+02  0.91188000000E+02 0.  0.
    9900012    2    3    3    0    0  0.16816743671E+02 -0.26130371953E+02  0.26221494660E+02  0.50528856031E+02  0.29999988390E+02 0.  0.
        -12    1    3    3    0    0 -0.16816743671E+02  0.26130371953E+02 -0.26221494660E+02  0.40659143969E+02  0.00000000000E+00 0.  1.
         11    1    4    4    0    0  0.19326204113E+02 -0.20057620082E+02  0.12477903320E+02  0.30520621886E+02  0.51100000000E-03 0. -1.
        -11    1    4    4    0    0 -0.24500529212E+01 -0.80329584004E+01  0.27440134413E+01  0.88352017524E+01  0.51100000000E-03 0.  1.
        -12    1    4    4    0    0 -0.59407521144E-01  0.19602065289E+01  0.10999577899E+02  0.11173032392E+02  0.00000000000E+00 0.  1.
</event>
<event>
 8    1  0.4964753E-012  0.9118800E+02  0.7816164E-02  0.1184000E+00
        -11   -1    0    0    0    0  0.00000000000E+00  0.00000000000E+00  0.45593999997E+02  0.45594000000E+02  0.51100000000E-03 0. -1.
         11   -1    0    0    0    0 -0.00000000000E+00 -0.00000000000E+00 -0.45593999997E+02  0.45594000000E+02  0.51100000000E-03 0.  1.
         23    2    1    2    0    0  0.00000000000E+00 -0.44408920985E-15  0.00000000000E+00  0.91188000000E+02  0.91188000000E+02 0.  0.
    9900012    2    3    3    0    0 -0.19243427389E+02 -0.23855616521E+01 -0.35737445027E+02  0.50528863522E+02  0.30000011161E+02 0.  0.
         12    1    3    3    0    0  0.19243427389E+02  0.23855616521E+01  0.35737445027E+02  0.40659136478E+02  0.00000000000E+00 0. -1.
         11    1    4    4    0    0  0.16650757752E+01  0.18953055532E+01 -0.15100352396E+01  0.29402154960E+01  0.51100000000E-03 0. -1.
        -11    1    4    4    0    0 -0.11106867831E+02  0.57072039232E+01 -0.30721063851E+02  0.33162003166E+02  0.51100000000E-03 0.  1.
        -12    1    4    4    0    0 -0.98016353329E+01 -0.99880711286E+01 -0.35063459372E+01  0.14426644859E+02  0.00000000000E+00 0.  1.
</event>
<event>
 8    1  0.4964753E-012  0.9118800E+02  0.7816164E-02  0.1184000E+00
        -11   -1    0    0    0    0  0.00000000000E+00  0.00000000000E+00  0.45593999997E+02  0.45594000000E+02  0.51100000000E-03 0. -1.
         11   -1    0    0    0    0 -0.00000000000E+00 -0.00000000000E+00 -0.45593999997E+02  0.45594000000E+02  0.51100000000E-03 0.  1.
         23    2    1    2    0    0 -0.35527136788E-14  0.00000000000E+00  0.00000000000E+00  0.91188000000E+02  0.91188000000E+02 0.  0.
    9900012    2    3    3    0    0 -0.28892048527E+02 -0.56155716412E+01 -0.28051393672E+02  0.50528858348E+02  0.29999995433E+02 0.  0.
         12    1    3    3    0    0  0.28892048527E+02  0.56155716412E+01  0.28051393672E+02  0.40659141652E+02  0.00000000000E+00 0. -1.
         11    1    4    4    0    0 -0.16227105049E+01  0.32884553567E+01  0.21591216213E+01  0.42554593703E+01  0.51100000000E-03 0. -1.
        -11    1    4    4    0    0 -0.20539311739E+01 -0.44079204840E+01 -0.16540687947E+02  0.17240729517E+02  0.51100000000E-03 0.  1.
         12    1    4    4    0    0 -0.25215406848E+02 -0.44961065140E+01 -0.13669827347E+02  0.29032669461E+02  0.00000000000E+00 0. -1.
</event>
<event>
 8    1  0.4964753E-012  0.9118800E+02  0.7816164E-02  0.1184000E+00
        -11   -1    0    0    0    0  0.00000000000E+00  0.00000000000E+00  0.45593999997E+02  0.45594000000E+02  0.51100000000E-03 0. -1.
         11   -1    0    0    0    0 -0.00000000000E+00 -0.00000000000E+00 -0.45593999997E+02  0.45594000000E+02  0.51100000000E-03 0.  1.
         23    2    1    2    0    0  0.35527136788E-14  0.00000000000E+00  0.00000000000E+00  0.91188000000E+02  0.91188000000E+02 0.  0.
    9900012    2    3    3    0    0 -0.18434466126E+02  0.17940516301E+02 -0.31487682395E+02  0.50528858235E+02  0.29999995090E+02 0.  0.
         12    1    3    3    0    0  0.18434466126E+02 -0.17940516301E+02  0.31487682395E+02  0.40659141765E+02  0.00000000000E+00 0. -1.
         11    1    4    4    0    0 -0.20633371467E+02  0.66503420906E+01 -0.17718719313E+02  0.27998501431E+02  0.51100000000E-03 0. -1.
        -11    1    4    4    0    0 -0.33173482311E+01  0.83886279875E+01 -0.13569521375E+02  0.16294348388E+02  0.51100000000E-03 0.  1.
        -12    1    4    4    0    0  0.55162535727E+01  0.29015462227E+01 -0.19944170744E+00  0.62360084153E+01  0.00000000000E+00 0.  1.
</event>
<event>
 8    1  0.4964753E-012  0.9118800E+02  0.7816164E-02  0.1184000E+00
        -11   -1    0    0    0    0  0.00000000000E+00  0.00000000000E+00  0.45593999997E+02  0.45594000000E+02  0.51100000000E-03 0. -1.
         11   -1    0    0    0    0 -0.00000000000E+00 -0.00000000000E+00 -0.45593999997E+02  0.45594000000E+02  0.51100000000E-03 0.  1.
         23    2    1    2    0    0  0.88817841970E-15  0.35527136788E-14 -0.14210854715E-13  0.91188000000E+02  0.91188000000E+02 0.  0.
    9900012    2    3    3    0    0  0.41334657591E+01  0.16006531033E+02 -0.37146620291E+02  0.50528856208E+02  0.29999988930E+02 0.  0.
         12    1    3    3    0    0 -0.41334657591E+01 -0.16006531033E+02  0.37146620291E+02  0.40659143792E+02  0.00000000000E+00 0. -1.
         11    1    4    4    0    0 -0.60751517456E+01  0.79640810064E+01 -0.12089385641E+02  0.15699914027E+02  0.51100000000E-03 0. -1.
        -11    1    4    4    0    0  0.76320877699E+01  0.81150682675E+01 -0.28458561486E+02  0.30561296092E+02  0.51100000000E-03 0.  1.
        -12    1    4    4    0    0  0.25765297347E+01 -0.72618240755E-01  0.34013268372E+01  0.42676460885E+01  0.00000000000E+00 0.  1.
</event>
<event>
 8    1  0.4964753E-012  0.9118800E+02  0.7816164E-02  0.1184000E+00
        -11   -1    0    0    0    0  0.00000000000E+00  0.00000000000E+00  0.45593999997E+02  0.45594000000E+02  0.51100000000E-03 0. -1.
         11   -1    0    0    0    0 -0.00000000000E+00 -0.00000000000E+00 -0.45593999997E+02  0.45594000000E+02  0.51100000000E-03 0.  1.
         23    2    1    2    0    0  0.35527136788E-14  0.35527136788E-14  0.00000000000E+00  0.91188000000E+02  0.91188000000E+02 0.  0.
    9900012    2    3    3    0    0  0.19452960375E+02  0.20855279206E+02 -0.28979395099E+02  0.50528859842E+02  0.29999999975E+02 0.  0.
         12    1    3    3    0    0 -0.19452960375E+02 -0.20855279206E+02  0.28979395099E+02  0.40659140158E+02  0.00000000000E+00 0. -1.
         11    1    4    4    0    0  0.51920672607E+01  0.19685085351E+02 -0.12453034789E+02  0.23864999967E+02  0.51100000000E-03 0. -1.
        -11    1    4    4    0    0  0.53469250273E+00 -0.95132570799E+00  0.27191340136E+01  0.29299499518E+01  0.51100000000E-03 0.  1.
        -12    1    4    4    0    0  0.13726200611E+02  0.21215195636E+01 -0.19245494323E+02  0.23733909923E+02  0.00000000000E+00 0.  1.
</event>
<event>
 8    1  0.4964753E-012  0.9118800E+02  0.7816164E-02  0.1184000E+00
        -11   -1    0    0    0    0  0.00000000000E+00  0.00000000000E+00  0.45593999997E+02  0.45594000000E+02  0.51100000000E-03 0.  1.
         11   -1    0    0    0    0 -0.00000000000E+00 -0.00000000000E+00 -0.45593999997E+02  0.45594000000E+02  0.51100000000E-03 0. -1.
         23    2    1    2    0    0 -0.35527136788E-14 -0.71054273576E-14  0.44408920985E-15  0.91188000000E+02  0.91188000000E+02 0.  0.
    9900012    2    3    3    0    0  0.22524232657E+02 -0.33736327160E+02 -0.27721064243E+01  0.50528863252E+02  0.30000010340E+02 0.  0.
        -12    1    3    3    0    0 -0.22524232657E+02  0.33736327160E+02  0.27721064243E+01  0.40659136748E+02  0.00000000000E+00 0.  1.
         11    1    4    4    0    0 -0.30222637748E+00 -0.49612262237E+01  0.52553489548E+01  0.72335191521E+01  0.51100000000E-03 0. -1.
        -11    1    4    4    0    0  0.26234583603E+02 -0.20014708025E+02 -0.47359404170E+01  0.33335732271E+02  0.51100000000E-03 0.  1.
         12    1    4    4    0    0 -0.34081245679E+01 -0.87603929120E+01 -0.32915149621E+01  0.99596118292E+01  0.00000000000E+00 0. -1.
</event>
<event>
 8    1  0.4964753E-012  0.9118800E+02  0.7816164E-02  0.1184000E+00
        -11   -1    0    0    0    0  0.00000000000E+00  0.00000000000E+00  0.45593999997E+02  0.45594000000E+02  0.51100000000E-03 0. -1.
         11   -1    0    0    0    0 -0.00000000000E+00 -0.00000000000E+00 -0.45593999997E+02  0.45594000000E+02  0.51100000000E-03 0.  1.
         23    2    1    2    0    0  0.17763568394E-14  0.00000000000E+00  0.71054273576E-14  0.91188000000E+02  0.91188000000E+02 0.  0.
    9900012    2    3    3    0    0  0.10524105353E+02  0.19915148869E+02  0.33849551607E+02  0.50528903945E+02  0.30000134032E+02 0.  0.
        -12    1    3    3    0    0 -0.10524105353E+02 -0.19915148869E+02 -0.33849551607E+02  0.40659096055E+02  0.00000000000E+00 0.  1.
         11    1    4    4    0    0  0.17420644342E+02  0.22227315004E+02  0.26030725905E+02  0.38407435127E+02  0.51100000000E-03 0. -1.
        -11    1    4    4    0    0 -0.77713888056E+00  0.24458986833E+00  0.47401866965E+01  0.48096922169E+01  0.51100000000E-03 0.  1.
         12    1    4    4    0    0 -0.61194001083E+01 -0.25567560037E+01  0.30786390056E+01  0.73117766018E+01  0.00000000000E+00 0. -1.
</event>
<event>
 8    1  0.4964753E-012  0.9118800E+02  0.7816164E-02  0.1184000E+00
        -11   -1    0    0    0    0  0.00000000000E+00  0.00000000000E+00  0.45593999997E+02  0.45594000000E+02  0.51100000000E-03 0. -1.
         11   -1    0    0    0    0 -0.00000000000E+00 -0.00000000000E+00 -0.45593999997E+02  0.45594000000E+02  0.51100000000E-03 0.  1.
         23    2    1    2    0    0 -0.17763568394E-14  0.17763568394E-14  0.00000000000E+00  0.91188000000E+02  0.91188000000E+02 0.  0.
    9900012    2    3    3    0    0 -0.15604474272E+02  0.14211419781E+02 -0.34752001766E+02  0.50528859622E+02  0.29999999309E+02 0.  0.
         12    1    3    3    0    0  0.15604474272E+02 -0.14211419781E+02  0.34752001766E+02  0.40659140378E+02  0.00000000000E+00 0. -1.
         11    1    4    4    0    0 -0.13874024986E+02  0.49182381092E+01 -0.89730049808E+01  0.17239270694E+02  0.51100000000E-03 0. -1.
        -11    1    4    4    0    0 -0.55435507565E+01  0.85716558898E+01 -0.27281005917E+02  0.29128294214E+02  0.51100000000E-03 0.  1.
        -12    1    4    4    0    0  0.38131014698E+01  0.72152578224E+00  0.15020091323E+01  0.41612947152E+01  0.00000000000E+00 0.  1.
</event>
<event>
 8    1  0.4964753E-012  0.9118800E+02  0.7816164E-02  0.1184000E+00
        -11   -1    0    0    0    0  0.00000000000E+00  0.00000000000E+00  0.45593999997E+02  0.45594000000E+02  0.51100000000E-03 0. -1.
         11   -1    0    0    0    0 -0.00000000000E+00 -0.00000000000E+00 -0.45593999997E+02  0.45594000000E+02  0.51100000000E-03 0.  1.
         23    2    1    2    0    0  0.00000000000E+00 -0.35527136788E-14 -0.35527136788E-14  0.91188000000E+02  0.91188000000E+02 0.  0.
    9900012    2    3    3    0    0 -0.32053011050E+02 -0.16238067009E+02  0.19028802778E+02  0.50528859912E+02  0.30000000187E+02 0.  0.
        -12    1    3    3    0    0  0.32053011050E+02  0.16238067009E+02 -0.19028802778E+02  0.40659140088E+02  0.00000000000E+00 0.  1.
         11    1    4    4    0    0 -0.92629640021E+01 -0.17011606932E+02  0.19561717805E+01  0.19468535661E+02  0.51100000000E-03 0. -1.
        -11    1    4    4    0    0 -0.28971015239E+01  0.14137576427E+01 -0.17485488344E+01  0.36673329818E+01  0.51100000000E-03 0.  1.
         12    1    4    4    0    0 -0.19892945524E+02 -0.64021771956E+00  0.18821179832E+02  0.27392991268E+02  0.00000000000E+00 0. -1.
</event>
<event>
 8    1  0.4964753E-012  0.9118800E+02  0.7816164E-02  0.1184000E+00
        -11   -1    0    0    0    0  0.00000000000E+00  0.00000000000E+00  0.45593999997E+02  0.45594000000E+02  0.51100000000E-03 0. -1.
         11   -1    0    0    0    0 -0.00000000000E+00 -0.00000000000E+00 -0.45593999997E+02  0.45594000000E+02  0.51100000000E-03 0.  1.
         23    2    1    2    0    0  0.13322676296E-14  0.35527136788E-14 -0.71054273576E-14  0.91188000000E+02  0.91188000000E+02 0.  0.
    9900012    2    3    3    0    0 -0.16775313447E+01 -0.21306322763E+02  0.34588897678E+02  0.50528863958E+02  0.30000012487E+02 0.  0.
        -12    1    3    3    0    0  0.16775313447E+01  0.21306322763E+02 -0.34588897678E+02  0.40659136042E+02  0.00000000000E+00 0.  1.
         11    1    4    4    0    0  0.72161633785E+01 -0.37078485207E+01  0.13653409358E+02  0.15881962785E+02  0.51100000000E-03 0. -1.
        -11    1    4    4    0    0  0.37276646537E+01 -0.22956637072E+01 -0.15667970556E+01  0.46497751452E+01  0.51100000000E-03 0.  1.
        -12    1    4    4    0    0 -0.12621359377E+02 -0.15302810535E+02  0.22502285376E+02  0.29997126028E+02  0.00000000000E+00 0.  1.
</event>
<event>
 8    1  0.4964753E-012  0.9118800E+02  0.7816164E-02  0.1184000E+00
        -11   -1    0    0    0    0  0.00000000000E+00  0.00000000000E+00  0.45593999997E+02  0.45594000000E+02  0.51100000000E-03 0. -1.
         11   -1    0    0    0    0 -0.00000000000E+00 -0.00000000000E+00 -0.45593999997E+02  0.45594000000E+02  0.51100000000E-03 0.  1.
         23    2    1    2    0    0  0.17763568394E-14 -0.35527136788E-14  0.00000000000E+00  0.91188000000E+02  0.91188000000E+02 0.  0.
    9900012    2    3    3    0    0  0.12766508400E+02 -0.22400277764E+02  0.31438958926E+02  0.50528876559E+02  0.30000050788E+02 0.  0.
        -12    1    3    3    0    0 -0.12766508400E+02  0.22400277764E+02 -0.31438958926E+02  0.40659123441E+02  0.00000000000E+00 0.  1.
         11    1    4    4    0    0  0.71585461273E+01 -0.58883517854E+01  0.12271201008E+01  0.93500424282E+01  0.51100000000E-03 0. -1.
        -11    1    4    4    0    0 -0.73691769852E+01 -0.81890796422E+00  0.59717072429E+01  0.95203291618E+01  0.51100000000E-03 0.  1.
         12    1    4    4    0    0  0.12977139258E+02 -0.15693018014E+02  0.24240131583E+02  0.31658504969E+02  0.00000000000E+00 0. -1.
</event>
<event>
 8    1  0.4964753E-012  0.9118800E+02  0.7816164E-02  0.1184000E+00
        -11   -1    0    0    0    0  0.00000000000E+00  0.00000000000E+00  0.45593999997E+02  0.45594000000E+02  0.51100000000E-03 0. -1.
         11   -1    0    0    0    0 -0.00000000000E+00 -0.00000000000E+00 -0.45593999997E+02  0.45594000000E+02  0.51100000000E-03 0.  1.
         23    2    1    2    0    0  0.17763568394E-14 -0.17763568394E-14 -0.71054273576E-14  0.91188000000E+02  0.91188000000E+02 0.  0.
    9900012    2    3    3    0    0 -0.60660580341E+01  0.14635559730E+02  0.37445576153E+02  0.50528833234E+02  0.29999919098E+02 0.  0.
        -12    1    3    3    0    0  0.60660580341E+01 -0.14635559730E+02 -0.37445576153E+02  0.40659166766E+02  0.00000000000E+00 0.  1.
         11    1    4    4    0    0 -0.11290039223E+02  0.29298805680E+01  0.17159819537E+02  0.20748700986E+02  0.51100000000E-03 0. -1.
        -11    1    4    4    0    0 -0.10754767454E+01 -0.17619729955E+01 -0.20753753753E+01  0.29271799187E+01  0.51100000000E-03 0.  1.
         12    1    4    4    0    0  0.62994579340E+01  0.13467652158E+02  0.22361131991E+02  0.26852952330E+02  0.00000000000E+00 0. -1.
</event>
<event>
 8    1  0.4964753E-012  0.9118800E+02  0.7816164E-02  0.1184000E+00
        -11   -1    0    0    0    0  0.00000000000E+00  0.00000000000E+00  0.45593999997E+02  0.45594000000E+02  0.51100000000E-03 0. -1.
         11   -1    0    0    0    0 -0.00000000000E+00 -0.00000000000E+00 -0.45593999997E+02  0.45594000000E+02  0.51100000000E-03 0.  1.
         23    2    1    2    0    0  0.00000000000E+00  0.00000000000E+00  0.88817841970E-15  0.91188000000E+02  0.91188000000E+02 0.  0.
    9900012    2    3    3    0    0 -0.30059399463E+02 -0.27378615297E+02  0.99897699615E-01  0.50528855257E+02  0.29999986039E+02 0.  0.
         12    1    3    3    0    0  0.30059399463E+02  0.27378615297E+02 -0.99897699615E-01  0.40659144743E+02  0.00000000000E+00 0. -1.
         11    1    4    4    0    0 -0.87620305097E+01 -0.10556200344E+02 -0.92218100964E+01  0.16530224622E+02  0.51100000000E-03 0.  1.
        -11    1    4    4    0    0  0.21586445307E+01 -0.68642637636E+01  0.15913014634E+01  0.73695389160E+01  0.51100000000E-03 0. -1.
         12    1    4    4    0    0 -0.23456013484E+02 -0.99581511899E+01  0.77304063326E+01  0.26629091718E+02  0.00000000000E+00 0. -1.
</event>
<event>
 8    1  0.4964753E-012  0.9118800E+02  0.7816164E-02  0.1184000E+00
        -11   -1    0    0    0    0  0.00000000000E+00  0.00000000000E+00  0.45593999997E+02  0.45594000000E+02  0.51100000000E-03 0. -1.
         11   -1    0    0    0    0 -0.00000000000E+00 -0.00000000000E+00 -0.45593999997E+02  0.45594000000E+02  0.51100000000E-03 0.  1.
         23    2    1    2    0    0  0.99920072216E-15  0.00000000000E+00 -0.35527136788E-14  0.91188000000E+02  0.91188000000E+02 0.  0.
    9900012    2    3    3    0    0  0.85831661931E+00  0.33279986750E+02  0.23342490408E+02  0.50528854855E+02  0.29999984816E+02 0.  0.
        -12    1    3    3    0    0 -0.85831661931E+00 -0.33279986750E+02 -0.23342490408E+02  0.40659145145E+02  0.00000000000E+00 0.  1.
         11    1    4    4    0    0 -0.36490482369E+01  0.16801183164E+02  0.92158563041E+01  0.19507109382E+02  0.51100000000E-03 0. -1.
        -11    1    4    4    0    0  0.11155896367E+02  0.17412194984E+02  0.12312117771E+02  0.24067131158E+02  0.51100000000E-03 0.  1.
         12    1    4    4    0    0 -0.66485315107E+01 -0.93339139758E+00  0.18145163323E+01  0.69546143150E+01  0.00000000000E+00 0. -1.
</event>
<event>
 8    1  0.4964753E-012  0.9118800E+02  0.7816164E-02  0.1184000E+00
        -11   -1    0    0    0    0  0.00000000000E+00  0.00000000000E+00  0.45593999997E+02  0.45594000000E+02  0.51100000000E-03 0. -1.
         11   -1    0    0    0    0 -0.00000000000E+00 -0.00000000000E+00 -0.45593999997E+02  0.45594000000E+02  0.51100000000E-03 0.  1.
         23    2    1    2    0    0  0.00000000000E+00  0.00000000000E+00  0.00000000000E+00  0.91188000000E+02  0.91188000000E+02 0.  0.
    9900012    2    3    3    0    0 -0.20831035024E+02  0.97183815641E+01 -0.33537826676E+02  0.50528870908E+02  0.30000033612E+02 0.  0.
         12    1    3    3    0    0  0.20831035024E+02 -0.97183815641E+01  0.33537826676E+02  0.40659129092E+02  0.00000000000E+00 0. -1.
         11    1    4    4    0    0 -0.11119164430E+02  0.59791230622E+01 -0.66679343521E+01  0.14277502548E+02  0.51100000000E-03 0.  1.
        -11    1    4    4    0    0  0.67924669422E+00 -0.22362947586E+01  0.31525758981E+01  0.39244267573E+01  0.51100000000E-03 0. -1.
         12    1    4    4    0    0 -0.10391117288E+02  0.59755532605E+01 -0.30022468222E+02  0.32326941603E+02  0.00000000000E+00 0. -1.
</event>
<event>
 8    1  0.4964753E-012  0.9118800E+02  0.7816164E-02  0.1184000E+00
        -11   -1    0    0    0    0  0.00000000000E+00  0.00000000000E+00  0.45593999997E+02  0.45594000000E+02  0.51100000000E-03 0. -1.
         11   -1    0    0    0    0 -0.00000000000E+00 -0.00000000000E+00 -0.45593999997E+02  0.45594000000E+02  0.51100000000E-03 0.  1.
         23    2    1    2    0    0  0.00000000000E+00  0.00000000000E+00 -0.71054273576E-14  0.91188000000E+02  0.91188000000E+02 0.  0.
    9900012    2    3    3    0    0 -0.86900351678E+01  0.75109680340E+01  0.39003003800E+02  0.50528860100E+02  0.30000000758E+02 0.  0.
        -12    1    3    3    0    0  0.86900351678E+01 -0.75109680340E+01 -0.39003003800E+02  0.40659139900E+02  0.00000000000E+00 0.  1.
         11    1    4    4    0    0  0.14169763989E+01 -0.68650532399E+01  0.50116539558E+01  0.86170443736E+01  0.51100000000E-03 0. -1.
        -11    1    4    4    0    0 -0.26696216306E+01  0.40260872258E+01 -0.76628290539E+00  0.48911601643E+01  0.51100000000E-03 0.  1.
         12    1    4    4    0    0 -0.74373899361E+01  0.10349934048E+02  0.34757632750E+02  0.37020655562E+02  0.00000000000E+00 0. -1.
</event>
<event>
 8    1  0.4964753E-012  0.9118800E+02  0.7816164E-02  0.1184000E+00
        -11   -1    0    0    0    0  0.00000000000E+00  0.00000000000E+00  0.45593999997E+02  0.45594000000E+02  0.51100000000E-03 0. -1.
         11   -1    0    0    0    0 -0.00000000000E+00 -0.00000000000E+00 -0.45593999997E+02  0.45594000000E+02  0.51100000000E-03 0.  1.
         23    2    1    2    0    0  0.00000000000E+00  0.00000000000E+00  0.00000000000E+00  0.91188000000E+02  0.91188000000E+02 0.  0.
    9900012    2    3    3    0    0  0.28262215704E+01 -0.36466159238E+02 -0.17759440305E+02  0.50528855667E+02  0.29999987286E+02 0.  0.
         12    1    3    3    0    0 -0.28262215704E+01  0.36466159238E+02  0.17759440305E+02  0.40659144333E+02  0.00000000000E+00 0. -1.
         11    1    4    4    0    0 -0.30766459428E+01 -0.27371817156E+02 -0.17362441665E+01  0.27598852671E+02  0.51100000000E-03 0. -1.
        -11    1    4    4    0    0  0.30134824487E+01 -0.83081334967E+01 -0.26512494980E+01  0.92268782819E+01  0.51100000000E-03 0.  1.
         12    1    4    4    0    0  0.28893850646E+01 -0.78620858561E+00 -0.13371946640E+02  0.13703124714E+02  0.00000000000E+00 0. -1.
</event>
<event>
 8    1  0.4964753E-012  0.9118800E+02  0.7816164E-02  0.1184000E+00
        -11   -1    0    0    0    0  0.00000000000E+00  0.00000000000E+00  0.45593999997E+02  0.45594000000E+02  0.51100000000E-03 0.  1.
         11   -1    0    0    0    0 -0.00000000000E+00 -0.00000000000E+00 -0.45593999997E+02  0.45594000000E+02  0.51100000000E-03 0. -1.
         23    2    1    2    0    0  0.00000000000E+00 -0.35527136788E-14  0.88817841970E-15  0.91188000000E+02  0.91188000000E+02 0.  0.
    9900012    2    3    3    0    0 -0.32623532802E+02  0.23761082717E+02 -0.49273735402E+01  0.50528893340E+02  0.30000101797E+02 0.  0.
         12    1    3    3    0    0  0.32623532802E+02 -0.23761082717E+02  0.49273735402E+01  0.40659106660E+02  0.00000000000E+00 0. -1.
         11    1    4    4    0    0 -0.37394165013E+01  0.83778302885E+01 -0.68648434602E+01  0.11458505666E+02  0.51100000000E-03 0. -1.
        -11    1    4    4    0    0 -0.27035783547E+02  0.38593687019E+01  0.53342405990E+00  0.27315066543E+02  0.51100000000E-03 0.  1.
         12    1    4    4    0    0 -0.18483327538E+01  0.11523883726E+02  0.14040458601E+01  0.11755321131E+02  0.00000000000E+00 0. -1.
</event>
<event>
 8    1  0.4964753E-012  0.9118800E+02  0.7816164E-02  0.1184000E+00
        -11   -1    0    0    0    0  0.00000000000E+00  0.00000000000E+00  0.45593999997E+02  0.45594000000E+02  0.51100000000E-03 0. -1.
         11   -1    0    0    0    0 -0.00000000000E+00 -0.00000000000E+00 -0.45593999997E+02  0.45594000000E+02  0.51100000000E-03 0.  1.
         23    2    1    2    0    0 -0.17763568394E-14  0.00000000000E+00  0.00000000000E+00  0.91188000000E+02  0.91188000000E+02 0.  0.
    9900012    2    3    3    0    0  0.13926214315E+02  0.35808110598E+02  0.13304302497E+02  0.50528871939E+02  0.30000036746E+02 0.  0.
        -12    1    3    3    0    0 -0.13926214315E+02 -0.35808110598E+02 -0.13304302497E+02  0.40659128061E+02  0.00000000000E+00 0.  1.
         11    1    4    4    0    0  0.59849408666E+01  0.25938314458E+02  0.23043403190E+01  0.26719387319E+02  0.51100000000E-03 0.  1.
        -11    1    4    4    0    0 -0.70322038981E+00  0.12047193034E+02  0.49922286141E+01  0.13059545387E+02  0.51100000000E-03 0. -1.
         12    1    4    4    0    0  0.86444938380E+01 -0.21773968945E+01  0.60077335639E+01  0.10749939234E+02  0.00000000000E+00 0. -1.
</event>
<event>
 8    1  0.4964753E-012  0.9118800E+02  0.7816164E-02  0.1184000E+00
        -11   -1    0    0    0    0  0.00000000000E+00  0.00000000000E+00  0.45593999997E+02  0.45594000000E+02  0.51100000000E-03 0. -1.
         11   -1    0    0    0    0 -0.00000000000E+00 -0.00000000000E+00 -0.45593999997E+02  0.45594000000E+02  0.51100000000E-03 0.  1.
         23    2    1    2    0    0  0.00000000000E+00 -0.71054273576E-14  0.71054273576E-14  0.91188000000E+02  0.91188000000E+02 0.  0.
    9900012    2    3    3    0    0  0.17245348784E+01 -0.26389134661E+02  0.30883731429E+02  0.50528864302E+02  0.30000013532E+02 0.  0.
        -12    1    3    3    0    0 -0.17245348784E+01  0.26389134661E+02 -0.30883731429E+02  0.40659135698E+02  0.00000000000E+00 0.  1.
         11    1    4    4    0    0 -0.64428243092E+01 -0.13724059077E+02  0.12491978500E+02  0.19644574562E+02  0.51100000000E-03 0. -1.
        -11    1    4    4    0    0  0.31491597905E+01 -0.51825605611E+01  0.20711429085E+02  0.21580997112E+02  0.51100000000E-03 0.  1.
        -12    1    4    4    0    0  0.50181993970E+01 -0.74825150231E+01 -0.23196761549E+01  0.93032926281E+01  0.00000000000E+00 0.  1.
</event>
<event>
 8    1  0.4964753E-012  0.9118800E+02  0.7816164E-02  0.1184000E+00
        -11   -1    0    0    0    0  0.00000000000E+00  0.00000000000E+00  0.45593999997E+02  0.45594000000E+02  0.51100000000E-03 0.  1.
         11   -1    0    0    0    0 -0.00000000000E+00 -0.00000000000E+00 -0.45593999997E+02  0.45594000000E+02  0.51100000000E-03 0. -1.
         23    2    1    2    0    0 -0.71054273576E-14  0.35527136788E-14  0.17763568394E-14  0.91188000000E+02  0.91188000000E+02 0.  0.
    9900012    2    3    3    0    0  0.34804284336E+02 -0.17350417394E+02 -0.11865519150E+02  0.50528859126E+02  0.29999997801E+02 0.  0.
         12    1    3    3    0    0 -0.34804284336E+02  0.17350417394E+02  0.11865519150E+02  0.40659140874E+02  0.00000000000E+00 0. -1.
         11    1    4    4    0    0  0.10369652664E+02  0.49653302667E+01 -0.33089922126E+01  0.11963846821E+02  0.51100000000E-03 0. -1.
        -11    1    4    4    0    0  0.15977301786E+02 -0.56508235616E+01  0.20598996064E+01  0.17071882320E+02  0.51100000000E-03 0.  1.
         12    1    4    4    0    0  0.84573298857E+01 -0.16664924099E+02 -0.10616426544E+02  0.21493129986E+02  0.00000000000E+00 0. -1.
</event>
<event>
 8    1  0.4964753E-012  0.9118800E+02  0.7816164E-02  0.1184000E+00
        -11   -1    0    0    0    0  0.00000000000E+00  0.00000000000E+00  0.45593999997E+02  0.45594000000E+02  0.51100000000E-03 0. -1.
         11   -1    0    0    0    0 -0.00000000000E+00 -0.00000000000E+00 -0.45593999997E+02  0.45594000000E+02  0.51100000000E-03 0.  1.
         23    2    1    2    0    0  0.35527136788E-14  0.00000000000E+00 -0.35527136788E-14  0.91188000000E+02  0.91188000000E+02 0.  0.
    9900012    2    3    3    0    0  0.24520903298E+02  0.20110696894E+02 -0.25445045954E+02  0.50528865827E+02  0.30000018168E+02 0.  0.
         12    1    3    3    0    0 -0.24520903298E+02 -0.20110696894E+02  0.25445045954E+02  0.40659134173E+02  0.00000000000E+00 0. -1.
         11    1    4    4    0    0  0.17502978069E+02  0.24140287523E+02 -0.23638251097E+02  0.38050947928E+02  0.51100000000E-03 0.  1.
        -11    1    4    4    0    0 -0.19392546407E+01  0.46663326939E+00 -0.14194223943E+01  0.24481044431E+01  0.51100000000E-03 0. -1.
        -12    1    4    4    0    0  0.89571798688E+01 -0.44962238984E+01 -0.38737246217E+00  0.10029813456E+02  0.00000000000E+00 0.  1.
</event>
<event>
 8    1  0.4964753E-012  0.9118800E+02  0.7816164E-02  0.1184000E+00
        -11   -1    0    0    0    0  0.00000000000E+00  0.00000000000E+00  0.45593999997E+02  0.45594000000E+02  0.51100000000E-03 0. -1.
         11   -1    0    0    0    0 -0.00000000000E+00 -0.00000000000E+00 -0.45593999997E+02  0.45594000000E+02  0.51100000000E-03 0.  1.
         23    2    1    2    0    0 -0.17763568394E-14  0.35527136788E-14 -0.71054273576E-14  0.91188000000E+02  0.91188000000E+02 0.  0.
    9900012    2    3    3    0    0  0.13129973962E+02 -0.18090676303E+02  0.33963162584E+02  0.50528865750E+02  0.30000017932E+02 0.  0.
        -12    1    3    3    0    0 -0.13129973962E+02  0.18090676303E+02 -0.33963162584E+02  0.40659134250E+02  0.00000000000E+00 0.  1.
         11    1    4    4    0    0 -0.14665127549E+01 -0.46521979971E+01 -0.33117032578E+01  0.58958446887E+01  0.51100000000E-03 0.  1.
        -11    1    4    4    0    0  0.15359376739E+01 -0.10831424276E+02  0.13438991722E+02  0.17328743612E+02  0.51100000000E-03 0. -1.
         12    1    4    4    0    0  0.13060549043E+02 -0.26070540295E+01  0.23835874119E+02  0.27304277449E+02  0.00000000000E+00 0. -1.
</event>
<event>
 8    1  0.4964753E-012  0.9118800E+02  0.7816164E-02  0.1184000E+00
        -11   -1    0    0    0    0  0.00000000000E+00  0.00000000000E+00  0.45593999997E+02  0.45594000000E+02  0.51100000000E-03 0. -1.
         11   -1    0    0    0    0 -0.00000000000E+00 -0.00000000000E+00 -0.45593999997E+02  0.45594000000E+02  0.51100000000E-03 0.  1.
         23    2    1    2    0    0  0.17763568394E-14  0.00000000000E+00  0.35527136788E-14  0.91188000000E+02  0.91188000000E+02 0.  0.
    9900012    2    3    3    0    0 -0.94790780354E+01 -0.33343941277E+02  0.21248397956E+02  0.50528858888E+02  0.29999997075E+02 0.  0.
        -12    1    3    3    0    0  0.94790780354E+01  0.33343941277E+02 -0.21248397956E+02  0.40659141112E+02  0.00000000000E+00 0.  1.
         11    1    4    4    0    0  0.24295285242E+01 -0.21745235574E+02  0.16949954318E+02  0.27677767805E+02  0.51100000000E-03 0. -1.
        -11    1    4    4    0    0  0.25618290010E+01 -0.47972896336E+01  0.41837421850E+01  0.68615344196E+01  0.51100000000E-03 0.  1.
        -12    1    4    4    0    0 -0.14470435561E+02 -0.68014160695E+01  0.11470145290E+00  0.15989556663E+02  0.00000000000E+00 0.  1.
</event>
<event>
 8    1  0.4964753E-012  0.9118800E+02  0.7816164E-02  0.1184000E+00
        -11   -1    0    0    0    0  0.00000000000E+00  0.00000000000E+00  0.45593999997E+02  0.45594000000E+02  0.51100000000E-03 0. -1.
         11   -1    0    0    0    0 -0.00000000000E+00 -0.00000000000E+00 -0.45593999997E+02  0.45594000000E+02  0.51100000000E-03 0.  1.
         23    2    1    2    0    0  0.00000000000E+00  0.00000000000E+00  0.00000000000E+00  0.91188000000E+02  0.91188000000E+02 0.  0.
    9900012    2    3    3    0    0  0.32169347199E+02  0.16862184010E+02 -0.18274699874E+02  0.50528870591E+02  0.30000032649E+02 0.  0.
         12    1    3    3    0    0 -0.32169347199E+02 -0.16862184010E+02  0.18274699874E+02  0.40659129409E+02  0.00000000000E+00 0. -1.
         11    1    4    4    0    0  0.60456421713E+01 -0.11780272291E+01 -0.11048624444E+02  0.12649491681E+02  0.51100000000E-03 0. -1.
        -11    1    4    4    0    0 -0.15144670382E+01 -0.18819002104E+01 -0.25117744467E+01  0.34848486257E+01  0.51100000000E-03 0.  1.
        -12    1    4    4    0    0  0.27638172066E+02  0.19922111449E+02 -0.47143009834E+01  0.34394530285E+02  0.00000000000E+00 0.  1.
</event>
<event>
 8    1  0.4964753E-012  0.9118800E+02  0.7816164E-02  0.1184000E+00
        -11   -1    0    0    0    0  0.00000000000E+00  0.00000000000E+00  0.45593999997E+02  0.45594000000E+02  0.51100000000E-03 0. -1.
         11   -1    0    0    0    0 -0.00000000000E+00 -0.00000000000E+00 -0.45593999997E+02  0.45594000000E+02  0.51100000000E-03 0.  1.
         23    2    1    2    0    0  0.00000000000E+00  0.88817841970E-15  0.00000000000E+00  0.91188000000E+02  0.91188000000E+02 0.  0.
    9900012    2    3    3    0    0  0.28429870954E+02 -0.59221011519E+01 -0.28457611174E+02  0.50528874601E+02  0.30000044836E+02 0.  0.
         12    1    3    3    0    0 -0.28429870954E+02  0.59221011519E+01  0.28457611174E+02  0.40659125399E+02  0.00000000000E+00 0. -1.
         11    1    4    4    0    0  0.14809992168E+00 -0.44651436341E+01 -0.14516110681E+01  0.46975117045E+01  0.51100000000E-03 0. -1.
        -11    1    4    4    0    0  0.20006400139E+02  0.97526945842E+01 -0.21196584024E+02  0.30735423744E+02  0.51100000000E-03 0.  1.
         12    1    4    4    0    0  0.82753708931E+01 -0.11209652102E+02 -0.58094160826E+01  0.15095939152E+02  0.00000000000E+00 0. -1.
</event>
<event>
 8    1  0.4964753E-012  0.9118800E+02  0.7816164E-02  0.1184000E+00
        -11   -1    0    0    0    0  0.00000000000E+00  0.00000000000E+00  0.45593999997E+02  0.45594000000E+02  0.51100000000E-03 0.  1.
         11   -1    0    0    0    0 -0.00000000000E+00 -0.00000000000E+00 -0.45593999997E+02  0.45594000000E+02  0.51100000000E-03 0. -1.
         23    2    1    2    0    0 -0.71054273576E-14 -0.17763568394E-14  0.00000000000E+00  0.91188000000E+02  0.91188000000E+02 0.  0.
    9900012    2    3    3    0    0  0.36372624622E+02  0.75862333858E+01 -0.16512040664E+02  0.50528852864E+02  0.29999978766E+02 0.  0.
         12    1    3    3    0    0 -0.36372624622E+02 -0.75862333858E+01  0.16512040664E+02  0.40659147136E+02  0.00000000000E+00 0. -1.
         11    1    4    4    0    0  0.53834697528E+01  0.88281612778E+01 -0.15675775283E+02  0.18778927262E+02  0.51100000000E-03 0. -1.
        -11    1    4    4    0    0  0.74993824357E+01  0.20352750520E+01 -0.19324080995E+01  0.80073268185E+01  0.51100000000E-03 0.  1.
         12    1    4    4    0    0  0.23489772434E+02 -0.32772029440E+01  0.10961427184E+01  0.23742598784E+02  0.00000000000E+00 0. -1.
</event>
<event>
 8    1  0.4964753E-012  0.9118800E+02  0.7816164E-02  0.1184000E+00
        -11   -1    0    0    0    0  0.00000000000E+00  0.00000000000E+00  0.45593999997E+02  0.45594000000E+02  0.51100000000E-03 0. -1.
         11   -1    0    0    0    0 -0.00000000000E+00 -0.00000000000E+00 -0.45593999997E+02  0.45594000000E+02  0.51100000000E-03 0.  1.
         23    2    1    2    0    0  0.00000000000E+00 -0.17763568394E-14 -0.17763568394E-14  0.91188000000E+02  0.91188000000E+02 0.  0.
    9900012    2    3    3    0    0  0.37959170957E+02 -0.10976569455E+02 -0.95802945720E+01  0.50528858582E+02  0.29999996145E+02 0.  0.
         12    1    3    3    0    0 -0.37959170957E+02  0.10976569455E+02  0.95802945720E+01  0.40659141418E+02  0.00000000000E+00 0. -1.
         11    1    4    4    0    0 -0.26238160714E+01 -0.44682637184E-02  0.11687215898E+01  0.28723407106E+01  0.51100000000E-03 0. -1.
        -11    1    4    4    0    0  0.25710410623E+02  0.16012906610E+01 -0.11400970903E+02  0.28170400849E+02  0.51100000000E-03 0.  1.
         12    1    4    4    0    0  0.14872576406E+02 -0.12573391853E+02  0.65195474138E+00  0.19486117022E+02  0.00000000000E+00 0. -1.
</event>
<event>
 8    1  0.4964753E-012  0.9118800E+02  0.7816164E-02  0.1184000E+00
        -11   -1    0    0    0    0  0.00000000000E+00  0.00000000000E+00  0.45593999997E+02  0.45594000000E+02  0.51100000000E-03 0. -1.
         11   -1    0    0    0    0 -0.00000000000E+00 -0.00000000000E+00 -0.45593999997E+02  0.45594000000E+02  0.51100000000E-03 0.  1.
         23    2    1    2    0    0 -0.71054273576E-14 -0.13322676296E-14 -0.35527136788E-14  0.91188000000E+02  0.91188000000E+02 0.  0.
    9900012    2    3    3    0    0  0.33093053343E+02  0.20668910163E+01  0.23531757143E+02  0.50528858196E+02  0.29999994972E+02 0.  0.
        -12    1    3    3    0    0 -0.33093053343E+02 -0.20668910163E+01 -0.23531757143E+02  0.40659141804E+02  0.00000000000E+00 0.  1.
         11    1    4    4    0    0  0.13746892356E+02  0.93896105867E+01  0.57701111829E+01  0.17619194640E+02  0.51100000000E-03 0. -1.
        -11    1    4    4    0    0  0.20373246620E+02 -0.61012183564E+01  0.75401150324E+01  0.22564294321E+02  0.51100000000E-03 0.  1.
        -12    1    4    4    0    0 -0.10270856327E+01 -0.12215012140E+01  0.10221530927E+02  0.10345369235E+02  0.00000000000E+00 0.  1.
</event>
<event>
 8    1  0.4964753E-012  0.9118800E+02  0.7816164E-02  0.1184000E+00
        -11   -1    0    0    0    0  0.00000000000E+00  0.00000000000E+00  0.45593999997E+02  0.45594000000E+02  0.51100000000E-03 0. -1.
         11   -1    0    0    0    0 -0.00000000000E+00 -0.00000000000E+00 -0.45593999997E+02  0.45594000000E+02  0.51100000000E-03 0.  1.
         23    2    1    2    0    0  0.00000000000E+00  0.11102230246E-15  0.00000000000E+00  0.91188000000E+02  0.91188000000E+02 0.  0.
    9900012    2    3    3    0    0  0.23445116818E+01 -0.37333036885E+00  0.40589770423E+02  0.50528861131E+02  0.30000003894E+02 0.  0.
        -12    1    3    3    0    0 -0.23445116818E+01  0.37333036885E+00 -0.40589770423E+02  0.40659138869E+02  0.00000000000E+00 0.  1.
         11    1    4    4    0    0  0.32175365446E+01  0.23945042177E+00  0.43173088686E+00  0.32551911987E+01  0.51100000000E-03 0. -1.
        -11    1    4    4    0    0 -0.45234231944E+01 -0.29077712265E+01 -0.13483800787E+01  0.55438813118E+01  0.51100000000E-03 0.  1.
        -12    1    4    4    0    0  0.36503983316E+01  0.22949904359E+01  0.41506419615E+02  0.41729788620E+02  0.00000000000E+00 0.  1.
</event>
<event>
 8    1  0.4964753E-012  0.9118800E+02  0.7816164E-02  0.1184000E+00
        -11   -1    0    0    0    0  0.00000000000E+00  0.00000000000E+00  0.45593999997E+02  0.45594000000E+02  0.51100000000E-03 0. -1.
         11   -1    0    0    0    0 -0.00000000000E+00 -0.00000000000E+00 -0.45593999997E+02  0.45594000000E+02  0.51100000000E-03 0.  1.
         23    2    1    2    0    0 -0.35527136788E-14  0.00000000000E+00  0.00000000000E+00  0.91188000000E+02  0.91188000000E+02 0.  0.
    9900012    2    3    3    0    0  0.26161861345E+02  0.92555877682E+01  0.29716294097E+02  0.50528843235E+02  0.29999949498E+02 0.  0.
        -12    1    3    3    0    0 -0.26161861345E+02 -0.92555877682E+01 -0.29716294097E+02  0.40659156765E+02  0.00000000000E+00 0.  1.
         11    1    4    4    0    0  0.97935200710E+01  0.49057061392E+00  0.13702561553E+01  0.99010755527E+01  0.51100000000E-03 0. -1.
        -11    1    4    4    0    0  0.11217403637E+02  0.33430270811E+01  0.41442967417E+00  0.11712289555E+02  0.51100000000E-03 0.  1.
        -12    1    4    4    0    0  0.51509376370E+01  0.54219900732E+01  0.27931608268E+02  0.28915478127E+02  0.00000000000E+00 0.  1.
</event>
<event>
 8    1  0.4964753E-012  0.9118800E+02  0.7816164E-02  0.1184000E+00
        -11   -1    0    0    0    0  0.00000000000E+00  0.00000000000E+00  0.45593999997E+02  0.45594000000E+02  0.51100000000E-03 0.  1.
         11   -1    0    0    0    0 -0.00000000000E+00 -0.00000000000E+00 -0.45593999997E+02  0.45594000000E+02  0.51100000000E-03 0. -1.
         23    2    1    2    0    0 -0.71054273576E-14  0.13322676296E-14  0.00000000000E+00  0.91188000000E+02  0.91188000000E+02 0.  0.
    9900012    2    3    3    0    0  0.39763577381E+02  0.21665762159E+01  0.82053914736E+01  0.50528873253E+02  0.30000040740E+02 0.  0.
         12    1    3    3    0    0 -0.39763577381E+02 -0.21665762159E+01 -0.82053914736E+01  0.40659126747E+02  0.00000000000E+00 0. -1.
         11    1    4    4    0    0  0.22032492902E+02  0.98096534867E+01  0.41719226630E+01  0.24475804051E+02  0.51100000000E-03 0. -1.
        -11    1    4    4    0    0  0.18754135834E+02 -0.49825814702E+01 -0.18728539853E+01  0.19494904752E+02  0.51100000000E-03 0.  1.
         12    1    4    4    0    0 -0.10230513549E+01 -0.26604958006E+01  0.59063227958E+01  0.65581644496E+01  0.00000000000E+00 0. -1.
</event>
<event>
 8    1  0.4964753E-012  0.9118800E+02  0.7816164E-02  0.1184000E+00
        -11   -1    0    0    0    0  0.00000000000E+00  0.00000000000E+00  0.45593999997E+02  0.45594000000E+02  0.51100000000E-03 0. -1.
         11   -1    0    0    0    0 -0.00000000000E+00 -0.00000000000E+00 -0.45593999997E+02  0.45594000000E+02  0.51100000000E-03 0.  1.
         23    2    1    2    0    0 -0.88817841970E-15  0.00000000000E+00  0.00000000000E+00  0.91188000000E+02  0.91188000000E+02 0.  0.
    9900012    2    3    3    0    0  0.79236756316E+01 -0.37582103600E+02 -0.13340420193E+02  0.50528856410E+02  0.29999989545E+02 0.  0.
         12    1    3    3    0    0 -0.79236756316E+01  0.37582103600E+02  0.13340420193E+02  0.40659143590E+02  0.00000000000E+00 0. -1.
         11    1    4    4    0    0  0.23617371134E-01  0.21159752433E+00  0.15837680315E+01  0.15980152475E+01  0.51100000000E-03 0. -1.
        -11    1    4    4    0    0  0.81881438468E+01 -0.30685083773E+02  0.69637999215E+00  0.31766413256E+02  0.51100000000E-03 0.  1.
        -12    1    4    4    0    0 -0.28808558635E+00 -0.71086173515E+01 -0.15620568217E+02  0.17164427907E+02  0.00000000000E+00 0.  1.
</event>
<event>
 8    1  0.4964753E-012  0.9118800E+02  0.7816164E-02  0.1184000E+00
        -11   -1    0    0    0    0  0.00000000000E+00  0.00000000000E+00  0.45593999997E+02  0.45594000000E+02  0.51100000000E-03 0.  1.
         11   -1    0    0    0    0 -0.00000000000E+00 -0.00000000000E+00 -0.45593999997E+02  0.45594000000E+02  0.51100000000E-03 0. -1.
         23    2    1    2    0    0 -0.71054273576E-14  0.35527136788E-14 -0.88817841970E-15  0.91188000000E+02  0.91188000000E+02 0.  0.
    9900012    2    3    3    0    0  0.33988632639E+02 -0.21957013754E+02  0.39783866933E+01  0.50528866188E+02  0.30000019265E+02 0.  0.
        -12    1    3    3    0    0 -0.33988632639E+02  0.21957013754E+02 -0.39783866933E+01  0.40659133812E+02  0.00000000000E+00 0.  1.
         11    1    4    4    0    0  0.17914777053E+02 -0.26585232657E+02  0.55960249528E+01  0.32542730798E+02  0.51100000000E-03 0.  1.
        -11    1    4    4    0    0  0.36647180255E+01  0.31672980211E+01 -0.25175405196E+01  0.54589326328E+01  0.51100000000E-03 0. -1.
        -12    1    4    4    0    0  0.12409137561E+02  0.14609208819E+01  0.89990226021E+00  0.12527202757E+02  0.00000000000E+00 0.  1.
</event>
<event>
 8    1  0.4964753E-012  0.9118800E+02  0.7816164E-02  0.1184000E+00
        -11   -1    0    0    0    0  0.00000000000E+00  0.00000000000E+00  0.45593999997E+02  0.45594000000E+02  0.51100000000E-03 0. -1.
         11   -1    0    0    0    0 -0.00000000000E+00 -0.00000000000E+00 -0.45593999997E+02  0.45594000000E+02  0.51100000000E-03 0.  1.
         23    2    1    2    0    0  0.00000000000E+00  0.00000000000E+00  0.00000000000E+00  0.91188000000E+02  0.91188000000E+02 0.  0.
    9900012    2    3    3    0    0 -0.57838690366E+01 -0.34176235505E+02  0.21253170756E+02  0.50528862263E+02  0.30000007335E+02 0.  0.
        -12    1    3    3    0    0  0.57838690366E+01  0.34176235505E+02 -0.21253170756E+02  0.40659137737E+02  0.00000000000E+00 0.  1.
         11    1    4    4    0    0  0.21788882213E+01 -0.10950935879E+02  0.41873000426E+01  0.11924933225E+02  0.51100000000E-03 0. -1.
        -11    1    4    4    0    0  0.41884430909E+01 -0.21417351266E+02  0.14048195838E+02  0.25953762682E+02  0.51100000000E-03 0.  1.
        -12    1    4    4    0    0 -0.12151200349E+02 -0.18079483599E+01  0.30176748756E+01  0.12650166356E+02  0.00000000000E+00 0.  1.
</event>
<event>
 8    1  0.4964753E-012  0.9118800E+02  0.7816164E-02  0.1184000E+00
        -11   -1    0    0    0    0  0.00000000000E+00  0.00000000000E+00  0.45593999997E+02  0.45594000000E+02  0.51100000000E-03 0. -1.
         11   -1    0    0    0    0 -0.00000000000E+00 -0.00000000000E+00 -0.45593999997E+02  0.45594000000E+02  0.51100000000E-03 0.  1.
         23    2    1    2    0    0  0.35527136788E-14  0.00000000000E+00  0.35527136788E-14  0.91188000000E+02  0.91188000000E+02 0.  0.
    9900012    2    3    3    0    0 -0.23045036802E+02  0.13817977300E+02 -0.30514836658E+02  0.50528862354E+02  0.30000007610E+02 0.  0.
         12    1    3    3    0    0  0.23045036802E+02 -0.13817977300E+02  0.30514836658E+02  0.40659137646E+02  0.00000000000E+00 0. -1.
         11    1    4    4    0    0 -0.60184515541E+01  0.12092766334E+02 -0.25903757035E+01  0.13753792323E+02  0.51100000000E-03 0. -1.
        -11    1    4    4    0    0 -0.17970010971E+00  0.61715908051E+01 -0.10182287262E+02  0.11907972092E+02  0.51100000000E-03 0.  1.
         12    1    4    4    0    0 -0.16846885138E+02 -0.44463798395E+01 -0.17742173692E+02  0.24867097938E+02  0.00000000000E+00 0. -1.
</event>
<event>
 8    1  0.4964753E-012  0.9118800E+02  0.7816164E-02  0.1184000E+00
        -11   -1    0    0    0    0  0.00000000000E+00  0.00000000000E+00  0.45593999997E+02  0.45594000000E+02  0.51100000000E-03 0. -1.
         11   -1    0    0    0    0 -0.00000000000E+00 -0.00000000000E+00 -0.45593999997E+02  0.45594000000E+02  0.51100000000E-03 0.  1.
         23    2    1    2    0    0  0.00000000000E+00  0.35527136788E-14  0.35527136788E-14  0.91188000000E+02  0.91188000000E+02 0.  0.
    9900012    2    3    3    0    0  0.46775407976E+01 -0.26460132446E+02 -0.30514714913E+02  0.50528858061E+02  0.29999994562E+02 0.  0.
         12    1    3    3    0    0 -0.46775407976E+01  0.26460132446E+02  0.30514714913E+02  0.40659141939E+02  0.00000000000E+00 0. -1.
         11    1    4    4    0    0  0.60224981223E+01 -0.85650911731E-02 -0.41814928121E+01  0.73318101034E+01  0.51100000000E-03 0. -1.
        -11    1    4    4    0    0  0.56354213254E+01 -0.19592611436E+02 -0.26468650841E+02  0.33409846962E+02  0.51100000000E-03 0.  1.
        -12    1    4    4    0    0 -0.69803786500E+01 -0.68589559186E+01  0.13542873965E+00  0.97872009959E+01  0.00000000000E+00 0.  1.
</event>
<event>
 8    1  0.4964753E-012  0.9118800E+02  0.7816164E-02  0.1184000E+00
        -11   -1    0    0    0    0  0.00000000000E+00  0.00000000000E+00  0.45593999997E+02  0.45594000000E+02  0.51100000000E-03 0. -1.
         11   -1    0    0    0    0 -0.00000000000E+00 -0.00000000000E+00 -0.45593999997E+02  0.45594000000E+02  0.51100000000E-03 0.  1.
         23    2    1    2    0    0  0.00000000000E+00  0.35527136788E-14  0.00000000000E+00  0.91188000000E+02  0.91188000000E+02 0.  0.
    9900012    2    3    3    0    0  0.22677765639E+02 -0.26850531793E+02 -0.20443413535E+02  0.50528864878E+02  0.30000015282E+02 0.  0.
         12    1    3    3    0    0 -0.22677765639E+02  0.26850531793E+02  0.20443413535E+02  0.40659135122E+02  0.00000000000E+00 0. -1.
         11    1    4    4    0    0  0.10560134844E+02 -0.13974767953E+02 -0.76441359955E+01  0.19111342251E+02  0.51100000000E-03 0. -1.
        -11    1    4    4    0    0  0.15242282498E+02 -0.85332023847E+01 -0.17181482140E+02  0.24501960074E+02  0.51100000000E-03 0.  1.
        -12    1    4    4    0    0 -0.31246517032E+01 -0.43425614552E+01  0.43822046004E+01  0.69155625525E+01  0.00000000000E+00 0.  1.
</event>
<event>
 8    1  0.4964753E-012  0.9118800E+02  0.7816164E-02  0.1184000E+00
        -11   -1    0    0    0    0  0.00000000000E+00  0.00000000000E+00  0.45593999997E+02  0.45594000000E+02  0.51100000000E-03 0. -1.
         11   -1    0    0    0    0 -0.00000000000E+00 -0.00000000000E+00 -0.45593999997E+02  0.45594000000E+02  0.51100000000E-03 0.  1.
         23    2    1    2    0    0  0.00000000000E+00  0.17763568394E-14  0.00000000000E+00  0.91188000000E+02  0.91188000000E+02 0.  0.
    9900012    2    3    3    0    0  0.90107882166E+01 -0.14083725577E+02  0.37062379591E+02  0.50528860666E+02  0.30000002482E+02 0.  0.
        -12    1    3    3    0    0 -0.90107882166E+01  0.14083725577E+02 -0.37062379591E+02  0.40659139334E+02  0.00000000000E+00 0.  1.
         11    1    4    4    0    0  0.21551094058E+01 -0.75617455072E+01  0.60650058411E+01  0.99301957574E+01  0.51100000000E-03 0. -1.
        -11    1    4    4    0    0 -0.22863432366E+01 -0.15147565145E+01 -0.35654661972E+01  0.44982665726E+01  0.51100000000E-03 0.  1.
        -12    1    4    4    0    0  0.91420220475E+01 -0.50072235550E+01  0.34562839947E+02  0.36100398336E+02  0.00000000000E+00 0.  1.
</event>
<event>
 8    1  0.4964753E-012  0.9118800E+02  0.7816164E-02  0.1184000E+00
        -11   -1    0    0    0    0  0.00000000000E+00  0.00000000000E+00  0.45593999997E+02  0.45594000000E+02  0.51100000000E-03 0. -1.
         11   -1    0    0    0    0 -0.00000000000E+00 -0.00000000000E+00 -0.45593999997E+02  0.45594000000E+02  0.51100000000E-03 0.  1.
         23    2    1    2    0    0  0.17763568394E-14  0.35527136788E-14 -0.35527136788E-14  0.91188000000E+02  0.91188000000E+02 0.  0.
    9900012    2    3    3    0    0  0.14072573627E+02  0.26502661140E+02 -0.27436053028E+02  0.50528863490E+02  0.30000011064E+02 0.  0.
         12    1    3    3    0    0 -0.14072573627E+02 -0.26502661140E+02  0.27436053028E+02  0.40659136510E+02  0.00000000000E+00 0. -1.
         11    1    4    4    0    0  0.78356204792E+01  0.32074024982E+01 -0.12330554051E+02  0.14957504556E+02  0.51100000000E-03 0.  1.
        -11    1    4    4    0    0 -0.58129007369E+01  0.35116095301E+01 -0.96040082415E+01  0.11762575867E+02  0.51100000000E-03 0. -1.
         12    1    4    4    0    0  0.12049853884E+02  0.19783649112E+02 -0.55014907357E+01  0.23808783067E+02  0.00000000000E+00 0. -1.
</event>
<event>
 8    1  0.4964753E-012  0.9118800E+02  0.7816164E-02  0.1184000E+00
        -11   -1    0    0    0    0  0.00000000000E+00  0.00000000000E+00  0.45593999997E+02  0.45594000000E+02  0.51100000000E-03 0. -1.
         11   -1    0    0    0    0 -0.00000000000E+00 -0.00000000000E+00 -0.45593999997E+02  0.45594000000E+02  0.51100000000E-03 0.  1.
         23    2    1    2    0    0 -0.17763568394E-14  0.13322676296E-14  0.00000000000E+00  0.91188000000E+02  0.91188000000E+02 0.  0.
    9900012    2    3    3    0    0 -0.45118783845E+01 -0.37376286739E+01  0.40234794985E+02  0.50528860288E+02  0.30000001331E+02 0.  0.
        -12    1    3    3    0    0  0.45118783845E+01  0.37376286739E+01 -0.40234794985E+02  0.40659139712E+02  0.00000000000E+00 0.  1.
         11    1    4    4    0    0 -0.13052696923E+02 -0.58367053123E+01  0.87440424660E+01  0.16760021026E+02  0.51100000000E-03 0. -1.
        -11    1    4    4    0    0  0.44091057561E+01 -0.25713420230E+01  0.20564182244E+02  0.21188147748E+02  0.51100000000E-03 0.  1.
        -12    1    4    4    0    0  0.41317127828E+01  0.46704186614E+01  0.10926570275E+02  0.12580691514E+02  0.00000000000E+00 0.  1.
</event>
<event>
 8    1  0.4964753E-012  0.9118800E+02  0.7816164E-02  0.1184000E+00
        -11   -1    0    0    0    0  0.00000000000E+00  0.00000000000E+00  0.45593999997E+02  0.45594000000E+02  0.51100000000E-03 0.  1.
         11   -1    0    0    0    0 -0.00000000000E+00 -0.00000000000E+00 -0.45593999997E+02  0.45594000000E+02  0.51100000000E-03 0. -1.
         23    2    1    2    0    0  0.00000000000E+00  0.00000000000E+00  0.00000000000E+00  0.91188000000E+02  0.91188000000E+02 0.  0.
    9900012    2    3    3    0    0  0.24831797911E+02  0.31084428755E+02  0.83848465841E+01  0.50528861412E+02  0.30000004748E+02 0.  0.
         12    1    3    3    0    0 -0.24831797911E+02 -0.31084428755E+02 -0.83848465841E+01  0.40659138588E+02  0.00000000000E+00 0. -1.
         11    1    4    4    0    0 -0.55977763206E+00  0.58223000752E+01  0.33506347717E+01  0.67408666207E+01  0.51100000000E-03 0. -1.
        -11    1    4    4    0    0  0.15446392373E+02  0.28810807509E+02  0.17804956811E+01  0.32738720681E+02  0.51100000000E-03 0.  1.
         12    1    4    4    0    0  0.99451831696E+01 -0.35486788297E+01  0.32537161313E+01  0.11049274111E+02  0.00000000000E+00 0. -1.
</event>
<event>
 8    1  0.4964753E-012  0.9118800E+02  0.7816164E-02  0.1184000E+00
        -11   -1    0    0    0    0  0.00000000000E+00  0.00000000000E+00  0.45593999997E+02  0.45594000000E+02  0.51100000000E-03 0. -1.
         11   -1    0    0    0    0 -0.00000000000E+00 -0.00000000000E+00 -0.45593999997E+02  0.45594000000E+02  0.51100000000E-03 0.  1.
         23    2    1    2    0    0 -0.35527136788E-14 -0.35527136788E-14  0.00000000000E+00  0.91188000000E+02  0.91188000000E+02 0.  0.
    9900012    2    3    3    0    0  0.25950894828E+02  0.12259376513E+02 -0.28799733305E+02  0.50528857200E+02  0.29999991944E+02 0.  0.
         12    1    3    3    0    0 -0.25950894828E+02 -0.12259376513E+02  0.28799733305E+02  0.40659142800E+02  0.00000000000E+00 0. -1.
         11    1    4    4    0    0 -0.32069439206E+01 -0.33214757121E+01 -0.23302644137E+01  0.51717330475E+01  0.51100000000E-03 0. -1.
        -11    1    4    4    0    0  0.13523563809E+01 -0.22025652799E+01 -0.59643398514E+01  0.65002701265E+01  0.51100000000E-03 0.  1.
        -12    1    4    4    0    0  0.27805482367E+02  0.17783417505E+02 -0.20505129040E+02  0.38856854026E+02  0.00000000000E+00 0.  1.
</event>
<event>
 8    1  0.4964753E-012  0.9118800E+02  0.7816164E-02  0.1184000E+00
        -11   -1    0    0    0    0  0.00000000000E+00  0.00000000000E+00  0.45593999997E+02  0.45594000000E+02  0.51100000000E-03 0. -1.
         11   -1    0    0    0    0 -0.00000000000E+00 -0.00000000000E+00 -0.45593999997E+02  0.45594000000E+02  0.51100000000E-03 0.  1.
         23    2    1    2    0    0  0.00000000000E+00 -0.22204460493E-15  0.00000000000E+00  0.91188000000E+02  0.91188000000E+02 0.  0.
    9900012    2    3    3    0    0 -0.39122452827E+02  0.10820087549E+01 -0.11019471254E+02  0.50528858286E+02  0.29999995247E+02 0.  0.
        -12    1    3    3    0    0  0.39122452827E+02 -0.10820087549E+01  0.11019471254E+02  0.40659141714E+02  0.00000000000E+00 0.  1.
         11    1    4    4    0    0 -0.26884361832E+02 -0.80981400077E+00 -0.17933970933E+02  0.32327264399E+02  0.51100000000E-03 0. -1.
        -11    1    4    4    0    0 -0.28270030671E+01  0.19445023200E+01 -0.29810839422E+01  0.45453159786E+01  0.51100000000E-03 0.  1.
         12    1    4    4    0    0 -0.94110879279E+01 -0.52679564340E-01  0.98955836209E+01  0.13656277909E+02  0.00000000000E+00 0. -1.
</event>
<event>
 8    1  0.4964753E-012  0.9118800E+02  0.7816164E-02  0.1184000E+00
        -11   -1    0    0    0    0  0.00000000000E+00  0.00000000000E+00  0.45593999997E+02  0.45594000000E+02  0.51100000000E-03 0. -1.
         11   -1    0    0    0    0 -0.00000000000E+00 -0.00000000000E+00 -0.45593999997E+02  0.45594000000E+02  0.51100000000E-03 0.  1.
         23    2    1    2    0    0 -0.35527136788E-14 -0.35527136788E-14  0.17763568394E-14  0.91188000000E+02  0.91188000000E+02 0.  0.
    9900012    2    3    3    0    0 -0.23783248598E+02 -0.31280781767E+02  0.10442013595E+02  0.50528857489E+02  0.29999992824E+02 0.  0.
        -12    1    3    3    0    0  0.23783248598E+02  0.31280781767E+02 -0.10442013595E+02  0.40659142511E+02  0.00000000000E+00 0.  1.
         11    1    4    4    0    0 -0.40061491087E+01 -0.59293573552E+01  0.33150769601E+01  0.78864595884E+01  0.51100000000E-03 0. -1.
        -11    1    4    4    0    0 -0.10496616713E+02  0.36219273503E+01 -0.10096934240E+01  0.11149744447E+02  0.51100000000E-03 0.  1.
        -12    1    4    4    0    0 -0.92804827758E+01 -0.28973351762E+02  0.81366300591E+01  0.31492653454E+02  0.00000000000E+00 0.  1.
</event>
<event>
 8    1  0.4964753E-012  0.9118800E+02  0.7816164E-02  0.1184000E+00
        -11   -1    0    0    0    0  0.00000000000E+00  0.00000000000E+00  0.45593999997E+02  0.45594000000E+02  0.51100000000E-03 0. -1.
         11   -1    0    0    0    0 -0.00000000000E+00 -0.00000000000E+00 -0.45593999997E+02  0.45594000000E+02  0.51100000000E-03 0.  1.
         23    2    1    2    0    0 -0.35527136788E-14  0.88817841970E-15  0.00000000000E+00  0.91188000000E+02  0.91188000000E+02 0.  0.
    9900012    2    3    3    0    0  0.20370350779E+02  0.66113649058E+01  0.34561627298E+02  0.50528838446E+02  0.29999934942E+02 0.  0.
        -12    1    3    3    0    0 -0.20370350779E+02 -0.66113649058E+01 -0.34561627298E+02  0.40659161554E+02  0.00000000000E+00 0.  1.
         11    1    4    4    0    0  0.80030963485E+01  0.44342476168E+01  0.15498018682E+02  0.17997241078E+02  0.51100000000E-03 0. -1.
        -11    1    4    4    0    0  0.23100230697E+01  0.10017273047E+02  0.87403055338E+00  0.10317262018E+02  0.51100000000E-03 0.  1.
         12    1    4    4    0    0  0.10057231361E+02 -0.78401557584E+01  0.18189578063E+02  0.22214335350E+02  0.00000000000E+00 0. -1.
</event>
<event>
 8    1  0.4964753E-012  0.9118800E+02  0.7816164E-02  0.1184000E+00
        -11   -1    0    0    0    0  0.00000000000E+00  0.00000000000E+00  0.45593999997E+02  0.45594000000E+02  0.51100000000E-03 0. -1.
         11   -1    0    0    0    0 -0.00000000000E+00 -0.00000000000E+00 -0.45593999997E+02  0.45594000000E+02  0.51100000000E-03 0.  1.
         23    2    1    2    0    0  0.17763568394E-14  0.00000000000E+00  0.71054273576E-14  0.91188000000E+02  0.91188000000E+02 0.  0.
    9900012    2    3    3    0    0 -0.14616078199E+02  0.10994211192E+02 -0.36313408064E+02  0.50528855557E+02  0.29999986950E+02 0.  0.
         12    1    3    3    0    0  0.14616078199E+02 -0.10994211192E+02  0.36313408064E+02  0.40659144443E+02  0.00000000000E+00 0. -1.
         11    1    4    4    0    0  0.93267757177E+00 -0.32874463165E+01 -0.15857684808E+02  0.16221694069E+02  0.51100000000E-03 0. -1.
        -11    1    4    4    0    0 -0.10021606773E+02  0.21422906594E+01 -0.18045968975E+02  0.20752807234E+02  0.51100000000E-03 0.  1.
         12    1    4    4    0    0 -0.55271489975E+01  0.12139366849E+02 -0.24097542812E+01  0.13554354254E+02  0.00000000000E+00 0. -1.
</event>
<event>
 8    1  0.4964753E-012  0.9118800E+02  0.7816164E-02  0.1184000E+00
        -11   -1    0    0    0    0  0.00000000000E+00  0.00000000000E+00  0.45593999997E+02  0.45594000000E+02  0.51100000000E-03 0. -1.
         11   -1    0    0    0    0 -0.00000000000E+00 -0.00000000000E+00 -0.45593999997E+02  0.45594000000E+02  0.51100000000E-03 0.  1.
         23    2    1    2    0    0 -0.35527136788E-14 -0.35527136788E-14  0.35527136788E-14  0.91188000000E+02  0.91188000000E+02 0.  0.
    9900012    2    3    3    0    0 -0.29414999916E+02 -0.20870379878E+02  0.18770779628E+02  0.50528964791E+02  0.30000318977E+02 0.  0.
        -12    1    3    3    0    0  0.29414999916E+02  0.20870379878E+02 -0.18770779628E+02  0.40659035209E+02  0.00000000000E+00 0.  1.
         11    1    4    4    0    0 -0.84080172125E+01 -0.14343313769E+02  0.12358622597E+02  0.20716200329E+02  0.51100000000E-03 0. -1.
        -11    1    4    4    0    0  0.17737880442E+01 -0.78752553620E+00 -0.37452760640E+01  0.42182476874E+01  0.51100000000E-03 0.  1.
         12    1    4    4    0    0 -0.22780770747E+02 -0.57395405721E+01  0.10157433095E+02  0.25594516774E+02  0.00000000000E+00 0. -1.
</event>
<event>
 8    1  0.4964753E-012  0.9118800E+02  0.7816164E-02  0.1184000E+00
        -11   -1    0    0    0    0  0.00000000000E+00  0.00000000000E+00  0.45593999997E+02  0.45594000000E+02  0.51100000000E-03 0. -1.
         11   -1    0    0    0    0 -0.00000000000E+00 -0.00000000000E+00 -0.45593999997E+02  0.45594000000E+02  0.51100000000E-03 0.  1.
         23    2    1    2    0    0  0.00000000000E+00  0.00000000000E+00  0.00000000000E+00  0.91188000000E+02  0.91188000000E+02 0.  0.
    9900012    2    3    3    0    0  0.27340555437E+02 -0.96234846627E+01  0.28514001517E+02  0.50528859439E+02  0.29999998751E+02 0.  0.
        -12    1    3    3    0    0 -0.27340555437E+02  0.96234846627E+01 -0.28514001517E+02  0.40659140561E+02  0.00000000000E+00 0.  1.
         11    1    4    4    0    0  0.27186430579E+02 -0.10384547602E+02  0.17966205855E+02  0.34201248364E+02  0.51100000000E-03 0. -1.
        -11    1    4    4    0    0  0.19053529546E+01  0.60014261621E+01  0.81639207859E+01  0.10310047949E+02  0.51100000000E-03 0.  1.
        -12    1    4    4    0    0 -0.17512280971E+01 -0.52403632226E+01  0.23838748756E+01  0.60175631260E+01  0.00000000000E+00 0.  1.
</event>
<event>
 8    1  0.4964753E-012  0.9118800E+02  0.7816164E-02  0.1184000E+00
        -11   -1    0    0    0    0  0.00000000000E+00  0.00000000000E+00  0.45593999997E+02  0.45594000000E+02  0.51100000000E-03 0. -1.
         11   -1    0    0    0    0 -0.00000000000E+00 -0.00000000000E+00 -0.45593999997E+02  0.45594000000E+02  0.51100000000E-03 0.  1.
         23    2    1    2    0    0 -0.88817841970E-15 -0.17763568394E-14  0.00000000000E+00  0.91188000000E+02  0.91188000000E+02 0.  0.
    9900012    2    3    3    0    0 -0.30346770615E+00 -0.99871434328E+01  0.39412335205E+02  0.50528839988E+02  0.29999939627E+02 0.  0.
        -12    1    3    3    0    0  0.30346770615E+00  0.99871434328E+01 -0.39412335205E+02  0.40659160012E+02  0.00000000000E+00 0.  1.
         11    1    4    4    0    0 -0.40900205419E+01 -0.33894014000E+01  0.16201602913E+02  0.17050168536E+02  0.51100000000E-03 0. -1.
        -11    1    4    4    0    0  0.10933420711E+02 -0.62180058606E+01  0.23121428461E+02  0.26321165241E+02  0.51100000000E-03 0.  1.
         12    1    4    4    0    0 -0.71468678750E+01 -0.37973617219E+00  0.89303830906E-01  0.71575062108E+01  0.00000000000E+00 0. -1.
</event>
<event>
 8    1  0.4964753E-012  0.9118800E+02  0.7816164E-02  0.1184000E+00
        -11   -1    0    0    0    0  0.00000000000E+00  0.00000000000E+00  0.45593999997E+02  0.45594000000E+02  0.51100000000E-03 0.  1.
         11   -1    0    0    0    0 -0.00000000000E+00 -0.00000000000E+00 -0.45593999997E+02  0.45594000000E+02  0.51100000000E-03 0. -1.
         23    2    1    2    0    0  0.00000000000E+00  0.00000000000E+00  0.17763568394E-14  0.91188000000E+02  0.91188000000E+02 0.  0.
    9900012    2    3    3    0    0 -0.32176570440E+02  0.21940707084E+02 -0.11680733365E+02  0.50528857798E+02  0.29999993764E+02 0.  0.
         12    1    3    3    0    0  0.32176570440E+02 -0.21940707084E+02  0.11680733365E+02  0.40659142202E+02  0.00000000000E+00 0. -1.
         11    1    4    4    0    0 -0.92104784749E+01  0.29939485792E+01 -0.15533548330E+02  0.18305402640E+02  0.51100000000E-03 0. -1.
        -11    1    4    4    0    0 -0.66086466054E+01  0.21649516581E+01 -0.33328815082E+01  0.77116356920E+01  0.51100000000E-03 0.  1.
         12    1    4    4    0    0 -0.16357445360E+02  0.16781806847E+02  0.71856964736E+01  0.24511819466E+02  0.00000000000E+00 0. -1.
</event>
<event>
 8    1  0.4964753E-012  0.9118800E+02  0.7816164E-02  0.1184000E+00
        -11   -1    0    0    0    0  0.00000000000E+00  0.00000000000E+00  0.45593999997E+02  0.45594000000E+02  0.51100000000E-03 0. -1.
         11   -1    0    0    0    0 -0.00000000000E+00 -0.00000000000E+00 -0.45593999997E+02  0.45594000000E+02  0.51100000000E-03 0.  1.
         23    2    1    2    0    0  0.00000000000E+00  0.00000000000E+00  0.00000000000E+00  0.91188000000E+02  0.91188000000E+02 0.  0.
    9900012    2    3    3    0    0  0.23329592975E+02  0.20862300375E+02  0.25954969508E+02  0.50528856779E+02  0.29999990664E+02 0.  0.
        -12    1    3    3    0    0 -0.23329592975E+02 -0.20862300375E+02 -0.25954969508E+02  0.40659143221E+02  0.00000000000E+00 0.  1.
         11    1    4    4    0    0  0.20865740669E+02  0.51180607199E+01  0.19063188729E+02  0.28722444951E+02  0.51100000000E-03 0. -1.
        -11    1    4    4    0    0  0.75967538229E+01  0.11290631913E+02  0.62668032310E+01  0.14982051283E+02  0.51100000000E-03 0.  1.
         12    1    4    4    0    0 -0.51329015171E+01  0.44536077421E+01  0.62497754867E+00  0.68243605445E+01  0.00000000000E+00 0. -1.
</event>
<event>
 8    1  0.4964753E-012  0.9118800E+02  0.7816164E-02  0.1184000E+00
        -11   -1    0    0    0    0  0.00000000000E+00  0.00000000000E+00  0.45593999997E+02  0.45594000000E+02  0.51100000000E-03 0. -1.
         11   -1    0    0    0    0 -0.00000000000E+00 -0.00000000000E+00 -0.45593999997E+02  0.45594000000E+02  0.51100000000E-03 0.  1.
         23    2    1    2    0    0  0.00000000000E+00  0.88817841970E-15  0.00000000000E+00  0.91188000000E+02  0.91188000000E+02 0.  0.
    9900012    2    3    3    0    0  0.16824013843E+02 -0.12477403626E+01  0.36994079169E+02  0.50528853534E+02  0.29999980802E+02 0.  0.
        -12    1    3    3    0    0 -0.16824013843E+02  0.12477403626E+01 -0.36994079169E+02  0.40659146466E+02  0.00000000000E+00 0.  1.
         11    1    4    4    0    0  0.50482650582E+01 -0.78793785981E+01  0.13448850008E+02  0.16384173888E+02  0.51100000000E-03 0. -1.
        -11    1    4    4    0    0  0.16604493977E+02  0.10422058968E+01  0.12298670519E+02  0.20689434747E+02  0.51100000000E-03 0.  1.
        -12    1    4    4    0    0 -0.48287451925E+01  0.55894323387E+01  0.11246558642E+02  0.13455244899E+02  0.00000000000E+00 0.  1.
</event>
<event>
 8    1  0.4964753E-012  0.9118800E+02  0.7816164E-02  0.1184000E+00
        -11   -1    0    0    0    0  0.00000000000E+00  0.00000000000E+00  0.45593999997E+02  0.45594000000E+02  0.51100000000E-03 0. -1.
         11   -1    0    0    0    0 -0.00000000000E+00 -0.00000000000E+00 -0.45593999997E+02  0.45594000000E+02  0.51100000000E-03 0.  1.
         23    2    1    2    0    0  0.00000000000E+00  0.00000000000E+00  0.00000000000E+00  0.91188000000E+02  0.91188000000E+02 0.  0.
    9900012    2    3    3    0    0  0.16951539332E+02 -0.36509485051E+02 -0.57331261005E+01  0.50528856879E+02  0.29999990970E+02 0.  0.
         12    1    3    3    0    0 -0.16951539332E+02  0.36509485051E+02  0.57331261005E+01  0.40659143121E+02  0.00000000000E+00 0. -1.
         11    1    4    4    0    0  0.76637224150E+01 -0.81267967982E+01 -0.43743173186E+00  0.11178945131E+02  0.51100000000E-03 0. -1.
        -11    1    4    4    0    0  0.11289296337E+01 -0.23404640720E+01 -0.11141444919E+02  0.11440456693E+02  0.51100000000E-03 0.  1.
         12    1    4    4    0    0  0.81588872833E+01 -0.26042224181E+02  0.58457505507E+01  0.27909455056E+02  0.00000000000E+00 0. -1.
</event>
<event>
 8    1  0.4964753E-012  0.9118800E+02  0.7816164E-02  0.1184000E+00
        -11   -1    0    0    0    0  0.00000000000E+00  0.00000000000E+00  0.45593999997E+02  0.45594000000E+02  0.51100000000E-03 0. -1.
         11   -1    0    0    0    0 -0.00000000000E+00 -0.00000000000E+00 -0.45593999997E+02  0.45594000000E+02  0.51100000000E-03 0.  1.
         23    2    1    2    0    0  0.00000000000E+00  0.00000000000E+00  0.00000000000E+00  0.91188000000E+02  0.91188000000E+02 0.  0.
    9900012    2    3    3    0    0 -0.27937844650E+02  0.19064662274E+02  0.22565043470E+02  0.50528859599E+02  0.29999999237E+02 0.  0.
        -12    1    3    3    0    0  0.27937844650E+02 -0.19064662274E+02 -0.22565043470E+02  0.40659140401E+02  0.00000000000E+00 0.  1.
         11    1    4    4    0    0 -0.88487971925E+00  0.13242907041E+02  0.79085239271E+01  0.15449995145E+02  0.51100000000E-03 0. -1.
        -11    1    4    4    0    0 -0.11836362309E+02  0.10631411924E+02  0.74972259518E+01  0.17587916007E+02  0.51100000000E-03 0.  1.
        -12    1    4    4    0    0 -0.15216602622E+02 -0.48096566915E+01  0.71592935913E+01  0.17490948447E+02  0.00000000000E+00 0.  1.
</event>
<event>
 8    1  0.4964753E-012  0.9118800E+02  0.7816164E-02  0.1184000E+00
        -11   -1    0    0    0    0  0.00000000000E+00  0.00000000000E+00  0.45593999997E+02  0.45594000000E+02  0.51100000000E-03 0.  1.
         11   -1    0    0    0    0 -0.00000000000E+00 -0.00000000000E+00 -0.45593999997E+02  0.45594000000E+02  0.51100000000E-03 0. -1.
         23    2    1    2    0    0 -0.88817841970E-15  0.00000000000E+00  0.00000000000E+00  0.91188000000E+02  0.91188000000E+02 0.  0.
    9900012    2    3    3    0    0 -0.62431869851E+01 -0.30483809585E+02  0.26171088118E+02  0.50528857315E+02  0.29999992296E+02 0.  0.
        -12    1    3    3    0    0  0.62431869851E+01  0.30483809585E+02 -0.26171088118E+02  0.40659142685E+02  0.00000000000E+00 0.  1.
         11    1    4    4    0    0 -0.26354322527E+01 -0.69763664941E+01  0.71252285609E+00  0.74915206534E+01  0.51100000000E-03 0. -1.
        -11    1    4    4    0    0 -0.21886577723E+01  0.52747338563E+01  0.26991715699E+01  0.63165312889E+01  0.51100000000E-03 0.  1.
         12    1    4    4    0    0 -0.14190969601E+01 -0.28782176948E+02  0.22759393692E+02  0.36720805373E+02  0.00000000000E+00 0. -1.
</event>
<event>
 8    1  0.8540302E-012  0.9118800E+02  0.7816164E-02  0.1184000E+00
        -11   -1    0    0    0    0  0.00000000000E+00  0.00000000000E+00  0.45593999997E+02  0.45594000000E+02  0.51100000000E-03 0. -1.
         11   -1    0    0    0    0 -0.00000000000E+00 -0.00000000000E+00 -0.45593999997E+02  0.45594000000E+02  0.51100000000E-03 0.  1.
         23    2    1    2    0    0  0.35527136788E-14  0.00000000000E+00  0.00000000000E+00  0.91188000000E+02  0.91188000000E+02 0.  0.
    9900012    2    3    3    0    0  0.20094948321E+02  0.74886033021E+01 -0.34543886682E+02  0.50528853003E+02  0.29999979188E+02 0.  0.
         12    1    3    3    0    0 -0.20094948321E+02 -0.74886033021E+01  0.34543886682E+02  0.40659146997E+02  0.00000000000E+00 0. -1.
         11    1    4    4    0    0  0.78221244954E+01 -0.32507435964E+00  0.18700217032E+01  0.80491171188E+01  0.51100000000E-03 0. -1.
        -11    1    4    4    0    0  0.12211939833E+02 -0.16557602209E+01 -0.18745167401E+02  0.22433330505E+02  0.51100000000E-03 0.  1.
         12    1    4    4    0    0  0.60883992748E-01  0.94694378827E+01 -0.17668740984E+02  0.20046405379E+02  0.00000000000E+00 0. -1.
</event>
<event>
 8    1  0.4964753E-012  0.9118800E+02  0.7816164E-02  0.1184000E+00
        -11   -1    0    0    0    0  0.00000000000E+00  0.00000000000E+00  0.45593999997E+02  0.45594000000E+02  0.51100000000E-03 0.  1.
         11   -1    0    0    0    0 -0.00000000000E+00 -0.00000000000E+00 -0.45593999997E+02  0.45594000000E+02  0.51100000000E-03 0. -1.
         23    2    1    2    0    0  0.71054273576E-14  0.44408920985E-15  0.00000000000E+00  0.91188000000E+02  0.91188000000E+02 0.  0.
    9900012    2    3    3    0    0  0.31446341218E+02 -0.23920856103E+01  0.25662637535E+02  0.50528863083E+02  0.30000009827E+02 0.  0.
        -12    1    3    3    0    0 -0.31446341218E+02  0.23920856103E+01 -0.25662637535E+02  0.40659136917E+02  0.00000000000E+00 0.  1.
         11    1    4    4    0    0  0.22052099242E+02  0.13538608012E+01  0.13672244599E+01  0.22135883155E+02  0.51100000000E-03 0. -1.
        -11    1    4    4    0    0  0.30270182506E+01 -0.63911725754E+01  0.78776073922E+01  0.10586152505E+02  0.51100000000E-03 0.  1.
        -12    1    4    4    0    0  0.63672237257E+01  0.26452261639E+01  0.16417805683E+02  0.17806827423E+02  0.00000000000E+00 0.  1.
</event>
<event>
 8    1  0.4964753E-012  0.9118800E+02  0.7816164E-02  0.1184000E+00
        -11   -1    0    0    0    0  0.00000000000E+00  0.00000000000E+00  0.45593999997E+02  0.45594000000E+02  0.51100000000E-03 0. -1.
         11   -1    0    0    0    0 -0.00000000000E+00 -0.00000000000E+00 -0.45593999997E+02  0.45594000000E+02  0.51100000000E-03 0.  1.
         23    2    1    2    0    0 -0.17763568394E-14  0.44408920985E-15  0.71054273576E-14  0.91188000000E+02  0.91188000000E+02 0.  0.
    9900012    2    3    3    0    0 -0.11059739901E+02 -0.33251994098E+00  0.39124636946E+02  0.50528860408E+02  0.30000001696E+02 0.  0.
        -12    1    3    3    0    0  0.11059739901E+02  0.33251994098E+00 -0.39124636946E+02  0.40659139592E+02  0.00000000000E+00 0.  1.
         11    1    4    4    0    0 -0.19317591644E+01  0.43550566352E+01  0.23565651588E+02  0.24042423896E+02  0.51100000000E-03 0. -1.
        -11    1    4    4    0    0 -0.44731403313E+00  0.68056348300E+01  0.33191951019E+01  0.75851045919E+01  0.51100000000E-03 0.  1.
        -12    1    4    4    0    0 -0.86806667037E+01 -0.11493211406E+02  0.12239790256E+02  0.18901331920E+02  0.00000000000E+00 0.  1.
</event>
<event>
 8    1  0.4964753E-012  0.9118800E+02  0.7816164E-02  0.1184000E+00
        -11   -1    0    0    0    0  0.00000000000E+00  0.00000000000E+00  0.45593999997E+02  0.45594000000E+02  0.51100000000E-03 0. -1.
         11   -1    0    0    0    0 -0.00000000000E+00 -0.00000000000E+00 -0.45593999997E+02  0.45594000000E+02  0.51100000000E-03 0.  1.
         23    2    1    2    0    0  0.00000000000E+00  0.35527136788E-14  0.35527136788E-14  0.91188000000E+02  0.91188000000E+02 0.  0.
    9900012    2    3    3    0    0 -0.25207732109E+02 -0.24850878410E+02 -0.20004231008E+02  0.50528866044E+02  0.30000018827E+02 0.  0.
         12    1    3    3    0    0  0.25207732109E+02  0.24850878410E+02  0.20004231008E+02  0.40659133956E+02  0.00000000000E+00 0. -1.
         11    1    4    4    0    0 -0.12807294080E+02 -0.11326330531E+02 -0.25537391698E+01  0.17286819516E+02  0.51100000000E-03 0.  1.
        -11    1    4    4    0    0 -0.50504173068E-01 -0.15121090827E+02 -0.58194021701E+01  0.16202326387E+02  0.51100000000E-03 0. -1.
        -12    1    4    4    0    0 -0.12349933856E+02  0.15965429480E+01 -0.11631089668E+02  0.17039720142E+02  0.00000000000E+00 0.  1.
</event>
<event>
 8    1  0.4964753E-012  0.9118800E+02  0.7816164E-02  0.1184000E+00
        -11   -1    0    0    0    0  0.00000000000E+00  0.00000000000E+00  0.45593999997E+02  0.45594000000E+02  0.51100000000E-03 0. -1.
         11   -1    0    0    0    0 -0.00000000000E+00 -0.00000000000E+00 -0.45593999997E+02  0.45594000000E+02  0.51100000000E-03 0.  1.
         23    2    1    2    0    0  0.44408920985E-15  0.17763568394E-14  0.00000000000E+00  0.91188000000E+02  0.91188000000E+02 0.  0.
    9900012    2    3    3    0    0  0.25651037551E+01 -0.11356855035E+02 -0.38956484699E+02  0.50528860638E+02  0.30000002396E+02 0.  0.
         12    1    3    3    0    0 -0.25651037551E+01  0.11356855035E+02  0.38956484699E+02  0.40659139362E+02  0.00000000000E+00 0. -1.
         11    1    4    4    0    0 -0.11816628488E+01 -0.85483308383E+01 -0.30188528082E+02  0.31397731052E+02  0.51100000000E-03 0. -1.
        -11    1    4    4    0    0  0.40272379258E+01 -0.86964870391E+01 -0.91151926912E+01  0.13226271969E+02  0.51100000000E-03 0.  1.
         12    1    4    4    0    0 -0.28047132191E+00  0.58879628420E+01  0.34723607451E+00  0.59048576174E+01  0.00000000000E+00 0. -1.
</event>
<event>
 8    1  0.4964753E-012  0.9118800E+02  0.7816164E-02  0.1184000E+00
        -11   -1    0    0    0    0  0.00000000000E+00  0.00000000000E+00  0.45593999997E+02  0.45594000000E+02  0.51100000000E-03 0. -1.
         11   -1    0    0    0    0 -0.00000000000E+00 -0.00000000000E+00 -0.45593999997E+02  0.45594000000E+02  0.51100000000E-03 0.  1.
         23    2    1    2    0    0  0.00000000000E+00  0.00000000000E+00  0.00000000000E+00  0.91188000000E+02  0.91188000000E+02 0.  0.
    9900012    2    3    3    0    0 -0.32989598849E+02  0.28770036337E+01 -0.23591805155E+02  0.50528879836E+02  0.30000060748E+02 0.  0.
         12    1    3    3    0    0  0.32989598849E+02 -0.28770036337E+01  0.23591805155E+02  0.40659120164E+02  0.00000000000E+00 0. -1.
         11    1    4    4    0    0 -0.25446069043E+02  0.12339534313E+01 -0.17872266221E+02  0.31119816371E+02  0.51100000000E-03 0.  1.
        -11    1    4    4    0    0 -0.12022473933E+02  0.75784132468E+00  0.56555794737E-01  0.12046468435E+02  0.51100000000E-03 0. -1.
         12    1    4    4    0    0  0.44789441277E+01  0.88520887775E+00 -0.57760947278E+01  0.73625950290E+01  0.00000000000E+00 0. -1.
</event>
<event>
 8    1  0.4964753E-012  0.9118800E+02  0.7816164E-02  0.1184000E+00
        -11   -1    0    0    0    0  0.00000000000E+00  0.00000000000E+00  0.45593999997E+02  0.45594000000E+02  0.51100000000E-03 0. -1.
         11   -1    0    0    0    0 -0.00000000000E+00 -0.00000000000E+00 -0.45593999997E+02  0.45594000000E+02  0.51100000000E-03 0.  1.
         23    2    1    2    0    0  0.35527136788E-14  0.35527136788E-14  0.17763568394E-14  0.91188000000E+02  0.91188000000E+02 0.  0.
    9900012    2    3    3    0    0  0.23383933381E+02  0.31729481728E+02  0.99798529722E+01  0.50528858144E+02  0.29999994815E+02 0.  0.
        -12    1    3    3    0    0 -0.23383933381E+02 -0.31729481728E+02 -0.99798529722E+01  0.40659141856E+02  0.00000000000E+00 0.  1.
         11    1    4    4    0    0  0.10159243412E+02 -0.17529765502E+01  0.75198219802E+01  0.12760520223E+02  0.51100000000E-03 0. -1.
        -11    1    4    4    0    0  0.10976443690E+02  0.22130795006E+02  0.64433416558E+01  0.25529807199E+02  0.51100000000E-03 0.  1.
        -12    1    4    4    0    0  0.22482462787E+01  0.11351663273E+02 -0.39833106638E+01  0.12238530722E+02  0.00000000000E+00 0.  1.
</event>
<event>
 8    1  0.4964753E-012  0.9118800E+02  0.7816164E-02  0.1184000E+00
        -11   -1    0    0    0    0  0.00000000000E+00  0.00000000000E+00  0.45593999997E+02  0.45594000000E+02  0.51100000000E-03 0. -1.
         11   -1    0    0    0    0 -0.00000000000E+00 -0.00000000000E+00 -0.45593999997E+02  0.45594000000E+02  0.51100000000E-03 0.  1.
         23    2    1    2    0    0 -0.44408920985E-15  0.35527136788E-14  0.00000000000E+00  0.91188000000E+02  0.91188000000E+02 0.  0.
    9900012    2    3    3    0    0 -0.37965928760E+00  0.19450503071E+02  0.35702937944E+02  0.50528856026E+02  0.29999988377E+02 0.  0.
        -12    1    3    3    0    0  0.37965928760E+00 -0.19450503071E+02 -0.35702937944E+02  0.40659143974E+02  0.00000000000E+00 0.  1.
         11    1    4    4    0    0  0.21482908823E+01  0.79894984263E+01  0.22240070339E+02  0.23729053242E+02  0.51100000000E-03 0. -1.
        -11    1    4    4    0    0  0.57913102410E+01  0.13361291213E+02  0.95302245767E+01  0.17403693801E+02  0.51100000000E-03 0.  1.
        -12    1    4    4    0    0 -0.83192604109E+01 -0.19002865687E+01  0.39326430282E+01  0.93961089827E+01  0.00000000000E+00 0.  1.
</event>
<event>
 8    1  0.4964753E-012  0.9118800E+02  0.7816164E-02  0.1184000E+00
        -11   -1    0    0    0    0  0.00000000000E+00  0.00000000000E+00  0.45593999997E+02  0.45594000000E+02  0.51100000000E-03 0. -1.
         11   -1    0    0    0    0 -0.00000000000E+00 -0.00000000000E+00 -0.45593999997E+02  0.45594000000E+02  0.51100000000E-03 0.  1.
         23    2    1    2    0    0  0.00000000000E+00 -0.35527136788E-14  0.00000000000E+00  0.91188000000E+02  0.91188000000E+02 0.  0.
    9900012    2    3    3    0    0  0.24998141630E+02  0.31020792022E+02  0.81221868390E+01  0.50528849225E+02  0.29999967706E+02 0.  0.
        -12    1    3    3    0    0 -0.24998141630E+02 -0.31020792022E+02 -0.81221868390E+01  0.40659150775E+02  0.00000000000E+00 0.  1.
         11    1    4    4    0    0  0.70579245721E+01  0.27962645502E+01 -0.77342944580E+00  0.76309624602E+01  0.51100000000E-03 0. -1.
        -11    1    4    4    0    0  0.94552233993E+01  0.89269287552E+01 -0.85265294973E+01  0.15549694919E+02  0.51100000000E-03 0.  1.
         12    1    4    4    0    0  0.84849936587E+01  0.19297598717E+02  0.17422145782E+02  0.27348191847E+02  0.00000000000E+00 0. -1.
</event>
<event>
 8    1  0.4964753E-012  0.9118800E+02  0.7816164E-02  0.1184000E+00
        -11   -1    0    0    0    0  0.00000000000E+00  0.00000000000E+00  0.45593999997E+02  0.45594000000E+02  0.51100000000E-03 0. -1.
         11   -1    0    0    0    0 -0.00000000000E+00 -0.00000000000E+00 -0.45593999997E+02  0.45594000000E+02  0.51100000000E-03 0.  1.
         23    2    1    2    0    0  0.00000000000E+00 -0.17763568394E-14  0.35527136788E-14  0.91188000000E+02  0.91188000000E+02 0.  0.
    9900012    2    3    3    0    0 -0.34120211324E+02  0.11282037424E+02 -0.19018197682E+02  0.50528867787E+02  0.30000024126E+02 0.  0.
         12    1    3    3    0    0  0.34120211324E+02 -0.11282037424E+02  0.19018197682E+02  0.40659132213E+02  0.00000000000E+00 0. -1.
         11    1    4    4    0    0  0.70894253477E+00 -0.36455753193E+01 -0.45432193166E+01  0.58680201896E+01  0.51100000000E-03 0. -1.
        -11    1    4    4    0    0 -0.21472884117E+02  0.14210010373E+01 -0.13974323226E+02  0.25659027770E+02  0.51100000000E-03 0.  1.
         12    1    4    4    0    0 -0.13356269742E+02  0.13506611706E+02 -0.50065513983E+00  0.19001819827E+02  0.00000000000E+00 0. -1.
</event>
<event>
 8    1  0.6144145E-012  0.9118800E+02  0.7816164E-02  0.1184000E+00
        -11   -1    0    0    0    0  0.00000000000E+00  0.00000000000E+00  0.45593999997E+02  0.45594000000E+02  0.51100000000E-03 0. -1.
         11   -1    0    0    0    0 -0.00000000000E+00 -0.00000000000E+00 -0.45593999997E+02  0.45594000000E+02  0.51100000000E-03 0.  1.
         23    2    1    2    0    0 -0.17763568394E-14 -0.35527136788E-14  0.35527136788E-14  0.91188000000E+02  0.91188000000E+02 0.  0.
    9900012    2    3    3    0    0  0.13548769117E+02  0.26619681897E+02 -0.27586008954E+02  0.50528874347E+02  0.30000044065E+02 0.  0.
         12    1    3    3    0    0 -0.13548769117E+02 -0.26619681897E+02  0.27586008954E+02  0.40659125653E+02  0.00000000000E+00 0. -1.
         11    1    4    4    0    0 -0.42274545363E+01  0.26875145634E+01 -0.98617406105E+01  0.11061104579E+02  0.51100000000E-03 0. -1.
        -11    1    4    4    0    0  0.98162193814E+01  0.68721061618E+01 -0.16778911813E+02  0.20618338632E+02  0.51100000000E-03 0.  1.
         12    1    4    4    0    0  0.79600042715E+01  0.17060061172E+02 -0.94535653048E+00  0.18849431136E+02  0.00000000000E+00 0. -1.
</event>
<event>
 8    1  0.4964753E-012  0.9118800E+02  0.7816164E-02  0.1184000E+00
        -11   -1    0    0    0    0  0.00000000000E+00  0.00000000000E+00  0.45593999997E+02  0.45594000000E+02  0.51100000000E-03 0.  1.
         11   -1    0    0    0    0 -0.00000000000E+00 -0.00000000000E+00 -0.45593999997E+02  0.45594000000E+02  0.51100000000E-03 0. -1.
         23    2    1    2    0    0  0.35527136788E-14  0.17763568394E-14 -0.35527136788E-14  0.91188000000E+02  0.91188000000E+02 0.  0.
    9900012    2    3    3    0    0  0.31375770292E+02  0.62506933490E+01  0.25092948387E+02  0.50528853581E+02  0.29999980945E+02 0.  0.
        -12    1    3    3    0    0 -0.31375770292E+02 -0.62506933490E+01 -0.25092948387E+02  0.40659146419E+02  0.00000000000E+00 0.  1.
         11    1    4    4    0    0  0.14096924649E+02  0.14156475155E+02  0.16512605704E+02  0.25919012728E+02  0.51100000000E-03 0. -1.
        -11    1    4    4    0    0  0.13376681022E+02 -0.39420129171E+01  0.11725623959E+02  0.18219915436E+02  0.51100000000E-03 0.  1.
        -12    1    4    4    0    0  0.39021646206E+01 -0.39637688893E+01 -0.31452812759E+01  0.63899254173E+01  0.00000000000E+00 0.  1.
</event>
<event>
 8    1  0.4964753E-012  0.9118800E+02  0.7816164E-02  0.1184000E+00
        -11   -1    0    0    0    0  0.00000000000E+00  0.00000000000E+00  0.45593999997E+02  0.45594000000E+02  0.51100000000E-03 0. -1.
         11   -1    0    0    0    0 -0.00000000000E+00 -0.00000000000E+00 -0.45593999997E+02  0.45594000000E+02  0.51100000000E-03 0.  1.
         23    2    1    2    0    0 -0.17763568394E-14 -0.88817841970E-15  0.00000000000E+00  0.91188000000E+02  0.91188000000E+02 0.  0.
    9900012    2    3    3    0    0 -0.10245096078E+02  0.79892617146E+01  0.38527585408E+02  0.50528866539E+02  0.30000020333E+02 0.  0.
        -12    1    3    3    0    0  0.10245096078E+02 -0.79892617146E+01 -0.38527585408E+02  0.40659133461E+02  0.00000000000E+00 0.  1.
         11    1    4    4    0    0 -0.68511400774E+01 -0.40982242735E+01  0.36491889909E+01  0.87778210912E+01  0.51100000000E-03 0. -1.
        -11    1    4    4    0    0  0.48951308319E+01 -0.29740413257E+01  0.78262512836E+01  0.96983213539E+01  0.51100000000E-03 0.  1.
        -12    1    4    4    0    0 -0.82890868330E+01  0.15061527314E+02  0.27052145133E+02  0.32052724094E+02  0.00000000000E+00 0.  1.
</event>
<event>
 8    1  0.4964753E-012  0.9118800E+02  0.7816164E-02  0.1184000E+00
        -11   -1    0    0    0    0  0.00000000000E+00  0.00000000000E+00  0.45593999997E+02  0.45594000000E+02  0.51100000000E-03 0. -1.
         11   -1    0    0    0    0 -0.00000000000E+00 -0.00000000000E+00 -0.45593999997E+02  0.45594000000E+02  0.51100000000E-03 0.  1.
         23    2    1    2    0    0 -0.88817841970E-15  0.17763568394E-14  0.00000000000E+00  0.91188000000E+02  0.91188000000E+02 0.  0.
    9900012    2    3    3    0    0 -0.76925490789E+01  0.13648760143E+02  0.37519352640E+02  0.50528858502E+02  0.29999995904E+02 0.  0.
        -12    1    3    3    0    0  0.76925490789E+01 -0.13648760143E+02 -0.37519352640E+02  0.40659141498E+02  0.00000000000E+00 0.  1.
         11    1    4    4    0    0 -0.12926115669E+01  0.17357213725E+02  0.25157359351E+02  0.30591443946E+02  0.51100000000E-03 0. -1.
        -11    1    4    4    0    0 -0.60309411634E+01 -0.26094838974E+00 -0.10124157500E+01  0.61208930141E+01  0.51100000000E-03 0.  1.
         12    1    4    4    0    0 -0.36899634864E+00 -0.34475051926E+01  0.13374409040E+02  0.13816521542E+02  0.00000000000E+00 0. -1.
</event>
<event>
 8    1  0.4964753E-012  0.9118800E+02  0.7816164E-02  0.1184000E+00
        -11   -1    0    0    0    0  0.00000000000E+00  0.00000000000E+00  0.45593999997E+02  0.45594000000E+02  0.51100000000E-03 0.  1.
         11   -1    0    0    0    0 -0.00000000000E+00 -0.00000000000E+00 -0.45593999997E+02  0.45594000000E+02  0.51100000000E-03 0. -1.
         23    2    1    2    0    0  0.35527136788E-14  0.00000000000E+00  0.00000000000E+00  0.91188000000E+02  0.91188000000E+02 0.  0.
    9900012    2    3    3    0    0  0.29873802434E+02 -0.22024426383E+02 -0.16602597924E+02  0.50528859734E+02  0.29999999647E+02 0.  0.
         12    1    3    3    0    0 -0.29873802434E+02  0.22024426383E+02  0.16602597924E+02  0.40659140266E+02  0.00000000000E+00 0. -1.
         11    1    4    4    0    0 -0.15173649913E+01 -0.93014392321E+01  0.27495105518E+01  0.98172795030E+01  0.51100000000E-03 0. -1.
        -11    1    4    4    0    0  0.80852440044E+01 -0.79551009282E+01 -0.26584867871E+01  0.11649993719E+02  0.51100000000E-03 0.  1.
         12    1    4    4    0    0  0.23305923420E+02 -0.47678862230E+01 -0.16693621689E+02  0.29061586512E+02  0.00000000000E+00 0. -1.
</event>
<event>
 8    1  0.4964753E-012  0.9118800E+02  0.7816164E-02  0.1184000E+00
        -11   -1    0    0    0    0  0.00000000000E+00  0.00000000000E+00  0.45593999997E+02  0.45594000000E+02  0.51100000000E-03 0. -1.
         11   -1    0    0    0    0 -0.00000000000E+00 -0.00000000000E+00 -0.45593999997E+02  0.45594000000E+02  0.51100000000E-03 0.  1.
         23    2    1    2    0    0  0.00000000000E+00 -0.17763568394E-14  0.00000000000E+00  0.91188000000E+02  0.91188000000E+02 0.  0.
    9900012    2    3    3    0    0  0.36695828517E+02  0.15540234258E+02  0.80673927426E+01  0.50528861581E+02  0.30000005260E+02 0.  0.
        -12    1    3    3    0    0 -0.36695828517E+02 -0.15540234258E+02 -0.80673927426E+01  0.40659138419E+02  0.00000000000E+00 0.  1.
         11    1    4    4    0    0  0.74077215279E+01  0.24473751758E+01 -0.77347038682E+01  0.10985883109E+02  0.51100000000E-03 0. -1.
        -11    1    4    4    0    0  0.24660396408E+02  0.56177932024E+01  0.52906933589E+01  0.25839624377E+02  0.51100000000E-03 0.  1.
        -12    1    4    4    0    0  0.46277105811E+01  0.74750658798E+01  0.10511403252E+02  0.13703354095E+02  0.00000000000E+00 0.  1.
</event>
<event>
 8    1  0.4964753E-012  0.9118800E+02  0.7816164E-02  0.1184000E+00
        -11   -1    0    0    0    0  0.00000000000E+00  0.00000000000E+00  0.45593999997E+02  0.45594000000E+02  0.51100000000E-03 0. -1.
         11   -1    0    0    0    0 -0.00000000000E+00 -0.00000000000E+00 -0.45593999997E+02  0.45594000000E+02  0.51100000000E-03 0.  1.
         23    2    1    2    0    0  0.35527136788E-14  0.00000000000E+00  0.71054273576E-14  0.91188000000E+02  0.91188000000E+02 0.  0.
    9900012    2    3    3    0    0 -0.11123821020E+02  0.84978082528E+01 -0.38173473646E+02  0.50528853066E+02  0.29999979380E+02 0.  0.
         12    1    3    3    0    0  0.11123821020E+02 -0.84978082528E+01  0.38173473646E+02  0.40659146934E+02  0.00000000000E+00 0. -1.
         11    1    4    4    0    0  0.52218340785E+00 -0.23782919695E+01 -0.11846184584E+00  0.24378231424E+01  0.51100000000E-03 0. -1.
        -11    1    4    4    0    0  0.73248032897E+01  0.14821269262E+01 -0.55845933112E+01  0.93293690124E+01  0.51100000000E-03 0.  1.
        -12    1    4    4    0    0 -0.18970807717E+02  0.93939732961E+01 -0.32470418489E+02  0.38761660911E+02  0.00000000000E+00 0.  1.
</event>
<event>
 8    1  0.4964753E-012  0.9118800E+02  0.7816164E-02  0.1184000E+00
        -11   -1    0    0    0    0  0.00000000000E+00  0.00000000000E+00  0.45593999997E+02  0.45594000000E+02  0.51100000000E-03 0. -1.
         11   -1    0    0    0    0 -0.00000000000E+00 -0.00000000000E+00 -0.45593999997E+02  0.45594000000E+02  0.51100000000E-03 0.  1.
         23    2    1    2    0    0 -0.88817841970E-15  0.00000000000E+00  0.00000000000E+00  0.91188000000E+02  0.91188000000E+02 0.  0.
    9900012    2    3    3    0    0 -0.63361792186E+01 -0.13364723344E+02  0.37873506618E+02  0.50528862027E+02  0.30000006616E+02 0.  0.
        -12    1    3    3    0    0  0.63361792186E+01  0.13364723344E+02 -0.37873506618E+02  0.40659137973E+02  0.00000000000E+00 0.  1.
         11    1    4    4    0    0 -0.15038068736E+02  0.71320786759E+00  0.10619308014E+02  0.18423405758E+02  0.51100000000E-03 0. -1.
        -11    1    4    4    0    0  0.18627019520E+01 -0.83144038505E+00  0.38392868121E+01  0.43475366775E+01  0.51100000000E-03 0.  1.
         12    1    4    4    0    0  0.68391875652E+01 -0.13246490827E+02  0.23414911793E+02  0.27757919591E+02  0.00000000000E+00 0. -1.
</event>
<event>
 8    1  0.4964753E-012  0.9118800E+02  0.7816164E-02  0.1184000E+00
        -11   -1    0    0    0    0  0.00000000000E+00  0.00000000000E+00  0.45593999997E+02  0.45594000000E+02  0.51100000000E-03 0. -1.
         11   -1    0    0    0    0 -0.00000000000E+00 -0.00000000000E+00 -0.45593999997E+02  0.45594000000E+02  0.51100000000E-03 0.  1.
         23    2    1    2    0    0  0.00000000000E+00 -0.35527136788E-14  0.71054273576E-14  0.91188000000E+02  0.91188000000E+02 0.  0.
    9900012    2    3    3    0    0 -0.13669166315E+02  0.23234429228E+02 -0.30438160542E+02  0.50528850642E+02  0.29999972012E+02 0.  0.
         12    1    3    3    0    0  0.13669166315E+02 -0.23234429228E+02  0.30438160542E+02  0.40659149358E+02  0.00000000000E+00 0. -1.
         11    1    4    4    0    0 -0.13691105374E+02  0.13497448436E+02 -0.20804370856E+02  0.28327536561E+02  0.51100000000E-03 0. -1.
        -11    1    4    4    0    0 -0.46228157361E+01  0.33734015952E+01  0.36279962868E+01  0.67758852537E+01  0.51100000000E-03 0.  1.
        -12    1    4    4    0    0  0.46447547952E+01  0.63635791968E+01 -0.13261785973E+02  0.15425428827E+02  0.00000000000E+00 0.  1.
</event>
<event>
 8    1  0.4964753E-012  0.9118800E+02  0.7816164E-02  0.1184000E+00
        -11   -1    0    0    0    0  0.00000000000E+00  0.00000000000E+00  0.45593999997E+02  0.45594000000E+02  0.51100000000E-03 0. -1.
         11   -1    0    0    0    0 -0.00000000000E+00 -0.00000000000E+00 -0.45593999997E+02  0.45594000000E+02  0.51100000000E-03 0.  1.
         23    2    1    2    0    0  0.88817841970E-15 -0.44408920985E-15  0.00000000000E+00  0.91188000000E+02  0.91188000000E+02 0.  0.
    9900012    2    3    3    0    0 -0.61656056992E+01 -0.24423172063E+01 -0.40114660984E+02  0.50528860402E+02  0.30000001678E+02 0.  0.
         12    1    3    3    0    0  0.61656056992E+01  0.24423172063E+01  0.40114660984E+02  0.40659139598E+02  0.00000000000E+00 0. -1.
         11    1    4    4    0    0 -0.32576715957E+01 -0.63102272284E+01 -0.22369184463E+01  0.74454816027E+01  0.51100000000E-03 0. -1.
        -11    1    4    4    0    0  0.21312335176E+01 -0.72625525677E+01 -0.20396888115E+02  0.21755915773E+02  0.51100000000E-03 0.  1.
        -12    1    4    4    0    0 -0.50391676212E+01  0.11130462590E+02 -0.17480854423E+02  0.21327463026E+02  0.00000000000E+00 0.  1.
</event>
<event>
 8    1  0.4964753E-012  0.9118800E+02  0.7816164E-02  0.1184000E+00
        -11   -1    0    0    0    0  0.00000000000E+00  0.00000000000E+00  0.45593999997E+02  0.45594000000E+02  0.51100000000E-03 0. -1.
         11   -1    0    0    0    0 -0.00000000000E+00 -0.00000000000E+00 -0.45593999997E+02  0.45594000000E+02  0.51100000000E-03 0.  1.
         23    2    1    2    0    0 -0.17763568394E-14  0.00000000000E+00  0.00000000000E+00  0.91188000000E+02  0.91188000000E+02 0.  0.
    9900012    2    3    3    0    0  0.88654113515E+01  0.60674784830E+01  0.39214202575E+02  0.50528886665E+02  0.30000081508E+02 0.  0.
        -12    1    3    3    0    0 -0.88654113515E+01 -0.60674784830E+01 -0.39214202575E+02  0.40659113335E+02  0.00000000000E+00 0.  1.
         11    1    4    4    0    0 -0.47907101013E+01  0.65832179750E+01  0.56647389624E+01  0.99186153244E+01  0.51100000000E-03 0. -1.
        -11    1    4    4    0    0 -0.37421754910E+01 -0.18232848936E+01  0.13015015869E+02  0.13664511830E+02  0.51100000000E-03 0.  1.
        -12    1    4    4    0    0  0.17398296944E+02  0.13075454016E+01  0.20534447743E+02  0.26945759511E+02  0.00000000000E+00 0.  1.
</event>
<event>
 8    1  0.4964753E-012  0.9118800E+02  0.7816164E-02  0.1184000E+00
        -11   -1    0    0    0    0  0.00000000000E+00  0.00000000000E+00  0.45593999997E+02  0.45594000000E+02  0.51100000000E-03 0. -1.
         11   -1    0    0    0    0 -0.00000000000E+00 -0.00000000000E+00 -0.45593999997E+02  0.45594000000E+02  0.51100000000E-03 0.  1.
         23    2    1    2    0    0  0.35527136788E-14  0.00000000000E+00  0.00000000000E+00  0.91188000000E+02  0.91188000000E+02 0.  0.
    9900012    2    3    3    0    0 -0.21165418841E+02  0.11224436761E+01  0.34697709827E+02  0.50528857095E+02  0.29999991626E+02 0.  0.
        -12    1    3    3    0    0  0.21165418841E+02 -0.11224436761E+01 -0.34697709827E+02  0.40659142905E+02  0.00000000000E+00 0.  1.
         11    1    4    4    0    0  0.66146034902E+01 -0.28303497537E+00  0.97566769043E+01  0.11790921618E+02  0.51100000000E-03 0. -1.
        -11    1    4    4    0    0 -0.13209794002E+02  0.27467718566E+01  0.18127247561E+02  0.22597356429E+02  0.51100000000E-03 0.  1.
        -12    1    4    4    0    0 -0.14570228329E+02 -0.13412932051E+01  0.68137853624E+01  0.16140579047E+02  0.00000000000E+00 0.  1.
</event>
<event>
 8    1  0.4964753E-012  0.9118800E+02  0.7816164E-02  0.1184000E+00
        -11   -1    0    0    0    0  0.00000000000E+00  0.00000000000E+00  0.45593999997E+02  0.45594000000E+02  0.51100000000E-03 0. -1.
         11   -1    0    0    0    0 -0.00000000000E+00 -0.00000000000E+00 -0.45593999997E+02  0.45594000000E+02  0.51100000000E-03 0.  1.
         23    2    1    2    0    0  0.00000000000E+00 -0.88817841970E-15  0.71054273576E-14  0.91188000000E+02  0.91188000000E+02 0.  0.
    9900012    2    3    3    0    0 -0.95552994279E+01  0.62613342557E+01 -0.39021228728E+02  0.50528876236E+02  0.30000049806E+02 0.  0.
         12    1    3    3    0    0  0.95552994279E+01 -0.62613342557E+01  0.39021228728E+02  0.40659123764E+02  0.00000000000E+00 0. -1.
         11    1    4    4    0    0  0.40256207368E+01  0.65636896799E+01 -0.63161925235E+01  0.99590126412E+01  0.51100000000E-03 0. -1.
        -11    1    4    4    0    0 -0.49472199433E+01  0.92566587497E+01 -0.10178187323E+02  0.14620404024E+02  0.51100000000E-03 0.  1.
         12    1    4    4    0    0 -0.86337002215E+01 -0.95590141739E+01 -0.22526848882E+02  0.25949459571E+02  0.00000000000E+00 0. -1.
</event>
<event>
 8    1  0.4964753E-012  0.9118800E+02  0.7816164E-02  0.1184000E+00
        -11   -1    0    0    0    0  0.00000000000E+00  0.00000000000E+00  0.45593999997E+02  0.45594000000E+02  0.51100000000E-03 0. -1.
         11   -1    0    0    0    0 -0.00000000000E+00 -0.00000000000E+00 -0.45593999997E+02  0.45594000000E+02  0.51100000000E-03 0.  1.
         23    2    1    2    0    0  0.17763568394E-14 -0.71054273576E-14  0.35527136788E-14  0.91188000000E+02  0.91188000000E+02 0.  0.
    9900012    2    3    3    0    0  0.93775737603E+01 -0.37890918395E+02  0.11380020175E+02  0.50528862704E+02  0.30000008675E+02 0.  0.
        -12    1    3    3    0    0 -0.93775737603E+01  0.37890918395E+02 -0.11380020175E+02  0.40659137296E+02  0.00000000000E+00 0.  1.
         11    1    4    4    0    0  0.84416489715E+01 -0.28816846747E+02  0.23816848423E+01  0.30122159895E+02  0.51100000000E-03 0. -1.
        -11    1    4    4    0    0 -0.88521221756E+00 -0.58144233113E+01 -0.38482269574E+01  0.70285112285E+01  0.51100000000E-03 0.  1.
         12    1    4    4    0    0  0.18211370064E+01 -0.32596483372E+01  0.12846562290E+02  0.13378191580E+02  0.00000000000E+00 0. -1.
</event>
<event>
 8    1  0.4964753E-012  0.9118800E+02  0.7816164E-02  0.1184000E+00
        -11   -1    0    0    0    0  0.00000000000E+00  0.00000000000E+00  0.45593999997E+02  0.45594000000E+02  0.51100000000E-03 0. -1.
         11   -1    0    0    0    0 -0.00000000000E+00 -0.00000000000E+00 -0.45593999997E+02  0.45594000000E+02  0.51100000000E-03 0.  1.
         23    2    1    2    0    0  0.88817841970E-15  0.71054273576E-14 -0.17763568394E-14  0.91188000000E+02  0.91188000000E+02 0.  0.
    9900012    2    3    3    0    0 -0.43244986114E+01  0.39611534174E+02  0.80864512678E+01  0.50528860536E+02  0.30000002085E+02 0.  0.
        -12    1    3    3    0    0  0.43244986114E+01 -0.39611534174E+02 -0.80864512678E+01  0.40659139464E+02  0.00000000000E+00 0.  1.
         11    1    4    4    0    0 -0.66143257294E+01  0.63185511222E+01  0.87015496487E+01  0.12624989493E+02  0.51100000000E-03 0. -1.
        -11    1    4    4    0    0  0.94963683196E+01  0.13758989708E+02 -0.28651404639E+01  0.16961716870E+02  0.51100000000E-03 0.  1.
         12    1    4    4    0    0 -0.72065412016E+01  0.19533993344E+02  0.22500420830E+01  0.20942154173E+02  0.00000000000E+00 0. -1.
</event>
<event>
 8    1  0.4964753E-012  0.9118800E+02  0.7816164E-02  0.1184000E+00
        -11   -1    0    0    0    0  0.00000000000E+00  0.00000000000E+00  0.45593999997E+02  0.45594000000E+02  0.51100000000E-03 0. -1.
         11   -1    0    0    0    0 -0.00000000000E+00 -0.00000000000E+00 -0.45593999997E+02  0.45594000000E+02  0.51100000000E-03 0.  1.
         23    2    1    2    0    0 -0.35527136788E-14  0.88817841970E-15  0.00000000000E+00  0.91188000000E+02  0.91188000000E+02 0.  0.
    9900012    2    3    3    0    0 -0.16111991472E+02 -0.69483713376E+01 -0.36678179630E+02  0.50528868253E+02  0.30000025542E+02 0.  0.
         12    1    3    3    0    0  0.16111991472E+02  0.69483713376E+01  0.36678179630E+02  0.40659131747E+02  0.00000000000E+00 0. -1.
         11    1    4    4    0    0 -0.43613545528E+01 -0.56039638363E+01 -0.75121054089E+01  0.10337192663E+02  0.51100000000E-03 0. -1.
        -11    1    4    4    0    0 -0.17559635441E+02 -0.70750410470E+01 -0.16435107136E+02  0.25070096718E+02  0.51100000000E-03 0.  1.
         12    1    4    4    0    0  0.58089985216E+01  0.57306335457E+01 -0.12730967085E+02  0.15121578872E+02  0.00000000000E+00 0. -1.
</event>
<event>
 8    1  0.4964753E-012  0.9118800E+02  0.7816164E-02  0.1184000E+00
        -11   -1    0    0    0    0  0.00000000000E+00  0.00000000000E+00  0.45593999997E+02  0.45594000000E+02  0.51100000000E-03 0. -1.
         11   -1    0    0    0    0 -0.00000000000E+00 -0.00000000000E+00 -0.45593999997E+02  0.45594000000E+02  0.51100000000E-03 0.  1.
         23    2    1    2    0    0  0.00000000000E+00  0.00000000000E+00  0.35527136788E-14  0.91188000000E+02  0.91188000000E+02 0.  0.
    9900012    2    3    3    0    0  0.22495489590E+02 -0.28512296200E+02 -0.18280261958E+02  0.50528855103E+02  0.29999985570E+02 0.  0.
         12    1    3    3    0    0 -0.22495489590E+02  0.28512296200E+02  0.18280261958E+02  0.40659144897E+02  0.00000000000E+00 0. -1.
         11    1    4    4    0    0  0.33903902679E+01  0.33898644740E+01  0.21047542824E+01  0.52360212156E+01  0.51100000000E-03 0. -1.
        -11    1    4    4    0    0  0.45248628284E+01 -0.17018789341E+01  0.17155706751E+01  0.51297132985E+01  0.51100000000E-03 0.  1.
        -12    1    4    4    0    0  0.14580236494E+02 -0.30200281740E+02 -0.22100586916E+02  0.40163120589E+02  0.00000000000E+00 0.  1.
</event>
<event>
 8    1  0.4964753E-012  0.9118800E+02  0.7816164E-02  0.1184000E+00
        -11   -1    0    0    0    0  0.00000000000E+00  0.00000000000E+00  0.45593999997E+02  0.45594000000E+02  0.51100000000E-03 0.  1.
         11   -1    0    0    0    0 -0.00000000000E+00 -0.00000000000E+00 -0.45593999997E+02  0.45594000000E+02  0.51100000000E-03 0. -1.
         23    2    1    2    0    0  0.00000000000E+00  0.00000000000E+00 -0.35527136788E-14  0.91188000000E+02  0.91188000000E+02 0.  0.
    9900012    2    3    3    0    0 -0.30000900163E+02 -0.18226460786E+02 -0.20516058994E+02  0.50528849000E+02  0.29999967022E+02 0.  0.
         12    1    3    3    0    0  0.30000900163E+02  0.18226460786E+02  0.20516058994E+02  0.40659151000E+02  0.00000000000E+00 0. -1.
         11    1    4    4    0    0 -0.63015649608E+01  0.15763186941E+01 -0.71498053080E+01  0.96599284564E+01  0.51100000000E-03 0. -1.
        -11    1    4    4    0    0 -0.13672033029E+02 -0.14494061691E+02 -0.19578025850E+02  0.27933875633E+02  0.51100000000E-03 0.  1.
        -12    1    4    4    0    0 -0.10027302173E+02 -0.53087177894E+01  0.62117721636E+01  0.12935044911E+02  0.00000000000E+00 0.  1.
</event>
<event>
 8    1  0.4964753E-012  0.9118800E+02  0.7816164E-02  0.1184000E+00
        -11   -1    0    0    0    0  0.00000000000E+00  0.00000000000E+00  0.45593999997E+02  0.45594000000E+02  0.51100000000E-03 0. -1.
         11   -1    0    0    0    0 -0.00000000000E+00 -0.00000000000E+00 -0.45593999997E+02  0.45594000000E+02  0.51100000000E-03 0.  1.
         23    2    1    2    0    0 -0.71054273576E-14 -0.88817841970E-15 -0.17763568394E-14  0.91188000000E+02  0.91188000000E+02 0.  0.
    9900012    2    3    3    0    0 -0.37976879764E+02 -0.72609667170E+01 -0.12577861669E+02  0.50528835739E+02  0.29999926712E+02 0.  0.
         12    1    3    3    0    0  0.37976879764E+02  0.72609667170E+01  0.12577861669E+02  0.40659164261E+02  0.00000000000E+00 0. -1.
         11    1    4    4    0    0  0.40869343906E+01 -0.15663828801E+01 -0.23909656182E+01  0.49873143964E+01  0.51100000000E-03 0. -1.
        -11    1    4    4    0    0 -0.95748616072E+01 -0.40938350004E+01 -0.76365351625E+01  0.12913331458E+02  0.51100000000E-03 0.  1.
        -12    1    4    4    0    0 -0.32488952547E+02 -0.16007488365E+01 -0.25503608886E+01  0.32628189884E+02  0.00000000000E+00 0.  1.
</event>
<event>
 8    1  0.4964753E-012  0.9118800E+02  0.7816164E-02  0.1184000E+00
        -11   -1    0    0    0    0  0.00000000000E+00  0.00000000000E+00  0.45593999997E+02  0.45594000000E+02  0.51100000000E-03 0. -1.
         11   -1    0    0    0    0 -0.00000000000E+00 -0.00000000000E+00 -0.45593999997E+02  0.45594000000E+02  0.51100000000E-03 0.  1.
         23    2    1    2    0    0  0.88817841970E-15 -0.17763568394E-14  0.00000000000E+00  0.91188000000E+02  0.91188000000E+02 0.  0.
    9900012    2    3    3    0    0 -0.64132749650E+01  0.11874121460E+02 -0.38354153560E+02  0.50528856483E+02  0.29999989766E+02 0.  0.
         12    1    3    3    0    0  0.64132749650E+01 -0.11874121460E+02  0.38354153560E+02  0.40659143517E+02  0.00000000000E+00 0. -1.
         11    1    4    4    0    0 -0.44917842560E-01  0.89271648190E+01 -0.12224625465E+01  0.90105884524E+01  0.51100000000E-03 0. -1.
        -11    1    4    4    0    0  0.26764150770E+01  0.78418453321E+01 -0.16993922114E+02  0.18906377891E+02  0.51100000000E-03 0.  1.
        -12    1    4    4    0    0 -0.90447721994E+01 -0.48948886911E+01 -0.20137768900E+02  0.22611890140E+02  0.00000000000E+00 0.  1.
</event>
<event>
 8    1  0.4964753E-012  0.9118800E+02  0.7816164E-02  0.1184000E+00
        -11   -1    0    0    0    0  0.00000000000E+00  0.00000000000E+00  0.45593999997E+02  0.45594000000E+02  0.51100000000E-03 0. -1.
         11   -1    0    0    0    0 -0.00000000000E+00 -0.00000000000E+00 -0.45593999997E+02  0.45594000000E+02  0.51100000000E-03 0.  1.
         23    2    1    2    0    0  0.00000000000E+00 -0.35527136788E-14  0.00000000000E+00  0.91188000000E+02  0.91188000000E+02 0.  0.
    9900012    2    3    3    0    0 -0.13092008308E+01 -0.16447210622E+02 -0.37161011824E+02  0.50528861497E+02  0.30000005005E+02 0.  0.
         12    1    3    3    0    0  0.13092008308E+01  0.16447210622E+02  0.37161011824E+02  0.40659138503E+02  0.00000000000E+00 0. -1.
         11    1    4    4    0    0 -0.72221153458E+01 -0.23466515580E+00 -0.95191185425E+01  0.11951051665E+02  0.51100000000E-03 0. -1.
        -11    1    4    4    0    0 -0.40788233064E+01 -0.71629312293E+01 -0.48266390608E+00  0.82569575552E+01  0.51100000000E-03 0.  1.
         12    1    4    4    0    0  0.99917378213E+01 -0.90496142365E+01 -0.27159229375E+02  0.30320852277E+02  0.00000000000E+00 0. -1.
</event>
<event>
 8    1  0.4964753E-012  0.9118800E+02  0.7816164E-02  0.1184000E+00
        -11   -1    0    0    0    0  0.00000000000E+00  0.00000000000E+00  0.45593999997E+02  0.45594000000E+02  0.51100000000E-03 0. -1.
         11   -1    0    0    0    0 -0.00000000000E+00 -0.00000000000E+00 -0.45593999997E+02  0.45594000000E+02  0.51100000000E-03 0.  1.
         23    2    1    2    0    0  0.35527136788E-14  0.88817841970E-15  0.00000000000E+00  0.91188000000E+02  0.91188000000E+02 0.  0.
    9900012    2    3    3    0    0  0.18024624288E+02  0.69615009985E+01 -0.35774529398E+02  0.50528849362E+02  0.29999968122E+02 0.  0.
         12    1    3    3    0    0 -0.18024624288E+02 -0.69615009985E+01  0.35774529398E+02  0.40659150638E+02  0.00000000000E+00 0. -1.
         11    1    4    4    0    0  0.15866890817E+02  0.50854281733E+01 -0.22554470890E+02  0.28041468601E+02  0.51100000000E-03 0. -1.
        -11    1    4    4    0    0  0.73895232626E+01  0.64647848917E+01 -0.11860026492E+02  0.15396711545E+02  0.51100000000E-03 0.  1.
         12    1    4    4    0    0 -0.52317897914E+01 -0.45887120665E+01 -0.13600320162E+01  0.70906692163E+01  0.00000000000E+00 0. -1.
</event>
<event>
 8    1  0.4964753E-012  0.9118800E+02  0.7816164E-02  0.1184000E+00
        -11   -1    0    0    0    0  0.00000000000E+00  0.00000000000E+00  0.45593999997E+02  0.45594000000E+02  0.51100000000E-03 0. -1.
         11   -1    0    0    0    0 -0.00000000000E+00 -0.00000000000E+00 -0.45593999997E+02  0.45594000000E+02  0.51100000000E-03 0.  1.
         23    2    1    2    0    0  0.17763568394E-14  0.00000000000E+00  0.00000000000E+00  0.91188000000E+02  0.91188000000E+02 0.  0.
    9900012    2    3    3    0    0  0.11135686991E+02  0.20040116484E+02  0.33579108325E+02  0.50528852083E+02  0.29999976390E+02 0.  0.
        -12    1    3    3    0    0 -0.11135686991E+02 -0.20040116484E+02 -0.33579108325E+02  0.40659147917E+02  0.00000000000E+00 0.  1.
         11    1    4    4    0    0  0.69985928710E+01  0.18747349352E+01  0.23397864698E+02  0.24493978973E+02  0.51100000000E-03 0. -1.
        -11    1    4    4    0    0  0.66202528713E+01  0.10939968162E+01  0.29267094077E+01  0.73205331317E+01  0.51100000000E-03 0.  1.
         12    1    4    4    0    0 -0.24831587516E+01  0.17071384732E+02  0.72545342202E+01  0.18714339978E+02  0.00000000000E+00 0. -1.
</event>
<event>
 8    1  0.4964753E-012  0.9118800E+02  0.7816164E-02  0.1184000E+00
        -11   -1    0    0    0    0  0.00000000000E+00  0.00000000000E+00  0.45593999997E+02  0.45594000000E+02  0.51100000000E-03 0. -1.
         11   -1    0    0    0    0 -0.00000000000E+00 -0.00000000000E+00 -0.45593999997E+02  0.45594000000E+02  0.51100000000E-03 0.  1.
         23    2    1    2    0    0  0.17763568394E-14  0.35527136788E-14  0.00000000000E+00  0.91188000000E+02  0.91188000000E+02 0.  0.
    9900012    2    3    3    0    0  0.84413872626E+01  0.29446735746E+02 -0.26735740237E+02  0.50528842716E+02  0.29999947919E+02 0.  0.
         12    1    3    3    0    0 -0.84413872626E+01 -0.29446735746E+02  0.26735740237E+02  0.40659157284E+02  0.00000000000E+00 0. -1.
         11    1    4    4    0    0 -0.23353940516E+01  0.12677779525E+01  0.25342838364E+01  0.36720459063E+01  0.51100000000E-03 0. -1.
        -11    1    4    4    0    0  0.33901973958E+01  0.16007198826E+02 -0.25220247707E+01  0.16555496424E+02  0.51100000000E-03 0.  1.
        -12    1    4    4    0    0  0.73865839184E+01  0.12171758968E+02 -0.26747999303E+02  0.30301300385E+02  0.00000000000E+00 0.  1.
</event>
<event>
 8    1  0.4964754E-012  0.9118800E+02  0.7816164E-02  0.1184000E+00
        -11   -1    0    0    0    0  0.00000000000E+00  0.00000000000E+00  0.45593999997E+02  0.45594000000E+02  0.51100000000E-03 0. -1.
         11   -1    0    0    0    0 -0.00000000000E+00 -0.00000000000E+00 -0.45593999997E+02  0.45594000000E+02  0.51100000000E-03 0.  1.
         23    2    1    2    0    0 -0.35527136788E-14 -0.88817841970E-15  0.00000000000E+00  0.91188000000E+02  0.91188000000E+02 0.  0.
    9900012    2    3    3    0    0  0.22756763923E+02 -0.57960505551E+01 -0.33191888524E+02  0.50528856255E+02  0.29999989073E+02 0.  0.
         12    1    3    3    0    0 -0.22756763923E+02  0.57960505551E+01  0.33191888524E+02  0.40659143745E+02  0.00000000000E+00 0. -1.
         11    1    4    4    0    0  0.21962771849E+01  0.41798849098E+01 -0.20010027421E+01  0.51282632116E+01  0.51100000000E-03 0. -1.
        -11    1    4    4    0    0  0.20751390802E+02  0.17095825556E+00 -0.27818668720E+02  0.34706307446E+02  0.51100000000E-03 0.  1.
         12    1    4    4    0    0 -0.19090406361E+00 -0.10146893720E+02 -0.33722170619E+01  0.10694285598E+02  0.00000000000E+00 0. -1.
</event>
<event>
 8    1  0.4964753E-012  0.9118800E+02  0.7816164E-02  0.1184000E+00
        -11   -1    0    0    0    0  0.00000000000E+00  0.00000000000E+00  0.45593999997E+02  0.45594000000E+02  0.51100000000E-03 0. -1.
         11   -1    0    0    0    0 -0.00000000000E+00 -0.00000000000E+00 -0.45593999997E+02  0.45594000000E+02  0.51100000000E-03 0.  1.
         23    2    1    2    0    0 -0.22204460493E-15  0.12212453271E-14  0.00000000000E+00  0.91188000000E+02  0.91188000000E+02 0.  0.
    9900012    2    3    3    0    0  0.13962776959E+01 -0.64738680309E+00  0.40630017857E+02  0.50528842949E+02  0.29999948627E+02 0.  0.
        -12    1    3    3    0    0 -0.13962776959E+01  0.64738680309E+00 -0.40630017857E+02  0.40659157051E+02  0.00000000000E+00 0.  1.
         11    1    4    4    0    0  0.65297391767E+01 -0.37839033931E+01  0.68007090319E+01  0.10158989231E+02  0.51100000000E-03 0. -1.
        -11    1    4    4    0    0 -0.70037810603E+01 -0.79193254847E+01  0.19426324716E+02  0.22116752870E+02  0.51100000000E-03 0.  1.
        -12    1    4    4    0    0  0.18703195796E+01  0.11055842075E+02  0.14402984109E+02  0.18253100847E+02  0.00000000000E+00 0.  1.
</event>
<event>
 8    1  0.4964753E-012  0.9118800E+02  0.7816164E-02  0.1184000E+00
        -11   -1    0    0    0    0  0.00000000000E+00  0.00000000000E+00  0.45593999997E+02  0.45594000000E+02  0.51100000000E-03 0. -1.
         11   -1    0    0    0    0 -0.00000000000E+00 -0.00000000000E+00 -0.45593999997E+02  0.45594000000E+02  0.51100000000E-03 0.  1.
         23    2    1    2    0    0 -0.11102230246E-14  0.00000000000E+00 -0.71054273576E-14  0.91188000000E+02  0.91188000000E+02 0.  0.
    9900012    2    3    3    0    0 -0.14338886970E+01  0.11339385206E+02  0.39019585801E+02  0.50528858719E+02  0.29999996563E+02 0.  0.
        -12    1    3    3    0    0  0.14338886970E+01 -0.11339385206E+02 -0.39019585801E+02  0.40659141281E+02  0.00000000000E+00 0.  1.
         11    1    4    4    0    0  0.43809836901E+01 -0.14056413778E+01  0.13277920060E+02  0.14052473347E+02  0.51100000000E-03 0. -1.
        -11    1    4    4    0    0  0.40575169409E+01  0.14514518855E+01  0.19928452415E+02  0.20389050302E+02  0.51100000000E-03 0.  1.
        -12    1    4    4    0    0 -0.98723893280E+01  0.11293574698E+02  0.58132133258E+01  0.16087335071E+02  0.00000000000E+00 0.  1.
</event>
<event>
 8    1  0.4964753E-012  0.9118800E+02  0.7816164E-02  0.1184000E+00
        -11   -1    0    0    0    0  0.00000000000E+00  0.00000000000E+00  0.45593999997E+02  0.45594000000E+02  0.51100000000E-03 0. -1.
         11   -1    0    0    0    0 -0.00000000000E+00 -0.00000000000E+00 -0.45593999997E+02  0.45594000000E+02  0.51100000000E-03 0.  1.
         23    2    1    2    0    0 -0.35527136788E-14  0.00000000000E+00  0.35527136788E-14  0.91188000000E+02  0.91188000000E+02 0.  0.
    9900012    2    3    3    0    0  0.21818345414E+02 -0.23221219755E+02 -0.25256690946E+02  0.50528859810E+02  0.29999999877E+02 0.  0.
         12    1    3    3    0    0 -0.21818345414E+02  0.23221219755E+02  0.25256690946E+02  0.40659140190E+02  0.00000000000E+00 0. -1.
         11    1    4    4    0    0  0.83422651172E+01 -0.11211465718E+02 -0.26416524312E+02  0.29885165347E+02  0.51100000000E-03 0. -1.
        -11    1    4    4    0    0  0.54886055058E+01 -0.71454704811E+00  0.35907914637E+01  0.65976625769E+01  0.51100000000E-03 0.  1.
        -12    1    4    4    0    0  0.79874747907E+01 -0.11295206989E+02 -0.24309580971E+01  0.14046031886E+02  0.00000000000E+00 0.  1.
</event>
<event>
 8    1  0.4964753E-012  0.9118800E+02  0.7816164E-02  0.1184000E+00
        -11   -1    0    0    0    0  0.00000000000E+00  0.00000000000E+00  0.45593999997E+02  0.45594000000E+02  0.51100000000E-03 0. -1.
         11   -1    0    0    0    0 -0.00000000000E+00 -0.00000000000E+00 -0.45593999997E+02  0.45594000000E+02  0.51100000000E-03 0.  1.
         23    2    1    2    0    0  0.00000000000E+00 -0.71054273576E-14  0.88817841970E-15  0.91188000000E+02  0.91188000000E+02 0.  0.
    9900012    2    3    3    0    0 -0.22370923985E+02 -0.33612376399E+02 -0.47870229319E+01  0.50528859875E+02  0.30000000075E+02 0.  0.
         12    1    3    3    0    0  0.22370923985E+02  0.33612376399E+02  0.47870229319E+01  0.40659140125E+02  0.00000000000E+00 0. -1.
         11    1    4    4    0    0  0.20728392660E+01 -0.25288796229E-01 -0.53245688196E+01  0.57138722004E+01  0.51100000000E-03 0. -1.
        -11    1    4    4    0    0 -0.39114995750E+00 -0.59695926983E+01 -0.49731897155E+01  0.77795662784E+01  0.51100000000E-03 0.  1.
        -12    1    4    4    0    0 -0.24052613294E+02 -0.27617494905E+02  0.55107356032E+01  0.37035421396E+02  0.00000000000E+00 0.  1.
</event>
<event>
 8    1  0.4964753E-012  0.9118800E+02  0.7816164E-02  0.1184000E+00
        -11   -1    0    0    0    0  0.00000000000E+00  0.00000000000E+00  0.45593999997E+02  0.45594000000E+02  0.51100000000E-03 0. -1.
         11   -1    0    0    0    0 -0.00000000000E+00 -0.00000000000E+00 -0.45593999997E+02  0.45594000000E+02  0.51100000000E-03 0.  1.
         23    2    1    2    0    0  0.00000000000E+00  0.17763568394E-14  0.00000000000E+00  0.91188000000E+02  0.91188000000E+02 0.  0.
    9900012    2    3    3    0    0 -0.29040099148E+02  0.92263709688E+01 -0.26920463720E+02  0.50528872529E+02  0.30000038539E+02 0.  0.
         12    1    3    3    0    0  0.29040099148E+02 -0.92263709688E+01  0.26920463720E+02  0.40659127471E+02  0.00000000000E+00 0. -1.
         11    1    4    4    0    0 -0.87116055000E+01 -0.66387933336E+01 -0.86315315884E+01  0.13945213700E+02  0.51100000000E-03 0. -1.
        -11    1    4    4    0    0 -0.12212470826E+01  0.11533058615E+02 -0.37587229170E+01  0.12191426647E+02  0.51100000000E-03 0.  1.
         12    1    4    4    0    0 -0.19107246566E+02  0.43321056872E+01 -0.14530209215E+02  0.24392232182E+02  0.00000000000E+00 0. -1.
</event>
<event>
 8    1  0.4964753E-012  0.9118800E+02  0.7816164E-02  0.1184000E+00
        -11   -1    0    0    0    0  0.00000000000E+00  0.00000000000E+00  0.45593999997E+02  0.45594000000E+02  0.51100000000E-03 0. -1.
         11   -1    0    0    0    0 -0.00000000000E+00 -0.00000000000E+00 -0.45593999997E+02  0.45594000000E+02  0.51100000000E-03 0.  1.
         23    2    1    2    0    0  0.88817841970E-15  0.00000000000E+00  0.00000000000E+00  0.91188000000E+02  0.91188000000E+02 0.  0.
    9900012    2    3    3    0    0  0.65692463777E+01 -0.32657053555E+02  0.23313687920E+02  0.50528853559E+02  0.29999980879E+02 0.  0.
        -12    1    3    3    0    0 -0.65692463777E+01  0.32657053555E+02 -0.23313687920E+02  0.40659146441E+02  0.00000000000E+00 0.  1.
         11    1    4    4    0    0  0.13331565326E+01  0.30993052410E+01  0.31171435232E+01  0.45934282755E+01  0.51100000000E-03 0. -1.
        -11    1    4    4    0    0 -0.72821242037E+01 -0.81935372038E+01  0.46964003677E+01  0.11925584325E+02  0.51100000000E-03 0.  1.
        -12    1    4    4    0    0  0.12518214049E+02 -0.27562821592E+02  0.15500144029E+02  0.34009840958E+02  0.00000000000E+00 0.  1.
</event>
<event>
 8    1  0.4964753E-012  0.9118800E+02  0.7816164E-02  0.1184000E+00
        -11   -1    0    0    0    0  0.00000000000E+00  0.00000000000E+00  0.45593999997E+02  0.45594000000E+02  0.51100000000E-03 0. -1.
         11   -1    0    0    0    0 -0.00000000000E+00 -0.00000000000E+00 -0.45593999997E+02  0.45594000000E+02  0.51100000000E-03 0.  1.
         23    2    1    2    0    0  0.00000000000E+00  0.00000000000E+00  0.26645352591E-14  0.91188000000E+02  0.91188000000E+02 0.  0.
    9900012    2    3    3    0    0  0.32741880820E+02 -0.23456369818E+02 -0.55613083287E+01  0.50528927274E+02  0.30000204940E+02 0.  0.
         12    1    3    3    0    0 -0.32741880820E+02  0.23456369818E+02  0.55613083287E+01  0.40659072726E+02  0.00000000000E+00 0. -1.
         11    1    4    4    0    0  0.12224200788E+02 -0.14009783408E+02 -0.11367938280E+02  0.21793006608E+02  0.51100000000E-03 0. -1.
        -11    1    4    4    0    0  0.22041048615E+02 -0.53901388402E+01  0.16807002437E+01  0.22752717955E+02  0.51100000000E-03 0.  1.
        -12    1    4    4    0    0 -0.15233685831E+01 -0.40564475697E+01  0.41259297072E+01  0.59832027104E+01  0.00000000000E+00 0.  1.
</event>
<event>
 8    1  0.4964753E-012  0.9118800E+02  0.7816164E-02  0.1184000E+00
        -11   -1    0    0    0    0  0.00000000000E+00  0.00000000000E+00  0.45593999997E+02  0.45594000000E+02  0.51100000000E-03 0. -1.
         11   -1    0    0    0    0 -0.00000000000E+00 -0.00000000000E+00 -0.45593999997E+02  0.45594000000E+02  0.51100000000E-03 0.  1.
         23    2    1    2    0    0  0.35527136788E-14  0.00000000000E+00 -0.35527136788E-14  0.91188000000E+02  0.91188000000E+02 0.  0.
    9900012    2    3    3    0    0 -0.14311262851E+02 -0.22907390992E+02  0.30390865180E+02  0.50528862124E+02  0.30000006912E+02 0.  0.
        -12    1    3    3    0    0  0.14311262851E+02  0.22907390992E+02 -0.30390865180E+02  0.40659137876E+02  0.00000000000E+00 0.  1.
         11    1    4    4    0    0 -0.29207925537E+01 -0.14966925018E+02  0.22043984411E+02  0.26804423564E+02  0.51100000000E-03 0. -1.
        -11    1    4    4    0    0 -0.13897912492E+01 -0.11506537019E+02  0.43574514225E+01  0.12382216968E+02  0.51100000000E-03 0.  1.
        -12    1    4    4    0    0 -0.10000679048E+02  0.35660710451E+01  0.39894293462E+01  0.11342221591E+02  0.00000000000E+00 0.  1.
</event>
<event>
 8    1  0.4964753E-012  0.9118800E+02  0.7816164E-02  0.1184000E+00
        -11   -1    0    0    0    0  0.00000000000E+00  0.00000000000E+00  0.45593999997E+02  0.45594000000E+02  0.51100000000E-03 0. -1.
         11   -1    0    0    0    0 -0.00000000000E+00 -0.00000000000E+00 -0.45593999997E+02  0.45594000000E+02  0.51100000000E-03 0.  1.
         23    2    1    2    0    0 -0.17763568394E-14  0.00000000000E+00  0.00000000000E+00  0.91188000000E+02  0.91188000000E+02 0.  0.
    9900012    2    3    3    0    0 -0.90101842032E+01  0.19194778621E+02  0.34692112309E+02  0.50528860780E+02  0.30000002827E+02 0.  0.
        -12    1    3    3    0    0  0.90101842032E+01 -0.19194778621E+02 -0.34692112309E+02  0.40659139220E+02  0.00000000000E+00 0.  1.
         11    1    4    4    0    0 -0.14559777122E+02  0.59607771666E+01  0.17734049590E+02  0.23706844780E+02  0.51100000000E-03 0. -1.
        -11    1    4    4    0    0 -0.28300616165E+01  0.79592057734E+01  0.16751560896E+01  0.86118728209E+01  0.51100000000E-03 0.  1.
         12    1    4    4    0    0  0.83796545350E+01  0.52747956806E+01  0.15282906629E+02  0.18210143180E+02  0.00000000000E+00 0. -1.
</event>
<event>
 8    1  0.4964753E-012  0.9118800E+02  0.7816164E-02  0.1184000E+00
        -11   -1    0    0    0    0  0.00000000000E+00  0.00000000000E+00  0.45593999997E+02  0.45594000000E+02  0.51100000000E-03 0. -1.
         11   -1    0    0    0    0 -0.00000000000E+00 -0.00000000000E+00 -0.45593999997E+02  0.45594000000E+02  0.51100000000E-03 0.  1.
         23    2    1    2    0    0  0.44408920985E-15  0.00000000000E+00  0.00000000000E+00  0.91188000000E+02  0.91188000000E+02 0.  0.
    9900012    2    3    3    0    0 -0.22297448617E+01  0.70328056429E+01 -0.39984163631E+02  0.50528862544E+02  0.30000008190E+02 0.  0.
         12    1    3    3    0    0  0.22297448617E+01 -0.70328056429E+01  0.39984163631E+02  0.40659137456E+02  0.00000000000E+00 0. -1.
         11    1    4    4    0    0 -0.13404812492E+01  0.10634742700E+02 -0.14249445602E+01  0.10813191459E+02  0.51100000000E-03 0. -1.
        -11    1    4    4    0    0 -0.35574517387E+01 -0.34503884250E+01 -0.11468921104E+02  0.12493870285E+02  0.51100000000E-03 0.  1.
        -12    1    4    4    0    0  0.26681881262E+01 -0.15154863200E+00 -0.27090297967E+02  0.27221800800E+02  0.00000000000E+00 0.  1.
</event>
<event>
 8    1  0.4964753E-012  0.9118800E+02  0.7816164E-02  0.1184000E+00
        -11   -1    0    0    0    0  0.00000000000E+00  0.00000000000E+00  0.45593999997E+02  0.45594000000E+02  0.51100000000E-03 0. -1.
         11   -1    0    0    0    0 -0.00000000000E+00 -0.00000000000E+00 -0.45593999997E+02  0.45594000000E+02  0.51100000000E-03 0.  1.
         23    2    1    2    0    0  0.35527136788E-14  0.88817841970E-15  0.71054273576E-14  0.91188000000E+02  0.91188000000E+02 0.  0.
    9900012    2    3    3    0    0 -0.17165350282E+02 -0.78011455230E+01 -0.36023028399E+02  0.50528859615E+02  0.29999999286E+02 0.  0.
         12    1    3    3    0    0  0.17165350282E+02  0.78011455230E+01  0.36023028399E+02  0.40659140385E+02  0.00000000000E+00 0. -1.
         11    1    4    4    0    0  0.38080815724E+01 -0.17165935012E+01 -0.17034731881E+01  0.45110973913E+01  0.51100000000E-03 0. -1.
        -11    1    4    4    0    0 -0.12601026511E+02  0.66783150516E+01 -0.10430680316E+02  0.17668753583E+02  0.51100000000E-03 0.  1.
        -12    1    4    4    0    0 -0.83724053438E+01 -0.12762867073E+02 -0.23888874895E+02  0.28349008641E+02  0.00000000000E+00 0.  1.
</event>
<event>
 8    1  0.4964753E-012  0.9118800E+02  0.7816164E-02  0.1184000E+00
        -11   -1    0    0    0    0  0.00000000000E+00  0.00000000000E+00  0.45593999997E+02  0.45594000000E+02  0.51100000000E-03 0.  1.
         11   -1    0    0    0    0 -0.00000000000E+00 -0.00000000000E+00 -0.45593999997E+02  0.45594000000E+02  0.51100000000E-03 0. -1.
         23    2    1    2    0    0  0.00000000000E+00 -0.65225602697E-15  0.00000000000E+00  0.91188000000E+02  0.91188000000E+02 0.  0.
    9900012    2    3    3    0    0 -0.37557052598E+02 -0.12232687365E+00  0.15576252382E+02  0.50528846025E+02  0.29999957976E+02 0.  0.
         12    1    3    3    0    0  0.37557052598E+02  0.12232687365E+00 -0.15576252382E+02  0.40659153975E+02  0.00000000000E+00 0. -1.
         11    1    4    4    0    0 -0.36237107970E+02  0.84449821977E+00  0.13017814163E+02  0.38513694410E+02  0.51100000000E-03 0. -1.
        -11    1    4    4    0    0 -0.31550273550E+01  0.35522436901E+01  0.47047447182E+01  0.66863484780E+01  0.51100000000E-03 0.  1.
        -12    1    4    4    0    0  0.18350827262E+01 -0.45190687836E+01 -0.21463064994E+01  0.53288031369E+01  0.00000000000E+00 0.  1.
</event>
<event>
 8    1  0.4964753E-012  0.9118800E+02  0.7816164E-02  0.1184000E+00
        -11   -1    0    0    0    0  0.00000000000E+00  0.00000000000E+00  0.45593999997E+02  0.45594000000E+02  0.51100000000E-03 0. -1.
         11   -1    0    0    0    0 -0.00000000000E+00 -0.00000000000E+00 -0.45593999997E+02  0.45594000000E+02  0.51100000000E-03 0.  1.
         23    2    1    2    0    0 -0.35527136788E-14  0.00000000000E+00  0.00000000000E+00  0.91188000000E+02  0.91188000000E+02 0.  0.
    9900012    2    3    3    0    0  0.27829408215E+02 -0.18187065334E+02  0.23407733126E+02  0.50528840182E+02  0.29999940216E+02 0.  0.
        -12    1    3    3    0    0 -0.27829408215E+02  0.18187065334E+02 -0.23407733126E+02  0.40659159818E+02  0.00000000000E+00 0.  1.
         11    1    4    4    0    0  0.31930599531E+01  0.18304390103E+01 -0.24431015013E+01  0.44175653975E+01  0.51100000000E-03 0. -1.
        -11    1    4    4    0    0  0.21538637640E+02 -0.66000293721E+01  0.87776180403E+01  0.24176845903E+02  0.51100000000E-03 0.  1.
         12    1    4    4    0    0  0.30977106216E+01 -0.13417474972E+02  0.17073216587E+02  0.21934428881E+02  0.00000000000E+00 0. -1.
</event>
<event>
 8    1  0.4964753E-012  0.9118800E+02  0.7816164E-02  0.1184000E+00
        -11   -1    0    0    0    0  0.00000000000E+00  0.00000000000E+00  0.45593999997E+02  0.45594000000E+02  0.51100000000E-03 0. -1.
         11   -1    0    0    0    0 -0.00000000000E+00 -0.00000000000E+00 -0.45593999997E+02  0.45594000000E+02  0.51100000000E-03 0.  1.
         23    2    1    2    0    0  0.35527136788E-14  0.00000000000E+00  0.00000000000E+00  0.91188000000E+02  0.91188000000E+02 0.  0.
    9900012    2    3    3    0    0 -0.31537982906E+02 -0.15101094502E+02 -0.20747953378E+02  0.50528868304E+02  0.30000025696E+02 0.  0.
         12    1    3    3    0    0  0.31537982906E+02  0.15101094502E+02  0.20747953378E+02  0.40659131696E+02  0.00000000000E+00 0. -1.
         11    1    4    4    0    0 -0.48547998779E+01 -0.11561114914E+02  0.25911105294E+01  0.12803996015E+02  0.51100000000E-03 0. -1.
        -11    1    4    4    0    0 -0.17414553171E+02 -0.82023529941E+01 -0.15714092281E+02  0.24849103672E+02  0.51100000000E-03 0.  1.
         12    1    4    4    0    0 -0.92686298563E+01  0.46623734062E+01 -0.76249716260E+01  0.12875768617E+02  0.00000000000E+00 0. -1.
</event>
<event>
 8    1  0.4964753E-012  0.9118800E+02  0.7816164E-02  0.1184000E+00
        -11   -1    0    0    0    0  0.00000000000E+00  0.00000000000E+00  0.45593999997E+02  0.45594000000E+02  0.51100000000E-03 0. -1.
         11   -1    0    0    0    0 -0.00000000000E+00 -0.00000000000E+00 -0.45593999997E+02  0.45594000000E+02  0.51100000000E-03 0.  1.
         23    2    1    2    0    0  0.35527136788E-14 -0.22204460493E-14  0.35527136788E-14  0.91188000000E+02  0.91188000000E+02 0.  0.
    9900012    2    3    3    0    0 -0.26559129192E+02  0.37695890114E+01 -0.30554366360E+02  0.50528850373E+02  0.29999971194E+02 0.  0.
         12    1    3    3    0    0  0.26559129192E+02 -0.37695890114E+01  0.30554366360E+02  0.40659149627E+02  0.00000000000E+00 0. -1.
         11    1    4    4    0    0  0.54760252802E+00 -0.12814957088E+01 -0.66026701320E+01  0.67481369957E+01  0.51100000000E-03 0.  1.
        -11    1    4    4    0    0 -0.54420576179E+01 -0.60353131885E+01  0.18268215991E+01  0.83293621494E+01  0.51100000000E-03 0. -1.
        -12    1    4    4    0    0 -0.21664674102E+02  0.11086397909E+02 -0.25778517827E+02  0.35451351228E+02  0.00000000000E+00 0.  1.
</event>
<event>
 8    1  0.4964753E-012  0.9118800E+02  0.7816164E-02  0.1184000E+00
        -11   -1    0    0    0    0  0.00000000000E+00  0.00000000000E+00  0.45593999997E+02  0.45594000000E+02  0.51100000000E-03 0. -1.
         11   -1    0    0    0    0 -0.00000000000E+00 -0.00000000000E+00 -0.45593999997E+02  0.45594000000E+02  0.51100000000E-03 0.  1.
         23    2    1    2    0    0  0.00000000000E+00 -0.44408920985E-15  0.00000000000E+00  0.91188000000E+02  0.91188000000E+02 0.  0.
    9900012    2    3    3    0    0  0.13599480196E+02  0.20143045321E+01 -0.38264366583E+02  0.50528867762E+02  0.30000024049E+02 0.  0.
         12    1    3    3    0    0 -0.13599480196E+02 -0.20143045321E+01  0.38264366583E+02  0.40659132238E+02  0.00000000000E+00 0. -1.
         11    1    4    4    0    0  0.74898867942E+01  0.10283228813E+02 -0.17071794868E+02  0.21290593681E+02  0.51100000000E-03 0. -1.
        -11    1    4    4    0    0  0.48049645250E+00 -0.19301358156E+01 -0.20647763553E+02  0.20743346912E+02  0.51100000000E-03 0.  1.
         12    1    4    4    0    0  0.56290969489E+01 -0.63387884653E+01 -0.54480816194E+00  0.84949271687E+01  0.00000000000E+00 0. -1.
</event>
<event>
 8    1  0.4964753E-012  0.9118800E+02  0.7816164E-02  0.1184000E+00
        -11   -1    0    0    0    0  0.00000000000E+00  0.00000000000E+00  0.45593999997E+02  0.45594000000E+02  0.51100000000E-03 0. -1.
         11   -1    0    0    0    0 -0.00000000000E+00 -0.00000000000E+00 -0.45593999997E+02  0.45594000000E+02  0.51100000000E-03 0.  1.
         23    2    1    2    0    0  0.44408920985E-15 -0.88817841970E-15  0.00000000000E+00  0.91188000000E+02  0.91188000000E+02 0.  0.
    9900012    2    3    3    0    0 -0.20293102318E+01 -0.69290244026E+01 -0.40012946671E+02  0.50528863506E+02  0.30000011112E+02 0.  0.
         12    1    3    3    0    0  0.20293102318E+01  0.69290244026E+01  0.40012946671E+02  0.40659136494E+02  0.00000000000E+00 0. -1.
         11    1    4    4    0    0  0.35178788802E+01 -0.97304556185E+01 -0.13383714301E+02  0.16916886449E+02  0.51100000000E-03 0. -1.
        -11    1    4    4    0    0 -0.78994757914E+01 -0.42611360904E+01 -0.24153250745E+02  0.25767004490E+02  0.51100000000E-03 0.  1.
         12    1    4    4    0    0  0.23522866794E+01  0.70625673063E+01 -0.24759816242E+01  0.78449725673E+01  0.00000000000E+00 0. -1.
</event>
<event>
 8    1  0.4964753E-012  0.9118800E+02  0.7816164E-02  0.1184000E+00
        -11   -1    0    0    0    0  0.00000000000E+00  0.00000000000E+00  0.45593999997E+02  0.45594000000E+02  0.51100000000E-03 0. -1.
         11   -1    0    0    0    0 -0.00000000000E+00 -0.00000000000E+00 -0.45593999997E+02  0.45594000000E+02  0.51100000000E-03 0.  1.
         23    2    1    2    0    0  0.71054273576E-14  0.00000000000E+00  0.35527136788E-14  0.91188000000E+02  0.91188000000E+02 0.  0.
    9900012    2    3    3    0    0 -0.33468170478E+02 -0.12964614100E+02 -0.19104087364E+02  0.50528858249E+02  0.29999995135E+02 0.  0.
         12    1    3    3    0    0  0.33468170478E+02  0.12964614100E+02  0.19104087364E+02  0.40659141751E+02  0.00000000000E+00 0. -1.
         11    1    4    4    0    0 -0.74134393151E+01  0.69361894721E+01 -0.21507299425E+01  0.10377641660E+02  0.51100000000E-03 0. -1.
        -11    1    4    4    0    0 -0.35429051180E-01 -0.21497052987E+01  0.23689478740E+01  0.31991252523E+01  0.51100000000E-03 0.  1.
        -12    1    4    4    0    0 -0.26019302112E+02 -0.17751098273E+02 -0.19322305296E+02  0.36952091337E+02  0.00000000000E+00 0.  1.
</event>
<event>
 8    1  0.4964753E-012  0.9118800E+02  0.7816164E-02  0.1184000E+00
        -11   -1    0    0    0    0  0.00000000000E+00  0.00000000000E+00  0.45593999997E+02  0.45594000000E+02  0.51100000000E-03 0. -1.
         11   -1    0    0    0    0 -0.00000000000E+00 -0.00000000000E+00 -0.45593999997E+02  0.45594000000E+02  0.51100000000E-03 0.  1.
         23    2    1    2    0    0 -0.17763568394E-14 -0.17763568394E-14  0.00000000000E+00  0.91188000000E+02  0.91188000000E+02 0.  0.
    9900012    2    3    3    0    0 -0.10125225851E+02 -0.13981413835E+02  0.36812573822E+02  0.50528859297E+02  0.29999998318E+02 0.  0.
        -12    1    3    3    0    0  0.10125225851E+02  0.13981413835E+02 -0.36812573822E+02  0.40659140703E+02  0.00000000000E+00 0.  1.
         11    1    4    4    0    0 -0.63854571713E+01 -0.10180213179E+02  0.98481963092E+01  0.15536980867E+02  0.51100000000E-03 0. -1.
        -11    1    4    4    0    0  0.31598476762E+00  0.55787118749E+01 -0.57540616252E+00  0.56172026018E+01  0.51100000000E-03 0.  1.
         12    1    4    4    0    0 -0.40557534473E+01 -0.93799125312E+01  0.27539783675E+02  0.29374675828E+02  0.00000000000E+00 0. -1.
</event>
<event>
 8    1  0.4964753E-012  0.9118800E+02  0.7816164E-02  0.1184000E+00
        -11   -1    0    0    0    0  0.00000000000E+00  0.00000000000E+00  0.45593999997E+02  0.45594000000E+02  0.51100000000E-03 0. -1.
         11   -1    0    0    0    0 -0.00000000000E+00 -0.00000000000E+00 -0.45593999997E+02  0.45594000000E+02  0.51100000000E-03 0.  1.
         23    2    1    2    0    0  0.35527136788E-14  0.00000000000E+00 -0.35527136788E-14  0.91188000000E+02  0.91188000000E+02 0.  0.
    9900012    2    3    3    0    0 -0.24245181535E+02  0.20152402396E+02 -0.25675228295E+02  0.50528862060E+02  0.30000006718E+02 0.  0.
         12    1    3    3    0    0  0.24245181535E+02 -0.20152402396E+02  0.25675228295E+02  0.40659137940E+02  0.00000000000E+00 0. -1.
         11    1    4    4    0    0 -0.66350107430E+01 -0.49136718002E+01 -0.68309276557E+01  0.10715834593E+02  0.51100000000E-03 0. -1.
        -11    1    4    4    0    0 -0.16851556961E+02  0.95240498549E+01 -0.85869997677E+01  0.21175907606E+02  0.51100000000E-03 0.  1.
        -12    1    4    4    0    0 -0.75861383094E+00  0.15542024341E+02 -0.10257300871E+02  0.18637119862E+02  0.00000000000E+00 0.  1.
</event>
<event>
 8    1  0.4964753E-012  0.9118800E+02  0.7816164E-02  0.1184000E+00
        -11   -1    0    0    0    0  0.00000000000E+00  0.00000000000E+00  0.45593999997E+02  0.45594000000E+02  0.51100000000E-03 0. -1.
         11   -1    0    0    0    0 -0.00000000000E+00 -0.00000000000E+00 -0.45593999997E+02  0.45594000000E+02  0.51100000000E-03 0.  1.
         23    2    1    2    0    0  0.00000000000E+00 -0.17763568394E-14  0.00000000000E+00  0.91188000000E+02  0.91188000000E+02 0.  0.
    9900012    2    3    3    0    0  0.19925012966E+02  0.14167461846E+02 -0.32487549499E+02  0.50528880613E+02  0.30000063112E+02 0.  0.
         12    1    3    3    0    0 -0.19925012966E+02 -0.14167461846E+02  0.32487549499E+02  0.40659119387E+02  0.00000000000E+00 0. -1.
         11    1    4    4    0    0  0.45352007083E+00  0.14096595566E+01 -0.41892498608E+01  0.44432685242E+01  0.51100000000E-03 0.  1.
        -11    1    4    4    0    0  0.12666097943E+02  0.62171657813E+01  0.20913712710E+01  0.14263836143E+02  0.51100000000E-03 0. -1.
         12    1    4    4    0    0  0.68053949521E+01  0.65406365080E+01 -0.30389670909E+02  0.31821775946E+02  0.00000000000E+00 0. -1.
</event>
<event>
 8    1  0.4964753E-012  0.9118800E+02  0.7816164E-02  0.1184000E+00
        -11   -1    0    0    0    0  0.00000000000E+00  0.00000000000E+00  0.45593999997E+02  0.45594000000E+02  0.51100000000E-03 0. -1.
         11   -1    0    0    0    0 -0.00000000000E+00 -0.00000000000E+00 -0.45593999997E+02  0.45594000000E+02  0.51100000000E-03 0.  1.
         23    2    1    2    0    0  0.00000000000E+00  0.00000000000E+00  0.00000000000E+00  0.91188000000E+02  0.91188000000E+02 0.  0.
    9900012    2    3    3    0    0  0.35560777683E+02  0.48363212083E+01 -0.19110372360E+02  0.50528865184E+02  0.30000016212E+02 0.  0.
         12    1    3    3    0    0 -0.35560777683E+02 -0.48363212083E+01  0.19110372360E+02  0.40659134816E+02  0.00000000000E+00 0. -1.
         11    1    4    4    0    0  0.26484251419E+02 -0.31854017680E+01 -0.69630240897E+01  0.27568932920E+02  0.51100000000E-03 0. -1.
        -11    1    4    4    0    0  0.25410015017E+01 -0.33994318130E+01 -0.81808517925E+01  0.92162444409E+01  0.51100000000E-03 0.  1.
         12    1    4    4    0    0  0.65355247629E+01  0.11421154789E+02 -0.39664964781E+01  0.13743687822E+02  0.00000000000E+00 0. -1.
</event>
<event>
 8    1  0.4964753E-012  0.9118800E+02  0.7816164E-02  0.1184000E+00
        -11   -1    0    0    0    0  0.00000000000E+00  0.00000000000E+00  0.45593999997E+02  0.45594000000E+02  0.51100000000E-03 0. -1.
         11   -1    0    0    0    0 -0.00000000000E+00 -0.00000000000E+00 -0.45593999997E+02  0.45594000000E+02  0.51100000000E-03 0.  1.
         23    2    1    2    0    0 -0.88817841970E-15  0.00000000000E+00  0.71054273576E-14  0.91188000000E+02  0.91188000000E+02 0.  0.
    9900012    2    3    3    0    0 -0.72071914362E+01  0.87113612793E+01  0.39055544822E+02  0.50528843527E+02  0.29999950386E+02 0.  0.
        -12    1    3    3    0    0  0.72071914362E+01 -0.87113612793E+01 -0.39055544822E+02  0.40659156473E+02  0.00000000000E+00 0.  1.
         11    1    4    4    0    0  0.26900972903E+01 -0.40564280942E+01  0.15367668463E+02  0.16120064099E+02  0.51100000000E-03 0. -1.
        -11    1    4    4    0    0  0.28727231529E+01  0.10323517087E+02  0.16144586708E+02  0.19377183067E+02  0.51100000000E-03 0.  1.
        -12    1    4    4    0    0 -0.12770011879E+02  0.24442722860E+01  0.75432896505E+01  0.15031596361E+02  0.00000000000E+00 0.  1.
</event>
<event>
 8    1  0.4964753E-012  0.9118800E+02  0.7816164E-02  0.1184000E+00
        -11   -1    0    0    0    0  0.00000000000E+00  0.00000000000E+00  0.45593999997E+02  0.45594000000E+02  0.51100000000E-03 0. -1.
         11   -1    0    0    0    0 -0.00000000000E+00 -0.00000000000E+00 -0.45593999997E+02  0.45594000000E+02  0.51100000000E-03 0.  1.
         23    2    1    2    0    0  0.17763568394E-14  0.71054273576E-14  0.00000000000E+00  0.91188000000E+02  0.91188000000E+02 0.  0.
    9900012    2    3    3    0    0  0.14973549438E+02  0.33541053849E+02 -0.17434325127E+02  0.50528866110E+02  0.30000019028E+02 0.  0.
         12    1    3    3    0    0 -0.14973549438E+02 -0.33541053849E+02  0.17434325127E+02  0.40659133890E+02  0.00000000000E+00 0. -1.
         11    1    4    4    0    0  0.10142010687E+02  0.79587770838E+01 -0.50881266604E+00  0.12901992251E+02  0.51100000000E-03 0. -1.
        -11    1    4    4    0    0  0.81380006588E+01  0.24289342157E+01 -0.10236600080E+02  0.13300930704E+02  0.51100000000E-03 0.  1.
        -12    1    4    4    0    0 -0.33064619078E+01  0.23153342549E+02 -0.66889123806E+01  0.24325943155E+02  0.00000000000E+00 0.  1.
</event>
<event>
 8    1  0.4964753E-012  0.9118800E+02  0.7816164E-02  0.1184000E+00
        -11   -1    0    0    0    0  0.00000000000E+00  0.00000000000E+00  0.45593999997E+02  0.45594000000E+02  0.51100000000E-03 0. -1.
         11   -1    0    0    0    0 -0.00000000000E+00 -0.00000000000E+00 -0.45593999997E+02  0.45594000000E+02  0.51100000000E-03 0.  1.
         23    2    1    2    0    0  0.17763568394E-14  0.00000000000E+00  0.00000000000E+00  0.91188000000E+02  0.91188000000E+02 0.  0.
    9900012    2    3    3    0    0  0.14635696935E+02  0.23938091680E+02 -0.29426686335E+02  0.50528859248E+02  0.29999998171E+02 0.  0.
         12    1    3    3    0    0 -0.14635696935E+02 -0.23938091680E+02  0.29426686335E+02  0.40659140752E+02  0.00000000000E+00 0. -1.
         11    1    4    4    0    0  0.10170763910E+02  0.16383462816E+02 -0.99129160131E+01  0.21682439819E+02  0.51100000000E-03 0. -1.
        -11    1    4    4    0    0 -0.22084058579E+00  0.12843765519E+02 -0.17082961883E+02  0.21373784649E+02  0.51100000000E-03 0.  1.
        -12    1    4    4    0    0  0.46857736107E+01 -0.52891366555E+01 -0.24308084389E+01  0.74726347802E+01  0.00000000000E+00 0.  1.
</event>
<event>
 8    1  0.4964753E-012  0.9118800E+02  0.7816164E-02  0.1184000E+00
        -11   -1    0    0    0    0  0.00000000000E+00  0.00000000000E+00  0.45593999997E+02  0.45594000000E+02  0.51100000000E-03 0.  1.
         11   -1    0    0    0    0 -0.00000000000E+00 -0.00000000000E+00 -0.45593999997E+02  0.45594000000E+02  0.51100000000E-03 0. -1.
         23    2    1    2    0    0  0.00000000000E+00  0.00000000000E+00  0.13322676296E-14  0.91188000000E+02  0.91188000000E+02 0.  0.
    9900012    2    3    3    0    0 -0.65661267770E+01  0.40046120290E+02 -0.25218722106E+01  0.50528860675E+02  0.30000002509E+02 0.  0.
         12    1    3    3    0    0  0.65661267770E+01 -0.40046120290E+02  0.25218722106E+01  0.40659139325E+02  0.00000000000E+00 0. -1.
         11    1    4    4    0    0 -0.34624859316E+01  0.25910174176E+02 -0.37283974877E+01  0.26405054113E+02  0.51100000000E-03 0. -1.
        -11    1    4    4    0    0  0.21451782978E+01  0.97698446892E+01  0.92148611276E+01  0.13600195625E+02  0.51100000000E-03 0.  1.
        -12    1    4    4    0    0 -0.52488191432E+01  0.43661014254E+01 -0.80083358506E+01  0.10523610937E+02  0.00000000000E+00 0.  1.
</event>
<event>
 8    1  0.4964753E-012  0.9118800E+02  0.7816164E-02  0.1184000E+00
        -11   -1    0    0    0    0  0.00000000000E+00  0.00000000000E+00  0.45593999997E+02  0.45594000000E+02  0.51100000000E-03 0.  1.
         11   -1    0    0    0    0 -0.00000000000E+00 -0.00000000000E+00 -0.45593999997E+02  0.45594000000E+02  0.51100000000E-03 0. -1.
         23    2    1    2    0    0 -0.88817841970E-15  0.35527136788E-14  0.00000000000E+00  0.91188000000E+02  0.91188000000E+02 0.  0.
    9900012    2    3    3    0    0  0.25509667721E+01 -0.31242734302E+02 -0.25894986148E+02  0.50528853603E+02  0.29999981012E+02 0.  0.
         12    1    3    3    0    0 -0.25509667721E+01  0.31242734302E+02  0.25894986148E+02  0.40659146397E+02  0.00000000000E+00 0. -1.
         11    1    4    4    0    0  0.15527928647E+01  0.24004519944E+01 -0.82762561038E+01  0.87561264732E+01  0.51100000000E-03 0. -1.
        -11    1    4    4    0    0  0.79113969111E+01 -0.18451602553E+02 -0.45775905898E+01  0.20591410193E+02  0.51100000000E-03 0.  1.
         12    1    4    4    0    0 -0.69132230036E+01 -0.15191583743E+02 -0.13041139455E+02  0.21181316937E+02  0.00000000000E+00 0. -1.
</event>
<event>
 8    1  0.4964753E-012  0.9118800E+02  0.7816164E-02  0.1184000E+00
        -11   -1    0    0    0    0  0.00000000000E+00  0.00000000000E+00  0.45593999997E+02  0.45594000000E+02  0.51100000000E-03 0. -1.
         11   -1    0    0    0    0 -0.00000000000E+00 -0.00000000000E+00 -0.45593999997E+02  0.45594000000E+02  0.51100000000E-03 0.  1.
         23    2    1    2    0    0  0.66613381478E-15  0.00000000000E+00  0.00000000000E+00  0.91188000000E+02  0.91188000000E+02 0.  0.
    9900012    2    3    3    0    0 -0.11187891149E+01  0.23889593803E+02  0.32881619305E+02  0.50528864872E+02  0.30000015266E+02 0.  0.
        -12    1    3    3    0    0  0.11187891149E+01 -0.23889593803E+02 -0.32881619305E+02  0.40659135128E+02  0.00000000000E+00 0.  1.
         11    1    4    4    0    0 -0.36363348047E+01  0.43916597993E+01  0.30804119969E+01  0.64806284368E+01  0.51100000000E-03 0. -1.
        -11    1    4    4    0    0  0.10516218835E+02  0.90681172312E+01  0.30129138222E+01  0.14209125894E+02  0.51100000000E-03 0.  1.
         12    1    4    4    0    0 -0.79986731453E+01  0.10429816773E+02  0.26788293486E+02  0.29839110542E+02  0.00000000000E+00 0. -1.
</event>
<event>
 8    1  0.4964753E-012  0.9118800E+02  0.7816164E-02  0.1184000E+00
        -11   -1    0    0    0    0  0.00000000000E+00  0.00000000000E+00  0.45593999997E+02  0.45594000000E+02  0.51100000000E-03 0. -1.
         11   -1    0    0    0    0 -0.00000000000E+00 -0.00000000000E+00 -0.45593999997E+02  0.45594000000E+02  0.51100000000E-03 0.  1.
         23    2    1    2    0    0  0.00000000000E+00 -0.35527136788E-14  0.00000000000E+00  0.91188000000E+02  0.91188000000E+02 0.  0.
    9900012    2    3    3    0    0  0.14417101337E+02 -0.18844725754E+02  0.33018158439E+02  0.50528741688E+02  0.29999640834E+02 0.  0.
        -12    1    3    3    0    0 -0.14417101337E+02  0.18844725754E+02 -0.33018158439E+02  0.40659258312E+02  0.00000000000E+00 0.  1.
         11    1    4    4    0    0  0.15037602409E+02 -0.22320706947E+02  0.30267178595E+02  0.40502414066E+02  0.51100000000E-03 0. -1.
        -11    1    4    4    0    0  0.41771365049E+01  0.19032482146E+01  0.14218945027E+01  0.48054768113E+01  0.51100000000E-03 0.  1.
        -12    1    4    4    0    0 -0.47976375773E+01  0.15727329780E+01  0.13290853415E+01  0.52208508107E+01  0.00000000000E+00 0.  1.
</event>
<event>
 8    1  0.4964753E-012  0.9118800E+02  0.7816164E-02  0.1184000E+00
        -11   -1    0    0    0    0  0.00000000000E+00  0.00000000000E+00  0.45593999997E+02  0.45594000000E+02  0.51100000000E-03 0.  1.
         11   -1    0    0    0    0 -0.00000000000E+00 -0.00000000000E+00 -0.45593999997E+02  0.45594000000E+02  0.51100000000E-03 0. -1.
         23    2    1    2    0    0  0.00000000000E+00  0.00000000000E+00  0.00000000000E+00  0.91188000000E+02  0.91188000000E+02 0.  0.
    9900012    2    3    3    0    0 -0.21720226525E+02  0.18572181720E+02 -0.28921811302E+02  0.50528863965E+02  0.30000012507E+02 0.  0.
         12    1    3    3    0    0  0.21720226525E+02 -0.18572181720E+02  0.28921811302E+02  0.40659136035E+02  0.00000000000E+00 0. -1.
         11    1    4    4    0    0 -0.41136365551E+00  0.10100393952E+02 -0.55937937278E+01  0.11553255237E+02  0.51100000000E-03 0. -1.
        -11    1    4    4    0    0 -0.14782204725E+02  0.12352421781E+02 -0.61951659298E+01  0.20235512881E+02  0.51100000000E-03 0.  1.
         12    1    4    4    0    0 -0.65266581440E+01 -0.38806340125E+01 -0.17132851645E+02  0.18740095847E+02  0.00000000000E+00 0. -1.
</event>
<event>
 8    1  0.4964753E-012  0.9118800E+02  0.7816164E-02  0.1184000E+00
        -11   -1    0    0    0    0  0.00000000000E+00  0.00000000000E+00  0.45593999997E+02  0.45594000000E+02  0.51100000000E-03 0. -1.
         11   -1    0    0    0    0 -0.00000000000E+00 -0.00000000000E+00 -0.45593999997E+02  0.45594000000E+02  0.51100000000E-03 0.  1.
         23    2    1    2    0    0  0.00000000000E+00  0.00000000000E+00  0.71054273576E-14  0.91188000000E+02  0.91188000000E+02 0.  0.
    9900012    2    3    3    0    0 -0.12326329377E+02 -0.20791042041E+02  0.32694965465E+02  0.50528848609E+02  0.29999965833E+02 0.  0.
        -12    1    3    3    0    0  0.12326329377E+02  0.20791042041E+02 -0.32694965465E+02  0.40659151391E+02  0.00000000000E+00 0.  1.
         11    1    4    4    0    0  0.25286610375E+00 -0.12871829618E+02  0.18411956977E+02  0.22466599631E+02  0.51100000000E-03 0. -1.
        -11    1    4    4    0    0 -0.45822837196E+01  0.11228856628E+01  0.15239784141E+02  0.15953345017E+02  0.51100000000E-03 0.  1.
        -12    1    4    4    0    0 -0.79969117610E+01 -0.90420980853E+01 -0.95677565344E+00  0.12108903962E+02  0.00000000000E+00 0.  1.
</event>
<event>
 8    1  0.4964753E-012  0.9118800E+02  0.7816164E-02  0.1184000E+00
        -11   -1    0    0    0    0  0.00000000000E+00  0.00000000000E+00  0.45593999997E+02  0.45594000000E+02  0.51100000000E-03 0. -1.
         11   -1    0    0    0    0 -0.00000000000E+00 -0.00000000000E+00 -0.45593999997E+02  0.45594000000E+02  0.51100000000E-03 0.  1.
         23    2    1    2    0    0  0.00000000000E+00 -0.35527136788E-14  0.00000000000E+00  0.91188000000E+02  0.91188000000E+02 0.  0.
    9900012    2    3    3    0    0 -0.13987780100E+01  0.28109934194E+02  0.29343515532E+02  0.50528845015E+02  0.29999954909E+02 0.  0.
        -12    1    3    3    0    0  0.13987780100E+01 -0.28109934194E+02 -0.29343515532E+02  0.40659154985E+02  0.00000000000E+00 0.  1.
         11    1    4    4    0    0 -0.23821881144E+01  0.10802192305E+02  0.24158648555E+01  0.11322481269E+02  0.51100000000E-03 0. -1.
        -11    1    4    4    0    0 -0.69366912014E+01  0.17434677507E+02  0.24621272144E+02  0.30956303185E+02  0.51100000000E-03 0.  1.
        -12    1    4    4    0    0  0.79201013058E+01 -0.12693561841E+00  0.23063785317E+01  0.82500605620E+01  0.00000000000E+00 0.  1.
</event>
<event>
 8    1  0.4964753E-012  0.9118800E+02  0.7816164E-02  0.1184000E+00
        -11   -1    0    0    0    0  0.00000000000E+00  0.00000000000E+00  0.45593999997E+02  0.45594000000E+02  0.51100000000E-03 0. -1.
         11   -1    0    0    0    0 -0.00000000000E+00 -0.00000000000E+00 -0.45593999997E+02  0.45594000000E+02  0.51100000000E-03 0.  1.
         23    2    1    2    0    0  0.00000000000E+00  0.00000000000E+00  0.00000000000E+00  0.91188000000E+02  0.91188000000E+02 0.  0.
    9900012    2    3    3    0    0 -0.32110373701E+02  0.23205138218E+02  0.91438584478E+01  0.50528872043E+02  0.30000037061E+02 0.  0.
        -12    1    3    3    0    0  0.32110373701E+02 -0.23205138218E+02 -0.91438584478E+01  0.40659127957E+02  0.00000000000E+00 0.  1.
         11    1    4    4    0    0 -0.57866007574E+00  0.17149893954E+01  0.28651661196E+01  0.33889841050E+01  0.51100000000E-03 0. -1.
        -11    1    4    4    0    0 -0.35157804823E+02  0.23540606765E+02  0.70755962309E+01  0.42898665121E+02  0.51100000000E-03 0.  1.
         12    1    4    4    0    0  0.36260911978E+01 -0.20504579430E+01 -0.79690390270E+00  0.42412228167E+01  0.00000000000E+00 0. -1.
</event>
<event>
 8    1  0.4964753E-012  0.9118800E+02  0.7816164E-02  0.1184000E+00
        -11   -1    0    0    0    0  0.00000000000E+00  0.00000000000E+00  0.45593999997E+02  0.45594000000E+02  0.51100000000E-03 0. -1.
         11   -1    0    0    0    0 -0.00000000000E+00 -0.00000000000E+00 -0.45593999997E+02  0.45594000000E+02  0.51100000000E-03 0.  1.
         23    2    1    2    0    0  0.00000000000E+00  0.00000000000E+00  0.00000000000E+00  0.91188000000E+02  0.91188000000E+02 0.  0.
    9900012    2    3    3    0    0 -0.22471976222E+02 -0.20618971966E+02  0.26889274575E+02  0.50528870552E+02  0.30000032529E+02 0.  0.
        -12    1    3    3    0    0  0.22471976222E+02  0.20618971966E+02 -0.26889274575E+02  0.40659129448E+02  0.00000000000E+00 0.  1.
         11    1    4    4    0    0 -0.84645153514E+01 -0.11526115407E+02  0.82667757446E+01  0.16517836965E+02  0.51100000000E-03 0. -1.
        -11    1    4    4    0    0 -0.79379575840E+01 -0.10142152196E+02  0.23064573068E+02  0.26416830863E+02  0.51100000000E-03 0.  1.
        -12    1    4    4    0    0 -0.60695032871E+01  0.10492956377E+01 -0.44420742371E+01  0.75942027241E+01  0.00000000000E+00 0.  1.
</event>
<event>
 8    1  0.4964753E-012  0.9118800E+02  0.7816164E-02  0.1184000E+00
        -11   -1    0    0    0    0  0.00000000000E+00  0.00000000000E+00  0.45593999997E+02  0.45594000000E+02  0.51100000000E-03 0.  1.
         11   -1    0    0    0    0 -0.00000000000E+00 -0.00000000000E+00 -0.45593999997E+02  0.45594000000E+02  0.51100000000E-03 0. -1.
         23    2    1    2    0    0 -0.35527136788E-14 -0.35527136788E-14 -0.17763568394E-14  0.91188000000E+02  0.91188000000E+02 0.  0.
    9900012    2    3    3    0    0 -0.29840279092E+02 -0.23172089232E+02 -0.15025908433E+02  0.50528857118E+02  0.29999991694E+02 0.  0.
        -12    1    3    3    0    0  0.29840279092E+02  0.23172089232E+02  0.15025908433E+02  0.40659142882E+02  0.00000000000E+00 0.  1.
         11    1    4    4    0    0 -0.18372207475E+02 -0.12452792922E+02 -0.81254441193E-01  0.22194969286E+02  0.51100000000E-03 0. -1.
        -11    1    4    4    0    0 -0.73666581541E+01  0.21647716106E+01  0.63590076580E+00  0.77044310971E+01  0.51100000000E-03 0.  1.
         12    1    4    4    0    0 -0.41014134630E+01 -0.12884067921E+02 -0.15580554758E+02  0.20629456735E+02  0.00000000000E+00 0. -1.
</event>
<event>
 8    1  0.4964753E-012  0.9118800E+02  0.7816164E-02  0.1184000E+00
        -11   -1    0    0    0    0  0.00000000000E+00  0.00000000000E+00  0.45593999997E+02  0.45594000000E+02  0.51100000000E-03 0. -1.
         11   -1    0    0    0    0 -0.00000000000E+00 -0.00000000000E+00 -0.45593999997E+02  0.45594000000E+02  0.51100000000E-03 0.  1.
         23    2    1    2    0    0  0.00000000000E+00 -0.17763568394E-14  0.00000000000E+00  0.91188000000E+02  0.91188000000E+02 0.  0.
    9900012    2    3    3    0    0  0.84233452287E+01 -0.14850010755E+02  0.36901087365E+02  0.50528858187E+02  0.29999994944E+02 0.  0.
        -12    1    3    3    0    0 -0.84233452287E+01  0.14850010755E+02 -0.36901087365E+02  0.40659141813E+02  0.00000000000E+00 0.  1.
         11    1    4    4    0    0  0.16576021491E+01  0.50860264014E+01  0.13924179264E+02  0.14916369461E+02  0.51100000000E-03 0. -1.
        -11    1    4    4    0    0  0.65905206461E+01 -0.14828739140E+02  0.25253711759E+02  0.30017935051E+02  0.51100000000E-03 0.  1.
        -12    1    4    4    0    0  0.17522243358E+00 -0.51072980163E+01 -0.22768036578E+01  0.55945536752E+01  0.00000000000E+00 0.  1.
</event>
<event>
 8    1  0.4964753E-012  0.9118800E+02  0.7816164E-02  0.1184000E+00
        -11   -1    0    0    0    0  0.00000000000E+00  0.00000000000E+00  0.45593999997E+02  0.45594000000E+02  0.51100000000E-03 0. -1.
         11   -1    0    0    0    0 -0.00000000000E+00 -0.00000000000E+00 -0.45593999997E+02  0.45594000000E+02  0.51100000000E-03 0.  1.
         23    2    1    2    0    0  0.22204460493E-15  0.00000000000E+00  0.00000000000E+00  0.91188000000E+02  0.91188000000E+02 0.  0.
    9900012    2    3    3    0    0 -0.10625901071E+01  0.60809653555E+01 -0.40187787619E+02  0.50528861899E+02  0.30000006228E+02 0.  0.
         12    1    3    3    0    0  0.10625901071E+01 -0.60809653555E+01  0.40187787619E+02  0.40659138101E+02  0.00000000000E+00 0. -1.
         11    1    4    4    0    0  0.10385644362E+02 -0.90073491610E+00 -0.79068715082E+01  0.13084018859E+02  0.51100000000E-03 0. -1.
        -11    1    4    4    0    0  0.31164565972E+00 -0.57342101553E+00 -0.15889720389E+02  0.15903117587E+02  0.51100000000E-03 0.  1.
         12    1    4    4    0    0 -0.11759880128E+02  0.75551212872E+01 -0.16391195722E+02  0.21541725453E+02  0.00000000000E+00 0. -1.
</event>
<event>
 8    1  0.4964753E-012  0.9118800E+02  0.7816164E-02  0.1184000E+00
        -11   -1    0    0    0    0  0.00000000000E+00  0.00000000000E+00  0.45593999997E+02  0.45594000000E+02  0.51100000000E-03 0. -1.
         11   -1    0    0    0    0 -0.00000000000E+00 -0.00000000000E+00 -0.45593999997E+02  0.45594000000E+02  0.51100000000E-03 0.  1.
         23    2    1    2    0    0 -0.35527136788E-14  0.35527136788E-14  0.00000000000E+00  0.91188000000E+02  0.91188000000E+02 0.  0.
    9900012    2    3    3    0    0 -0.30814455346E+02  0.19848887503E+02 -0.17597065929E+02  0.50528859297E+02  0.29999998320E+02 0.  0.
         12    1    3    3    0    0  0.30814455346E+02 -0.19848887503E+02  0.17597065929E+02  0.40659140703E+02  0.00000000000E+00 0. -1.
         11    1    4    4    0    0 -0.44367031190E+01  0.89802608060E+00  0.76888666123E+01  0.89224130957E+01  0.51100000000E-03 0. -1.
        -11    1    4    4    0    0 -0.22971246249E+01  0.41751203774E+01 -0.31115483697E+01  0.56912340688E+01  0.51100000000E-03 0.  1.
        -12    1    4    4    0    0 -0.24080627602E+02  0.14775741045E+02 -0.22174384172E+02  0.35915212133E+02  0.00000000000E+00 0.  1.
</event>
<event>
 8    1  0.4964753E-012  0.9118800E+02  0.7816164E-02  0.1184000E+00
        -11   -1    0    0    0    0  0.00000000000E+00  0.00000000000E+00  0.45593999997E+02  0.45594000000E+02  0.51100000000E-03 0. -1.
         11   -1    0    0    0    0 -0.00000000000E+00 -0.00000000000E+00 -0.45593999997E+02  0.45594000000E+02  0.51100000000E-03 0.  1.
         23    2    1    2    0    0  0.00000000000E+00  0.00000000000E+00  0.00000000000E+00  0.91188000000E+02  0.91188000000E+02 0.  0.
    9900012    2    3    3    0    0  0.15775172648E+02  0.17675060703E+02  0.33043939728E+02  0.50528858400E+02  0.29999995594E+02 0.  0.
        -12    1    3    3    0    0 -0.15775172648E+02 -0.17675060703E+02 -0.33043939728E+02  0.40659141600E+02  0.00000000000E+00 0.  1.
         11    1    4    4    0    0  0.61523719342E+01  0.12371730312E+02  0.13828469250E+02  0.19548349122E+02  0.51100000000E-03 0. -1.
        -11    1    4    4    0    0  0.23046368426E+01  0.21423652594E+01  0.22234704459E+02  0.22456249966E+02  0.51100000000E-03 0.  1.
        -12    1    4    4    0    0  0.73181638709E+01  0.31609651312E+01 -0.30192339812E+01  0.85242593130E+01  0.00000000000E+00 0.  1.
</event>
<event>
 8    1  0.4964753E-012  0.9118800E+02  0.7816164E-02  0.1184000E+00
        -11   -1    0    0    0    0  0.00000000000E+00  0.00000000000E+00  0.45593999997E+02  0.45594000000E+02  0.51100000000E-03 0. -1.
         11   -1    0    0    0    0 -0.00000000000E+00 -0.00000000000E+00 -0.45593999997E+02  0.45594000000E+02  0.51100000000E-03 0.  1.
         23    2    1    2    0    0  0.88817841970E-15  0.00000000000E+00  0.71054273576E-14  0.91188000000E+02  0.91188000000E+02 0.  0.
    9900012    2    3    3    0    0 -0.71410624828E+01 -0.17892758023E+02 -0.35805296235E+02  0.50528870625E+02  0.30000032751E+02 0.  0.
         12    1    3    3    0    0  0.71410624828E+01  0.17892758023E+02  0.35805296235E+02  0.40659129375E+02  0.00000000000E+00 0. -1.
         11    1    4    4    0    0 -0.13974886430E+02 -0.16286363980E+02 -0.15203529103E+02  0.26300007602E+02  0.51100000000E-03 0. -1.
        -11    1    4    4    0    0  0.59081878973E+01 -0.53868172756E+01 -0.17541720719E+02  0.19277874640E+02  0.51100000000E-03 0.  1.
        -12    1    4    4    0    0  0.92563604989E+00  0.37804232328E+01 -0.30600464133E+01  0.49509883829E+01  0.00000000000E+00 0.  1.
</event>
<event>
 8    1  0.4964753E-012  0.9118800E+02  0.7816164E-02  0.1184000E+00
        -11   -1    0    0    0    0  0.00000000000E+00  0.00000000000E+00  0.45593999997E+02  0.45594000000E+02  0.51100000000E-03 0. -1.
         11   -1    0    0    0    0 -0.00000000000E+00 -0.00000000000E+00 -0.45593999997E+02  0.45594000000E+02  0.51100000000E-03 0.  1.
         23    2    1    2    0    0  0.00000000000E+00  0.00000000000E+00  0.00000000000E+00  0.91188000000E+02  0.91188000000E+02 0.  0.
    9900012    2    3    3    0    0  0.16207456730E+02 -0.89124031181E+01  0.36208467957E+02  0.50528859149E+02  0.29999997868E+02 0.  0.
        -12    1    3    3    0    0 -0.16207456730E+02  0.89124031181E+01 -0.36208467957E+02  0.40659140851E+02  0.00000000000E+00 0.  1.
         11    1    4    4    0    0  0.25399322026E+01 -0.27093187040E+01  0.23312653231E+02  0.23606597899E+02  0.51100000000E-03 0. -1.
        -11    1    4    4    0    0 -0.31801270473E+01 -0.40887907587E+01 -0.62412285285E+00  0.52173697877E+01  0.51100000000E-03 0.  1.
         12    1    4    4    0    0  0.16847651575E+02 -0.21142936554E+01  0.13519937579E+02  0.21704891462E+02  0.00000000000E+00 0. -1.
</event>
<event>
 8    1  0.4964753E-012  0.9118800E+02  0.7816164E-02  0.1184000E+00
        -11   -1    0    0    0    0  0.00000000000E+00  0.00000000000E+00  0.45593999997E+02  0.45594000000E+02  0.51100000000E-03 0. -1.
         11   -1    0    0    0    0 -0.00000000000E+00 -0.00000000000E+00 -0.45593999997E+02  0.45594000000E+02  0.51100000000E-03 0.  1.
         23    2    1    2    0    0  0.00000000000E+00  0.00000000000E+00  0.00000000000E+00  0.91188000000E+02  0.91188000000E+02 0.  0.
    9900012    2    3    3    0    0 -0.21272951632E+02 -0.81944794766E+01 -0.33667159605E+02  0.50528860795E+02  0.30000002872E+02 0.  0.
         12    1    3    3    0    0  0.21272951632E+02  0.81944794766E+01  0.33667159605E+02  0.40659139205E+02  0.00000000000E+00 0. -1.
         11    1    4    4    0    0  0.53041646208E+01 -0.44125573306E+01 -0.19506996354E+01  0.71700804632E+01  0.51100000000E-03 0. -1.
        -11    1    4    4    0    0 -0.97277192530E+01 -0.66796085859E+01 -0.85751772119E+01  0.14586958463E+02  0.51100000000E-03 0.  1.
         12    1    4    4    0    0 -0.16849397000E+02  0.28976864399E+01 -0.23141282758E+02  0.28771821868E+02  0.00000000000E+00 0. -1.
</event>
<event>
 8    1  0.4964753E-012  0.9118800E+02  0.7816164E-02  0.1184000E+00
        -11   -1    0    0    0    0  0.00000000000E+00  0.00000000000E+00  0.45593999997E+02  0.45594000000E+02  0.51100000000E-03 0. -1.
         11   -1    0    0    0    0 -0.00000000000E+00 -0.00000000000E+00 -0.45593999997E+02  0.45594000000E+02  0.51100000000E-03 0.  1.
         23    2    1    2    0    0 -0.35527136788E-14  0.71054273576E-14 -0.35527136788E-14  0.91188000000E+02  0.91188000000E+02 0.  0.
    9900012    2    3    3    0    0 -0.10166840228E+02  0.26236963083E+02 -0.29349998959E+02  0.50528864361E+02  0.30000013710E+02 0.  0.
         12    1    3    3    0    0  0.10166840228E+02 -0.26236963083E+02  0.29349998959E+02  0.40659135639E+02  0.00000000000E+00 0. -1.
         11    1    4    4    0    0 -0.15157437542E+02  0.16617120307E+02 -0.12443875421E+02  0.25704603399E+02  0.51100000000E-03 0. -1.
        -11    1    4    4    0    0  0.54132700329E+01  0.10416705483E+02 -0.47969865991E+01  0.12681574282E+02  0.51100000000E-03 0.  1.
        -12    1    4    4    0    0 -0.42267271873E+00 -0.79686270671E+00 -0.12109136939E+02  0.12142686680E+02  0.00000000000E+00 0.  1.
</event>
<event>
 8    1  0.4964753E-012  0.9118800E+02  0.7816164E-02  0.1184000E+00
        -11   -1    0    0    0    0  0.00000000000E+00  0.00000000000E+00  0.45593999997E+02  0.45594000000E+02  0.51100000000E-03 0. -1.
         11   -1    0    0    0    0 -0.00000000000E+00 -0.00000000000E+00 -0.45593999997E+02  0.45594000000E+02  0.51100000000E-03 0.  1.
         23    2    1    2    0    0  0.88817841970E-15 -0.17763568394E-14  0.00000000000E+00  0.91188000000E+02  0.91188000000E+02 0.  0.
    9900012    2    3    3    0    0  0.28169669106E+01 -0.85923085537E+01 -0.39640922242E+02  0.50528858530E+02  0.29999995988E+02 0.  0.
         12    1    3    3    0    0 -0.28169669106E+01  0.85923085537E+01  0.39640922242E+02  0.40659141470E+02  0.00000000000E+00 0. -1.
         11    1    4    4    0    0 -0.58868156050E+01 -0.64145274059E+01 -0.72948612725E+01  0.11358510512E+02  0.51100000000E-03 0. -1.
        -11    1    4    4    0    0  0.11829610331E+01  0.36766128790E-02  0.28646877590E+01  0.30993300148E+01  0.51100000000E-03 0.  1.
        -12    1    4    4    0    0  0.75208214825E+01 -0.21814577606E+01 -0.35210748729E+02  0.36071018003E+02  0.00000000000E+00 0.  1.
</event>
<event>
 8    1  0.4964753E-012  0.9118800E+02  0.7816164E-02  0.1184000E+00
        -11   -1    0    0    0    0  0.00000000000E+00  0.00000000000E+00  0.45593999997E+02  0.45594000000E+02  0.51100000000E-03 0. -1.
         11   -1    0    0    0    0 -0.00000000000E+00 -0.00000000000E+00 -0.45593999997E+02  0.45594000000E+02  0.51100000000E-03 0.  1.
         23    2    1    2    0    0  0.00000000000E+00  0.00000000000E+00  0.00000000000E+00  0.91188000000E+02  0.91188000000E+02 0.  0.
    9900012    2    3    3    0    0 -0.57932776119E+01 -0.10037317448E+02  0.38972487165E+02  0.50528873560E+02  0.30000041672E+02 0.  0.
        -12    1    3    3    0    0  0.57932776119E+01  0.10037317448E+02 -0.38972487165E+02  0.40659126440E+02  0.00000000000E+00 0.  1.
         11    1    4    4    0    0  0.79682583288E+01 -0.78742394434E+01  0.97195528457E+01  0.14831267491E+02  0.51100000000E-03 0. -1.
        -11    1    4    4    0    0 -0.27170273843E+01  0.56325725470E+01  0.13894924937E+02  0.15237357073E+02  0.51100000000E-03 0.  1.
         12    1    4    4    0    0 -0.11044508556E+02 -0.77956505517E+01  0.15358009383E+02  0.20460248996E+02  0.00000000000E+00 0. -1.
</event>
<event>
 8    1  0.4964753E-012  0.9118800E+02  0.7816164E-02  0.1184000E+00
        -11   -1    0    0    0    0  0.00000000000E+00  0.00000000000E+00  0.45593999997E+02  0.45594000000E+02  0.51100000000E-03 0. -1.
         11   -1    0    0    0    0 -0.00000000000E+00 -0.00000000000E+00 -0.45593999997E+02  0.45594000000E+02  0.51100000000E-03 0.  1.
         23    2    1    2    0    0 -0.35527136788E-14  0.00000000000E+00 -0.35527136788E-14  0.91188000000E+02  0.91188000000E+02 0.  0.
    9900012    2    3    3    0    0  0.15244011326E+02  0.35676752592E+02  0.12163686862E+02  0.50528857917E+02  0.29999994125E+02 0.  0.
        -12    1    3    3    0    0 -0.15244011326E+02 -0.35676752592E+02 -0.12163686862E+02  0.40659142083E+02  0.00000000000E+00 0.  1.
         11    1    4    4    0    0 -0.57892895569E-01  0.21373003325E+02  0.15148883974E+02  0.26197276741E+02  0.51100000000E-03 0. -1.
        -11    1    4    4    0    0  0.38918080230E+01 -0.12900083760E+01  0.17173346798E+01  0.44451692838E+01  0.51100000000E-03 0.  1.
        -12    1    4    4    0    0  0.11410096199E+02  0.15593757644E+02 -0.47025317925E+01  0.19886411893E+02  0.00000000000E+00 0.  1.
</event>
<event>
 8    1  0.4964753E-012  0.9118800E+02  0.7816164E-02  0.1184000E+00
        -11   -1    0    0    0    0  0.00000000000E+00  0.00000000000E+00  0.45593999997E+02  0.45594000000E+02  0.51100000000E-03 0. -1.
         11   -1    0    0    0    0 -0.00000000000E+00 -0.00000000000E+00 -0.45593999997E+02  0.45594000000E+02  0.51100000000E-03 0.  1.
         23    2    1    2    0    0 -0.17763568394E-14 -0.88817841970E-15  0.00000000000E+00  0.91188000000E+02  0.91188000000E+02 0.  0.
    9900012    2    3    3    0    0  0.53255909274E+01  0.32609243861E+01 -0.40176746097E+02  0.50528850064E+02  0.29999970255E+02 0.  0.
         12    1    3    3    0    0 -0.53255909274E+01 -0.32609243861E+01  0.40176746097E+02  0.40659149936E+02  0.00000000000E+00 0. -1.
         11    1    4    4    0    0  0.49671682830E+00  0.52026773502E+01 -0.98687184025E+01  0.11167192234E+02  0.51100000000E-03 0. -1.
        -11    1    4    4    0    0  0.69802340990E+01 -0.33831698865E+01 -0.33987962063E+02  0.34861885664E+02  0.51100000000E-03 0.  1.
         12    1    4    4    0    0 -0.21513599999E+01  0.14414169223E+01  0.36799343687E+01  0.44997721665E+01  0.00000000000E+00 0. -1.
</event>
<event>
 8    1  0.4964753E-012  0.9118800E+02  0.7816164E-02  0.1184000E+00
        -11   -1    0    0    0    0  0.00000000000E+00  0.00000000000E+00  0.45593999997E+02  0.45594000000E+02  0.51100000000E-03 0. -1.
         11   -1    0    0    0    0 -0.00000000000E+00 -0.00000000000E+00 -0.45593999997E+02  0.45594000000E+02  0.51100000000E-03 0.  1.
         23    2    1    2    0    0 -0.35527136788E-14  0.88817841970E-15  0.71054273576E-14  0.91188000000E+02  0.91188000000E+02 0.  0.
    9900012    2    3    3    0    0 -0.16509249844E+02  0.42937132742E+01  0.36907658727E+02  0.50528848794E+02  0.29999966393E+02 0.  0.
        -12    1    3    3    0    0  0.16509249844E+02 -0.42937132742E+01 -0.36907658727E+02  0.40659151206E+02  0.00000000000E+00 0.  1.
         11    1    4    4    0    0  0.43228068128E+01  0.32459219869E+01  0.89427448959E+01  0.10449658120E+02  0.51100000000E-03 0. -1.
        -11    1    4    4    0    0 -0.15416261470E+02  0.95955322409E+01  0.21167558345E+02  0.27889081793E+02  0.51100000000E-03 0.  1.
         12    1    4    4    0    0 -0.54157951866E+01 -0.85477409536E+01  0.67973554860E+01  0.12190108880E+02  0.00000000000E+00 0. -1.
</event>
<event>
 8    1  0.4964753E-012  0.9118800E+02  0.7816164E-02  0.1184000E+00
        -11   -1    0    0    0    0  0.00000000000E+00  0.00000000000E+00  0.45593999997E+02  0.45594000000E+02  0.51100000000E-03 0. -1.
         11   -1    0    0    0    0 -0.00000000000E+00 -0.00000000000E+00 -0.45593999997E+02  0.45594000000E+02  0.51100000000E-03 0.  1.
         23    2    1    2    0    0  0.00000000000E+00 -0.88817841970E-15  0.35527136788E-14  0.91188000000E+02  0.91188000000E+02 0.  0.
    9900012    2    3    3    0    0 -0.29227280089E+02 -0.59016571367E+01  0.27642390914E+02  0.50528865309E+02  0.30000016592E+02 0.  0.
        -12    1    3    3    0    0  0.29227280089E+02  0.59016571367E+01 -0.27642390914E+02  0.40659134691E+02  0.00000000000E+00 0.  1.
         11    1    4    4    0    0 -0.85712371770E+01  0.93992347702E+00  0.16969936526E+01  0.87880231341E+01  0.51100000000E-03 0. -1.
        -11    1    4    4    0    0  0.24781001625E+01 -0.12275128406E+01 -0.31210945934E+01  0.41700119797E+01  0.51100000000E-03 0.  1.
        -12    1    4    4    0    0 -0.23134143075E+02 -0.56140677731E+01  0.29066491855E+02  0.37570830195E+02  0.00000000000E+00 0.  1.
</event>
<event>
 8    1  0.4964753E-012  0.9118800E+02  0.7816164E-02  0.1184000E+00
        -11   -1    0    0    0    0  0.00000000000E+00  0.00000000000E+00  0.45593999997E+02  0.45594000000E+02  0.51100000000E-03 0. -1.
         11   -1    0    0    0    0 -0.00000000000E+00 -0.00000000000E+00 -0.45593999997E+02  0.45594000000E+02  0.51100000000E-03 0.  1.
         23    2    1    2    0    0 -0.44408920985E-15  0.00000000000E+00  0.00000000000E+00  0.91188000000E+02  0.91188000000E+02 0.  0.
    9900012    2    3    3    0    0  0.22731212757E+01  0.27033475345E+02  0.30285154555E+02  0.50528850280E+02  0.29999970910E+02 0.  0.
        -12    1    3    3    0    0 -0.22731212757E+01 -0.27033475345E+02 -0.30285154555E+02  0.40659149720E+02  0.00000000000E+00 0.  1.
         11    1    4    4    0    0  0.65928769940E+00 -0.36231374566E+00  0.14674462784E+02  0.14693733011E+02  0.51100000000E-03 0. -1.
        -11    1    4    4    0    0 -0.65149609973E+01  0.43886495159E+01  0.38089203613E+01  0.87299963316E+01  0.51100000000E-03 0.  1.
        -12    1    4    4    0    0  0.81287945736E+01  0.23007139575E+02  0.11801771409E+02  0.27105120937E+02  0.00000000000E+00 0.  1.
</event>
<event>
 8    1  0.4964753E-012  0.9118800E+02  0.7816164E-02  0.1184000E+00
        -11   -1    0    0    0    0  0.00000000000E+00  0.00000000000E+00  0.45593999997E+02  0.45594000000E+02  0.51100000000E-03 0. -1.
         11   -1    0    0    0    0 -0.00000000000E+00 -0.00000000000E+00 -0.45593999997E+02  0.45594000000E+02  0.51100000000E-03 0.  1.
         23    2    1    2    0    0 -0.35527136788E-14  0.00000000000E+00  0.00000000000E+00  0.91188000000E+02  0.91188000000E+02 0.  0.
    9900012    2    3    3    0    0 -0.11301582474E+02  0.19282641329E+02  0.33964960575E+02  0.50528873473E+02  0.30000041410E+02 0.  0.
        -12    1    3    3    0    0  0.11301582474E+02 -0.19282641329E+02 -0.33964960575E+02  0.40659126527E+02  0.00000000000E+00 0.  1.
         11    1    4    4    0    0 -0.80908670961E+01  0.11312739796E+02  0.19997007990E+02  0.24358171952E+02  0.51100000000E-03 0. -1.
        -11    1    4    4    0    0  0.37841469052E+01  0.12934504113E+02  0.95892866636E+01  0.16540120418E+02  0.51100000000E-03 0.  1.
        -12    1    4    4    0    0 -0.69948622833E+01 -0.49646025796E+01  0.43786659215E+01  0.96305811034E+01  0.00000000000E+00 0.  1.
</event>
<event>
 8    1  0.4964753E-012  0.9118800E+02  0.7816164E-02  0.1184000E+00
        -11   -1    0    0    0    0  0.00000000000E+00  0.00000000000E+00  0.45593999997E+02  0.45594000000E+02  0.51100000000E-03 0. -1.
         11   -1    0    0    0    0 -0.00000000000E+00 -0.00000000000E+00 -0.45593999997E+02  0.45594000000E+02  0.51100000000E-03 0.  1.
         23    2    1    2    0    0  0.88817841970E-15  0.00000000000E+00  0.00000000000E+00  0.91188000000E+02  0.91188000000E+02 0.  0.
    9900012    2    3    3    0    0 -0.19364751462E+01 -0.21420739303E+02  0.34504608503E+02  0.50528855688E+02  0.29999987348E+02 0.  0.
        -12    1    3    3    0    0  0.19364751462E+01  0.21420739303E+02 -0.34504608503E+02  0.40659144312E+02  0.00000000000E+00 0.  1.
         11    1    4    4    0    0 -0.85438364934E+01 -0.16239437703E+02  0.93371169279E+01  0.20588788981E+02  0.51100000000E-03 0. -1.
        -11    1    4    4    0    0 -0.38725427938E+01  0.10589629943E+01  0.65766649310E+01  0.77052262906E+01  0.51100000000E-03 0.  1.
         12    1    4    4    0    0  0.10479904141E+02 -0.62402645948E+01  0.18590826644E+02  0.22234840416E+02  0.00000000000E+00 0. -1.
</event>
<event>
 8    1  0.4964753E-012  0.9118800E+02  0.7816164E-02  0.1184000E+00
        -11   -1    0    0    0    0  0.00000000000E+00  0.00000000000E+00  0.45593999997E+02  0.45594000000E+02  0.51100000000E-03 0. -1.
         11   -1    0    0    0    0 -0.00000000000E+00 -0.00000000000E+00 -0.45593999997E+02  0.45594000000E+02  0.51100000000E-03 0.  1.
         23    2    1    2    0    0 -0.71054273576E-14  0.13322676296E-14  0.35527136788E-14  0.91188000000E+02  0.91188000000E+02 0.  0.
    9900012    2    3    3    0    0  0.36767742176E+02 -0.30213141181E+01 -0.17093003395E+02  0.50528856271E+02  0.29999989121E+02 0.  0.
         12    1    3    3    0    0 -0.36767742176E+02  0.30213141181E+01  0.17093003395E+02  0.40659143729E+02  0.00000000000E+00 0. -1.
         11    1    4    4    0    0  0.10549153990E+02 -0.12521752556E+02 -0.53048987249E+01  0.17211068756E+02  0.51100000000E-03 0. -1.
        -11    1    4    4    0    0  0.44474784181E+01  0.67139562104E+00 -0.84715836445E+01  0.95915882973E+01  0.51100000000E-03 0.  1.
        -12    1    4    4    0    0  0.21771109768E+02  0.88290428169E+01 -0.33165210255E+01  0.23726199218E+02  0.00000000000E+00 0.  1.
</event>
<event>
 8    1  0.4964753E-012  0.9118800E+02  0.7816164E-02  0.1184000E+00
        -11   -1    0    0    0    0  0.00000000000E+00  0.00000000000E+00  0.45593999997E+02  0.45594000000E+02  0.51100000000E-03 0. -1.
         11   -1    0    0    0    0 -0.00000000000E+00 -0.00000000000E+00 -0.45593999997E+02  0.45594000000E+02  0.51100000000E-03 0.  1.
         23    2    1    2    0    0  0.17763568394E-14  0.00000000000E+00  0.00000000000E+00  0.91188000000E+02  0.91188000000E+02 0.  0.
    9900012    2    3    3    0    0  0.13289284868E+02 -0.15597877690E+02  0.35117896124E+02  0.50528861926E+02  0.30000006312E+02 0.  0.
        -12    1    3    3    0    0 -0.13289284868E+02  0.15597877690E+02 -0.35117896124E+02  0.40659138074E+02  0.00000000000E+00 0.  1.
         11    1    4    4    0    0  0.10431577050E+01  0.77913287355E+00  0.15338726723E+02  0.15393887221E+02  0.51100000000E-03 0. -1.
        -11    1    4    4    0    0 -0.57695326333E+01 -0.37530690385E+01  0.63304087995E+01  0.93513159419E+01  0.51100000000E-03 0.  1.
        -12    1    4    4    0    0  0.18015659796E+02 -0.12623941525E+02  0.13448760601E+02  0.25783658763E+02  0.00000000000E+00 0.  1.
</event>
<event>
 8    1  0.7369430E-012  0.9118800E+02  0.7816164E-02  0.1184000E+00
        -11   -1    0    0    0    0  0.00000000000E+00  0.00000000000E+00  0.45593999997E+02  0.45594000000E+02  0.51100000000E-03 0. -1.
         11   -1    0    0    0    0 -0.00000000000E+00 -0.00000000000E+00 -0.45593999997E+02  0.45594000000E+02  0.51100000000E-03 0.  1.
         23    2    1    2    0    0  0.35527136788E-14 -0.66613381478E-15  0.00000000000E+00  0.91188000000E+02  0.91188000000E+02 0.  0.
    9900012    2    3    3    0    0  0.24483085238E+02  0.11606259412E+01 -0.32440663946E+02  0.50528865816E+02  0.30000018135E+02 0.  0.
         12    1    3    3    0    0 -0.24483085238E+02 -0.11606259412E+01  0.32440663946E+02  0.40659134184E+02  0.00000000000E+00 0. -1.
         11    1    4    4    0    0  0.35959697693E+00 -0.46926161541E+01  0.54341155416E+00  0.47376421070E+01  0.51100000000E-03 0. -1.
        -11    1    4    4    0    0  0.21462873281E+02 -0.30853124349E+01 -0.18189631802E+02  0.28302593303E+02  0.51100000000E-03 0.  1.
         12    1    4    4    0    0  0.26606149794E+01  0.89385545302E+01 -0.14794443698E+02  0.17488630407E+02  0.00000000000E+00 0. -1.
</event>
<event>
 8    1  0.4964753E-012  0.9118800E+02  0.7816164E-02  0.1184000E+00
        -11   -1    0    0    0    0  0.00000000000E+00  0.00000000000E+00  0.45593999997E+02  0.45594000000E+02  0.51100000000E-03 0. -1.
         11   -1    0    0    0    0 -0.00000000000E+00 -0.00000000000E+00 -0.45593999997E+02  0.45594000000E+02  0.51100000000E-03 0.  1.
         23    2    1    2    0    0 -0.35527136788E-14  0.00000000000E+00  0.00000000000E+00  0.91188000000E+02  0.91188000000E+02 0.  0.
    9900012    2    3    3    0    0 -0.25410457606E+02 -0.18057843017E+02 -0.26103415890E+02  0.50528863618E+02  0.30000011454E+02 0.  0.
         12    1    3    3    0    0  0.25410457606E+02  0.18057843017E+02  0.26103415890E+02  0.40659136382E+02  0.00000000000E+00 0. -1.
         11    1    4    4    0    0 -0.14690777443E+01 -0.41776235812E+01 -0.32636425469E+01  0.55010990847E+01  0.51100000000E-03 0.  1.
        -11    1    4    4    0    0 -0.14140972821E+02 -0.23002660339E+01  0.33940341931E+01  0.14723376125E+02  0.51100000000E-03 0. -1.
         12    1    4    4    0    0 -0.98004070407E+01 -0.11579953402E+02 -0.26233807537E+02  0.30304388409E+02  0.00000000000E+00 0. -1.
</event>
<event>
 8    1  0.4964753E-012  0.9118800E+02  0.7816164E-02  0.1184000E+00
        -11   -1    0    0    0    0  0.00000000000E+00  0.00000000000E+00  0.45593999997E+02  0.45594000000E+02  0.51100000000E-03 0. -1.
         11   -1    0    0    0    0 -0.00000000000E+00 -0.00000000000E+00 -0.45593999997E+02  0.45594000000E+02  0.51100000000E-03 0.  1.
         23    2    1    2    0    0  0.35527136788E-14  0.00000000000E+00  0.00000000000E+00  0.91188000000E+02  0.91188000000E+02 0.  0.
    9900012    2    3    3    0    0 -0.20771547333E+02 -0.13813654909E+02 -0.32107508490E+02  0.50528851681E+02  0.29999975170E+02 0.  0.
         12    1    3    3    0    0  0.20771547333E+02  0.13813654909E+02  0.32107508490E+02  0.40659148319E+02  0.00000000000E+00 0. -1.
         11    1    4    4    0    0 -0.66817486258E+00 -0.92532149307E+01 -0.58430869998E+01  0.10964037128E+02  0.51100000000E-03 0. -1.
        -11    1    4    4    0    0 -0.17882777298E+01 -0.12189273060E+01 -0.19708272059E+02  0.19826742265E+02  0.51100000000E-03 0.  1.
        -12    1    4    4    0    0 -0.18315094740E+02 -0.33415126727E+01 -0.65561494314E+01  0.19738072288E+02  0.00000000000E+00 0.  1.
</event>
<event>
 8    1  0.4964753E-012  0.9118800E+02  0.7816164E-02  0.1184000E+00
        -11   -1    0    0    0    0  0.00000000000E+00  0.00000000000E+00  0.45593999997E+02  0.45594000000E+02  0.51100000000E-03 0. -1.
         11   -1    0    0    0    0 -0.00000000000E+00 -0.00000000000E+00 -0.45593999997E+02  0.45594000000E+02  0.51100000000E-03 0.  1.
         23    2    1    2    0    0 -0.35527136788E-14  0.30531133177E-15  0.00000000000E+00  0.91188000000E+02  0.91188000000E+02 0.  0.
    9900012    2    3    3    0    0 -0.22623137759E+02 -0.17865164027E+00  0.33783550339E+02  0.50528849099E+02  0.29999967322E+02 0.  0.
        -12    1    3    3    0    0  0.22623137759E+02  0.17865164027E+00 -0.33783550339E+02  0.40659150901E+02  0.00000000000E+00 0.  1.
         11    1    4    4    0    0 -0.13474913838E+02 -0.70107123723E+01  0.14890087790E+02  0.21270592506E+02  0.51100000000E-03 0. -1.
        -11    1    4    4    0    0 -0.15170694955E+02  0.56222229808E+01  0.13156944639E+02  0.20853406656E+02  0.51100000000E-03 0.  1.
        -12    1    4    4    0    0  0.60224710338E+01  0.12098377512E+01  0.57365179104E+01  0.84048499376E+01  0.00000000000E+00 0.  1.
</event>
<event>
 8    1  0.4964753E-012  0.9118800E+02  0.7816164E-02  0.1184000E+00
        -11   -1    0    0    0    0  0.00000000000E+00  0.00000000000E+00  0.45593999997E+02  0.45594000000E+02  0.51100000000E-03 0. -1.
         11   -1    0    0    0    0 -0.00000000000E+00 -0.00000000000E+00 -0.45593999997E+02  0.45594000000E+02  0.51100000000E-03 0.  1.
         23    2    1    2    0    0  0.66613381478E-15 -0.35527136788E-14 -0.71054273576E-14  0.91188000000E+02  0.91188000000E+02 0.  0.
    9900012    2    3    3    0    0 -0.18661975366E+01 -0.20970191908E+02 -0.34784104874E+02  0.50528860882E+02  0.30000003138E+02 0.  0.
         12    1    3    3    0    0  0.18661975366E+01  0.20970191908E+02  0.34784104874E+02  0.40659139118E+02  0.00000000000E+00 0. -1.
         11    1    4    4    0    0 -0.57249017254E+00 -0.47006414015E+01 -0.44982906330E+00  0.47566922362E+01  0.51100000000E-03 0. -1.
        -11    1    4    4    0    0 -0.94532782179E+01 -0.16762982719E+02 -0.31877950869E+02  0.37236619215E+02  0.51100000000E-03 0.  1.
         12    1    4    4    0    0  0.81595708538E+01  0.49343221277E+00 -0.24563249420E+01  0.85355494310E+01  0.00000000000E+00 0. -1.
</event>
<event>
 8    1  0.4964753E-012  0.9118800E+02  0.7816164E-02  0.1184000E+00
        -11   -1    0    0    0    0  0.00000000000E+00  0.00000000000E+00  0.45593999997E+02  0.45594000000E+02  0.51100000000E-03 0. -1.
         11   -1    0    0    0    0 -0.00000000000E+00 -0.00000000000E+00 -0.45593999997E+02  0.45594000000E+02  0.51100000000E-03 0.  1.
         23    2    1    2    0    0 -0.35527136788E-14  0.00000000000E+00  0.00000000000E+00  0.91188000000E+02  0.91188000000E+02 0.  0.
    9900012    2    3    3    0    0  0.27143488394E+02 -0.17008411962E+02  0.25042186046E+02  0.50528854391E+02  0.29999983407E+02 0.  0.
        -12    1    3    3    0    0 -0.27143488394E+02  0.17008411962E+02 -0.25042186046E+02  0.40659145609E+02  0.00000000000E+00 0.  1.
         11    1    4    4    0    0  0.18842726933E+02 -0.13291948947E+02  0.11194827485E+02  0.25632955892E+02  0.51100000000E-03 0. -1.
        -11    1    4    4    0    0  0.76803608854E+01  0.13722582848E+01 -0.21536253807E+01  0.80937715975E+01  0.51100000000E-03 0.  1.
         12    1    4    4    0    0  0.62040057641E+00 -0.50887213004E+01  0.16000983941E+02  0.16802126902E+02  0.00000000000E+00 0. -1.
</event>
<event>
 8    1  0.4964753E-012  0.9118800E+02  0.7816164E-02  0.1184000E+00
        -11   -1    0    0    0    0  0.00000000000E+00  0.00000000000E+00  0.45593999997E+02  0.45594000000E+02  0.51100000000E-03 0. -1.
         11   -1    0    0    0    0 -0.00000000000E+00 -0.00000000000E+00 -0.45593999997E+02  0.45594000000E+02  0.51100000000E-03 0.  1.
         23    2    1    2    0    0  0.00000000000E+00  0.35527136788E-14  0.00000000000E+00  0.91188000000E+02  0.91188000000E+02 0.  0.
    9900012    2    3    3    0    0 -0.10505225989E+02  0.16575390382E+02  0.35609862969E+02  0.50528859821E+02  0.29999999913E+02 0.  0.
        -12    1    3    3    0    0  0.10505225989E+02 -0.16575390382E+02 -0.35609862969E+02  0.40659140179E+02  0.00000000000E+00 0.  1.
         11    1    4    4    0    0 -0.12959533429E+02  0.20653791554E+02  0.15518470829E+02  0.28902448848E+02  0.51100000000E-03 0. -1.
        -11    1    4    4    0    0 -0.10728529535E+00 -0.11955015351E+01  0.33121146607E-01  0.12007628102E+01  0.51100000000E-03 0.  1.
         12    1    4    4    0    0  0.25615927353E+01 -0.28828996365E+01  0.20058270993E+02  0.20425648163E+02  0.00000000000E+00 0. -1.
</event>
<event>
 8    1  0.4964753E-012  0.9118800E+02  0.7816164E-02  0.1184000E+00
        -11   -1    0    0    0    0  0.00000000000E+00  0.00000000000E+00  0.45593999997E+02  0.45594000000E+02  0.51100000000E-03 0.  1.
         11   -1    0    0    0    0 -0.00000000000E+00 -0.00000000000E+00 -0.45593999997E+02  0.45594000000E+02  0.51100000000E-03 0. -1.
         23    2    1    2    0    0  0.00000000000E+00  0.35527136788E-14  0.35527136788E-14  0.91188000000E+02  0.91188000000E+02 0.  0.
    9900012    2    3    3    0    0  0.32027953364E+02  0.19141356513E+02  0.16155052917E+02  0.50528842844E+02  0.29999948310E+02 0.  0.
        -12    1    3    3    0    0 -0.32027953364E+02 -0.19141356513E+02 -0.16155052917E+02  0.40659157156E+02  0.00000000000E+00 0.  1.
         11    1    4    4    0    0  0.55387351083E+01  0.32464883808E+01  0.32441420221E+01  0.71931725356E+01  0.51100000000E-03 0. -1.
        -11    1    4    4    0    0  0.72228597688E+01  0.25207258518E+01  0.17803410271E+02  0.19377439965E+02  0.51100000000E-03 0.  1.
         12    1    4    4    0    0  0.19266358487E+02  0.13374142280E+02 -0.48924993756E+01  0.23958230344E+02  0.00000000000E+00 0. -1.
</event>
<event>
 8    1  0.4964753E-012  0.9118800E+02  0.7816164E-02  0.1184000E+00
        -11   -1    0    0    0    0  0.00000000000E+00  0.00000000000E+00  0.45593999997E+02  0.45594000000E+02  0.51100000000E-03 0. -1.
         11   -1    0    0    0    0 -0.00000000000E+00 -0.00000000000E+00 -0.45593999997E+02  0.45594000000E+02  0.51100000000E-03 0.  1.
         23    2    1    2    0    0  0.11657341759E-14  0.00000000000E+00  0.00000000000E+00  0.91188000000E+02  0.91188000000E+02 0.  0.
    9900012    2    3    3    0    0  0.46895394278E+00  0.71901362394E+01 -0.40015591285E+02  0.50528861755E+02  0.30000005789E+02 0.  0.
         12    1    3    3    0    0 -0.46895394278E+00 -0.71901362394E+01  0.40015591285E+02  0.40659138245E+02  0.00000000000E+00 0. -1.
         11    1    4    4    0    0  0.49402218182E+01  0.14846443611E+02 -0.23778694658E+02  0.28464873079E+02  0.51100000000E-03 0. -1.
        -11    1    4    4    0    0  0.35424468225E+01 -0.43470090773E+01 -0.97055185882E+01  0.11209036923E+02  0.51100000000E-03 0.  1.
        -12    1    4    4    0    0 -0.80137146979E+01 -0.33092982946E+01 -0.65313780388E+01  0.10854951752E+02  0.00000000000E+00 0.  1.
</event>
<event>
 8    1  0.4964753E-012  0.9118800E+02  0.7816164E-02  0.1184000E+00
        -11   -1    0    0    0    0  0.00000000000E+00  0.00000000000E+00  0.45593999997E+02  0.45594000000E+02  0.51100000000E-03 0.  1.
         11   -1    0    0    0    0 -0.00000000000E+00 -0.00000000000E+00 -0.45593999997E+02  0.45594000000E+02  0.51100000000E-03 0. -1.
         23    2    1    2    0    0 -0.35527136788E-14  0.71054273576E-14  0.17763568394E-14  0.91188000000E+02  0.91188000000E+02 0.  0.
    9900012    2    3    3    0    0 -0.14667346083E+02  0.36551170810E+02  0.10101843195E+02  0.50528851403E+02  0.29999974325E+02 0.  0.
        -12    1    3    3    0    0  0.14667346083E+02 -0.36551170810E+02 -0.10101843195E+02  0.40659148597E+02  0.00000000000E+00 0.  1.
         11    1    4    4    0    0 -0.11551323814E+02  0.14630155295E+02 -0.49419950503E+01  0.19284652995E+02  0.51100000000E-03 0. -1.
        -11    1    4    4    0    0  0.11876725265E+01  0.20854242548E+02  0.69472882315E+01  0.22013060039E+02  0.51100000000E-03 0.  1.
         12    1    4    4    0    0 -0.43036947959E+01  0.10667729671E+01  0.80965500139E+01  0.92311383690E+01  0.00000000000E+00 0. -1.
</event>
<event>
 8    1  0.4964753E-012  0.9118800E+02  0.7816164E-02  0.1184000E+00
        -11   -1    0    0    0    0  0.00000000000E+00  0.00000000000E+00  0.45593999997E+02  0.45594000000E+02  0.51100000000E-03 0. -1.
         11   -1    0    0    0    0 -0.00000000000E+00 -0.00000000000E+00 -0.45593999997E+02  0.45594000000E+02  0.51100000000E-03 0.  1.
         23    2    1    2    0    0 -0.35527136788E-14  0.55511151231E-16  0.71054273576E-14  0.91188000000E+02  0.91188000000E+02 0.  0.
    9900012    2    3    3    0    0 -0.11804888502E+02 -0.86638760283E-01  0.38907624988E+02  0.50528853661E+02  0.29999981188E+02 0.  0.
        -12    1    3    3    0    0  0.11804888502E+02  0.86638760283E-01 -0.38907624988E+02  0.40659146339E+02  0.00000000000E+00 0.  1.
         11    1    4    4    0    0 -0.13209981316E+02  0.34230510287E+00  0.39749945823E+02  0.41888888411E+02  0.51100000000E-03 0. -1.
        -11    1    4    4    0    0 -0.12811567098E+01 -0.38091344171E+01  0.65144616251E+00  0.40712712863E+01  0.51100000000E-03 0.  1.
        -12    1    4    4    0    0  0.26862495244E+01  0.33801905540E+01 -0.14937669972E+01  0.45686939634E+01  0.00000000000E+00 0.  1.
</event>
<event>
 8    1  0.4964753E-012  0.9118800E+02  0.7816164E-02  0.1184000E+00
        -11   -1    0    0    0    0  0.00000000000E+00  0.00000000000E+00  0.45593999997E+02  0.45594000000E+02  0.51100000000E-03 0. -1.
         11   -1    0    0    0    0 -0.00000000000E+00 -0.00000000000E+00 -0.45593999997E+02  0.45594000000E+02  0.51100000000E-03 0.  1.
         23    2    1    2    0    0 -0.88817841970E-15  0.00000000000E+00  0.00000000000E+00  0.91188000000E+02  0.91188000000E+02 0.  0.
    9900012    2    3    3    0    0  0.34791474589E+01  0.26198014941E+01 -0.40425223681E+02  0.50528849289E+02  0.29999967897E+02 0.  0.
         12    1    3    3    0    0 -0.34791474589E+01 -0.26198014941E+01  0.40425223681E+02  0.40659150711E+02  0.00000000000E+00 0. -1.
         11    1    4    4    0    0 -0.12332905507E+01 -0.43492619391E+01 -0.32779809879E+01  0.55841064295E+01  0.51100000000E-03 0. -1.
        -11    1    4    4    0    0 -0.62609198220E+01  0.54067682076E+01 -0.26128608911E+01  0.86752119147E+01  0.51100000000E-03 0.  1.
        -12    1    4    4    0    0  0.10973357832E+02  0.15622952256E+01 -0.34534381802E+02  0.36269530944E+02  0.00000000000E+00 0.  1.
</event>
<event>
 8    1  0.4964753E-012  0.9118800E+02  0.7816164E-02  0.1184000E+00
        -11   -1    0    0    0    0  0.00000000000E+00  0.00000000000E+00  0.45593999997E+02  0.45594000000E+02  0.51100000000E-03 0. -1.
         11   -1    0    0    0    0 -0.00000000000E+00 -0.00000000000E+00 -0.45593999997E+02  0.45594000000E+02  0.51100000000E-03 0.  1.
         23    2    1    2    0    0  0.00000000000E+00  0.00000000000E+00  0.00000000000E+00  0.91188000000E+02  0.91188000000E+02 0.  0.
    9900012    2    3    3    0    0 -0.97041628845E+01  0.25855164731E+02  0.29841334530E+02  0.50528861210E+02  0.30000004135E+02 0.  0.
        -12    1    3    3    0    0  0.97041628845E+01 -0.25855164731E+02 -0.29841334530E+02  0.40659138790E+02  0.00000000000E+00 0.  1.
         11    1    4    4    0    0 -0.20774109105E+01  0.91003990366E+01  0.17557070112E+02  0.19884255327E+02  0.51100000000E-03 0. -1.
        -11    1    4    4    0    0  0.28031785378E+01  0.17389869648E+02  0.72925553783E+01  0.19064279176E+02  0.51100000000E-03 0.  1.
        -12    1    4    4    0    0 -0.10429930512E+02 -0.63510395352E+00  0.49917090400E+01  0.11580326708E+02  0.00000000000E+00 0.  1.
</event>
<event>
 8    1  0.4964753E-012  0.9118800E+02  0.7816164E-02  0.1184000E+00
        -11   -1    0    0    0    0  0.00000000000E+00  0.00000000000E+00  0.45593999997E+02  0.45594000000E+02  0.51100000000E-03 0. -1.
         11   -1    0    0    0    0 -0.00000000000E+00 -0.00000000000E+00 -0.45593999997E+02  0.45594000000E+02  0.51100000000E-03 0.  1.
         23    2    1    2    0    0  0.00000000000E+00 -0.88817841970E-15  0.35527136788E-14  0.91188000000E+02  0.91188000000E+02 0.  0.
    9900012    2    3    3    0    0  0.35033965136E+02 -0.50454538556E+01 -0.20008261602E+02  0.50528857731E+02  0.29999993559E+02 0.  0.
         12    1    3    3    0    0 -0.35033965136E+02  0.50454538556E+01  0.20008261602E+02  0.40659142269E+02  0.00000000000E+00 0. -1.
         11    1    4    4    0    0  0.21885596763E+01 -0.23683995244E+01 -0.68432227678E+01  0.75649724306E+01  0.51100000000E-03 0. -1.
        -11    1    4    4    0    0  0.21736694051E+01 -0.26398260282E+01  0.59217959168E+01  0.68382152119E+01  0.51100000000E-03 0.  1.
        -12    1    4    4    0    0  0.30671736054E+02 -0.37228302986E-01 -0.19086834751E+02  0.36125670088E+02  0.00000000000E+00 0.  1.
</event>
<event>
 8    1  0.4964753E-012  0.9118800E+02  0.7816164E-02  0.1184000E+00
        -11   -1    0    0    0    0  0.00000000000E+00  0.00000000000E+00  0.45593999997E+02  0.45594000000E+02  0.51100000000E-03 0. -1.
         11   -1    0    0    0    0 -0.00000000000E+00 -0.00000000000E+00 -0.45593999997E+02  0.45594000000E+02  0.51100000000E-03 0.  1.
         23    2    1    2    0    0 -0.71054273576E-14  0.00000000000E+00  0.00000000000E+00  0.91188000000E+02  0.91188000000E+02 0.  0.
    9900012    2    3    3    0    0 -0.17838053281E+02 -0.43859054896E+01  0.36273011195E+02  0.50528884749E+02  0.30000075683E+02 0.  0.
        -12    1    3    3    0    0  0.17838053281E+02  0.43859054896E+01 -0.36273011195E+02  0.40659115251E+02  0.00000000000E+00 0.  1.
         11    1    4    4    0    0 -0.67022753503E+01  0.48566775460E+01  0.50426140453E+01  0.96920466532E+01  0.51100000000E-03 0. -1.
        -11    1    4    4    0    0 -0.12363522880E+02 -0.93230130573E+01  0.77347614161E+01  0.17309009356E+02  0.51100000000E-03 0.  1.
         12    1    4    4    0    0  0.12277449490E+01  0.80430021738E-01  0.23495635734E+02  0.23527828739E+02  0.00000000000E+00 0. -1.
</event>
<event>
 8    1  0.4964753E-012  0.9118800E+02  0.7816164E-02  0.1184000E+00
        -11   -1    0    0    0    0  0.00000000000E+00  0.00000000000E+00  0.45593999997E+02  0.45594000000E+02  0.51100000000E-03 0. -1.
         11   -1    0    0    0    0 -0.00000000000E+00 -0.00000000000E+00 -0.45593999997E+02  0.45594000000E+02  0.51100000000E-03 0.  1.
         23    2    1    2    0    0 -0.22204460493E-15  0.35527136788E-14 -0.71054273576E-14  0.91188000000E+02  0.91188000000E+02 0.  0.
    9900012    2    3    3    0    0 -0.10301896237E+01  0.21007719395E+02 -0.34796265765E+02  0.50528859871E+02  0.30000000063E+02 0.  0.
         12    1    3    3    0    0  0.10301896237E+01 -0.21007719395E+02  0.34796265765E+02  0.40659140129E+02  0.00000000000E+00 0. -1.
         11    1    4    4    0    0 -0.55096012598E+00  0.39455892602E+01 -0.20602050780E+01  0.44850503782E+01  0.51100000000E-03 0. -1.
        -11    1    4    4    0    0 -0.11272971048E+01  0.13226322436E+01 -0.30005847456E+02  0.30056131432E+02  0.51100000000E-03 0.  1.
        -12    1    4    4    0    0  0.64806760707E+00  0.15739497891E+02 -0.27302132311E+01  0.15987678061E+02  0.00000000000E+00 0.  1.
</event>
<event>
 8    1  0.4964753E-012  0.9118800E+02  0.7816164E-02  0.1184000E+00
        -11   -1    0    0    0    0  0.00000000000E+00  0.00000000000E+00  0.45593999997E+02  0.45594000000E+02  0.51100000000E-03 0. -1.
         11   -1    0    0    0    0 -0.00000000000E+00 -0.00000000000E+00 -0.45593999997E+02  0.45594000000E+02  0.51100000000E-03 0.  1.
         23    2    1    2    0    0  0.00000000000E+00 -0.35527136788E-14  0.00000000000E+00  0.91188000000E+02  0.91188000000E+02 0.  0.
    9900012    2    3    3    0    0  0.24958506620E+02 -0.20844227594E+02 -0.24408136517E+02  0.50528855827E+02  0.29999987772E+02 0.  0.
         12    1    3    3    0    0 -0.24958506620E+02  0.20844227594E+02  0.24408136517E+02  0.40659144173E+02  0.00000000000E+00 0. -1.
         11    1    4    4    0    0  0.55862656100E+01  0.87121375046E+00  0.72703202435E+00  0.57003467167E+01  0.51100000000E-03 0. -1.
        -11    1    4    4    0    0  0.23076700426E+02 -0.14683662550E+02 -0.12907506978E+02  0.30244797653E+02  0.51100000000E-03 0.  1.
         12    1    4    4    0    0 -0.37044594159E+01 -0.70317787942E+01 -0.12227661563E+02  0.14583711457E+02  0.00000000000E+00 0. -1.
</event>
<event>
 8    1  0.4964753E-012  0.9118800E+02  0.7816164E-02  0.1184000E+00
        -11   -1    0    0    0    0  0.00000000000E+00  0.00000000000E+00  0.45593999997E+02  0.45594000000E+02  0.51100000000E-03 0. -1.
         11   -1    0    0    0    0 -0.00000000000E+00 -0.00000000000E+00 -0.45593999997E+02  0.45594000000E+02  0.51100000000E-03 0.  1.
         23    2    1    2    0    0  0.35527136788E-14  0.17763568394E-14  0.71054273576E-14  0.91188000000E+02  0.91188000000E+02 0.  0.
    9900012    2    3    3    0    0  0.13201559253E+02  0.26359574598E+01  0.38365826576E+02  0.50528854814E+02  0.29999984692E+02 0.  0.
        -12    1    3    3    0    0 -0.13201559253E+02 -0.26359574598E+01 -0.38365826576E+02  0.40659145186E+02  0.00000000000E+00 0.  1.
         11    1    4    4    0    0  0.64424167673E+01 -0.62088467067E+01  0.13130841382E+02  0.15889414933E+02  0.51100000000E-03 0. -1.
        -11    1    4    4    0    0  0.13132745718E+02  0.19501449147E+01  0.95344943901E+01  0.16345600595E+02  0.51100000000E-03 0.  1.
        -12    1    4    4    0    0 -0.63736032321E+01  0.68946592518E+01  0.15700490803E+02  0.18293839286E+02  0.00000000000E+00 0.  1.
</event>
<event>
 8    1  0.4964753E-012  0.9118800E+02  0.7816164E-02  0.1184000E+00
        -11   -1    0    0    0    0  0.00000000000E+00  0.00000000000E+00  0.45593999997E+02  0.45594000000E+02  0.51100000000E-03 0. -1.
         11   -1    0    0    0    0 -0.00000000000E+00 -0.00000000000E+00 -0.45593999997E+02  0.45594000000E+02  0.51100000000E-03 0.  1.
         23    2    1    2    0    0 -0.13322676296E-14 -0.35527136788E-14  0.00000000000E+00  0.91188000000E+02  0.91188000000E+02 0.  0.
    9900012    2    3    3    0    0 -0.22486909823E+01  0.29968376936E+02  0.27386234909E+02  0.50528854782E+02  0.29999984596E+02 0.  0.
        -12    1    3    3    0    0  0.22486909823E+01 -0.29968376936E+02 -0.27386234909E+02  0.40659145218E+02  0.00000000000E+00 0.  1.
         11    1    4    4    0    0  0.83652943575E+01  0.53195968152E+01  0.80907543946E+01  0.12795959007E+02  0.51100000000E-03 0.  1.
        -11    1    4    4    0    0 -0.14824973857E+02  0.11985239797E+02  0.10745116092E+02  0.21883403367E+02  0.51100000000E-03 0. -1.
         12    1    4    4    0    0  0.42109885174E+01  0.12663540324E+02  0.85503644228E+01  0.15849492408E+02  0.00000000000E+00 0. -1.
</event>
<event>
 8    1  0.4964753E-012  0.9118800E+02  0.7816164E-02  0.1184000E+00
        -11   -1    0    0    0    0  0.00000000000E+00  0.00000000000E+00  0.45593999997E+02  0.45594000000E+02  0.51100000000E-03 0.  1.
         11   -1    0    0    0    0 -0.00000000000E+00 -0.00000000000E+00 -0.45593999997E+02  0.45594000000E+02  0.51100000000E-03 0. -1.
         23    2    1    2    0    0 -0.35527136788E-14  0.00000000000E+00  0.00000000000E+00  0.91188000000E+02  0.91188000000E+02 0.  0.
    9900012    2    3    3    0    0  0.28956610810E+02  0.28104265756E+02 -0.49830136803E+01  0.50528862176E+02  0.30000007070E+02 0.  0.
        -12    1    3    3    0    0 -0.28956610810E+02 -0.28104265756E+02  0.49830136803E+01  0.40659137824E+02  0.00000000000E+00 0.  1.
         11    1    4    4    0    0  0.82330292385E+01  0.15577195670E+02 -0.26319270364E+01  0.17814568071E+02  0.51100000000E-03 0. -1.
        -11    1    4    4    0    0  0.94895896632E+01  0.60923018663E+01  0.98138973402E+01  0.14949282099E+02  0.51100000000E-03 0.  1.
         12    1    4    4    0    0  0.11233991908E+02  0.64347682201E+01 -0.12164983984E+02  0.17765012006E+02  0.00000000000E+00 0. -1.
</event>
<event>
 8    1  0.4964753E-012  0.9118800E+02  0.7816164E-02  0.1184000E+00
        -11   -1    0    0    0    0  0.00000000000E+00  0.00000000000E+00  0.45593999997E+02  0.45594000000E+02  0.51100000000E-03 0. -1.
         11   -1    0    0    0    0 -0.00000000000E+00 -0.00000000000E+00 -0.45593999997E+02  0.45594000000E+02  0.51100000000E-03 0.  1.
         23    2    1    2    0    0  0.00000000000E+00 -0.17763568394E-14  0.00000000000E+00  0.91188000000E+02  0.91188000000E+02 0.  0.
    9900012    2    3    3    0    0 -0.18897999753E+02 -0.58985528440E+01 -0.35513913623E+02  0.50528863498E+02  0.30000011087E+02 0.  0.
         12    1    3    3    0    0  0.18897999753E+02  0.58985528440E+01  0.35513913623E+02  0.40659136502E+02  0.00000000000E+00 0. -1.
         11    1    4    4    0    0 -0.80279997007E+00  0.61513731770E+01 -0.59991509500E+01  0.86298141426E+01  0.51100000000E-03 0. -1.
        -11    1    4    4    0    0 -0.17465250526E+02  0.56310669176E-01 -0.15320580458E+02  0.23232699642E+02  0.51100000000E-03 0.  1.
        -12    1    4    4    0    0 -0.62994925708E+00 -0.12106236690E+02 -0.14194182215E+02  0.18666349713E+02  0.00000000000E+00 0.  1.
</event>
<event>
 8    1  0.4964753E-012  0.9118800E+02  0.7816164E-02  0.1184000E+00
        -11   -1    0    0    0    0  0.00000000000E+00  0.00000000000E+00  0.45593999997E+02  0.45594000000E+02  0.51100000000E-03 0. -1.
         11   -1    0    0    0    0 -0.00000000000E+00 -0.00000000000E+00 -0.45593999997E+02  0.45594000000E+02  0.51100000000E-03 0.  1.
         23    2    1    2    0    0  0.00000000000E+00  0.00000000000E+00 -0.71054273576E-14  0.91188000000E+02  0.91188000000E+02 0.  0.
    9900012    2    3    3    0    0  0.23505286146E+02 -0.64463358186E+01  0.32543985962E+02  0.50528871325E+02  0.30000034879E+02 0.  0.
        -12    1    3    3    0    0 -0.23505286146E+02  0.64463358186E+01 -0.32543985962E+02  0.40659128675E+02  0.00000000000E+00 0.  1.
         11    1    4    4    0    0  0.12653575414E+02  0.43607763111E+01  0.24152004180E+02  0.27612472670E+02  0.51100000000E-03 0. -1.
        -11    1    4    4    0    0  0.11245773517E+02 -0.11631410188E+01  0.24062257722E+01  0.11558989651E+02  0.51100000000E-03 0.  1.
         12    1    4    4    0    0 -0.39406278376E+00 -0.96439711109E+01  0.59857560097E+01  0.11357409004E+02  0.00000000000E+00 0. -1.
</event>
<event>
 8    1  0.4964753E-012  0.9118800E+02  0.7816164E-02  0.1184000E+00
        -11   -1    0    0    0    0  0.00000000000E+00  0.00000000000E+00  0.45593999997E+02  0.45594000000E+02  0.51100000000E-03 0. -1.
         11   -1    0    0    0    0 -0.00000000000E+00 -0.00000000000E+00 -0.45593999997E+02  0.45594000000E+02  0.51100000000E-03 0.  1.
         23    2    1    2    0    0  0.35527136788E-14  0.00000000000E+00 -0.35527136788E-14  0.91188000000E+02  0.91188000000E+02 0.  0.
    9900012    2    3    3    0    0  0.27033124606E+02 -0.20415771051E+02 -0.22484932742E+02  0.50528859158E+02  0.29999997898E+02 0.  0.
         12    1    3    3    0    0 -0.27033124606E+02  0.20415771051E+02  0.22484932742E+02  0.40659140842E+02  0.00000000000E+00 0. -1.
         11    1    4    4    0    0 -0.29250070252E+01 -0.26033216889E+01 -0.46446359846E+01  0.60749974159E+01  0.51100000000E-03 0. -1.
        -11    1    4    4    0    0  0.19683405077E+02 -0.13070425848E+02 -0.22109647497E+02  0.32359063336E+02  0.51100000000E-03 0.  1.
        -12    1    4    4    0    0  0.10274726553E+02 -0.47420235142E+01  0.42693507393E+01  0.12094798406E+02  0.00000000000E+00 0.  1.
</event>
<event>
 8    1  0.4964753E-012  0.9118800E+02  0.7816164E-02  0.1184000E+00
        -11   -1    0    0    0    0  0.00000000000E+00  0.00000000000E+00  0.45593999997E+02  0.45594000000E+02  0.51100000000E-03 0. -1.
         11   -1    0    0    0    0 -0.00000000000E+00 -0.00000000000E+00 -0.45593999997E+02  0.45594000000E+02  0.51100000000E-03 0.  1.
         23    2    1    2    0    0  0.17763568394E-14 -0.35527136788E-14  0.00000000000E+00  0.91188000000E+02  0.91188000000E+02 0.  0.
    9900012    2    3    3    0    0  0.97516511222E+01 -0.22126462230E+02  0.32687767819E+02  0.50528865781E+02  0.30000018027E+02 0.  0.
        -12    1    3    3    0    0 -0.97516511222E+01  0.22126462230E+02 -0.32687767819E+02  0.40659134219E+02  0.00000000000E+00 0.  1.
         11    1    4    4    0    0  0.51277898065E+01 -0.14275697837E+02  0.22720288219E+02  0.27318515224E+02  0.51100000000E-03 0. -1.
        -11    1    4    4    0    0 -0.38075795366E+01 -0.30471460411E+01  0.12298825688E+02  0.13230414751E+02  0.51100000000E-03 0.  1.
         12    1    4    4    0    0  0.84314408523E+01 -0.48036183519E+01 -0.23313460867E+01  0.99799358060E+01  0.00000000000E+00 0. -1.
</event>
<event>
 8    1  0.4964753E-012  0.9118800E+02  0.7816164E-02  0.1184000E+00
        -11   -1    0    0    0    0  0.00000000000E+00  0.00000000000E+00  0.45593999997E+02  0.45594000000E+02  0.51100000000E-03 0. -1.
         11   -1    0    0    0    0 -0.00000000000E+00 -0.00000000000E+00 -0.45593999997E+02  0.45594000000E+02  0.51100000000E-03 0.  1.
         23    2    1    2    0    0  0.00000000000E+00  0.35527136788E-14  0.00000000000E+00  0.91188000000E+02  0.91188000000E+02 0.  0.
    9900012    2    3    3    0    0  0.25150833020E+01  0.15600431666E+02 -0.37462862114E+02  0.50528866340E+02  0.30000019728E+02 0.  0.
         12    1    3    3    0    0 -0.25150833020E+01 -0.15600431666E+02  0.37462862114E+02  0.40659133660E+02  0.00000000000E+00 0. -1.
         11    1    4    4    0    0  0.58903100505E+01 -0.37688803130E+01 -0.84177026013E+01  0.10943396577E+02  0.51100000000E-03 0. -1.
        -11    1    4    4    0    0 -0.34093690675E+01  0.17961724094E+00 -0.16051261033E+02  0.16410333354E+02  0.51100000000E-03 0.  1.
         12    1    4    4    0    0  0.34142319055E-01  0.19189694738E+02 -0.12993898480E+02  0.23175136409E+02  0.00000000000E+00 0. -1.
</event>
<event>
 8    1  0.4964753E-012  0.9118800E+02  0.7816164E-02  0.1184000E+00
        -11   -1    0    0    0    0  0.00000000000E+00  0.00000000000E+00  0.45593999997E+02  0.45594000000E+02  0.51100000000E-03 0. -1.
         11   -1    0    0    0    0 -0.00000000000E+00 -0.00000000000E+00 -0.45593999997E+02  0.45594000000E+02  0.51100000000E-03 0.  1.
         23    2    1    2    0    0  0.00000000000E+00  0.00000000000E+00  0.00000000000E+00  0.91188000000E+02  0.91188000000E+02 0.  0.
    9900012    2    3    3    0    0 -0.32988424407E+02 -0.22276913353E+02 -0.82866759246E+01  0.50528855749E+02  0.29999987533E+02 0.  0.
         12    1    3    3    0    0  0.32988424407E+02  0.22276913353E+02  0.82866759246E+01  0.40659144251E+02  0.00000000000E+00 0. -1.
         11    1    4    4    0    0 -0.13094599305E+02 -0.14907073999E+02 -0.91675008200E+00  0.19862774658E+02  0.51100000000E-03 0. -1.
        -11    1    4    4    0    0 -0.71323589803E+01 -0.10246905431E+02 -0.11473146063E+02  0.16955904470E+02  0.51100000000E-03 0.  1.
        -12    1    4    4    0    0 -0.12761466122E+02  0.28770660765E+01  0.41032202209E+01  0.13710176621E+02  0.00000000000E+00 0.  1.
</event>
<event>
 8    1  0.4964753E-012  0.9118800E+02  0.7816164E-02  0.1184000E+00
        -11   -1    0    0    0    0  0.00000000000E+00  0.00000000000E+00  0.45593999997E+02  0.45594000000E+02  0.51100000000E-03 0. -1.
         11   -1    0    0    0    0 -0.00000000000E+00 -0.00000000000E+00 -0.45593999997E+02  0.45594000000E+02  0.51100000000E-03 0.  1.
         23    2    1    2    0    0 -0.88817841970E-15  0.00000000000E+00 -0.71054273576E-14  0.91188000000E+02  0.91188000000E+02 0.  0.
    9900012    2    3    3    0    0 -0.47954116555E+01 -0.13861121271E+02 -0.37921482457E+02  0.50528862189E+02  0.30000007109E+02 0.  0.
         12    1    3    3    0    0  0.47954116555E+01  0.13861121271E+02  0.37921482457E+02  0.40659137811E+02  0.00000000000E+00 0. -1.
         11    1    4    4    0    0  0.11293046872E+01 -0.86197280219E+01 -0.27130887583E+01  0.91069144676E+01  0.51100000000E-03 0. -1.
        -11    1    4    4    0    0  0.76256199484E+00  0.44332011930E+01 -0.21318107937E+00  0.45033565312E+01  0.51100000000E-03 0.  1.
        -12    1    4    4    0    0 -0.66872783375E+01 -0.96745944419E+01 -0.34995212619E+02  0.36918591190E+02  0.00000000000E+00 0.  1.
</event>
<event>
 8    1  0.4964753E-012  0.9118800E+02  0.7816164E-02  0.1184000E+00
        -11   -1    0    0    0    0  0.00000000000E+00  0.00000000000E+00  0.45593999997E+02  0.45594000000E+02  0.51100000000E-03 0. -1.
         11   -1    0    0    0    0 -0.00000000000E+00 -0.00000000000E+00 -0.45593999997E+02  0.45594000000E+02  0.51100000000E-03 0.  1.
         23    2    1    2    0    0  0.00000000000E+00  0.35527136788E-14  0.35527136788E-14  0.91188000000E+02  0.91188000000E+02 0.  0.
    9900012    2    3    3    0    0  0.80628918082E+01  0.25162792660E+02  0.30902899365E+02  0.50528861446E+02  0.30000004852E+02 0.  0.
        -12    1    3    3    0    0 -0.80628918082E+01 -0.25162792660E+02 -0.30902899365E+02  0.40659138554E+02  0.00000000000E+00 0.  1.
         11    1    4    4    0    0  0.57969506538E+01  0.15562098529E+02  0.13593873630E+02  0.21461056545E+02  0.51100000000E-03 0. -1.
        -11    1    4    4    0    0  0.14429166025E+01  0.11875986843E+02  0.38272443348E+00  0.11969442346E+02  0.51100000000E-03 0.  1.
         12    1    4    4    0    0  0.82302455188E+00 -0.22752927112E+01  0.16926301301E+02  0.17098362555E+02  0.00000000000E+00 0. -1.
</event>
<event>
 8    1  0.4964753E-012  0.9118800E+02  0.7816164E-02  0.1184000E+00
        -11   -1    0    0    0    0  0.00000000000E+00  0.00000000000E+00  0.45593999997E+02  0.45594000000E+02  0.51100000000E-03 0.  1.
         11   -1    0    0    0    0 -0.00000000000E+00 -0.00000000000E+00 -0.45593999997E+02  0.45594000000E+02  0.51100000000E-03 0. -1.
         23    2    1    2    0    0  0.35527136788E-14  0.35527136788E-14  0.00000000000E+00  0.91188000000E+02  0.91188000000E+02 0.  0.
    9900012    2    3    3    0    0  0.25252541117E+02  0.17390801135E+02 -0.26702681933E+02  0.50528880243E+02  0.30000061987E+02 0.  0.
         12    1    3    3    0    0 -0.25252541117E+02 -0.17390801135E+02  0.26702681933E+02  0.40659119757E+02  0.00000000000E+00 0. -1.
         11    1    4    4    0    0 -0.23219515399E+01 -0.12181058929E+01 -0.21071208198E+01  0.33638072672E+01  0.51100000000E-03 0. -1.
        -11    1    4    4    0    0  0.20499689985E+02  0.10409952161E+02 -0.32372436817E+01  0.23218185553E+02  0.51100000000E-03 0.  1.
         12    1    4    4    0    0  0.70748026727E+01  0.81989548670E+01 -0.21358317431E+02  0.23946887423E+02  0.00000000000E+00 0. -1.
</event>
<event>
 8    1  0.4964753E-012  0.9118800E+02  0.7816164E-02  0.1184000E+00
        -11   -1    0    0    0    0  0.00000000000E+00  0.00000000000E+00  0.45593999997E+02  0.45594000000E+02  0.51100000000E-03 0. -1.
         11   -1    0    0    0    0 -0.00000000000E+00 -0.00000000000E+00 -0.45593999997E+02  0.45594000000E+02  0.51100000000E-03 0.  1.
         23    2    1    2    0    0  0.00000000000E+00 -0.35527136788E-14  0.00000000000E+00  0.91188000000E+02  0.91188000000E+02 0.  0.
    9900012    2    3    3    0    0 -0.12124025821E+02  0.24151344297E+02  0.30379054147E+02  0.50528851406E+02  0.29999974335E+02 0.  0.
        -12    1    3    3    0    0  0.12124025821E+02 -0.24151344297E+02 -0.30379054147E+02  0.40659148594E+02  0.00000000000E+00 0.  1.
         11    1    4    4    0    0 -0.47322253871E+01  0.90095641130E+01  0.19733178330E+02  0.22202804550E+02  0.51100000000E-03 0. -1.
        -11    1    4    4    0    0 -0.41866360438E+00  0.17961710603E+02  0.10485690089E+02  0.20802596566E+02  0.51100000000E-03 0.  1.
        -12    1    4    4    0    0 -0.69731368297E+01 -0.28199304182E+01  0.16018572842E+00  0.75234502907E+01  0.00000000000E+00 0.  1.
</event>
<event>
 8    1  0.4964753E-012  0.9118800E+02  0.7816164E-02  0.1184000E+00
        -11   -1    0    0    0    0  0.00000000000E+00  0.00000000000E+00  0.45593999997E+02  0.45594000000E+02  0.51100000000E-03 0. -1.
         11   -1    0    0    0    0 -0.00000000000E+00 -0.00000000000E+00 -0.45593999997E+02  0.45594000000E+02  0.51100000000E-03 0.  1.
         23    2    1    2    0    0  0.00000000000E+00  0.88817841970E-15  0.00000000000E+00  0.91188000000E+02  0.91188000000E+02 0.  0.
    9900012    2    3    3    0    0 -0.30459248572E+02 -0.69656746895E+01 -0.26016914395E+02  0.50528852418E+02  0.29999977410E+02 0.  0.
         12    1    3    3    0    0  0.30459248572E+02  0.69656746895E+01  0.26016914395E+02  0.40659147582E+02  0.00000000000E+00 0. -1.
         11    1    4    4    0    0  0.90765976505E+00 -0.82606579570E+01 -0.53201240934E+00  0.83273857600E+01  0.51100000000E-03 0. -1.
        -11    1    4    4    0    0 -0.56727729126E+01 -0.41730895300E+01 -0.31261293927E+01  0.77050447100E+01  0.51100000000E-03 0.  1.
        -12    1    4    4    0    0 -0.25694135424E+02  0.54680727975E+01 -0.22358772593E+02  0.34496421948E+02  0.00000000000E+00 0.  1.
</event>
<event>
 8    1  0.4964753E-012  0.9118800E+02  0.7816164E-02  0.1184000E+00
        -11   -1    0    0    0    0  0.00000000000E+00  0.00000000000E+00  0.45593999997E+02  0.45594000000E+02  0.51100000000E-03 0. -1.
         11   -1    0    0    0    0 -0.00000000000E+00 -0.00000000000E+00 -0.45593999997E+02  0.45594000000E+02  0.51100000000E-03 0.  1.
         23    2    1    2    0    0 -0.17763568394E-14  0.17763568394E-14  0.00000000000E+00  0.91188000000E+02  0.91188000000E+02 0.  0.
    9900012    2    3    3    0    0 -0.14398842878E+02  0.14603305456E+02  0.35108150721E+02  0.50528862607E+02  0.30000008380E+02 0.  0.
        -12    1    3    3    0    0  0.14398842878E+02 -0.14603305456E+02 -0.35108150721E+02  0.40659137393E+02  0.00000000000E+00 0.  1.
         11    1    4    4    0    0 -0.64570351513E+01  0.15810132676E+02  0.27229146560E+02  0.32141562202E+02  0.51100000000E-03 0. -1.
        -11    1    4    4    0    0 -0.46587891130E+01 -0.33871256328E+01  0.11610013578E+02  0.12960299055E+02  0.51100000000E-03 0.  1.
        -12    1    4    4    0    0 -0.32830186137E+01  0.21802984132E+01 -0.37310094162E+01  0.54270013499E+01  0.00000000000E+00 0.  1.
</event>
<event>
 8    1  0.4964753E-012  0.9118800E+02  0.7816164E-02  0.1184000E+00
        -11   -1    0    0    0    0  0.00000000000E+00  0.00000000000E+00  0.45593999997E+02  0.45594000000E+02  0.51100000000E-03 0. -1.
         11   -1    0    0    0    0 -0.00000000000E+00 -0.00000000000E+00 -0.45593999997E+02  0.45594000000E+02  0.51100000000E-03 0.  1.
         23    2    1    2    0    0  0.17763568394E-14  0.00000000000E+00  0.00000000000E+00  0.91188000000E+02  0.91188000000E+02 0.  0.
    9900012    2    3    3    0    0  0.96866834395E+01 -0.83471914448E+01  0.38596091248E+02  0.50528859568E+02  0.29999999143E+02 0.  0.
        -12    1    3    3    0    0 -0.96866834395E+01  0.83471914448E+01 -0.38596091248E+02  0.40659140432E+02  0.00000000000E+00 0.  1.
         11    1    4    4    0    0  0.13735238714E+02 -0.10563961110E+02  0.33901868491E+02  0.38073491360E+02  0.51100000000E-03 0. -1.
        -11    1    4    4    0    0 -0.11303058508E+01 -0.42610554032E+01  0.14119054130E+01  0.46290022275E+01  0.51100000000E-03 0.  1.
        -12    1    4    4    0    0 -0.29182494241E+01  0.64778250683E+01  0.32823173434E+01  0.78263659804E+01  0.00000000000E+00 0.  1.
</event>
<event>
 8    1  0.4964753E-012  0.9118800E+02  0.7816164E-02  0.1184000E+00
        -11   -1    0    0    0    0  0.00000000000E+00  0.00000000000E+00  0.45593999997E+02  0.45594000000E+02  0.51100000000E-03 0. -1.
         11   -1    0    0    0    0 -0.00000000000E+00 -0.00000000000E+00 -0.45593999997E+02  0.45594000000E+02  0.51100000000E-03 0.  1.
         23    2    1    2    0    0  0.00000000000E+00 -0.35527136788E-14  0.00000000000E+00  0.91188000000E+02  0.91188000000E+02 0.  0.
    9900012    2    3    3    0    0 -0.29074791863E+02  0.25666064220E+02  0.12209750071E+02  0.50528826727E+02  0.29999899318E+02 0.  0.
        -12    1    3    3    0    0  0.29074791863E+02 -0.25666064220E+02 -0.12209750071E+02  0.40659173273E+02  0.00000000000E+00 0.  1.
         11    1    4    4    0    0 -0.78531561901E+00  0.50668261117E+01  0.48211888551E+01  0.70379904593E+01  0.51100000000E-03 0. -1.
        -11    1    4    4    0    0 -0.28115260064E+02  0.13343521545E+02  0.13576240743E+02  0.33953375806E+02  0.51100000000E-03 0.  1.
        -12    1    4    4    0    0 -0.17421618087E+00  0.72557165631E+01 -0.61876795267E+01  0.95374604611E+01  0.00000000000E+00 0.  1.
</event>
<event>
 8    1  0.4964753E-012  0.9118800E+02  0.7816164E-02  0.1184000E+00
        -11   -1    0    0    0    0  0.00000000000E+00  0.00000000000E+00  0.45593999997E+02  0.45594000000E+02  0.51100000000E-03 0. -1.
         11   -1    0    0    0    0 -0.00000000000E+00 -0.00000000000E+00 -0.45593999997E+02  0.45594000000E+02  0.51100000000E-03 0.  1.
         23    2    1    2    0    0 -0.22204460493E-15  0.17763568394E-14  0.00000000000E+00  0.91188000000E+02  0.91188000000E+02 0.  0.
    9900012    2    3    3    0    0 -0.16342687478E+01 -0.14569806373E+02  0.37923808411E+02  0.50528864046E+02  0.30000012755E+02 0.  0.
        -12    1    3    3    0    0  0.16342687478E+01  0.14569806373E+02 -0.37923808411E+02  0.40659135954E+02  0.00000000000E+00 0.  1.
         11    1    4    4    0    0 -0.39854459732E+01 -0.30016994261E+01  0.12421337274E+02  0.13385947818E+02  0.51100000000E-03 0. -1.
        -11    1    4    4    0    0 -0.16527654495E+01 -0.18142022010E+02  0.12708471490E+02  0.22211930220E+02  0.51100000000E-03 0.  1.
        -12    1    4    4    0    0  0.40039426749E+01  0.65739150626E+01  0.12793999647E+02  0.14930986008E+02  0.00000000000E+00 0.  1.
</event>
<event>
 8    1  0.4964753E-012  0.9118800E+02  0.7816164E-02  0.1184000E+00
        -11   -1    0    0    0    0  0.00000000000E+00  0.00000000000E+00  0.45593999997E+02  0.45594000000E+02  0.51100000000E-03 0.  1.
         11   -1    0    0    0    0 -0.00000000000E+00 -0.00000000000E+00 -0.45593999997E+02  0.45594000000E+02  0.51100000000E-03 0. -1.
         23    2    1    2    0    0 -0.71054273576E-14  0.00000000000E+00  0.00000000000E+00  0.91188000000E+02  0.91188000000E+02 0.  0.
    9900012    2    3    3    0    0  0.28893245549E+02 -0.19490918630E+02 -0.20939218318E+02  0.50528850831E+02  0.29999972586E+02 0.  0.
         12    1    3    3    0    0 -0.28893245549E+02  0.19490918630E+02  0.20939218318E+02  0.40659149169E+02  0.00000000000E+00 0. -1.
         11    1    4    4    0    0  0.11155002946E+02 -0.10704561120E+01 -0.12420806624E+02  0.16728909243E+02  0.51100000000E-03 0. -1.
        -11    1    4    4    0    0  0.13377527107E+02 -0.40666316219E-02 -0.93050391272E+00  0.13409850328E+02  0.51100000000E-03 0.  1.
        -12    1    4    4    0    0  0.43607154957E+01 -0.18416395887E+02 -0.75879077812E+01  0.20390091260E+02  0.00000000000E+00 0.  1.
</event>
<event>
 8    1  0.4964753E-012  0.9118800E+02  0.7816164E-02  0.1184000E+00
        -11   -1    0    0    0    0  0.00000000000E+00  0.00000000000E+00  0.45593999997E+02  0.45594000000E+02  0.51100000000E-03 0. -1.
         11   -1    0    0    0    0 -0.00000000000E+00 -0.00000000000E+00 -0.45593999997E+02  0.45594000000E+02  0.51100000000E-03 0.  1.
         23    2    1    2    0    0 -0.35527136788E-14  0.00000000000E+00  0.00000000000E+00  0.91188000000E+02  0.91188000000E+02 0.  0.
    9900012    2    3    3    0    0 -0.16672902887E+02  0.28529468307E+01  0.36973501106E+02  0.50528870885E+02  0.30000033543E+02 0.  0.
        -12    1    3    3    0    0  0.16672902887E+02 -0.28529468307E+01 -0.36973501106E+02  0.40659129115E+02  0.00000000000E+00 0.  1.
         11    1    4    4    0    0 -0.12361373498E+01 -0.45612913928E+01  0.17160943279E+02  0.17799758122E+02  0.51100000000E-03 0. -1.
        -11    1    4    4    0    0 -0.64004547754E+01  0.12855936224E+02  0.16032394762E+02  0.21523907628E+02  0.51100000000E-03 0.  1.
         12    1    4    4    0    0 -0.90363107621E+01 -0.54416980005E+01  0.37801630656E+01  0.11205205135E+02  0.00000000000E+00 0. -1.
</event>
<event>
 8    1  0.4964753E-012  0.9118800E+02  0.7816164E-02  0.1184000E+00
        -11   -1    0    0    0    0  0.00000000000E+00  0.00000000000E+00  0.45593999997E+02  0.45594000000E+02  0.51100000000E-03 0. -1.
         11   -1    0    0    0    0 -0.00000000000E+00 -0.00000000000E+00 -0.45593999997E+02  0.45594000000E+02  0.51100000000E-03 0.  1.
         23    2    1    2    0    0 -0.88817841970E-15  0.11102230246E-14  0.00000000000E+00  0.91188000000E+02  0.91188000000E+02 0.  0.
    9900012    2    3    3    0    0 -0.58945451989E+01 -0.12841077954E+01  0.40209092701E+02  0.50528859186E+02  0.29999997982E+02 0.  0.
        -12    1    3    3    0    0  0.58945451989E+01  0.12841077954E+01 -0.40209092701E+02  0.40659140814E+02  0.00000000000E+00 0.  1.
         11    1    4    4    0    0  0.88684969622E+01 -0.48476316877E+01  0.33857786625E+01  0.10658952517E+02  0.51100000000E-03 0. -1.
        -11    1    4    4    0    0 -0.12260606329E+01  0.21726473608E-01  0.20777899540E+01  0.24126558124E+01  0.51100000000E-03 0.  1.
         12    1    4    4    0    0 -0.13536981528E+02  0.35417974187E+01  0.34745524084E+02  0.37457250857E+02  0.00000000000E+00 0. -1.
</event>
<event>
 8    1  0.4964753E-012  0.9118800E+02  0.7816164E-02  0.1184000E+00
        -11   -1    0    0    0    0  0.00000000000E+00  0.00000000000E+00  0.45593999997E+02  0.45594000000E+02  0.51100000000E-03 0. -1.
         11   -1    0    0    0    0 -0.00000000000E+00 -0.00000000000E+00 -0.45593999997E+02  0.45594000000E+02  0.51100000000E-03 0.  1.
         23    2    1    2    0    0  0.00000000000E+00  0.00000000000E+00 -0.88817841970E-15  0.91188000000E+02  0.91188000000E+02 0.  0.
    9900012    2    3    3    0    0  0.10451908511E+02 -0.38879697496E+02 -0.56827272352E+01  0.50528847798E+02  0.29999963368E+02 0.  0.
         12    1    3    3    0    0 -0.10451908511E+02  0.38879697496E+02  0.56827272352E+01  0.40659152202E+02  0.00000000000E+00 0. -1.
         11    1    4    4    0    0 -0.48000005247E+01 -0.14405079969E+02  0.30455463046E+01  0.15486177272E+02  0.51100000000E-03 0. -1.
        -11    1    4    4    0    0  0.13901572557E+01 -0.10126395230E+02 -0.10937673129E+02  0.14970274255E+02  0.51100000000E-03 0.  1.
         12    1    4    4    0    0  0.13861751780E+02 -0.14348222297E+02  0.22093995891E+01  0.20072396271E+02  0.00000000000E+00 0. -1.
</event>
<event>
 8    1  0.4964753E-012  0.9118800E+02  0.7816164E-02  0.1184000E+00
        -11   -1    0    0    0    0  0.00000000000E+00  0.00000000000E+00  0.45593999997E+02  0.45594000000E+02  0.51100000000E-03 0. -1.
         11   -1    0    0    0    0 -0.00000000000E+00 -0.00000000000E+00 -0.45593999997E+02  0.45594000000E+02  0.51100000000E-03 0.  1.
         23    2    1    2    0    0 -0.17763568394E-14  0.00000000000E+00  0.00000000000E+00  0.91188000000E+02  0.91188000000E+02 0.  0.
    9900012    2    3    3    0    0 -0.13718318318E+02 -0.32892142485E+02  0.19572455064E+02  0.50528852297E+02  0.29999977041E+02 0.  0.
        -12    1    3    3    0    0  0.13718318318E+02  0.32892142485E+02 -0.19572455064E+02  0.40659147703E+02  0.00000000000E+00 0.  1.
         11    1    4    4    0    0 -0.51005594763E+01 -0.17809712976E+02  0.24377683655E+01  0.18685403344E+02  0.51100000000E-03 0. -1.
        -11    1    4    4    0    0  0.16073896915E+01 -0.40687566619E+01 -0.39882485777E+01  0.59198487626E+01  0.51100000000E-03 0.  1.
        -12    1    4    4    0    0 -0.10225148533E+02 -0.11013672847E+02  0.21122935277E+02  0.25923600190E+02  0.00000000000E+00 0.  1.
</event>
<event>
 8    1  0.4964753E-012  0.9118800E+02  0.7816164E-02  0.1184000E+00
        -11   -1    0    0    0    0  0.00000000000E+00  0.00000000000E+00  0.45593999997E+02  0.45594000000E+02  0.51100000000E-03 0. -1.
         11   -1    0    0    0    0 -0.00000000000E+00 -0.00000000000E+00 -0.45593999997E+02  0.45594000000E+02  0.51100000000E-03 0.  1.
         23    2    1    2    0    0 -0.35527136788E-14  0.00000000000E+00  0.00000000000E+00  0.91188000000E+02  0.91188000000E+02 0.  0.
    9900012    2    3    3    0    0 -0.22087049737E+02  0.35100222182E+01  0.33955961730E+02  0.50528863769E+02  0.30000011912E+02 0.  0.
        -12    1    3    3    0    0  0.22087049737E+02 -0.35100222182E+01 -0.33955961730E+02  0.40659136231E+02  0.00000000000E+00 0.  1.
         11    1    4    4    0    0 -0.59645143619E+00  0.38740739897E+01 -0.36178106918E+00  0.39363802403E+01  0.51100000000E-03 0. -1.
        -11    1    4    4    0    0  0.47908668915E+01 -0.19659973980E+01  0.53214305452E+01  0.74253063674E+01  0.51100000000E-03 0.  1.
         12    1    4    4    0    0 -0.26281465192E+02  0.16019456266E+01  0.28996312254E+02  0.39167177161E+02  0.00000000000E+00 0. -1.
</event>
<event>
 8    1  0.4964753E-012  0.9118800E+02  0.7816164E-02  0.1184000E+00
        -11   -1    0    0    0    0  0.00000000000E+00  0.00000000000E+00  0.45593999997E+02  0.45594000000E+02  0.51100000000E-03 0. -1.
         11   -1    0    0    0    0 -0.00000000000E+00 -0.00000000000E+00 -0.45593999997E+02  0.45594000000E+02  0.51100000000E-03 0.  1.
         23    2    1    2    0    0  0.00000000000E+00  0.00000000000E+00  0.00000000000E+00  0.91188000000E+02  0.91188000000E+02 0.  0.
    9900012    2    3    3    0    0  0.22199045271E+02  0.19934951703E+02  0.27621735074E+02  0.50528927718E+02  0.30000206289E+02 0.  0.
        -12    1    3    3    0    0 -0.22199045271E+02 -0.19934951703E+02 -0.27621735074E+02  0.40659072282E+02  0.00000000000E+00 0.  1.
         11    1    4    4    0    0  0.60189818034E+01  0.78843745971E+01  0.16866385709E+02  0.19566974009E+02  0.51100000000E-03 0. -1.
        -11    1    4    4    0    0  0.18095039670E+01  0.14242440927E+02  0.38251569182E+01  0.14857767460E+02  0.51100000000E-03 0.  1.
        -12    1    4    4    0    0  0.14370559501E+02 -0.21918638213E+01  0.69301924473E+01  0.16104186249E+02  0.00000000000E+00 0.  1.
</event>
<event>
 8    1  0.4964753E-012  0.9118800E+02  0.7816164E-02  0.1184000E+00
        -11   -1    0    0    0    0  0.00000000000E+00  0.00000000000E+00  0.45593999997E+02  0.45594000000E+02  0.51100000000E-03 0. -1.
         11   -1    0    0    0    0 -0.00000000000E+00 -0.00000000000E+00 -0.45593999997E+02  0.45594000000E+02  0.51100000000E-03 0.  1.
         23    2    1    2    0    0  0.00000000000E+00 -0.35527136788E-14  0.00000000000E+00  0.91188000000E+02  0.91188000000E+02 0.  0.
    9900012    2    3    3    0    0 -0.23258168040E+02 -0.26360082152E+02  0.20429620340E+02  0.50528859590E+02  0.29999999210E+02 0.  0.
        -12    1    3    3    0    0  0.23258168040E+02  0.26360082152E+02 -0.20429620340E+02  0.40659140410E+02  0.00000000000E+00 0.  1.
         11    1    4    4    0    0 -0.99071962794E+01 -0.25583151123E+02  0.60328056179E+01  0.28089943101E+02  0.51100000000E-03 0. -1.
        -11    1    4    4    0    0 -0.28256365446E+01 -0.59177201105E+00  0.11007500200E+02  0.11379783693E+02  0.51100000000E-03 0.  1.
        -12    1    4    4    0    0 -0.10525335216E+02 -0.18515901803E+00  0.33893145220E+01  0.11059132796E+02  0.00000000000E+00 0.  1.
</event>
<event>
 8    1  0.4964753E-012  0.9118800E+02  0.7816164E-02  0.1184000E+00
        -11   -1    0    0    0    0  0.00000000000E+00  0.00000000000E+00  0.45593999997E+02  0.45594000000E+02  0.51100000000E-03 0. -1.
         11   -1    0    0    0    0 -0.00000000000E+00 -0.00000000000E+00 -0.45593999997E+02  0.45594000000E+02  0.51100000000E-03 0.  1.
         23    2    1    2    0    0 -0.88817841970E-15 -0.71054273576E-14  0.00000000000E+00  0.91188000000E+02  0.91188000000E+02 0.  0.
    9900012    2    3    3    0    0  0.42004234768E+01  0.32446090736E+02  0.24140697126E+02  0.50528860570E+02  0.30000002188E+02 0.  0.
        -12    1    3    3    0    0 -0.42004234768E+01 -0.32446090736E+02 -0.24140697126E+02  0.40659139430E+02  0.00000000000E+00 0.  1.
         11    1    4    4    0    0  0.76057720893E+01  0.94205185755E+01  0.11356420954E+02  0.16600067363E+02  0.51100000000E-03 0. -1.
        -11    1    4    4    0    0 -0.67149434299E+01  0.19070171088E+02  0.17650201512E+02  0.26838247042E+02  0.51100000000E-03 0.  1.
        -12    1    4    4    0    0  0.33095948174E+01  0.39554010732E+01 -0.48659253404E+01  0.70905461654E+01  0.00000000000E+00 0.  1.
</event>
<event>
 8    1  0.4964753E-012  0.9118800E+02  0.7816164E-02  0.1184000E+00
        -11   -1    0    0    0    0  0.00000000000E+00  0.00000000000E+00  0.45593999997E+02  0.45594000000E+02  0.51100000000E-03 0. -1.
         11   -1    0    0    0    0 -0.00000000000E+00 -0.00000000000E+00 -0.45593999997E+02  0.45594000000E+02  0.51100000000E-03 0.  1.
         23    2    1    2    0    0  0.35527136788E-14  0.35527136788E-14  0.00000000000E+00  0.91188000000E+02  0.91188000000E+02 0.  0.
    9900012    2    3    3    0    0  0.25664521470E+02  0.22062584039E+02 -0.22533103051E+02  0.50528855765E+02  0.29999987584E+02 0.  0.
         12    1    3    3    0    0 -0.25664521470E+02 -0.22062584039E+02  0.22533103051E+02  0.40659144235E+02  0.00000000000E+00 0. -1.
         11    1    4    4    0    0  0.69329919820E+01  0.90603099274E+01  0.62216616706E+01  0.12994793881E+02  0.51100000000E-03 0. -1.
        -11    1    4    4    0    0  0.56798226828E+01  0.10409163159E+01 -0.37087964475E+01  0.68628757700E+01  0.51100000000E-03 0.  1.
         12    1    4    4    0    0  0.13051706806E+02  0.11961357796E+02 -0.25045968274E+02  0.30671186114E+02  0.00000000000E+00 0. -1.
</event>
<event>
 8    1  0.4964753E-012  0.9118800E+02  0.7816164E-02  0.1184000E+00
        -11   -1    0    0    0    0  0.00000000000E+00  0.00000000000E+00  0.45593999997E+02  0.45594000000E+02  0.51100000000E-03 0. -1.
         11   -1    0    0    0    0 -0.00000000000E+00 -0.00000000000E+00 -0.45593999997E+02  0.45594000000E+02  0.51100000000E-03 0.  1.
         23    2    1    2    0    0  0.00000000000E+00  0.00000000000E+00  0.00000000000E+00  0.91188000000E+02  0.91188000000E+02 0.  0.
    9900012    2    3    3    0    0  0.13821486239E+02  0.26826812391E+02 -0.27248009148E+02  0.50528863911E+02  0.30000012345E+02 0.  0.
         12    1    3    3    0    0 -0.13821486239E+02 -0.26826812391E+02  0.27248009148E+02  0.40659136089E+02  0.00000000000E+00 0. -1.
         11    1    4    4    0    0 -0.80958494016E+01  0.51531182754E+01 -0.13807495392E+01  0.96955595530E+01  0.51100000000E-03 0. -1.
        -11    1    4    4    0    0  0.54902108058E+01  0.99587736441E+01 -0.82695993540E+01  0.14060791618E+02  0.51100000000E-03 0.  1.
        -12    1    4    4    0    0  0.16427124835E+02  0.11714920472E+02 -0.17597660255E+02  0.26772512741E+02  0.00000000000E+00 0.  1.
</event>
<event>
 8    1  0.4964753E-012  0.9118800E+02  0.7816164E-02  0.1184000E+00
        -11   -1    0    0    0    0  0.00000000000E+00  0.00000000000E+00  0.45593999997E+02  0.45594000000E+02  0.51100000000E-03 0. -1.
         11   -1    0    0    0    0 -0.00000000000E+00 -0.00000000000E+00 -0.45593999997E+02  0.45594000000E+02  0.51100000000E-03 0.  1.
         23    2    1    2    0    0 -0.71054273576E-14  0.44408920985E-15  0.35527136788E-14  0.91188000000E+02  0.91188000000E+02 0.  0.
    9900012    2    3    3    0    0 -0.34458290528E+02 -0.17460754737E+01  0.21511465769E+02  0.50528859267E+02  0.29999998227E+02 0.  0.
        -12    1    3    3    0    0  0.34458290528E+02  0.17460754737E+01 -0.21511465769E+02  0.40659140733E+02  0.00000000000E+00 0.  1.
         11    1    4    4    0    0 -0.13328679429E+02 -0.30438330443E+00  0.15555065933E+02  0.20486737684E+02  0.51100000000E-03 0. -1.
        -11    1    4    4    0    0 -0.79449360217E+01 -0.90834831416E+01  0.82682360237E+01  0.14628581667E+02  0.51100000000E-03 0.  1.
         12    1    4    4    0    0 -0.13184675078E+02  0.76417909723E+01 -0.23118361882E+01  0.15413539916E+02  0.00000000000E+00 0. -1.
</event>
<event>
 8    1  0.4964753E-012  0.9118800E+02  0.7816164E-02  0.1184000E+00
        -11   -1    0    0    0    0  0.00000000000E+00  0.00000000000E+00  0.45593999997E+02  0.45594000000E+02  0.51100000000E-03 0. -1.
         11   -1    0    0    0    0 -0.00000000000E+00 -0.00000000000E+00 -0.45593999997E+02  0.45594000000E+02  0.51100000000E-03 0.  1.
         23    2    1    2    0    0 -0.35527136788E-14  0.00000000000E+00 -0.71054273576E-14  0.91188000000E+02  0.91188000000E+02 0.  0.
    9900012    2    3    3    0    0 -0.15169922557E+02  0.10502781309E+02 -0.36231658722E+02  0.50528830563E+02  0.29999910978E+02 0.  0.
         12    1    3    3    0    0  0.15169922557E+02 -0.10502781309E+02  0.36231658722E+02  0.40659169437E+02  0.00000000000E+00 0. -1.
         11    1    4    4    0    0  0.20268161348E+01  0.47334721147E+01 -0.17760143643E+01  0.54468311143E+01  0.51100000000E-03 0. -1.
        -11    1    4    4    0    0  0.22900759380E+00  0.70145047086E+01 -0.23347169048E+02  0.24379212941E+02  0.51100000000E-03 0.  1.
         12    1    4    4    0    0 -0.17425746286E+02 -0.12451955143E+01 -0.11108475309E+02  0.20702786507E+02  0.00000000000E+00 0. -1.
</event>
<event>
 8    1  0.4964753E-012  0.9118800E+02  0.7816164E-02  0.1184000E+00
        -11   -1    0    0    0    0  0.00000000000E+00  0.00000000000E+00  0.45593999997E+02  0.45594000000E+02  0.51100000000E-03 0. -1.
         11   -1    0    0    0    0 -0.00000000000E+00 -0.00000000000E+00 -0.45593999997E+02  0.45594000000E+02  0.51100000000E-03 0.  1.
         23    2    1    2    0    0 -0.88817841970E-15  0.17763568394E-14  0.00000000000E+00  0.91188000000E+02  0.91188000000E+02 0.  0.
    9900012    2    3    3    0    0  0.49463107461E+01 -0.12150059205E+02 -0.38484746430E+02  0.50528860358E+02  0.30000001543E+02 0.  0.
         12    1    3    3    0    0 -0.49463107461E+01  0.12150059205E+02  0.38484746430E+02  0.40659139642E+02  0.00000000000E+00 0. -1.
         11    1    4    4    0    0  0.41136015999E+01  0.48181706501E+01 -0.29478433831E+01  0.69875795100E+01  0.51100000000E-03 0. -1.
        -11    1    4    4    0    0  0.49977629656E+01 -0.89465049372E+01 -0.44593454841E+01  0.11176016628E+02  0.51100000000E-03 0.  1.
         12    1    4    4    0    0 -0.41650538195E+01 -0.80217249183E+01 -0.31077557563E+02  0.32365264220E+02  0.00000000000E+00 0. -1.
</event>
<event>
 8    1  0.4964753E-012  0.9118800E+02  0.7816164E-02  0.1184000E+00
        -11   -1    0    0    0    0  0.00000000000E+00  0.00000000000E+00  0.45593999997E+02  0.45594000000E+02  0.51100000000E-03 0. -1.
         11   -1    0    0    0    0 -0.00000000000E+00 -0.00000000000E+00 -0.45593999997E+02  0.45594000000E+02  0.51100000000E-03 0.  1.
         23    2    1    2    0    0  0.00000000000E+00  0.00000000000E+00  0.00000000000E+00  0.91188000000E+02  0.91188000000E+02 0.  0.
    9900012    2    3    3    0    0 -0.34965420575E+02 -0.10418554418E+02 -0.17945433952E+02  0.50528861890E+02  0.30000006201E+02 0.  0.
         12    1    3    3    0    0  0.34965420575E+02  0.10418554418E+02  0.17945433952E+02  0.40659138110E+02  0.00000000000E+00 0. -1.
         11    1    4    4    0    0 -0.10806684810E+02 -0.51158459877E+01 -0.23110483887E+01  0.12177736312E+02  0.51100000000E-03 0. -1.
        -11    1    4    4    0    0 -0.25179724073E+02  0.39053179480E+01 -0.92852458787E+01  0.27119841518E+02  0.51100000000E-03 0.  1.
         12    1    4    4    0    0  0.10209883090E+01 -0.92080263781E+01 -0.63491396843E+01  0.11231284060E+02  0.00000000000E+00 0. -1.
</event>
<event>
 8    1  0.4964753E-012  0.9118800E+02  0.7816164E-02  0.1184000E+00
        -11   -1    0    0    0    0  0.00000000000E+00  0.00000000000E+00  0.45593999997E+02  0.45594000000E+02  0.51100000000E-03 0. -1.
         11   -1    0    0    0    0 -0.00000000000E+00 -0.00000000000E+00 -0.45593999997E+02  0.45594000000E+02  0.51100000000E-03 0.  1.
         23    2    1    2    0    0  0.00000000000E+00  0.00000000000E+00  0.00000000000E+00  0.91188000000E+02  0.91188000000E+02 0.  0.
    9900012    2    3    3    0    0  0.21385672430E+02 -0.34463288934E+02 -0.28461224882E+01  0.50528859790E+02  0.29999999817E+02 0.  0.
         12    1    3    3    0    0 -0.21385672430E+02  0.34463288934E+02  0.28461224882E+01  0.40659140210E+02  0.00000000000E+00 0. -1.
         11    1    4    4    0    0  0.85400922636E+01 -0.12775894773E+02 -0.37876965071E+01  0.15827296301E+02  0.51100000000E-03 0. -1.
        -11    1    4    4    0    0  0.12242027128E+02 -0.26832712379E+02  0.43946177227E+00  0.29496691488E+02  0.51100000000E-03 0.  1.
         12    1    4    4    0    0  0.60355303846E+00  0.51453182182E+01  0.50211224658E+00  0.52048720008E+01  0.00000000000E+00 0. -1.
</event>
<event>
 8    1  0.4964753E-012  0.9118800E+02  0.7816164E-02  0.1184000E+00
        -11   -1    0    0    0    0  0.00000000000E+00  0.00000000000E+00  0.45593999997E+02  0.45594000000E+02  0.51100000000E-03 0. -1.
         11   -1    0    0    0    0 -0.00000000000E+00 -0.00000000000E+00 -0.45593999997E+02  0.45594000000E+02  0.51100000000E-03 0.  1.
         23    2    1    2    0    0  0.17763568394E-14  0.00000000000E+00 -0.71054273576E-14  0.91188000000E+02  0.91188000000E+02 0.  0.
    9900012    2    3    3    0    0  0.14856951823E+02 -0.28423569847E+02 -0.24990750588E+02  0.50528856437E+02  0.29999989626E+02 0.  0.
         12    1    3    3    0    0 -0.14856951823E+02  0.28423569847E+02  0.24990750588E+02  0.40659143563E+02  0.00000000000E+00 0. -1.
         11    1    4    4    0    0 -0.17317486245E+01 -0.92813878011E+01 -0.26552823567E+01  0.98078355139E+01  0.51100000000E-03 0. -1.
        -11    1    4    4    0    0 -0.12904558003E+01 -0.86462277076E+01 -0.17304028478E+02  0.19386901031E+02  0.51100000000E-03 0.  1.
        -12    1    4    4    0    0  0.17879156248E+02 -0.10495954338E+02 -0.50314397535E+01  0.21334119893E+02  0.00000000000E+00 0.  1.
</event>
<event>
 8    1  0.4964753E-012  0.9118800E+02  0.7816164E-02  0.1184000E+00
        -11   -1    0    0    0    0  0.00000000000E+00  0.00000000000E+00  0.45593999997E+02  0.45594000000E+02  0.51100000000E-03 0. -1.
         11   -1    0    0    0    0 -0.00000000000E+00 -0.00000000000E+00 -0.45593999997E+02  0.45594000000E+02  0.51100000000E-03 0.  1.
         23    2    1    2    0    0  0.35527136788E-14  0.00000000000E+00  0.71054273576E-14  0.91188000000E+02  0.91188000000E+02 0.  0.
    9900012    2    3    3    0    0  0.10870451705E+02 -0.15792090615E+02  0.35855385755E+02  0.50528861619E+02  0.30000005377E+02 0.  0.
        -12    1    3    3    0    0 -0.10870451705E+02  0.15792090615E+02 -0.35855385755E+02  0.40659138381E+02  0.00000000000E+00 0.  1.
         11    1    4    4    0    0 -0.93618050075E+00  0.15181901823E+01  0.22274599022E+01  0.28535790223E+01  0.51100000000E-03 0.  1.
        -11    1    4    4    0    0  0.11722845777E+02  0.30147606395E+01  0.19394915780E+02  0.22862122675E+02  0.51100000000E-03 0. -1.
         12    1    4    4    0    0  0.83786429151E-01 -0.20325041437E+02  0.14233010072E+02  0.24813159922E+02  0.00000000000E+00 0. -1.
</event>
<event>
 8    1  0.4964753E-012  0.9118800E+02  0.7816164E-02  0.1184000E+00
        -11   -1    0    0    0    0  0.00000000000E+00  0.00000000000E+00  0.45593999997E+02  0.45594000000E+02  0.51100000000E-03 0. -1.
         11   -1    0    0    0    0 -0.00000000000E+00 -0.00000000000E+00 -0.45593999997E+02  0.45594000000E+02  0.51100000000E-03 0.  1.
         23    2    1    2    0    0 -0.17763568394E-14 -0.35527136788E-14  0.71054273576E-14  0.91188000000E+02  0.91188000000E+02 0.  0.
    9900012    2    3    3    0    0  0.87670861405E+01  0.21856768703E+02 -0.33144903192E+02  0.50528871319E+02  0.30000034860E+02 0.  0.
         12    1    3    3    0    0 -0.87670861405E+01 -0.21856768703E+02  0.33144903192E+02  0.40659128681E+02  0.00000000000E+00 0. -1.
         11    1    4    4    0    0  0.63442487985E+01  0.93403151139E+01 -0.67670391635E+00  0.11311450291E+02  0.51100000000E-03 0. -1.
        -11    1    4    4    0    0 -0.57506230794E+01 -0.12403257525E+01 -0.10553719450E+02  0.12082593606E+02  0.51100000000E-03 0.  1.
        -12    1    4    4    0    0  0.81734604214E+01  0.13756779342E+02 -0.21914479826E+02  0.27134827421E+02  0.00000000000E+00 0.  1.
</event>
<event>
 8    1  0.4964753E-012  0.9118800E+02  0.7816164E-02  0.1184000E+00
        -11   -1    0    0    0    0  0.00000000000E+00  0.00000000000E+00  0.45593999997E+02  0.45594000000E+02  0.51100000000E-03 0. -1.
         11   -1    0    0    0    0 -0.00000000000E+00 -0.00000000000E+00 -0.45593999997E+02  0.45594000000E+02  0.51100000000E-03 0.  1.
         23    2    1    2    0    0  0.00000000000E+00 -0.35527136788E-14  0.35527136788E-14  0.91188000000E+02  0.91188000000E+02 0.  0.
    9900012    2    3    3    0    0 -0.15927722585E+02  0.24487746298E+02  0.28281124610E+02  0.50528879563E+02  0.30000059920E+02 0.  0.
        -12    1    3    3    0    0  0.15927722585E+02 -0.24487746298E+02 -0.28281124610E+02  0.40659120437E+02  0.00000000000E+00 0.  1.
         11    1    4    4    0    0 -0.37153448134E+01  0.19764571426E+02  0.30454921329E+02  0.36495812145E+02  0.51100000000E-03 0. -1.
        -11    1    4    4    0    0 -0.12875492035E+00  0.24369437167E+00 -0.10629353740E+01  0.10980877227E+01  0.51100000000E-03 0.  1.
         12    1    4    4    0    0 -0.12083622852E+02  0.44794805010E+01 -0.11108613456E+01  0.12934979695E+02  0.00000000000E+00 0. -1.
</event>
<event>
 8    1  0.4964753E-012  0.9118800E+02  0.7816164E-02  0.1184000E+00
        -11   -1    0    0    0    0  0.00000000000E+00  0.00000000000E+00  0.45593999997E+02  0.45594000000E+02  0.51100000000E-03 0. -1.
         11   -1    0    0    0    0 -0.00000000000E+00 -0.00000000000E+00 -0.45593999997E+02  0.45594000000E+02  0.51100000000E-03 0.  1.
         23    2    1    2    0    0 -0.35527136788E-14  0.00000000000E+00  0.00000000000E+00  0.91188000000E+02  0.91188000000E+02 0.  0.
    9900012    2    3    3    0    0 -0.29332926397E+02 -0.57159268192E+01 -0.27569413202E+02  0.50528868987E+02  0.30000027773E+02 0.  0.
         12    1    3    3    0    0  0.29332926397E+02  0.57159268192E+01  0.27569413202E+02  0.40659131013E+02  0.00000000000E+00 0. -1.
         11    1    4    4    0    0  0.13800921812E+01 -0.24185007358E+01  0.12538286228E+01  0.30538314809E+01  0.51100000000E-03 0. -1.
        -11    1    4    4    0    0 -0.15450297736E+02 -0.84778681846E+01 -0.43187794382E+01  0.18144911275E+02  0.51100000000E-03 0.  1.
         12    1    4    4    0    0 -0.15262720843E+02  0.51804421012E+01 -0.24504462386E+02  0.29330126231E+02  0.00000000000E+00 0. -1.
</event>
<event>
 8    1  0.4964753E-012  0.9118800E+02  0.7816164E-02  0.1184000E+00
        -11   -1    0    0    0    0  0.00000000000E+00  0.00000000000E+00  0.45593999997E+02  0.45594000000E+02  0.51100000000E-03 0. -1.
         11   -1    0    0    0    0 -0.00000000000E+00 -0.00000000000E+00 -0.45593999997E+02  0.45594000000E+02  0.51100000000E-03 0.  1.
         23    2    1    2    0    0 -0.35527136788E-14 -0.35527136788E-14  0.00000000000E+00  0.91188000000E+02  0.91188000000E+02 0.  0.
    9900012    2    3    3    0    0  0.26801447408E+02  0.19665914867E+02  0.23411515171E+02  0.50528870234E+02  0.30000031564E+02 0.  0.
        -12    1    3    3    0    0 -0.26801447408E+02 -0.19665914867E+02 -0.23411515171E+02  0.40659129766E+02  0.00000000000E+00 0.  1.
         11    1    4    4    0    0  0.81638564105E+01  0.17255889138E+01  0.75842188021E+01  0.11275929394E+02  0.51100000000E-03 0. -1.
        -11    1    4    4    0    0  0.23416363156E+02  0.19344105747E+02  0.10962968593E+02  0.32290976623E+02  0.51100000000E-03 0.  1.
         12    1    4    4    0    0 -0.47787721589E+01 -0.14037797946E+01  0.48643277756E+01  0.69619642176E+01  0.00000000000E+00 0. -1.
</event>
<event>
 8    1  0.4964753E-012  0.9118800E+02  0.7816164E-02  0.1184000E+00
        -11   -1    0    0    0    0  0.00000000000E+00  0.00000000000E+00  0.45593999997E+02  0.45594000000E+02  0.51100000000E-03 0. -1.
         11   -1    0    0    0    0 -0.00000000000E+00 -0.00000000000E+00 -0.45593999997E+02  0.45594000000E+02  0.51100000000E-03 0.  1.
         23    2    1    2    0    0  0.35527136788E-14  0.17763568394E-14  0.00000000000E+00  0.91188000000E+02  0.91188000000E+02 0.  0.
    9900012    2    3    3    0    0  0.23099127594E+02 -0.10991585645E+02 -0.31603498323E+02  0.50528858877E+02  0.29999997042E+02 0.  0.
         12    1    3    3    0    0 -0.23099127594E+02  0.10991585645E+02  0.31603498323E+02  0.40659141123E+02  0.00000000000E+00 0. -1.
         11    1    4    4    0    0  0.18711506951E+01  0.35800194793E+01  0.54328381815E+00  0.40758927812E+01  0.51100000000E-03 0. -1.
        -11    1    4    4    0    0  0.18918512820E+02 -0.10505897262E+02 -0.10037167679E+02  0.23854323295E+02  0.51100000000E-03 0.  1.
        -12    1    4    4    0    0  0.23094640797E+01 -0.40657078627E+01 -0.22109614462E+02  0.22598642801E+02  0.00000000000E+00 0.  1.
</event>
<event>
 8    1  0.4964753E-012  0.9118800E+02  0.7816164E-02  0.1184000E+00
        -11   -1    0    0    0    0  0.00000000000E+00  0.00000000000E+00  0.45593999997E+02  0.45594000000E+02  0.51100000000E-03 0. -1.
         11   -1    0    0    0    0 -0.00000000000E+00 -0.00000000000E+00 -0.45593999997E+02  0.45594000000E+02  0.51100000000E-03 0.  1.
         23    2    1    2    0    0  0.71054273576E-14 -0.44408920985E-15  0.35527136788E-14  0.91188000000E+02  0.91188000000E+02 0.  0.
    9900012    2    3    3    0    0  0.34680206156E+02 -0.33632653684E+01 -0.20955609201E+02  0.50528858224E+02  0.29999995059E+02 0.  0.
         12    1    3    3    0    0 -0.34680206156E+02  0.33632653684E+01  0.20955609201E+02  0.40659141776E+02  0.00000000000E+00 0. -1.
         11    1    4    4    0    0  0.13014495787E+02 -0.85965638336E+00  0.36250601474E+01  0.13537251236E+02  0.51100000000E-03 0. -1.
        -11    1    4    4    0    0 -0.19014698795E+01 -0.34436760684E+01 -0.23618211632E+01  0.45883212655E+01  0.51100000000E-03 0.  1.
        -12    1    4    4    0    0  0.23567180248E+02  0.94006708342E+00 -0.22218848185E+02  0.32403285723E+02  0.00000000000E+00 0.  1.
</event>
<event>
 8    1  0.4964753E-012  0.9118800E+02  0.7816164E-02  0.1184000E+00
        -11   -1    0    0    0    0  0.00000000000E+00  0.00000000000E+00  0.45593999997E+02  0.45594000000E+02  0.51100000000E-03 0. -1.
         11   -1    0    0    0    0 -0.00000000000E+00 -0.00000000000E+00 -0.45593999997E+02  0.45594000000E+02  0.51100000000E-03 0.  1.
         23    2    1    2    0    0 -0.35527136788E-14  0.00000000000E+00  0.00000000000E+00  0.91188000000E+02  0.91188000000E+02 0.  0.
    9900012    2    3    3    0    0  0.16674144833E+02 -0.35990413128E+02  0.89346826234E+01  0.50528862077E+02  0.30000006770E+02 0.  0.
        -12    1    3    3    0    0 -0.16674144833E+02  0.35990413128E+02 -0.89346826234E+01  0.40659137923E+02  0.00000000000E+00 0.  1.
         11    1    4    4    0    0  0.17007745229E+01 -0.27387852609E+02  0.25276860301E+01  0.27556783220E+02  0.51100000000E-03 0. -1.
        -11    1    4    4    0    0  0.84178807823E+00 -0.72154691172E+00  0.66977166973E+01  0.67888619321E+01  0.51100000000E-03 0.  1.
        -12    1    4    4    0    0  0.14131582232E+02 -0.78810136077E+01 -0.29072010404E+00  0.16183216925E+02  0.00000000000E+00 0.  1.
</event>
<event>
 8    1  0.4964753E-012  0.9118800E+02  0.7816164E-02  0.1184000E+00
        -11   -1    0    0    0    0  0.00000000000E+00  0.00000000000E+00  0.45593999997E+02  0.45594000000E+02  0.51100000000E-03 0. -1.
         11   -1    0    0    0    0 -0.00000000000E+00 -0.00000000000E+00 -0.45593999997E+02  0.45594000000E+02  0.51100000000E-03 0.  1.
         23    2    1    2    0    0  0.17763568394E-14  0.35527136788E-14  0.35527136788E-14  0.91188000000E+02  0.91188000000E+02 0.  0.
    9900012    2    3    3    0    0  0.11649751043E+02  0.23473369373E+02  0.31087788846E+02  0.50528851160E+02  0.29999973586E+02 0.  0.
        -12    1    3    3    0    0 -0.11649751043E+02 -0.23473369373E+02 -0.31087788846E+02  0.40659148840E+02  0.00000000000E+00 0.  1.
         11    1    4    4    0    0  0.98186046753E+01 -0.12776300783E+01  0.44852750415E+01  0.10869913930E+02  0.51100000000E-03 0.  1.
        -11    1    4    4    0    0  0.56209294883E+01  0.14225412977E+02  0.64303469391E+01  0.16592365253E+02  0.51100000000E-03 0. -1.
        -12    1    4    4    0    0 -0.37897831201E+01  0.10525586474E+02  0.20172166865E+02  0.23066571976E+02  0.00000000000E+00 0.  1.
</event>
<event>
 8    1  0.4964753E-012  0.9118800E+02  0.7816164E-02  0.1184000E+00
        -11   -1    0    0    0    0  0.00000000000E+00  0.00000000000E+00  0.45593999997E+02  0.45594000000E+02  0.51100000000E-03 0. -1.
         11   -1    0    0    0    0 -0.00000000000E+00 -0.00000000000E+00 -0.45593999997E+02  0.45594000000E+02  0.51100000000E-03 0.  1.
         23    2    1    2    0    0  0.00000000000E+00  0.00000000000E+00  0.00000000000E+00  0.91188000000E+02  0.91188000000E+02 0.  0.
    9900012    2    3    3    0    0 -0.31047102680E+02 -0.19565175936E+02  0.17505656938E+02  0.50528847045E+02  0.29999961077E+02 0.  0.
        -12    1    3    3    0    0  0.31047102680E+02  0.19565175936E+02 -0.17505656938E+02  0.40659152955E+02  0.00000000000E+00 0.  1.
         11    1    4    4    0    0 -0.16158556673E+02 -0.24993349997E+02  0.12568958080E+02  0.32307045754E+02  0.51100000000E-03 0. -1.
        -11    1    4    4    0    0 -0.60786265078E+01 -0.15076078148E+01  0.10223147498E+01  0.63456843014E+01  0.51100000000E-03 0.  1.
         12    1    4    4    0    0 -0.88099194985E+01  0.69357818759E+01  0.39143841078E+01  0.11876116989E+02  0.00000000000E+00 0. -1.
</event>
<event>
 8    1  0.4964753E-012  0.9118800E+02  0.7816164E-02  0.1184000E+00
        -11   -1    0    0    0    0  0.00000000000E+00  0.00000000000E+00  0.45593999997E+02  0.45594000000E+02  0.51100000000E-03 0. -1.
         11   -1    0    0    0    0 -0.00000000000E+00 -0.00000000000E+00 -0.45593999997E+02  0.45594000000E+02  0.51100000000E-03 0.  1.
         23    2    1    2    0    0  0.17763568394E-14  0.00000000000E+00  0.00000000000E+00  0.91188000000E+02  0.91188000000E+02 0.  0.
    9900012    2    3    3    0    0  0.68347829692E+01 -0.35704393448E+02 -0.18211218838E+02  0.50528850214E+02  0.29999970712E+02 0.  0.
         12    1    3    3    0    0 -0.68347829692E+01  0.35704393448E+02  0.18211218838E+02  0.40659149786E+02  0.00000000000E+00 0. -1.
         11    1    4    4    0    0 -0.49380994159E+01  0.19463755421E-01 -0.59833491946E+01  0.77579425446E+01  0.51100000000E-03 0. -1.
        -11    1    4    4    0    0 -0.33313152094E+01 -0.14842891146E+02 -0.47649775739E+01  0.15940956375E+02  0.51100000000E-03 0.  1.
        -12    1    4    4    0    0  0.15104197595E+02 -0.20880966057E+02 -0.74628920696E+01  0.26829951295E+02  0.00000000000E+00 0.  1.
</event>
<event>
 8    1  0.4964753E-012  0.9118800E+02  0.7816164E-02  0.1184000E+00
        -11   -1    0    0    0    0  0.00000000000E+00  0.00000000000E+00  0.45593999997E+02  0.45594000000E+02  0.51100000000E-03 0. -1.
         11   -1    0    0    0    0 -0.00000000000E+00 -0.00000000000E+00 -0.45593999997E+02  0.45594000000E+02  0.51100000000E-03 0.  1.
         23    2    1    2    0    0  0.16653345369E-15  0.00000000000E+00  0.00000000000E+00  0.91188000000E+02  0.91188000000E+02 0.  0.
    9900012    2    3    3    0    0  0.48999772609E+00 -0.10811431534E+02 -0.39192323595E+02  0.50528863532E+02  0.30000011191E+02 0.  0.
         12    1    3    3    0    0 -0.48999772609E+00  0.10811431534E+02  0.39192323595E+02  0.40659136468E+02  0.00000000000E+00 0. -1.
         11    1    4    4    0    0 -0.22494347979E+01 -0.62275503138E+01 -0.26686782401E+01  0.71389203407E+01  0.51100000000E-03 0. -1.
        -11    1    4    4    0    0  0.48155285067E+01 -0.88165076055E+01 -0.37284855250E+02  0.38614512200E+02  0.51100000000E-03 0.  1.
         12    1    4    4    0    0 -0.20760959826E+01  0.42326263853E+01  0.76120989550E+00  0.47754309912E+01  0.00000000000E+00 0. -1.
</event>
<event>
 8    1  0.4964753E-012  0.9118800E+02  0.7816164E-02  0.1184000E+00
        -11   -1    0    0    0    0  0.00000000000E+00  0.00000000000E+00  0.45593999997E+02  0.45594000000E+02  0.51100000000E-03 0.  1.
         11   -1    0    0    0    0 -0.00000000000E+00 -0.00000000000E+00 -0.45593999997E+02  0.45594000000E+02  0.51100000000E-03 0. -1.
         23    2    1    2    0    0  0.00000000000E+00  0.00000000000E+00 -0.11102230246E-14  0.91188000000E+02  0.91188000000E+02 0.  0.
    9900012    2    3    3    0    0 -0.12389764788E+02  0.38694494974E+02 -0.15478019332E+01  0.50528857072E+02  0.29999991555E+02 0.  0.
         12    1    3    3    0    0  0.12389764788E+02 -0.38694494974E+02  0.15478019332E+01  0.40659142928E+02  0.00000000000E+00 0. -1.
         11    1    4    4    0    0  0.67630032318E+01  0.11447434068E+02 -0.55984062396E+01  0.14426507274E+02  0.51100000000E-03 0. -1.
        -11    1    4    4    0    0 -0.59063456116E+01  0.38594149794E+00  0.90787631468E+00  0.59881640749E+01  0.51100000000E-03 0.  1.
        -12    1    4    4    0    0 -0.13246422408E+02  0.26861119409E+02  0.31427279917E+01  0.30114185723E+02  0.00000000000E+00 0.  1.
</event>
<event>
 8    1  0.4964753E-012  0.9118800E+02  0.7816164E-02  0.1184000E+00
        -11   -1    0    0    0    0  0.00000000000E+00  0.00000000000E+00  0.45593999997E+02  0.45594000000E+02  0.51100000000E-03 0.  1.
         11   -1    0    0    0    0 -0.00000000000E+00 -0.00000000000E+00 -0.45593999997E+02  0.45594000000E+02  0.51100000000E-03 0. -1.
         23    2    1    2    0    0  0.00000000000E+00 -0.88817841970E-15  0.17763568394E-14  0.91188000000E+02  0.91188000000E+02 0.  0.
    9900012    2    3    3    0    0 -0.37790434359E+02 -0.39601018402E+01 -0.14469428705E+02  0.50528884138E+02  0.30000073825E+02 0.  0.
         12    1    3    3    0    0  0.37790434359E+02  0.39601018402E+01  0.14469428705E+02  0.40659115862E+02  0.00000000000E+00 0. -1.
         11    1    4    4    0    0 -0.84758867163E+01 -0.24384457776E+01  0.45357512550E+01  0.99176465528E+01  0.51100000000E-03 0. -1.
        -11    1    4    4    0    0 -0.21413325699E+02 -0.98802909608E+01 -0.86027081614E+01  0.25102933194E+02  0.51100000000E-03 0.  1.
         12    1    4    4    0    0 -0.79012219438E+01  0.83586348982E+01 -0.10402471799E+02  0.15508304391E+02  0.00000000000E+00 0. -1.
</event>
<event>
 8    1  0.4964753E-012  0.9118800E+02  0.7816164E-02  0.1184000E+00
        -11   -1    0    0    0    0  0.00000000000E+00  0.00000000000E+00  0.45593999997E+02  0.45594000000E+02  0.51100000000E-03 0. -1.
         11   -1    0    0    0    0 -0.00000000000E+00 -0.00000000000E+00 -0.45593999997E+02  0.45594000000E+02  0.51100000000E-03 0.  1.
         23    2    1    2    0    0  0.17763568394E-14  0.17763568394E-14  0.00000000000E+00  0.91188000000E+02  0.91188000000E+02 0.  0.
    9900012    2    3    3    0    0  0.11773487162E+02 -0.68388224373E+01 -0.38311630129E+02  0.50528862092E+02  0.30000006816E+02 0.  0.
         12    1    3    3    0    0 -0.11773487162E+02  0.68388224373E+01  0.38311630129E+02  0.40659137908E+02  0.00000000000E+00 0. -1.
         11    1    4    4    0    0 -0.32192248573E+01 -0.71591702931E+01 -0.25388827639E+02  0.26574606245E+02  0.51100000000E-03 0. -1.
        -11    1    4    4    0    0  0.77250155974E+01 -0.62776508679E+01 -0.41331793488E+01  0.10778123129E+02  0.51100000000E-03 0.  1.
        -12    1    4    4    0    0  0.72676964217E+01  0.65979987237E+01 -0.87896231412E+01  0.13176132718E+02  0.00000000000E+00 0.  1.
</event>
<event>
 8    1  0.4964753E-012  0.9118800E+02  0.7816164E-02  0.1184000E+00
        -11   -1    0    0    0    0  0.00000000000E+00  0.00000000000E+00  0.45593999997E+02  0.45594000000E+02  0.51100000000E-03 0. -1.
         11   -1    0    0    0    0 -0.00000000000E+00 -0.00000000000E+00 -0.45593999997E+02  0.45594000000E+02  0.51100000000E-03 0.  1.
         23    2    1    2    0    0  0.00000000000E+00 -0.71054273576E-14  0.35527136788E-14  0.91188000000E+02  0.91188000000E+02 0.  0.
    9900012    2    3    3    0    0  0.43434282283E+01  0.34038006422E+02 -0.21810888011E+02  0.50528854832E+02  0.29999984746E+02 0.  0.
         12    1    3    3    0    0 -0.43434282283E+01 -0.34038006422E+02  0.21810888011E+02  0.40659145168E+02  0.00000000000E+00 0. -1.
         11    1    4    4    0    0 -0.34829260643E+01  0.20431275680E+02 -0.77479680001E+01  0.22126879769E+02  0.51100000000E-03 0. -1.
        -11    1    4    4    0    0  0.34216006328E-01  0.97264813090E+01 -0.16683045646E+02  0.19311385804E+02  0.51100000000E-03 0.  1.
         12    1    4    4    0    0  0.77921382862E+01  0.38802494329E+01  0.26201256349E+01  0.90905892590E+01  0.00000000000E+00 0. -1.
</event>
<event>
 8    1  0.4964753E-012  0.9118800E+02  0.7816164E-02  0.1184000E+00
        -11   -1    0    0    0    0  0.00000000000E+00  0.00000000000E+00  0.45593999997E+02  0.45594000000E+02  0.51100000000E-03 0. -1.
         11   -1    0    0    0    0 -0.00000000000E+00 -0.00000000000E+00 -0.45593999997E+02  0.45594000000E+02  0.51100000000E-03 0.  1.
         23    2    1    2    0    0  0.00000000000E+00  0.00000000000E+00 -0.35527136788E-14  0.91188000000E+02  0.91188000000E+02 0.  0.
    9900012    2    3    3    0    0  0.30974016982E+02  0.14134831047E+02  0.22225755372E+02  0.50528838934E+02  0.29999936425E+02 0.  0.
        -12    1    3    3    0    0 -0.30974016982E+02 -0.14134831047E+02 -0.22225755372E+02  0.40659161066E+02  0.00000000000E+00 0.  1.
         11    1    4    4    0    0  0.14210610935E+02  0.49097799447E+01  0.26040531678E+01  0.15258718669E+02  0.51100000000E-03 0. -1.
        -11    1    4    4    0    0  0.10435007447E+02  0.13464487642E+01  0.22435573332E+02  0.24780178685E+02  0.51100000000E-03 0.  1.
         12    1    4    4    0    0  0.63283985988E+01  0.78786023379E+01 -0.28138711272E+01  0.10489941580E+02  0.00000000000E+00 0. -1.
</event>
<event>
 8    1  0.4964753E-012  0.9118800E+02  0.7816164E-02  0.1184000E+00
        -11   -1    0    0    0    0  0.00000000000E+00  0.00000000000E+00  0.45593999997E+02  0.45594000000E+02  0.51100000000E-03 0.  1.
         11   -1    0    0    0    0 -0.00000000000E+00 -0.00000000000E+00 -0.45593999997E+02  0.45594000000E+02  0.51100000000E-03 0. -1.
         23    2    1    2    0    0  0.71054273576E-14  0.00000000000E+00  0.00000000000E+00  0.91188000000E+02  0.91188000000E+02 0.  0.
    9900012    2    3    3    0    0  0.32913813809E+02  0.20945745992E+02 -0.11450912716E+02  0.50528845844E+02  0.29999957428E+02 0.  0.
         12    1    3    3    0    0 -0.32913813809E+02 -0.20945745992E+02  0.11450912716E+02  0.40659154156E+02  0.00000000000E+00 0. -1.
         11    1    4    4    0    0  0.91543830117E+01  0.12566129129E+02  0.26544045008E+01  0.15772006630E+02  0.51100000000E-03 0.  1.
        -11    1    4    4    0    0  0.13553896878E+02 -0.14970695380E+01 -0.15311602699E+02  0.20503524460E+02  0.51100000000E-03 0. -1.
         12    1    4    4    0    0  0.10205533920E+02  0.98766864005E+01  0.12062854819E+01  0.14253314755E+02  0.00000000000E+00 0. -1.
</event>
<event>
 8    1  0.4964753E-012  0.9118800E+02  0.7816164E-02  0.1184000E+00
        -11   -1    0    0    0    0  0.00000000000E+00  0.00000000000E+00  0.45593999997E+02  0.45594000000E+02  0.51100000000E-03 0. -1.
         11   -1    0    0    0    0 -0.00000000000E+00 -0.00000000000E+00 -0.45593999997E+02  0.45594000000E+02  0.51100000000E-03 0.  1.
         23    2    1    2    0    0  0.61062266354E-15 -0.44408920985E-15  0.00000000000E+00  0.91188000000E+02  0.91188000000E+02 0.  0.
    9900012    2    3    3    0    0  0.40375386401E+00  0.10456251782E+01  0.40643692070E+02  0.50528855219E+02  0.29999985925E+02 0.  0.
        -12    1    3    3    0    0 -0.40375386401E+00 -0.10456251782E+01 -0.40643692070E+02  0.40659144781E+02  0.00000000000E+00 0.  1.
         11    1    4    4    0    0 -0.41343456227E+01  0.78623342107E+01  0.39288695753E+01  0.97131420956E+01  0.51100000000E-03 0.  1.
        -11    1    4    4    0    0 -0.18635682934E+01  0.34083584813E+01  0.18936236216E+02  0.19330567416E+02  0.51100000000E-03 0. -1.
        -12    1    4    4    0    0  0.64016677802E+01 -0.10225067514E+02  0.17778586279E+02  0.21485145708E+02  0.00000000000E+00 0.  1.
</event>
<event>
 8    1  0.4964753E-012  0.9118800E+02  0.7816164E-02  0.1184000E+00
        -11   -1    0    0    0    0  0.00000000000E+00  0.00000000000E+00  0.45593999997E+02  0.45594000000E+02  0.51100000000E-03 0. -1.
         11   -1    0    0    0    0 -0.00000000000E+00 -0.00000000000E+00 -0.45593999997E+02  0.45594000000E+02  0.51100000000E-03 0.  1.
         23    2    1    2    0    0 -0.35527136788E-14  0.00000000000E+00 -0.71054273576E-14  0.91188000000E+02  0.91188000000E+02 0.  0.
    9900012    2    3    3    0    0 -0.26789794202E+02  0.14338700896E+02 -0.27016169288E+02  0.50528870401E+02  0.30000032071E+02 0.  0.
         12    1    3    3    0    0  0.26789794202E+02 -0.14338700896E+02  0.27016169288E+02  0.40659129599E+02  0.00000000000E+00 0. -1.
         11    1    4    4    0    0  0.15043778075E+00 -0.10656840745E+01 -0.20400538871E+01  0.23065416094E+01  0.51100000000E-03 0. -1.
        -11    1    4    4    0    0 -0.14358167402E+02 -0.20856907639E+01 -0.22168895893E+02  0.26494660264E+02  0.51100000000E-03 0.  1.
        -12    1    4    4    0    0 -0.12582064580E+02  0.17490075735E+02 -0.28072195076E+01  0.21727668528E+02  0.00000000000E+00 0.  1.
</event>
<event>
 8    1  0.4964753E-012  0.9118800E+02  0.7816164E-02  0.1184000E+00
        -11   -1    0    0    0    0  0.00000000000E+00  0.00000000000E+00  0.45593999997E+02  0.45594000000E+02  0.51100000000E-03 0. -1.
         11   -1    0    0    0    0 -0.00000000000E+00 -0.00000000000E+00 -0.45593999997E+02  0.45594000000E+02  0.51100000000E-03 0.  1.
         23    2    1    2    0    0  0.00000000000E+00  0.71054273576E-14  0.00000000000E+00  0.91188000000E+02  0.91188000000E+02 0.  0.
    9900012    2    3    3    0    0  0.39384434455E+01 -0.39767824680E+02 -0.74949710837E+01  0.50528858247E+02  0.29999995127E+02 0.  0.
         12    1    3    3    0    0 -0.39384434455E+01  0.39767824680E+02  0.74949710837E+01  0.40659141753E+02  0.00000000000E+00 0. -1.
         11    1    4    4    0    0  0.32101448507E+01 -0.26868344732E+02  0.32998763048E+01  0.27259900265E+02  0.51100000000E-03 0. -1.
        -11    1    4    4    0    0 -0.54253202077E+01 -0.95546760143E+01 -0.73632518012E+00  0.11012179990E+02  0.51100000000E-03 0.  1.
         12    1    4    4    0    0  0.61536188024E+01 -0.33448039341E+01 -0.10058522208E+02  0.12256777992E+02  0.00000000000E+00 0. -1.
</event>
<event>
 8    1  0.4964753E-012  0.9118800E+02  0.7816164E-02  0.1184000E+00
        -11   -1    0    0    0    0  0.00000000000E+00  0.00000000000E+00  0.45593999997E+02  0.45594000000E+02  0.51100000000E-03 0. -1.
         11   -1    0    0    0    0 -0.00000000000E+00 -0.00000000000E+00 -0.45593999997E+02  0.45594000000E+02  0.51100000000E-03 0.  1.
         23    2    1    2    0    0  0.44408920985E-15  0.00000000000E+00  0.13322676296E-14  0.91188000000E+02  0.91188000000E+02 0.  0.
    9900012    2    3    3    0    0 -0.15229049252E+01 -0.40489998166E+02  0.33773352313E+01  0.50528861000E+02  0.30000003497E+02 0.  0.
        -12    1    3    3    0    0  0.15229049252E+01  0.40489998166E+02 -0.33773352313E+01  0.40659139000E+02  0.00000000000E+00 0.  1.
         11    1    4    4    0    0 -0.54240922990E+01 -0.18680166333E+01  0.16510443681E+01  0.59696072883E+01  0.51100000000E-03 0. -1.
        -11    1    4    4    0    0  0.21776788233E+01 -0.16182249248E+02 -0.10035257128E+02  0.19165434033E+02  0.51100000000E-03 0.  1.
        -12    1    4    4    0    0  0.17235085505E+01 -0.22439732285E+02  0.11761547991E+02  0.25393819679E+02  0.00000000000E+00 0.  1.
</event>
<event>
 8    1  0.4964753E-012  0.9118800E+02  0.7816164E-02  0.1184000E+00
        -11   -1    0    0    0    0  0.00000000000E+00  0.00000000000E+00  0.45593999997E+02  0.45594000000E+02  0.51100000000E-03 0. -1.
         11   -1    0    0    0    0 -0.00000000000E+00 -0.00000000000E+00 -0.45593999997E+02  0.45594000000E+02  0.51100000000E-03 0.  1.
         23    2    1    2    0    0  0.00000000000E+00 -0.17763568394E-14  0.00000000000E+00  0.91188000000E+02  0.91188000000E+02 0.  0.
    9900012    2    3    3    0    0  0.32369402812E+02 -0.13201322347E+02  0.20763240116E+02  0.50528864615E+02  0.30000014484E+02 0.  0.
        -12    1    3    3    0    0 -0.32369402812E+02  0.13201322347E+02 -0.20763240116E+02  0.40659135385E+02  0.00000000000E+00 0.  1.
         11    1    4    4    0    0  0.19232563607E+02 -0.95499425229E+01  0.60019997904E+01  0.22296118650E+02  0.51100000000E-03 0. -1.
        -11    1    4    4    0    0  0.49097175967E+01 -0.11398904141E+02  0.53054927106E+01  0.13497725573E+02  0.51100000000E-03 0.  1.
         12    1    4    4    0    0  0.82271216083E+01  0.77475243166E+01  0.94557476148E+01  0.14735020392E+02  0.00000000000E+00 0. -1.
</event>
<event>
 8    1  0.4964753E-012  0.9118800E+02  0.7816164E-02  0.1184000E+00
        -11   -1    0    0    0    0  0.00000000000E+00  0.00000000000E+00  0.45593999997E+02  0.45594000000E+02  0.51100000000E-03 0. -1.
         11   -1    0    0    0    0 -0.00000000000E+00 -0.00000000000E+00 -0.45593999997E+02  0.45594000000E+02  0.51100000000E-03 0.  1.
         23    2    1    2    0    0 -0.35527136788E-14 -0.88817841970E-15 -0.35527136788E-14  0.91188000000E+02  0.91188000000E+02 0.  0.
    9900012    2    3    3    0    0 -0.27487814658E+02 -0.65343688338E+01 -0.29238498457E+02  0.50528834702E+02  0.29999923560E+02 0.  0.
         12    1    3    3    0    0  0.27487814658E+02  0.65343688338E+01  0.29238498457E+02  0.40659165298E+02  0.00000000000E+00 0. -1.
         11    1    4    4    0    0 -0.25701861733E+01  0.58648425396E+01 -0.95239838205E+00  0.64737390988E+01  0.51100000000E-03 0. -1.
        -11    1    4    4    0    0  0.27600241709E+01 -0.24865880320E+01 -0.64141396935E+01  0.74122899116E+01  0.51100000000E-03 0.  1.
        -12    1    4    4    0    0 -0.27677652655E+02 -0.99126233414E+01 -0.21871960382E+02  0.36642805691E+02  0.00000000000E+00 0.  1.
</event>
<event>
 8    1  0.4964753E-012  0.9118800E+02  0.7816164E-02  0.1184000E+00
        -11   -1    0    0    0    0  0.00000000000E+00  0.00000000000E+00  0.45593999997E+02  0.45594000000E+02  0.51100000000E-03 0. -1.
         11   -1    0    0    0    0 -0.00000000000E+00 -0.00000000000E+00 -0.45593999997E+02  0.45594000000E+02  0.51100000000E-03 0.  1.
         23    2    1    2    0    0  0.35527136788E-14 -0.88817841970E-15  0.71054273576E-14  0.91188000000E+02  0.91188000000E+02 0.  0.
    9900012    2    3    3    0    0 -0.17005930395E+02  0.52996769451E+01 -0.36549664238E+02  0.50528853425E+02  0.29999980471E+02 0.  0.
         12    1    3    3    0    0  0.17005930395E+02 -0.52996769451E+01  0.36549664238E+02  0.40659146575E+02  0.00000000000E+00 0. -1.
         11    1    4    4    0    0 -0.41363288510E+01 -0.87467921152E+01 -0.11597209679E+02  0.15103339408E+02  0.51100000000E-03 0. -1.
        -11    1    4    4    0    0  0.55417879419E+00  0.34346395575E+01 -0.15481720909E+02  0.15867814771E+02  0.51100000000E-03 0.  1.
         12    1    4    4    0    0 -0.13423780338E+02  0.10611829503E+02 -0.94707336492E+01  0.19557699246E+02  0.00000000000E+00 0. -1.
</event>
<event>
 8    1  0.4964753E-012  0.9118800E+02  0.7816164E-02  0.1184000E+00
        -11   -1    0    0    0    0  0.00000000000E+00  0.00000000000E+00  0.45593999997E+02  0.45594000000E+02  0.51100000000E-03 0. -1.
         11   -1    0    0    0    0 -0.00000000000E+00 -0.00000000000E+00 -0.45593999997E+02  0.45594000000E+02  0.51100000000E-03 0.  1.
         23    2    1    2    0    0  0.00000000000E+00  0.88817841970E-15  0.71054273576E-14  0.91188000000E+02  0.91188000000E+02 0.  0.
    9900012    2    3    3    0    0  0.17873196536E+02 -0.63080182980E+01 -0.35971145062E+02  0.50528861712E+02  0.30000005660E+02 0.  0.
         12    1    3    3    0    0 -0.17873196536E+02  0.63080182980E+01  0.35971145062E+02  0.40659138288E+02  0.00000000000E+00 0. -1.
         11    1    4    4    0    0  0.34639471317E+01  0.60319524346E+01 -0.78433073842E+00  0.69998967758E+01  0.51100000000E-03 0. -1.
        -11    1    4    4    0    0  0.16136259169E+02 -0.38605916330E+01 -0.26514265275E+02  0.31277616454E+02  0.51100000000E-03 0.  1.
        -12    1    4    4    0    0 -0.17270097643E+01 -0.84793790996E+01 -0.86725490479E+01  0.12251348482E+02  0.00000000000E+00 0.  1.
</event>
<event>
 8    1  0.4964753E-012  0.9118800E+02  0.7816164E-02  0.1184000E+00
        -11   -1    0    0    0    0  0.00000000000E+00  0.00000000000E+00  0.45593999997E+02  0.45594000000E+02  0.51100000000E-03 0. -1.
         11   -1    0    0    0    0 -0.00000000000E+00 -0.00000000000E+00 -0.45593999997E+02  0.45594000000E+02  0.51100000000E-03 0.  1.
         23    2    1    2    0    0  0.00000000000E+00  0.00000000000E+00  0.00000000000E+00  0.91188000000E+02  0.91188000000E+02 0.  0.
    9900012    2    3    3    0    0  0.14041010449E+02 -0.78772525769E+01  0.37335832416E+02  0.50528862469E+02  0.30000007960E+02 0.  0.
        -12    1    3    3    0    0 -0.14041010449E+02  0.78772525769E+01 -0.37335832416E+02  0.40659137531E+02  0.00000000000E+00 0.  1.
         11    1    4    4    0    0 -0.54887607407E+00  0.17135609023E+00 -0.31393097390E+01  0.31915347019E+01  0.51100000000E-03 0. -1.
        -11    1    4    4    0    0 -0.34092949966E+00 -0.11103561936E+01 -0.17020333837E+01  0.20605925606E+01  0.51100000000E-03 0.  1.
         12    1    4    4    0    0  0.14930816023E+02 -0.69382524735E+01  0.42177175539E+02  0.45276735206E+02  0.00000000000E+00 0. -1.
</event>
<event>
 8    1  0.4964753E-012  0.9118800E+02  0.7816164E-02  0.1184000E+00
        -11   -1    0    0    0    0  0.00000000000E+00  0.00000000000E+00  0.45593999997E+02  0.45594000000E+02  0.51100000000E-03 0. -1.
         11   -1    0    0    0    0 -0.00000000000E+00 -0.00000000000E+00 -0.45593999997E+02  0.45594000000E+02  0.51100000000E-03 0.  1.
         23    2    1    2    0    0  0.35527136788E-14  0.00000000000E+00  0.00000000000E+00  0.91188000000E+02  0.91188000000E+02 0.  0.
    9900012    2    3    3    0    0 -0.19601583290E+02 -0.32941036170E+02  0.13558460669E+02  0.50528858504E+02  0.29999995910E+02 0.  0.
        -12    1    3    3    0    0  0.19601583290E+02  0.32941036170E+02 -0.13558460669E+02  0.40659141496E+02  0.00000000000E+00 0.  1.
         11    1    4    4    0    0 -0.21371249619E+02 -0.14309760305E+02 -0.39900339549E+00  0.25722728359E+02  0.51100000000E-03 0. -1.
        -11    1    4    4    0    0  0.12403564245E+01  0.32122445351E+00  0.31851783738E-01  0.12816723476E+01  0.51100000000E-03 0.  1.
         12    1    4    4    0    0  0.52930990407E+00 -0.18952500318E+02  0.13925612280E+02  0.23524457798E+02  0.00000000000E+00 0. -1.
</event>
<event>
 8    1  0.4964753E-012  0.9118800E+02  0.7816164E-02  0.1184000E+00
        -11   -1    0    0    0    0  0.00000000000E+00  0.00000000000E+00  0.45593999997E+02  0.45594000000E+02  0.51100000000E-03 0. -1.
         11   -1    0    0    0    0 -0.00000000000E+00 -0.00000000000E+00 -0.45593999997E+02  0.45594000000E+02  0.51100000000E-03 0.  1.
         23    2    1    2    0    0  0.88817841970E-15  0.00000000000E+00  0.00000000000E+00  0.91188000000E+02  0.91188000000E+02 0.  0.
    9900012    2    3    3    0    0 -0.27727299862E+01 -0.23766511826E+02  0.32872934219E+02  0.50528869167E+02  0.30000028319E+02 0.  0.
        -12    1    3    3    0    0  0.27727299862E+01  0.23766511826E+02 -0.32872934219E+02  0.40659130833E+02  0.00000000000E+00 0.  1.
         11    1    4    4    0    0  0.70326916834E+01 -0.10515213668E+02  0.75108029245E+01  0.14711921412E+02  0.51100000000E-03 0. -1.
        -11    1    4    4    0    0 -0.16300473942E+01  0.77558021882E+00  0.17826916639E+02  0.17918078476E+02  0.51100000000E-03 0.  1.
         12    1    4    4    0    0 -0.81753742754E+01 -0.14026878377E+02  0.75352146557E+01  0.17898869278E+02  0.00000000000E+00 0. -1.
</event>
<event>
 8    1  0.4964753E-012  0.9118800E+02  0.7816164E-02  0.1184000E+00
        -11   -1    0    0    0    0  0.00000000000E+00  0.00000000000E+00  0.45593999997E+02  0.45594000000E+02  0.51100000000E-03 0.  1.
         11   -1    0    0    0    0 -0.00000000000E+00 -0.00000000000E+00 -0.45593999997E+02  0.45594000000E+02  0.51100000000E-03 0. -1.
         23    2    1    2    0    0  0.71054273576E-14  0.00000000000E+00  0.00000000000E+00  0.91188000000E+02  0.91188000000E+02 0.  0.
    9900012    2    3    3    0    0  0.32885545842E+02 -0.12834318082E+02 -0.20173910278E+02  0.50528862013E+02  0.30000006574E+02 0.  0.
         12    1    3    3    0    0 -0.32885545842E+02  0.12834318082E+02  0.20173910278E+02  0.40659137987E+02  0.00000000000E+00 0. -1.
         11    1    4    4    0    0  0.46022464853E+01 -0.67251342321E+01 -0.12174781951E+02  0.14650372656E+02  0.51100000000E-03 0. -1.
        -11    1    4    4    0    0  0.12952863241E+02 -0.12305903791E+02 -0.91644237456E+00  0.17889991648E+02  0.51100000000E-03 0.  1.
         12    1    4    4    0    0  0.15330436116E+02  0.61967199414E+01 -0.70826859517E+01  0.17988497709E+02  0.00000000000E+00 0. -1.
</event>
<event>
 8    1  0.4964753E-012  0.9118800E+02  0.7816164E-02  0.1184000E+00
        -11   -1    0    0    0    0  0.00000000000E+00  0.00000000000E+00  0.45593999997E+02  0.45594000000E+02  0.51100000000E-03 0. -1.
         11   -1    0    0    0    0 -0.00000000000E+00 -0.00000000000E+00 -0.45593999997E+02  0.45594000000E+02  0.51100000000E-03 0.  1.
         23    2    1    2    0    0  0.71054273576E-14  0.00000000000E+00  0.17763568394E-14  0.91188000000E+02  0.91188000000E+02 0.  0.
    9900012    2    3    3    0    0 -0.33081338756E+02  0.18142128788E+02  0.15154340884E+02  0.50528857628E+02  0.29999993245E+02 0.  0.
        -12    1    3    3    0    0  0.33081338756E+02 -0.18142128788E+02 -0.15154340884E+02  0.40659142372E+02  0.00000000000E+00 0.  1.
         11    1    4    4    0    0 -0.41033957050E+01  0.22422054278E+01  0.47632378385E+01  0.66748615311E+01  0.51100000000E-03 0. -1.
        -11    1    4    4    0    0 -0.15994700938E+02 -0.24786558762E+01 -0.45868238244E+01  0.16822994565E+02  0.51100000000E-03 0.  1.
        -12    1    4    4    0    0 -0.12983242112E+02  0.18378579237E+02  0.14977926870E+02  0.27031001532E+02  0.00000000000E+00 0.  1.
</event>
<event>
 8    1  0.4964753E-012  0.9118800E+02  0.7816164E-02  0.1184000E+00
        -11   -1    0    0    0    0  0.00000000000E+00  0.00000000000E+00  0.45593999997E+02  0.45594000000E+02  0.51100000000E-03 0. -1.
         11   -1    0    0    0    0 -0.00000000000E+00 -0.00000000000E+00 -0.45593999997E+02  0.45594000000E+02  0.51100000000E-03 0.  1.
         23    2    1    2    0    0 -0.35527136788E-14  0.00000000000E+00 -0.35527136788E-14  0.91188000000E+02  0.91188000000E+02 0.  0.
    9900012    2    3    3    0    0  0.19758180236E+02  0.20225364225E+02  0.29218400830E+02  0.50528855993E+02  0.29999988277E+02 0.  0.
        -12    1    3    3    0    0 -0.19758180236E+02 -0.20225364225E+02 -0.29218400830E+02  0.40659144007E+02  0.00000000000E+00 0.  1.
         11    1    4    4    0    0  0.17056004946E+02  0.15620805279E+02  0.21084937704E+02  0.31296828282E+02  0.51100000000E-03 0. -1.
        -11    1    4    4    0    0  0.53133519499E+01  0.10021300775E+01 -0.37252844245E+01  0.65661037108E+01  0.51100000000E-03 0.  1.
         12    1    4    4    0    0 -0.26111766604E+01  0.36024288688E+01  0.11858747551E+02  0.12665924000E+02  0.00000000000E+00 0. -1.
</event>
<event>
 8    1  0.4964753E-012  0.9118800E+02  0.7816164E-02  0.1184000E+00
        -11   -1    0    0    0    0  0.00000000000E+00  0.00000000000E+00  0.45593999997E+02  0.45594000000E+02  0.51100000000E-03 0. -1.
         11   -1    0    0    0    0 -0.00000000000E+00 -0.00000000000E+00 -0.45593999997E+02  0.45594000000E+02  0.51100000000E-03 0.  1.
         23    2    1    2    0    0  0.00000000000E+00  0.17763568394E-14  0.00000000000E+00  0.91188000000E+02  0.91188000000E+02 0.  0.
    9900012    2    3    3    0    0  0.47138581151E+01 -0.15085669616E+02  0.37461577346E+02  0.50528835433E+02  0.29999925781E+02 0.  0.
        -12    1    3    3    0    0 -0.47138581151E+01  0.15085669616E+02 -0.37461577346E+02  0.40659164567E+02  0.00000000000E+00 0.  1.
         11    1    4    4    0    0  0.27925759900E+01 -0.85721683841E+01  0.12826842598E+02  0.15678279330E+02  0.51100000000E-03 0. -1.
        -11    1    4    4    0    0 -0.10080620634E+02 -0.65414073443E+01  0.16246435140E+02  0.20207809813E+02  0.51100000000E-03 0.  1.
        -12    1    4    4    0    0  0.12001902759E+02  0.27906112650E-01  0.83882996080E+01  0.14642746290E+02  0.00000000000E+00 0.  1.
</event>
<event>
 8    1  0.4964753E-012  0.9118800E+02  0.7816164E-02  0.1184000E+00
        -11   -1    0    0    0    0  0.00000000000E+00  0.00000000000E+00  0.45593999997E+02  0.45594000000E+02  0.51100000000E-03 0. -1.
         11   -1    0    0    0    0 -0.00000000000E+00 -0.00000000000E+00 -0.45593999997E+02  0.45594000000E+02  0.51100000000E-03 0.  1.
         23    2    1    2    0    0  0.35527136788E-14 -0.71054273576E-14  0.17763568394E-14  0.91188000000E+02  0.91188000000E+02 0.  0.
    9900012    2    3    3    0    0  0.18585378755E+02 -0.33467069629E+02  0.13700485703E+02  0.50528876036E+02  0.30000049199E+02 0.  0.
        -12    1    3    3    0    0 -0.18585378755E+02  0.33467069629E+02 -0.13700485703E+02  0.40659123964E+02  0.00000000000E+00 0.  1.
         11    1    4    4    0    0 -0.52011769684E+01 -0.10471218223E+01  0.15224203637E+00  0.53077192716E+01  0.51100000000E-03 0. -1.
        -11    1    4    4    0    0  0.88807278419E+01 -0.68901528524E+01 -0.25979976826E+01  0.11536512712E+02  0.51100000000E-03 0.  1.
         12    1    4    4    0    0  0.14905827881E+02 -0.25529794954E+02  0.16146241350E+02  0.33684644053E+02  0.00000000000E+00 0. -1.
</event>
<event>
 8    1  0.4964753E-012  0.9118800E+02  0.7816164E-02  0.1184000E+00
        -11   -1    0    0    0    0  0.00000000000E+00  0.00000000000E+00  0.45593999997E+02  0.45594000000E+02  0.51100000000E-03 0. -1.
         11   -1    0    0    0    0 -0.00000000000E+00 -0.00000000000E+00 -0.45593999997E+02  0.45594000000E+02  0.51100000000E-03 0.  1.
         23    2    1    2    0    0  0.17763568394E-14  0.00000000000E+00  0.00000000000E+00  0.91188000000E+02  0.91188000000E+02 0.  0.
    9900012    2    3    3    0    0  0.12389410806E+02  0.32830333292E+02  0.20538707690E+02  0.50528846077E+02  0.29999958135E+02 0.  0.
        -12    1    3    3    0    0 -0.12389410806E+02 -0.32830333292E+02 -0.20538707690E+02  0.40659153923E+02  0.00000000000E+00 0.  1.
         11    1    4    4    0    0  0.73158574501E+01  0.18798026581E+02  0.52486273542E+01  0.20843120278E+02  0.51100000000E-03 0. -1.
        -11    1    4    4    0    0 -0.18846941197E+01  0.31683133642E+01 -0.46511984813E+01  0.59349750692E+01  0.51100000000E-03 0.  1.
        -12    1    4    4    0    0  0.69582474755E+01  0.10863993347E+02  0.19941278817E+02  0.23750750730E+02  0.00000000000E+00 0.  1.
</event>
<event>
 8    1  0.4964753E-012  0.9118800E+02  0.7816164E-02  0.1184000E+00
        -11   -1    0    0    0    0  0.00000000000E+00  0.00000000000E+00  0.45593999997E+02  0.45594000000E+02  0.51100000000E-03 0. -1.
         11   -1    0    0    0    0 -0.00000000000E+00 -0.00000000000E+00 -0.45593999997E+02  0.45594000000E+02  0.51100000000E-03 0.  1.
         23    2    1    2    0    0  0.17763568394E-14  0.00000000000E+00  0.00000000000E+00  0.91188000000E+02  0.91188000000E+02 0.  0.
    9900012    2    3    3    0    0 -0.14197882243E+02  0.13513124999E+02  0.35622763329E+02  0.50528859889E+02  0.30000000117E+02 0.  0.
        -12    1    3    3    0    0  0.14197882243E+02 -0.13513124999E+02 -0.35622763329E+02  0.40659140111E+02  0.00000000000E+00 0.  1.
         11    1    4    4    0    0 -0.32618488660E+01  0.19158980512E+01  0.27335930420E+01  0.46672105746E+01  0.51100000000E-03 0. -1.
        -11    1    4    4    0    0  0.37289179690E+01  0.89390072388E+01  0.28831995123E+02  0.30415368198E+02  0.51100000000E-03 0.  1.
        -12    1    4    4    0    0 -0.14664951346E+02  0.26582197088E+01  0.40571751643E+01  0.15446281116E+02  0.00000000000E+00 0.  1.
</event>
<event>
 8    1  0.4964753E-012  0.9118800E+02  0.7816164E-02  0.1184000E+00
        -11   -1    0    0    0    0  0.00000000000E+00  0.00000000000E+00  0.45593999997E+02  0.45594000000E+02  0.51100000000E-03 0. -1.
         11   -1    0    0    0    0 -0.00000000000E+00 -0.00000000000E+00 -0.45593999997E+02  0.45594000000E+02  0.51100000000E-03 0.  1.
         23    2    1    2    0    0  0.53290705182E-14  0.00000000000E+00  0.00000000000E+00  0.91188000000E+02  0.91188000000E+02 0.  0.
    9900012    2    3    3    0    0  0.12778777027E+02  0.38546941585E+02 -0.20004143069E+01  0.50528861971E+02  0.30000006446E+02 0.  0.
        -12    1    3    3    0    0 -0.12778777027E+02 -0.38546941585E+02  0.20004143069E+01  0.40659138029E+02  0.00000000000E+00 0.  1.
         11    1    4    4    0    0  0.89716942468E+00  0.13697669398E+02  0.44003028562E+01  0.14415052043E+02  0.51100000000E-03 0. -1.
        -11    1    4    4    0    0  0.17362484019E+02  0.24136132842E+02 -0.36982039991E+01  0.29961399716E+02  0.51100000000E-03 0.  1.
        -12    1    4    4    0    0 -0.54808764160E+01  0.71313934562E+00 -0.27025131640E+01  0.61524102119E+01  0.00000000000E+00 0.  1.
</event>
<event>
 8    1  0.4964753E-012  0.9118800E+02  0.7816164E-02  0.1184000E+00
        -11   -1    0    0    0    0  0.00000000000E+00  0.00000000000E+00  0.45593999997E+02  0.45594000000E+02  0.51100000000E-03 0. -1.
         11   -1    0    0    0    0 -0.00000000000E+00 -0.00000000000E+00 -0.45593999997E+02  0.45594000000E+02  0.51100000000E-03 0.  1.
         23    2    1    2    0    0  0.00000000000E+00  0.88817841970E-15  0.71054273576E-14  0.91188000000E+02  0.91188000000E+02 0.  0.
    9900012    2    3    3    0    0 -0.81006502032E+01 -0.78177318131E+01 -0.39069514534E+02  0.50528875189E+02  0.30000046626E+02 0.  0.
         12    1    3    3    0    0  0.81006502032E+01  0.78177318131E+01  0.39069514534E+02  0.40659124811E+02  0.00000000000E+00 0. -1.
         11    1    4    4    0    0  0.59998242577E+01  0.16528667033E+01  0.23154917811E+00  0.62276379748E+01  0.51100000000E-03 0. -1.
        -11    1    4    4    0    0 -0.26717834547E+00 -0.86596702251E+00 -0.15103549029E+02  0.15130713027E+02  0.51100000000E-03 0.  1.
        -12    1    4    4    0    0 -0.13833296116E+02 -0.86046314938E+01 -0.24197514683E+02  0.29170524188E+02  0.00000000000E+00 0.  1.
</event>
<event>
 8    1  0.4964753E-012  0.9118800E+02  0.7816164E-02  0.1184000E+00
        -11   -1    0    0    0    0  0.00000000000E+00  0.00000000000E+00  0.45593999997E+02  0.45594000000E+02  0.51100000000E-03 0. -1.
         11   -1    0    0    0    0 -0.00000000000E+00 -0.00000000000E+00 -0.45593999997E+02  0.45594000000E+02  0.51100000000E-03 0.  1.
         23    2    1    2    0    0  0.44408920985E-14  0.35527136788E-14  0.00000000000E+00  0.91188000000E+02  0.91188000000E+02 0.  0.
    9900012    2    3    3    0    0  0.69056256704E+01  0.21378348622E+02 -0.33888711869E+02  0.50528852839E+02  0.29999978690E+02 0.  0.
         12    1    3    3    0    0 -0.69056256704E+01 -0.21378348622E+02  0.33888711869E+02  0.40659147161E+02  0.00000000000E+00 0. -1.
         11    1    4    4    0    0  0.18114466896E+02  0.15635523586E+02 -0.20588790946E+02  0.31567417088E+02  0.51100000000E-03 0. -1.
        -11    1    4    4    0    0 -0.12767690197E+01  0.58317251038E+00 -0.45299042102E+01  0.47423898744E+01  0.51100000000E-03 0.  1.
         12    1    4    4    0    0 -0.99320722062E+01  0.51596525259E+01 -0.87700167124E+01  0.14219045876E+02  0.00000000000E+00 0. -1.
</event>
<event>
 8    1  0.4964753E-012  0.9118800E+02  0.7816164E-02  0.1184000E+00
        -11   -1    0    0    0    0  0.00000000000E+00  0.00000000000E+00  0.45593999997E+02  0.45594000000E+02  0.51100000000E-03 0. -1.
         11   -1    0    0    0    0 -0.00000000000E+00 -0.00000000000E+00 -0.45593999997E+02  0.45594000000E+02  0.51100000000E-03 0.  1.
         23    2    1    2    0    0 -0.17763568394E-14 -0.88817841970E-15  0.00000000000E+00  0.91188000000E+02  0.91188000000E+02 0.  0.
    9900012    2    3    3    0    0 -0.15264513196E+02  0.36448554693E+01 -0.37508332371E+02  0.50528864105E+02  0.30000012933E+02 0.  0.
         12    1    3    3    0    0  0.15264513196E+02 -0.36448554693E+01  0.37508332371E+02  0.40659135895E+02  0.00000000000E+00 0. -1.
         11    1    4    4    0    0 -0.12193698402E+02  0.66669630432E+01 -0.95078483883E+01  0.16838463652E+02  0.51100000000E-03 0. -1.
        -11    1    4    4    0    0 -0.83979503610E+01 -0.39476753904E+01 -0.60353366285E+01  0.11069552825E+02  0.51100000000E-03 0.  1.
         12    1    4    4    0    0  0.53271355670E+01  0.92556781646E+00 -0.21965147354E+02  0.22620847628E+02  0.00000000000E+00 0. -1.
</event>
<event>
 8    1  0.4964753E-012  0.9118800E+02  0.7816164E-02  0.1184000E+00
        -11   -1    0    0    0    0  0.00000000000E+00  0.00000000000E+00  0.45593999997E+02  0.45594000000E+02  0.51100000000E-03 0. -1.
         11   -1    0    0    0    0 -0.00000000000E+00 -0.00000000000E+00 -0.45593999997E+02  0.45594000000E+02  0.51100000000E-03 0.  1.
         23    2    1    2    0    0  0.35527136788E-14  0.88817841970E-15  0.00000000000E+00  0.91188000000E+02  0.91188000000E+02 0.  0.
    9900012    2    3    3    0    0 -0.23170342190E+02  0.24846252637E+01 -0.33318653470E+02  0.50528796995E+02  0.29999808947E+02 0.  0.
         12    1    3    3    0    0  0.23170342190E+02 -0.24846252637E+01  0.33318653470E+02  0.40659203005E+02  0.00000000000E+00 0. -1.
         11    1    4    4    0    0 -0.96534828272E+01 -0.33722963010E+01 -0.12918115327E+02  0.16475430705E+02  0.51100000000E-03 0.  1.
        -11    1    4    4    0    0  0.16542908238E+01 -0.62909217961E+01 -0.10216229104E+02  0.12111305155E+02  0.51100000000E-03 0. -1.
        -12    1    4    4    0    0 -0.15171150187E+02  0.12147843361E+02 -0.10184309039E+02  0.21942061136E+02  0.00000000000E+00 0.  1.
</event>
<event>
 8    1  0.4964753E-012  0.9118800E+02  0.7816164E-02  0.1184000E+00
        -11   -1    0    0    0    0  0.00000000000E+00  0.00000000000E+00  0.45593999997E+02  0.45594000000E+02  0.51100000000E-03 0. -1.
         11   -1    0    0    0    0 -0.00000000000E+00 -0.00000000000E+00 -0.45593999997E+02  0.45594000000E+02  0.51100000000E-03 0.  1.
         23    2    1    2    0    0  0.00000000000E+00  0.00000000000E+00 -0.71054273576E-14  0.91188000000E+02  0.91188000000E+02 0.  0.
    9900012    2    3    3    0    0  0.13587186506E+02 -0.92466907453E+01  0.37189419022E+02  0.50528858173E+02  0.29999994902E+02 0.  0.
        -12    1    3    3    0    0 -0.13587186506E+02  0.92466907453E+01 -0.37189419022E+02  0.40659141827E+02  0.00000000000E+00 0.  1.
         11    1    4    4    0    0  0.15449464851E+02 -0.38948584682E+01  0.20031831374E+02  0.25595510448E+02  0.51100000000E-03 0. -1.
        -11    1    4    4    0    0 -0.41512483833E+01  0.17024698174E+01  0.16928962892E+02  0.17513453443E+02  0.51100000000E-03 0.  1.
         12    1    4    4    0    0  0.22889700386E+01 -0.70543020944E+01  0.22862475660E+00  0.74198942820E+01  0.00000000000E+00 0. -1.
</event>
<event>
 8    1  0.4964753E-012  0.9118800E+02  0.7816164E-02  0.1184000E+00
        -11   -1    0    0    0    0  0.00000000000E+00  0.00000000000E+00  0.45593999997E+02  0.45594000000E+02  0.51100000000E-03 0. -1.
         11   -1    0    0    0    0 -0.00000000000E+00 -0.00000000000E+00 -0.45593999997E+02  0.45594000000E+02  0.51100000000E-03 0.  1.
         23    2    1    2    0    0  0.00000000000E+00  0.00000000000E+00  0.00000000000E+00  0.91188000000E+02  0.91188000000E+02 0.  0.
    9900012    2    3    3    0    0  0.35635511588E+02  0.10561399092E+02 -0.16484356882E+02  0.50528845326E+02  0.29999955854E+02 0.  0.
         12    1    3    3    0    0 -0.35635511588E+02 -0.10561399092E+02  0.16484356882E+02  0.40659154674E+02  0.00000000000E+00 0. -1.
         11    1    4    4    0    0  0.14329068239E+02  0.56984997085E+01 -0.10265519497E+02  0.18525009752E+02  0.51100000000E-03 0. -1.
        -11    1    4    4    0    0  0.24486533446E+02 -0.38104373771E+00 -0.20227699158E+01  0.24572893865E+02  0.51100000000E-03 0.  1.
         12    1    4    4    0    0 -0.31800900959E+01  0.52439431213E+01 -0.41960674692E+01  0.74309417091E+01  0.00000000000E+00 0. -1.
</event>
<event>
 8    1  0.4964753E-012  0.9118800E+02  0.7816164E-02  0.1184000E+00
        -11   -1    0    0    0    0  0.00000000000E+00  0.00000000000E+00  0.45593999997E+02  0.45594000000E+02  0.51100000000E-03 0. -1.
         11   -1    0    0    0    0 -0.00000000000E+00 -0.00000000000E+00 -0.45593999997E+02  0.45594000000E+02  0.51100000000E-03 0.  1.
         23    2    1    2    0    0 -0.71054273576E-14  0.00000000000E+00 -0.17763568394E-14  0.91188000000E+02  0.91188000000E+02 0.  0.
    9900012    2    3    3    0    0 -0.32464336564E+02 -0.22778227271E+02  0.89657658088E+01  0.50528859051E+02  0.29999997573E+02 0.  0.
        -12    1    3    3    0    0  0.32464336564E+02  0.22778227271E+02 -0.89657658088E+01  0.40659140949E+02  0.00000000000E+00 0.  1.
         11    1    4    4    0    0 -0.16884337853E+02 -0.12198455277E+02  0.14560314356E+02  0.25414285949E+02  0.51100000000E-03 0. -1.
        -11    1    4    4    0    0 -0.10934557955E+02 -0.72114404781E+01  0.42065258579E+01  0.13757335916E+02  0.51100000000E-03 0.  1.
        -12    1    4    4    0    0 -0.46454407555E+01 -0.33683315165E+01 -0.98010744055E+01  0.11357237187E+02  0.00000000000E+00 0.  1.
</event>
<event>
 8    1  0.4964753E-012  0.9118800E+02  0.7816164E-02  0.1184000E+00
        -11   -1    0    0    0    0  0.00000000000E+00  0.00000000000E+00  0.45593999997E+02  0.45594000000E+02  0.51100000000E-03 0. -1.
         11   -1    0    0    0    0 -0.00000000000E+00 -0.00000000000E+00 -0.45593999997E+02  0.45594000000E+02  0.51100000000E-03 0.  1.
         23    2    1    2    0    0  0.35527136788E-14  0.00000000000E+00  0.00000000000E+00  0.91188000000E+02  0.91188000000E+02 0.  0.
    9900012    2    3    3    0    0 -0.25202456282E+02  0.13334541343E+02  0.28986059493E+02  0.50528862768E+02  0.30000008871E+02 0.  0.
        -12    1    3    3    0    0  0.25202456282E+02 -0.13334541343E+02 -0.28986059493E+02  0.40659137232E+02  0.00000000000E+00 0.  1.
         11    1    4    4    0    0  0.36578250770E+00  0.73672839128E+01  0.43273388274E+01  0.85519898669E+01  0.51100000000E-03 0.  1.
        -11    1    4    4    0    0 -0.85534086749E+01  0.12541460239E+02  0.14980705008E+02  0.21327694383E+02  0.51100000000E-03 0. -1.
        -12    1    4    4    0    0 -0.17014830115E+02 -0.65742028089E+01  0.96780156572E+01  0.20649178518E+02  0.00000000000E+00 0.  1.
</event>
<event>
 8    1  0.4964753E-012  0.9118800E+02  0.7816164E-02  0.1184000E+00
        -11   -1    0    0    0    0  0.00000000000E+00  0.00000000000E+00  0.45593999997E+02  0.45594000000E+02  0.51100000000E-03 0. -1.
         11   -1    0    0    0    0 -0.00000000000E+00 -0.00000000000E+00 -0.45593999997E+02  0.45594000000E+02  0.51100000000E-03 0.  1.
         23    2    1    2    0    0 -0.17763568394E-14  0.35527136788E-14  0.71054273576E-14  0.91188000000E+02  0.91188000000E+02 0.  0.
    9900012    2    3    3    0    0 -0.12333527400E+02  0.21456086751E+02  0.32259665040E+02  0.50528861479E+02  0.30000004951E+02 0.  0.
        -12    1    3    3    0    0  0.12333527400E+02 -0.21456086751E+02 -0.32259665040E+02  0.40659138521E+02  0.00000000000E+00 0.  1.
         11    1    4    4    0    0 -0.11324045165E+02  0.66735591865E+01  0.26657159411E+02  0.29721617373E+02  0.51100000000E-03 0. -1.
        -11    1    4    4    0    0  0.29723714482E+01  0.59678202445E+00  0.52577832271E+01  0.60692195161E+01  0.51100000000E-03 0.  1.
         12    1    4    4    0    0 -0.39818536834E+01  0.14185745540E+02  0.34472240174E+00  0.14738024590E+02  0.00000000000E+00 0. -1.
</event>
<event>
 8    1  0.4964753E-012  0.9118800E+02  0.7816164E-02  0.1184000E+00
        -11   -1    0    0    0    0  0.00000000000E+00  0.00000000000E+00  0.45593999997E+02  0.45594000000E+02  0.51100000000E-03 0. -1.
         11   -1    0    0    0    0 -0.00000000000E+00 -0.00000000000E+00 -0.45593999997E+02  0.45594000000E+02  0.51100000000E-03 0.  1.
         23    2    1    2    0    0  0.00000000000E+00  0.17763568394E-14  0.71054273576E-14  0.91188000000E+02  0.91188000000E+02 0.  0.
    9900012    2    3    3    0    0 -0.12991852862E+02  0.95149920487E+01 -0.37334195137E+02  0.50528862761E+02  0.30000008847E+02 0.  0.
         12    1    3    3    0    0  0.12991852862E+02 -0.95149920487E+01  0.37334195137E+02  0.40659137239E+02  0.00000000000E+00 0. -1.
         11    1    4    4    0    0 -0.13587932545E+01  0.55234397476E+01 -0.19255710546E+01  0.60052085643E+01  0.51100000000E-03 0. -1.
        -11    1    4    4    0    0  0.50804871502E+01  0.58935304214E+01 -0.20928924704E+02  0.22328567801E+02  0.51100000000E-03 0.  1.
        -12    1    4    4    0    0 -0.16713546758E+02 -0.19019781203E+01 -0.14479699379E+02  0.22195086396E+02  0.00000000000E+00 0.  1.
</event>
<event>
 8    1  0.4964753E-012  0.9118800E+02  0.7816164E-02  0.1184000E+00
        -11   -1    0    0    0    0  0.00000000000E+00  0.00000000000E+00  0.45593999997E+02  0.45594000000E+02  0.51100000000E-03 0. -1.
         11   -1    0    0    0    0 -0.00000000000E+00 -0.00000000000E+00 -0.45593999997E+02  0.45594000000E+02  0.51100000000E-03 0.  1.
         23    2    1    2    0    0  0.00000000000E+00  0.74940054162E-15  0.00000000000E+00  0.91188000000E+02  0.91188000000E+02 0.  0.
    9900012    2    3    3    0    0 -0.36427036657E+02 -0.86927336938E-01 -0.18061839821E+02  0.50528848340E+02  0.29999965014E+02 0.  0.
         12    1    3    3    0    0  0.36427036657E+02  0.86927336938E-01  0.18061839821E+02  0.40659151660E+02  0.00000000000E+00 0. -1.
         11    1    4    4    0    0 -0.18577956665E+02 -0.38881730996E+01 -0.41236074573E+01  0.19423246449E+02  0.51100000000E-03 0. -1.
        -11    1    4    4    0    0 -0.15057036675E+02 -0.40170573098E+00 -0.18806054184E+02  0.24094468144E+02  0.51100000000E-03 0.  1.
        -12    1    4    4    0    0 -0.27920433181E+01  0.42029514936E+01  0.48678218203E+01  0.70111337472E+01  0.00000000000E+00 0.  1.
</event>
<event>
 8    1  0.4964753E-012  0.9118800E+02  0.7816164E-02  0.1184000E+00
        -11   -1    0    0    0    0  0.00000000000E+00  0.00000000000E+00  0.45593999997E+02  0.45594000000E+02  0.51100000000E-03 0.  1.
         11   -1    0    0    0    0 -0.00000000000E+00 -0.00000000000E+00 -0.45593999997E+02  0.45594000000E+02  0.51100000000E-03 0. -1.
         23    2    1    2    0    0 -0.88817841970E-15  0.71054273576E-14 -0.22204460493E-15  0.91188000000E+02  0.91188000000E+02 0.  0.
    9900012    2    3    3    0    0  0.50453320557E+01 -0.40295679930E+02  0.19928560827E+01  0.50528823029E+02  0.29999888079E+02 0.  0.
        -12    1    3    3    0    0 -0.50453320557E+01  0.40295679930E+02 -0.19928560827E+01  0.40659176971E+02  0.00000000000E+00 0.  1.
         11    1    4    4    0    0  0.68593879072E+01 -0.15449203227E+02  0.20745766485E+01  0.17030353823E+02  0.51100000000E-03 0. -1.
        -11    1    4    4    0    0  0.76242312590E+01 -0.18799735679E+02  0.54392699905E+01  0.21003443103E+02  0.51100000000E-03 0.  1.
        -12    1    4    4    0    0 -0.94382871105E+01 -0.60467410242E+01 -0.55209905563E+01  0.12495026103E+02  0.00000000000E+00 0.  1.
</event>
<event>
 8    1  0.4964753E-012  0.9118800E+02  0.7816164E-02  0.1184000E+00
        -11   -1    0    0    0    0  0.00000000000E+00  0.00000000000E+00  0.45593999997E+02  0.45594000000E+02  0.51100000000E-03 0. -1.
         11   -1    0    0    0    0 -0.00000000000E+00 -0.00000000000E+00 -0.45593999997E+02  0.45594000000E+02  0.51100000000E-03 0.  1.
         23    2    1    2    0    0 -0.71054273576E-14  0.00000000000E+00  0.00000000000E+00  0.91188000000E+02  0.91188000000E+02 0.  0.
    9900012    2    3    3    0    0  0.35273177600E+02 -0.57668457204E+01 -0.19383292880E+02  0.50528860677E+02  0.30000002515E+02 0.  0.
         12    1    3    3    0    0 -0.35273177600E+02  0.57668457204E+01  0.19383292880E+02  0.40659139323E+02  0.00000000000E+00 0. -1.
         11    1    4    4    0    0  0.25641073052E+00  0.23106700058E+01  0.46148810322E+01  0.51674045265E+01  0.51100000000E-03 0. -1.
        -11    1    4    4    0    0  0.98662869591E+01 -0.75350364048E+01 -0.12780211290E+02  0.17817244255E+02  0.51100000000E-03 0.  1.
        -12    1    4    4    0    0  0.25150479911E+02 -0.54247932132E+00 -0.11217962623E+02  0.27544211896E+02  0.00000000000E+00 0.  1.
</event>
<event>
 8    1  0.4964753E-012  0.9118800E+02  0.7816164E-02  0.1184000E+00
        -11   -1    0    0    0    0  0.00000000000E+00  0.00000000000E+00  0.45593999997E+02  0.45594000000E+02  0.51100000000E-03 0. -1.
         11   -1    0    0    0    0 -0.00000000000E+00 -0.00000000000E+00 -0.45593999997E+02  0.45594000000E+02  0.51100000000E-03 0.  1.
         23    2    1    2    0    0  0.00000000000E+00  0.17763568394E-14  0.00000000000E+00  0.91188000000E+02  0.91188000000E+02 0.  0.
    9900012    2    3    3    0    0  0.10288208833E+02 -0.11029697138E+02 -0.37757956620E+02  0.50528871283E+02  0.30000034751E+02 0.  0.
         12    1    3    3    0    0 -0.10288208833E+02  0.11029697138E+02  0.37757956620E+02  0.40659128717E+02  0.00000000000E+00 0. -1.
         11    1    4    4    0    0  0.58488625057E+01  0.64182319028E+00 -0.29172782157E+01  0.65674684671E+01  0.51100000000E-03 0. -1.
        -11    1    4    4    0    0  0.95000407948E+01  0.29828362388E+00 -0.36673538984E+01  0.10187700089E+02  0.51100000000E-03 0.  1.
        -12    1    4    4    0    0 -0.50606944677E+01 -0.11969803952E+02 -0.31173324506E+02  0.33773702727E+02  0.00000000000E+00 0.  1.
</event>
<event>
 8    1  0.4964753E-012  0.9118800E+02  0.7816164E-02  0.1184000E+00
        -11   -1    0    0    0    0  0.00000000000E+00  0.00000000000E+00  0.45593999997E+02  0.45594000000E+02  0.51100000000E-03 0. -1.
         11   -1    0    0    0    0 -0.00000000000E+00 -0.00000000000E+00 -0.45593999997E+02  0.45594000000E+02  0.51100000000E-03 0.  1.
         23    2    1    2    0    0  0.22204460493E-15 -0.35527136788E-14  0.71054273576E-14  0.91188000000E+02  0.91188000000E+02 0.  0.
    9900012    2    3    3    0    0 -0.17175349759E+01  0.21521647633E+02  0.34453364397E+02  0.50528861280E+02  0.30000004345E+02 0.  0.
        -12    1    3    3    0    0  0.17175349759E+01 -0.21521647633E+02 -0.34453364397E+02  0.40659138720E+02  0.00000000000E+00 0.  1.
         11    1    4    4    0    0 -0.53033471618E+01  0.67222438204E+01  0.21429241441E+02  0.23076534447E+02  0.51100000000E-03 0. -1.
        -11    1    4    4    0    0  0.55120228503E+01  0.13263339837E+02  0.17319653600E+02  0.22500421787E+02  0.51100000000E-03 0.  1.
        -12    1    4    4    0    0 -0.19262106644E+01  0.15360639754E+01 -0.42955306439E+01  0.49519050448E+01  0.00000000000E+00 0.  1.
</event>
<event>
 8    1  0.4964753E-012  0.9118800E+02  0.7816164E-02  0.1184000E+00
        -11   -1    0    0    0    0  0.00000000000E+00  0.00000000000E+00  0.45593999997E+02  0.45594000000E+02  0.51100000000E-03 0. -1.
         11   -1    0    0    0    0 -0.00000000000E+00 -0.00000000000E+00 -0.45593999997E+02  0.45594000000E+02  0.51100000000E-03 0.  1.
         23    2    1    2    0    0  0.35527136788E-14  0.00000000000E+00  0.00000000000E+00  0.91188000000E+02  0.91188000000E+02 0.  0.
    9900012    2    3    3    0    0 -0.29948195121E+02 -0.16088877890E+02 -0.22302908739E+02  0.50528854399E+02  0.29999983432E+02 0.  0.
         12    1    3    3    0    0  0.29948195121E+02  0.16088877890E+02  0.22302908739E+02  0.40659145601E+02  0.00000000000E+00 0. -1.
         11    1    4    4    0    0 -0.98335697713E-01 -0.30717988831E+01 -0.30146758140E+01  0.43051003255E+01  0.51100000000E-03 0. -1.
        -11    1    4    4    0    0 -0.30626691491E+02 -0.18288455937E+02 -0.12964365074E+02  0.37954401777E+02  0.51100000000E-03 0.  1.
        -12    1    4    4    0    0  0.77683206719E+00  0.52713769304E+01 -0.63238678517E+01  0.82693522967E+01  0.00000000000E+00 0.  1.
</event>
<event>
 8    1  0.5574595E-012  0.9118800E+02  0.7816164E-02  0.1184000E+00
        -11   -1    0    0    0    0  0.00000000000E+00  0.00000000000E+00  0.45593999997E+02  0.45594000000E+02  0.51100000000E-03 0.  1.
         11   -1    0    0    0    0 -0.00000000000E+00 -0.00000000000E+00 -0.45593999997E+02  0.45594000000E+02  0.51100000000E-03 0. -1.
         23    2    1    2    0    0  0.00000000000E+00  0.00000000000E+00  0.00000000000E+00  0.91188000000E+02  0.91188000000E+02 0.  0.
    9900012    2    3    3    0    0  0.36624411424E+02  0.15357327982E+01 -0.17591467894E+02  0.50528859207E+02  0.29999998045E+02 0.  0.
         12    1    3    3    0    0 -0.36624411424E+02 -0.15357327982E+01  0.17591467894E+02  0.40659140793E+02  0.00000000000E+00 0. -1.
         11    1    4    4    0    0  0.26414770978E+02  0.47149572429E+01 -0.12473805481E+02  0.29589977544E+02  0.51100000000E-03 0. -1.
        -11    1    4    4    0    0  0.14988704737E+02 -0.18971409406E+01 -0.52346961309E+01  0.15989448311E+02  0.51100000000E-03 0.  1.
         12    1    4    4    0    0 -0.47790642913E+01 -0.12820835040E+01  0.11703371744E+00  0.49494333517E+01  0.00000000000E+00 0. -1.
</event>
<event>
 8    1  0.4964753E-012  0.9118800E+02  0.7816164E-02  0.1184000E+00
        -11   -1    0    0    0    0  0.00000000000E+00  0.00000000000E+00  0.45593999997E+02  0.45594000000E+02  0.51100000000E-03 0. -1.
         11   -1    0    0    0    0 -0.00000000000E+00 -0.00000000000E+00 -0.45593999997E+02  0.45594000000E+02  0.51100000000E-03 0.  1.
         23    2    1    2    0    0  0.71054273576E-14  0.88817841970E-15  0.35527136788E-14  0.91188000000E+02  0.91188000000E+02 0.  0.
    9900012    2    3    3    0    0  0.35632024351E+02  0.55190005227E+01  0.18790011938E+02  0.50528867265E+02  0.30000022540E+02 0.  0.
        -12    1    3    3    0    0 -0.35632024351E+02 -0.55190005227E+01 -0.18790011938E+02  0.40659132735E+02  0.00000000000E+00 0.  1.
         11    1    4    4    0    0  0.16167643701E+01  0.44010906940E+01  0.11400501174E+01  0.48252710656E+01  0.51100000000E-03 0. -1.
        -11    1    4    4    0    0  0.98345792612E+00 -0.77664601976E+01  0.19544917445E+01  0.80687751074E+01  0.51100000000E-03 0.  1.
        -12    1    4    4    0    0  0.33031802055E+02  0.88843700262E+01  0.15695470076E+02  0.37634821092E+02  0.00000000000E+00 0.  1.
</event>
<event>
 8    1  0.4964753E-012  0.9118800E+02  0.7816164E-02  0.1184000E+00
        -11   -1    0    0    0    0  0.00000000000E+00  0.00000000000E+00  0.45593999997E+02  0.45594000000E+02  0.51100000000E-03 0.  1.
         11   -1    0    0    0    0 -0.00000000000E+00 -0.00000000000E+00 -0.45593999997E+02  0.45594000000E+02  0.51100000000E-03 0. -1.
         23    2    1    2    0    0  0.00000000000E+00  0.00000000000E+00  0.00000000000E+00  0.91188000000E+02  0.91188000000E+02 0.  0.
    9900012    2    3    3    0    0  0.19814742888E+02 -0.33592685637E+02  0.11492327654E+02  0.50528853933E+02  0.29999982013E+02 0.  0.
         12    1    3    3    0    0 -0.19814742888E+02  0.33592685637E+02 -0.11492327654E+02  0.40659146067E+02  0.00000000000E+00 0. -1.
         11    1    4    4    0    0  0.10003482163E+02 -0.17729042037E+02 -0.84784699476E+01  0.22051599485E+02  0.51100000000E-03 0. -1.
        -11    1    4    4    0    0  0.12437936560E+01 -0.69597006961E+01  0.35059893748E+01  0.78915409265E+01  0.51100000000E-03 0.  1.
         12    1    4    4    0    0  0.85674670695E+01 -0.89039429035E+01  0.16464808227E+02  0.20585713521E+02  0.00000000000E+00 0. -1.
</event>
<event>
 8    1  0.4964753E-012  0.9118800E+02  0.7816164E-02  0.1184000E+00
        -11   -1    0    0    0    0  0.00000000000E+00  0.00000000000E+00  0.45593999997E+02  0.45594000000E+02  0.51100000000E-03 0. -1.
         11   -1    0    0    0    0 -0.00000000000E+00 -0.00000000000E+00 -0.45593999997E+02  0.45594000000E+02  0.51100000000E-03 0.  1.
         23    2    1    2    0    0  0.00000000000E+00 -0.88817841970E-15  0.00000000000E+00  0.91188000000E+02  0.91188000000E+02 0.  0.
    9900012    2    3    3    0    0  0.16926744539E+02 -0.41782389631E+01 -0.36731316116E+02  0.50528905751E+02  0.30000139521E+02 0.  0.
         12    1    3    3    0    0 -0.16926744539E+02  0.41782389631E+01  0.36731316116E+02  0.40659094249E+02  0.00000000000E+00 0. -1.
         11    1    4    4    0    0  0.45204191964E+01 -0.29052528434E+01 -0.43235436638E+01  0.68969351069E+01  0.51100000000E-03 0. -1.
        -11    1    4    4    0    0  0.43316602039E+01 -0.32144801229E+01 -0.34619901271E+02  0.35037604468E+02  0.51100000000E-03 0.  1.
        -12    1    4    4    0    0  0.80746651384E+01  0.19414940032E+01  0.22121288187E+01  0.85943661763E+01  0.00000000000E+00 0.  1.
</event>
<event>
 8    1  0.4964753E-012  0.9118800E+02  0.7816164E-02  0.1184000E+00
        -11   -1    0    0    0    0  0.00000000000E+00  0.00000000000E+00  0.45593999997E+02  0.45594000000E+02  0.51100000000E-03 0. -1.
         11   -1    0    0    0    0 -0.00000000000E+00 -0.00000000000E+00 -0.45593999997E+02  0.45594000000E+02  0.51100000000E-03 0.  1.
         23    2    1    2    0    0  0.71054273576E-14  0.00000000000E+00  0.00000000000E+00  0.91188000000E+02  0.91188000000E+02 0.  0.
    9900012    2    3    3    0    0 -0.36407394551E+02 -0.12482849913E+02  0.13109001928E+02  0.50528857713E+02  0.29999993505E+02 0.  0.
         12    1    3    3    0    0  0.36407394551E+02  0.12482849913E+02 -0.13109001928E+02  0.40659142287E+02  0.00000000000E+00 0. -1.
         11    1    4    4    0    0 -0.15615545707E+02 -0.18520687258E+01 -0.26215147023E+01  0.15942012604E+02  0.51100000000E-03 0. -1.
        -11    1    4    4    0    0 -0.16841130736E+02 -0.16099126276E+02  0.87715975812E+01  0.24894707785E+02  0.51100000000E-03 0.  1.
         12    1    4    4    0    0 -0.39507181085E+01  0.54683450881E+01  0.69589190495E+01  0.96921373243E+01  0.00000000000E+00 0. -1.
</event>
<event>
 8    1  0.4964753E-012  0.9118800E+02  0.7816164E-02  0.1184000E+00
        -11   -1    0    0    0    0  0.00000000000E+00  0.00000000000E+00  0.45593999997E+02  0.45594000000E+02  0.51100000000E-03 0. -1.
         11   -1    0    0    0    0 -0.00000000000E+00 -0.00000000000E+00 -0.45593999997E+02  0.45594000000E+02  0.51100000000E-03 0.  1.
         23    2    1    2    0    0  0.00000000000E+00  0.00000000000E+00 -0.35527136788E-14  0.91188000000E+02  0.91188000000E+02 0.  0.
    9900012    2    3    3    0    0 -0.72250517735E+01 -0.25082107156E+02 -0.31174562645E+02  0.50528845697E+02  0.29999956981E+02 0.  0.
         12    1    3    3    0    0  0.72250517735E+01  0.25082107156E+02  0.31174562645E+02  0.40659154303E+02  0.00000000000E+00 0. -1.
         11    1    4    4    0    0  0.14609429550E+01  0.38734122428E+00  0.14044735547E+01  0.20632338134E+01  0.51100000000E-03 0. -1.
        -11    1    4    4    0    0  0.11888251944E+01 -0.24738090386E+02 -0.28497003408E+02  0.37755339023E+02  0.51100000000E-03 0.  1.
         12    1    4    4    0    0 -0.98748199229E+01 -0.73135799448E+00 -0.40820327920E+01  0.10710272860E+02  0.00000000000E+00 0. -1.
</event>
<event>
 8    1  0.4964753E-012  0.9118800E+02  0.7816164E-02  0.1184000E+00
        -11   -1    0    0    0    0  0.00000000000E+00  0.00000000000E+00  0.45593999997E+02  0.45594000000E+02  0.51100000000E-03 0. -1.
         11   -1    0    0    0    0 -0.00000000000E+00 -0.00000000000E+00 -0.45593999997E+02  0.45594000000E+02  0.51100000000E-03 0.  1.
         23    2    1    2    0    0  0.00000000000E+00  0.17763568394E-14  0.00000000000E+00  0.91188000000E+02  0.91188000000E+02 0.  0.
    9900012    2    3    3    0    0  0.21115996060E+02 -0.11500295032E+02  0.32787606771E+02  0.50528816127E+02  0.29999867100E+02 0.  0.
        -12    1    3    3    0    0 -0.21115996060E+02  0.11500295032E+02 -0.32787606771E+02  0.40659183873E+02  0.00000000000E+00 0.  1.
         11    1    4    4    0    0  0.49717731965E+00  0.41756847327E+01  0.49431501172E+01  0.64898583664E+01  0.51100000000E-03 0. -1.
        -11    1    4    4    0    0 -0.15082693808E+01 -0.11500858644E+02  0.97078132265E+01  0.15125682265E+02  0.51100000000E-03 0.  1.
         12    1    4    4    0    0  0.22127088121E+02 -0.41751211204E+01  0.18136643427E+02  0.28913275496E+02  0.00000000000E+00 0. -1.
</event>
<event>
 8    1  0.4964753E-012  0.9118800E+02  0.7816164E-02  0.1184000E+00
        -11   -1    0    0    0    0  0.00000000000E+00  0.00000000000E+00  0.45593999997E+02  0.45594000000E+02  0.51100000000E-03 0. -1.
         11   -1    0    0    0    0 -0.00000000000E+00 -0.00000000000E+00 -0.45593999997E+02  0.45594000000E+02  0.51100000000E-03 0.  1.
         23    2    1    2    0    0  0.00000000000E+00  0.44408920985E-15  0.00000000000E+00  0.91188000000E+02  0.91188000000E+02 0.  0.
    9900012    2    3    3    0    0  0.22441563259E+02 -0.15758685777E+01  0.33868231827E+02  0.50528877403E+02  0.30000053353E+02 0.  0.
        -12    1    3    3    0    0 -0.22441563259E+02  0.15758685777E+01 -0.33868231827E+02  0.40659122597E+02  0.00000000000E+00 0.  1.
         11    1    4    4    0    0  0.14306734852E+02  0.26398747386E+00  0.64300879375E+01  0.15687523152E+02  0.51100000000E-03 0. -1.
        -11    1    4    4    0    0  0.26797756729E+01 -0.39629763819E+01 -0.17333810865E+01  0.50883189476E+01  0.51100000000E-03 0.  1.
         12    1    4    4    0    0  0.54550527343E+01  0.21231203304E+01  0.29171524976E+02  0.29753035303E+02  0.00000000000E+00 0. -1.
</event>
<event>
 8    1  0.4964753E-012  0.9118800E+02  0.7816164E-02  0.1184000E+00
        -11   -1    0    0    0    0  0.00000000000E+00  0.00000000000E+00  0.45593999997E+02  0.45594000000E+02  0.51100000000E-03 0.  1.
         11   -1    0    0    0    0 -0.00000000000E+00 -0.00000000000E+00 -0.45593999997E+02  0.45594000000E+02  0.51100000000E-03 0. -1.
         23    2    1    2    0    0 -0.35527136788E-14  0.00000000000E+00  0.35527136788E-14  0.91188000000E+02  0.91188000000E+02 0.  0.
    9900012    2    3    3    0    0 -0.22037320722E+02  0.28686480979E+02  0.18563636836E+02  0.50528852097E+02  0.29999976435E+02 0.  0.
        -12    1    3    3    0    0  0.22037320722E+02 -0.28686480979E+02 -0.18563636836E+02  0.40659147903E+02  0.00000000000E+00 0.  1.
         11    1    4    4    0    0 -0.78686329384E+01  0.15356939342E+01  0.73935981004E+01  0.10905917353E+02  0.51100000000E-03 0.  1.
        -11    1    4    4    0    0 -0.59182461809E-01  0.15337545804E+00 -0.50901284320E+01  0.50927825705E+01  0.51100000000E-03 0. -1.
         12    1    4    4    0    0 -0.14109505322E+02  0.26997411587E+02  0.16260167167E+02  0.34530152174E+02  0.00000000000E+00 0. -1.
</event>
<event>
 8    1  0.4964753E-012  0.9118800E+02  0.7816164E-02  0.1184000E+00
        -11   -1    0    0    0    0  0.00000000000E+00  0.00000000000E+00  0.45593999997E+02  0.45594000000E+02  0.51100000000E-03 0. -1.
         11   -1    0    0    0    0 -0.00000000000E+00 -0.00000000000E+00 -0.45593999997E+02  0.45594000000E+02  0.51100000000E-03 0.  1.
         23    2    1    2    0    0  0.00000000000E+00  0.00000000000E+00  0.71054273576E-14  0.91188000000E+02  0.91188000000E+02 0.  0.
    9900012    2    3    3    0    0  0.13749440291E+02  0.20060906242E+02  0.32583410396E+02  0.50528859569E+02  0.29999999145E+02 0.  0.
        -12    1    3    3    0    0 -0.13749440291E+02 -0.20060906242E+02 -0.32583410396E+02  0.40659140431E+02  0.00000000000E+00 0.  1.
         11    1    4    4    0    0  0.12395944958E+02  0.15577978435E+02  0.18916554582E+02  0.27462135770E+02  0.51100000000E-03 0. -1.
        -11    1    4    4    0    0  0.78772680959E+01 -0.32355565133E+00  0.12642142139E+02  0.14898986510E+02  0.51100000000E-03 0.  1.
        -12    1    4    4    0    0 -0.65237727630E+01  0.48064834583E+01  0.10247136755E+01  0.81677372886E+01  0.00000000000E+00 0.  1.
</event>
<event>
 8    1  0.4964753E-012  0.9118800E+02  0.7816164E-02  0.1184000E+00
        -11   -1    0    0    0    0  0.00000000000E+00  0.00000000000E+00  0.45593999997E+02  0.45594000000E+02  0.51100000000E-03 0.  1.
         11   -1    0    0    0    0 -0.00000000000E+00 -0.00000000000E+00 -0.45593999997E+02  0.45594000000E+02  0.51100000000E-03 0. -1.
         23    2    1    2    0    0  0.35527136788E-14 -0.44408920985E-15  0.35527136788E-14  0.91188000000E+02  0.91188000000E+02 0.  0.
    9900012    2    3    3    0    0 -0.25289708123E+02 -0.34343835436E+01 -0.31651246428E+02  0.50528859235E+02  0.29999998132E+02 0.  0.
         12    1    3    3    0    0  0.25289708123E+02  0.34343835436E+01  0.31651246428E+02  0.40659140765E+02  0.00000000000E+00 0. -1.
         11    1    4    4    0    0 -0.10918972527E+02  0.38094328799E+01 -0.23004825787E+02  0.25747965932E+02  0.51100000000E-03 0. -1.
        -11    1    4    4    0    0  0.13942250161E+01  0.37408573925E+01 -0.18473641282E+01  0.43989353155E+01  0.51100000000E-03 0.  1.
        -12    1    4    4    0    0 -0.15764960612E+02 -0.10984673816E+02 -0.67990565133E+01  0.20381957987E+02  0.00000000000E+00 0.  1.
</event>
<event>
 8    1  0.4964753E-012  0.9118800E+02  0.7816164E-02  0.1184000E+00
        -11   -1    0    0    0    0  0.00000000000E+00  0.00000000000E+00  0.45593999997E+02  0.45594000000E+02  0.51100000000E-03 0.  1.
         11   -1    0    0    0    0 -0.00000000000E+00 -0.00000000000E+00 -0.45593999997E+02  0.45594000000E+02  0.51100000000E-03 0. -1.
         23    2    1    2    0    0  0.71054273576E-14  0.17763568394E-14 -0.35527136788E-14  0.91188000000E+02  0.91188000000E+02 0.  0.
    9900012    2    3    3    0    0 -0.33548777478E+02  0.73444565275E+01  0.21764741801E+02  0.50528862065E+02  0.30000006734E+02 0.  0.
        -12    1    3    3    0    0  0.33548777478E+02 -0.73444565275E+01 -0.21764741801E+02  0.40659137935E+02  0.00000000000E+00 0.  1.
         11    1    4    4    0    0 -0.24065093027E+02  0.10825097684E+02  0.10345997540E+02  0.28343449113E+02  0.51100000000E-03 0. -1.
        -11    1    4    4    0    0 -0.11430438811E+02 -0.23474654877E+01  0.14345542761E+02  0.18492163827E+02  0.51100000000E-03 0.  1.
         12    1    4    4    0    0  0.19467543605E+01 -0.11331756683E+01 -0.29267985007E+01  0.36932491250E+01  0.00000000000E+00 0. -1.
</event>
<event>
 8    1  0.4964753E-012  0.9118800E+02  0.7816164E-02  0.1184000E+00
        -11   -1    0    0    0    0  0.00000000000E+00  0.00000000000E+00  0.45593999997E+02  0.45594000000E+02  0.51100000000E-03 0. -1.
         11   -1    0    0    0    0 -0.00000000000E+00 -0.00000000000E+00 -0.45593999997E+02  0.45594000000E+02  0.51100000000E-03 0.  1.
         23    2    1    2    0    0  0.00000000000E+00  0.35527136788E-14  0.00000000000E+00  0.91188000000E+02  0.91188000000E+02 0.  0.
    9900012    2    3    3    0    0  0.14429011347E+02 -0.25485866520E+02 -0.28203549851E+02  0.50528856072E+02  0.29999988516E+02 0.  0.
         12    1    3    3    0    0 -0.14429011347E+02  0.25485866520E+02  0.28203549851E+02  0.40659143928E+02  0.00000000000E+00 0. -1.
         11    1    4    4    0    0  0.57541774302E+01 -0.68100756803E+00 -0.62294418859E+01  0.85076598238E+01  0.51100000000E-03 0. -1.
        -11    1    4    4    0    0  0.10887574142E+02 -0.17767753125E+02 -0.22458956531E+01  0.20958920997E+02  0.51100000000E-03 0.  1.
         12    1    4    4    0    0 -0.22127402247E+01 -0.70371058276E+01 -0.19728212312E+02  0.21062275251E+02  0.00000000000E+00 0. -1.
</event>
<event>
 8    1  0.4964753E-012  0.9118800E+02  0.7816164E-02  0.1184000E+00
        -11   -1    0    0    0    0  0.00000000000E+00  0.00000000000E+00  0.45593999997E+02  0.45594000000E+02  0.51100000000E-03 0. -1.
         11   -1    0    0    0    0 -0.00000000000E+00 -0.00000000000E+00 -0.45593999997E+02  0.45594000000E+02  0.51100000000E-03 0.  1.
         23    2    1    2    0    0  0.88817841970E-15  0.00000000000E+00  0.00000000000E+00  0.91188000000E+02  0.91188000000E+02 0.  0.
    9900012    2    3    3    0    0 -0.39119436925E+01 -0.29240003511E+02 -0.27980064747E+02  0.50528866561E+02  0.30000020398E+02 0.  0.
         12    1    3    3    0    0  0.39119436925E+01  0.29240003511E+02  0.27980064747E+02  0.40659133439E+02  0.00000000000E+00 0. -1.
         11    1    4    4    0    0 -0.32536516562E+01 -0.14526126497E+02 -0.10300212508E+02  0.18102181583E+02  0.51100000000E-03 0. -1.
        -11    1    4    4    0    0  0.10227593531E+02 -0.11208360383E+02 -0.13310089911E+02  0.20183892231E+02  0.51100000000E-03 0.  1.
         12    1    4    4    0    0 -0.10885885567E+02 -0.35055166310E+01 -0.43697623280E+01  0.12242792746E+02  0.00000000000E+00 0. -1.
</event>
<event>
 8    1  0.4964753E-012  0.9118800E+02  0.7816164E-02  0.1184000E+00
        -11   -1    0    0    0    0  0.00000000000E+00  0.00000000000E+00  0.45593999997E+02  0.45594000000E+02  0.51100000000E-03 0.  1.
         11   -1    0    0    0    0 -0.00000000000E+00 -0.00000000000E+00 -0.45593999997E+02  0.45594000000E+02  0.51100000000E-03 0. -1.
         23    2    1    2    0    0 -0.22204460493E-15  0.00000000000E+00 -0.35527136788E-14  0.91188000000E+02  0.91188000000E+02 0.  0.
    9900012    2    3    3    0    0  0.10656801072E+01  0.35712579172E+02  0.19407258892E+02  0.50528859786E+02  0.29999999805E+02 0.  0.
        -12    1    3    3    0    0 -0.10656801072E+01 -0.35712579172E+02 -0.19407258892E+02  0.40659140214E+02  0.00000000000E+00 0.  1.
         11    1    4    4    0    0 -0.51857424303E+00  0.20770603679E+01 -0.35488604788E+01  0.41445759707E+01  0.51100000000E-03 0. -1.
        -11    1    4    4    0    0  0.90936838914E+01  0.67802949984E+01  0.11748841479E+02  0.16331036812E+02  0.51100000000E-03 0.  1.
        -12    1    4    4    0    0 -0.75094295412E+01  0.26855223806E+02  0.11207277892E+02  0.30053247003E+02  0.00000000000E+00 0.  1.
</event>
<event>
 8    1  0.4964753E-012  0.9118800E+02  0.7816164E-02  0.1184000E+00
        -11   -1    0    0    0    0  0.00000000000E+00  0.00000000000E+00  0.45593999997E+02  0.45594000000E+02  0.51100000000E-03 0. -1.
         11   -1    0    0    0    0 -0.00000000000E+00 -0.00000000000E+00 -0.45593999997E+02  0.45594000000E+02  0.51100000000E-03 0.  1.
         23    2    1    2    0    0 -0.88817841970E-15 -0.35527136788E-14 -0.35527136788E-14  0.91188000000E+02  0.91188000000E+02 0.  0.
    9900012    2    3    3    0    0  0.46006847098E+01  0.30205687757E+02  0.26825677595E+02  0.50528845421E+02  0.29999956141E+02 0.  0.
        -12    1    3    3    0    0 -0.46006847098E+01 -0.30205687757E+02 -0.26825677595E+02  0.40659154579E+02  0.00000000000E+00 0.  1.
         11    1    4    4    0    0 -0.90807423879E+01  0.11858907404E+02  0.94992816508E+01  0.17701127627E+02  0.51100000000E-03 0. -1.
        -11    1    4    4    0    0  0.71534200741E+01  0.17816455809E+02  0.17905433858E+02  0.26252658499E+02  0.51100000000E-03 0.  1.
        -12    1    4    4    0    0  0.65280070236E+01  0.53032454305E+00 -0.57903791376E+00  0.65750592945E+01  0.00000000000E+00 0.  1.
</event>
<event>
 8    1  0.4964753E-012  0.9118800E+02  0.7816164E-02  0.1184000E+00
        -11   -1    0    0    0    0  0.00000000000E+00  0.00000000000E+00  0.45593999997E+02  0.45594000000E+02  0.51100000000E-03 0. -1.
         11   -1    0    0    0    0 -0.00000000000E+00 -0.00000000000E+00 -0.45593999997E+02  0.45594000000E+02  0.51100000000E-03 0.  1.
         23    2    1    2    0    0  0.35527136788E-14 -0.35527136788E-14  0.88817841970E-15  0.91188000000E+02  0.91188000000E+02 0.  0.
    9900012    2    3    3    0    0  0.25246734158E+02 -0.31395257893E+02  0.54869322461E+01  0.50528853068E+02  0.29999979386E+02 0.  0.
        -12    1    3    3    0    0 -0.25246734158E+02  0.31395257893E+02 -0.54869322461E+01  0.40659146932E+02  0.00000000000E+00 0.  1.
         11    1    4    4    0    0  0.14261070691E+01 -0.71420232762E+01 -0.62999985581E+01  0.96297590802E+01  0.51100000000E-03 0. -1.
        -11    1    4    4    0    0 -0.31397862472E+01 -0.15330074230E+01 -0.56776499232E+00  0.35398766624E+01  0.51100000000E-03 0.  1.
         12    1    4    4    0    0  0.26960413336E+02 -0.22720227193E+02  0.12354695797E+02  0.37359217325E+02  0.00000000000E+00 0. -1.
</event>
<event>
 8    1  0.4964753E-012  0.9118800E+02  0.7816164E-02  0.1184000E+00
        -11   -1    0    0    0    0  0.00000000000E+00  0.00000000000E+00  0.45593999997E+02  0.45594000000E+02  0.51100000000E-03 0. -1.
         11   -1    0    0    0    0 -0.00000000000E+00 -0.00000000000E+00 -0.45593999997E+02  0.45594000000E+02  0.51100000000E-03 0.  1.
         23    2    1    2    0    0  0.17763568394E-14 -0.35527136788E-14 -0.35527136788E-14  0.91188000000E+02  0.91188000000E+02 0.  0.
    9900012    2    3    3    0    0  0.12352373501E+02 -0.26587328417E+02 -0.28172442124E+02  0.50529007653E+02  0.30000449258E+02 0.  0.
         12    1    3    3    0    0 -0.12352373501E+02  0.26587328417E+02  0.28172442124E+02  0.40658992347E+02  0.00000000000E+00 0. -1.
         11    1    4    4    0    0 -0.42978128348E+01 -0.10118735816E+02 -0.16455656963E+02  0.19790115109E+02  0.51100000000E-03 0. -1.
        -11    1    4    4    0    0 -0.82383869771E+00 -0.58785267165E+01  0.18439115010E+01  0.62157699798E+01  0.51100000000E-03 0.  1.
         12    1    4    4    0    0  0.17474025034E+02 -0.10590065884E+02 -0.13560696662E+02  0.24523122564E+02  0.00000000000E+00 0. -1.
</event>
<event>
 8    1  0.4964753E-012  0.9118800E+02  0.7816164E-02  0.1184000E+00
        -11   -1    0    0    0    0  0.00000000000E+00  0.00000000000E+00  0.45593999997E+02  0.45594000000E+02  0.51100000000E-03 0. -1.
         11   -1    0    0    0    0 -0.00000000000E+00 -0.00000000000E+00 -0.45593999997E+02  0.45594000000E+02  0.51100000000E-03 0.  1.
         23    2    1    2    0    0  0.00000000000E+00 -0.35527136788E-14  0.71054273576E-14  0.91188000000E+02  0.91188000000E+02 0.  0.
    9900012    2    3    3    0    0  0.17174637289E+02  0.18283942421E+02 -0.31998357126E+02  0.50528861111E+02  0.30000003832E+02 0.  0.
         12    1    3    3    0    0 -0.17174637289E+02 -0.18283942421E+02  0.31998357126E+02  0.40659138889E+02  0.00000000000E+00 0. -1.
         11    1    4    4    0    0  0.13809614851E+01 -0.27395719136E+01  0.10034591967E+01  0.32278846810E+01  0.51100000000E-03 0. -1.
        -11    1    4    4    0    0 -0.45297651006E+01  0.17517113648E+01 -0.97753968432E+01  0.10915385851E+02  0.51100000000E-03 0.  1.
        -12    1    4    4    0    0  0.20323440905E+02  0.19271802970E+02 -0.23226419479E+02  0.36385590579E+02  0.00000000000E+00 0.  1.
</event>
<event>
 8    1  0.4964753E-012  0.9118800E+02  0.7816164E-02  0.1184000E+00
        -11   -1    0    0    0    0  0.00000000000E+00  0.00000000000E+00  0.45593999997E+02  0.45594000000E+02  0.51100000000E-03 0.  1.
         11   -1    0    0    0    0 -0.00000000000E+00 -0.00000000000E+00 -0.45593999997E+02  0.45594000000E+02  0.51100000000E-03 0. -1.
         23    2    1    2    0    0 -0.71054273576E-14 -0.17763568394E-14  0.88817841970E-15  0.91188000000E+02  0.91188000000E+02 0.  0.
    9900012    2    3    3    0    0 -0.38305081150E+02 -0.13462469960E+02  0.21558115467E+01  0.50528869872E+02  0.30000030463E+02 0.  0.
         12    1    3    3    0    0  0.38305081150E+02  0.13462469960E+02 -0.21558115467E+01  0.40659130128E+02  0.00000000000E+00 0. -1.
         11    1    4    4    0    0 -0.65180099460E+01  0.61065915222E+01  0.61883200719E+01  0.10866012113E+02  0.51100000000E-03 0.  1.
        -11    1    4    4    0    0 -0.74808496785E+01 -0.90696002439E+01 -0.58340092942E+01  0.13124649527E+02  0.51100000000E-03 0. -1.
        -12    1    4    4    0    0 -0.24306221526E+02 -0.10499461238E+02  0.18015007690E+01  0.26538208232E+02  0.00000000000E+00 0.  1.
</event>
<event>
 8    1  0.4964753E-012  0.9118800E+02  0.7816164E-02  0.1184000E+00
        -11   -1    0    0    0    0  0.00000000000E+00  0.00000000000E+00  0.45593999997E+02  0.45594000000E+02  0.51100000000E-03 0. -1.
         11   -1    0    0    0    0 -0.00000000000E+00 -0.00000000000E+00 -0.45593999997E+02  0.45594000000E+02  0.51100000000E-03 0.  1.
         23    2    1    2    0    0  0.00000000000E+00  0.35527136788E-14  0.00000000000E+00  0.91188000000E+02  0.91188000000E+02 0.  0.
    9900012    2    3    3    0    0 -0.14636649042E+02 -0.17352930378E+02 -0.33731420482E+02  0.50528875371E+02  0.30000047177E+02 0.  0.
         12    1    3    3    0    0  0.14636649042E+02  0.17352930378E+02  0.33731420482E+02  0.40659124629E+02  0.00000000000E+00 0. -1.
         11    1    4    4    0    0 -0.91012757344E+01  0.28377853838E+01 -0.11266994785E+01  0.95997759273E+01  0.51100000000E-03 0. -1.
        -11    1    4    4    0    0  0.30366190456E+01 -0.44137743303E+00 -0.56722742096E+01  0.64490746806E+01  0.51100000000E-03 0.  1.
        -12    1    4    4    0    0 -0.85719923531E+01 -0.19749338329E+02 -0.26932446794E+02  0.34480024763E+02  0.00000000000E+00 0.  1.
</event>
<event>
 8    1  0.4964753E-012  0.9118800E+02  0.7816164E-02  0.1184000E+00
        -11   -1    0    0    0    0  0.00000000000E+00  0.00000000000E+00  0.45593999997E+02  0.45594000000E+02  0.51100000000E-03 0. -1.
         11   -1    0    0    0    0 -0.00000000000E+00 -0.00000000000E+00 -0.45593999997E+02  0.45594000000E+02  0.51100000000E-03 0.  1.
         23    2    1    2    0    0  0.00000000000E+00 -0.35527136788E-14  0.00000000000E+00  0.91188000000E+02  0.91188000000E+02 0.  0.
    9900012    2    3    3    0    0  0.35705325486E+02 -0.18857305773E+02 -0.47641810757E+01  0.50528859940E+02  0.30000000275E+02 0.  0.
         12    1    3    3    0    0 -0.35705325486E+02  0.18857305773E+02  0.47641810757E+01  0.40659140060E+02  0.00000000000E+00 0. -1.
         11    1    4    4    0    0  0.30626245918E+01 -0.73030744481E+01 -0.53185168542E+01  0.95394542598E+01  0.51100000000E-03 0.  1.
        -11    1    4    4    0    0  0.16900814186E+02 -0.16632646468E+02  0.41223970025E+01  0.24068165821E+02  0.51100000000E-03 0. -1.
         12    1    4    4    0    0  0.15741886708E+02  0.50784151429E+01 -0.35680612240E+01  0.16921239860E+02  0.00000000000E+00 0. -1.
</event>
<event>
 8    1  0.4964753E-012  0.9118800E+02  0.7816164E-02  0.1184000E+00
        -11   -1    0    0    0    0  0.00000000000E+00  0.00000000000E+00  0.45593999997E+02  0.45594000000E+02  0.51100000000E-03 0. -1.
         11   -1    0    0    0    0 -0.00000000000E+00 -0.00000000000E+00 -0.45593999997E+02  0.45594000000E+02  0.51100000000E-03 0.  1.
         23    2    1    2    0    0 -0.44408920985E-15 -0.35527136788E-14 -0.71054273576E-14  0.91188000000E+02  0.91188000000E+02 0.  0.
    9900012    2    3    3    0    0 -0.23989514325E+01 -0.22198602252E+02 -0.33979887599E+02  0.50528859931E+02  0.30000000245E+02 0.  0.
         12    1    3    3    0    0  0.23989514325E+01  0.22198602252E+02  0.33979887599E+02  0.40659140069E+02  0.00000000000E+00 0. -1.
         11    1    4    4    0    0 -0.29665510233E+01 -0.73838432493E+01 -0.10033351016E+01  0.80204892426E+01  0.51100000000E-03 0. -1.
        -11    1    4    4    0    0  0.11821076415E+01  0.30348023186E+01 -0.20414959777E+02  0.20673122322E+02  0.51100000000E-03 0.  1.
         12    1    4    4    0    0 -0.61450805068E+00 -0.17849561321E+02 -0.12561592721E+02  0.21835248366E+02  0.00000000000E+00 0. -1.
</event>
<event>
 8    1  0.4964753E-012  0.9118800E+02  0.7816164E-02  0.1184000E+00
        -11   -1    0    0    0    0  0.00000000000E+00  0.00000000000E+00  0.45593999997E+02  0.45594000000E+02  0.51100000000E-03 0. -1.
         11   -1    0    0    0    0 -0.00000000000E+00 -0.00000000000E+00 -0.45593999997E+02  0.45594000000E+02  0.51100000000E-03 0.  1.
         23    2    1    2    0    0  0.35527136788E-14  0.00000000000E+00  0.00000000000E+00  0.91188000000E+02  0.91188000000E+02 0.  0.
    9900012    2    3    3    0    0  0.30604850283E+02  0.57680929202E+01  0.26138825572E+02  0.50528856390E+02  0.29999989484E+02 0.  0.
        -12    1    3    3    0    0 -0.30604850283E+02 -0.57680929202E+01 -0.26138825572E+02  0.40659143610E+02  0.00000000000E+00 0.  1.
         11    1    4    4    0    0  0.10638104933E+02  0.65995240705E+01  0.20184131192E+02  0.23751255688E+02  0.51100000000E-03 0. -1.
        -11    1    4    4    0    0 -0.21433467841E+01  0.29755209058E+01  0.10114253208E+01  0.38040296448E+01  0.51100000000E-03 0.  1.
         12    1    4    4    0    0  0.22110092134E+02 -0.38069520561E+01  0.49432690598E+01  0.22973571058E+02  0.00000000000E+00 0. -1.
</event>
<event>
 8    1  0.4964753E-012  0.9118800E+02  0.7816164E-02  0.1184000E+00
        -11   -1    0    0    0    0  0.00000000000E+00  0.00000000000E+00  0.45593999997E+02  0.45594000000E+02  0.51100000000E-03 0. -1.
         11   -1    0    0    0    0 -0.00000000000E+00 -0.00000000000E+00 -0.45593999997E+02  0.45594000000E+02  0.51100000000E-03 0.  1.
         23    2    1    2    0    0  0.88817841970E-15  0.00000000000E+00  0.00000000000E+00  0.91188000000E+02  0.91188000000E+02 0.  0.
    9900012    2    3    3    0    0  0.38692469720E+01 -0.50621645043E+01  0.40156778692E+02  0.50528887165E+02  0.30000083027E+02 0.  0.
        -12    1    3    3    0    0 -0.38692469720E+01  0.50621645043E+01 -0.40156778692E+02  0.40659112835E+02  0.00000000000E+00 0.  1.
         11    1    4    4    0    0  0.34167234234E+01 -0.33530358066E+01  0.90224534884E+01  0.10213790446E+02  0.51100000000E-03 0. -1.
        -11    1    4    4    0    0  0.10108674868E+02 -0.60147618243E+01  0.63441486923E+01  0.13364538536E+02  0.51100000000E-03 0.  1.
        -12    1    4    4    0    0 -0.96561513191E+01  0.43056331266E+01  0.24790176511E+02  0.26950558183E+02  0.00000000000E+00 0.  1.
</event>
<event>
 8    1  0.4964753E-012  0.9118800E+02  0.7816164E-02  0.1184000E+00
        -11   -1    0    0    0    0  0.00000000000E+00  0.00000000000E+00  0.45593999997E+02  0.45594000000E+02  0.51100000000E-03 0. -1.
         11   -1    0    0    0    0 -0.00000000000E+00 -0.00000000000E+00 -0.45593999997E+02  0.45594000000E+02  0.51100000000E-03 0.  1.
         23    2    1    2    0    0  0.00000000000E+00 -0.35527136788E-14  0.00000000000E+00  0.91188000000E+02  0.91188000000E+02 0.  0.
    9900012    2    3    3    0    0  0.22980111153E+02  0.29041469679E+02  0.16783115191E+02  0.50528862955E+02  0.30000009439E+02 0.  0.
        -12    1    3    3    0    0 -0.22980111153E+02 -0.29041469679E+02 -0.16783115191E+02  0.40659137045E+02  0.00000000000E+00 0.  1.
         11    1    4    4    0    0  0.17008090530E+02  0.15308526770E+02  0.58487948461E+01  0.23618521053E+02  0.51100000000E-03 0. -1.
        -11    1    4    4    0    0  0.71759138883E+01 -0.17562574599E+01  0.83703569244E+01  0.11164275870E+02  0.51100000000E-03 0.  1.
         12    1    4    4    0    0 -0.12038932648E+01  0.15489200369E+02  0.25639634204E+01  0.15746066032E+02  0.00000000000E+00 0. -1.
</event>
<event>
 8    1  0.4964753E-012  0.9118800E+02  0.7816164E-02  0.1184000E+00
        -11   -1    0    0    0    0  0.00000000000E+00  0.00000000000E+00  0.45593999997E+02  0.45594000000E+02  0.51100000000E-03 0.  1.
         11   -1    0    0    0    0 -0.00000000000E+00 -0.00000000000E+00 -0.45593999997E+02  0.45594000000E+02  0.51100000000E-03 0. -1.
         23    2    1    2    0    0  0.00000000000E+00  0.00000000000E+00  0.17763568394E-14  0.91188000000E+02  0.91188000000E+02 0.  0.
    9900012    2    3    3    0    0  0.13909857291E+02 -0.36185247663E+02 -0.12260054365E+02  0.50528865586E+02  0.30000017434E+02 0.  0.
         12    1    3    3    0    0 -0.13909857291E+02  0.36185247663E+02  0.12260054365E+02  0.40659134414E+02  0.00000000000E+00 0. -1.
         11    1    4    4    0    0  0.72415140215E+01 -0.99956134420E+01  0.54416001164E+01  0.13489359714E+02  0.51100000000E-03 0. -1.
        -11    1    4    4    0    0 -0.50977388214E+01 -0.10415918277E+02 -0.17922210692E+01  0.11734153197E+02  0.51100000000E-03 0.  1.
         12    1    4    4    0    0  0.11766082091E+02 -0.15773715944E+02 -0.15909433412E+02  0.25305352674E+02  0.00000000000E+00 0. -1.
</event>
<event>
 8    1  0.4964753E-012  0.9118800E+02  0.7816164E-02  0.1184000E+00
        -11   -1    0    0    0    0  0.00000000000E+00  0.00000000000E+00  0.45593999997E+02  0.45594000000E+02  0.51100000000E-03 0. -1.
         11   -1    0    0    0    0 -0.00000000000E+00 -0.00000000000E+00 -0.45593999997E+02  0.45594000000E+02  0.51100000000E-03 0.  1.
         23    2    1    2    0    0 -0.35527136788E-14  0.00000000000E+00  0.00000000000E+00  0.91188000000E+02  0.91188000000E+02 0.  0.
    9900012    2    3    3    0    0  0.28312815424E+02  0.45037053379E+01  0.28831695214E+02  0.50528861692E+02  0.30000005600E+02 0.  0.
        -12    1    3    3    0    0 -0.28312815424E+02 -0.45037053379E+01 -0.28831695214E+02  0.40659138308E+02  0.00000000000E+00 0.  1.
         11    1    4    4    0    0  0.13785169288E+02  0.37293853954E+01  0.46234369375E+01  0.15010508889E+02  0.51100000000E-03 0. -1.
        -11    1    4    4    0    0  0.16247674805E+02 -0.71000249386E+01  0.18611434339E+02  0.25705695460E+02  0.51100000000E-03 0.  1.
        -12    1    4    4    0    0 -0.17200286697E+01  0.78743448811E+01  0.55968239381E+01  0.98126573427E+01  0.00000000000E+00 0.  1.
</event>
<event>
 8    1  0.4964753E-012  0.9118800E+02  0.7816164E-02  0.1184000E+00
        -11   -1    0    0    0    0  0.00000000000E+00  0.00000000000E+00  0.45593999997E+02  0.45594000000E+02  0.51100000000E-03 0. -1.
         11   -1    0    0    0    0 -0.00000000000E+00 -0.00000000000E+00 -0.45593999997E+02  0.45594000000E+02  0.51100000000E-03 0.  1.
         23    2    1    2    0    0  0.00000000000E+00  0.00000000000E+00  0.35527136788E-14  0.91188000000E+02  0.91188000000E+02 0.  0.
    9900012    2    3    3    0    0  0.27278444248E+02 -0.13006626375E+02 -0.27200681504E+02  0.50528893707E+02  0.30000102913E+02 0.  0.
         12    1    3    3    0    0 -0.27278444248E+02  0.13006626375E+02  0.27200681504E+02  0.40659106293E+02  0.00000000000E+00 0. -1.
         11    1    4    4    0    0  0.12103034694E+02 -0.62723709161E+01  0.29643682429E+01  0.13950396591E+02  0.51100000000E-03 0. -1.
        -11    1    4    4    0    0 -0.43347197023E+00  0.25025935647E+01 -0.33013712345E+01  0.41653240916E+01  0.51100000000E-03 0.  1.
        -12    1    4    4    0    0  0.15608881524E+02 -0.92368490238E+01 -0.26863678512E+02  0.32413173025E+02  0.00000000000E+00 0.  1.
</event>
<event>
 8    1  0.4964753E-012  0.9118800E+02  0.7816164E-02  0.1184000E+00
        -11   -1    0    0    0    0  0.00000000000E+00  0.00000000000E+00  0.45593999997E+02  0.45594000000E+02  0.51100000000E-03 0.  1.
         11   -1    0    0    0    0 -0.00000000000E+00 -0.00000000000E+00 -0.45593999997E+02  0.45594000000E+02  0.51100000000E-03 0. -1.
         23    2    1    2    0    0  0.71054273576E-14 -0.17763568394E-14  0.00000000000E+00  0.91188000000E+02  0.91188000000E+02 0.  0.
    9900012    2    3    3    0    0 -0.37541339267E+02  0.92505547079E+01  0.12579166649E+02  0.50528925368E+02  0.30000199147E+02 0.  0.
         12    1    3    3    0    0  0.37541339267E+02 -0.92505547079E+01 -0.12579166649E+02  0.40659074632E+02  0.00000000000E+00 0. -1.
         11    1    4    4    0    0 -0.28449984283E+01 -0.50861727946E+01 -0.10655007660E+01  0.59243954879E+01  0.51100000000E-03 0. -1.
        -11    1    4    4    0    0 -0.21794282264E+02 -0.11695702785E+01  0.10386902572E+02  0.24171189034E+02  0.51100000000E-03 0.  1.
        -12    1    4    4    0    0 -0.12902058575E+02  0.15506297781E+02  0.32577648426E+01  0.20433340846E+02  0.00000000000E+00 0.  1.
</event>
<event>
 8    1  0.4964753E-012  0.9118800E+02  0.7816164E-02  0.1184000E+00
        -11   -1    0    0    0    0  0.00000000000E+00  0.00000000000E+00  0.45593999997E+02  0.45594000000E+02  0.51100000000E-03 0. -1.
         11   -1    0    0    0    0 -0.00000000000E+00 -0.00000000000E+00 -0.45593999997E+02  0.45594000000E+02  0.51100000000E-03 0.  1.
         23    2    1    2    0    0 -0.44408920985E-15 -0.88817841970E-15  0.71054273576E-14  0.91188000000E+02  0.91188000000E+02 0.  0.
    9900012    2    3    3    0    0 -0.27058483108E+01 -0.65114357488E+01  0.40042988548E+02  0.50528913163E+02  0.30000162050E+02 0.  0.
        -12    1    3    3    0    0  0.27058483108E+01  0.65114357488E+01 -0.40042988548E+02  0.40659086837E+02  0.00000000000E+00 0.  1.
         11    1    4    4    0    0 -0.14501232819E+01  0.87140188001E+01  0.90157652598E+01  0.12622242458E+02  0.51100000000E-03 0. -1.
        -11    1    4    4    0    0  0.16132889547E+01 -0.35774206052E+01 -0.70088188732E+00  0.39864614784E+01  0.51100000000E-03 0.  1.
         12    1    4    4    0    0 -0.28690139835E+01 -0.11648033944E+02  0.31728105175E+02  0.33920209227E+02  0.00000000000E+00 0. -1.
</event>
<event>
 8    1  0.4964753E-012  0.9118800E+02  0.7816164E-02  0.1184000E+00
        -11   -1    0    0    0    0  0.00000000000E+00  0.00000000000E+00  0.45593999997E+02  0.45594000000E+02  0.51100000000E-03 0. -1.
         11   -1    0    0    0    0 -0.00000000000E+00 -0.00000000000E+00 -0.45593999997E+02  0.45594000000E+02  0.51100000000E-03 0.  1.
         23    2    1    2    0    0  0.71054273576E-14 -0.17763568394E-14  0.17763568394E-14  0.91188000000E+02  0.91188000000E+02 0.  0.
    9900012    2    3    3    0    0  0.37603500151E+02 -0.77932273001E+01  0.13356943114E+02  0.50528861486E+02  0.30000004974E+02 0.  0.
        -12    1    3    3    0    0 -0.37603500151E+02  0.77932273001E+01 -0.13356943114E+02  0.40659138514E+02  0.00000000000E+00 0.  1.
         11    1    4    4    0    0  0.74542640454E+01 -0.10124831398E+02  0.75508601139E+01  0.14666074868E+02  0.51100000000E-03 0. -1.
        -11    1    4    4    0    0  0.12330303911E+02 -0.18899779379E+01 -0.62357599748E+01  0.13946078799E+02  0.51100000000E-03 0.  1.
         12    1    4    4    0    0  0.17818932194E+02  0.42215820362E+01  0.12041842975E+02  0.21916707820E+02  0.00000000000E+00 0. -1.
</event>
<event>
 8    1  0.4964753E-012  0.9118800E+02  0.7816164E-02  0.1184000E+00
        -11   -1    0    0    0    0  0.00000000000E+00  0.00000000000E+00  0.45593999997E+02  0.45594000000E+02  0.51100000000E-03 0. -1.
         11   -1    0    0    0    0 -0.00000000000E+00 -0.00000000000E+00 -0.45593999997E+02  0.45594000000E+02  0.51100000000E-03 0.  1.
         23    2    1    2    0    0  0.00000000000E+00  0.35527136788E-14  0.00000000000E+00  0.91188000000E+02  0.91188000000E+02 0.  0.
    9900012    2    3    3    0    0 -0.15224386641E+02  0.21171819486E+02  0.31195159008E+02  0.50528857922E+02  0.29999994141E+02 0.  0.
        -12    1    3    3    0    0  0.15224386641E+02 -0.21171819486E+02 -0.31195159008E+02  0.40659142078E+02  0.00000000000E+00 0.  1.
         11    1    4    4    0    0 -0.10024255099E+02  0.14055272164E+02  0.29847458332E+02  0.34480532697E+02  0.51100000000E-03 0. -1.
        -11    1    4    4    0    0  0.28244059238E+01 -0.16088485713E+01 -0.18896794167E+01  0.37598605169E+01  0.51100000000E-03 0.  1.
        -12    1    4    4    0    0 -0.80245374657E+01  0.87253958933E+01  0.32373800929E+01  0.12288464709E+02  0.00000000000E+00 0.  1.
</event>
<event>
 8    1  0.4964753E-012  0.9118800E+02  0.7816164E-02  0.1184000E+00
        -11   -1    0    0    0    0  0.00000000000E+00  0.00000000000E+00  0.45593999997E+02  0.45594000000E+02  0.51100000000E-03 0. -1.
         11   -1    0    0    0    0 -0.00000000000E+00 -0.00000000000E+00 -0.45593999997E+02  0.45594000000E+02  0.51100000000E-03 0.  1.
         23    2    1    2    0    0  0.00000000000E+00  0.00000000000E+00  0.35527136788E-14  0.91188000000E+02  0.91188000000E+02 0.  0.
    9900012    2    3    3    0    0 -0.21283270396E+02 -0.19920046663E+02  0.28343950905E+02  0.50528863134E+02  0.30000009983E+02 0.  0.
        -12    1    3    3    0    0  0.21283270396E+02  0.19920046663E+02 -0.28343950905E+02  0.40659136866E+02  0.00000000000E+00 0.  1.
         11    1    4    4    0    0 -0.82191569797E+01 -0.40770496959E+01  0.73857444377E+01  0.11778204313E+02  0.51100000000E-03 0. -1.
        -11    1    4    4    0    0 -0.71780025383E+01 -0.77438141426E+01 -0.44368328071E+01  0.11453203200E+02  0.51100000000E-03 0.  1.
        -12    1    4    4    0    0 -0.58861108776E+01 -0.80991828242E+01  0.25395039274E+02  0.27297455622E+02  0.00000000000E+00 0.  1.
</event>
<event>
 8    1  0.4964753E-012  0.9118800E+02  0.7816164E-02  0.1184000E+00
        -11   -1    0    0    0    0  0.00000000000E+00  0.00000000000E+00  0.45593999997E+02  0.45594000000E+02  0.51100000000E-03 0. -1.
         11   -1    0    0    0    0 -0.00000000000E+00 -0.00000000000E+00 -0.45593999997E+02  0.45594000000E+02  0.51100000000E-03 0.  1.
         23    2    1    2    0    0  0.35527136788E-14  0.00000000000E+00  0.00000000000E+00  0.91188000000E+02  0.91188000000E+02 0.  0.
    9900012    2    3    3    0    0 -0.30413715739E+02  0.93655825676E+01 -0.25307261602E+02  0.50528859187E+02  0.29999997984E+02 0.  0.
         12    1    3    3    0    0  0.30413715739E+02 -0.93655825676E+01  0.25307261602E+02  0.40659140813E+02  0.00000000000E+00 0. -1.
         11    1    4    4    0    0 -0.17557962759E+02  0.75167115355E+01 -0.21938074927E+02  0.29087147339E+02  0.51100000000E-03 0. -1.
        -11    1    4    4    0    0 -0.39735072826E+01 -0.42137742043E+01 -0.78803334737E+01  0.97797908509E+01  0.51100000000E-03 0.  1.
         12    1    4    4    0    0 -0.88822456978E+01  0.60626452364E+01  0.45111467986E+01  0.11661920997E+02  0.00000000000E+00 0. -1.
</event>
<event>
 8    1  0.4964753E-012  0.9118800E+02  0.7816164E-02  0.1184000E+00
        -11   -1    0    0    0    0  0.00000000000E+00  0.00000000000E+00  0.45593999997E+02  0.45594000000E+02  0.51100000000E-03 0.  1.
         11   -1    0    0    0    0 -0.00000000000E+00 -0.00000000000E+00 -0.45593999997E+02  0.45594000000E+02  0.51100000000E-03 0. -1.
         23    2    1    2    0    0  0.00000000000E+00  0.35527136788E-14 -0.35527136788E-14  0.91188000000E+02  0.91188000000E+02 0.  0.
    9900012    2    3    3    0    0 -0.22309391347E+02  0.29186487410E+02 -0.17424301694E+02  0.50528852455E+02  0.29999977522E+02 0.  0.
         12    1    3    3    0    0  0.22309391347E+02 -0.29186487410E+02  0.17424301694E+02  0.40659147545E+02  0.00000000000E+00 0. -1.
         11    1    4    4    0    0 -0.30803004262E+01 -0.19314333270E+01  0.23298718100E+01  0.43182158729E+01  0.51100000000E-03 0. -1.
        -11    1    4    4    0    0 -0.16484095758E+02  0.82985906784E+01 -0.59052263780E+01  0.19376886206E+02  0.51100000000E-03 0.  1.
         12    1    4    4    0    0 -0.27449951628E+01  0.22819330059E+02 -0.13848947126E+02  0.26833750376E+02  0.00000000000E+00 0. -1.
</event>
<event>
 8    1  0.4964753E-012  0.9118800E+02  0.7816164E-02  0.1184000E+00
        -11   -1    0    0    0    0  0.00000000000E+00  0.00000000000E+00  0.45593999997E+02  0.45594000000E+02  0.51100000000E-03 0. -1.
         11   -1    0    0    0    0 -0.00000000000E+00 -0.00000000000E+00 -0.45593999997E+02  0.45594000000E+02  0.51100000000E-03 0.  1.
         23    2    1    2    0    0  0.00000000000E+00  0.00000000000E+00  0.66613381478E-15  0.91188000000E+02  0.91188000000E+02 0.  0.
    9900012    2    3    3    0    0  0.30105028113E+02  0.27328171942E+02  0.15425160941E+00  0.50528862122E+02  0.30000006906E+02 0.  0.
        -12    1    3    3    0    0 -0.30105028113E+02 -0.27328171942E+02 -0.15425160941E+00  0.40659137878E+02  0.00000000000E+00 0.  1.
         11    1    4    4    0    0  0.26219245288E+02  0.25607758979E+02 -0.16323304858E+01  0.36686109721E+02  0.51100000000E-03 0. -1.
        -11    1    4    4    0    0  0.24774001285E+01  0.47352368056E+01 -0.43309748257E+01  0.68787587691E+01  0.51100000000E-03 0.  1.
         12    1    4    4    0    0  0.14083826967E+01 -0.30148238422E+01  0.61175569209E+01  0.69639936316E+01  0.00000000000E+00 0. -1.
</event>
<event>
 8    1  0.4964753E-012  0.9118800E+02  0.7816164E-02  0.1184000E+00
        -11   -1    0    0    0    0  0.00000000000E+00  0.00000000000E+00  0.45593999997E+02  0.45594000000E+02  0.51100000000E-03 0. -1.
         11   -1    0    0    0    0 -0.00000000000E+00 -0.00000000000E+00 -0.45593999997E+02  0.45594000000E+02  0.51100000000E-03 0.  1.
         23    2    1    2    0    0  0.00000000000E+00 -0.55511151231E-15  0.71054273576E-14  0.91188000000E+02  0.91188000000E+02 0.  0.
    9900012    2    3    3    0    0 -0.44541452910E+01  0.60079584278E+00  0.40409967880E+02  0.50528857486E+02  0.29999992813E+02 0.  0.
        -12    1    3    3    0    0  0.44541452910E+01 -0.60079584278E+00 -0.40409967880E+02  0.40659142514E+02  0.00000000000E+00 0.  1.
         11    1    4    4    0    0 -0.12874568573E+02 -0.47099995425E+01  0.17701667651E+02  0.22389453979E+02  0.51100000000E-03 0. -1.
        -11    1    4    4    0    0  0.50897842013E+01  0.11294146494E+01  0.43289481098E+00  0.52315273912E+01  0.51100000000E-03 0.  1.
         12    1    4    4    0    0  0.33306390803E+01  0.41813807359E+01  0.22275405419E+02  0.22907876115E+02  0.00000000000E+00 0. -1.
</event>
<event>
 8    1  0.4964753E-012  0.9118800E+02  0.7816164E-02  0.1184000E+00
        -11   -1    0    0    0    0  0.00000000000E+00  0.00000000000E+00  0.45593999997E+02  0.45594000000E+02  0.51100000000E-03 0. -1.
         11   -1    0    0    0    0 -0.00000000000E+00 -0.00000000000E+00 -0.45593999997E+02  0.45594000000E+02  0.51100000000E-03 0.  1.
         23    2    1    2    0    0 -0.35527136788E-14  0.00000000000E+00 -0.35527136788E-14  0.91188000000E+02  0.91188000000E+02 0.  0.
    9900012    2    3    3    0    0  0.28919592525E+02  0.23722913281E+02  0.15938847477E+02  0.50528852133E+02  0.29999976544E+02 0.  0.
        -12    1    3    3    0    0 -0.28919592525E+02 -0.23722913281E+02 -0.15938847477E+02  0.40659147867E+02  0.00000000000E+00 0.  1.
         11    1    4    4    0    0 -0.81695233685E+00  0.87508393378E+01 -0.80975219036E+00  0.88261146100E+01  0.51100000000E-03 0. -1.
        -11    1    4    4    0    0  0.11173460410E+01 -0.37021954234E+01  0.62594205190E+00  0.39174630620E+01  0.51100000000E-03 0.  1.
         12    1    4    4    0    0  0.28619198821E+02  0.18674269367E+02  0.16122657616E+02  0.37785274461E+02  0.00000000000E+00 0. -1.
</event>
<event>
 8    1  0.4964753E-012  0.9118800E+02  0.7816164E-02  0.1184000E+00
        -11   -1    0    0    0    0  0.00000000000E+00  0.00000000000E+00  0.45593999997E+02  0.45594000000E+02  0.51100000000E-03 0. -1.
         11   -1    0    0    0    0 -0.00000000000E+00 -0.00000000000E+00 -0.45593999997E+02  0.45594000000E+02  0.51100000000E-03 0.  1.
         23    2    1    2    0    0  0.00000000000E+00  0.00000000000E+00  0.71054273576E-14  0.91188000000E+02  0.91188000000E+02 0.  0.
    9900012    2    3    3    0    0  0.11475091517E+02 -0.24442336027E+01  0.38929605193E+02  0.50528853873E+02  0.29999981834E+02 0.  0.
        -12    1    3    3    0    0 -0.11475091517E+02  0.24442336027E+01 -0.38929605193E+02  0.40659146127E+02  0.00000000000E+00 0.  1.
         11    1    4    4    0    0  0.56370565294E+01  0.29154478371E+01  0.12697391227E+01  0.64721310330E+01  0.51100000000E-03 0. -1.
        -11    1    4    4    0    0 -0.52828758315E+01 -0.31436933450E+01  0.17392965578E+01  0.63887978271E+01  0.51100000000E-03 0.  1.
         12    1    4    4    0    0  0.11120910820E+02 -0.22159880948E+01  0.35920569513E+02  0.37667925013E+02  0.00000000000E+00 0. -1.
</event>
<event>
 8    1  0.4964753E-012  0.9118800E+02  0.7816164E-02  0.1184000E+00
        -11   -1    0    0    0    0  0.00000000000E+00  0.00000000000E+00  0.45593999997E+02  0.45594000000E+02  0.51100000000E-03 0. -1.
         11   -1    0    0    0    0 -0.00000000000E+00 -0.00000000000E+00 -0.45593999997E+02  0.45594000000E+02  0.51100000000E-03 0.  1.
         23    2    1    2    0    0  0.00000000000E+00  0.44408920985E-15  0.00000000000E+00  0.91188000000E+02  0.91188000000E+02 0.  0.
    9900012    2    3    3    0    0 -0.21790803146E+02 -0.17397446004E+01 -0.34282669255E+02  0.50528840832E+02  0.29999942191E+02 0.  0.
         12    1    3    3    0    0  0.21790803146E+02  0.17397446004E+01  0.34282669255E+02  0.40659159168E+02  0.00000000000E+00 0. -1.
         11    1    4    4    0    0  0.37433810964E+01  0.12420564463E+01 -0.88321525938E+01  0.96727724025E+01  0.51100000000E-03 0. -1.
        -11    1    4    4    0    0 -0.16416220534E+02  0.33502917973E+01 -0.24544915843E+02  0.29718170296E+02  0.51100000000E-03 0.  1.
        -12    1    4    4    0    0 -0.91179637086E+01 -0.63320928440E+01 -0.90560081832E+00  0.11137898133E+02  0.00000000000E+00 0.  1.
</event>
<event>
 8    1  0.4964753E-012  0.9118800E+02  0.7816164E-02  0.1184000E+00
        -11   -1    0    0    0    0  0.00000000000E+00  0.00000000000E+00  0.45593999997E+02  0.45594000000E+02  0.51100000000E-03 0. -1.
         11   -1    0    0    0    0 -0.00000000000E+00 -0.00000000000E+00 -0.45593999997E+02  0.45594000000E+02  0.51100000000E-03 0.  1.
         23    2    1    2    0    0  0.00000000000E+00  0.00000000000E+00  0.00000000000E+00  0.91188000000E+02  0.91188000000E+02 0.  0.
    9900012    2    3    3    0    0  0.12174241742E+02 -0.12959304805E+02 -0.36565146019E+02  0.50528860236E+02  0.30000001172E+02 0.  0.
         12    1    3    3    0    0 -0.12174241742E+02  0.12959304805E+02  0.36565146019E+02  0.40659139764E+02  0.00000000000E+00 0. -1.
         11    1    4    4    0    0  0.11966445757E+02 -0.92544568951E+01 -0.11646415235E+02  0.19091353660E+02  0.51100000000E-03 0. -1.
        -11    1    4    4    0    0 -0.54247390530E+01 -0.94825703100E+01 -0.16385324710E+02  0.19693293264E+02  0.51100000000E-03 0.  1.
         12    1    4    4    0    0  0.56325350376E+01  0.57777224005E+01 -0.85334060731E+01  0.11744213311E+02  0.00000000000E+00 0. -1.
</event>
<event>
 8    1  0.4964753E-012  0.9118800E+02  0.7816164E-02  0.1184000E+00
        -11   -1    0    0    0    0  0.00000000000E+00  0.00000000000E+00  0.45593999997E+02  0.45594000000E+02  0.51100000000E-03 0. -1.
         11   -1    0    0    0    0 -0.00000000000E+00 -0.00000000000E+00 -0.45593999997E+02  0.45594000000E+02  0.51100000000E-03 0.  1.
         23    2    1    2    0    0  0.17763568394E-14 -0.17763568394E-14  0.00000000000E+00  0.91188000000E+02  0.91188000000E+02 0.  0.
    9900012    2    3    3    0    0  0.15663187685E+02  0.89914604566E+01  0.36427801282E+02  0.50528849544E+02  0.29999968673E+02 0.  0.
        -12    1    3    3    0    0 -0.15663187685E+02 -0.89914604566E+01 -0.36427801282E+02  0.40659150456E+02  0.00000000000E+00 0.  1.
         11    1    4    4    0    0 -0.63552934734E+00  0.20252426403E+01  0.14887604956E+02  0.15038161021E+02  0.51100000000E-03 0. -1.
        -11    1    4    4    0    0 -0.20671885349E+01 -0.41125875944E+01 -0.62701127201E+00  0.46454051015E+01  0.51100000000E-03 0.  1.
        -12    1    4    4    0    0  0.18365905568E+02  0.11078805411E+02  0.22167207597E+02  0.30845283421E+02  0.00000000000E+00 0.  1.
</event>
<event>
 8    1  0.4964753E-012  0.9118800E+02  0.7816164E-02  0.1184000E+00
        -11   -1    0    0    0    0  0.00000000000E+00  0.00000000000E+00  0.45593999997E+02  0.45594000000E+02  0.51100000000E-03 0. -1.
         11   -1    0    0    0    0 -0.00000000000E+00 -0.00000000000E+00 -0.45593999997E+02  0.45594000000E+02  0.51100000000E-03 0.  1.
         23    2    1    2    0    0  0.35527136788E-14 -0.35527136788E-14  0.35527136788E-14  0.91188000000E+02  0.91188000000E+02 0.  0.
    9900012    2    3    3    0    0 -0.16863943487E+02  0.29331839169E+02 -0.22548100491E+02  0.50528853246E+02  0.29999979928E+02 0.  0.
         12    1    3    3    0    0  0.16863943487E+02 -0.29331839169E+02  0.22548100491E+02  0.40659146754E+02  0.00000000000E+00 0. -1.
         11    1    4    4    0    0  0.13747853563E+00  0.73800224099E+01 -0.30255255600E+00  0.73875008920E+01  0.51100000000E-03 0. -1.
        -11    1    4    4    0    0  0.42804904869E+00  0.16678327912E+02 -0.17800539385E+02  0.24396906578E+02  0.51100000000E-03 0.  1.
         12    1    4    4    0    0 -0.17429471071E+02  0.52734888471E+01 -0.44450085502E+01  0.18744445776E+02  0.00000000000E+00 0. -1.
</event>
<event>
 8    1  0.4964753E-012  0.9118800E+02  0.7816164E-02  0.1184000E+00
        -11   -1    0    0    0    0  0.00000000000E+00  0.00000000000E+00  0.45593999997E+02  0.45594000000E+02  0.51100000000E-03 0. -1.
         11   -1    0    0    0    0 -0.00000000000E+00 -0.00000000000E+00 -0.45593999997E+02  0.45594000000E+02  0.51100000000E-03 0.  1.
         23    2    1    2    0    0  0.11102230246E-15  0.00000000000E+00  0.00000000000E+00  0.91188000000E+02  0.91188000000E+02 0.  0.
    9900012    2    3    3    0    0  0.95199039869E+00  0.18471526786E+02  0.36208599081E+02  0.50528852998E+02  0.29999979173E+02 0.  0.
        -12    1    3    3    0    0 -0.95199039869E+00 -0.18471526786E+02 -0.36208599081E+02  0.40659147002E+02  0.00000000000E+00 0.  1.
         11    1    4    4    0    0  0.10904779551E+01 -0.50940302629E+01  0.39442255403E+01  0.65341565534E+01  0.51100000000E-03 0. -1.
        -11    1    4    4    0    0  0.32071774876E+01  0.40956935066E+01  0.20172876138E+02  0.20832801652E+02  0.51100000000E-03 0.  1.
        -12    1    4    4    0    0 -0.33456650441E+01  0.19469863542E+02  0.12091497402E+02  0.23161894792E+02  0.00000000000E+00 0.  1.
</event>
<event>
 8    1  0.4964753E-012  0.9118800E+02  0.7816164E-02  0.1184000E+00
        -11   -1    0    0    0    0  0.00000000000E+00  0.00000000000E+00  0.45593999997E+02  0.45594000000E+02  0.51100000000E-03 0. -1.
         11   -1    0    0    0    0 -0.00000000000E+00 -0.00000000000E+00 -0.45593999997E+02  0.45594000000E+02  0.51100000000E-03 0.  1.
         23    2    1    2    0    0  0.00000000000E+00  0.00000000000E+00  0.00000000000E+00  0.91188000000E+02  0.91188000000E+02 0.  0.
    9900012    2    3    3    0    0 -0.15669813877E+02 -0.36291485430E+02  0.95163460829E+01  0.50528735073E+02  0.29999620725E+02 0.  0.
        -12    1    3    3    0    0  0.15669813877E+02  0.36291485430E+02 -0.95163460829E+01  0.40659264927E+02  0.00000000000E+00 0.  1.
         11    1    4    4    0    0  0.17583465143E+01 -0.10813168186E+00 -0.24078930042E+01  0.29835254156E+01  0.51100000000E-03 0. -1.
        -11    1    4    4    0    0 -0.53209996314E+01 -0.25636554215E+02 -0.20446294353E+01  0.26262643791E+02  0.51100000000E-03 0.  1.
         12    1    4    4    0    0 -0.12107160760E+02 -0.10546799532E+02  0.13968868522E+02  0.21282565866E+02  0.00000000000E+00 0. -1.
</event>
<event>
 8    1  0.4964753E-012  0.9118800E+02  0.7816164E-02  0.1184000E+00
        -11   -1    0    0    0    0  0.00000000000E+00  0.00000000000E+00  0.45593999997E+02  0.45594000000E+02  0.51100000000E-03 0.  1.
         11   -1    0    0    0    0 -0.00000000000E+00 -0.00000000000E+00 -0.45593999997E+02  0.45594000000E+02  0.51100000000E-03 0. -1.
         23    2    1    2    0    0  0.00000000000E+00  0.00000000000E+00  0.35527136788E-14  0.91188000000E+02  0.91188000000E+02 0.  0.
    9900012    2    3    3    0    0  0.86349224694E+01  0.35770457797E+02  0.17293941456E+02  0.50528831930E+02  0.29999915136E+02 0.  0.
        -12    1    3    3    0    0 -0.86349224694E+01 -0.35770457797E+02 -0.17293941456E+02  0.40659168070E+02  0.00000000000E+00 0.  1.
         11    1    4    4    0    0  0.13824311208E+02  0.29642513840E+02  0.14457599410E+02  0.35760486407E+02  0.51100000000E-03 0. -1.
        -11    1    4    4    0    0 -0.19881405129E+01 -0.17004217245E+01  0.53412960166E+01  0.59475692630E+01  0.51100000000E-03 0.  1.
        -12    1    4    4    0    0 -0.32012482252E+01  0.78283656811E+01 -0.25049539708E+01  0.88207762601E+01  0.00000000000E+00 0.  1.
</event>
<event>
 8    1  0.4964753E-012  0.9118800E+02  0.7816164E-02  0.1184000E+00
        -11   -1    0    0    0    0  0.00000000000E+00  0.00000000000E+00  0.45593999997E+02  0.45594000000E+02  0.51100000000E-03 0. -1.
         11   -1    0    0    0    0 -0.00000000000E+00 -0.00000000000E+00 -0.45593999997E+02  0.45594000000E+02  0.51100000000E-03 0.  1.
         23    2    1    2    0    0 -0.17763568394E-14 -0.17763568394E-14  0.71054273576E-14  0.91188000000E+02  0.91188000000E+02 0.  0.
    9900012    2    3    3    0    0  0.82457733707E+01  0.15979666527E+02 -0.36466745539E+02  0.50528855260E+02  0.29999986047E+02 0.  0.
         12    1    3    3    0    0 -0.82457733707E+01 -0.15979666527E+02  0.36466745539E+02  0.40659144740E+02  0.00000000000E+00 0. -1.
         11    1    4    4    0    0 -0.22195001855E+01  0.35440857437E+01 -0.65749173641E+01  0.77920641320E+01  0.51100000000E-03 0. -1.
        -11    1    4    4    0    0 -0.74080095541E+01  0.57170639006E+01 -0.31414566429E+01  0.98707737943E+01  0.51100000000E-03 0.  1.
        -12    1    4    4    0    0  0.17873283110E+02  0.67185168826E+01 -0.26750371532E+02  0.32866017333E+02  0.00000000000E+00 0.  1.
</event>
<event>
 8    1  0.4964753E-012  0.9118800E+02  0.7816164E-02  0.1184000E+00
        -11   -1    0    0    0    0  0.00000000000E+00  0.00000000000E+00  0.45593999997E+02  0.45594000000E+02  0.51100000000E-03 0. -1.
         11   -1    0    0    0    0 -0.00000000000E+00 -0.00000000000E+00 -0.45593999997E+02  0.45594000000E+02  0.51100000000E-03 0.  1.
         23    2    1    2    0    0  0.35527136788E-14  0.00000000000E+00  0.00000000000E+00  0.91188000000E+02  0.91188000000E+02 0.  0.
    9900012    2    3    3    0    0  0.30006735391E+02 -0.15339421694E+02  0.22747799590E+02  0.50528875404E+02  0.30000047278E+02 0.  0.
        -12    1    3    3    0    0 -0.30006735391E+02  0.15339421694E+02 -0.22747799590E+02  0.40659124596E+02  0.00000000000E+00 0.  1.
         11    1    4    4    0    0  0.48531637165E+01  0.58007624318E+01  0.12059102753E+02  0.14234605801E+02  0.51100000000E-03 0. -1.
        -11    1    4    4    0    0  0.33457899605E+00 -0.27776307186E+01 -0.14124033391E+01  0.31340164273E+01  0.51100000000E-03 0.  1.
        -12    1    4    4    0    0  0.24818992678E+02 -0.18362553407E+02  0.12101100177E+02  0.33160253176E+02  0.00000000000E+00 0.  1.
</event>
<event>
 8    1  0.4964753E-012  0.9118800E+02  0.7816164E-02  0.1184000E+00
        -11   -1    0    0    0    0  0.00000000000E+00  0.00000000000E+00  0.45593999997E+02  0.45594000000E+02  0.51100000000E-03 0. -1.
         11   -1    0    0    0    0 -0.00000000000E+00 -0.00000000000E+00 -0.45593999997E+02  0.45594000000E+02  0.51100000000E-03 0.  1.
         23    2    1    2    0    0  0.35527136788E-14 -0.17763568394E-14  0.00000000000E+00  0.91188000000E+02  0.91188000000E+02 0.  0.
    9900012    2    3    3    0    0 -0.17808894649E+02 -0.12359002830E+02 -0.34398604440E+02  0.50528859982E+02  0.30000000402E+02 0.  0.
         12    1    3    3    0    0  0.17808894649E+02  0.12359002830E+02  0.34398604440E+02  0.40659140018E+02  0.00000000000E+00 0. -1.
         11    1    4    4    0    0  0.14221282774E+01 -0.10139020754E+01  0.23552294606E+00  0.17623613634E+01  0.51100000000E-03 0. -1.
        -11    1    4    4    0    0 -0.62993789104E+01 -0.17515740544E+02 -0.26203011264E+02  0.32141579629E+02  0.51100000000E-03 0.  1.
         12    1    4    4    0    0 -0.12931644016E+02  0.61706397894E+01 -0.84311161212E+01  0.16624918990E+02  0.00000000000E+00 0. -1.
</event>
<event>
 8    1  0.4964753E-012  0.9118800E+02  0.7816164E-02  0.1184000E+00
        -11   -1    0    0    0    0  0.00000000000E+00  0.00000000000E+00  0.45593999997E+02  0.45594000000E+02  0.51100000000E-03 0. -1.
         11   -1    0    0    0    0 -0.00000000000E+00 -0.00000000000E+00 -0.45593999997E+02  0.45594000000E+02  0.51100000000E-03 0.  1.
         23    2    1    2    0    0  0.35527136788E-14  0.44408920985E-15  0.00000000000E+00  0.91188000000E+02  0.91188000000E+02 0.  0.
    9900012    2    3    3    0    0  0.22967890873E+02  0.14239481882E+01  0.33520351225E+02  0.50528860980E+02  0.30000003435E+02 0.  0.
        -12    1    3    3    0    0 -0.22967890873E+02 -0.14239481882E+01 -0.33520351225E+02  0.40659139020E+02  0.00000000000E+00 0.  1.
         11    1    4    4    0    0  0.12389405838E+02 -0.61147799176E+01  0.13007936647E+02  0.18976151520E+02  0.51100000000E-03 0. -1.
        -11    1    4    4    0    0  0.92333030948E+01  0.82145515710E+01  0.14640220510E+01  0.12444922835E+02  0.51100000000E-03 0.  1.
         12    1    4    4    0    0  0.13451819401E+01 -0.67582346526E+00  0.19048392527E+02  0.19107786624E+02  0.00000000000E+00 0. -1.
</event>
<event>
 8    1  0.4964753E-012  0.9118800E+02  0.7816164E-02  0.1184000E+00
        -11   -1    0    0    0    0  0.00000000000E+00  0.00000000000E+00  0.45593999997E+02  0.45594000000E+02  0.51100000000E-03 0. -1.
         11   -1    0    0    0    0 -0.00000000000E+00 -0.00000000000E+00 -0.45593999997E+02  0.45594000000E+02  0.51100000000E-03 0.  1.
         23    2    1    2    0    0  0.35527136788E-14  0.00000000000E+00  0.00000000000E+00  0.91188000000E+02  0.91188000000E+02 0.  0.
    9900012    2    3    3    0    0  0.31055414092E+02  0.16370215177E+02 -0.20512029213E+02  0.50528855496E+02  0.29999986766E+02 0.  0.
         12    1    3    3    0    0 -0.31055414092E+02 -0.16370215177E+02  0.20512029213E+02  0.40659144504E+02  0.00000000000E+00 0. -1.
         11    1    4    4    0    0 -0.21298799003E+01 -0.37472606910E+00  0.18041820950E+01  0.28163595846E+01  0.51100000000E-03 0. -1.
        -11    1    4    4    0    0  0.28901510950E+02  0.87507381774E+01 -0.23893451180E+02  0.38506749582E+02  0.51100000000E-03 0.  1.
         12    1    4    4    0    0  0.42837830424E+01  0.79942030688E+01  0.15772398723E+01  0.92057463290E+01  0.00000000000E+00 0. -1.
</event>
<event>
 8    1  0.4964753E-012  0.9118800E+02  0.7816164E-02  0.1184000E+00
        -11   -1    0    0    0    0  0.00000000000E+00  0.00000000000E+00  0.45593999997E+02  0.45594000000E+02  0.51100000000E-03 0. -1.
         11   -1    0    0    0    0 -0.00000000000E+00 -0.00000000000E+00 -0.45593999997E+02  0.45594000000E+02  0.51100000000E-03 0.  1.
         23    2    1    2    0    0  0.00000000000E+00  0.35527136788E-14  0.00000000000E+00  0.91188000000E+02  0.91188000000E+02 0.  0.
    9900012    2    3    3    0    0  0.23818383776E+02  0.16061889722E+02 -0.28772653967E+02  0.50528864206E+02  0.30000013241E+02 0.  0.
         12    1    3    3    0    0 -0.23818383776E+02 -0.16061889722E+02  0.28772653967E+02  0.40659135794E+02  0.00000000000E+00 0. -1.
         11    1    4    4    0    0  0.87196960043E+01  0.92245560122E+01 -0.99690748218E+00  0.12732609977E+02  0.51100000000E-03 0.  1.
        -11    1    4    4    0    0 -0.30379934096E+01 -0.35061900901E+01 -0.37446646207E+01  0.59619867735E+01  0.51100000000E-03 0. -1.
         12    1    4    4    0    0  0.18136681182E+02  0.10343523800E+02 -0.24031081864E+02  0.31834267456E+02  0.00000000000E+00 0. -1.
</event>
<event>
 8    1  0.4964753E-012  0.9118800E+02  0.7816164E-02  0.1184000E+00
        -11   -1    0    0    0    0  0.00000000000E+00  0.00000000000E+00  0.45593999997E+02  0.45594000000E+02  0.51100000000E-03 0. -1.
         11   -1    0    0    0    0 -0.00000000000E+00 -0.00000000000E+00 -0.45593999997E+02  0.45594000000E+02  0.51100000000E-03 0.  1.
         23    2    1    2    0    0  0.00000000000E+00  0.17763568394E-14  0.00000000000E+00  0.91188000000E+02  0.91188000000E+02 0.  0.
    9900012    2    3    3    0    0  0.18173491613E+02 -0.15395677898E+02 -0.32952427239E+02  0.50528866263E+02  0.30000019492E+02 0.  0.
         12    1    3    3    0    0 -0.18173491613E+02  0.15395677898E+02  0.32952427239E+02  0.40659133737E+02  0.00000000000E+00 0. -1.
         11    1    4    4    0    0  0.55637027254E+01 -0.15517756850E+02 -0.16136554927E+02  0.23068245942E+02  0.51100000000E-03 0. -1.
        -11    1    4    4    0    0 -0.35318397393E+01 -0.18791025892E+01  0.88822284338E-01  0.40016006977E+01  0.51100000000E-03 0.  1.
        -12    1    4    4    0    0  0.16141628626E+02  0.20011815411E+01 -0.16904694596E+02  0.23459019623E+02  0.00000000000E+00 0.  1.
</event>
<event>
 8    1  0.4964753E-012  0.9118800E+02  0.7816164E-02  0.1184000E+00
        -11   -1    0    0    0    0  0.00000000000E+00  0.00000000000E+00  0.45593999997E+02  0.45594000000E+02  0.51100000000E-03 0.  1.
         11   -1    0    0    0    0 -0.00000000000E+00 -0.00000000000E+00 -0.45593999997E+02  0.45594000000E+02  0.51100000000E-03 0. -1.
         23    2    1    2    0    0  0.71054273576E-14  0.00000000000E+00  0.00000000000E+00  0.91188000000E+02  0.91188000000E+02 0.  0.
    9900012    2    3    3    0    0 -0.33500012853E+02 -0.21180411835E+02  0.90721865769E+01  0.50528864791E+02  0.30000015018E+02 0.  0.
         12    1    3    3    0    0  0.33500012853E+02  0.21180411835E+02 -0.90721865769E+01  0.40659135209E+02  0.00000000000E+00 0. -1.
         11    1    4    4    0    0 -0.96495478929E+01 -0.14281162052E+02 -0.91798992024E+01  0.19527824091E+02  0.51100000000E-03 0. -1.
        -11    1    4    4    0    0 -0.76319390957E+01 -0.36318667001E+01  0.51545710338E+01  0.98998259021E+01  0.51100000000E-03 0.  1.
         12    1    4    4    0    0 -0.16218525865E+02 -0.32673830824E+01  0.13097514745E+02  0.21101214798E+02  0.00000000000E+00 0. -1.
</event>
<event>
 8    1  0.4964753E-012  0.9118800E+02  0.7816164E-02  0.1184000E+00
        -11   -1    0    0    0    0  0.00000000000E+00  0.00000000000E+00  0.45593999997E+02  0.45594000000E+02  0.51100000000E-03 0. -1.
         11   -1    0    0    0    0 -0.00000000000E+00 -0.00000000000E+00 -0.45593999997E+02  0.45594000000E+02  0.51100000000E-03 0.  1.
         23    2    1    2    0    0 -0.17763568394E-14  0.00000000000E+00  0.00000000000E+00  0.91188000000E+02  0.91188000000E+02 0.  0.
    9900012    2    3    3    0    0  0.13301683359E+02  0.33497895213E+02 -0.18818131280E+02  0.50528857993E+02  0.29999994356E+02 0.  0.
         12    1    3    3    0    0 -0.13301683359E+02 -0.33497895213E+02  0.18818131280E+02  0.40659142007E+02  0.00000000000E+00 0. -1.
         11    1    4    4    0    0 -0.38716743572E+01  0.17370075060E+02 -0.12002289057E+02  0.21465421329E+02  0.51100000000E-03 0. -1.
        -11    1    4    4    0    0  0.84260804021E+01  0.42404890282E+01 -0.10229599695E+02  0.13914930410E+02  0.51100000000E-03 0.  1.
         12    1    4    4    0    0  0.87472773138E+01  0.11887331124E+02  0.34137574725E+01  0.15148506255E+02  0.00000000000E+00 0. -1.
</event>
<event>
 8    1  0.4964753E-012  0.9118800E+02  0.7816164E-02  0.1184000E+00
        -11   -1    0    0    0    0  0.00000000000E+00  0.00000000000E+00  0.45593999997E+02  0.45594000000E+02  0.51100000000E-03 0. -1.
         11   -1    0    0    0    0 -0.00000000000E+00 -0.00000000000E+00 -0.45593999997E+02  0.45594000000E+02  0.51100000000E-03 0.  1.
         23    2    1    2    0    0 -0.44408920985E-15  0.00000000000E+00  0.00000000000E+00  0.91188000000E+02  0.91188000000E+02 0.  0.
    9900012    2    3    3    0    0  0.29716460356E+01  0.15629219255E+02  0.37417404814E+02  0.50528863786E+02  0.30000011963E+02 0.  0.
        -12    1    3    3    0    0 -0.29716460356E+01 -0.15629219255E+02 -0.37417404814E+02  0.40659136214E+02  0.00000000000E+00 0.  1.
         11    1    4    4    0    0 -0.34323632326E+01  0.52156054509E+01  0.16965916544E+02  0.18078329071E+02  0.51100000000E-03 0. -1.
        -11    1    4    4    0    0 -0.31442721075E+01 -0.56043109697E+01  0.39017176121E+01  0.75178553535E+01  0.51100000000E-03 0.  1.
         12    1    4    4    0    0  0.95482813757E+01  0.16017924773E+02  0.16549770658E+02  0.24932679361E+02  0.00000000000E+00 0. -1.
</event>
<event>
 8    1  0.4964753E-012  0.9118800E+02  0.7816164E-02  0.1184000E+00
        -11   -1    0    0    0    0  0.00000000000E+00  0.00000000000E+00  0.45593999997E+02  0.45594000000E+02  0.51100000000E-03 0. -1.
         11   -1    0    0    0    0 -0.00000000000E+00 -0.00000000000E+00 -0.45593999997E+02  0.45594000000E+02  0.51100000000E-03 0.  1.
         23    2    1    2    0    0 -0.31086244690E-14  0.88817841970E-15  0.00000000000E+00  0.91188000000E+02  0.91188000000E+02 0.  0.
    9900012    2    3    3    0    0 -0.21084252382E+01  0.47409286478E+01 -0.40326714591E+02  0.50528858702E+02  0.29999996510E+02 0.  0.
         12    1    3    3    0    0  0.21084252382E+01 -0.47409286478E+01  0.40326714591E+02  0.40659141298E+02  0.00000000000E+00 0. -1.
         11    1    4    4    0    0  0.10177195315E+02  0.32229825857E+01 -0.10808291826E+02  0.15191513871E+02  0.51100000000E-03 0. -1.
        -11    1    4    4    0    0 -0.18429254703E+01 -0.61827199632E+01 -0.97783457755E+01  0.11714881425E+02  0.51100000000E-03 0.  1.
         12    1    4    4    0    0 -0.10442695083E+02  0.77006660253E+01 -0.19740076989E+02  0.23622463406E+02  0.00000000000E+00 0. -1.
</event>
<event>
 8    1  0.4964753E-012  0.9118800E+02  0.7816164E-02  0.1184000E+00
        -11   -1    0    0    0    0  0.00000000000E+00  0.00000000000E+00  0.45593999997E+02  0.45594000000E+02  0.51100000000E-03 0. -1.
         11   -1    0    0    0    0 -0.00000000000E+00 -0.00000000000E+00 -0.45593999997E+02  0.45594000000E+02  0.51100000000E-03 0.  1.
         23    2    1    2    0    0  0.00000000000E+00 -0.88817841970E-15 -0.88817841970E-15  0.91188000000E+02  0.91188000000E+02 0.  0.
    9900012    2    3    3    0    0  0.39920698779E+02 -0.50074069201E+01 -0.58683057228E+01  0.50528765783E+02  0.29999714072E+02 0.  0.
         12    1    3    3    0    0 -0.39920698779E+02  0.50074069201E+01  0.58683057228E+01  0.40659234217E+02  0.00000000000E+00 0. -1.
         11    1    4    4    0    0  0.21893135011E+02 -0.37907737659E+01  0.20661192835E+01  0.22314752418E+02  0.51100000000E-03 0. -1.
        -11    1    4    4    0    0  0.39000618650E+01  0.19340190675E+00  0.67438586395E+01  0.77927861808E+01  0.51100000000E-03 0.  1.
        -12    1    4    4    0    0  0.14127501903E+02 -0.14100350609E+01 -0.14678283646E+02  0.20421227184E+02  0.00000000000E+00 0.  1.
</event>
<event>
 8    1  0.4964753E-012  0.9118800E+02  0.7816164E-02  0.1184000E+00
        -11   -1    0    0    0    0  0.00000000000E+00  0.00000000000E+00  0.45593999997E+02  0.45594000000E+02  0.51100000000E-03 0. -1.
         11   -1    0    0    0    0 -0.00000000000E+00 -0.00000000000E+00 -0.45593999997E+02  0.45594000000E+02  0.51100000000E-03 0.  1.
         23    2    1    2    0    0 -0.17763568394E-14  0.00000000000E+00 -0.13322676296E-14  0.91188000000E+02  0.91188000000E+02 0.  0.
    9900012    2    3    3    0    0  0.11198942856E+02 -0.38895260189E+02  0.38611204314E+01  0.50528857888E+02  0.29999994037E+02 0.  0.
        -12    1    3    3    0    0 -0.11198942856E+02  0.38895260189E+02 -0.38611204314E+01  0.40659142112E+02  0.00000000000E+00 0.  1.
         11    1    4    4    0    0  0.11429159271E+02 -0.28368101001E+02  0.50363350582E+01  0.30995798217E+02  0.51100000000E-03 0. -1.
        -11    1    4    4    0    0  0.83706873321E+00 -0.26171014311E+01  0.73546494254E+01  0.78511637606E+01  0.51100000000E-03 0.  1.
         12    1    4    4    0    0 -0.10672851483E+01 -0.79100577577E+01 -0.85298640521E+01  0.11681895911E+02  0.00000000000E+00 0. -1.
</event>
<event>
 8    1  0.4964753E-012  0.9118800E+02  0.7816164E-02  0.1184000E+00
        -11   -1    0    0    0    0  0.00000000000E+00  0.00000000000E+00  0.45593999997E+02  0.45594000000E+02  0.51100000000E-03 0. -1.
         11   -1    0    0    0    0 -0.00000000000E+00 -0.00000000000E+00 -0.45593999997E+02  0.45594000000E+02  0.51100000000E-03 0.  1.
         23    2    1    2    0    0  0.71054273576E-14  0.17763568394E-14 -0.35527136788E-14  0.91188000000E+02  0.91188000000E+02 0.  0.
    9900012    2    3    3    0    0  0.33420475399E+02  0.11498212271E+02 -0.20100423526E+02  0.50528879409E+02  0.30000059452E+02 0.  0.
         12    1    3    3    0    0 -0.33420475399E+02 -0.11498212271E+02  0.20100423526E+02  0.40659120591E+02  0.00000000000E+00 0. -1.
         11    1    4    4    0    0  0.51362479925E+01 -0.31089569377E+01 -0.11585949803E+02  0.13049171996E+02  0.51100000000E-03 0. -1.
        -11    1    4    4    0    0  0.22773632752E+02  0.23883606248E+01 -0.72374313972E+01  0.24015058374E+02  0.51100000000E-03 0.  1.
        -12    1    4    4    0    0  0.55105946542E+01  0.12218808584E+02 -0.12770423255E+01  0.13464649040E+02  0.00000000000E+00 0.  1.
</event>
<event>
 8    1  0.4964753E-012  0.9118800E+02  0.7816164E-02  0.1184000E+00
        -11   -1    0    0    0    0  0.00000000000E+00  0.00000000000E+00  0.45593999997E+02  0.45594000000E+02  0.51100000000E-03 0. -1.
         11   -1    0    0    0    0 -0.00000000000E+00 -0.00000000000E+00 -0.45593999997E+02  0.45594000000E+02  0.51100000000E-03 0.  1.
         23    2    1    2    0    0  0.00000000000E+00  0.00000000000E+00  0.00000000000E+00  0.91188000000E+02  0.91188000000E+02 0.  0.
    9900012    2    3    3    0    0 -0.10489538370E+02 -0.46597417050E+01  0.39005410411E+02  0.50528860200E+02  0.30000001063E+02 0.  0.
        -12    1    3    3    0    0  0.10489538370E+02  0.46597417050E+01 -0.39005410411E+02  0.40659139800E+02  0.00000000000E+00 0.  1.
         11    1    4    4    0    0  0.75094781067E+01 -0.39834650119E+01  0.61945833606E+01  0.10518227902E+02  0.51100000000E-03 0. -1.
        -11    1    4    4    0    0 -0.25466850631E+01 -0.58265584712E+01  0.67087532494E+01  0.92434711473E+01  0.51100000000E-03 0.  1.
         12    1    4    4    0    0 -0.15452331413E+02  0.51502817781E+01  0.26102073801E+02  0.30767161150E+02  0.00000000000E+00 0. -1.
</event>
<event>
 8    1  0.4964753E-012  0.9118800E+02  0.7816164E-02  0.1184000E+00
        -11   -1    0    0    0    0  0.00000000000E+00  0.00000000000E+00  0.45593999997E+02  0.45594000000E+02  0.51100000000E-03 0.  1.
         11   -1    0    0    0    0 -0.00000000000E+00 -0.00000000000E+00 -0.45593999997E+02  0.45594000000E+02  0.51100000000E-03 0. -1.
         23    2    1    2    0    0  0.00000000000E+00  0.00000000000E+00  0.00000000000E+00  0.91188000000E+02  0.91188000000E+02 0.  0.
    9900012    2    3    3    0    0 -0.20917034689E+02  0.29527282563E+02 -0.18541395267E+02  0.50528854729E+02  0.29999984435E+02 0.  0.
        -12    1    3    3    0    0  0.20917034689E+02 -0.29527282563E+02  0.18541395267E+02  0.40659145271E+02  0.00000000000E+00 0.  1.
         11    1    4    4    0    0 -0.95405101311E+01 -0.49083953139E+00 -0.17265362892E+01  0.97078929138E+01  0.51100000000E-03 0. -1.
        -11    1    4    4    0    0  0.42659456665E+01  0.37633206069E+01 -0.63310251736E+01  0.85113309435E+01  0.51100000000E-03 0.  1.
         12    1    4    4    0    0 -0.15642470224E+02  0.26254801487E+02 -0.10483833804E+02  0.32309630872E+02  0.00000000000E+00 0. -1.
</event>
<event>
 8    1  0.4964753E-012  0.9118800E+02  0.7816164E-02  0.1184000E+00
        -11   -1    0    0    0    0  0.00000000000E+00  0.00000000000E+00  0.45593999997E+02  0.45594000000E+02  0.51100000000E-03 0. -1.
         11   -1    0    0    0    0 -0.00000000000E+00 -0.00000000000E+00 -0.45593999997E+02  0.45594000000E+02  0.51100000000E-03 0.  1.
         23    2    1    2    0    0 -0.88817841970E-15  0.35527136788E-14  0.71054273576E-14  0.91188000000E+02  0.91188000000E+02 0.  0.
    9900012    2    3    3    0    0 -0.22485357682E+01  0.22067260281E+02  0.34075594086E+02  0.50528855866E+02  0.29999987891E+02 0.  0.
        -12    1    3    3    0    0  0.22485357682E+01 -0.22067260281E+02 -0.34075594086E+02  0.40659144134E+02  0.00000000000E+00 0.  1.
         11    1    4    4    0    0  0.30658594119E+01 -0.26387441687E+01  0.28334359974E+01  0.49387067674E+01  0.51100000000E-03 0. -1.
        -11    1    4    4    0    0  0.65292746621E+01  0.90631279861E+00  0.69508868708E+01  0.95795437811E+01  0.51100000000E-03 0.  1.
         12    1    4    4    0    0 -0.11843669842E+02  0.23799691651E+02  0.24291271218E+02  0.36010605318E+02  0.00000000000E+00 0. -1.
</event>
<event>
 8    1  0.4964753E-012  0.9118800E+02  0.7816164E-02  0.1184000E+00
        -11   -1    0    0    0    0  0.00000000000E+00  0.00000000000E+00  0.45593999997E+02  0.45594000000E+02  0.51100000000E-03 0. -1.
         11   -1    0    0    0    0 -0.00000000000E+00 -0.00000000000E+00 -0.45593999997E+02  0.45594000000E+02  0.51100000000E-03 0.  1.
         23    2    1    2    0    0  0.00000000000E+00  0.00000000000E+00  0.17763568394E-14  0.91188000000E+02  0.91188000000E+02 0.  0.
    9900012    2    3    3    0    0 -0.34066423614E+02 -0.19163134451E+02 -0.11199039975E+02  0.50528862820E+02  0.30000009029E+02 0.  0.
         12    1    3    3    0    0  0.34066423614E+02  0.19163134451E+02  0.11199039975E+02  0.40659137180E+02  0.00000000000E+00 0. -1.
         11    1    4    4    0    0 -0.18599217904E+02  0.11869307832E+01  0.52815916917E+00  0.18644534419E+02  0.51100000000E-03 0. -1.
        -11    1    4    4    0    0 -0.16045799269E+02 -0.10071106484E+02 -0.50246362448E+01  0.19599536465E+02  0.51100000000E-03 0.  1.
        -12    1    4    4    0    0  0.57859355964E+00 -0.10278958750E+02 -0.67025628992E+01  0.12284791936E+02  0.00000000000E+00 0.  1.
</event>
<event>
 8    1  0.4964753E-012  0.9118800E+02  0.7816164E-02  0.1184000E+00
        -11   -1    0    0    0    0  0.00000000000E+00  0.00000000000E+00  0.45593999997E+02  0.45594000000E+02  0.51100000000E-03 0. -1.
         11   -1    0    0    0    0 -0.00000000000E+00 -0.00000000000E+00 -0.45593999997E+02  0.45594000000E+02  0.51100000000E-03 0.  1.
         23    2    1    2    0    0  0.00000000000E+00  0.00000000000E+00  0.00000000000E+00  0.91188000000E+02  0.91188000000E+02 0.  0.
    9900012    2    3    3    0    0  0.20750177642E+02 -0.17551329621E+02 -0.30241466388E+02  0.50528864090E+02  0.30000012887E+02 0.  0.
         12    1    3    3    0    0 -0.20750177642E+02  0.17551329621E+02  0.30241466388E+02  0.40659135910E+02  0.00000000000E+00 0. -1.
         11    1    4    4    0    0  0.10369346172E+02  0.17857138490E+01 -0.19467789743E+01  0.10700563659E+02  0.51100000000E-03 0. -1.
        -11    1    4    4    0    0  0.12106593029E+02 -0.11036088192E+02 -0.88590064256E+01  0.18623824324E+02  0.51100000000E-03 0.  1.
        -12    1    4    4    0    0 -0.17257615586E+01 -0.83009552781E+01 -0.19435680988E+02  0.21204476107E+02  0.00000000000E+00 0.  1.
</event>
<event>
 8    1  0.4964753E-012  0.9118800E+02  0.7816164E-02  0.1184000E+00
        -11   -1    0    0    0    0  0.00000000000E+00  0.00000000000E+00  0.45593999997E+02  0.45594000000E+02  0.51100000000E-03 0. -1.
         11   -1    0    0    0    0 -0.00000000000E+00 -0.00000000000E+00 -0.45593999997E+02  0.45594000000E+02  0.51100000000E-03 0.  1.
         23    2    1    2    0    0 -0.88817841970E-15  0.00000000000E+00  0.00000000000E+00  0.91188000000E+02  0.91188000000E+02 0.  0.
    9900012    2    3    3    0    0  0.50778378219E+01 -0.88576531024E+01 -0.39356448745E+02  0.50528775791E+02  0.29999744495E+02 0.  0.
         12    1    3    3    0    0 -0.50778378219E+01  0.88576531024E+01  0.39356448745E+02  0.40659224209E+02  0.00000000000E+00 0. -1.
         11    1    4    4    0    0  0.21130042563E+01  0.87573623581E+01 -0.69256798700E+01  0.11363152044E+02  0.51100000000E-03 0. -1.
        -11    1    4    4    0    0 -0.38317600903E+01 -0.22889636396E+01 -0.11580685871E+02  0.12411044494E+02  0.51100000000E-03 0.  1.
        -12    1    4    4    0    0  0.67965936558E+01 -0.15326051821E+02 -0.20850083004E+02  0.26754579253E+02  0.00000000000E+00 0.  1.
</event>
<event>
 8    1  0.4964753E-012  0.9118800E+02  0.7816164E-02  0.1184000E+00
        -11   -1    0    0    0    0  0.00000000000E+00  0.00000000000E+00  0.45593999997E+02  0.45594000000E+02  0.51100000000E-03 0. -1.
         11   -1    0    0    0    0 -0.00000000000E+00 -0.00000000000E+00 -0.45593999997E+02  0.45594000000E+02  0.51100000000E-03 0.  1.
         23    2    1    2    0    0  0.00000000000E+00  0.35527136788E-14  0.00000000000E+00  0.91188000000E+02  0.91188000000E+02 0.  0.
    9900012    2    3    3    0    0  0.20340552271E+02  0.23263430028E+02 -0.26424273875E+02  0.50528837524E+02  0.29999932139E+02 0.  0.
         12    1    3    3    0    0 -0.20340552271E+02 -0.23263430028E+02  0.26424273875E+02  0.40659162476E+02  0.00000000000E+00 0. -1.
         11    1    4    4    0    0  0.86484736773E+01  0.21951134897E+01 -0.72928117443E+01  0.11523876239E+02  0.51100000000E-03 0.  1.
        -11    1    4    4    0    0 -0.40133494590E+01  0.35730899250E+01 -0.13923702933E+02  0.14924592093E+02  0.51100000000E-03 0. -1.
         12    1    4    4    0    0  0.15705428053E+02  0.17495226613E+02 -0.52077591978E+01  0.24080369192E+02  0.00000000000E+00 0. -1.
</event>
<event>
 8    1  0.4964753E-012  0.9118800E+02  0.7816164E-02  0.1184000E+00
        -11   -1    0    0    0    0  0.00000000000E+00  0.00000000000E+00  0.45593999997E+02  0.45594000000E+02  0.51100000000E-03 0. -1.
         11   -1    0    0    0    0 -0.00000000000E+00 -0.00000000000E+00 -0.45593999997E+02  0.45594000000E+02  0.51100000000E-03 0.  1.
         23    2    1    2    0    0 -0.66613381478E-15  0.71054273576E-14 -0.88817841970E-15  0.91188000000E+02  0.91188000000E+02 0.  0.
    9900012    2    3    3    0    0 -0.11516467349E+01 -0.40632572898E+02  0.91256895285E+00  0.50528867537E+02  0.30000023367E+02 0.  0.
         12    1    3    3    0    0  0.11516467349E+01  0.40632572898E+02 -0.91256895285E+00  0.40659132463E+02  0.00000000000E+00 0. -1.
         11    1    4    4    0    0  0.92824193447E+01 -0.36111830869E+02  0.60931848065E+01  0.37780345935E+02  0.51100000000E-03 0. -1.
        -11    1    4    4    0    0 -0.23465500399E+01 -0.19177112759E+01 -0.57559180479E+00  0.30846749933E+01  0.51100000000E-03 0.  1.
         12    1    4    4    0    0 -0.80875160397E+01 -0.26030307530E+01 -0.46050240489E+01  0.96638466091E+01  0.00000000000E+00 0. -1.
</event>
<event>
 8    1  0.4964753E-012  0.9118800E+02  0.7816164E-02  0.1184000E+00
        -11   -1    0    0    0    0  0.00000000000E+00  0.00000000000E+00  0.45593999997E+02  0.45594000000E+02  0.51100000000E-03 0. -1.
         11   -1    0    0    0    0 -0.00000000000E+00 -0.00000000000E+00 -0.45593999997E+02  0.45594000000E+02  0.51100000000E-03 0.  1.
         23    2    1    2    0    0  0.00000000000E+00  0.00000000000E+00  0.00000000000E+00  0.91188000000E+02  0.91188000000E+02 0.  0.
    9900012    2    3    3    0    0 -0.22411172375E+02 -0.12392245242E+02  0.31580647606E+02  0.50528859668E+02  0.29999999447E+02 0.  0.
        -12    1    3    3    0    0  0.22411172375E+02  0.12392245242E+02 -0.31580647606E+02  0.40659140332E+02  0.00000000000E+00 0.  1.
         11    1    4    4    0    0 -0.96151642121E+01 -0.34671158307E+01  0.14945100808E+02  0.18106029753E+02  0.51100000000E-03 0. -1.
        -11    1    4    4    0    0 -0.12379525341E+02  0.31311092059E+01  0.15821930243E+02  0.20331993740E+02  0.51100000000E-03 0.  1.
         12    1    4    4    0    0 -0.41648282111E+00 -0.12056238617E+02  0.81361655485E+00  0.12090836175E+02  0.00000000000E+00 0. -1.
</event>
<event>
 8    1  0.4964753E-012  0.9118800E+02  0.7816164E-02  0.1184000E+00
        -11   -1    0    0    0    0  0.00000000000E+00  0.00000000000E+00  0.45593999997E+02  0.45594000000E+02  0.51100000000E-03 0. -1.
         11   -1    0    0    0    0 -0.00000000000E+00 -0.00000000000E+00 -0.45593999997E+02  0.45594000000E+02  0.51100000000E-03 0.  1.
         23    2    1    2    0    0  0.00000000000E+00  0.17763568394E-14 -0.71054273576E-14  0.91188000000E+02  0.91188000000E+02 0.  0.
    9900012    2    3    3    0    0 -0.12023990368E+02 -0.13438175904E+02 -0.36441810084E+02  0.50528850498E+02  0.29999971574E+02 0.  0.
         12    1    3    3    0    0  0.12023990368E+02  0.13438175904E+02  0.36441810084E+02  0.40659149502E+02  0.00000000000E+00 0. -1.
         11    1    4    4    0    0 -0.74997031586E+01 -0.39764989535E+01 -0.10022526012E+02  0.13134272699E+02  0.51100000000E-03 0.  1.
        -11    1    4    4    0    0 -0.12393913304E+02 -0.11893201587E+02 -0.22404459400E+02  0.28231491853E+02  0.51100000000E-03 0. -1.
         12    1    4    4    0    0  0.78696260942E+01  0.24315246365E+01 -0.40148246721E+01  0.91630859468E+01  0.00000000000E+00 0. -1.
</event>
<event>
 8    1  0.5944429E-012  0.9118800E+02  0.7816164E-02  0.1184000E+00
        -11   -1    0    0    0    0  0.00000000000E+00  0.00000000000E+00  0.45593999997E+02  0.45594000000E+02  0.51100000000E-03 0. -1.
         11   -1    0    0    0    0 -0.00000000000E+00 -0.00000000000E+00 -0.45593999997E+02  0.45594000000E+02  0.51100000000E-03 0.  1.
         23    2    1    2    0    0  0.00000000000E+00  0.00000000000E+00  0.71054273576E-14  0.91188000000E+02  0.91188000000E+02 0.  0.
    9900012    2    3    3    0    0  0.10195636992E+02 -0.18567819852E+02 -0.34705222673E+02  0.50528838321E+02  0.29999934559E+02 0.  0.
         12    1    3    3    0    0 -0.10195636992E+02  0.18567819852E+02  0.34705222673E+02  0.40659161679E+02  0.00000000000E+00 0. -1.
         11    1    4    4    0    0  0.53081915939E+01 -0.79024721846E+01 -0.24864021283E+02  0.26624152930E+02  0.51100000000E-03 0.  1.
        -11    1    4    4    0    0  0.95757891326E+01 -0.13034171742E+02 -0.54780247990E+01  0.17076127385E+02  0.51100000000E-03 0. -1.
         12    1    4    4    0    0 -0.46883437346E+01  0.23688240749E+01 -0.43631765909E+01  0.68285580055E+01  0.00000000000E+00 0. -1.
</event>
<event>
 8    1  0.4964753E-012  0.9118800E+02  0.7816164E-02  0.1184000E+00
        -11   -1    0    0    0    0  0.00000000000E+00  0.00000000000E+00  0.45593999997E+02  0.45594000000E+02  0.51100000000E-03 0.  1.
         11   -1    0    0    0    0 -0.00000000000E+00 -0.00000000000E+00 -0.45593999997E+02  0.45594000000E+02  0.51100000000E-03 0. -1.
         23    2    1    2    0    0 -0.71054273576E-14  0.00000000000E+00  0.17763568394E-14  0.91188000000E+02  0.91188000000E+02 0.  0.
    9900012    2    3    3    0    0  0.34739337038E+02  0.17414209422E+02 -0.11961983915E+02  0.50528864657E+02  0.30000014613E+02 0.  0.
         12    1    3    3    0    0 -0.34739337038E+02 -0.17414209422E+02  0.11961983915E+02  0.40659135343E+02  0.00000000000E+00 0. -1.
         11    1    4    4    0    0  0.24720477905E+02  0.50657004886E+01 -0.57374691757E+01  0.25878212884E+02  0.51100000000E-03 0. -1.
        -11    1    4    4    0    0  0.81876589058E+01  0.27013863609E+01  0.48156296602E+01  0.98755018057E+01  0.51100000000E-03 0.  1.
         12    1    4    4    0    0  0.18312002274E+01  0.96471225722E+01 -0.11040144400E+02  0.14775149968E+02  0.00000000000E+00 0. -1.
</event>
<event>
 8    1  0.4964753E-012  0.9118800E+02  0.7816164E-02  0.1184000E+00
        -11   -1    0    0    0    0  0.00000000000E+00  0.00000000000E+00  0.45593999997E+02  0.45594000000E+02  0.51100000000E-03 0. -1.
         11   -1    0    0    0    0 -0.00000000000E+00 -0.00000000000E+00 -0.45593999997E+02  0.45594000000E+02  0.51100000000E-03 0.  1.
         23    2    1    2    0    0 -0.44408920985E-15 -0.88817841970E-15 -0.71054273576E-14  0.91188000000E+02  0.91188000000E+02 0.  0.
    9900012    2    3    3    0    0 -0.22700747593E+01 -0.17414855064E+01  0.40558361814E+02  0.50528846981E+02  0.29999960884E+02 0.  0.
        -12    1    3    3    0    0  0.22700747593E+01  0.17414855064E+01 -0.40558361814E+02  0.40659153019E+02  0.00000000000E+00 0.  1.
         11    1    4    4    0    0 -0.35958644966E+01 -0.83165004791E+01  0.32983046265E+02  0.34204908462E+02  0.51100000000E-03 0. -1.
        -11    1    4    4    0    0 -0.21313005687E+00 -0.20400190496E+01 -0.23314967482E+01  0.31053147171E+01  0.51100000000E-03 0.  1.
         12    1    4    4    0    0  0.15389197942E+01  0.86150340223E+01  0.99068122971E+01  0.13218623802E+02  0.00000000000E+00 0. -1.
</event>
<event>
 8    1  0.4964753E-012  0.9118800E+02  0.7816164E-02  0.1184000E+00
        -11   -1    0    0    0    0  0.00000000000E+00  0.00000000000E+00  0.45593999997E+02  0.45594000000E+02  0.51100000000E-03 0. -1.
         11   -1    0    0    0    0 -0.00000000000E+00 -0.00000000000E+00 -0.45593999997E+02  0.45594000000E+02  0.51100000000E-03 0.  1.
         23    2    1    2    0    0 -0.71054273576E-14  0.44408920985E-15  0.35527136788E-14  0.91188000000E+02  0.91188000000E+02 0.  0.
    9900012    2    3    3    0    0  0.34200534586E+02  0.33722551846E+01 -0.21728249555E+02  0.50528862039E+02  0.30000006653E+02 0.  0.
         12    1    3    3    0    0 -0.34200534586E+02 -0.33722551846E+01  0.21728249555E+02  0.40659137961E+02  0.00000000000E+00 0. -1.
         11    1    4    4    0    0 -0.10919796642E+01  0.23360883456E+01 -0.41955929778E+00  0.26126152819E+01  0.51100000000E-03 0. -1.
        -11    1    4    4    0    0  0.69231076577E+01 -0.91033154833E+01 -0.11534856843E+02  0.16243543181E+02  0.51100000000E-03 0.  1.
        -12    1    4    4    0    0  0.28369406593E+02  0.10139482322E+02 -0.97738334148E+01  0.31672703576E+02  0.00000000000E+00 0.  1.
</event>
<event>
 8    1  0.4964753E-012  0.9118800E+02  0.7816164E-02  0.1184000E+00
        -11   -1    0    0    0    0  0.00000000000E+00  0.00000000000E+00  0.45593999997E+02  0.45594000000E+02  0.51100000000E-03 0. -1.
         11   -1    0    0    0    0 -0.00000000000E+00 -0.00000000000E+00 -0.45593999997E+02  0.45594000000E+02  0.51100000000E-03 0.  1.
         23    2    1    2    0    0  0.66613381478E-15 -0.71054273576E-14 -0.71054273576E-14  0.91188000000E+02  0.91188000000E+02 0.  0.
    9900012    2    3    3    0    0  0.11214184118E+01  0.26397376649E+02  0.30904485070E+02  0.50528852559E+02  0.29999977837E+02 0.  0.
        -12    1    3    3    0    0 -0.11214184118E+01 -0.26397376649E+02 -0.30904485070E+02  0.40659147441E+02  0.00000000000E+00 0.  1.
         11    1    4    4    0    0 -0.41623645154E+01  0.15537019076E+01  0.15008902722E+02  0.15652681213E+02  0.51100000000E-03 0. -1.
        -11    1    4    4    0    0 -0.13464665930E+01  0.16449462220E+02  0.17505192908E+02  0.24058876919E+02  0.51100000000E-03 0.  1.
        -12    1    4    4    0    0  0.66302495202E+01  0.83942125215E+01 -0.16096105594E+01  0.10817294427E+02  0.00000000000E+00 0.  1.
</event>
<event>
 8    1  0.4964753E-012  0.9118800E+02  0.7816164E-02  0.1184000E+00
        -11   -1    0    0    0    0  0.00000000000E+00  0.00000000000E+00  0.45593999997E+02  0.45594000000E+02  0.51100000000E-03 0. -1.
         11   -1    0    0    0    0 -0.00000000000E+00 -0.00000000000E+00 -0.45593999997E+02  0.45594000000E+02  0.51100000000E-03 0.  1.
         23    2    1    2    0    0  0.00000000000E+00  0.00000000000E+00 -0.44408920985E-15  0.91188000000E+02  0.91188000000E+02 0.  0.
    9900012    2    3    3    0    0 -0.34969318824E+02 -0.20505190149E+02  0.31384199426E+01  0.50528858817E+02  0.29999996859E+02 0.  0.
        -12    1    3    3    0    0  0.34969318824E+02  0.20505190149E+02 -0.31384199426E+01  0.40659141183E+02  0.00000000000E+00 0.  1.
         11    1    4    4    0    0 -0.70787799116E+01 -0.89508860249E+01  0.80018327023E+01  0.13937604261E+02  0.51100000000E-03 0. -1.
        -11    1    4    4    0    0 -0.10948126217E+02 -0.10432344477E+02  0.61796252956E+01  0.16336555574E+02  0.51100000000E-03 0.  1.
        -12    1    4    4    0    0 -0.16942412695E+02 -0.11219596466E+01 -0.11043038055E+02  0.20254698982E+02  0.00000000000E+00 0.  1.
</event>
<event>
 8    1  0.4964753E-012  0.9118800E+02  0.7816164E-02  0.1184000E+00
        -11   -1    0    0    0    0  0.00000000000E+00  0.00000000000E+00  0.45593999997E+02  0.45594000000E+02  0.51100000000E-03 0.  1.
         11   -1    0    0    0    0 -0.00000000000E+00 -0.00000000000E+00 -0.45593999997E+02  0.45594000000E+02  0.51100000000E-03 0. -1.
         23    2    1    2    0    0  0.22204460493E-15  0.71054273576E-14 -0.35527136788E-14  0.91188000000E+02  0.91188000000E+02 0.  0.
    9900012    2    3    3    0    0 -0.74663708457E+00 -0.37023536595E+02 -0.16788889302E+02  0.50528849333E+02  0.29999968034E+02 0.  0.
         12    1    3    3    0    0  0.74663708457E+00  0.37023536595E+02  0.16788889302E+02  0.40659150667E+02  0.00000000000E+00 0. -1.
         11    1    4    4    0    0 -0.37408871499E+01 -0.26303803728E+02 -0.21487944580E+02  0.34170397858E+02  0.51100000000E-03 0. -1.
        -11    1    4    4    0    0  0.69821257523E+00 -0.37114516978E+01 -0.36268158840E+01  0.52360450937E+01  0.51100000000E-03 0.  1.
        -12    1    4    4    0    0  0.22960374901E+01 -0.70082811697E+01  0.83258711627E+01  0.11122406382E+02  0.00000000000E+00 0.  1.
</event>
<event>
 8    1  0.4964753E-012  0.9118800E+02  0.7816164E-02  0.1184000E+00
        -11   -1    0    0    0    0  0.00000000000E+00  0.00000000000E+00  0.45593999997E+02  0.45594000000E+02  0.51100000000E-03 0. -1.
         11   -1    0    0    0    0 -0.00000000000E+00 -0.00000000000E+00 -0.45593999997E+02  0.45594000000E+02  0.51100000000E-03 0.  1.
         23    2    1    2    0    0 -0.35527136788E-14  0.17763568394E-14  0.35527136788E-14  0.91188000000E+02  0.91188000000E+02 0.  0.
    9900012    2    3    3    0    0 -0.25745848315E+02 -0.12331818095E+02 -0.28952365021E+02  0.50528906512E+02  0.30000141833E+02 0.  0.
         12    1    3    3    0    0  0.25745848315E+02  0.12331818095E+02  0.28952365021E+02  0.40659093488E+02  0.00000000000E+00 0. -1.
         11    1    4    4    0    0 -0.22029727143E+02 -0.70973610341E+01 -0.13152095642E+02  0.26620650475E+02  0.51100000000E-03 0. -1.
        -11    1    4    4    0    0 -0.80446475643E+01 -0.17809871769E+01 -0.16385062838E+02  0.18340080540E+02  0.51100000000E-03 0.  1.
        -12    1    4    4    0    0  0.43285263932E+01 -0.34534698836E+01  0.58479345855E+00  0.55681754968E+01  0.00000000000E+00 0.  1.
</event>
<event>
 8    1  0.4964753E-012  0.9118800E+02  0.7816164E-02  0.1184000E+00
        -11   -1    0    0    0    0  0.00000000000E+00  0.00000000000E+00  0.45593999997E+02  0.45594000000E+02  0.51100000000E-03 0. -1.
         11   -1    0    0    0    0 -0.00000000000E+00 -0.00000000000E+00 -0.45593999997E+02  0.45594000000E+02  0.51100000000E-03 0.  1.
         23    2    1    2    0    0 -0.71054273576E-14  0.00000000000E+00  0.00000000000E+00  0.91188000000E+02  0.91188000000E+02 0.  0.
    9900012    2    3    3    0    0 -0.36024413578E+02  0.13217121476E+02 -0.13443112576E+02  0.50528831914E+02  0.29999915085E+02 0.  0.
         12    1    3    3    0    0  0.36024413578E+02 -0.13217121476E+02  0.13443112576E+02  0.40659168086E+02  0.00000000000E+00 0. -1.
         11    1    4    4    0    0 -0.51625700901E+01  0.14031098526E+02 -0.80531737307E+01  0.16981680223E+02  0.51100000000E-03 0. -1.
        -11    1    4    4    0    0 -0.12252084535E+02  0.42575229640E+01 -0.59054954251E+01  0.14251840362E+02  0.51100000000E-03 0.  1.
        -12    1    4    4    0    0 -0.18609758953E+02 -0.50715000145E+01  0.51555657983E+00  0.19295311329E+02  0.00000000000E+00 0.  1.
</event>
<event>
 8    1  0.4964753E-012  0.9118800E+02  0.7816164E-02  0.1184000E+00
        -11   -1    0    0    0    0  0.00000000000E+00  0.00000000000E+00  0.45593999997E+02  0.45594000000E+02  0.51100000000E-03 0. -1.
         11   -1    0    0    0    0 -0.00000000000E+00 -0.00000000000E+00 -0.45593999997E+02  0.45594000000E+02  0.51100000000E-03 0.  1.
         23    2    1    2    0    0 -0.17763568394E-14 -0.35527136788E-14  0.00000000000E+00  0.91188000000E+02  0.91188000000E+02 0.  0.
    9900012    2    3    3    0    0  0.83520876977E+01 -0.17834850277E+02 -0.35571443060E+02  0.50528845869E+02  0.29999957503E+02 0.  0.
         12    1    3    3    0    0 -0.83520876977E+01  0.17834850277E+02  0.35571443060E+02  0.40659154131E+02  0.00000000000E+00 0. -1.
         11    1    4    4    0    0 -0.16994925578E+01  0.23463195839E+01  0.17287623902E+01  0.33737383133E+01  0.51100000000E-03 0. -1.
        -11    1    4    4    0    0  0.58025129261E+01  0.17631607589E+01 -0.11638784597E+02  0.13123993267E+02  0.51100000000E-03 0.  1.
        -12    1    4    4    0    0  0.42490673294E+01 -0.21944330620E+02 -0.25661420853E+02  0.34031114288E+02  0.00000000000E+00 0.  1.
</event>
<event>
 8    1  0.4964753E-012  0.9118800E+02  0.7816164E-02  0.1184000E+00
        -11   -1    0    0    0    0  0.00000000000E+00  0.00000000000E+00  0.45593999997E+02  0.45594000000E+02  0.51100000000E-03 0. -1.
         11   -1    0    0    0    0 -0.00000000000E+00 -0.00000000000E+00 -0.45593999997E+02  0.45594000000E+02  0.51100000000E-03 0.  1.
         23    2    1    2    0    0  0.17763568394E-14  0.17763568394E-14  0.71054273576E-14  0.91188000000E+02  0.91188000000E+02 0.  0.
    9900012    2    3    3    0    0 -0.12948784630E+02 -0.13077015128E+02 -0.36255842270E+02  0.50528862691E+02  0.30000008634E+02 0.  0.
         12    1    3    3    0    0  0.12948784630E+02  0.13077015128E+02  0.36255842270E+02  0.40659137309E+02  0.00000000000E+00 0. -1.
         11    1    4    4    0    0 -0.75912712680E+01 -0.98774463045E-01 -0.28645273866E+01  0.81143498365E+01  0.51100000000E-03 0. -1.
        -11    1    4    4    0    0 -0.11882386446E+02 -0.14593648975E+02 -0.20192299075E+02  0.27602439027E+02  0.51100000000E-03 0.  1.
         12    1    4    4    0    0  0.65248730835E+01  0.16154083091E+01 -0.13199015808E+02  0.14812073828E+02  0.00000000000E+00 0. -1.
</event>
<event>
 8    1  0.4964753E-012  0.9118800E+02  0.7816164E-02  0.1184000E+00
        -11   -1    0    0    0    0  0.00000000000E+00  0.00000000000E+00  0.45593999997E+02  0.45594000000E+02  0.51100000000E-03 0. -1.
         11   -1    0    0    0    0 -0.00000000000E+00 -0.00000000000E+00 -0.45593999997E+02  0.45594000000E+02  0.51100000000E-03 0.  1.
         23    2    1    2    0    0  0.00000000000E+00  0.88817841970E-15  0.00000000000E+00  0.91188000000E+02  0.91188000000E+02 0.  0.
    9900012    2    3    3    0    0  0.34525798811E+02  0.65376189462E+01  0.20454695357E+02  0.50528858258E+02  0.29999995162E+02 0.  0.
        -12    1    3    3    0    0 -0.34525798811E+02 -0.65376189462E+01 -0.20454695357E+02  0.40659141742E+02  0.00000000000E+00 0.  1.
         11    1    4    4    0    0  0.23444996406E+02  0.17160239298E+01  0.16987834568E+02  0.29003432869E+02  0.51100000000E-03 0. -1.
        -11    1    4    4    0    0  0.19727906283E+01  0.83312113438E+01  0.70876763858E+01  0.11114681378E+02  0.51100000000E-03 0.  1.
        -12    1    4    4    0    0  0.91080117768E+01 -0.35096163274E+01 -0.36208155966E+01  0.10410744012E+02  0.00000000000E+00 0.  1.
</event>
<event>
 8    1  0.4964753E-012  0.9118800E+02  0.7816164E-02  0.1184000E+00
        -11   -1    0    0    0    0  0.00000000000E+00  0.00000000000E+00  0.45593999997E+02  0.45594000000E+02  0.51100000000E-03 0. -1.
         11   -1    0    0    0    0 -0.00000000000E+00 -0.00000000000E+00 -0.45593999997E+02  0.45594000000E+02  0.51100000000E-03 0.  1.
         23    2    1    2    0    0 -0.88817841970E-15  0.00000000000E+00  0.71054273576E-14  0.91188000000E+02  0.91188000000E+02 0.  0.
    9900012    2    3    3    0    0  0.42369267098E+01  0.15181549479E+02  0.37479798359E+02  0.50528852473E+02  0.29999977578E+02 0.  0.
        -12    1    3    3    0    0 -0.42369267098E+01 -0.15181549479E+02 -0.37479798359E+02  0.40659147527E+02  0.00000000000E+00 0.  1.
         11    1    4    4    0    0 -0.27273390556E+01  0.13736003437E+02  0.11445719783E+02  0.18086477556E+02  0.51100000000E-03 0. -1.
        -11    1    4    4    0    0  0.10102423863E+02  0.32151917695E+01  0.26745482883E+02  0.28770076137E+02  0.51100000000E-03 0.  1.
         12    1    4    4    0    0 -0.31381580980E+01 -0.17696457275E+01 -0.71140430673E+00  0.36722987810E+01  0.00000000000E+00 0. -1.
</event>
<event>
 8    1  0.4964753E-012  0.9118800E+02  0.7816164E-02  0.1184000E+00
        -11   -1    0    0    0    0  0.00000000000E+00  0.00000000000E+00  0.45593999997E+02  0.45594000000E+02  0.51100000000E-03 0. -1.
         11   -1    0    0    0    0 -0.00000000000E+00 -0.00000000000E+00 -0.45593999997E+02  0.45594000000E+02  0.51100000000E-03 0.  1.
         23    2    1    2    0    0  0.00000000000E+00  0.00000000000E+00  0.35527136788E-14  0.91188000000E+02  0.91188000000E+02 0.  0.
    9900012    2    3    3    0    0 -0.15621030361E+02  0.23078363878E+02 -0.29606395430E+02  0.50528854421E+02  0.29999983499E+02 0.  0.
         12    1    3    3    0    0  0.15621030361E+02 -0.23078363878E+02  0.29606395430E+02  0.40659145579E+02  0.00000000000E+00 0. -1.
         11    1    4    4    0    0 -0.16957081394E+01 -0.49382835553E+00 -0.43427753284E+00  0.18187605052E+01  0.51100000000E-03 0. -1.
        -11    1    4    4    0    0 -0.87822095659E+01  0.21531043452E+02 -0.34117931481E+02  0.41288573308E+02  0.51100000000E-03 0.  1.
        -12    1    4    4    0    0 -0.51431126556E+01  0.20411487817E+01  0.49458135838E+01  0.74215206086E+01  0.00000000000E+00 0.  1.
</event>
<event>
 8    1  0.4964753E-012  0.9118800E+02  0.7816164E-02  0.1184000E+00
        -11   -1    0    0    0    0  0.00000000000E+00  0.00000000000E+00  0.45593999997E+02  0.45594000000E+02  0.51100000000E-03 0. -1.
         11   -1    0    0    0    0 -0.00000000000E+00 -0.00000000000E+00 -0.45593999997E+02  0.45594000000E+02  0.51100000000E-03 0.  1.
         23    2    1    2    0    0  0.00000000000E+00  0.17763568394E-14  0.44408920985E-15  0.91188000000E+02  0.91188000000E+02 0.  0.
    9900012    2    3    3    0    0  0.38210485316E+02 -0.13677474489E+02 -0.24599799543E+01  0.50528855913E+02  0.29999988034E+02 0.  0.
         12    1    3    3    0    0 -0.38210485316E+02  0.13677474489E+02  0.24599799543E+01  0.40659144087E+02  0.00000000000E+00 0. -1.
         11    1    4    4    0    0  0.11003845846E+02  0.23209988448E+01  0.42349599611E+01  0.12016927443E+02  0.51100000000E-03 0. -1.
        -11    1    4    4    0    0  0.18900377593E+02  0.10711284902E+00 -0.75917908555E+01  0.20368383219E+02  0.51100000000E-03 0.  1.
        -12    1    4    4    0    0  0.83062618776E+01 -0.16105586183E+02  0.89685094010E+00  0.18143545251E+02  0.00000000000E+00 0.  1.
</event>
<event>
 8    1  0.4964753E-012  0.9118800E+02  0.7816164E-02  0.1184000E+00
        -11   -1    0    0    0    0  0.00000000000E+00  0.00000000000E+00  0.45593999997E+02  0.45594000000E+02  0.51100000000E-03 0.  1.
         11   -1    0    0    0    0 -0.00000000000E+00 -0.00000000000E+00 -0.45593999997E+02  0.45594000000E+02  0.51100000000E-03 0. -1.
         23    2    1    2    0    0  0.88817841970E-15  0.00000000000E+00 -0.17763568394E-14  0.91188000000E+02  0.91188000000E+02 0.  0.
    9900012    2    3    3    0    0  0.58710913171E+01  0.40049986099E+02  0.38334061899E+01  0.50528854623E+02  0.29999984112E+02 0.  0.
         12    1    3    3    0    0 -0.58710913171E+01 -0.40049986099E+02 -0.38334061899E+01  0.40659145377E+02  0.00000000000E+00 0. -1.
         11    1    4    4    0    0  0.40423796962E+01  0.20160485430E+02  0.83699687027E+01  0.22200053665E+02  0.51100000000E-03 0. -1.
        -11    1    4    4    0    0  0.47880697757E+01  0.23101508835E+02 -0.36708648511E+01  0.23876360101E+02  0.51100000000E-03 0.  1.
         12    1    4    4    0    0 -0.29593581549E+01 -0.32120081662E+01 -0.86569766173E+00  0.44524408575E+01  0.00000000000E+00 0. -1.
</event>
<event>
 8    1  0.4964753E-012  0.9118800E+02  0.7816164E-02  0.1184000E+00
        -11   -1    0    0    0    0  0.00000000000E+00  0.00000000000E+00  0.45593999997E+02  0.45594000000E+02  0.51100000000E-03 0.  1.
         11   -1    0    0    0    0 -0.00000000000E+00 -0.00000000000E+00 -0.45593999997E+02  0.45594000000E+02  0.51100000000E-03 0. -1.
         23    2    1    2    0    0  0.00000000000E+00  0.00000000000E+00  0.88817841970E-15  0.91188000000E+02  0.91188000000E+02 0.  0.
    9900012    2    3    3    0    0 -0.39123958960E+02 -0.83979950179E+01 -0.72079832099E+01  0.50528861950E+02  0.30000006384E+02 0.  0.
        -12    1    3    3    0    0  0.39123958960E+02  0.83979950179E+01  0.72079832099E+01  0.40659138050E+02  0.00000000000E+00 0.  1.
         11    1    4    4    0    0 -0.24434733965E+01 -0.69347835225E+01  0.65384448700E+01  0.98393620892E+01  0.51100000000E-03 0.  1.
        -11    1    4    4    0    0 -0.11303986478E+02 -0.44251129488E+01 -0.11195803005E+01  0.12190783208E+02  0.51100000000E-03 0. -1.
         12    1    4    4    0    0 -0.25376499085E+02  0.29619014534E+01 -0.12626847779E+02  0.28498716653E+02  0.00000000000E+00 0. -1.
</event>
<event>
 8    1  0.4964753E-012  0.9118800E+02  0.7816164E-02  0.1184000E+00
        -11   -1    0    0    0    0  0.00000000000E+00  0.00000000000E+00  0.45593999997E+02  0.45594000000E+02  0.51100000000E-03 0. -1.
         11   -1    0    0    0    0 -0.00000000000E+00 -0.00000000000E+00 -0.45593999997E+02  0.45594000000E+02  0.51100000000E-03 0.  1.
         23    2    1    2    0    0  0.00000000000E+00  0.00000000000E+00  0.13322676296E-14  0.91188000000E+02  0.91188000000E+02 0.  0.
    9900012    2    3    3    0    0 -0.28592832787E+02 -0.28727694267E+02 -0.32148584612E+01  0.50528858106E+02  0.29999994698E+02 0.  0.
         12    1    3    3    0    0  0.28592832787E+02  0.28727694267E+02  0.32148584612E+01  0.40659141894E+02  0.00000000000E+00 0. -1.
         11    1    4    4    0    0  0.32012599861E+01  0.65735077534E+00  0.12641273619E+01  0.35040253693E+01  0.51100000000E-03 0. -1.
        -11    1    4    4    0    0 -0.64593588535E-01 -0.54120888886E+01  0.35257929170E+01  0.64595738578E+01  0.51100000000E-03 0.  1.
        -12    1    4    4    0    0 -0.31729499184E+02 -0.23972956153E+02 -0.80047787400E+01  0.40565258879E+02  0.00000000000E+00 0.  1.
</event>
<event>
 8    1  0.4964753E-012  0.9118800E+02  0.7816164E-02  0.1184000E+00
        -11   -1    0    0    0    0  0.00000000000E+00  0.00000000000E+00  0.45593999997E+02  0.45594000000E+02  0.51100000000E-03 0. -1.
         11   -1    0    0    0    0 -0.00000000000E+00 -0.00000000000E+00 -0.45593999997E+02  0.45594000000E+02  0.51100000000E-03 0.  1.
         23    2    1    2    0    0  0.00000000000E+00  0.00000000000E+00 -0.35527136788E-14  0.91188000000E+02  0.91188000000E+02 0.  0.
    9900012    2    3    3    0    0 -0.28728135376E+02 -0.17840183783E+02 -0.22574052940E+02  0.50528858522E+02  0.29999995964E+02 0.  0.
         12    1    3    3    0    0  0.28728135376E+02  0.17840183783E+02  0.22574052940E+02  0.40659141478E+02  0.00000000000E+00 0. -1.
         11    1    4    4    0    0 -0.20298538923E+02 -0.54017387732E+00 -0.55550552602E+01  0.21051867125E+02  0.51100000000E-03 0. -1.
        -11    1    4    4    0    0 -0.73058859232E+01 -0.33032468092E+01 -0.12263093294E+02  0.14651650624E+02  0.51100000000E-03 0.  1.
        -12    1    4    4    0    0 -0.11237105293E+01 -0.13996763097E+02 -0.47559043863E+01  0.14825340774E+02  0.00000000000E+00 0.  1.
</event>
<event>
 8    1  0.4964753E-012  0.9118800E+02  0.7816164E-02  0.1184000E+00
        -11   -1    0    0    0    0  0.00000000000E+00  0.00000000000E+00  0.45593999997E+02  0.45594000000E+02  0.51100000000E-03 0. -1.
         11   -1    0    0    0    0 -0.00000000000E+00 -0.00000000000E+00 -0.45593999997E+02  0.45594000000E+02  0.51100000000E-03 0.  1.
         23    2    1    2    0    0 -0.44408920985E-15 -0.35527136788E-14  0.00000000000E+00  0.91188000000E+02  0.91188000000E+02 0.  0.
    9900012    2    3    3    0    0 -0.25933486126E+01  0.13223697178E+02 -0.38361106162E+02  0.50528854779E+02  0.29999984588E+02 0.  0.
         12    1    3    3    0    0  0.25933486126E+01 -0.13223697178E+02  0.38361106162E+02  0.40659145221E+02  0.00000000000E+00 0. -1.
         11    1    4    4    0    0  0.91590621259E+01  0.37629460461E+01 -0.21695028741E+01  0.10136810394E+02  0.51100000000E-03 0. -1.
        -11    1    4    4    0    0 -0.46246910103E+01  0.80250780260E+00 -0.20948632304E+02  0.21468045588E+02  0.51100000000E-03 0.  1.
        -12    1    4    4    0    0 -0.71277197282E+01  0.86582433289E+01 -0.15242970985E+02  0.18923998798E+02  0.00000000000E+00 0.  1.
</event>
<event>
 8    1  0.4964753E-012  0.9118800E+02  0.7816164E-02  0.1184000E+00
        -11   -1    0    0    0    0  0.00000000000E+00  0.00000000000E+00  0.45593999997E+02  0.45594000000E+02  0.51100000000E-03 0. -1.
         11   -1    0    0    0    0 -0.00000000000E+00 -0.00000000000E+00 -0.45593999997E+02  0.45594000000E+02  0.51100000000E-03 0.  1.
         23    2    1    2    0    0  0.00000000000E+00 -0.35527136788E-14 -0.88817841970E-15  0.91188000000E+02  0.91188000000E+02 0.  0.
    9900012    2    3    3    0    0 -0.31946927778E+02 -0.24872244690E+02 -0.37329060859E+01  0.50528814836E+02  0.29999863174E+02 0.  0.
         12    1    3    3    0    0  0.31946927778E+02  0.24872244690E+02  0.37329060859E+01  0.40659185164E+02  0.00000000000E+00 0. -1.
         11    1    4    4    0    0 -0.53518598330E+01 -0.12250649720E+02 -0.21968115688E+01  0.13547944625E+02  0.51100000000E-03 0. -1.
        -11    1    4    4    0    0 -0.24681698734E+02 -0.15092005417E+02 -0.78152426931E+01  0.29967197041E+02  0.51100000000E-03 0.  1.
         12    1    4    4    0    0 -0.19133692111E+01  0.24704104468E+01  0.62791481760E+01  0.70136731696E+01  0.00000000000E+00 0. -1.
</event>
<event>
 8    1  0.4964753E-012  0.9118800E+02  0.7816164E-02  0.1184000E+00
        -11   -1    0    0    0    0  0.00000000000E+00  0.00000000000E+00  0.45593999997E+02  0.45594000000E+02  0.51100000000E-03 0.  1.
         11   -1    0    0    0    0 -0.00000000000E+00 -0.00000000000E+00 -0.45593999997E+02  0.45594000000E+02  0.51100000000E-03 0. -1.
         23    2    1    2    0    0 -0.71054273576E-14  0.17763568394E-14 -0.17763568394E-14  0.91188000000E+02  0.91188000000E+02 0.  0.
    9900012    2    3    3    0    0  0.36124818961E+02 -0.13812942254E+02  0.12544521084E+02  0.50528869071E+02  0.30000028029E+02 0.  0.
        -12    1    3    3    0    0 -0.36124818961E+02  0.13812942254E+02 -0.12544521084E+02  0.40659130929E+02  0.00000000000E+00 0.  1.
         11    1    4    4    0    0  0.93179660658E+01 -0.87496030014E+01 -0.82846389870E+00  0.12808840579E+02  0.51100000000E-03 0. -1.
        -11    1    4    4    0    0  0.18940540939E+02 -0.67326754376E+01  0.19193399456E+02  0.27793157297E+02  0.51100000000E-03 0.  1.
         12    1    4    4    0    0  0.78663119563E+01  0.16693361854E+01 -0.58204144732E+01  0.99268711956E+01  0.00000000000E+00 0. -1.
</event>
<event>
 8    1  0.4964753E-012  0.9118800E+02  0.7816164E-02  0.1184000E+00
        -11   -1    0    0    0    0  0.00000000000E+00  0.00000000000E+00  0.45593999997E+02  0.45594000000E+02  0.51100000000E-03 0. -1.
         11   -1    0    0    0    0 -0.00000000000E+00 -0.00000000000E+00 -0.45593999997E+02  0.45594000000E+02  0.51100000000E-03 0.  1.
         23    2    1    2    0    0  0.00000000000E+00 -0.35527136788E-14  0.00000000000E+00  0.91188000000E+02  0.91188000000E+02 0.  0.
    9900012    2    3    3    0    0  0.34264930461E+02 -0.21244233829E+02  0.52690822674E+01  0.50528853939E+02  0.29999982032E+02 0.  0.
        -12    1    3    3    0    0 -0.34264930461E+02  0.21244233829E+02 -0.52690822674E+01  0.40659146061E+02  0.00000000000E+00 0.  1.
         11    1    4    4    0    0  0.93868601304E+01 -0.41753868328E+01  0.82614294206E+01  0.13183255085E+02  0.51100000000E-03 0. -1.
        -11    1    4    4    0    0  0.21079731321E+02 -0.36543285980E+01  0.39740591137E+01  0.21760108827E+02  0.51100000000E-03 0.  1.
        -12    1    4    4    0    0  0.37983390101E+01 -0.13414518398E+02 -0.69664062669E+01  0.15585490026E+02  0.00000000000E+00 0.  1.
</event>
<event>
 8    1  0.4964753E-012  0.9118800E+02  0.7816164E-02  0.1184000E+00
        -11   -1    0    0    0    0  0.00000000000E+00  0.00000000000E+00  0.45593999997E+02  0.45594000000E+02  0.51100000000E-03 0. -1.
         11   -1    0    0    0    0 -0.00000000000E+00 -0.00000000000E+00 -0.45593999997E+02  0.45594000000E+02  0.51100000000E-03 0.  1.
         23    2    1    2    0    0  0.22204460493E-15  0.00000000000E+00  0.00000000000E+00  0.91188000000E+02  0.91188000000E+02 0.  0.
    9900012    2    3    3    0    0 -0.15243649232E+01 -0.21679877992E+02  0.34363106891E+02  0.50528881548E+02  0.30000065952E+02 0.  0.
        -12    1    3    3    0    0  0.15243649232E+01  0.21679877992E+02 -0.34363106891E+02  0.40659118452E+02  0.00000000000E+00 0.  1.
         11    1    4    4    0    0 -0.18395222129E+01 -0.80872800254E+01  0.41484352807E+01  0.92734813162E+01  0.51100000000E-03 0. -1.
        -11    1    4    4    0    0 -0.30976636702E+01 -0.20232430155E+02  0.20131693152E+02  0.28709437814E+02  0.51100000000E-03 0.  1.
        -12    1    4    4    0    0  0.34128209599E+01  0.66398321883E+01  0.10082978458E+02  0.12545962417E+02  0.00000000000E+00 0.  1.
</event>
<event>
 8    1  0.4964753E-012  0.9118800E+02  0.7816164E-02  0.1184000E+00
        -11   -1    0    0    0    0  0.00000000000E+00  0.00000000000E+00  0.45593999997E+02  0.45594000000E+02  0.51100000000E-03 0.  1.
         11   -1    0    0    0    0 -0.00000000000E+00 -0.00000000000E+00 -0.45593999997E+02  0.45594000000E+02  0.51100000000E-03 0. -1.
         23    2    1    2    0    0  0.88817841970E-15  0.35527136788E-14  0.00000000000E+00  0.91188000000E+02  0.91188000000E+02 0.  0.
    9900012    2    3    3    0    0  0.50164406480E+01 -0.23902459888E+02 -0.32506490082E+02  0.50528878478E+02  0.30000056621E+02 0.  0.
         12    1    3    3    0    0 -0.50164406480E+01  0.23902459888E+02  0.32506490082E+02  0.40659121522E+02  0.00000000000E+00 0. -1.
         11    1    4    4    0    0 -0.25489320506E+00 -0.13350364002E+02 -0.39881195677E+01  0.13935648082E+02  0.51100000000E-03 0.  1.
        -11    1    4    4    0    0  0.68075424657E+01 -0.15328213938E+01 -0.36164268623E+00  0.69873429529E+01  0.51100000000E-03 0. -1.
         12    1    4    4    0    0 -0.15362086126E+01 -0.90192744925E+01 -0.28156727829E+02  0.29605887443E+02  0.00000000000E+00 0. -1.
</event>
<event>
 8    1  0.4964753E-012  0.9118800E+02  0.7816164E-02  0.1184000E+00
        -11   -1    0    0    0    0  0.00000000000E+00  0.00000000000E+00  0.45593999997E+02  0.45594000000E+02  0.51100000000E-03 0. -1.
         11   -1    0    0    0    0 -0.00000000000E+00 -0.00000000000E+00 -0.45593999997E+02  0.45594000000E+02  0.51100000000E-03 0.  1.
         23    2    1    2    0    0  0.00000000000E+00  0.00000000000E+00  0.00000000000E+00  0.91188000000E+02  0.91188000000E+02 0.  0.
    9900012    2    3    3    0    0  0.33135988199E+02  0.16808770776E+02  0.16511741964E+02  0.50528854515E+02  0.29999983784E+02 0.  0.
        -12    1    3    3    0    0 -0.33135988199E+02 -0.16808770776E+02 -0.16511741964E+02  0.40659145485E+02  0.00000000000E+00 0.  1.
         11    1    4    4    0    0 -0.11018507938E+01 -0.27671254817E+01  0.17015656372E+01  0.34302163900E+01  0.51100000000E-03 0. -1.
        -11    1    4    4    0    0  0.10511018201E+02  0.87170804878E+01 -0.47819807169E+01  0.14468460032E+02  0.51100000000E-03 0.  1.
         12    1    4    4    0    0  0.23726820791E+02  0.10858815769E+02  0.19592157044E+02  0.32630178093E+02  0.00000000000E+00 0. -1.
</event>
<event>
 8    1  0.4964753E-012  0.9118800E+02  0.7816164E-02  0.1184000E+00
        -11   -1    0    0    0    0  0.00000000000E+00  0.00000000000E+00  0.45593999997E+02  0.45594000000E+02  0.51100000000E-03 0. -1.
         11   -1    0    0    0    0 -0.00000000000E+00 -0.00000000000E+00 -0.45593999997E+02  0.45594000000E+02  0.51100000000E-03 0.  1.
         23    2    1    2    0    0 -0.17763568394E-14  0.88817841970E-15  0.00000000000E+00  0.91188000000E+02  0.91188000000E+02 0.  0.
    9900012    2    3    3    0    0  0.99604016717E+01  0.76834009123E+01  0.38664194294E+02  0.50528878373E+02  0.30000056303E+02 0.  0.
        -12    1    3    3    0    0 -0.99604016717E+01 -0.76834009123E+01 -0.38664194294E+02  0.40659121627E+02  0.00000000000E+00 0.  1.
         11    1    4    4    0    0  0.98055359390E+01  0.10491892279E+02  0.10063868780E+02  0.17535957166E+02  0.51100000000E-03 0. -1.
        -11    1    4    4    0    0  0.75309125741E+01 -0.27632703495E+01  0.90293072620E+01  0.12078025381E+02  0.51100000000E-03 0.  1.
        -12    1    4    4    0    0 -0.73760468414E+01 -0.45221017394E-01  0.19571018253E+02  0.20914895826E+02  0.00000000000E+00 0.  1.
</event>
<event>
 8    1  0.4964753E-012  0.9118800E+02  0.7816164E-02  0.1184000E+00
        -11   -1    0    0    0    0  0.00000000000E+00  0.00000000000E+00  0.45593999997E+02  0.45594000000E+02  0.51100000000E-03 0. -1.
         11   -1    0    0    0    0 -0.00000000000E+00 -0.00000000000E+00 -0.45593999997E+02  0.45594000000E+02  0.51100000000E-03 0.  1.
         23    2    1    2    0    0 -0.17763568394E-14  0.17763568394E-14  0.00000000000E+00  0.91188000000E+02  0.91188000000E+02 0.  0.
    9900012    2    3    3    0    0  0.15523554630E+02 -0.13984789714E+02  0.34879940233E+02  0.50528864220E+02  0.30000013283E+02 0.  0.
        -12    1    3    3    0    0 -0.15523554630E+02  0.13984789714E+02 -0.34879940233E+02  0.40659135780E+02  0.00000000000E+00 0.  1.
         11    1    4    4    0    0  0.11716014925E+02 -0.10494058036E+02  0.88599724010E+01  0.18052406238E+02  0.51100000000E-03 0. -1.
        -11    1    4    4    0    0  0.10785824292E+02  0.14487290463E+01  0.14352220037E+02  0.18011636288E+02  0.51100000000E-03 0.  1.
         12    1    4    4    0    0 -0.69782845867E+01 -0.49394607242E+01  0.11667747795E+02  0.14464821694E+02  0.00000000000E+00 0. -1.
</event>
<event>
 8    1  0.4964753E-012  0.9118800E+02  0.7816164E-02  0.1184000E+00
        -11   -1    0    0    0    0  0.00000000000E+00  0.00000000000E+00  0.45593999997E+02  0.45594000000E+02  0.51100000000E-03 0. -1.
         11   -1    0    0    0    0 -0.00000000000E+00 -0.00000000000E+00 -0.45593999997E+02  0.45594000000E+02  0.51100000000E-03 0.  1.
         23    2    1    2    0    0  0.00000000000E+00  0.00000000000E+00  0.00000000000E+00  0.91188000000E+02  0.91188000000E+02 0.  0.
    9900012    2    3    3    0    0  0.14586040187E+02 -0.12023747737E+02 -0.35997813916E+02  0.50528859764E+02  0.29999999740E+02 0.  0.
         12    1    3    3    0    0 -0.14586040187E+02  0.12023747737E+02  0.35997813916E+02  0.40659140236E+02  0.00000000000E+00 0. -1.
         11    1    4    4    0    0 -0.29928623303E+01 -0.53252342024E+01 -0.78721116725E+01  0.99642102890E+01  0.51100000000E-03 0. -1.
        -11    1    4    4    0    0  0.37789033707E+01  0.71321382803E+01 -0.14979831602E+02  0.17015959045E+02  0.51100000000E-03 0.  1.
        -12    1    4    4    0    0  0.13799999147E+02 -0.13830651815E+02 -0.13145870642E+02  0.23548690431E+02  0.00000000000E+00 0.  1.
</event>
<event>
 8    1  0.4964753E-012  0.9118800E+02  0.7816164E-02  0.1184000E+00
        -11   -1    0    0    0    0  0.00000000000E+00  0.00000000000E+00  0.45593999997E+02  0.45594000000E+02  0.51100000000E-03 0. -1.
         11   -1    0    0    0    0 -0.00000000000E+00 -0.00000000000E+00 -0.45593999997E+02  0.45594000000E+02  0.51100000000E-03 0.  1.
         23    2    1    2    0    0  0.00000000000E+00  0.14210854715E-13  0.17763568394E-14  0.91188000000E+02  0.91188000000E+02 0.  0.
    9900012    2    3    3    0    0 -0.53178545916E+01 -0.39153234138E+02 -0.95869908750E+01  0.50528859393E+02  0.29999998609E+02 0.  0.
         12    1    3    3    0    0  0.53178545916E+01  0.39153234138E+02  0.95869908750E+01  0.40659140607E+02  0.00000000000E+00 0. -1.
         11    1    4    4    0    0 -0.44707780750E+01 -0.31585212896E+01  0.33392940689E+01  0.64120978215E+01  0.51100000000E-03 0. -1.
        -11    1    4    4    0    0  0.45716117737E+01 -0.35927701858E+02 -0.13534346442E+02  0.38663651262E+02  0.51100000000E-03 0.  1.
         12    1    4    4    0    0 -0.54186882903E+01 -0.67010990108E-01  0.60806149836E+00  0.54531103093E+01  0.00000000000E+00 0. -1.
</event>
<event>
 8    1  0.4964753E-012  0.9118800E+02  0.7816164E-02  0.1184000E+00
        -11   -1    0    0    0    0  0.00000000000E+00  0.00000000000E+00  0.45593999997E+02  0.45594000000E+02  0.51100000000E-03 0. -1.
         11   -1    0    0    0    0 -0.00000000000E+00 -0.00000000000E+00 -0.45593999997E+02  0.45594000000E+02  0.51100000000E-03 0.  1.
         23    2    1    2    0    0  0.00000000000E+00  0.00000000000E+00  0.00000000000E+00  0.91188000000E+02  0.91188000000E+02 0.  0.
    9900012    2    3    3    0    0  0.50412573376E+01 -0.86530698175E+01 -0.39406545379E+02  0.50528859435E+02  0.29999998739E+02 0.  0.
         12    1    3    3    0    0 -0.50412573376E+01  0.86530698175E+01  0.39406545379E+02  0.40659140565E+02  0.00000000000E+00 0. -1.
         11    1    4    4    0    0  0.51525729134E+01  0.54210901105E+01 -0.43740909582E+01  0.86642886370E+01  0.51100000000E-03 0. -1.
        -11    1    4    4    0    0  0.12256572519E+01 -0.20344256882E+01 -0.27494731999E+02  0.27597126871E+02  0.51100000000E-03 0.  1.
        -12    1    4    4    0    0 -0.13369728277E+01 -0.12039734240E+02 -0.75377224213E+01  0.14267443927E+02  0.00000000000E+00 0.  1.
</event>
<event>
 8    1  0.4964753E-012  0.9118800E+02  0.7816164E-02  0.1184000E+00
        -11   -1    0    0    0    0  0.00000000000E+00  0.00000000000E+00  0.45593999997E+02  0.45594000000E+02  0.51100000000E-03 0. -1.
         11   -1    0    0    0    0 -0.00000000000E+00 -0.00000000000E+00 -0.45593999997E+02  0.45594000000E+02  0.51100000000E-03 0.  1.
         23    2    1    2    0    0  0.35527136788E-14  0.35527136788E-14 -0.35527136788E-14  0.91188000000E+02  0.91188000000E+02 0.  0.
    9900012    2    3    3    0    0 -0.17106748086E+02 -0.18945920435E+02  0.31647701888E+02  0.50528858764E+02  0.29999996700E+02 0.  0.
        -12    1    3    3    0    0  0.17106748086E+02  0.18945920435E+02 -0.31647701888E+02  0.40659141236E+02  0.00000000000E+00 0.  1.
         11    1    4    4    0    0 -0.52994873647E+01 -0.36786581227E+01  0.81634417377E+01  0.10404752432E+02  0.51100000000E-03 0. -1.
        -11    1    4    4    0    0 -0.20011866639E+02 -0.79273473819E+01  0.15591425852E+02  0.26578378492E+02  0.51100000000E-03 0.  1.
        -12    1    4    4    0    0  0.82046059177E+01 -0.73399149307E+01  0.78928342981E+01  0.13545727840E+02  0.00000000000E+00 0.  1.
</event>
<event>
 8    1  0.4964753E-012  0.9118800E+02  0.7816164E-02  0.1184000E+00
        -11   -1    0    0    0    0  0.00000000000E+00  0.00000000000E+00  0.45593999997E+02  0.45594000000E+02  0.51100000000E-03 0. -1.
         11   -1    0    0    0    0 -0.00000000000E+00 -0.00000000000E+00 -0.45593999997E+02  0.45594000000E+02  0.51100000000E-03 0.  1.
         23    2    1    2    0    0  0.00000000000E+00  0.00000000000E+00 -0.35527136788E-14  0.91188000000E+02  0.91188000000E+02 0.  0.
    9900012    2    3    3    0    0  0.25694120990E+01  0.38088853821E+02 -0.13992970521E+02  0.50528857265E+02  0.29999992143E+02 0.  0.
         12    1    3    3    0    0 -0.25694120990E+01 -0.38088853821E+02  0.13992970521E+02  0.40659142735E+02  0.00000000000E+00 0. -1.
         11    1    4    4    0    0 -0.22104991813E+01 -0.70276535521E+00 -0.21164537254E+01  0.31399940139E+01  0.51100000000E-03 0. -1.
        -11    1    4    4    0    0  0.60867523604E+01 -0.67867374408E+00  0.85462640998E-01  0.61250678749E+01  0.51100000000E-03 0.  1.
        -12    1    4    4    0    0 -0.13068410802E+01  0.39470292920E+02 -0.11961979437E+02  0.41263795376E+02  0.00000000000E+00 0.  1.
</event>
<event>
 8    1  0.4964753E-012  0.9118800E+02  0.7816164E-02  0.1184000E+00
        -11   -1    0    0    0    0  0.00000000000E+00  0.00000000000E+00  0.45593999997E+02  0.45594000000E+02  0.51100000000E-03 0. -1.
         11   -1    0    0    0    0 -0.00000000000E+00 -0.00000000000E+00 -0.45593999997E+02  0.45594000000E+02  0.51100000000E-03 0.  1.
         23    2    1    2    0    0  0.00000000000E+00  0.00000000000E+00  0.00000000000E+00  0.91188000000E+02  0.91188000000E+02 0.  0.
    9900012    2    3    3    0    0  0.23057100451E+02  0.74557073211E+01  0.32648857903E+02  0.50528863570E+02  0.30000011307E+02 0.  0.
        -12    1    3    3    0    0 -0.23057100451E+02 -0.74557073211E+01 -0.32648857903E+02  0.40659136430E+02  0.00000000000E+00 0.  1.
         11    1    4    4    0    0 -0.22985962943E+01  0.90698697448E+00 -0.53795961944E+00  0.25289466403E+01  0.51100000000E-03 0. -1.
        -11    1    4    4    0    0 -0.39477543971E+01 -0.14376939433E+01  0.53348507965E+01  0.67906083628E+01  0.51100000000E-03 0.  1.
         12    1    4    4    0    0  0.29303451142E+02  0.79864142899E+01  0.27851966726E+02  0.41209308567E+02  0.00000000000E+00 0. -1.
</event>
<event>
 8    1  0.6795531E-012  0.9118800E+02  0.7816164E-02  0.1184000E+00
        -11   -1    0    0    0    0  0.00000000000E+00  0.00000000000E+00  0.45593999997E+02  0.45594000000E+02  0.51100000000E-03 0. -1.
         11   -1    0    0    0    0 -0.00000000000E+00 -0.00000000000E+00 -0.45593999997E+02  0.45594000000E+02  0.51100000000E-03 0.  1.
         23    2    1    2    0    0  0.35527136788E-14 -0.84654505628E-15  0.00000000000E+00  0.91188000000E+02  0.91188000000E+02 0.  0.
    9900012    2    3    3    0    0  0.26276613287E+02 -0.12089178699E+00 -0.31027246094E+02  0.50528867928E+02  0.30000024555E+02 0.  0.
         12    1    3    3    0    0 -0.26276613287E+02  0.12089178699E+00  0.31027246094E+02  0.40659132072E+02  0.00000000000E+00 0. -1.
         11    1    4    4    0    0  0.69039858549E+01  0.48831206174E+01  0.78673162340E+00  0.84928696303E+01  0.51100000000E-03 0. -1.
        -11    1    4    4    0    0  0.15444507873E+02  0.37720908461E+01 -0.26877851552E+02  0.31227878524E+02  0.51100000000E-03 0.  1.
         12    1    4    4    0    0  0.39281195596E+01 -0.87761032505E+01 -0.49361261652E+01  0.10808119774E+02  0.00000000000E+00 0. -1.
</event>
<event>
 8    1  0.4964753E-012  0.9118800E+02  0.7816164E-02  0.1184000E+00
        -11   -1    0    0    0    0  0.00000000000E+00  0.00000000000E+00  0.45593999997E+02  0.45594000000E+02  0.51100000000E-03 0. -1.
         11   -1    0    0    0    0 -0.00000000000E+00 -0.00000000000E+00 -0.45593999997E+02  0.45594000000E+02  0.51100000000E-03 0.  1.
         23    2    1    2    0    0  0.00000000000E+00  0.00000000000E+00  0.00000000000E+00  0.91188000000E+02  0.91188000000E+02 0.  0.
    9900012    2    3    3    0    0  0.80228562681E+01 -0.12660907444E+02  0.37795497862E+02  0.50528874842E+02  0.30000045568E+02 0.  0.
        -12    1    3    3    0    0 -0.80228562681E+01  0.12660907444E+02 -0.37795497862E+02  0.40659125158E+02  0.00000000000E+00 0.  1.
         11    1    4    4    0    0  0.25378612139E+01 -0.78668149895E+01  0.25735167754E+02  0.27030101317E+02  0.51100000000E-03 0. -1.
        -11    1    4    4    0    0 -0.34404693723E+01 -0.38655074599E+01  0.13456451997E+02  0.14417179961E+02  0.51100000000E-03 0.  1.
        -12    1    4    4    0    0  0.89254644264E+01 -0.92858499442E+00 -0.13961218890E+01  0.90815935632E+01  0.00000000000E+00 0.  1.
</event>
<event>
 8    1  0.4964753E-012  0.9118800E+02  0.7816164E-02  0.1184000E+00
        -11   -1    0    0    0    0  0.00000000000E+00  0.00000000000E+00  0.45593999997E+02  0.45594000000E+02  0.51100000000E-03 0.  1.
         11   -1    0    0    0    0 -0.00000000000E+00 -0.00000000000E+00 -0.45593999997E+02  0.45594000000E+02  0.51100000000E-03 0. -1.
         23    2    1    2    0    0 -0.88817841970E-15  0.00000000000E+00  0.17763568394E-14  0.91188000000E+02  0.91188000000E+02 0.  0.
    9900012    2    3    3    0    0  0.48528861034E+01  0.38246100313E+02 -0.12917076151E+02  0.50528861433E+02  0.30000004812E+02 0.  0.
         12    1    3    3    0    0 -0.48528861034E+01 -0.38246100313E+02  0.12917076151E+02  0.40659138567E+02  0.00000000000E+00 0. -1.
         11    1    4    4    0    0  0.46112830436E+01  0.26572675784E+02 -0.83558517938E+01  0.28234576128E+02  0.51100000000E-03 0. -1.
        -11    1    4    4    0    0  0.27010307015E+01  0.98194433715E+01  0.56376853658E+01  0.11640469558E+02  0.51100000000E-03 0.  1.
         12    1    4    4    0    0 -0.24594276417E+01  0.18539811575E+01 -0.10198909723E+02  0.10653815748E+02  0.00000000000E+00 0. -1.
</event>
<event>
 8    1  0.4964753E-012  0.9118800E+02  0.7816164E-02  0.1184000E+00
        -11   -1    0    0    0    0  0.00000000000E+00  0.00000000000E+00  0.45593999997E+02  0.45594000000E+02  0.51100000000E-03 0. -1.
         11   -1    0    0    0    0 -0.00000000000E+00 -0.00000000000E+00 -0.45593999997E+02  0.45594000000E+02  0.51100000000E-03 0.  1.
         23    2    1    2    0    0  0.00000000000E+00  0.00000000000E+00  0.00000000000E+00  0.91188000000E+02  0.91188000000E+02 0.  0.
    9900012    2    3    3    0    0 -0.30767178719E+02  0.23329902756E+02 -0.12738210545E+02  0.50528860107E+02  0.30000000782E+02 0.  0.
         12    1    3    3    0    0  0.30767178719E+02 -0.23329902756E+02  0.12738210545E+02  0.40659139893E+02  0.00000000000E+00 0. -1.
         11    1    4    4    0    0 -0.21914383243E+02  0.96515506854E+01 -0.65118011502E+01  0.24815240842E+02  0.51100000000E-03 0. -1.
        -11    1    4    4    0    0 -0.70427076195E+01 -0.25131509029E+01 -0.57179504772E+01  0.94133211990E+01  0.51100000000E-03 0.  1.
        -12    1    4    4    0    0 -0.18100878563E+01  0.16191502974E+02 -0.50845891756E+00  0.16300298067E+02  0.00000000000E+00 0.  1.
</event>
<event>
 8    1  0.4964753E-012  0.9118800E+02  0.7816164E-02  0.1184000E+00
        -11   -1    0    0    0    0  0.00000000000E+00  0.00000000000E+00  0.45593999997E+02  0.45594000000E+02  0.51100000000E-03 0. -1.
         11   -1    0    0    0    0 -0.00000000000E+00 -0.00000000000E+00 -0.45593999997E+02  0.45594000000E+02  0.51100000000E-03 0.  1.
         23    2    1    2    0    0  0.35527136788E-14 -0.88817841970E-15  0.35527136788E-14  0.91188000000E+02  0.91188000000E+02 0.  0.
    9900012    2    3    3    0    0  0.31334221676E+02 -0.69825822499E+01  0.24951463427E+02  0.50528862896E+02  0.30000009258E+02 0.  0.
        -12    1    3    3    0    0 -0.31334221676E+02  0.69825822499E+01 -0.24951463427E+02  0.40659137104E+02  0.00000000000E+00 0.  1.
         11    1    4    4    0    0 -0.86729566987E+00  0.28902069533E+01  0.73422327819E+01  0.79381282742E+01  0.51100000000E-03 0. -1.
        -11    1    4    4    0    0  0.17929657018E+02 -0.10745140371E+02  0.18970178439E+02  0.28227616135E+02  0.51100000000E-03 0.  1.
        -12    1    4    4    0    0  0.14271860328E+02  0.87235116768E+00 -0.13609477943E+01  0.14363118487E+02  0.00000000000E+00 0.  1.
</event>
<event>
 8    1  0.4964753E-012  0.9118800E+02  0.7816164E-02  0.1184000E+00
        -11   -1    0    0    0    0  0.00000000000E+00  0.00000000000E+00  0.45593999997E+02  0.45594000000E+02  0.51100000000E-03 0. -1.
         11   -1    0    0    0    0 -0.00000000000E+00 -0.00000000000E+00 -0.45593999997E+02  0.45594000000E+02  0.51100000000E-03 0.  1.
         23    2    1    2    0    0  0.71054273576E-14 -0.35527136788E-14  0.35527136788E-14  0.91188000000E+02  0.91188000000E+02 0.  0.
    9900012    2    3    3    0    0 -0.24413213404E+02  0.22828083174E+02 -0.23152499379E+02  0.50528873133E+02  0.30000040374E+02 0.  0.
         12    1    3    3    0    0  0.24413213404E+02 -0.22828083174E+02  0.23152499379E+02  0.40659126867E+02  0.00000000000E+00 0. -1.
         11    1    4    4    0    0 -0.65702758128E+01  0.91202788703E+01 -0.10969511102E+02  0.15705992010E+02  0.51100000000E-03 0. -1.
        -11    1    4    4    0    0 -0.13429712446E+02 -0.14712830989E+01 -0.13322859262E+02  0.18974204319E+02  0.51100000000E-03 0.  1.
         12    1    4    4    0    0 -0.44132251446E+01  0.15179087403E+02  0.11398709857E+01  0.15848676804E+02  0.00000000000E+00 0. -1.
</event>
<event>
 8    1  0.4964753E-012  0.9118800E+02  0.7816164E-02  0.1184000E+00
        -11   -1    0    0    0    0  0.00000000000E+00  0.00000000000E+00  0.45593999997E+02  0.45594000000E+02  0.51100000000E-03 0. -1.
         11   -1    0    0    0    0 -0.00000000000E+00 -0.00000000000E+00 -0.45593999997E+02  0.45594000000E+02  0.51100000000E-03 0.  1.
         23    2    1    2    0    0  0.71054273576E-14 -0.35527136788E-14 -0.71054273576E-14  0.91188000000E+02  0.91188000000E+02 0.  0.
    9900012    2    3    3    0    0  0.18171448576E+02 -0.17631440544E+02 -0.31813451412E+02  0.50528869048E+02  0.30000027959E+02 0.  0.
         12    1    3    3    0    0 -0.18171448576E+02  0.17631440544E+02  0.31813451412E+02  0.40659130952E+02  0.00000000000E+00 0. -1.
         11    1    4    4    0    0  0.96647523722E+01  0.46423119814E+01 -0.13117789681E+02  0.16942104513E+02  0.51100000000E-03 0. -1.
        -11    1    4    4    0    0  0.11345731055E+02 -0.15444747915E+02 -0.17767146404E+02  0.26133069911E+02  0.51100000000E-03 0.  1.
        -12    1    4    4    0    0 -0.28390348512E+01 -0.68290046101E+01 -0.92851532678E+00  0.74536946251E+01  0.00000000000E+00 0.  1.
</event>
<event>
 8    1  0.4964753E-012  0.9118800E+02  0.7816164E-02  0.1184000E+00
        -11   -1    0    0    0    0  0.00000000000E+00  0.00000000000E+00  0.45593999997E+02  0.45594000000E+02  0.51100000000E-03 0. -1.
         11   -1    0    0    0    0 -0.00000000000E+00 -0.00000000000E+00 -0.45593999997E+02  0.45594000000E+02  0.51100000000E-03 0.  1.
         23    2    1    2    0    0  0.00000000000E+00  0.00000000000E+00  0.00000000000E+00  0.91188000000E+02  0.91188000000E+02 0.  0.
    9900012    2    3    3    0    0 -0.23314649262E+02  0.18657359265E+02 -0.27595213547E+02  0.50528859138E+02  0.29999997836E+02 0.  0.
         12    1    3    3    0    0  0.23314649262E+02 -0.18657359265E+02  0.27595213547E+02  0.40659140862E+02  0.00000000000E+00 0. -1.
         11    1    4    4    0    0 -0.16947585528E+01 -0.66659847648E+01 -0.55096621523E+01  0.88127144928E+01  0.51100000000E-03 0. -1.
        -11    1    4    4    0    0 -0.19128983247E+01  0.10543537592E+02 -0.76284171749E+01  0.13153635004E+02  0.51100000000E-03 0.  1.
         12    1    4    4    0    0 -0.19706992384E+02  0.14779806438E+02 -0.14457134220E+02  0.28562509641E+02  0.00000000000E+00 0. -1.
</event>
<event>
 8    1  0.4964753E-012  0.9118800E+02  0.7816164E-02  0.1184000E+00
        -11   -1    0    0    0    0  0.00000000000E+00  0.00000000000E+00  0.45593999997E+02  0.45594000000E+02  0.51100000000E-03 0. -1.
         11   -1    0    0    0    0 -0.00000000000E+00 -0.00000000000E+00 -0.45593999997E+02  0.45594000000E+02  0.51100000000E-03 0.  1.
         23    2    1    2    0    0 -0.17763568394E-14  0.00000000000E+00  0.00000000000E+00  0.91188000000E+02  0.91188000000E+02 0.  0.
    9900012    2    3    3    0    0 -0.91986649745E+01  0.33413819018E+02  0.21261865952E+02  0.50528859792E+02  0.29999999825E+02 0.  0.
        -12    1    3    3    0    0  0.91986649745E+01 -0.33413819018E+02 -0.21261865952E+02  0.40659140208E+02  0.00000000000E+00 0.  1.
         11    1    4    4    0    0  0.21376308645E+01 -0.11108960351E+01  0.32869961006E+01  0.40752790506E+01  0.51100000000E-03 0. -1.
        -11    1    4    4    0    0 -0.72678885539E+01  0.80327950523E+01 -0.42486178885E+01  0.11636097052E+02  0.51100000000E-03 0.  1.
         12    1    4    4    0    0 -0.40684072852E+01  0.26491920000E+02  0.22223487740E+02  0.34817483690E+02  0.00000000000E+00 0. -1.
</event>
<event>
 8    1  0.4964753E-012  0.9118800E+02  0.7816164E-02  0.1184000E+00
        -11   -1    0    0    0    0  0.00000000000E+00  0.00000000000E+00  0.45593999997E+02  0.45594000000E+02  0.51100000000E-03 0. -1.
         11   -1    0    0    0    0 -0.00000000000E+00 -0.00000000000E+00 -0.45593999997E+02  0.45594000000E+02  0.51100000000E-03 0.  1.
         23    2    1    2    0    0  0.00000000000E+00  0.00000000000E+00  0.00000000000E+00  0.91188000000E+02  0.91188000000E+02 0.  0.
    9900012    2    3    3    0    0  0.16874599034E+02  0.46349116527E+01  0.36700563208E+02  0.50528857875E+02  0.29999993997E+02 0.  0.
        -12    1    3    3    0    0 -0.16874599034E+02 -0.46349116527E+01 -0.36700563208E+02  0.40659142125E+02  0.00000000000E+00 0.  1.
         11    1    4    4    0    0  0.31976663697E+01 -0.60578012848E+01  0.13200424190E+02  0.14871893816E+02  0.51100000000E-03 0. -1.
        -11    1    4    4    0    0  0.90679550240E+01 -0.13638531836E+01  0.37997731402E+00  0.91778149275E+01  0.51100000000E-03 0.  1.
         12    1    4    4    0    0  0.46089776406E+01  0.12056566121E+02  0.23120161704E+02  0.26479149132E+02  0.00000000000E+00 0. -1.
</event>
<event>
 8    1  0.4964753E-012  0.9118800E+02  0.7816164E-02  0.1184000E+00
        -11   -1    0    0    0    0  0.00000000000E+00  0.00000000000E+00  0.45593999997E+02  0.45594000000E+02  0.51100000000E-03 0. -1.
         11   -1    0    0    0    0 -0.00000000000E+00 -0.00000000000E+00 -0.45593999997E+02  0.45594000000E+02  0.51100000000E-03 0.  1.
         23    2    1    2    0    0  0.00000000000E+00 -0.17763568394E-14  0.00000000000E+00  0.91188000000E+02  0.91188000000E+02 0.  0.
    9900012    2    3    3    0    0 -0.38723368244E+01  0.15769440079E+02 -0.37275931388E+02  0.50528864573E+02  0.30000014355E+02 0.  0.
         12    1    3    3    0    0  0.38723368244E+01 -0.15769440079E+02  0.37275931388E+02  0.40659135427E+02  0.00000000000E+00 0. -1.
         11    1    4    4    0    0 -0.10112902796E+01 -0.38642161193E+01 -0.10792150549E+02  0.11507623038E+02  0.51100000000E-03 0. -1.
        -11    1    4    4    0    0  0.62900437054E+01  0.94001533246E+01 -0.21722482640E+02  0.24490687713E+02  0.51100000000E-03 0.  1.
        -12    1    4    4    0    0 -0.91510902503E+01  0.10233502873E+02 -0.47612981984E+01  0.14530553822E+02  0.00000000000E+00 0.  1.
</event>
<event>
 8    1  0.4964753E-012  0.9118800E+02  0.7816164E-02  0.1184000E+00
        -11   -1    0    0    0    0  0.00000000000E+00  0.00000000000E+00  0.45593999997E+02  0.45594000000E+02  0.51100000000E-03 0. -1.
         11   -1    0    0    0    0 -0.00000000000E+00 -0.00000000000E+00 -0.45593999997E+02  0.45594000000E+02  0.51100000000E-03 0.  1.
         23    2    1    2    0    0 -0.35527136788E-14  0.00000000000E+00  0.17763568394E-14  0.91188000000E+02  0.91188000000E+02 0.  0.
    9900012    2    3    3    0    0  0.30628583248E+02  0.24844447573E+02 -0.98898240373E+01  0.50528864415E+02  0.30000013877E+02 0.  0.
        -12    1    3    3    0    0 -0.30628583248E+02 -0.24844447573E+02  0.98898240373E+01  0.40659135585E+02  0.00000000000E+00 0.  1.
         11    1    4    4    0    0  0.12862883078E+02  0.16733567139E+02 -0.52291397213E+01  0.21744193082E+02  0.51100000000E-03 0. -1.
        -11    1    4    4    0    0  0.16404104041E+01 -0.37267405191E+01  0.51003737621E+01  0.65263584000E+01  0.51100000000E-03 0.  1.
         12    1    4    4    0    0  0.16125289765E+02  0.11837620954E+02 -0.97610580782E+01  0.22258312934E+02  0.00000000000E+00 0. -1.
</event>
<event>
 8    1  0.4964753E-012  0.9118800E+02  0.7816164E-02  0.1184000E+00
        -11   -1    0    0    0    0  0.00000000000E+00  0.00000000000E+00  0.45593999997E+02  0.45594000000E+02  0.51100000000E-03 0. -1.
         11   -1    0    0    0    0 -0.00000000000E+00 -0.00000000000E+00 -0.45593999997E+02  0.45594000000E+02  0.51100000000E-03 0.  1.
         23    2    1    2    0    0  0.00000000000E+00  0.00000000000E+00  0.00000000000E+00  0.91188000000E+02  0.91188000000E+02 0.  0.
    9900012    2    3    3    0    0 -0.18164671851E+02  0.17650330739E+02 -0.31806851171E+02  0.50528864986E+02  0.30000015613E+02 0.  0.
         12    1    3    3    0    0  0.18164671851E+02 -0.17650330739E+02  0.31806851171E+02  0.40659135014E+02  0.00000000000E+00 0. -1.
         11    1    4    4    0    0  0.43497867903E+01  0.90980935281E+01 -0.31685783277E+01  0.10570517482E+02  0.51100000000E-03 0. -1.
        -11    1    4    4    0    0 -0.55177585764E+01 -0.32473974260E+01 -0.11191489896E+02  0.12893436163E+02  0.51100000000E-03 0.  1.
        -12    1    4    4    0    0 -0.16996700065E+02  0.11799634637E+02 -0.17446782947E+02  0.27064911340E+02  0.00000000000E+00 0.  1.
</event>
<event>
 8    1  0.4964753E-012  0.9118800E+02  0.7816164E-02  0.1184000E+00
        -11   -1    0    0    0    0  0.00000000000E+00  0.00000000000E+00  0.45593999997E+02  0.45594000000E+02  0.51100000000E-03 0. -1.
         11   -1    0    0    0    0 -0.00000000000E+00 -0.00000000000E+00 -0.45593999997E+02  0.45594000000E+02  0.51100000000E-03 0.  1.
         23    2    1    2    0    0 -0.71054273576E-14  0.00000000000E+00  0.00000000000E+00  0.91188000000E+02  0.91188000000E+02 0.  0.
    9900012    2    3    3    0    0 -0.37310215479E+02 -0.58883039701E+01 -0.15047958675E+02  0.50528863720E+02  0.30000011762E+02 0.  0.
         12    1    3    3    0    0  0.37310215479E+02  0.58883039701E+01  0.15047958675E+02  0.40659136280E+02  0.00000000000E+00 0. -1.
         11    1    4    4    0    0 -0.29013235473E+01  0.78891644326E+00  0.74832543809E+01  0.80646862228E+01  0.51100000000E-03 0. -1.
        -11    1    4    4    0    0 -0.20506224623E+02 -0.69562506603E+01 -0.10450238376E+02  0.24043754988E+02  0.51100000000E-03 0.  1.
        -12    1    4    4    0    0 -0.13902667309E+02  0.27903024697E+00 -0.12080974680E+02  0.18420422509E+02  0.00000000000E+00 0.  1.
</event>
<event>
 8    1  0.4964753E-012  0.9118800E+02  0.7816164E-02  0.1184000E+00
        -11   -1    0    0    0    0  0.00000000000E+00  0.00000000000E+00  0.45593999997E+02  0.45594000000E+02  0.51100000000E-03 0. -1.
         11   -1    0    0    0    0 -0.00000000000E+00 -0.00000000000E+00 -0.45593999997E+02  0.45594000000E+02  0.51100000000E-03 0.  1.
         23    2    1    2    0    0  0.35527136788E-14  0.00000000000E+00  0.71054273576E-14  0.91188000000E+02  0.91188000000E+02 0.  0.
    9900012    2    3    3    0    0  0.13167448219E+02  0.17993652688E+02  0.34000218502E+02  0.50528830212E+02  0.29999909912E+02 0.  0.
        -12    1    3    3    0    0 -0.13167448219E+02 -0.17993652688E+02 -0.34000218502E+02  0.40659169788E+02  0.00000000000E+00 0.  1.
         11    1    4    4    0    0  0.12055596864E+02 -0.53579066034E+00  0.21868907682E+02  0.24977462057E+02  0.51100000000E-03 0. -1.
        -11    1    4    4    0    0  0.65189184127E+01  0.68150753010E+01  0.66149522673E+01  0.11519511378E+02  0.51100000000E-03 0.  1.
        -12    1    4    4    0    0 -0.54070670573E+01  0.11714368048E+02  0.55163585531E+01  0.14031856777E+02  0.00000000000E+00 0.  1.
</event>
<event>
 8    1  0.4964753E-012  0.9118800E+02  0.7816164E-02  0.1184000E+00
        -11   -1    0    0    0    0  0.00000000000E+00  0.00000000000E+00  0.45593999997E+02  0.45594000000E+02  0.51100000000E-03 0. -1.
         11   -1    0    0    0    0 -0.00000000000E+00 -0.00000000000E+00 -0.45593999997E+02  0.45594000000E+02  0.51100000000E-03 0.  1.
         23    2    1    2    0    0  0.35527136788E-14  0.00000000000E+00 -0.19984014443E-14  0.91188000000E+02  0.91188000000E+02 0.  0.
    9900012    2    3    3    0    0 -0.28054637841E+02 -0.29388741466E+02 -0.15497071234E+01  0.50528899892E+02  0.30000121713E+02 0.  0.
        -12    1    3    3    0    0  0.28054637841E+02  0.29388741466E+02  0.15497071234E+01  0.40659100108E+02  0.00000000000E+00 0.  1.
         11    1    4    4    0    0 -0.92789830293E+00 -0.80283512877E+00 -0.75065273122E+01  0.76061483061E+01  0.51100000000E-03 0. -1.
        -11    1    4    4    0    0 -0.77698638658E+01 -0.18248732436E+02 -0.11203462771E+01  0.19865603340E+02  0.51100000000E-03 0.  1.
         12    1    4    4    0    0 -0.19356875673E+02 -0.10337173902E+02  0.70771664659E+01  0.23057148246E+02  0.00000000000E+00 0. -1.
</event>
<event>
 8    1  0.4964753E-012  0.9118800E+02  0.7816164E-02  0.1184000E+00
        -11   -1    0    0    0    0  0.00000000000E+00  0.00000000000E+00  0.45593999997E+02  0.45594000000E+02  0.51100000000E-03 0. -1.
         11   -1    0    0    0    0 -0.00000000000E+00 -0.00000000000E+00 -0.45593999997E+02  0.45594000000E+02  0.51100000000E-03 0.  1.
         23    2    1    2    0    0  0.00000000000E+00  0.00000000000E+00  0.35527136788E-14  0.91188000000E+02  0.91188000000E+02 0.  0.
    9900012    2    3    3    0    0  0.10104220013E+02  0.35571705665E+02  0.16903375603E+02  0.50528860649E+02  0.30000002428E+02 0.  0.
        -12    1    3    3    0    0 -0.10104220013E+02 -0.35571705665E+02 -0.16903375603E+02  0.40659139351E+02  0.00000000000E+00 0.  1.
         11    1    4    4    0    0 -0.65498432454E+01  0.16872834700E+01  0.42316786955E+01  0.79783755796E+01  0.51100000000E-03 0. -1.
        -11    1    4    4    0    0  0.45067714588E+01  0.18148513848E+02  0.12817621308E+02  0.22670927642E+02  0.51100000000E-03 0.  1.
        -12    1    4    4    0    0  0.12147291800E+02  0.15735908347E+02 -0.14592440080E+00  0.19879557428E+02  0.00000000000E+00 0.  1.
</event>
<event>
 8    1  0.4964753E-012  0.9118800E+02  0.7816164E-02  0.1184000E+00
        -11   -1    0    0    0    0  0.00000000000E+00  0.00000000000E+00  0.45593999997E+02  0.45594000000E+02  0.51100000000E-03 0. -1.
         11   -1    0    0    0    0 -0.00000000000E+00 -0.00000000000E+00 -0.45593999997E+02  0.45594000000E+02  0.51100000000E-03 0.  1.
         23    2    1    2    0    0  0.00000000000E+00  0.17763568394E-14 -0.71054273576E-14  0.91188000000E+02  0.91188000000E+02 0.  0.
    9900012    2    3    3    0    0 -0.92088640605E+01  0.14360870224E+02 -0.36907028102E+02  0.50528849810E+02  0.29999969481E+02 0.  0.
         12    1    3    3    0    0  0.92088640605E+01 -0.14360870224E+02  0.36907028102E+02  0.40659150190E+02  0.00000000000E+00 0. -1.
         11    1    4    4    0    0  0.48883892899E+01  0.71634482087E+00 -0.51300878098E+01  0.71223100851E+01  0.51100000000E-03 0. -1.
        -11    1    4    4    0    0 -0.10083900346E+02 -0.26217210258E+01 -0.21120368979E+02  0.23550551021E+02  0.51100000000E-03 0.  1.
         12    1    4    4    0    0 -0.40133530042E+01  0.16266246429E+02 -0.10656571313E+02  0.19855988703E+02  0.00000000000E+00 0. -1.
</event>
<event>
 8    1  0.4964753E-012  0.9118800E+02  0.7816164E-02  0.1184000E+00
        -11   -1    0    0    0    0  0.00000000000E+00  0.00000000000E+00  0.45593999997E+02  0.45594000000E+02  0.51100000000E-03 0. -1.
         11   -1    0    0    0    0 -0.00000000000E+00 -0.00000000000E+00 -0.45593999997E+02  0.45594000000E+02  0.51100000000E-03 0.  1.
         23    2    1    2    0    0  0.00000000000E+00  0.00000000000E+00  0.71054273576E-14  0.91188000000E+02  0.91188000000E+02 0.  0.
    9900012    2    3    3    0    0  0.18497809381E+02 -0.16810744431E+02  0.32068593876E+02  0.50528870724E+02  0.30000033054E+02 0.  0.
        -12    1    3    3    0    0 -0.18497809381E+02  0.16810744431E+02 -0.32068593876E+02  0.40659129276E+02  0.00000000000E+00 0.  1.
         11    1    4    4    0    0  0.18613748521E+02 -0.73651215559E+01  0.22553416231E+02  0.30155815915E+02  0.51100000000E-03 0. -1.
        -11    1    4    4    0    0  0.59104433210E+01 -0.26526689552E+01 -0.91613118941E+00  0.65428808223E+01  0.51100000000E-03 0.  1.
        -12    1    4    4    0    0 -0.60263824603E+01 -0.67929539200E+01  0.10431308835E+02  0.13830173987E+02  0.00000000000E+00 0.  1.
</event>
<event>
 8    1  0.4964753E-012  0.9118800E+02  0.7816164E-02  0.1184000E+00
        -11   -1    0    0    0    0  0.00000000000E+00  0.00000000000E+00  0.45593999997E+02  0.45594000000E+02  0.51100000000E-03 0. -1.
         11   -1    0    0    0    0 -0.00000000000E+00 -0.00000000000E+00 -0.45593999997E+02  0.45594000000E+02  0.51100000000E-03 0.  1.
         23    2    1    2    0    0 -0.35527136788E-14  0.88817841970E-15 -0.71054273576E-14  0.91188000000E+02  0.91188000000E+02 0.  0.
    9900012    2    3    3    0    0  0.23161526781E+02  0.30313793103E+01  0.33279416349E+02  0.50528866514E+02  0.30000020255E+02 0.  0.
        -12    1    3    3    0    0 -0.23161526781E+02 -0.30313793103E+01 -0.33279416349E+02  0.40659133486E+02  0.00000000000E+00 0.  1.
         11    1    4    4    0    0  0.45645692659E+01  0.36651323973E+01 -0.99016517990E+00  0.59370797045E+01  0.51100000000E-03 0. -1.
        -11    1    4    4    0    0 -0.20086149948E+01  0.66990213214E+00  0.18476305233E+02  0.18597235235E+02  0.51100000000E-03 0.  1.
         12    1    4    4    0    0  0.20605572510E+02 -0.13036552191E+01  0.15793276296E+02  0.25994551574E+02  0.00000000000E+00 0. -1.
</event>
<event>
 8    1  0.4964753E-012  0.9118800E+02  0.7816164E-02  0.1184000E+00
        -11   -1    0    0    0    0  0.00000000000E+00  0.00000000000E+00  0.45593999997E+02  0.45594000000E+02  0.51100000000E-03 0. -1.
         11   -1    0    0    0    0 -0.00000000000E+00 -0.00000000000E+00 -0.45593999997E+02  0.45594000000E+02  0.51100000000E-03 0.  1.
         23    2    1    2    0    0  0.00000000000E+00  0.00000000000E+00  0.00000000000E+00  0.91188000000E+02  0.91188000000E+02 0.  0.
    9900012    2    3    3    0    0 -0.21958452417E+02  0.30283231872E+02 -0.15934789880E+02  0.50528864573E+02  0.30000014356E+02 0.  0.
         12    1    3    3    0    0  0.21958452417E+02 -0.30283231872E+02  0.15934789880E+02  0.40659135427E+02  0.00000000000E+00 0. -1.
         11    1    4    4    0    0 -0.42159118912E+01 -0.23302492251E+01 -0.59195206365E+01  0.76318214964E+01  0.51100000000E-03 0. -1.
        -11    1    4    4    0    0 -0.39911315629E+01  0.10508303154E+02 -0.12421626837E+02  0.16752623075E+02  0.51100000000E-03 0.  1.
         12    1    4    4    0    0 -0.13751408963E+02  0.22105177943E+02  0.24063575940E+01  0.26144420002E+02  0.00000000000E+00 0. -1.
</event>
<event>
 8    1  0.4964753E-012  0.9118800E+02  0.7816164E-02  0.1184000E+00
        -11   -1    0    0    0    0  0.00000000000E+00  0.00000000000E+00  0.45593999997E+02  0.45594000000E+02  0.51100000000E-03 0. -1.
         11   -1    0    0    0    0 -0.00000000000E+00 -0.00000000000E+00 -0.45593999997E+02  0.45594000000E+02  0.51100000000E-03 0.  1.
         23    2    1    2    0    0  0.00000000000E+00  0.44408920985E-15  0.00000000000E+00  0.91188000000E+02  0.91188000000E+02 0.  0.
    9900012    2    3    3    0    0  0.99990861336E+01 -0.39040796610E+01 -0.39216603504E+02  0.50528861398E+02  0.30000004705E+02 0.  0.
         12    1    3    3    0    0 -0.99990861336E+01  0.39040796610E+01  0.39216603504E+02  0.40659138602E+02  0.00000000000E+00 0. -1.
         11    1    4    4    0    0  0.99420214935E+01  0.65517714422E+01 -0.92742220563E+01  0.15092405223E+02  0.51100000000E-03 0. -1.
        -11    1    4    4    0    0 -0.14939920262E+00  0.29005713715E+01 -0.15475396482E+02  0.15745587666E+02  0.51100000000E-03 0.  1.
         12    1    4    4    0    0  0.20646384270E+00 -0.13356422475E+02 -0.14466984965E+02  0.19690868508E+02  0.00000000000E+00 0. -1.
</event>
<event>
 8    1  0.4964753E-012  0.9118800E+02  0.7816164E-02  0.1184000E+00
        -11   -1    0    0    0    0  0.00000000000E+00  0.00000000000E+00  0.45593999997E+02  0.45594000000E+02  0.51100000000E-03 0. -1.
         11   -1    0    0    0    0 -0.00000000000E+00 -0.00000000000E+00 -0.45593999997E+02  0.45594000000E+02  0.51100000000E-03 0.  1.
         23    2    1    2    0    0  0.17763568394E-14 -0.35527136788E-14  0.35527136788E-14  0.91188000000E+02  0.91188000000E+02 0.  0.
    9900012    2    3    3    0    0  0.10246842179E+02  0.26834103868E+02 -0.28776703114E+02  0.50528861456E+02  0.30000004881E+02 0.  0.
         12    1    3    3    0    0 -0.10246842179E+02 -0.26834103868E+02  0.28776703114E+02  0.40659138544E+02  0.00000000000E+00 0. -1.
         11    1    4    4    0    0 -0.44499412156E+01  0.10218007356E+02 -0.24542071088E+01  0.11411957936E+02  0.51100000000E-03 0. -1.
        -11    1    4    4    0    0  0.34445150065E+01  0.15738612849E+02 -0.21442396852E+02  0.26820607768E+02  0.51100000000E-03 0.  1.
        -12    1    4    4    0    0  0.11252268388E+02  0.87748366373E+00 -0.48800991532E+01  0.12296295751E+02  0.00000000000E+00 0.  1.
</event>
<event>
 8    1  0.4964753E-012  0.9118800E+02  0.7816164E-02  0.1184000E+00
        -11   -1    0    0    0    0  0.00000000000E+00  0.00000000000E+00  0.45593999997E+02  0.45594000000E+02  0.51100000000E-03 0. -1.
         11   -1    0    0    0    0 -0.00000000000E+00 -0.00000000000E+00 -0.45593999997E+02  0.45594000000E+02  0.51100000000E-03 0.  1.
         23    2    1    2    0    0  0.00000000000E+00  0.17763568394E-14 -0.35527136788E-14  0.91188000000E+02  0.91188000000E+02 0.  0.
    9900012    2    3    3    0    0 -0.31639767300E+02  0.74801033129E+01 -0.24415928239E+02  0.50528875905E+02  0.30000048801E+02 0.  0.
         12    1    3    3    0    0  0.31639767300E+02 -0.74801033129E+01  0.24415928239E+02  0.40659124095E+02  0.00000000000E+00 0. -1.
         11    1    4    4    0    0 -0.11527847636E+01  0.12889481762E+01  0.20679691384E+01  0.26956996736E+01  0.51100000000E-03 0. -1.
        -11    1    4    4    0    0 -0.32853076479E+02  0.64556850057E+01 -0.16047145425E+02  0.37128309678E+02  0.51100000000E-03 0.  1.
         12    1    4    4    0    0  0.23660939422E+01 -0.26452986901E+00 -0.10436751953E+02  0.10704866553E+02  0.00000000000E+00 0. -1.
</event>
<event>
 8    1  0.4964753E-012  0.9118800E+02  0.7816164E-02  0.1184000E+00
        -11   -1    0    0    0    0  0.00000000000E+00  0.00000000000E+00  0.45593999997E+02  0.45594000000E+02  0.51100000000E-03 0. -1.
         11   -1    0    0    0    0 -0.00000000000E+00 -0.00000000000E+00 -0.45593999997E+02  0.45594000000E+02  0.51100000000E-03 0.  1.
         23    2    1    2    0    0 -0.88817841970E-15  0.35527136788E-14  0.71054273576E-14  0.91188000000E+02  0.91188000000E+02 0.  0.
    9900012    2    3    3    0    0 -0.42969481844E+01  0.30043553035E+02  0.27057103853E+02  0.50528859434E+02  0.29999998736E+02 0.  0.
        -12    1    3    3    0    0  0.42969481844E+01 -0.30043553035E+02 -0.27057103853E+02  0.40659140566E+02  0.00000000000E+00 0.  1.
         11    1    4    4    0    0 -0.77804986497E+01  0.27662024969E+01  0.11175362200E+02  0.13895206226E+02  0.51100000000E-03 0. -1.
        -11    1    4    4    0    0 -0.35484750101E+01  0.15964449092E+02  0.16588619047E+02  0.23294582886E+02  0.51100000000E-03 0.  1.
        -12    1    4    4    0    0  0.70320254754E+01  0.11312901446E+02 -0.70687739389E+00  0.13339070322E+02  0.00000000000E+00 0.  1.
</event>
<event>
 8    1  0.4964753E-012  0.9118800E+02  0.7816164E-02  0.1184000E+00
        -11   -1    0    0    0    0  0.00000000000E+00  0.00000000000E+00  0.45593999997E+02  0.45594000000E+02  0.51100000000E-03 0. -1.
         11   -1    0    0    0    0 -0.00000000000E+00 -0.00000000000E+00 -0.45593999997E+02  0.45594000000E+02  0.51100000000E-03 0.  1.
         23    2    1    2    0    0 -0.22204460493E-15 -0.11934897515E-14 -0.71054273576E-14  0.91188000000E+02  0.91188000000E+02 0.  0.
    9900012    2    3    3    0    0  0.13704024245E+01 -0.51359521219E-01  0.40636007542E+02  0.50528858967E+02  0.29999997316E+02 0.  0.
        -12    1    3    3    0    0 -0.13704024245E+01  0.51359521219E-01 -0.40636007542E+02  0.40659141033E+02  0.00000000000E+00 0.  1.
         11    1    4    4    0    0  0.17593513720E+01  0.38105458164E+01  0.35619272622E+02  0.35865696132E+02  0.51100000000E-03 0. -1.
        -11    1    4    4    0    0 -0.12645796865E+01  0.30959001033E+01 -0.26544627084E+01  0.42696524173E+01  0.51100000000E-03 0.  1.
        -12    1    4    4    0    0  0.87563073895E+00 -0.69578054409E+01  0.76711976284E+01  0.10393510417E+02  0.00000000000E+00 0.  1.
</event>
<event>
 8    1  0.4964753E-012  0.9118800E+02  0.7816164E-02  0.1184000E+00
        -11   -1    0    0    0    0  0.00000000000E+00  0.00000000000E+00  0.45593999997E+02  0.45594000000E+02  0.51100000000E-03 0. -1.
         11   -1    0    0    0    0 -0.00000000000E+00 -0.00000000000E+00 -0.45593999997E+02  0.45594000000E+02  0.51100000000E-03 0.  1.
         23    2    1    2    0    0  0.00000000000E+00  0.00000000000E+00  0.00000000000E+00  0.91188000000E+02  0.91188000000E+02 0.  0.
    9900012    2    3    3    0    0  0.18088518713E+01 -0.28195914528E+02 -0.29238414042E+02  0.50528851007E+02  0.29999973120E+02 0.  0.
         12    1    3    3    0    0 -0.18088518713E+01  0.28195914528E+02  0.29238414042E+02  0.40659148993E+02  0.00000000000E+00 0. -1.
         11    1    4    4    0    0 -0.19312025401E+01  0.25770532087E+01 -0.24304056458E+01  0.40345530552E+01  0.51100000000E-03 0. -1.
        -11    1    4    4    0    0  0.62494514492E+01 -0.92143651618E+01 -0.21405437813E+02  0.24127845676E+02  0.51100000000E-03 0.  1.
         12    1    4    4    0    0 -0.25093970378E+01 -0.21558602575E+02 -0.54025705831E+01  0.22366452276E+02  0.00000000000E+00 0. -1.
</event>
<event>
 8    1  0.4964753E-012  0.9118800E+02  0.7816164E-02  0.1184000E+00
        -11   -1    0    0    0    0  0.00000000000E+00  0.00000000000E+00  0.45593999997E+02  0.45594000000E+02  0.51100000000E-03 0. -1.
         11   -1    0    0    0    0 -0.00000000000E+00 -0.00000000000E+00 -0.45593999997E+02  0.45594000000E+02  0.51100000000E-03 0.  1.
         23    2    1    2    0    0  0.35527136788E-14  0.88817841970E-15  0.00000000000E+00  0.91188000000E+02  0.91188000000E+02 0.  0.
    9900012    2    3    3    0    0  0.27102472589E+02  0.32948926511E+01  0.30129335466E+02  0.50528718234E+02  0.29999569542E+02 0.  0.
        -12    1    3    3    0    0 -0.27102472589E+02 -0.32948926511E+01 -0.30129335466E+02  0.40659281766E+02  0.00000000000E+00 0.  1.
         11    1    4    4    0    0  0.78562615786E-01 -0.98196127307E+00 -0.10808066694E+01  0.14623827626E+01  0.51100000000E-03 0. -1.
        -11    1    4    4    0    0  0.16549484922E+02 -0.45025842818E+01  0.30964239018E+02  0.35396932277E+02  0.51100000000E-03 0.  1.
         12    1    4    4    0    0  0.10474425051E+02  0.87794382060E+01  0.24590311830E+00  0.13669403195E+02  0.00000000000E+00 0. -1.
</event>
<event>
 8    1  0.4964753E-012  0.9118800E+02  0.7816164E-02  0.1184000E+00
        -11   -1    0    0    0    0  0.00000000000E+00  0.00000000000E+00  0.45593999997E+02  0.45594000000E+02  0.51100000000E-03 0. -1.
         11   -1    0    0    0    0 -0.00000000000E+00 -0.00000000000E+00 -0.45593999997E+02  0.45594000000E+02  0.51100000000E-03 0.  1.
         23    2    1    2    0    0  0.00000000000E+00  0.17763568394E-14  0.00000000000E+00  0.91188000000E+02  0.91188000000E+02 0.  0.
    9900012    2    3    3    0    0  0.14421392565E+02  0.12748505625E+02  0.35814296935E+02  0.50528870347E+02  0.30000031907E+02 0.  0.
        -12    1    3    3    0    0 -0.14421392565E+02 -0.12748505625E+02 -0.35814296935E+02  0.40659129653E+02  0.00000000000E+00 0.  1.
         11    1    4    4    0    0  0.12238304568E+02  0.16376277712E+02  0.16912656115E+02  0.26532932509E+02  0.51100000000E-03 0. -1.
        -11    1    4    4    0    0  0.32189044684E+01  0.35546715916E+01  0.15018523581E+02  0.15765566495E+02  0.51100000000E-03 0.  1.
        -12    1    4    4    0    0 -0.10358164710E+01 -0.71824436783E+01  0.38831172392E+01  0.82303713432E+01  0.00000000000E+00 0.  1.
</event>
<event>
 8    1  0.4964753E-012  0.9118800E+02  0.7816164E-02  0.1184000E+00
        -11   -1    0    0    0    0  0.00000000000E+00  0.00000000000E+00  0.45593999997E+02  0.45594000000E+02  0.51100000000E-03 0. -1.
         11   -1    0    0    0    0 -0.00000000000E+00 -0.00000000000E+00 -0.45593999997E+02  0.45594000000E+02  0.51100000000E-03 0.  1.
         23    2    1    2    0    0  0.88817841970E-15  0.35527136788E-14  0.35527136788E-14  0.91188000000E+02  0.91188000000E+02 0.  0.
    9900012    2    3    3    0    0  0.68540691539E+01  0.28763542173E+02  0.27907828801E+02  0.50528849361E+02  0.29999968117E+02 0.  0.
        -12    1    3    3    0    0 -0.68540691539E+01 -0.28763542173E+02 -0.27907828801E+02  0.40659150639E+02  0.00000000000E+00 0.  1.
         11    1    4    4    0    0 -0.23984173942E+01  0.12601230124E+02  0.35694216775E+01  0.13314810476E+02  0.51100000000E-03 0. -1.
        -11    1    4    4    0    0 -0.44937486990E+01  0.33414360124E+01  0.15426102403E+02  0.16411081854E+02  0.51100000000E-03 0.  1.
         12    1    4    4    0    0  0.13746235247E+02  0.12820876036E+02  0.89123047204E+01  0.20802957031E+02  0.00000000000E+00 0. -1.
</event>
<event>
 8    1  0.4964753E-012  0.9118800E+02  0.7816164E-02  0.1184000E+00
        -11   -1    0    0    0    0  0.00000000000E+00  0.00000000000E+00  0.45593999997E+02  0.45594000000E+02  0.51100000000E-03 0.  1.
         11   -1    0    0    0    0 -0.00000000000E+00 -0.00000000000E+00 -0.45593999997E+02  0.45594000000E+02  0.51100000000E-03 0. -1.
         23    2    1    2    0    0  0.00000000000E+00  0.00000000000E+00  0.00000000000E+00  0.91188000000E+02  0.91188000000E+02 0.  0.
    9900012    2    3    3    0    0 -0.11235458631E+02 -0.38292474070E+02  0.77856938513E+01  0.50528854291E+02  0.29999983102E+02 0.  0.
        -12    1    3    3    0    0  0.11235458631E+02  0.38292474070E+02 -0.77856938513E+01  0.40659145709E+02  0.00000000000E+00 0.  1.
         11    1    4    4    0    0 -0.60624464403E+01 -0.14413536096E+02  0.10234832493E+02  0.18688367399E+02  0.51100000000E-03 0. -1.
        -11    1    4    4    0    0  0.22649015157E+01  0.30543853542E+01 -0.17271739521E+00  0.38064261883E+01  0.51100000000E-03 0.  1.
         12    1    4    4    0    0 -0.74379137068E+01 -0.26933323328E+02 -0.22764212464E+01  0.28034060703E+02  0.00000000000E+00 0. -1.
</event>
<event>
 8    1  0.4964753E-012  0.9118800E+02  0.7816164E-02  0.1184000E+00
        -11   -1    0    0    0    0  0.00000000000E+00  0.00000000000E+00  0.45593999997E+02  0.45594000000E+02  0.51100000000E-03 0. -1.
         11   -1    0    0    0    0 -0.00000000000E+00 -0.00000000000E+00 -0.45593999997E+02  0.45594000000E+02  0.51100000000E-03 0.  1.
         23    2    1    2    0    0  0.00000000000E+00 -0.35527136788E-14  0.00000000000E+00  0.91188000000E+02  0.91188000000E+02 0.  0.
    9900012    2    3    3    0    0  0.61493386009E+01 -0.31369229586E+02  0.25126136846E+02  0.50528859788E+02  0.29999999810E+02 0.  0.
        -12    1    3    3    0    0 -0.61493386009E+01  0.31369229586E+02 -0.25126136846E+02  0.40659140212E+02  0.00000000000E+00 0.  1.
         11    1    4    4    0    0 -0.46444466529E+00 -0.24828129066E+02  0.72022906882E+01  0.25855844468E+02  0.51100000000E-03 0. -1.
        -11    1    4    4    0    0 -0.10570130969E+01 -0.88237081527E+01  0.10509993644E+02  0.13763541293E+02  0.51100000000E-03 0.  1.
        -12    1    4    4    0    0  0.76707963630E+01  0.22826076328E+01  0.74138525133E+01  0.10909474027E+02  0.00000000000E+00 0.  1.
</event>
<event>
 8    1  0.4964753E-012  0.9118800E+02  0.7816164E-02  0.1184000E+00
        -11   -1    0    0    0    0  0.00000000000E+00  0.00000000000E+00  0.45593999997E+02  0.45594000000E+02  0.51100000000E-03 0. -1.
         11   -1    0    0    0    0 -0.00000000000E+00 -0.00000000000E+00 -0.45593999997E+02  0.45594000000E+02  0.51100000000E-03 0.  1.
         23    2    1    2    0    0  0.22204460493E-15  0.35527136788E-14  0.71054273576E-14  0.91188000000E+02  0.91188000000E+02 0.  0.
    9900012    2    3    3    0    0  0.10507765793E+01 -0.17892439189E+02 -0.36495494916E+02  0.50528872356E+02  0.30000038014E+02 0.  0.
         12    1    3    3    0    0 -0.10507765793E+01  0.17892439189E+02  0.36495494916E+02  0.40659127644E+02  0.00000000000E+00 0. -1.
         11    1    4    4    0    0 -0.78370987372E+01 -0.21447807300E+02 -0.21066477434E+02  0.31068070850E+02  0.51100000000E-03 0. -1.
        -11    1    4    4    0    0 -0.56228380502E+00 -0.86142578230E-01  0.38140219388E+00  0.68487335748E+00  0.51100000000E-03 0.  1.
        -12    1    4    4    0    0  0.94501591215E+01  0.36415106893E+01 -0.15810419676E+02  0.18775928149E+02  0.00000000000E+00 0.  1.
</event>
<event>
 8    1  0.4964753E-012  0.9118800E+02  0.7816164E-02  0.1184000E+00
        -11   -1    0    0    0    0  0.00000000000E+00  0.00000000000E+00  0.45593999997E+02  0.45594000000E+02  0.51100000000E-03 0. -1.
         11   -1    0    0    0    0 -0.00000000000E+00 -0.00000000000E+00 -0.45593999997E+02  0.45594000000E+02  0.51100000000E-03 0.  1.
         23    2    1    2    0    0  0.71054273576E-14  0.00000000000E+00  0.00000000000E+00  0.91188000000E+02  0.91188000000E+02 0.  0.
    9900012    2    3    3    0    0 -0.33244598322E+02  0.12203240369E+02 -0.19976064274E+02  0.50528861581E+02  0.30000005263E+02 0.  0.
         12    1    3    3    0    0  0.33244598322E+02 -0.12203240369E+02  0.19976064274E+02  0.40659138419E+02  0.00000000000E+00 0. -1.
         11    1    4    4    0    0 -0.28030191234E+01 -0.50607533018E+01 -0.32030783504E+01  0.66127037865E+01  0.51100000000E-03 0. -1.
        -11    1    4    4    0    0 -0.12510893956E+02  0.12192316868E+02 -0.18200229645E+02  0.25227433829E+02  0.51100000000E-03 0.  1.
         12    1    4    4    0    0 -0.17930685242E+02  0.50716768023E+01  0.14272437211E+01  0.18688723966E+02  0.00000000000E+00 0. -1.
</event>
<event>
 8    1  0.4964753E-012  0.9118800E+02  0.7816164E-02  0.1184000E+00
        -11   -1    0    0    0    0  0.00000000000E+00  0.00000000000E+00  0.45593999997E+02  0.45594000000E+02  0.51100000000E-03 0. -1.
         11   -1    0    0    0    0 -0.00000000000E+00 -0.00000000000E+00 -0.45593999997E+02  0.45594000000E+02  0.51100000000E-03 0.  1.
         23    2    1    2    0    0  0.00000000000E+00  0.00000000000E+00  0.00000000000E+00  0.91188000000E+02  0.91188000000E+02 0.  0.
    9900012    2    3    3    0    0 -0.12329018978E+02 -0.14305385433E+02 -0.36007164653E+02  0.50528872271E+02  0.30000037754E+02 0.  0.
         12    1    3    3    0    0  0.12329018978E+02  0.14305385433E+02  0.36007164653E+02  0.40659127729E+02  0.00000000000E+00 0. -1.
         11    1    4    4    0    0 -0.68623877432E+01  0.35607121786E+01 -0.24302440696E+01  0.81041423516E+01  0.51100000000E-03 0. -1.
        -11    1    4    4    0    0 -0.44515293260E+01 -0.16919867255E+02 -0.12989228952E+02  0.21790321023E+02  0.51100000000E-03 0.  1.
         12    1    4    4    0    0 -0.10151019087E+01 -0.94623035680E+00 -0.20587691631E+02  0.20634408896E+02  0.00000000000E+00 0. -1.
</event>
<event>
 8    1  0.4964753E-012  0.9118800E+02  0.7816164E-02  0.1184000E+00
        -11   -1    0    0    0    0  0.00000000000E+00  0.00000000000E+00  0.45593999997E+02  0.45594000000E+02  0.51100000000E-03 0. -1.
         11   -1    0    0    0    0 -0.00000000000E+00 -0.00000000000E+00 -0.45593999997E+02  0.45594000000E+02  0.51100000000E-03 0.  1.
         23    2    1    2    0    0  0.00000000000E+00 -0.44408920985E-15 -0.71054273576E-14  0.91188000000E+02  0.91188000000E+02 0.  0.
    9900012    2    3    3    0    0 -0.36688541219E+02 -0.31614655922E+01  0.17237221145E+02  0.50528859401E+02  0.29999998634E+02 0.  0.
        -12    1    3    3    0    0  0.36688541219E+02  0.31614655922E+01 -0.17237221145E+02  0.40659140599E+02  0.00000000000E+00 0.  1.
         11    1    4    4    0    0 -0.17003201007E+02 -0.18169192039E+01  0.44390783606E+01  0.17666789659E+02  0.51100000000E-03 0. -1.
        -11    1    4    4    0    0 -0.17211927272E+02 -0.11788211082E+01  0.19309996627E+02  0.25894324274E+02  0.51100000000E-03 0.  1.
        -12    1    4    4    0    0 -0.24734129393E+01 -0.16572528013E+00 -0.65118538423E+01  0.69677454675E+01  0.00000000000E+00 0.  1.
</event>
<event>
 8    1  0.4964753E-012  0.9118800E+02  0.7816164E-02  0.1184000E+00
        -11   -1    0    0    0    0  0.00000000000E+00  0.00000000000E+00  0.45593999997E+02  0.45594000000E+02  0.51100000000E-03 0. -1.
         11   -1    0    0    0    0 -0.00000000000E+00 -0.00000000000E+00 -0.45593999997E+02  0.45594000000E+02  0.51100000000E-03 0.  1.
         23    2    1    2    0    0  0.00000000000E+00  0.00000000000E+00  0.00000000000E+00  0.91188000000E+02  0.91188000000E+02 0.  0.
    9900012    2    3    3    0    0 -0.93215601879E+01  0.20765183556E+02  0.33690948668E+02  0.50528876121E+02  0.30000049458E+02 0.  0.
        -12    1    3    3    0    0  0.93215601879E+01 -0.20765183556E+02 -0.33690948668E+02  0.40659123879E+02  0.00000000000E+00 0.  1.
         11    1    4    4    0    0 -0.11570442138E+02  0.14014778216E+02  0.24197905937E+02  0.30262646805E+02  0.51100000000E-03 0. -1.
        -11    1    4    4    0    0 -0.33253878653E+01 -0.37668311468E+01 -0.26334525989E-01  0.50247303521E+01  0.51100000000E-03 0.  1.
        -12    1    4    4    0    0  0.55742698149E+01  0.10517236487E+02  0.95193772571E+01  0.15241498964E+02  0.00000000000E+00 0.  1.
</event>
<event>
 8    1  0.4964753E-012  0.9118800E+02  0.7816164E-02  0.1184000E+00
        -11   -1    0    0    0    0  0.00000000000E+00  0.00000000000E+00  0.45593999997E+02  0.45594000000E+02  0.51100000000E-03 0. -1.
         11   -1    0    0    0    0 -0.00000000000E+00 -0.00000000000E+00 -0.45593999997E+02  0.45594000000E+02  0.51100000000E-03 0.  1.
         23    2    1    2    0    0  0.00000000000E+00  0.00000000000E+00  0.00000000000E+00  0.91188000000E+02  0.91188000000E+02 0.  0.
    9900012    2    3    3    0    0  0.16632636925E+02  0.75492669800E+01 -0.36325403045E+02  0.50528795023E+02  0.29999802951E+02 0.  0.
         12    1    3    3    0    0 -0.16632636925E+02 -0.75492669800E+01  0.36325403045E+02  0.40659204977E+02  0.00000000000E+00 0. -1.
         11    1    4    4    0    0  0.84768167108E+01 -0.59309280314E+01 -0.27654446181E+01  0.10708875434E+02  0.51100000000E-03 0. -1.
        -11    1    4    4    0    0 -0.25745681724E+01 -0.92214242809E-01 -0.11496394390E+02  0.11781510471E+02  0.51100000000E-03 0.  1.
         12    1    4    4    0    0  0.10730388386E+02  0.13572409254E+02 -0.22063564036E+02  0.28038409118E+02  0.00000000000E+00 0. -1.
</event>
<event>
 8    1  0.4964753E-012  0.9118800E+02  0.7816164E-02  0.1184000E+00
        -11   -1    0    0    0    0  0.00000000000E+00  0.00000000000E+00  0.45593999997E+02  0.45594000000E+02  0.51100000000E-03 0. -1.
         11   -1    0    0    0    0 -0.00000000000E+00 -0.00000000000E+00 -0.45593999997E+02  0.45594000000E+02  0.51100000000E-03 0.  1.
         23    2    1    2    0    0  0.00000000000E+00  0.35527136788E-14  0.00000000000E+00  0.91188000000E+02  0.91188000000E+02 0.  0.
    9900012    2    3    3    0    0  0.20640636787E+01  0.20262003445E+02  0.35190306658E+02  0.50528845740E+02  0.29999957110E+02 0.  0.
        -12    1    3    3    0    0 -0.20640636787E+01 -0.20262003445E+02 -0.35190306658E+02  0.40659154260E+02  0.00000000000E+00 0.  1.
         11    1    4    4    0    0 -0.54706190311E+01  0.41552225635E+01  0.17381801896E+02  0.18690119971E+02  0.51100000000E-03 0. -1.
        -11    1    4    4    0    0  0.87107760423E+01  0.93267226235E+01  0.20745754858E+02  0.24356759207E+02  0.51100000000E-03 0.  1.
        -12    1    4    4    0    0 -0.11760933325E+01  0.67800582579E+01 -0.29372500957E+01  0.74819665618E+01  0.00000000000E+00 0.  1.
</event>
<event>
 8    1  0.5543995E-012  0.9118800E+02  0.7816164E-02  0.1184000E+00
        -11   -1    0    0    0    0  0.00000000000E+00  0.00000000000E+00  0.45593999997E+02  0.45594000000E+02  0.51100000000E-03 0. -1.
         11   -1    0    0    0    0 -0.00000000000E+00 -0.00000000000E+00 -0.45593999997E+02  0.45594000000E+02  0.51100000000E-03 0.  1.
         23    2    1    2    0    0  0.00000000000E+00  0.88817841970E-15  0.00000000000E+00  0.91188000000E+02  0.91188000000E+02 0.  0.
    9900012    2    3    3    0    0 -0.35480846094E+02 -0.41322584987E+01 -0.19421625765E+02  0.50528861455E+02  0.30000004880E+02 0.  0.
         12    1    3    3    0    0  0.35480846094E+02  0.41322584987E+01  0.19421625765E+02  0.40659138545E+02  0.00000000000E+00 0. -1.
         11    1    4    4    0    0 -0.18766427285E+02 -0.66188052541E+01 -0.54093009580E+01  0.20621540029E+02  0.51100000000E-03 0. -1.
        -11    1    4    4    0    0 -0.20373911434E+02  0.45487134140E+01 -0.75481444527E+01  0.22198232943E+02  0.51100000000E-03 0.  1.
         12    1    4    4    0    0  0.36594926252E+01 -0.20621666586E+01 -0.64641803540E+01  0.77090884838E+01  0.00000000000E+00 0. -1.
</event>
<event>
 8    1  0.4964753E-012  0.9118800E+02  0.7816164E-02  0.1184000E+00
        -11   -1    0    0    0    0  0.00000000000E+00  0.00000000000E+00  0.45593999997E+02  0.45594000000E+02  0.51100000000E-03 0. -1.
         11   -1    0    0    0    0 -0.00000000000E+00 -0.00000000000E+00 -0.45593999997E+02  0.45594000000E+02  0.51100000000E-03 0.  1.
         23    2    1    2    0    0  0.44408920985E-15  0.00000000000E+00  0.71054273576E-14  0.91188000000E+02  0.91188000000E+02 0.  0.
    9900012    2    3    3    0    0  0.28732817155E+01  0.81951182339E+01 -0.39720887058E+02  0.50528873357E+02  0.30000041056E+02 0.  0.
         12    1    3    3    0    0 -0.28732817155E+01 -0.81951182339E+01  0.39720887058E+02  0.40659126643E+02  0.00000000000E+00 0. -1.
         11    1    4    4    0    0  0.57183043415E+01  0.54921795957E+01 -0.66296203978E+01  0.10335129807E+02  0.51100000000E-03 0. -1.
        -11    1    4    4    0    0  0.72593875572E+01 -0.45476501037E+01 -0.21696336383E+02  0.23326183611E+02  0.51100000000E-03 0.  1.
         12    1    4    4    0    0 -0.10104410183E+02  0.72505887419E+01 -0.11394930277E+02  0.16867559939E+02  0.00000000000E+00 0. -1.
</event>
<event>
 8    1  0.4964753E-012  0.9118800E+02  0.7816164E-02  0.1184000E+00
        -11   -1    0    0    0    0  0.00000000000E+00  0.00000000000E+00  0.45593999997E+02  0.45594000000E+02  0.51100000000E-03 0. -1.
         11   -1    0    0    0    0 -0.00000000000E+00 -0.00000000000E+00 -0.45593999997E+02  0.45594000000E+02  0.51100000000E-03 0.  1.
         23    2    1    2    0    0 -0.17763568394E-14  0.00000000000E+00 -0.71054273576E-14  0.91188000000E+02  0.91188000000E+02 0.  0.
    9900012    2    3    3    0    0 -0.63840664750E+01 -0.19123279071E+02 -0.35308800217E+02  0.50528837687E+02  0.29999932634E+02 0.  0.
         12    1    3    3    0    0  0.63840664750E+01  0.19123279071E+02  0.35308800217E+02  0.40659162313E+02  0.00000000000E+00 0. -1.
         11    1    4    4    0    0 -0.49093602241E+01  0.52439030659E+00  0.12888413746E+01  0.51027360654E+01  0.51100000000E-03 0. -1.
        -11    1    4    4    0    0 -0.96747880508E+01 -0.13702761642E+02 -0.22294674061E+02  0.27900173695E+02  0.51100000000E-03 0.  1.
        -12    1    4    4    0    0  0.82000817998E+01 -0.59449077362E+01 -0.14302967531E+02  0.17525927927E+02  0.00000000000E+00 0.  1.
</event>
<event>
 8    1  0.4964753E-012  0.9118800E+02  0.7816164E-02  0.1184000E+00
        -11   -1    0    0    0    0  0.00000000000E+00  0.00000000000E+00  0.45593999997E+02  0.45594000000E+02  0.51100000000E-03 0.  1.
         11   -1    0    0    0    0 -0.00000000000E+00 -0.00000000000E+00 -0.45593999997E+02  0.45594000000E+02  0.51100000000E-03 0. -1.
         23    2    1    2    0    0 -0.44408920985E-15  0.00000000000E+00  0.00000000000E+00  0.91188000000E+02  0.91188000000E+02 0.  0.
    9900012    2    3    3    0    0  0.34071663043E+01  0.36602630776E+02 -0.17372564556E+02  0.50528839148E+02  0.29999937075E+02 0.  0.
         12    1    3    3    0    0 -0.34071663043E+01 -0.36602630776E+02  0.17372564556E+02  0.40659160852E+02  0.00000000000E+00 0. -1.
         11    1    4    4    0    0  0.34092003175E+01  0.75538731614E+01 -0.70722318389E+01  0.10894958008E+02  0.51100000000E-03 0. -1.
        -11    1    4    4    0    0  0.61013717796E+01 -0.11636005166E+01  0.18832976748E+01  0.64905711727E+01  0.51100000000E-03 0.  1.
        -12    1    4    4    0    0 -0.61034057928E+01  0.30212358131E+02 -0.12183630392E+02  0.33143309968E+02  0.00000000000E+00 0.  1.
</event>
<event>
 8    1  0.4964753E-012  0.9118800E+02  0.7816164E-02  0.1184000E+00
        -11   -1    0    0    0    0  0.00000000000E+00  0.00000000000E+00  0.45593999997E+02  0.45594000000E+02  0.51100000000E-03 0. -1.
         11   -1    0    0    0    0 -0.00000000000E+00 -0.00000000000E+00 -0.45593999997E+02  0.45594000000E+02  0.51100000000E-03 0.  1.
         23    2    1    2    0    0  0.00000000000E+00  0.00000000000E+00  0.00000000000E+00  0.91188000000E+02  0.91188000000E+02 0.  0.
    9900012    2    3    3    0    0  0.29581564090E+02  0.16129517579E+02 -0.22758199015E+02  0.50528857193E+02  0.29999991925E+02 0.  0.
         12    1    3    3    0    0 -0.29581564090E+02 -0.16129517579E+02  0.22758199015E+02  0.40659142807E+02  0.00000000000E+00 0. -1.
         11    1    4    4    0    0 -0.17248816090E+01 -0.22913444579E+01 -0.15307900529E+01  0.32509682307E+01  0.51100000000E-03 0. -1.
        -11    1    4    4    0    0  0.65797039911E+01  0.74735054132E+01 -0.17288334973E+02  0.19950747209E+02  0.51100000000E-03 0.  1.
        -12    1    4    4    0    0  0.24726741708E+02  0.10947356623E+02 -0.39390739891E+01  0.27327141754E+02  0.00000000000E+00 0.  1.
</event>
<event>
 8    1  0.4964753E-012  0.9118800E+02  0.7816164E-02  0.1184000E+00
        -11   -1    0    0    0    0  0.00000000000E+00  0.00000000000E+00  0.45593999997E+02  0.45594000000E+02  0.51100000000E-03 0. -1.
         11   -1    0    0    0    0 -0.00000000000E+00 -0.00000000000E+00 -0.45593999997E+02  0.45594000000E+02  0.51100000000E-03 0.  1.
         23    2    1    2    0    0  0.00000000000E+00  0.00000000000E+00  0.00000000000E+00  0.91188000000E+02  0.91188000000E+02 0.  0.
    9900012    2    3    3    0    0 -0.19680204765E+02 -0.32466359943E+02 -0.14552990926E+02  0.50528873934E+02  0.30000042811E+02 0.  0.
         12    1    3    3    0    0  0.19680204765E+02  0.32466359943E+02  0.14552990926E+02  0.40659126066E+02  0.00000000000E+00 0. -1.
         11    1    4    4    0    0 -0.11229194625E+02 -0.59225056236E+01  0.84569238588E+00  0.12723446100E+02  0.51100000000E-03 0. -1.
        -11    1    4    4    0    0 -0.92438843523E+01 -0.35546584679E+01 -0.10210769212E+02  0.14224795356E+02  0.51100000000E-03 0.  1.
         12    1    4    4    0    0  0.79287421196E+00 -0.22989195851E+02 -0.51879141002E+01  0.23580632479E+02  0.00000000000E+00 0. -1.
</event>
<event>
 8    1  0.4964753E-012  0.9118800E+02  0.7816164E-02  0.1184000E+00
        -11   -1    0    0    0    0  0.00000000000E+00  0.00000000000E+00  0.45593999997E+02  0.45594000000E+02  0.51100000000E-03 0. -1.
         11   -1    0    0    0    0 -0.00000000000E+00 -0.00000000000E+00 -0.45593999997E+02  0.45594000000E+02  0.51100000000E-03 0.  1.
         23    2    1    2    0    0 -0.35527136788E-14  0.00000000000E+00  0.88817841970E-15  0.91188000000E+02  0.91188000000E+02 0.  0.
    9900012    2    3    3    0    0 -0.28395493390E+02 -0.28275111864E+02 -0.68832055520E+01  0.50528874155E+02  0.30000043483E+02 0.  0.
        -12    1    3    3    0    0  0.28395493390E+02  0.28275111864E+02  0.68832055520E+01  0.40659125845E+02  0.00000000000E+00 0.  1.
         11    1    4    4    0    0 -0.24289073208E+02 -0.11975349706E+02 -0.64676645593E+01  0.27842391474E+02  0.51100000000E-03 0. -1.
        -11    1    4    4    0    0 -0.45979799870E+01 -0.44862838832E+00 -0.43515901786E+01  0.63465758276E+01  0.51100000000E-03 0.  1.
        -12    1    4    4    0    0  0.49155980448E+00 -0.15851133769E+02  0.39360491859E+01  0.16339906854E+02  0.00000000000E+00 0.  1.
</event>
<event>
 8    1  0.4964753E-012  0.9118800E+02  0.7816164E-02  0.1184000E+00
        -11   -1    0    0    0    0  0.00000000000E+00  0.00000000000E+00  0.45593999997E+02  0.45594000000E+02  0.51100000000E-03 0. -1.
         11   -1    0    0    0    0 -0.00000000000E+00 -0.00000000000E+00 -0.45593999997E+02  0.45594000000E+02  0.51100000000E-03 0.  1.
         23    2    1    2    0    0  0.00000000000E+00 -0.17763568394E-14  0.71054273576E-14  0.91188000000E+02  0.91188000000E+02 0.  0.
    9900012    2    3    3    0    0  0.18923776000E+01  0.13917798540E+02 -0.38155990558E+02  0.50528858043E+02  0.29999994508E+02 0.  0.
         12    1    3    3    0    0 -0.18923776000E+01 -0.13917798540E+02  0.38155990558E+02  0.40659141957E+02  0.00000000000E+00 0. -1.
         11    1    4    4    0    0  0.38316237676E+01 -0.66429197214E+00 -0.37761607645E+00  0.39070729047E+01  0.51100000000E-03 0. -1.
        -11    1    4    4    0    0 -0.86687918635E+01 -0.24289231154E+01 -0.11558806075E+02  0.14651062010E+02  0.51100000000E-03 0.  1.
         12    1    4    4    0    0  0.67295456959E+01  0.17011013628E+02 -0.26219568407E+02  0.31970723128E+02  0.00000000000E+00 0. -1.
</event>
<event>
 8    1  0.4964753E-012  0.9118800E+02  0.7816164E-02  0.1184000E+00
        -11   -1    0    0    0    0  0.00000000000E+00  0.00000000000E+00  0.45593999997E+02  0.45594000000E+02  0.51100000000E-03 0. -1.
         11   -1    0    0    0    0 -0.00000000000E+00 -0.00000000000E+00 -0.45593999997E+02  0.45594000000E+02  0.51100000000E-03 0.  1.
         23    2    1    2    0    0 -0.35527136788E-14  0.35527136788E-14  0.00000000000E+00  0.91188000000E+02  0.91188000000E+02 0.  0.
    9900012    2    3    3    0    0 -0.24548668326E+02  0.26488105131E+02  0.18678878756E+02  0.50528962362E+02  0.30000311595E+02 0.  0.
        -12    1    3    3    0    0  0.24548668326E+02 -0.26488105131E+02 -0.18678878756E+02  0.40659037638E+02  0.00000000000E+00 0.  1.
         11    1    4    4    0    0  0.50580725908E+01  0.46741545719E+01  0.92072140662E+01  0.11498026371E+02  0.51100000000E-03 0. -1.
        -11    1    4    4    0    0 -0.14268242548E+02  0.56580682430E+01  0.17282569266E+01  0.15446143658E+02  0.51100000000E-03 0.  1.
        -12    1    4    4    0    0 -0.15338498368E+02  0.16155882317E+02  0.77434077635E+01  0.23584792334E+02  0.00000000000E+00 0.  1.
</event>
<event>
 8    1  0.4964753E-012  0.9118800E+02  0.7816164E-02  0.1184000E+00
        -11   -1    0    0    0    0  0.00000000000E+00  0.00000000000E+00  0.45593999997E+02  0.45594000000E+02  0.51100000000E-03 0. -1.
         11   -1    0    0    0    0 -0.00000000000E+00 -0.00000000000E+00 -0.45593999997E+02  0.45594000000E+02  0.51100000000E-03 0.  1.
         23    2    1    2    0    0  0.00000000000E+00  0.00000000000E+00  0.35527136788E-14  0.91188000000E+02  0.91188000000E+02 0.  0.
    9900012    2    3    3    0    0  0.36358772315E+02  0.33166441278E+01  0.17894345177E+02  0.50528830778E+02  0.29999911632E+02 0.  0.
        -12    1    3    3    0    0 -0.36358772315E+02 -0.33166441278E+01 -0.17894345177E+02  0.40659169222E+02  0.00000000000E+00 0.  1.
         11    1    4    4    0    0  0.12226194671E+02  0.65310428073E+01  0.13969582958E+02  0.19679522468E+02  0.51100000000E-03 0. -1.
        -11    1    4    4    0    0  0.13798180230E+02 -0.91435002452E+01  0.78298778501E+01  0.18311208638E+02  0.51100000000E-03 0.  1.
         12    1    4    4    0    0  0.10334397414E+02  0.59291015657E+01 -0.39051156306E+01  0.12538099672E+02  0.00000000000E+00 0. -1.
</event>
<event>
 8    1  0.4964753E-012  0.9118800E+02  0.7816164E-02  0.1184000E+00
        -11   -1    0    0    0    0  0.00000000000E+00  0.00000000000E+00  0.45593999997E+02  0.45594000000E+02  0.51100000000E-03 0.  1.
         11   -1    0    0    0    0 -0.00000000000E+00 -0.00000000000E+00 -0.45593999997E+02  0.45594000000E+02  0.51100000000E-03 0. -1.
         23    2    1    2    0    0  0.00000000000E+00  0.71054273576E-14  0.00000000000E+00  0.91188000000E+02  0.91188000000E+02 0.  0.
    9900012    2    3    3    0    0 -0.20364519679E+02  0.32943794065E+02 -0.12375682717E+02  0.50528871235E+02  0.30000034607E+02 0.  0.
         12    1    3    3    0    0  0.20364519679E+02 -0.32943794065E+02  0.12375682717E+02  0.40659128765E+02  0.00000000000E+00 0. -1.
         11    1    4    4    0    0  0.26342262686E+01  0.36565150181E+01 -0.93039329510E+01  0.10337911720E+02  0.51100000000E-03 0. -1.
        -11    1    4    4    0    0 -0.80958810339E+01  0.10932237004E+01 -0.20504701640E+00  0.81719319817E+01  0.51100000000E-03 0.  1.
        -12    1    4    4    0    0 -0.14902864914E+02  0.28194055347E+02 -0.28667027493E+01  0.32019027534E+02  0.00000000000E+00 0.  1.
</event>
<event>
 8    1  0.4964753E-012  0.9118800E+02  0.7816164E-02  0.1184000E+00
        -11   -1    0    0    0    0  0.00000000000E+00  0.00000000000E+00  0.45593999997E+02  0.45594000000E+02  0.51100000000E-03 0. -1.
         11   -1    0    0    0    0 -0.00000000000E+00 -0.00000000000E+00 -0.45593999997E+02  0.45594000000E+02  0.51100000000E-03 0.  1.
         23    2    1    2    0    0 -0.17763568394E-14 -0.35527136788E-14  0.00000000000E+00  0.91188000000E+02  0.91188000000E+02 0.  0.
    9900012    2    3    3    0    0 -0.15875086318E+02 -0.17179824029E+02 -0.33256568398E+02  0.50528879733E+02  0.30000060438E+02 0.  0.
         12    1    3    3    0    0  0.15875086318E+02  0.17179824029E+02  0.33256568398E+02  0.40659120267E+02  0.00000000000E+00 0. -1.
         11    1    4    4    0    0 -0.12705728638E+02  0.49357420316E+00 -0.10033607943E+02  0.16197297439E+02  0.51100000000E-03 0. -1.
        -11    1    4    4    0    0 -0.25116680191E+01 -0.12213061010E+01  0.25277113241E+01  0.37668806232E+01  0.51100000000E-03 0.  1.
        -12    1    4    4    0    0 -0.65768966081E+00 -0.16452092131E+02 -0.25750671779E+02  0.30564701671E+02  0.00000000000E+00 0.  1.
</event>
<event>
 8    1  0.4964753E-012  0.9118800E+02  0.7816164E-02  0.1184000E+00
        -11   -1    0    0    0    0  0.00000000000E+00  0.00000000000E+00  0.45593999997E+02  0.45594000000E+02  0.51100000000E-03 0. -1.
         11   -1    0    0    0    0 -0.00000000000E+00 -0.00000000000E+00 -0.45593999997E+02  0.45594000000E+02  0.51100000000E-03 0.  1.
         23    2    1    2    0    0 -0.17763568394E-14 -0.35527136788E-14  0.00000000000E+00  0.91188000000E+02  0.91188000000E+02 0.  0.
    9900012    2    3    3    0    0  0.80902769483E+01  0.15658476304E+02  0.36640500513E+02  0.50528846798E+02  0.29999960327E+02 0.  0.
        -12    1    3    3    0    0 -0.80902769483E+01 -0.15658476304E+02 -0.36640500513E+02  0.40659153202E+02  0.00000000000E+00 0.  1.
         11    1    4    4    0    0 -0.20752011229E+01  0.12043231925E+02  0.14779415622E+02  0.19177513429E+02  0.51100000000E-03 0. -1.
        -11    1    4    4    0    0  0.60826481505E+01  0.90123539258E+00  0.24856699723E+02  0.25605982800E+02  0.51100000000E-03 0.  1.
        -12    1    4    4    0    0  0.40828299207E+01  0.27140089865E+01 -0.29956148326E+01  0.57453505694E+01  0.00000000000E+00 0.  1.
</event>
<event>
 8    1  0.4964753E-012  0.9118800E+02  0.7816164E-02  0.1184000E+00
        -11   -1    0    0    0    0  0.00000000000E+00  0.00000000000E+00  0.45593999997E+02  0.45594000000E+02  0.51100000000E-03 0. -1.
         11   -1    0    0    0    0 -0.00000000000E+00 -0.00000000000E+00 -0.45593999997E+02  0.45594000000E+02  0.51100000000E-03 0.  1.
         23    2    1    2    0    0 -0.71054273576E-14 -0.88817841970E-15  0.71054273576E-14  0.91188000000E+02  0.91188000000E+02 0.  0.
    9900012    2    3    3    0    0  0.19841866265E+02  0.74222639443E+01 -0.34704108872E+02  0.50528870256E+02  0.30000031631E+02 0.  0.
         12    1    3    3    0    0 -0.19841866265E+02 -0.74222639443E+01  0.34704108872E+02  0.40659129744E+02  0.00000000000E+00 0. -1.
         11    1    4    4    0    0  0.96397480442E+01  0.11153645739E+02 -0.10850598961E+02  0.18304754948E+02  0.51100000000E-03 0. -1.
        -11    1    4    4    0    0  0.13854845439E+02 -0.20534946211E+01 -0.24433060550E+02  0.28162883914E+02  0.51100000000E-03 0.  1.
        -12    1    4    4    0    0 -0.36527272175E+01 -0.16778871734E+01  0.57955063938E+00  0.40612313940E+01  0.00000000000E+00 0.  1.
</event>
<event>
 8    1  0.4964753E-012  0.9118800E+02  0.7816164E-02  0.1184000E+00
        -11   -1    0    0    0    0  0.00000000000E+00  0.00000000000E+00  0.45593999997E+02  0.45594000000E+02  0.51100000000E-03 0.  1.
         11   -1    0    0    0    0 -0.00000000000E+00 -0.00000000000E+00 -0.45593999997E+02  0.45594000000E+02  0.51100000000E-03 0. -1.
         23    2    1    2    0    0  0.00000000000E+00  0.17763568394E-14  0.00000000000E+00  0.91188000000E+02  0.91188000000E+02 0.  0.
    9900012    2    3    3    0    0  0.38107244298E+02  0.76991295586E+01 -0.11904887825E+02  0.50528867962E+02  0.30000024657E+02 0.  0.
         12    1    3    3    0    0 -0.38107244298E+02 -0.76991295586E+01  0.11904887825E+02  0.40659132038E+02  0.00000000000E+00 0. -1.
         11    1    4    4    0    0  0.60178464718E+01 -0.29262875590E+01  0.33803581437E+01  0.74969631503E+01  0.51100000000E-03 0. -1.
        -11    1    4    4    0    0  0.31546484888E+02  0.10354607921E+02 -0.60162289760E+01  0.33743052994E+02  0.51100000000E-03 0.  1.
        -12    1    4    4    0    0  0.54291293831E+00  0.27080919626E+00 -0.92690169925E+01  0.92888518174E+01  0.00000000000E+00 0.  1.
</event>
<event>
 8    1  0.4964753E-012  0.9118800E+02  0.7816164E-02  0.1184000E+00
        -11   -1    0    0    0    0  0.00000000000E+00  0.00000000000E+00  0.45593999997E+02  0.45594000000E+02  0.51100000000E-03 0. -1.
         11   -1    0    0    0    0 -0.00000000000E+00 -0.00000000000E+00 -0.45593999997E+02  0.45594000000E+02  0.51100000000E-03 0.  1.
         23    2    1    2    0    0 -0.35527136788E-14  0.00000000000E+00  0.00000000000E+00  0.91188000000E+02  0.91188000000E+02 0.  0.
    9900012    2    3    3    0    0 -0.12835792153E+02  0.49960156070E+01 -0.38255043212E+02  0.50528855109E+02  0.29999985590E+02 0.  0.
         12    1    3    3    0    0  0.12835792153E+02 -0.49960156070E+01  0.38255043212E+02  0.40659144891E+02  0.00000000000E+00 0. -1.
         11    1    4    4    0    0  0.13639269884E+01  0.15441450867E+01 -0.16380777951E+01  0.26321056214E+01  0.51100000000E-03 0. -1.
        -11    1    4    4    0    0 -0.19802698456E+02  0.10058546477E+02 -0.26096105891E+02  0.34268468982E+02  0.51100000000E-03 0.  1.
         12    1    4    4    0    0  0.56029793152E+01 -0.66066759570E+01 -0.10520859525E+02  0.13628280506E+02  0.00000000000E+00 0. -1.
</event>
<event>
 8    1  0.4964753E-012  0.9118800E+02  0.7816164E-02  0.1184000E+00
        -11   -1    0    0    0    0  0.00000000000E+00  0.00000000000E+00  0.45593999997E+02  0.45594000000E+02  0.51100000000E-03 0. -1.
         11   -1    0    0    0    0 -0.00000000000E+00 -0.00000000000E+00 -0.45593999997E+02  0.45594000000E+02  0.51100000000E-03 0.  1.
         23    2    1    2    0    0  0.17763568394E-14 -0.35527136788E-14 -0.35527136788E-14  0.91188000000E+02  0.91188000000E+02 0.  0.
    9900012    2    3    3    0    0 -0.12128528718E+02 -0.25467893972E+02  0.29282250013E+02  0.50528868208E+02  0.30000025404E+02 0.  0.
        -12    1    3    3    0    0  0.12128528718E+02  0.25467893972E+02 -0.29282250013E+02  0.40659131792E+02  0.00000000000E+00 0.  1.
         11    1    4    4    0    0 -0.67260994544E+01 -0.39823490624E+01  0.27323194038E+01  0.82804038254E+01  0.51100000000E-03 0. -1.
        -11    1    4    4    0    0 -0.86866825463E+01 -0.25821139259E+02  0.20374423335E+02  0.34019212407E+02  0.51100000000E-03 0.  1.
        -12    1    4    4    0    0  0.32842532823E+01  0.43355943486E+01  0.61755072748E+01  0.82292519757E+01  0.00000000000E+00 0.  1.
</event>
<event>
 8    1  0.4964753E-012  0.9118800E+02  0.7816164E-02  0.1184000E+00
        -11   -1    0    0    0    0  0.00000000000E+00  0.00000000000E+00  0.45593999997E+02  0.45594000000E+02  0.51100000000E-03 0. -1.
         11   -1    0    0    0    0 -0.00000000000E+00 -0.00000000000E+00 -0.45593999997E+02  0.45594000000E+02  0.51100000000E-03 0.  1.
         23    2    1    2    0    0  0.11102230246E-15  0.00000000000E+00  0.35527136788E-14  0.91188000000E+02  0.91188000000E+02 0.  0.
    9900012    2    3    3    0    0 -0.84923705725E+00  0.35155964534E+02  0.20408369913E+02  0.50528873000E+02  0.30000039972E+02 0.  0.
        -12    1    3    3    0    0  0.84923705725E+00 -0.35155964534E+02 -0.20408369913E+02  0.40659127000E+02  0.00000000000E+00 0.  1.
         11    1    4    4    0    0  0.22555473362E+01 -0.12027077571E+00  0.25693468854E+01  0.34210382231E+01  0.51100000000E-03 0. -1.
        -11    1    4    4    0    0  0.31154555771E+01  0.58516687043E+01  0.15599516442E+02  0.16949719867E+02  0.51100000000E-03 0.  1.
         12    1    4    4    0    0 -0.62202399705E+01  0.29424566605E+02  0.22395065848E+01  0.30158114910E+02  0.00000000000E+00 0. -1.
</event>
<event>
 8    1  0.4964753E-012  0.9118800E+02  0.7816164E-02  0.1184000E+00
        -11   -1    0    0    0    0  0.00000000000E+00  0.00000000000E+00  0.45593999997E+02  0.45594000000E+02  0.51100000000E-03 0. -1.
         11   -1    0    0    0    0 -0.00000000000E+00 -0.00000000000E+00 -0.45593999997E+02  0.45594000000E+02  0.51100000000E-03 0.  1.
         23    2    1    2    0    0  0.88817841970E-15 -0.17763568394E-14  0.00000000000E+00  0.91188000000E+02  0.91188000000E+02 0.  0.
    9900012    2    3    3    0    0  0.66578234907E+01 -0.12537274419E+02  0.38100603824E+02  0.50528857421E+02  0.29999992618E+02 0.  0.
        -12    1    3    3    0    0 -0.66578234907E+01  0.12537274419E+02 -0.38100603824E+02  0.40659142579E+02  0.00000000000E+00 0.  1.
         11    1    4    4    0    0  0.48752940088E+01  0.40512822141E+01  0.28667004728E+02  0.29359471037E+02  0.51100000000E-03 0. -1.
        -11    1    4    4    0    0  0.35231031422E+01 -0.17051243121E+01  0.13308615550E+01  0.41341138603E+01  0.51100000000E-03 0.  1.
        -12    1    4    4    0    0 -0.17405736603E+01 -0.14883432321E+02  0.81027375411E+01  0.17035272524E+02  0.00000000000E+00 0.  1.
</event>
<event>
 8    1  0.4964753E-012  0.9118800E+02  0.7816164E-02  0.1184000E+00
        -11   -1    0    0    0    0  0.00000000000E+00  0.00000000000E+00  0.45593999997E+02  0.45594000000E+02  0.51100000000E-03 0. -1.
         11   -1    0    0    0    0 -0.00000000000E+00 -0.00000000000E+00 -0.45593999997E+02  0.45594000000E+02  0.51100000000E-03 0.  1.
         23    2    1    2    0    0  0.00000000000E+00  0.35527136788E-14  0.00000000000E+00  0.91188000000E+02  0.91188000000E+02 0.  0.
    9900012    2    3    3    0    0  0.78907434846E+01 -0.21729938342E+02 -0.33447146618E+02  0.50528859946E+02  0.30000000291E+02 0.  0.
         12    1    3    3    0    0 -0.78907434846E+01  0.21729938342E+02  0.33447146618E+02  0.40659140054E+02  0.00000000000E+00 0. -1.
         11    1    4    4    0    0 -0.20121615024E+01 -0.10113321872E+02 -0.18947455584E+02  0.21571605099E+02  0.51100000000E-03 0. -1.
        -11    1    4    4    0    0 -0.44752576958E+01  0.23201197559E+01 -0.28404944390E+01  0.57861296257E+01  0.51100000000E-03 0.  1.
         12    1    4    4    0    0  0.14378162683E+02 -0.13936736226E+02 -0.11659196595E+02  0.23171125221E+02  0.00000000000E+00 0. -1.
</event>
<event>
 8    1  0.5764273E-012  0.9118800E+02  0.7816164E-02  0.1184000E+00
        -11   -1    0    0    0    0  0.00000000000E+00  0.00000000000E+00  0.45593999997E+02  0.45594000000E+02  0.51100000000E-03 0. -1.
         11   -1    0    0    0    0 -0.00000000000E+00 -0.00000000000E+00 -0.45593999997E+02  0.45594000000E+02  0.51100000000E-03 0.  1.
         23    2    1    2    0    0 -0.35527136788E-14  0.00000000000E+00  0.00000000000E+00  0.91188000000E+02  0.91188000000E+02 0.  0.
    9900012    2    3    3    0    0 -0.14288528570E+02  0.17510330440E+01 -0.38025446770E+02  0.50528895638E+02  0.30000108782E+02 0.  0.
         12    1    3    3    0    0  0.14288528570E+02 -0.17510330440E+01  0.38025446770E+02  0.40659104362E+02  0.00000000000E+00 0. -1.
         11    1    4    4    0    0 -0.81408957711E+01 -0.16056261749E+01 -0.20971375131E+01  0.85586333827E+01  0.51100000000E-03 0. -1.
        -11    1    4    4    0    0 -0.10693782915E+02  0.66973052702E+01 -0.33556516466E+02  0.35850393143E+02  0.51100000000E-03 0.  1.
         12    1    4    4    0    0  0.45461501159E+01 -0.33406460513E+01 -0.23717927915E+01  0.61198691132E+01  0.00000000000E+00 0. -1.
</event>
<event>
 8    1  0.4964753E-012  0.9118800E+02  0.7816164E-02  0.1184000E+00
        -11   -1    0    0    0    0  0.00000000000E+00  0.00000000000E+00  0.45593999997E+02  0.45594000000E+02  0.51100000000E-03 0. -1.
         11   -1    0    0    0    0 -0.00000000000E+00 -0.00000000000E+00 -0.45593999997E+02  0.45594000000E+02  0.51100000000E-03 0.  1.
         23    2    1    2    0    0  0.00000000000E+00 -0.88817841970E-15  0.00000000000E+00  0.91188000000E+02  0.91188000000E+02 0.  0.
    9900012    2    3    3    0    0  0.47504052059E+01 -0.54862336137E+01 -0.40006199548E+02  0.50528916007E+02  0.30000170695E+02 0.  0.
         12    1    3    3    0    0 -0.47504052059E+01  0.54862336137E+01  0.40006199548E+02  0.40659083993E+02  0.00000000000E+00 0. -1.
         11    1    4    4    0    0 -0.44286848672E+01 -0.85718180380E+01 -0.13442673078E+02  0.16546745114E+02  0.51100000000E-03 0. -1.
        -11    1    4    4    0    0  0.71781923965E+01 -0.68954076804E+01 -0.18454211966E+02  0.20967380206E+02  0.51100000000E-03 0.  1.
         12    1    4    4    0    0  0.20008976766E+01  0.99809921047E+01 -0.81093145039E+01  0.13014790687E+02  0.00000000000E+00 0. -1.
</event>
<event>
 8    1  0.4964753E-012  0.9118800E+02  0.7816164E-02  0.1184000E+00
        -11   -1    0    0    0    0  0.00000000000E+00  0.00000000000E+00  0.45593999997E+02  0.45594000000E+02  0.51100000000E-03 0.  1.
         11   -1    0    0    0    0 -0.00000000000E+00 -0.00000000000E+00 -0.45593999997E+02  0.45594000000E+02  0.51100000000E-03 0. -1.
         23    2    1    2    0    0  0.88817841970E-15  0.00000000000E+00  0.00000000000E+00  0.91188000000E+02  0.91188000000E+02 0.  0.
    9900012    2    3    3    0    0  0.64829608308E+01  0.37798101272E+02  0.13507047883E+02  0.50528861010E+02  0.30000003526E+02 0.  0.
         12    1    3    3    0    0 -0.64829608308E+01 -0.37798101272E+02 -0.13507047883E+02  0.40659138990E+02  0.00000000000E+00 0. -1.
         11    1    4    4    0    0 -0.31860303507E+00  0.22692851185E+02  0.25464016271E+01  0.22837494703E+02  0.51100000000E-03 0. -1.
        -11    1    4    4    0    0  0.95069428168E+01  0.18355673481E+02  0.11093792241E+02  0.23460284252E+02  0.51100000000E-03 0.  1.
         12    1    4    4    0    0 -0.27053789509E+01 -0.32504233933E+01 -0.13314598482E+00  0.42310820551E+01  0.00000000000E+00 0. -1.
</event>
<event>
 8    1  0.4964753E-012  0.9118800E+02  0.7816164E-02  0.1184000E+00
        -11   -1    0    0    0    0  0.00000000000E+00  0.00000000000E+00  0.45593999997E+02  0.45594000000E+02  0.51100000000E-03 0. -1.
         11   -1    0    0    0    0 -0.00000000000E+00 -0.00000000000E+00 -0.45593999997E+02  0.45594000000E+02  0.51100000000E-03 0.  1.
         23    2    1    2    0    0  0.00000000000E+00  0.35527136788E-14  0.00000000000E+00  0.91188000000E+02  0.91188000000E+02 0.  0.
    9900012    2    3    3    0    0  0.31474840517E+02  0.23195969274E+02 -0.11155583148E+02  0.50528860664E+02  0.30000002475E+02 0.  0.
         12    1    3    3    0    0 -0.31474840517E+02 -0.23195969274E+02  0.11155583148E+02  0.40659139336E+02  0.00000000000E+00 0. -1.
         11    1    4    4    0    0  0.72614454899E+01  0.26973420347E+00  0.32715074523E+01  0.79689465059E+01  0.51100000000E-03 0. -1.
        -11    1    4    4    0    0  0.19173127735E+02  0.18164320695E+02  0.15666432965E+00  0.26411662527E+02  0.51100000000E-03 0.  1.
         12    1    4    4    0    0  0.50402672918E+01  0.47619143759E+01 -0.14583754930E+02  0.16148251632E+02  0.00000000000E+00 0. -1.
</event>
<event>
 8    1  0.4964753E-012  0.9118800E+02  0.7816164E-02  0.1184000E+00
        -11   -1    0    0    0    0  0.00000000000E+00  0.00000000000E+00  0.45593999997E+02  0.45594000000E+02  0.51100000000E-03 0. -1.
         11   -1    0    0    0    0 -0.00000000000E+00 -0.00000000000E+00 -0.45593999997E+02  0.45594000000E+02  0.51100000000E-03 0.  1.
         23    2    1    2    0    0  0.00000000000E+00  0.00000000000E+00  0.00000000000E+00  0.91188000000E+02  0.91188000000E+02 0.  0.
    9900012    2    3    3    0    0 -0.75136979047E+00 -0.95080501923E+01  0.39524639463E+02  0.50528871877E+02  0.30000036558E+02 0.  0.
        -12    1    3    3    0    0  0.75136979047E+00  0.95080501923E+01 -0.39524639463E+02  0.40659128123E+02  0.00000000000E+00 0.  1.
         11    1    4    4    0    0  0.25076239505E+01 -0.15798013214E+02  0.28763730644E+02  0.32912271271E+02  0.51100000000E-03 0. -1.
        -11    1    4    4    0    0  0.37937880038E+01  0.75436206321E+00  0.36002870498E+00  0.38847793335E+01  0.51100000000E-03 0.  1.
        -12    1    4    4    0    0 -0.70527817448E+01  0.55356009589E+01  0.10400880115E+02  0.13731821273E+02  0.00000000000E+00 0.  1.
</event>
<event>
 8    1  0.4964753E-012  0.9118800E+02  0.7816164E-02  0.1184000E+00
        -11   -1    0    0    0    0  0.00000000000E+00  0.00000000000E+00  0.45593999997E+02  0.45594000000E+02  0.51100000000E-03 0. -1.
         11   -1    0    0    0    0 -0.00000000000E+00 -0.00000000000E+00 -0.45593999997E+02  0.45594000000E+02  0.51100000000E-03 0.  1.
         23    2    1    2    0    0  0.00000000000E+00  0.00000000000E+00  0.00000000000E+00  0.91188000000E+02  0.91188000000E+02 0.  0.
    9900012    2    3    3    0    0  0.36311798308E+02  0.13830819159E+02 -0.11971990606E+02  0.50528845876E+02  0.29999957525E+02 0.  0.
         12    1    3    3    0    0 -0.36311798308E+02 -0.13830819159E+02  0.11971990606E+02  0.40659154124E+02  0.00000000000E+00 0. -1.
         11    1    4    4    0    0  0.74179375956E+01 -0.72816707057E+00 -0.25522383551E+01  0.78784482188E+01  0.51100000000E-03 0. -1.
        -11    1    4    4    0    0  0.26284405145E+02  0.19424018313E+02 -0.13924159080E+02  0.35525267735E+02  0.51100000000E-03 0.  1.
         12    1    4    4    0    0  0.26094555672E+01 -0.48650320835E+01  0.45044068292E+01  0.71251299226E+01  0.00000000000E+00 0. -1.
</event>
<event>
 8    1  0.4964753E-012  0.9118800E+02  0.7816164E-02  0.1184000E+00
        -11   -1    0    0    0    0  0.00000000000E+00  0.00000000000E+00  0.45593999997E+02  0.45594000000E+02  0.51100000000E-03 0.  1.
         11   -1    0    0    0    0 -0.00000000000E+00 -0.00000000000E+00 -0.45593999997E+02  0.45594000000E+02  0.51100000000E-03 0. -1.
         23    2    1    2    0    0  0.35527136788E-14 -0.88817841970E-15  0.00000000000E+00  0.91188000000E+02  0.91188000000E+02 0.  0.
    9900012    2    3    3    0    0  0.23947484909E+02 -0.55088244829E+01 -0.32393477712E+02  0.50528848767E+02  0.29999966313E+02 0.  0.
         12    1    3    3    0    0 -0.23947484909E+02  0.55088244829E+01  0.32393477712E+02  0.40659151233E+02  0.00000000000E+00 0. -1.
         11    1    4    4    0    0 -0.41851924803E+01  0.48298868178E+01 -0.11120668912E+02  0.12826259005E+02  0.51100000000E-03 0. -1.
        -11    1    4    4    0    0  0.43462127999E+01 -0.52279558965E+01 -0.46816370424E+01  0.82546238082E+01  0.51100000000E-03 0.  1.
        -12    1    4    4    0    0  0.23786464590E+02 -0.51107554042E+01 -0.16591171758E+02  0.29447965954E+02  0.00000000000E+00 0.  1.
</event>
<event>
 8    1  0.5146442E-012  0.9118800E+02  0.7816164E-02  0.1184000E+00
        -11   -1    0    0    0    0  0.00000000000E+00  0.00000000000E+00  0.45593999997E+02  0.45594000000E+02  0.51100000000E-03 0. -1.
         11   -1    0    0    0    0 -0.00000000000E+00 -0.00000000000E+00 -0.45593999997E+02  0.45594000000E+02  0.51100000000E-03 0.  1.
         23    2    1    2    0    0  0.35527136788E-14  0.88817841970E-15  0.00000000000E+00  0.91188000000E+02  0.91188000000E+02 0.  0.
    9900012    2    3    3    0    0 -0.27224155288E+02  0.42040614004E+01 -0.29905473227E+02  0.50528854752E+02  0.29999984503E+02 0.  0.
         12    1    3    3    0    0  0.27224155288E+02 -0.42040614004E+01  0.29905473227E+02  0.40659145248E+02  0.00000000000E+00 0. -1.
         11    1    4    4    0    0 -0.23734914060E+01  0.80075184420E+01 -0.12923142330E+02  0.15387053682E+02  0.51100000000E-03 0.  1.
        -11    1    4    4    0    0 -0.18901627092E+02  0.54647110075E+01 -0.12068757652E+02  0.23082233095E+02  0.51100000000E-03 0. -1.
         12    1    4    4    0    0 -0.59490367904E+01 -0.92681680491E+01 -0.49135732445E+01  0.12059567975E+02  0.00000000000E+00 0. -1.
</event>
<event>
 8    1  0.4964753E-012  0.9118800E+02  0.7816164E-02  0.1184000E+00
        -11   -1    0    0    0    0  0.00000000000E+00  0.00000000000E+00  0.45593999997E+02  0.45594000000E+02  0.51100000000E-03 0. -1.
         11   -1    0    0    0    0 -0.00000000000E+00 -0.00000000000E+00 -0.45593999997E+02  0.45594000000E+02  0.51100000000E-03 0.  1.
         23    2    1    2    0    0  0.00000000000E+00 -0.17763568394E-14  0.00000000000E+00  0.91188000000E+02  0.91188000000E+02 0.  0.
    9900012    2    3    3    0    0 -0.26003947770E+02 -0.14371765243E+02 -0.27756307977E+02  0.50528861196E+02  0.30000004091E+02 0.  0.
         12    1    3    3    0    0  0.26003947770E+02  0.14371765243E+02  0.27756307977E+02  0.40659138804E+02  0.00000000000E+00 0. -1.
         11    1    4    4    0    0 -0.52517872379E+01 -0.84488347007E+01 -0.11547126535E+02  0.15241397852E+02  0.51100000000E-03 0. -1.
        -11    1    4    4    0    0 -0.11129441625E+02 -0.95034802614E+01 -0.19612327638E+02  0.24470880728E+02  0.51100000000E-03 0.  1.
        -12    1    4    4    0    0 -0.96227189070E+01  0.35805497193E+01  0.34031461968E+01  0.10816582616E+02  0.00000000000E+00 0.  1.
</event>
<event>
 8    1  0.4964753E-012  0.9118800E+02  0.7816164E-02  0.1184000E+00
        -11   -1    0    0    0    0  0.00000000000E+00  0.00000000000E+00  0.45593999997E+02  0.45594000000E+02  0.51100000000E-03 0. -1.
         11   -1    0    0    0    0 -0.00000000000E+00 -0.00000000000E+00 -0.45593999997E+02  0.45594000000E+02  0.51100000000E-03 0.  1.
         23    2    1    2    0    0  0.00000000000E+00  0.00000000000E+00  0.00000000000E+00  0.91188000000E+02  0.91188000000E+02 0.  0.
    9900012    2    3    3    0    0 -0.27835853583E+02  0.11241753718E+02 -0.27421783337E+02  0.50528856222E+02  0.29999988973E+02 0.  0.
         12    1    3    3    0    0  0.27835853583E+02 -0.11241753718E+02  0.27421783337E+02  0.40659143778E+02  0.00000000000E+00 0. -1.
         11    1    4    4    0    0 -0.23829750186E+02  0.51190983619E+01 -0.87106290034E+01  0.25883145479E+02  0.51100000000E-03 0. -1.
        -11    1    4    4    0    0 -0.71661450864E+01  0.36471444983E+01 -0.32514807842E+01  0.86733745418E+01  0.51100000000E-03 0.  1.
        -12    1    4    4    0    0  0.31600416894E+01  0.24755108579E+01 -0.15459673550E+02  0.15972336202E+02  0.00000000000E+00 0.  1.
</event>
<event>
 8    1  0.4964753E-012  0.9118800E+02  0.7816164E-02  0.1184000E+00
        -11   -1    0    0    0    0  0.00000000000E+00  0.00000000000E+00  0.45593999997E+02  0.45594000000E+02  0.51100000000E-03 0. -1.
         11   -1    0    0    0    0 -0.00000000000E+00 -0.00000000000E+00 -0.45593999997E+02  0.45594000000E+02  0.51100000000E-03 0.  1.
         23    2    1    2    0    0  0.35527136788E-14  0.71054273576E-14  0.35527136788E-14  0.91188000000E+02  0.91188000000E+02 0.  0.
    9900012    2    3    3    0    0  0.25793654860E+02  0.25998162567E+02  0.17662039462E+02  0.50528871555E+02  0.30000035579E+02 0.  0.
        -12    1    3    3    0    0 -0.25793654860E+02 -0.25998162567E+02 -0.17662039462E+02  0.40659128445E+02  0.00000000000E+00 0.  1.
         11    1    4    4    0    0  0.15473781995E+02  0.16795282074E+02  0.15290297911E+02  0.27482951800E+02  0.51100000000E-03 0. -1.
        -11    1    4    4    0    0  0.10064115492E+02  0.61477540192E+01 -0.66350529418E+01  0.13531638035E+02  0.51100000000E-03 0.  1.
         12    1    4    4    0    0  0.25575737310E+00  0.30551264743E+01  0.90067944930E+01  0.95142817199E+01  0.00000000000E+00 0. -1.
</event>
<event>
 8    1  0.4964753E-012  0.9118800E+02  0.7816164E-02  0.1184000E+00
        -11   -1    0    0    0    0  0.00000000000E+00  0.00000000000E+00  0.45593999997E+02  0.45594000000E+02  0.51100000000E-03 0.  1.
         11   -1    0    0    0    0 -0.00000000000E+00 -0.00000000000E+00 -0.45593999997E+02  0.45594000000E+02  0.51100000000E-03 0. -1.
         23    2    1    2    0    0  0.00000000000E+00  0.00000000000E+00  0.00000000000E+00  0.91188000000E+02  0.91188000000E+02 0.  0.
    9900012    2    3    3    0    0  0.23328830813E+02 -0.16143132741E+02 -0.29126115279E+02  0.50528859908E+02  0.30000000175E+02 0.  0.
         12    1    3    3    0    0 -0.23328830813E+02  0.16143132741E+02  0.29126115279E+02  0.40659140092E+02  0.00000000000E+00 0. -1.
         11    1    4    4    0    0 -0.14565434569E+01 -0.78151773194E+01 -0.13280420731E+02  0.15477987286E+02  0.51100000000E-03 0. -1.
        -11    1    4    4    0    0  0.57772057607E+01  0.46536919105E+01 -0.60194276502E+00  0.74428012302E+01  0.51100000000E-03 0.  1.
        -12    1    4    4    0    0  0.19008168509E+02 -0.12981647332E+02 -0.15243751783E+02  0.27608071391E+02  0.00000000000E+00 0.  1.
</event>
<event>
 8    1  0.5437451E-012  0.9118800E+02  0.7816164E-02  0.1184000E+00
        -11   -1    0    0    0    0  0.00000000000E+00  0.00000000000E+00  0.45593999997E+02  0.45594000000E+02  0.51100000000E-03 0. -1.
         11   -1    0    0    0    0 -0.00000000000E+00 -0.00000000000E+00 -0.45593999997E+02  0.45594000000E+02  0.51100000000E-03 0.  1.
         23    2    1    2    0    0  0.00000000000E+00  0.88817841970E-15  0.00000000000E+00  0.91188000000E+02  0.91188000000E+02 0.  0.
    9900012    2    3    3    0    0 -0.89782163097E+01 -0.74753131155E+01 -0.38944547025E+02  0.50528850756E+02  0.29999972357E+02 0.  0.
         12    1    3    3    0    0  0.89782163097E+01  0.74753131155E+01  0.38944547025E+02  0.40659149244E+02  0.00000000000E+00 0. -1.
         11    1    4    4    0    0 -0.80196945662E+01  0.19653698931E+01 -0.59846789045E+01  0.10197772384E+02  0.51100000000E-03 0. -1.
        -11    1    4    4    0    0 -0.85190296577E+01 -0.33933066685E+01 -0.27979075458E+02  0.29443455303E+02  0.51100000000E-03 0.  1.
         12    1    4    4    0    0  0.75605079142E+01 -0.60473763401E+01 -0.49807926629E+01  0.10887623068E+02  0.00000000000E+00 0. -1.
</event>
<event>
 8    1  0.4964753E-012  0.9118800E+02  0.7816164E-02  0.1184000E+00
        -11   -1    0    0    0    0  0.00000000000E+00  0.00000000000E+00  0.45593999997E+02  0.45594000000E+02  0.51100000000E-03 0. -1.
         11   -1    0    0    0    0 -0.00000000000E+00 -0.00000000000E+00 -0.45593999997E+02  0.45594000000E+02  0.51100000000E-03 0.  1.
         23    2    1    2    0    0  0.00000000000E+00  0.00000000000E+00  0.71054273576E-14  0.91188000000E+02  0.91188000000E+02 0.  0.
    9900012    2    3    3    0    0 -0.52633726230E+01  0.77820978921E+01  0.39558825969E+02  0.50528870016E+02  0.30000030901E+02 0.  0.
        -12    1    3    3    0    0  0.52633726230E+01 -0.77820978921E+01 -0.39558825969E+02  0.40659129984E+02  0.00000000000E+00 0.  1.
         11    1    4    4    0    0 -0.37505158283E+01  0.14877043533E+02  0.19935541507E+02  0.25155886163E+02  0.51100000000E-03 0. -1.
        -11    1    4    4    0    0 -0.79542954629E+01 -0.35914260267E+01  0.11359162474E+02  0.14324794225E+02  0.51100000000E-03 0.  1.
         12    1    4    4    0    0  0.64414386682E+01 -0.35035196139E+01  0.82641219893E+01  0.11048189628E+02  0.00000000000E+00 0. -1.
</event>
<event>
 8    1  0.4964753E-012  0.9118800E+02  0.7816164E-02  0.1184000E+00
        -11   -1    0    0    0    0  0.00000000000E+00  0.00000000000E+00  0.45593999997E+02  0.45594000000E+02  0.51100000000E-03 0. -1.
         11   -1    0    0    0    0 -0.00000000000E+00 -0.00000000000E+00 -0.45593999997E+02  0.45594000000E+02  0.51100000000E-03 0.  1.
         23    2    1    2    0    0  0.00000000000E+00  0.00000000000E+00  0.00000000000E+00  0.91188000000E+02  0.91188000000E+02 0.  0.
    9900012    2    3    3    0    0 -0.17139616384E+02  0.28094319202E+02  0.23876939009E+02  0.50528862803E+02  0.30000008974E+02 0.  0.
        -12    1    3    3    0    0  0.17139616384E+02 -0.28094319202E+02 -0.23876939009E+02  0.40659137197E+02  0.00000000000E+00 0.  1.
         11    1    4    4    0    0 -0.66629122803E+01  0.11038998170E+02  0.12444722794E+02  0.17919961115E+02  0.51100000000E-03 0. -1.
        -11    1    4    4    0    0 -0.11586357570E+02 -0.14493838719E+01  0.67558846587E+01  0.13490232508E+02  0.51100000000E-03 0.  1.
        -12    1    4    4    0    0  0.11096534658E+01  0.18504704903E+02  0.46763315558E+01  0.19118669180E+02  0.00000000000E+00 0.  1.
</event>
<event>
 8    1  0.4964753E-012  0.9118800E+02  0.7816164E-02  0.1184000E+00
        -11   -1    0    0    0    0  0.00000000000E+00  0.00000000000E+00  0.45593999997E+02  0.45594000000E+02  0.51100000000E-03 0. -1.
         11   -1    0    0    0    0 -0.00000000000E+00 -0.00000000000E+00 -0.45593999997E+02  0.45594000000E+02  0.51100000000E-03 0.  1.
         23    2    1    2    0    0  0.00000000000E+00  0.00000000000E+00  0.00000000000E+00  0.91188000000E+02  0.91188000000E+02 0.  0.
    9900012    2    3    3    0    0 -0.18495659794E+02  0.19309146292E+02  0.30630592715E+02  0.50528858693E+02  0.29999996484E+02 0.  0.
        -12    1    3    3    0    0  0.18495659794E+02 -0.19309146292E+02 -0.30630592715E+02  0.40659141307E+02  0.00000000000E+00 0.  1.
         11    1    4    4    0    0 -0.86424872531E+00  0.30905291958E+01 -0.18094061737E+01  0.36840531391E+01  0.51100000000E-03 0. -1.
        -11    1    4    4    0    0 -0.20680624812E+02  0.14824792466E+02  0.15980415203E+02  0.30047235889E+02  0.51100000000E-03 0.  1.
        -12    1    4    4    0    0  0.30492137431E+01  0.13938246298E+01  0.16459583686E+02  0.16797569665E+02  0.00000000000E+00 0.  1.
</event>
<event>
 8    1  0.4964753E-012  0.9118800E+02  0.7816164E-02  0.1184000E+00
        -11   -1    0    0    0    0  0.00000000000E+00  0.00000000000E+00  0.45593999997E+02  0.45594000000E+02  0.51100000000E-03 0.  1.
         11   -1    0    0    0    0 -0.00000000000E+00 -0.00000000000E+00 -0.45593999997E+02  0.45594000000E+02  0.51100000000E-03 0. -1.
         23    2    1    2    0    0  0.00000000000E+00  0.00000000000E+00  0.17763568394E-14  0.91188000000E+02  0.91188000000E+02 0.  0.
    9900012    2    3    3    0    0 -0.25425708195E+02  0.27954642966E+02  0.15007921067E+02  0.50528851026E+02  0.29999973178E+02 0.  0.
         12    1    3    3    0    0  0.25425708195E+02 -0.27954642966E+02 -0.15007921067E+02  0.40659148974E+02  0.00000000000E+00 0. -1.
         11    1    4    4    0    0 -0.10267612557E+02  0.35631454013E+01  0.15535997172E+02  0.18960144545E+02  0.51100000000E-03 0. -1.
        -11    1    4    4    0    0 -0.48021220301E+01  0.16632344616E+02  0.41615294229E+01  0.17804875478E+02  0.51100000000E-03 0.  1.
        -12    1    4    4    0    0 -0.10355973607E+02  0.77591529493E+01 -0.46896055280E+01  0.13763831002E+02  0.00000000000E+00 0.  1.
</event>
<event>
 8    1  0.4964753E-012  0.9118800E+02  0.7816164E-02  0.1184000E+00
        -11   -1    0    0    0    0  0.00000000000E+00  0.00000000000E+00  0.45593999997E+02  0.45594000000E+02  0.51100000000E-03 0. -1.
         11   -1    0    0    0    0 -0.00000000000E+00 -0.00000000000E+00 -0.45593999997E+02  0.45594000000E+02  0.51100000000E-03 0.  1.
         23    2    1    2    0    0 -0.17763568394E-14  0.00000000000E+00  0.00000000000E+00  0.91188000000E+02  0.91188000000E+02 0.  0.
    9900012    2    3    3    0    0  0.15410438015E+02 -0.37348848082E+02  0.45548961653E+01  0.50528866561E+02  0.30000020400E+02 0.  0.
        -12    1    3    3    0    0 -0.15410438015E+02  0.37348848082E+02 -0.45548961653E+01  0.40659133439E+02  0.00000000000E+00 0.  1.
         11    1    4    4    0    0  0.13572249545E+02 -0.15072454686E+02 -0.24030191287E+01  0.20424479165E+02  0.51100000000E-03 0. -1.
        -11    1    4    4    0    0 -0.54918643260E+00 -0.14529852726E+02 -0.52425963718E+01  0.15456488701E+02  0.51100000000E-03 0.  1.
        -12    1    4    4    0    0  0.23873749030E+01 -0.77465406703E+01  0.12200511666E+02  0.14647898695E+02  0.00000000000E+00 0.  1.
</event>
<event>
 8    1  0.4964753E-012  0.9118800E+02  0.7816164E-02  0.1184000E+00
        -11   -1    0    0    0    0  0.00000000000E+00  0.00000000000E+00  0.45593999997E+02  0.45594000000E+02  0.51100000000E-03 0. -1.
         11   -1    0    0    0    0 -0.00000000000E+00 -0.00000000000E+00 -0.45593999997E+02  0.45594000000E+02  0.51100000000E-03 0.  1.
         23    2    1    2    0    0  0.00000000000E+00 -0.88817841970E-15  0.00000000000E+00  0.91188000000E+02  0.91188000000E+02 0.  0.
    9900012    2    3    3    0    0 -0.10456293515E+02  0.37611096475E+01  0.39111192043E+02  0.50528863722E+02  0.30000011769E+02 0.  0.
        -12    1    3    3    0    0  0.10456293515E+02 -0.37611096475E+01 -0.39111192043E+02  0.40659136278E+02  0.00000000000E+00 0.  1.
         11    1    4    4    0    0  0.40109820447E+01 -0.86828205556E+00  0.32796573533E+01  0.52533839862E+01  0.51100000000E-03 0. -1.
        -11    1    4    4    0    0 -0.85502869481E+01  0.44193655443E+01  0.70193325346E+00  0.96504357033E+01  0.51100000000E-03 0.  1.
         12    1    4    4    0    0 -0.59169886116E+01  0.21002615884E+00  0.35129601436E+02  0.35625044032E+02  0.00000000000E+00 0. -1.
</event>
<event>
 8    1  0.4964753E-012  0.9118800E+02  0.7816164E-02  0.1184000E+00
        -11   -1    0    0    0    0  0.00000000000E+00  0.00000000000E+00  0.45593999997E+02  0.45594000000E+02  0.51100000000E-03 0. -1.
         11   -1    0    0    0    0 -0.00000000000E+00 -0.00000000000E+00 -0.45593999997E+02  0.45594000000E+02  0.51100000000E-03 0.  1.
         23    2    1    2    0    0 -0.71054273576E-14  0.00000000000E+00 -0.71054273576E-14  0.91188000000E+02  0.91188000000E+02 0.  0.
    9900012    2    3    3    0    0 -0.29051483857E+02  0.81423683837E+01 -0.27255803920E+02  0.50528859275E+02  0.29999998252E+02 0.  0.
         12    1    3    3    0    0  0.29051483857E+02 -0.81423683837E+01  0.27255803920E+02  0.40659140725E+02  0.00000000000E+00 0. -1.
         11    1    4    4    0    0 -0.12963534719E+02  0.55105444274E+01 -0.66052488370E+01  0.15557912609E+02  0.51100000000E-03 0. -1.
        -11    1    4    4    0    0 -0.27838265709E+00 -0.87359594677E+01 -0.59686183720E+01  0.10583897687E+02  0.51100000000E-03 0.  1.
         12    1    4    4    0    0 -0.15809566481E+02  0.11367783424E+02 -0.14681936711E+02  0.24387048978E+02  0.00000000000E+00 0. -1.
</event>
<event>
 8    1  0.4964753E-012  0.9118800E+02  0.7816164E-02  0.1184000E+00
        -11   -1    0    0    0    0  0.00000000000E+00  0.00000000000E+00  0.45593999997E+02  0.45594000000E+02  0.51100000000E-03 0. -1.
         11   -1    0    0    0    0 -0.00000000000E+00 -0.00000000000E+00 -0.45593999997E+02  0.45594000000E+02  0.51100000000E-03 0.  1.
         23    2    1    2    0    0  0.00000000000E+00  0.00000000000E+00  0.00000000000E+00  0.91188000000E+02  0.91188000000E+02 0.  0.
    9900012    2    3    3    0    0 -0.30632807717E+02  0.23782040947E+02 -0.12215212347E+02  0.50528858433E+02  0.29999995694E+02 0.  0.
         12    1    3    3    0    0  0.30632807717E+02 -0.23782040947E+02  0.12215212347E+02  0.40659141567E+02  0.00000000000E+00 0. -1.
         11    1    4    4    0    0 -0.15092754689E+02  0.12752231678E+02 -0.14695220291E+00  0.19759358595E+02  0.51100000000E-03 0. -1.
        -11    1    4    4    0    0 -0.18308647064E+02  0.11954309645E+02 -0.15090735458E+02  0.26567694167E+02  0.51100000000E-03 0.  1.
         12    1    4    4    0    0  0.27685940357E+01 -0.92450037582E+00  0.30224753137E+01  0.42018056716E+01  0.00000000000E+00 0. -1.
</event>
<event>
 8    1  0.4964753E-012  0.9118800E+02  0.7816164E-02  0.1184000E+00
        -11   -1    0    0    0    0  0.00000000000E+00  0.00000000000E+00  0.45593999997E+02  0.45594000000E+02  0.51100000000E-03 0. -1.
         11   -1    0    0    0    0 -0.00000000000E+00 -0.00000000000E+00 -0.45593999997E+02  0.45594000000E+02  0.51100000000E-03 0.  1.
         23    2    1    2    0    0  0.00000000000E+00  0.44408920985E-15  0.00000000000E+00  0.91188000000E+02  0.91188000000E+02 0.  0.
    9900012    2    3    3    0    0 -0.21933419949E+02  0.24289323150E+01  0.34149536090E+02  0.50528862798E+02  0.30000008962E+02 0.  0.
        -12    1    3    3    0    0  0.21933419949E+02 -0.24289323150E+01 -0.34149536090E+02  0.40659137202E+02  0.00000000000E+00 0.  1.
         11    1    4    4    0    0 -0.18504975191E+02 -0.41351510368E+01  0.35979384008E+02  0.40670009279E+02  0.51100000000E-03 0.  1.
        -11    1    4    4    0    0 -0.20886644872E+01  0.27977104490E+01  0.22447280849E+01  0.41507237361E+01  0.51100000000E-03 0. -1.
        -12    1    4    4    0    0 -0.13397802702E+01  0.37663729027E+01 -0.40745760030E+01  0.57081297829E+01  0.00000000000E+00 0.  1.
</event>
<event>
 8    1  0.4964753E-012  0.9118800E+02  0.7816164E-02  0.1184000E+00
        -11   -1    0    0    0    0  0.00000000000E+00  0.00000000000E+00  0.45593999997E+02  0.45594000000E+02  0.51100000000E-03 0.  1.
         11   -1    0    0    0    0 -0.00000000000E+00 -0.00000000000E+00 -0.45593999997E+02  0.45594000000E+02  0.51100000000E-03 0. -1.
         23    2    1    2    0    0  0.00000000000E+00  0.00000000000E+00 -0.44408920985E-15  0.91188000000E+02  0.91188000000E+02 0.  0.
    9900012    2    3    3    0    0  0.12205322755E+02  0.38707644323E+02 -0.24317700200E+01  0.50528866488E+02  0.30000020176E+02 0.  0.
        -12    1    3    3    0    0 -0.12205322755E+02 -0.38707644323E+02  0.24317700200E+01  0.40659133512E+02  0.00000000000E+00 0.  1.
         11    1    4    4    0    0 -0.34752251176E+01  0.11424740034E+02 -0.15640088052E+00  0.11942626845E+02  0.51100000000E-03 0. -1.
        -11    1    4    4    0    0 -0.22714942739E+01 -0.16320375819E+01  0.30491793406E+01  0.41377201231E+01  0.51100000000E-03 0.  1.
         12    1    4    4    0    0  0.17952042146E+02  0.28914941871E+02 -0.53245484800E+01  0.34448519520E+02  0.00000000000E+00 0. -1.
</event>
<event>
 8    1  0.4964753E-012  0.9118800E+02  0.7816164E-02  0.1184000E+00
        -11   -1    0    0    0    0  0.00000000000E+00  0.00000000000E+00  0.45593999997E+02  0.45594000000E+02  0.51100000000E-03 0. -1.
         11   -1    0    0    0    0 -0.00000000000E+00 -0.00000000000E+00 -0.45593999997E+02  0.45594000000E+02  0.51100000000E-03 0.  1.
         23    2    1    2    0    0  0.00000000000E+00  0.00000000000E+00  0.00000000000E+00  0.91188000000E+02  0.91188000000E+02 0.  0.
    9900012    2    3    3    0    0  0.34047464803E+02  0.12776598814E+02  0.18185012121E+02  0.50528855855E+02  0.29999987856E+02 0.  0.
        -12    1    3    3    0    0 -0.34047464803E+02 -0.12776598814E+02 -0.18185012121E+02  0.40659144145E+02  0.00000000000E+00 0.  1.
         11    1    4    4    0    0  0.15806545141E+02 -0.79231690628E-02  0.15258251810E+02  0.21969551216E+02  0.51100000000E-03 0. -1.
        -11    1    4    4    0    0  0.56172336733E+01 -0.40358046521E+01  0.29734620589E+01  0.75287787991E+01  0.51100000000E-03 0.  1.
         12    1    4    4    0    0  0.12623685989E+02  0.16820326635E+02 -0.46701747002E-01  0.21030525840E+02  0.00000000000E+00 0. -1.
</event>
<event>
 8    1  0.4964753E-012  0.9118800E+02  0.7816164E-02  0.1184000E+00
        -11   -1    0    0    0    0  0.00000000000E+00  0.00000000000E+00  0.45593999997E+02  0.45594000000E+02  0.51100000000E-03 0. -1.
         11   -1    0    0    0    0 -0.00000000000E+00 -0.00000000000E+00 -0.45593999997E+02  0.45594000000E+02  0.51100000000E-03 0.  1.
         23    2    1    2    0    0  0.35527136788E-14  0.00000000000E+00  0.00000000000E+00  0.91188000000E+02  0.91188000000E+02 0.  0.
    9900012    2    3    3    0    0 -0.21663647197E+02 -0.17088817911E+02 -0.29863452872E+02  0.50528842054E+02  0.29999945908E+02 0.  0.
         12    1    3    3    0    0  0.21663647197E+02  0.17088817911E+02  0.29863452872E+02  0.40659157946E+02  0.00000000000E+00 0. -1.
         11    1    4    4    0    0 -0.63607974665E+01  0.11048786144E+01  0.11422189674E+01  0.65563073138E+01  0.51100000000E-03 0. -1.
        -11    1    4    4    0    0  0.41362531415E+01 -0.67464708310E+01 -0.12498988314E+02  0.14793517765E+02  0.51100000000E-03 0.  1.
        -12    1    4    4    0    0 -0.19439102872E+02 -0.11447225694E+02 -0.18506683525E+02  0.29179016975E+02  0.00000000000E+00 0.  1.
</event>
<event>
 8    1  0.4964753E-012  0.9118800E+02  0.7816164E-02  0.1184000E+00
        -11   -1    0    0    0    0  0.00000000000E+00  0.00000000000E+00  0.45593999997E+02  0.45594000000E+02  0.51100000000E-03 0. -1.
         11   -1    0    0    0    0 -0.00000000000E+00 -0.00000000000E+00 -0.45593999997E+02  0.45594000000E+02  0.51100000000E-03 0.  1.
         23    2    1    2    0    0  0.00000000000E+00 -0.44408920985E-15 -0.35527136788E-14  0.91188000000E+02  0.91188000000E+02 0.  0.
    9900012    2    3    3    0    0 -0.25372868530E+02 -0.15214928498E+01 -0.31734286855E+02  0.50528900648E+02  0.30000124008E+02 0.  0.
         12    1    3    3    0    0  0.25372868530E+02  0.15214928498E+01  0.31734286855E+02  0.40659099352E+02  0.00000000000E+00 0. -1.
         11    1    4    4    0    0 -0.16317535608E+02  0.22731718716E+01 -0.99372665826E+01  0.19240024586E+02  0.51100000000E-03 0. -1.
        -11    1    4    4    0    0 -0.13184403795E+02  0.30481364951E+01 -0.91747894821E+01  0.16349201871E+02  0.51100000000E-03 0.  1.
        -12    1    4    4    0    0  0.41290708738E+01 -0.68428012165E+01 -0.12622230791E+02  0.14939674190E+02  0.00000000000E+00 0.  1.
</event>
<event>
 8    1  0.4964753E-012  0.9118800E+02  0.7816164E-02  0.1184000E+00
        -11   -1    0    0    0    0  0.00000000000E+00  0.00000000000E+00  0.45593999997E+02  0.45594000000E+02  0.51100000000E-03 0. -1.
         11   -1    0    0    0    0 -0.00000000000E+00 -0.00000000000E+00 -0.45593999997E+02  0.45594000000E+02  0.51100000000E-03 0.  1.
         23    2    1    2    0    0 -0.35527136788E-14  0.35527136788E-14  0.00000000000E+00  0.91188000000E+02  0.91188000000E+02 0.  0.
    9900012    2    3    3    0    0 -0.24790436405E+02 -0.16757056253E+02  0.27528200104E+02  0.50528850078E+02  0.29999970297E+02 0.  0.
        -12    1    3    3    0    0  0.24790436405E+02  0.16757056253E+02 -0.27528200104E+02  0.40659149922E+02  0.00000000000E+00 0.  1.
         11    1    4    4    0    0  0.17064362273E+01 -0.17128707305E+01  0.58829284408E+01  0.63604007765E+01  0.51100000000E-03 0. -1.
        -11    1    4    4    0    0 -0.14431228768E+02  0.47408437232E+01  0.10408960433E+02  0.18414190737E+02  0.51100000000E-03 0.  1.
         12    1    4    4    0    0 -0.12065643864E+02 -0.19785029246E+02  0.11236311230E+02  0.25754258564E+02  0.00000000000E+00 0. -1.
</event>
<event>
 8    1  0.4964753E-012  0.9118800E+02  0.7816164E-02  0.1184000E+00
        -11   -1    0    0    0    0  0.00000000000E+00  0.00000000000E+00  0.45593999997E+02  0.45594000000E+02  0.51100000000E-03 0. -1.
         11   -1    0    0    0    0 -0.00000000000E+00 -0.00000000000E+00 -0.45593999997E+02  0.45594000000E+02  0.51100000000E-03 0.  1.
         23    2    1    2    0    0 -0.35527136788E-14  0.35527136788E-14  0.35527136788E-14  0.91188000000E+02  0.91188000000E+02 0.  0.
    9900012    2    3    3    0    0  0.23870208563E+02 -0.22457156182E+02  0.24063560312E+02  0.50528860123E+02  0.30000000830E+02 0.  0.
        -12    1    3    3    0    0 -0.23870208563E+02  0.22457156182E+02 -0.24063560312E+02  0.40659139877E+02  0.00000000000E+00 0.  1.
         11    1    4    4    0    0  0.23803099412E+02 -0.23918965794E+02  0.24874822204E+02  0.41922085422E+02  0.51100000000E-03 0. -1.
        -11    1    4    4    0    0  0.19508484789E+01  0.27313905181E+01  0.27793761621E+01  0.43578935349E+01  0.51100000000E-03 0.  1.
        -12    1    4    4    0    0 -0.18837393272E+01 -0.12695809061E+01 -0.35906380534E+01  0.42488811657E+01  0.00000000000E+00 0.  1.
</event>
<event>
 8    1  0.4964753E-012  0.9118800E+02  0.7816164E-02  0.1184000E+00
        -11   -1    0    0    0    0  0.00000000000E+00  0.00000000000E+00  0.45593999997E+02  0.45594000000E+02  0.51100000000E-03 0.  1.
         11   -1    0    0    0    0 -0.00000000000E+00 -0.00000000000E+00 -0.45593999997E+02  0.45594000000E+02  0.51100000000E-03 0. -1.
         23    2    1    2    0    0  0.00000000000E+00 -0.17763568394E-14  0.00000000000E+00  0.91188000000E+02  0.91188000000E+02 0.  0.
    9900012    2    3    3    0    0 -0.93816661690E+01 -0.13078185033E+02 -0.37337797844E+02  0.50528859187E+02  0.29999997984E+02 0.  0.
         12    1    3    3    0    0  0.93816661690E+01  0.13078185033E+02  0.37337797844E+02  0.40659140813E+02  0.00000000000E+00 0. -1.
         11    1    4    4    0    0 -0.50741573379E+01  0.53729221256E+01 -0.99221887106E+01  0.12371951904E+02  0.51100000000E-03 0. -1.
        -11    1    4    4    0    0 -0.79364275144E+01 -0.14971694590E+02 -0.92438652053E+01  0.19302527420E+02  0.51100000000E-03 0.  1.
         12    1    4    4    0    0  0.36289186833E+01 -0.34794125679E+01 -0.18171743928E+02  0.18854379863E+02  0.00000000000E+00 0. -1.
</event>
<event>
 8    1  0.4964753E-012  0.9118800E+02  0.7816164E-02  0.1184000E+00
        -11   -1    0    0    0    0  0.00000000000E+00  0.00000000000E+00  0.45593999997E+02  0.45594000000E+02  0.51100000000E-03 0. -1.
         11   -1    0    0    0    0 -0.00000000000E+00 -0.00000000000E+00 -0.45593999997E+02  0.45594000000E+02  0.51100000000E-03 0.  1.
         23    2    1    2    0    0  0.71054273576E-14 -0.88817841970E-15  0.88817841970E-15  0.91188000000E+02  0.91188000000E+02 0.  0.
    9900012    2    3    3    0    0  0.40204175876E+02 -0.29466937118E+01  0.53014324934E+01  0.50528881119E+02  0.30000064651E+02 0.  0.
        -12    1    3    3    0    0 -0.40204175876E+02  0.29466937118E+01 -0.53014324934E+01  0.40659118881E+02  0.00000000000E+00 0.  1.
         11    1    4    4    0    0 -0.15832394993E+01 -0.92321519540E+00  0.19513022063E+01  0.26770420562E+01  0.51100000000E-03 0. -1.
        -11    1    4    4    0    0  0.22738069589E+02 -0.12428302362E+02  0.34809257736E+01  0.26145732974E+02  0.51100000000E-03 0.  1.
         12    1    4    4    0    0  0.19049345786E+02  0.10404823845E+02 -0.13079548656E+00  0.21706106090E+02  0.00000000000E+00 0. -1.
</event>
<event>
 8    1  0.4964753E-012  0.9118800E+02  0.7816164E-02  0.1184000E+00
        -11   -1    0    0    0    0  0.00000000000E+00  0.00000000000E+00  0.45593999997E+02  0.45594000000E+02  0.51100000000E-03 0. -1.
         11   -1    0    0    0    0 -0.00000000000E+00 -0.00000000000E+00 -0.45593999997E+02  0.45594000000E+02  0.51100000000E-03 0.  1.
         23    2    1    2    0    0 -0.44408920985E-15  0.00000000000E+00  0.00000000000E+00  0.91188000000E+02  0.91188000000E+02 0.  0.
    9900012    2    3    3    0    0  0.32437104713E+01  0.32703338569E+02  0.23940250552E+02  0.50528860711E+02  0.30000002618E+02 0.  0.
        -12    1    3    3    0    0 -0.32437104713E+01 -0.32703338569E+02 -0.23940250552E+02  0.40659139289E+02  0.00000000000E+00 0.  1.
         11    1    4    4    0    0 -0.38477484958E+01  0.22641503457E+02  0.13412982440E+02  0.26596070114E+02  0.51100000000E-03 0. -1.
        -11    1    4    4    0    0  0.11379601783E+02  0.11907547979E+02  0.99138000648E+01  0.19224163638E+02  0.51100000000E-03 0.  1.
        -12    1    4    4    0    0 -0.42881428160E+01 -0.18457128666E+01  0.61346804738E+00  0.47086269593E+01  0.00000000000E+00 0.  1.
</event>
<event>
 8    1  0.4964753E-012  0.9118800E+02  0.7816164E-02  0.1184000E+00
        -11   -1    0    0    0    0  0.00000000000E+00  0.00000000000E+00  0.45593999997E+02  0.45594000000E+02  0.51100000000E-03 0. -1.
         11   -1    0    0    0    0 -0.00000000000E+00 -0.00000000000E+00 -0.45593999997E+02  0.45594000000E+02  0.51100000000E-03 0.  1.
         23    2    1    2    0    0 -0.44408920985E-15 -0.88817841970E-15  0.00000000000E+00  0.91188000000E+02  0.91188000000E+02 0.  0.
    9900012    2    3    3    0    0  0.85825622666E+00  0.55176737359E+01  0.40273869892E+02  0.50528856830E+02  0.29999990821E+02 0.  0.
        -12    1    3    3    0    0 -0.85825622666E+00 -0.55176737359E+01 -0.40273869892E+02  0.40659143170E+02  0.00000000000E+00 0.  1.
         11    1    4    4    0    0 -0.76435964905E+00 -0.63618078488E+01  0.21583747268E+02  0.22514772732E+02  0.51100000000E-03 0. -1.
        -11    1    4    4    0    0 -0.42891564786E+01  0.51548052134E+01  0.17793885704E+02  0.19015552813E+02  0.51100000000E-03 0.  1.
        -12    1    4    4    0    0  0.59117723543E+01  0.67246763712E+01  0.89623691991E+00  0.89985312848E+01  0.00000000000E+00 0.  1.
</event>
<event>
 8    1  0.4964753E-012  0.9118800E+02  0.7816164E-02  0.1184000E+00
        -11   -1    0    0    0    0  0.00000000000E+00  0.00000000000E+00  0.45593999997E+02  0.45594000000E+02  0.51100000000E-03 0. -1.
         11   -1    0    0    0    0 -0.00000000000E+00 -0.00000000000E+00 -0.45593999997E+02  0.45594000000E+02  0.51100000000E-03 0.  1.
         23    2    1    2    0    0  0.88817841970E-15  0.35527136788E-14  0.35527136788E-14  0.91188000000E+02  0.91188000000E+02 0.  0.
    9900012    2    3    3    0    0  0.53059745258E+01 -0.31800929016E+02 -0.24773243927E+02  0.50528855068E+02  0.29999985464E+02 0.  0.
         12    1    3    3    0    0 -0.53059745258E+01  0.31800929016E+02  0.24773243927E+02  0.40659144932E+02  0.00000000000E+00 0. -1.
         11    1    4    4    0    0  0.41278528150E+00 -0.47569408830E+01 -0.91000022794E+01  0.10276620067E+02  0.51100000000E-03 0. -1.
        -11    1    4    4    0    0  0.11641858616E+02 -0.11522741429E+02 -0.16575172961E+02  0.23303278761E+02  0.51100000000E-03 0.  1.
         12    1    4    4    0    0 -0.67486693716E+01 -0.15521246704E+02  0.90193131274E+00  0.16948956240E+02  0.00000000000E+00 0. -1.
</event>
<event>
 8    1  0.6230741E-012  0.9118800E+02  0.7816164E-02  0.1184000E+00
        -11   -1    0    0    0    0  0.00000000000E+00  0.00000000000E+00  0.45593999997E+02  0.45594000000E+02  0.51100000000E-03 0. -1.
         11   -1    0    0    0    0 -0.00000000000E+00 -0.00000000000E+00 -0.45593999997E+02  0.45594000000E+02  0.51100000000E-03 0.  1.
         23    2    1    2    0    0 -0.17763568394E-14  0.00000000000E+00  0.00000000000E+00  0.91188000000E+02  0.91188000000E+02 0.  0.
    9900012    2    3    3    0    0 -0.45889792379E+01 -0.22061144957E+02 -0.33843965794E+02  0.50528845214E+02  0.29999955512E+02 0.  0.
         12    1    3    3    0    0  0.45889792379E+01  0.22061144957E+02  0.33843965794E+02  0.40659154786E+02  0.00000000000E+00 0. -1.
         11    1    4    4    0    0  0.36275780933E+01 -0.89567039095E+01 -0.45635470778E+01  0.10686806349E+02  0.51100000000E-03 0. -1.
        -11    1    4    4    0    0  0.23844698702E+01 -0.13676948403E+02 -0.24583775277E+02  0.28233076724E+02  0.51100000000E-03 0.  1.
         12    1    4    4    0    0 -0.10601027201E+02  0.57250735561E+00 -0.46966434391E+01  0.11608962141E+02  0.00000000000E+00 0. -1.
</event>
<event>
 8    1  0.4964753E-012  0.9118800E+02  0.7816164E-02  0.1184000E+00
        -11   -1    0    0    0    0  0.00000000000E+00  0.00000000000E+00  0.45593999997E+02  0.45594000000E+02  0.51100000000E-03 0. -1.
         11   -1    0    0    0    0 -0.00000000000E+00 -0.00000000000E+00 -0.45593999997E+02  0.45594000000E+02  0.51100000000E-03 0.  1.
         23    2    1    2    0    0 -0.44408920985E-15  0.44408920985E-15  0.71054273576E-14  0.91188000000E+02  0.91188000000E+02 0.  0.
    9900012    2    3    3    0    0  0.34559308811E+01  0.24008886788E+01 -0.40440782942E+02  0.50528872493E+02  0.30000038429E+02 0.  0.
         12    1    3    3    0    0 -0.34559308811E+01 -0.24008886788E+01  0.40440782942E+02  0.40659127507E+02  0.00000000000E+00 0. -1.
         11    1    4    4    0    0  0.81674482768E+01 -0.73236706347E+01 -0.28194523035E+02  0.30253503803E+02  0.51100000000E-03 0. -1.
        -11    1    4    4    0    0  0.37514599293E+01  0.37041203808E+01 -0.66220994565E+01  0.84644055237E+01  0.51100000000E-03 0.  1.
        -12    1    4    4    0    0 -0.84629773251E+01  0.60204389327E+01 -0.56241604506E+01  0.11810963167E+02  0.00000000000E+00 0.  1.
</event>
<event>
 8    1  0.4964753E-012  0.9118800E+02  0.7816164E-02  0.1184000E+00
        -11   -1    0    0    0    0  0.00000000000E+00  0.00000000000E+00  0.45593999997E+02  0.45594000000E+02  0.51100000000E-03 0. -1.
         11   -1    0    0    0    0 -0.00000000000E+00 -0.00000000000E+00 -0.45593999997E+02  0.45594000000E+02  0.51100000000E-03 0.  1.
         23    2    1    2    0    0  0.00000000000E+00 -0.35527136788E-14  0.35527136788E-14  0.91188000000E+02  0.91188000000E+02 0.  0.
    9900012    2    3    3    0    0  0.25896319798E+02  0.21185790056E+02 -0.23102141548E+02  0.50528855598E+02  0.29999987076E+02 0.  0.
         12    1    3    3    0    0 -0.25896319798E+02 -0.21185790056E+02  0.23102141548E+02  0.40659144402E+02  0.00000000000E+00 0. -1.
         11    1    4    4    0    0  0.13696417334E+02  0.23509749636E+02 -0.10736927846E+02  0.29250329837E+02  0.51100000000E-03 0. -1.
        -11    1    4    4    0    0 -0.13954900154E+01 -0.20111809556E+00 -0.59166268162E+01  0.60822951273E+01  0.51100000000E-03 0.  1.
        -12    1    4    4    0    0  0.13595392479E+02 -0.21228414850E+01 -0.64485868860E+01  0.15196230633E+02  0.00000000000E+00 0.  1.
</event>
<event>
 8    1  0.4964753E-012  0.9118800E+02  0.7816164E-02  0.1184000E+00
        -11   -1    0    0    0    0  0.00000000000E+00  0.00000000000E+00  0.45593999997E+02  0.45594000000E+02  0.51100000000E-03 0. -1.
         11   -1    0    0    0    0 -0.00000000000E+00 -0.00000000000E+00 -0.45593999997E+02  0.45594000000E+02  0.51100000000E-03 0.  1.
         23    2    1    2    0    0  0.00000000000E+00  0.35527136788E-14  0.00000000000E+00  0.91188000000E+02  0.91188000000E+02 0.  0.
    9900012    2    3    3    0    0 -0.96082948692E+01  0.18666338085E+02  0.34819730042E+02  0.50528866856E+02  0.30000021297E+02 0.  0.
        -12    1    3    3    0    0  0.96082948692E+01 -0.18666338085E+02 -0.34819730042E+02  0.40659133144E+02  0.00000000000E+00 0.  1.
         11    1    4    4    0    0 -0.14666503887E+02  0.52651529465E+01  0.19637674029E+02  0.25069232404E+02  0.51100000000E-03 0. -1.
        -11    1    4    4    0    0  0.44576633296E+01 -0.16702254929E+01  0.64977558095E+01  0.80548895944E+01  0.51100000000E-03 0.  1.
        -12    1    4    4    0    0  0.60054568852E+00  0.15071410631E+02  0.86843002040E+01  0.17404744858E+02  0.00000000000E+00 0.  1.
</event>
<event>
 8    1  0.4964753E-012  0.9118800E+02  0.7816164E-02  0.1184000E+00
        -11   -1    0    0    0    0  0.00000000000E+00  0.00000000000E+00  0.45593999997E+02  0.45594000000E+02  0.51100000000E-03 0. -1.
         11   -1    0    0    0    0 -0.00000000000E+00 -0.00000000000E+00 -0.45593999997E+02  0.45594000000E+02  0.51100000000E-03 0.  1.
         23    2    1    2    0    0  0.00000000000E+00  0.17763568394E-14 -0.17763568394E-14  0.91188000000E+02  0.91188000000E+02 0.  0.
    9900012    2    3    3    0    0  0.35870842987E+02 -0.14124558026E+02  0.12920774395E+02  0.50528844487E+02  0.29999953304E+02 0.  0.
        -12    1    3    3    0    0 -0.35870842987E+02  0.14124558026E+02 -0.12920774395E+02  0.40659155513E+02  0.00000000000E+00 0.  1.
         11    1    4    4    0    0  0.25478481039E+01 -0.16981829896E+01  0.50134091591E+01  0.58744895169E+01  0.51100000000E-03 0. -1.
        -11    1    4    4    0    0 -0.99795613410E+00 -0.72711856584E+01 -0.34872843113E+01  0.81257128582E+01  0.51100000000E-03 0.  1.
         12    1    4    4    0    0  0.34320951018E+02 -0.51551893778E+01  0.11394649547E+02  0.36528642112E+02  0.00000000000E+00 0. -1.
</event>
<event>
 8    1  0.4964753E-012  0.9118800E+02  0.7816164E-02  0.1184000E+00
        -11   -1    0    0    0    0  0.00000000000E+00  0.00000000000E+00  0.45593999997E+02  0.45594000000E+02  0.51100000000E-03 0. -1.
         11   -1    0    0    0    0 -0.00000000000E+00 -0.00000000000E+00 -0.45593999997E+02  0.45594000000E+02  0.51100000000E-03 0.  1.
         23    2    1    2    0    0  0.00000000000E+00  0.00000000000E+00  0.00000000000E+00  0.91188000000E+02  0.91188000000E+02 0.  0.
    9900012    2    3    3    0    0 -0.17797085322E+02  0.13220022753E+02  0.34083136836E+02  0.50528862477E+02  0.30000007984E+02 0.  0.
        -12    1    3    3    0    0  0.17797085322E+02 -0.13220022753E+02 -0.34083136836E+02  0.40659137523E+02  0.00000000000E+00 0.  1.
         11    1    4    4    0    0  0.10790813577E+01  0.35463017490E+01  0.24145623935E+02  0.24428504419E+02  0.51100000000E-03 0. -1.
        -11    1    4    4    0    0 -0.53363039892E+01 -0.22808409056E+01  0.79907117509E+00  0.58580620094E+01  0.51100000000E-03 0.  1.
        -12    1    4    4    0    0 -0.13539862690E+02  0.11954561909E+02  0.91384417258E+01  0.20242296048E+02  0.00000000000E+00 0.  1.
</event>
<event>
 8    1  0.4964753E-012  0.9118800E+02  0.7816164E-02  0.1184000E+00
        -11   -1    0    0    0    0  0.00000000000E+00  0.00000000000E+00  0.45593999997E+02  0.45594000000E+02  0.51100000000E-03 0. -1.
         11   -1    0    0    0    0 -0.00000000000E+00 -0.00000000000E+00 -0.45593999997E+02  0.45594000000E+02  0.51100000000E-03 0.  1.
         23    2    1    2    0    0  0.00000000000E+00 -0.17763568394E-14 -0.71054273576E-14  0.91188000000E+02  0.91188000000E+02 0.  0.
    9900012    2    3    3    0    0  0.10651470723E+02  0.13941517808E+02  0.36678952260E+02  0.50528864665E+02  0.30000014635E+02 0.  0.
        -12    1    3    3    0    0 -0.10651470723E+02 -0.13941517808E+02 -0.36678952260E+02  0.40659135335E+02  0.00000000000E+00 0.  1.
         11    1    4    4    0    0  0.30541680242E+01  0.42655132441E+01  0.20375909408E+02  0.21040442724E+02  0.51100000000E-03 0. -1.
        -11    1    4    4    0    0  0.14992650048E+02  0.72650536857E+01  0.12512092646E+02  0.20835379122E+02  0.51100000000E-03 0.  1.
         12    1    4    4    0    0 -0.73953473494E+01  0.24109508784E+01  0.37909502055E+01  0.86530428184E+01  0.00000000000E+00 0. -1.
</event>
<event>
 8    1  0.4964753E-012  0.9118800E+02  0.7816164E-02  0.1184000E+00
        -11   -1    0    0    0    0  0.00000000000E+00  0.00000000000E+00  0.45593999997E+02  0.45594000000E+02  0.51100000000E-03 0.  1.
         11   -1    0    0    0    0 -0.00000000000E+00 -0.00000000000E+00 -0.45593999997E+02  0.45594000000E+02  0.51100000000E-03 0. -1.
         23    2    1    2    0    0 -0.35527136788E-14 -0.88817841970E-15  0.00000000000E+00  0.91188000000E+02  0.91188000000E+02 0.  0.
    9900012    2    3    3    0    0 -0.27127072511E+02  0.43988757181E+01  0.29965613034E+02  0.50528854226E+02  0.29999982904E+02 0.  0.
        -12    1    3    3    0    0  0.27127072511E+02 -0.43988757181E+01 -0.29965613034E+02  0.40659145774E+02  0.00000000000E+00 0.  1.
         11    1    4    4    0    0 -0.54517520527E+01  0.49057908212E+01 -0.42955277387E+01  0.84994083818E+01  0.51100000000E-03 0. -1.
        -11    1    4    4    0    0  0.36067706449E+00 -0.21992203206E+01  0.35799484851E+01  0.42169526177E+01  0.51100000000E-03 0.  1.
         12    1    4    4    0    0 -0.22035997523E+02  0.16923052175E+01  0.30681192288E+02  0.37812493226E+02  0.00000000000E+00 0. -1.
</event>
<event>
 8    1  0.4964753E-012  0.9118800E+02  0.7816164E-02  0.1184000E+00
        -11   -1    0    0    0    0  0.00000000000E+00  0.00000000000E+00  0.45593999997E+02  0.45594000000E+02  0.51100000000E-03 0. -1.
         11   -1    0    0    0    0 -0.00000000000E+00 -0.00000000000E+00 -0.45593999997E+02  0.45594000000E+02  0.51100000000E-03 0.  1.
         23    2    1    2    0    0 -0.17763568394E-14  0.00000000000E+00  0.00000000000E+00  0.91188000000E+02  0.91188000000E+02 0.  0.
    9900012    2    3    3    0    0 -0.12204159727E+02  0.33531431981E+02  0.19490160133E+02  0.50528870800E+02  0.30000033283E+02 0.  0.
        -12    1    3    3    0    0  0.12204159727E+02 -0.33531431981E+02 -0.19490160133E+02  0.40659129200E+02  0.00000000000E+00 0.  1.
         11    1    4    4    0    0 -0.29772168495E+01  0.20540133574E+02  0.22665225354E+01  0.20878171186E+02  0.51100000000E-03 0. -1.
        -11    1    4    4    0    0  0.39984616850E+01  0.23806583789E+01 -0.99917579125E+00  0.47595779946E+01  0.51100000000E-03 0.  1.
        -12    1    4    4    0    0 -0.13225404563E+02  0.10610640028E+02  0.18222813389E+02  0.24891121619E+02  0.00000000000E+00 0.  1.
</event>
<event>
 8    1  0.4964753E-012  0.9118800E+02  0.7816164E-02  0.1184000E+00
        -11   -1    0    0    0    0  0.00000000000E+00  0.00000000000E+00  0.45593999997E+02  0.45594000000E+02  0.51100000000E-03 0. -1.
         11   -1    0    0    0    0 -0.00000000000E+00 -0.00000000000E+00 -0.45593999997E+02  0.45594000000E+02  0.51100000000E-03 0.  1.
         23    2    1    2    0    0  0.17763568394E-14  0.00000000000E+00  0.00000000000E+00  0.91188000000E+02  0.91188000000E+02 0.  0.
    9900012    2    3    3    0    0 -0.10259227738E+02  0.10566814529E+02 -0.37897995213E+02  0.50528839110E+02  0.29999936960E+02 0.  0.
         12    1    3    3    0    0  0.10259227738E+02 -0.10566814529E+02  0.37897995213E+02  0.40659160890E+02  0.00000000000E+00 0. -1.
         11    1    4    4    0    0  0.43541306689E+01 -0.49632578389E+01 -0.18278085241E+02  0.19434010975E+02  0.51100000000E-03 0. -1.
        -11    1    4    4    0    0 -0.13386627309E+01  0.43406431308E+01 -0.10595207615E+02  0.11527863000E+02  0.51100000000E-03 0.  1.
        -12    1    4    4    0    0 -0.13274695676E+02  0.11189429237E+02 -0.90247023578E+01  0.19566965135E+02  0.00000000000E+00 0.  1.
</event>
<event>
 8    1  0.4964753E-012  0.9118800E+02  0.7816164E-02  0.1184000E+00
        -11   -1    0    0    0    0  0.00000000000E+00  0.00000000000E+00  0.45593999997E+02  0.45594000000E+02  0.51100000000E-03 0. -1.
         11   -1    0    0    0    0 -0.00000000000E+00 -0.00000000000E+00 -0.45593999997E+02  0.45594000000E+02  0.51100000000E-03 0.  1.
         23    2    1    2    0    0  0.17763568394E-14  0.00000000000E+00  0.00000000000E+00  0.91188000000E+02  0.91188000000E+02 0.  0.
    9900012    2    3    3    0    0  0.14177501582E+02  0.29119314804E+01 -0.37995855844E+02  0.50528856412E+02  0.29999989548E+02 0.  0.
         12    1    3    3    0    0 -0.14177501582E+02 -0.29119314804E+01  0.37995855844E+02  0.40659143588E+02  0.00000000000E+00 0. -1.
         11    1    4    4    0    0  0.13113019566E+00  0.79934848491E+01 -0.65495818981E+01  0.10334893249E+02  0.51100000000E-03 0. -1.
        -11    1    4    4    0    0  0.20641196701E+01 -0.90480240300E+01 -0.42414127559E+01  0.10203769465E+02  0.51100000000E-03 0.  1.
         12    1    4    4    0    0  0.11982251717E+02  0.39664706613E+01 -0.27204861190E+02  0.29990193698E+02  0.00000000000E+00 0. -1.
</event>
<event>
 8    1  0.4964753E-012  0.9118800E+02  0.7816164E-02  0.1184000E+00
        -11   -1    0    0    0    0  0.00000000000E+00  0.00000000000E+00  0.45593999997E+02  0.45594000000E+02  0.51100000000E-03 0. -1.
         11   -1    0    0    0    0 -0.00000000000E+00 -0.00000000000E+00 -0.45593999997E+02  0.45594000000E+02  0.51100000000E-03 0.  1.
         23    2    1    2    0    0  0.00000000000E+00  0.00000000000E+00  0.35527136788E-14  0.91188000000E+02  0.91188000000E+02 0.  0.
    9900012    2    3    3    0    0  0.28410620372E+02 -0.65687119580E+01  0.28334694300E+02  0.50528853086E+02  0.29999979440E+02 0.  0.
        -12    1    3    3    0    0 -0.28410620372E+02  0.65687119580E+01 -0.28334694300E+02  0.40659146914E+02  0.00000000000E+00 0.  1.
         11    1    4    4    0    0  0.51093135061E+01  0.37095202336E+01  0.10771524352E+01  0.64051450020E+01  0.51100000000E-03 0. -1.
        -11    1    4    4    0    0  0.25808376599E+02 -0.22114057928E+01  0.17725527076E+02  0.31387209635E+02  0.51100000000E-03 0.  1.
        -12    1    4    4    0    0 -0.25070697340E+01 -0.80668263988E+01  0.95320147890E+01  0.12736498449E+02  0.00000000000E+00 0.  1.
</event>
<event>
 8    1  0.4964753E-012  0.9118800E+02  0.7816164E-02  0.1184000E+00
        -11   -1    0    0    0    0  0.00000000000E+00  0.00000000000E+00  0.45593999997E+02  0.45594000000E+02  0.51100000000E-03 0. -1.
         11   -1    0    0    0    0 -0.00000000000E+00 -0.00000000000E+00 -0.45593999997E+02  0.45594000000E+02  0.51100000000E-03 0.  1.
         23    2    1    2    0    0  0.00000000000E+00  0.00000000000E+00  0.00000000000E+00  0.91188000000E+02  0.91188000000E+02 0.  0.
    9900012    2    3    3    0    0 -0.27704053507E+02  0.24568522022E+02 -0.16794043215E+02  0.50528846755E+02  0.29999960197E+02 0.  0.
         12    1    3    3    0    0  0.27704053507E+02 -0.24568522022E+02  0.16794043215E+02  0.40659153245E+02  0.00000000000E+00 0. -1.
         11    1    4    4    0    0 -0.38923489096E+01  0.16646914575E+02 -0.10070250565E+01  0.17125543630E+02  0.51100000000E-03 0. -1.
        -11    1    4    4    0    0 -0.34106098571E+01  0.58692590889E+01 -0.10021292911E+02  0.12103998254E+02  0.51100000000E-03 0.  1.
         12    1    4    4    0    0 -0.20401094740E+02  0.20523483583E+01 -0.57657252469E+01  0.21299304872E+02  0.00000000000E+00 0. -1.
</event>
<event>
 8    1  0.7412994E-012  0.9118800E+02  0.7816164E-02  0.1184000E+00
        -11   -1    0    0    0    0  0.00000000000E+00  0.00000000000E+00  0.45593999997E+02  0.45594000000E+02  0.51100000000E-03 0. -1.
         11   -1    0    0    0    0 -0.00000000000E+00 -0.00000000000E+00 -0.45593999997E+02  0.45594000000E+02  0.51100000000E-03 0.  1.
         23    2    1    2    0    0 -0.44408920985E-15  0.00000000000E+00  0.71054273576E-14  0.91188000000E+02  0.91188000000E+02 0.  0.
    9900012    2    3    3    0    0  0.25332818170E+01 -0.14395010188E+02 -0.37941172362E+02  0.50528851026E+02  0.29999973179E+02 0.  0.
         12    1    3    3    0    0 -0.25332818170E+01  0.14395010188E+02  0.37941172362E+02  0.40659148974E+02  0.00000000000E+00 0. -1.
         11    1    4    4    0    0  0.51162709208E+01 -0.72821106076E+01 -0.20372813205E+01  0.91299440566E+01  0.51100000000E-03 0. -1.
        -11    1    4    4    0    0  0.14479911038E+01 -0.13062652153E+02 -0.26329303279E+02  0.29427228394E+02  0.51100000000E-03 0.  1.
         12    1    4    4    0    0 -0.40309802077E+01  0.59497525722E+01 -0.95745877623E+01  0.11971678576E+02  0.00000000000E+00 0. -1.
</event>
<event>
 8    1  0.4964753E-012  0.9118800E+02  0.7816164E-02  0.1184000E+00
        -11   -1    0    0    0    0  0.00000000000E+00  0.00000000000E+00  0.45593999997E+02  0.45594000000E+02  0.51100000000E-03 0. -1.
         11   -1    0    0    0    0 -0.00000000000E+00 -0.00000000000E+00 -0.45593999997E+02  0.45594000000E+02  0.51100000000E-03 0.  1.
         23    2    1    2    0    0  0.00000000000E+00  0.00000000000E+00  0.71054273576E-14  0.91188000000E+02  0.91188000000E+02 0.  0.
    9900012    2    3    3    0    0  0.75026991217E+01 -0.12648064170E+02  0.37906486563E+02  0.50528859024E+02  0.29999997490E+02 0.  0.
        -12    1    3    3    0    0 -0.75026991217E+01  0.12648064170E+02 -0.37906486563E+02  0.40659140976E+02  0.00000000000E+00 0.  1.
         11    1    4    4    0    0  0.22332314842E+01 -0.91799135442E+01  0.14977505732E+02  0.17708297879E+02  0.51100000000E-03 0. -1.
        -11    1    4    4    0    0  0.78875743801E+01 -0.17823328060E+01  0.26718725227E+02  0.27915601693E+02  0.51100000000E-03 0.  1.
        -12    1    4    4    0    0 -0.26181067427E+01 -0.16858178198E+01 -0.37897443969E+01  0.49049594526E+01  0.00000000000E+00 0.  1.
</event>
<event>
 8    1  0.4964753E-012  0.9118800E+02  0.7816164E-02  0.1184000E+00
        -11   -1    0    0    0    0  0.00000000000E+00  0.00000000000E+00  0.45593999997E+02  0.45594000000E+02  0.51100000000E-03 0.  1.
         11   -1    0    0    0    0 -0.00000000000E+00 -0.00000000000E+00 -0.45593999997E+02  0.45594000000E+02  0.51100000000E-03 0. -1.
         23    2    1    2    0    0 -0.71054273576E-14  0.17763568394E-14  0.88817841970E-15  0.91188000000E+02  0.91188000000E+02 0.  0.
    9900012    2    3    3    0    0 -0.38389031489E+02  0.13103068375E+02 -0.27852599150E+01  0.50528858196E+02  0.29999994971E+02 0.  0.
         12    1    3    3    0    0  0.38389031489E+02 -0.13103068375E+02  0.27852599150E+01  0.40659141804E+02  0.00000000000E+00 0. -1.
         11    1    4    4    0    0 -0.28077095097E+02  0.59975651962E+01 -0.78069868220E+01  0.29753035154E+02  0.51100000000E-03 0. -1.
        -11    1    4    4    0    0  0.26085960624E+01 -0.12640044637E+00 -0.29659598039E+01  0.39519195727E+01  0.51100000000E-03 0.  1.
        -12    1    4    4    0    0 -0.12920532454E+02  0.72319036253E+01  0.79876867109E+01  0.16823903469E+02  0.00000000000E+00 0.  1.
</event>
<event>
 8    1  0.4964753E-012  0.9118800E+02  0.7816164E-02  0.1184000E+00
        -11   -1    0    0    0    0  0.00000000000E+00  0.00000000000E+00  0.45593999997E+02  0.45594000000E+02  0.51100000000E-03 0. -1.
         11   -1    0    0    0    0 -0.00000000000E+00 -0.00000000000E+00 -0.45593999997E+02  0.45594000000E+02  0.51100000000E-03 0.  1.
         23    2    1    2    0    0  0.71054273576E-14 -0.53290705182E-14  0.00000000000E+00  0.91188000000E+02  0.91188000000E+02 0.  0.
    9900012    2    3    3    0    0  0.38073258114E+02 -0.13518402943E+02  0.45656258460E+01  0.50528866452E+02  0.30000020066E+02 0.  0.
         12    1    3    3    0    0 -0.38073258114E+02  0.13518402943E+02 -0.45656258460E+01  0.40659133548E+02  0.00000000000E+00 0. -1.
         11    1    4    4    0    0  0.57504283438E+01  0.75733509654E+00  0.25817497429E+00  0.58058278621E+01  0.51100000000E-03 0. -1.
        -11    1    4    4    0    0  0.26683764734E+02 -0.22249658382E+02  0.30630446115E+01  0.34877683998E+02  0.51100000000E-03 0.  1.
        -12    1    4    4    0    0  0.56390650361E+01  0.79739203419E+01  0.12444062601E+01  0.98453545919E+01  0.00000000000E+00 0.  1.
</event>
<event>
 8    1  0.4964753E-012  0.9118800E+02  0.7816164E-02  0.1184000E+00
        -11   -1    0    0    0    0  0.00000000000E+00  0.00000000000E+00  0.45593999997E+02  0.45594000000E+02  0.51100000000E-03 0. -1.
         11   -1    0    0    0    0 -0.00000000000E+00 -0.00000000000E+00 -0.45593999997E+02  0.45594000000E+02  0.51100000000E-03 0.  1.
         23    2    1    2    0    0  0.00000000000E+00  0.35527136788E-14  0.35527136788E-14  0.91188000000E+02  0.91188000000E+02 0.  0.
    9900012    2    3    3    0    0 -0.47013791378E+01 -0.27364633398E+02 -0.29702517318E+02  0.50528860045E+02  0.30000000594E+02 0.  0.
         12    1    3    3    0    0  0.47013791378E+01  0.27364633398E+02  0.29702517318E+02  0.40659139955E+02  0.00000000000E+00 0. -1.
         11    1    4    4    0    0  0.15614198128E+01 -0.15824027720E+02  0.64553832730E+00  0.15913975151E+02  0.51100000000E-03 0. -1.
        -11    1    4    4    0    0  0.16361225129E+01 -0.60519032545E+01 -0.71935425618E+01  0.95419853663E+01  0.51100000000E-03 0.  1.
         12    1    4    4    0    0 -0.78989214635E+01 -0.54887024233E+01 -0.23154513084E+02  0.25072899528E+02  0.00000000000E+00 0. -1.
</event>
<event>
 8    1  0.4964753E-012  0.9118800E+02  0.7816164E-02  0.1184000E+00
        -11   -1    0    0    0    0  0.00000000000E+00  0.00000000000E+00  0.45593999997E+02  0.45594000000E+02  0.51100000000E-03 0.  1.
         11   -1    0    0    0    0 -0.00000000000E+00 -0.00000000000E+00 -0.45593999997E+02  0.45594000000E+02  0.51100000000E-03 0. -1.
         23    2    1    2    0    0 -0.17763568394E-14  0.00000000000E+00 -0.44408920985E-15  0.91188000000E+02  0.91188000000E+02 0.  0.
    9900012    2    3    3    0    0  0.72196802883E+01  0.39921339359E+02 -0.27071582239E+01  0.50528858035E+02  0.29999994484E+02 0.  0.
         12    1    3    3    0    0 -0.72196802883E+01 -0.39921339359E+02  0.27071582239E+01  0.40659141965E+02  0.00000000000E+00 0. -1.
         11    1    4    4    0    0  0.12706583542E+02  0.14119354760E+02 -0.38110021449E+01  0.19373620770E+02  0.51100000000E-03 0. -1.
        -11    1    4    4    0    0  0.42587512491E+01  0.84218526826E+01  0.52543671020E+01  0.10801524833E+02  0.51100000000E-03 0.  1.
        -12    1    4    4    0    0 -0.97456545027E+01  0.17380131916E+02 -0.41505231810E+01  0.20353712432E+02  0.00000000000E+00 0.  1.
</event>
<event>
 8    1  0.4964753E-012  0.9118800E+02  0.7816164E-02  0.1184000E+00
        -11   -1    0    0    0    0  0.00000000000E+00  0.00000000000E+00  0.45593999997E+02  0.45594000000E+02  0.51100000000E-03 0. -1.
         11   -1    0    0    0    0 -0.00000000000E+00 -0.00000000000E+00 -0.45593999997E+02  0.45594000000E+02  0.51100000000E-03 0.  1.
         23    2    1    2    0    0  0.21094237468E-14 -0.88817841970E-15  0.00000000000E+00  0.91188000000E+02  0.91188000000E+02 0.  0.
    9900012    2    3    3    0    0  0.50256872273E+00 -0.55620010771E+01 -0.40273778478E+02  0.50528860017E+02  0.30000000507E+02 0.  0.
         12    1    3    3    0    0 -0.50256872273E+00  0.55620010771E+01  0.40273778478E+02  0.40659139983E+02  0.00000000000E+00 0. -1.
         11    1    4    4    0    0 -0.21873144645E+01  0.77092667021E+01 -0.40888303798E+01  0.89964255006E+01  0.51100000000E-03 0.  1.
        -11    1    4    4    0    0 -0.62548491276E+01 -0.39187517870E+01 -0.11594696237E+02  0.13744698406E+02  0.51100000000E-03 0. -1.
        -12    1    4    4    0    0  0.89447323148E+01 -0.93525159923E+01 -0.24590251861E+02  0.27787736110E+02  0.00000000000E+00 0.  1.
</event>
<event>
 8    1  0.4964753E-012  0.9118800E+02  0.7816164E-02  0.1184000E+00
        -11   -1    0    0    0    0  0.00000000000E+00  0.00000000000E+00  0.45593999997E+02  0.45594000000E+02  0.51100000000E-03 0.  1.
         11   -1    0    0    0    0 -0.00000000000E+00 -0.00000000000E+00 -0.45593999997E+02  0.45594000000E+02  0.51100000000E-03 0. -1.
         23    2    1    2    0    0  0.00000000000E+00  0.00000000000E+00  0.17763568394E-14  0.91188000000E+02  0.91188000000E+02 0.  0.
    9900012    2    3    3    0    0 -0.15176937488E+02 -0.34169186551E+02  0.15977897733E+02  0.50528856416E+02  0.29999989561E+02 0.  0.
         12    1    3    3    0    0  0.15176937488E+02  0.34169186551E+02 -0.15977897733E+02  0.40659143584E+02  0.00000000000E+00 0. -1.
         11    1    4    4    0    0 -0.15725090060E+02 -0.15514864237E+02  0.35143841654E+01  0.22368289296E+02  0.51100000000E-03 0. -1.
        -11    1    4    4    0    0  0.40491115101E+01  0.10113660538E+01 -0.70908398480E+00  0.42333161558E+01  0.51100000000E-03 0.  1.
        -12    1    4    4    0    0 -0.35009589385E+01 -0.19665688367E+02  0.13172597552E+02  0.23927250964E+02  0.00000000000E+00 0.  1.
</event>
<event>
 8    1  0.4964753E-012  0.9118800E+02  0.7816164E-02  0.1184000E+00
        -11   -1    0    0    0    0  0.00000000000E+00  0.00000000000E+00  0.45593999997E+02  0.45594000000E+02  0.51100000000E-03 0.  1.
         11   -1    0    0    0    0 -0.00000000000E+00 -0.00000000000E+00 -0.45593999997E+02  0.45594000000E+02  0.51100000000E-03 0. -1.
         23    2    1    2    0    0  0.00000000000E+00  0.00000000000E+00  0.44408920985E-15  0.91188000000E+02  0.91188000000E+02 0.  0.
    9900012    2    3    3    0    0 -0.62368754413E+01 -0.40065734029E+02 -0.30007141629E+01  0.50528856575E+02  0.29999990046E+02 0.  0.
         12    1    3    3    0    0  0.62368754413E+01  0.40065734029E+02  0.30007141629E+01  0.40659143425E+02  0.00000000000E+00 0. -1.
         11    1    4    4    0    0  0.69368266649E-01 -0.17133515696E+01 -0.48771571882E+01  0.51698208921E+01  0.51100000000E-03 0. -1.
        -11    1    4    4    0    0  0.59245518891E+01 -0.22768124471E+02 -0.56015863185E+01  0.24183994223E+02  0.51100000000E-03 0.  1.
         12    1    4    4    0    0 -0.12230795597E+02 -0.15584257988E+02  0.74780293438E+01  0.21175041461E+02  0.00000000000E+00 0. -1.
</event>
<event>
 8    1  0.4964753E-012  0.9118800E+02  0.7816164E-02  0.1184000E+00
        -11   -1    0    0    0    0  0.00000000000E+00  0.00000000000E+00  0.45593999997E+02  0.45594000000E+02  0.51100000000E-03 0. -1.
         11   -1    0    0    0    0 -0.00000000000E+00 -0.00000000000E+00 -0.45593999997E+02  0.45594000000E+02  0.51100000000E-03 0.  1.
         23    2    1    2    0    0  0.88817841970E-15  0.00000000000E+00  0.00000000000E+00  0.91188000000E+02  0.91188000000E+02 0.  0.
    9900012    2    3    3    0    0 -0.56640459168E+01 -0.17341215903E+02 -0.36336890189E+02  0.50528821777E+02  0.29999884273E+02 0.  0.
         12    1    3    3    0    0  0.56640459168E+01  0.17341215903E+02  0.36336890189E+02  0.40659178223E+02  0.00000000000E+00 0. -1.
         11    1    4    4    0    0 -0.24636963913E+01 -0.10094223959E+02  0.46694875372E+00  0.10401019116E+02  0.51100000000E-03 0. -1.
        -11    1    4    4    0    0  0.15773024308E+01 -0.92503037432E+01 -0.14814307627E+02  0.17536239991E+02  0.51100000000E-03 0.  1.
        -12    1    4    4    0    0 -0.47776519563E+01  0.20033117988E+01 -0.21989531316E+02  0.22591562670E+02  0.00000000000E+00 0.  1.
</event>
<event>
 8    1  0.4964753E-012  0.9118800E+02  0.7816164E-02  0.1184000E+00
        -11   -1    0    0    0    0  0.00000000000E+00  0.00000000000E+00  0.45593999997E+02  0.45594000000E+02  0.51100000000E-03 0.  1.
         11   -1    0    0    0    0 -0.00000000000E+00 -0.00000000000E+00 -0.45593999997E+02  0.45594000000E+02  0.51100000000E-03 0. -1.
         23    2    1    2    0    0 -0.88817841970E-15  0.00000000000E+00  0.00000000000E+00  0.91188000000E+02  0.91188000000E+02 0.  0.
    9900012    2    3    3    0    0 -0.60842101968E+01  0.38697649967E+02  0.10892178762E+02  0.50528864681E+02  0.30000014685E+02 0.  0.
        -12    1    3    3    0    0  0.60842101968E+01 -0.38697649967E+02 -0.10892178762E+02  0.40659135319E+02  0.00000000000E+00 0.  1.
         11    1    4    4    0    0 -0.11315558978E+02  0.29197167003E+02  0.12189317270E+02  0.33602022138E+02  0.51100000000E-03 0. -1.
        -11    1    4    4    0    0  0.26595485906E+01  0.86178733369E+01  0.48247026916E+01  0.10228328108E+02  0.51100000000E-03 0.  1.
        -12    1    4    4    0    0  0.25718001908E+01  0.88260962732E+00 -0.61218411992E+01  0.66985144356E+01  0.00000000000E+00 0.  1.
</event>
<event>
 8    1  0.4964753E-012  0.9118800E+02  0.7816164E-02  0.1184000E+00
        -11   -1    0    0    0    0  0.00000000000E+00  0.00000000000E+00  0.45593999997E+02  0.45594000000E+02  0.51100000000E-03 0. -1.
         11   -1    0    0    0    0 -0.00000000000E+00 -0.00000000000E+00 -0.45593999997E+02  0.45594000000E+02  0.51100000000E-03 0.  1.
         23    2    1    2    0    0 -0.88817841970E-15 -0.17763568394E-14 -0.71054273576E-14  0.91188000000E+02  0.91188000000E+02 0.  0.
    9900012    2    3    3    0    0 -0.49289350540E+01 -0.12167457484E+02 -0.38481477710E+02  0.50528861431E+02  0.30000004806E+02 0.  0.
         12    1    3    3    0    0  0.49289350540E+01  0.12167457484E+02  0.38481477710E+02  0.40659138569E+02  0.00000000000E+00 0. -1.
         11    1    4    4    0    0 -0.93450995751E+01 -0.14674037558E+02 -0.75248017867E+01  0.18954706712E+02  0.51100000000E-03 0. -1.
        -11    1    4    4    0    0 -0.18273783459E+00  0.13474217421E+01 -0.96977869466E+01  0.97926508357E+01  0.51100000000E-03 0.  1.
         12    1    4    4    0    0  0.45989023557E+01  0.11591583320E+01 -0.21258888977E+02  0.21781503884E+02  0.00000000000E+00 0. -1.
</event>
<event>
 8    1  0.4964753E-012  0.9118800E+02  0.7816164E-02  0.1184000E+00
        -11   -1    0    0    0    0  0.00000000000E+00  0.00000000000E+00  0.45593999997E+02  0.45594000000E+02  0.51100000000E-03 0. -1.
         11   -1    0    0    0    0 -0.00000000000E+00 -0.00000000000E+00 -0.45593999997E+02  0.45594000000E+02  0.51100000000E-03 0.  1.
         23    2    1    2    0    0  0.17763568394E-14  0.71054273576E-14  0.17763568394E-14  0.91188000000E+02  0.91188000000E+02 0.  0.
    9900012    2    3    3    0    0  0.99347779558E+01 -0.37336028894E+02 -0.12668440154E+02  0.50528828309E+02  0.29999904129E+02 0.  0.
         12    1    3    3    0    0 -0.99347779558E+01  0.37336028894E+02  0.12668440154E+02  0.40659171691E+02  0.00000000000E+00 0. -1.
         11    1    4    4    0    0  0.57195764084E+01 -0.56185956145E+01  0.32173925541E+01  0.86390847941E+01  0.51100000000E-03 0. -1.
        -11    1    4    4    0    0  0.63911620475E+01  0.55451765787E+00 -0.26894871944E+01  0.69561328179E+01  0.51100000000E-03 0.  1.
        -12    1    4    4    0    0 -0.21759605001E+01 -0.32271950938E+02 -0.13196345514E+02  0.34933610697E+02  0.00000000000E+00 0.  1.
</event>
<event>
 8    1  0.4964753E-012  0.9118800E+02  0.7816164E-02  0.1184000E+00
        -11   -1    0    0    0    0  0.00000000000E+00  0.00000000000E+00  0.45593999997E+02  0.45594000000E+02  0.51100000000E-03 0.  1.
         11   -1    0    0    0    0 -0.00000000000E+00 -0.00000000000E+00 -0.45593999997E+02  0.45594000000E+02  0.51100000000E-03 0. -1.
         23    2    1    2    0    0  0.00000000000E+00  0.71054273576E-14 -0.35527136788E-14  0.91188000000E+02  0.91188000000E+02 0.  0.
    9900012    2    3    3    0    0 -0.13255086441E+02  0.34492900922E+02 -0.16961969691E+02  0.50528856547E+02  0.29999989960E+02 0.  0.
         12    1    3    3    0    0  0.13255086441E+02 -0.34492900922E+02  0.16961969691E+02  0.40659143453E+02  0.00000000000E+00 0. -1.
         11    1    4    4    0    0  0.36693950190E+01  0.11810599550E+01 -0.93074082802E+01  0.10074086141E+02  0.51100000000E-03 0. -1.
        -11    1    4    4    0    0  0.79414559588E-01  0.20758520795E+01  0.27066014511E+01  0.34119144486E+01  0.51100000000E-03 0.  1.
        -12    1    4    4    0    0 -0.17003896020E+02  0.31235988887E+02 -0.10361162862E+02  0.37042855957E+02  0.00000000000E+00 0.  1.
</event>
<event>
 8    1  0.4964753E-012  0.9118800E+02  0.7816164E-02  0.1184000E+00
        -11   -1    0    0    0    0  0.00000000000E+00  0.00000000000E+00  0.45593999997E+02  0.45594000000E+02  0.51100000000E-03 0.  1.
         11   -1    0    0    0    0 -0.00000000000E+00 -0.00000000000E+00 -0.45593999997E+02  0.45594000000E+02  0.51100000000E-03 0. -1.
         23    2    1    2    0    0  0.00000000000E+00 -0.17763568394E-14 -0.71054273576E-14  0.91188000000E+02  0.91188000000E+02 0.  0.
    9900012    2    3    3    0    0 -0.10684510767E+02 -0.74954215158E+01 -0.38507468989E+02  0.50528864717E+02  0.30000014795E+02 0.  0.
         12    1    3    3    0    0  0.10684510767E+02  0.74954215158E+01  0.38507468989E+02  0.40659135283E+02  0.00000000000E+00 0. -1.
         11    1    4    4    0    0 -0.87991280386E+01 -0.13635886144E+01 -0.18458476708E+02  0.20493886669E+02  0.51100000000E-03 0. -1.
        -11    1    4    4    0    0 -0.69962092205E+01 -0.12396491038E+02 -0.11866731353E+02  0.18532113932E+02  0.51100000000E-03 0.  1.
        -12    1    4    4    0    0  0.51108264922E+01  0.62646581368E+01 -0.81822609277E+01  0.11502864117E+02  0.00000000000E+00 0.  1.
</event>
<event>
 8    1  0.4964753E-012  0.9118800E+02  0.7816164E-02  0.1184000E+00
        -11   -1    0    0    0    0  0.00000000000E+00  0.00000000000E+00  0.45593999997E+02  0.45594000000E+02  0.51100000000E-03 0. -1.
         11   -1    0    0    0    0 -0.00000000000E+00 -0.00000000000E+00 -0.45593999997E+02  0.45594000000E+02  0.51100000000E-03 0.  1.
         23    2    1    2    0    0  0.00000000000E+00  0.00000000000E+00  0.35527136788E-14  0.91188000000E+02  0.91188000000E+02 0.  0.
    9900012    2    3    3    0    0 -0.45635235218E+01  0.32855078890E+02  0.23513498458E+02  0.50528848932E+02  0.29999966814E+02 0.  0.
        -12    1    3    3    0    0  0.45635235218E+01 -0.32855078890E+02 -0.23513498458E+02  0.40659151068E+02  0.00000000000E+00 0.  1.
         11    1    4    4    0    0  0.25816895586E+01  0.24347324908E+02  0.12209789817E+02  0.27359391784E+02  0.51100000000E-03 0. -1.
        -11    1    4    4    0    0 -0.62063705894E+01  0.11810813174E+02  0.23076456049E+01  0.13540294392E+02  0.51100000000E-03 0.  1.
        -12    1    4    4    0    0 -0.93884249097E+00 -0.33030591914E+01  0.89960630358E+01  0.96291627563E+01  0.00000000000E+00 0.  1.
</event>
<event>
 8    1  0.4964753E-012  0.9118800E+02  0.7816164E-02  0.1184000E+00
        -11   -1    0    0    0    0  0.00000000000E+00  0.00000000000E+00  0.45593999997E+02  0.45594000000E+02  0.51100000000E-03 0. -1.
         11   -1    0    0    0    0 -0.00000000000E+00 -0.00000000000E+00 -0.45593999997E+02  0.45594000000E+02  0.51100000000E-03 0.  1.
         23    2    1    2    0    0 -0.15543122345E-14  0.00000000000E+00  0.00000000000E+00  0.91188000000E+02  0.91188000000E+02 0.  0.
    9900012    2    3    3    0    0 -0.50582105797E+00 -0.80256616673E+01  0.39855974018E+02  0.50528858776E+02  0.29999996736E+02 0.  0.
        -12    1    3    3    0    0  0.50582105797E+00  0.80256616673E+01 -0.39855974018E+02  0.40659141224E+02  0.00000000000E+00 0.  1.
         11    1    4    4    0    0  0.22314045683E+01 -0.60344740441E+01  0.67128767259E+00  0.64687456849E+01  0.51100000000E-03 0.  1.
        -11    1    4    4    0    0  0.41639471244E+01 -0.83285614994E+01  0.11293188311E+02  0.14636922313E+02  0.51100000000E-03 0. -1.
         12    1    4    4    0    0 -0.69011727507E+01  0.63373738762E+01  0.27891498034E+02  0.29423190778E+02  0.00000000000E+00 0. -1.
</event>
<event>
 8    1  0.4964753E-012  0.9118800E+02  0.7816164E-02  0.1184000E+00
        -11   -1    0    0    0    0  0.00000000000E+00  0.00000000000E+00  0.45593999997E+02  0.45594000000E+02  0.51100000000E-03 0. -1.
         11   -1    0    0    0    0 -0.00000000000E+00 -0.00000000000E+00 -0.45593999997E+02  0.45594000000E+02  0.51100000000E-03 0.  1.
         23    2    1    2    0    0  0.00000000000E+00 -0.13322676296E-14  0.00000000000E+00  0.91188000000E+02  0.91188000000E+02 0.  0.
    9900012    2    3    3    0    0  0.11584315810E+02  0.18777071990E+01  0.38928701872E+02  0.50528856053E+02  0.29999988458E+02 0.  0.
        -12    1    3    3    0    0 -0.11584315810E+02 -0.18777071990E+01 -0.38928701872E+02  0.40659143947E+02  0.00000000000E+00 0.  1.
         11    1    4    4    0    0  0.93978046910E+01 -0.37680657114E+01  0.30961272733E+02  0.32574797954E+02  0.51100000000E-03 0. -1.
        -11    1    4    4    0    0  0.17461299115E+01 -0.49503273145E+01  0.12358021891E+01  0.53927652925E+01  0.51100000000E-03 0.  1.
         12    1    4    4    0    0  0.44038120791E+00  0.10596100225E+02  0.67316269493E+01  0.12561292806E+02  0.00000000000E+00 0. -1.
</event>
<event>
 8    1  0.4964753E-012  0.9118800E+02  0.7816164E-02  0.1184000E+00
        -11   -1    0    0    0    0  0.00000000000E+00  0.00000000000E+00  0.45593999997E+02  0.45594000000E+02  0.51100000000E-03 0.  1.
         11   -1    0    0    0    0 -0.00000000000E+00 -0.00000000000E+00 -0.45593999997E+02  0.45594000000E+02  0.51100000000E-03 0. -1.
         23    2    1    2    0    0 -0.35527136788E-14 -0.35527136788E-14 -0.35527136788E-14  0.91188000000E+02  0.91188000000E+02 0.  0.
    9900012    2    3    3    0    0  0.31510960845E+02  0.20469986212E+02  0.15530826120E+02  0.50528836840E+02  0.29999930058E+02 0.  0.
         12    1    3    3    0    0 -0.31510960845E+02 -0.20469986212E+02 -0.15530826120E+02  0.40659163160E+02  0.00000000000E+00 0. -1.
         11    1    4    4    0    0  0.37436507500E+01  0.11181856861E+02 -0.47794877004E+01  0.12723692339E+02  0.51100000000E-03 0. -1.
        -11    1    4    4    0    0  0.22439193545E+01 -0.28467206630E+01  0.23245595635E+01  0.43061084552E+01  0.51100000000E-03 0.  1.
        -12    1    4    4    0    0  0.25523390741E+02  0.12134850014E+02  0.17985754257E+02  0.33499036045E+02  0.00000000000E+00 0.  1.
</event>
<event>
 8    1  0.4964753E-012  0.9118800E+02  0.7816164E-02  0.1184000E+00
        -11   -1    0    0    0    0  0.00000000000E+00  0.00000000000E+00  0.45593999997E+02  0.45594000000E+02  0.51100000000E-03 0.  1.
         11   -1    0    0    0    0 -0.00000000000E+00 -0.00000000000E+00 -0.45593999997E+02  0.45594000000E+02  0.51100000000E-03 0. -1.
         23    2    1    2    0    0  0.71054273576E-14 -0.17763568394E-14 -0.22204460493E-15  0.91188000000E+02  0.91188000000E+02 0.  0.
    9900012    2    3    3    0    0 -0.37447502896E+02  0.15749415150E+02  0.16751665742E+01  0.50528859161E+02  0.29999997904E+02 0.  0.
        -12    1    3    3    0    0  0.37447502896E+02 -0.15749415150E+02 -0.16751665742E+01  0.40659140839E+02  0.00000000000E+00 0.  1.
         11    1    4    4    0    0 -0.25823595226E+02  0.14778116980E+02 -0.44000912888E+01  0.30076762051E+02  0.51100000000E-03 0. -1.
        -11    1    4    4    0    0 -0.15405654835E+02  0.14882913443E+01  0.60973527881E+01  0.16635111160E+02  0.51100000000E-03 0.  1.
         12    1    4    4    0    0  0.37817471640E+01 -0.51699317458E+00 -0.22094925027E-01  0.38169859498E+01  0.00000000000E+00 0. -1.
</event>
<event>
 8    1  0.4964753E-012  0.9118800E+02  0.7816164E-02  0.1184000E+00
        -11   -1    0    0    0    0  0.00000000000E+00  0.00000000000E+00  0.45593999997E+02  0.45594000000E+02  0.51100000000E-03 0.  1.
         11   -1    0    0    0    0 -0.00000000000E+00 -0.00000000000E+00 -0.45593999997E+02  0.45594000000E+02  0.51100000000E-03 0. -1.
         23    2    1    2    0    0 -0.10658141036E-13  0.44408920985E-15  0.00000000000E+00  0.91188000000E+02  0.91188000000E+02 0.  0.
    9900012    2    3    3    0    0  0.30665726123E+02 -0.21789691727E+01 -0.26608854884E+02  0.50528858057E+02  0.29999994549E+02 0.  0.
         12    1    3    3    0    0 -0.30665726123E+02  0.21789691727E+01  0.26608854884E+02  0.40659141943E+02  0.00000000000E+00 0. -1.
         11    1    4    4    0    0  0.19562092598E+02 -0.46225177251E+01 -0.20825479056E+02  0.28943802706E+02  0.51100000000E-03 0. -1.
        -11    1    4    4    0    0  0.15730070505E+02  0.31169540273E+01 -0.36497252154E+01  0.16446003007E+02  0.51100000000E-03 0.  1.
        -12    1    4    4    0    0 -0.46264369789E+01 -0.67340547488E+00 -0.21336506123E+01  0.51390523435E+01  0.00000000000E+00 0.  1.
</event>
<event>
 8    1  0.4964753E-012  0.9118800E+02  0.7816164E-02  0.1184000E+00
        -11   -1    0    0    0    0  0.00000000000E+00  0.00000000000E+00  0.45593999997E+02  0.45594000000E+02  0.51100000000E-03 0. -1.
         11   -1    0    0    0    0 -0.00000000000E+00 -0.00000000000E+00 -0.45593999997E+02  0.45594000000E+02  0.51100000000E-03 0.  1.
         23    2    1    2    0    0  0.71054273576E-14  0.00000000000E+00 -0.17763568394E-14  0.91188000000E+02  0.91188000000E+02 0.  0.
    9900012    2    3    3    0    0 -0.33541275760E+02  0.17772008592E+02  0.14570656281E+02  0.50528862116E+02  0.30000006887E+02 0.  0.
        -12    1    3    3    0    0  0.33541275760E+02 -0.17772008592E+02 -0.14570656281E+02  0.40659137884E+02  0.00000000000E+00 0.  1.
         11    1    4    4    0    0 -0.70300943361E+01  0.10646251699E+02  0.99423797541E+01  0.16174542251E+02  0.51100000000E-03 0. -1.
        -11    1    4    4    0    0  0.14580485155E+01  0.46772728440E+01 -0.23353971283E+01  0.54274180546E+01  0.51100000000E-03 0.  1.
         12    1    4    4    0    0 -0.27969229939E+02  0.24484840495E+01  0.69636736556E+01  0.28926901810E+02  0.00000000000E+00 0. -1.
</event>
<event>
 8    1  0.4964753E-012  0.9118800E+02  0.7816164E-02  0.1184000E+00
        -11   -1    0    0    0    0  0.00000000000E+00  0.00000000000E+00  0.45593999997E+02  0.45594000000E+02  0.51100000000E-03 0. -1.
         11   -1    0    0    0    0 -0.00000000000E+00 -0.00000000000E+00 -0.45593999997E+02  0.45594000000E+02  0.51100000000E-03 0.  1.
         23    2    1    2    0    0 -0.35527136788E-14 -0.71054273576E-14  0.00000000000E+00  0.91188000000E+02  0.91188000000E+02 0.  0.
    9900012    2    3    3    0    0 -0.24462091676E+02  0.27705858451E+02  0.16945725083E+02  0.50528854408E+02  0.29999983459E+02 0.  0.
        -12    1    3    3    0    0  0.24462091676E+02 -0.27705858451E+02 -0.16945725083E+02  0.40659145592E+02  0.00000000000E+00 0.  1.
         11    1    4    4    0    0 -0.10005716901E+02  0.20851323698E+02  0.14695225893E+02  0.27401491473E+02  0.51100000000E-03 0. -1.
        -11    1    4    4    0    0 -0.10407854899E+01 -0.36710690948E+00  0.70636608860E+01  0.71493571244E+01  0.51100000000E-03 0.  1.
         12    1    4    4    0    0 -0.13415589285E+02  0.72216416630E+01 -0.48131616964E+01  0.15978005811E+02  0.00000000000E+00 0. -1.
</event>
<event>
 8    1  0.4964753E-012  0.9118800E+02  0.7816164E-02  0.1184000E+00
        -11   -1    0    0    0    0  0.00000000000E+00  0.00000000000E+00  0.45593999997E+02  0.45594000000E+02  0.51100000000E-03 0. -1.
         11   -1    0    0    0    0 -0.00000000000E+00 -0.00000000000E+00 -0.45593999997E+02  0.45594000000E+02  0.51100000000E-03 0.  1.
         23    2    1    2    0    0  0.88817841970E-15  0.14210854715E-13  0.00000000000E+00  0.91188000000E+02  0.91188000000E+02 0.  0.
    9900012    2    3    3    0    0  0.38769811177E+01  0.37659117438E+02  0.14829852942E+02  0.50528872524E+02  0.30000038524E+02 0.  0.
        -12    1    3    3    0    0 -0.38769811177E+01 -0.37659117438E+02 -0.14829852942E+02  0.40659127476E+02  0.00000000000E+00 0.  1.
         11    1    4    4    0    0  0.42137895869E+01  0.28677638662E+02  0.18943532249E+02  0.34626873903E+02  0.51100000000E-03 0. -1.
        -11    1    4    4    0    0  0.30244180355E+01  0.10194188986E+02 -0.24586594787E+00  0.10636213794E+02  0.51100000000E-03 0.  1.
        -12    1    4    4    0    0 -0.33612265047E+01 -0.12127102102E+01 -0.38678133591E+01  0.52657848276E+01  0.00000000000E+00 0.  1.
</event>
<event>
 8    1  0.4964753E-012  0.9118800E+02  0.7816164E-02  0.1184000E+00
        -11   -1    0    0    0    0  0.00000000000E+00  0.00000000000E+00  0.45593999997E+02  0.45594000000E+02  0.51100000000E-03 0.  1.
         11   -1    0    0    0    0 -0.00000000000E+00 -0.00000000000E+00 -0.45593999997E+02  0.45594000000E+02  0.51100000000E-03 0. -1.
         23    2    1    2    0    0  0.00000000000E+00  0.00000000000E+00  0.00000000000E+00  0.91188000000E+02  0.91188000000E+02 0.  0.
    9900012    2    3    3    0    0  0.10140379281E+02 -0.39221113279E+02  0.34697411762E+01  0.50528903569E+02  0.30000132887E+02 0.  0.
        -12    1    3    3    0    0 -0.10140379281E+02  0.39221113279E+02 -0.34697411762E+01  0.40659096431E+02  0.00000000000E+00 0.  1.
         11    1    4    4    0    0  0.11376001058E+02 -0.14025288045E+02 -0.22210227880E+00  0.18060216901E+02  0.51100000000E-03 0. -1.
        -11    1    4    4    0    0  0.30799371209E+01 -0.26511627246E+02  0.60658102689E+01  0.27370539753E+02  0.51100000000E-03 0.  1.
         12    1    4    4    0    0 -0.43155588978E+01  0.13158020119E+01 -0.23739668139E+01  0.50981469151E+01  0.00000000000E+00 0. -1.
</event>
<event>
 8    1  0.4964753E-012  0.9118800E+02  0.7816164E-02  0.1184000E+00
        -11   -1    0    0    0    0  0.00000000000E+00  0.00000000000E+00  0.45593999997E+02  0.45594000000E+02  0.51100000000E-03 0. -1.
         11   -1    0    0    0    0 -0.00000000000E+00 -0.00000000000E+00 -0.45593999997E+02  0.45594000000E+02  0.51100000000E-03 0.  1.
         23    2    1    2    0    0 -0.13322676296E-14  0.00000000000E+00  0.00000000000E+00  0.91188000000E+02  0.91188000000E+02 0.  0.
    9900012    2    3    3    0    0 -0.66252841475E+00  0.23334877281E+02  0.33289764172E+02  0.50528882446E+02  0.30000068683E+02 0.  0.
        -12    1    3    3    0    0  0.66252841475E+00 -0.23334877281E+02 -0.33289764172E+02  0.40659117554E+02  0.00000000000E+00 0.  1.
         11    1    4    4    0    0 -0.10272343314E+02  0.75764993310E+01  0.10335680090E+02  0.16424087873E+02  0.51100000000E-03 0. -1.
        -11    1    4    4    0    0  0.91275090989E+00 -0.36935069025E+01  0.23940580094E+01  0.44951775800E+01  0.51100000000E-03 0.  1.
        -12    1    4    4    0    0  0.86970639895E+01  0.19451884853E+02  0.20560026073E+02  0.29609616993E+02  0.00000000000E+00 0.  1.
</event>
<event>
 8    1  0.4964753E-012  0.9118800E+02  0.7816164E-02  0.1184000E+00
        -11   -1    0    0    0    0  0.00000000000E+00  0.00000000000E+00  0.45593999997E+02  0.45594000000E+02  0.51100000000E-03 0. -1.
         11   -1    0    0    0    0 -0.00000000000E+00 -0.00000000000E+00 -0.45593999997E+02  0.45594000000E+02  0.51100000000E-03 0.  1.
         23    2    1    2    0    0  0.00000000000E+00 -0.17763568394E-14  0.00000000000E+00  0.91188000000E+02  0.91188000000E+02 0.  0.
    9900012    2    3    3    0    0  0.30347240664E+02 -0.64170139807E+01  0.26287499167E+02  0.50528859615E+02  0.29999999286E+02 0.  0.
        -12    1    3    3    0    0 -0.30347240664E+02  0.64170139807E+01 -0.26287499167E+02  0.40659140385E+02  0.00000000000E+00 0.  1.
         11    1    4    4    0    0 -0.14233998399E+01 -0.22085411195E+01  0.12316071234E+02  0.12593225634E+02  0.51100000000E-03 0. -1.
        -11    1    4    4    0    0  0.13611700254E+02 -0.70209267346E+01  0.11995716564E+02  0.19454280048E+02  0.51100000000E-03 0.  1.
         12    1    4    4    0    0  0.18158940250E+02  0.28124538734E+01  0.19757113695E+01  0.18481353933E+02  0.00000000000E+00 0. -1.
</event>
<event>
 8    1  0.4964753E-012  0.9118800E+02  0.7816164E-02  0.1184000E+00
        -11   -1    0    0    0    0  0.00000000000E+00  0.00000000000E+00  0.45593999997E+02  0.45594000000E+02  0.51100000000E-03 0. -1.
         11   -1    0    0    0    0 -0.00000000000E+00 -0.00000000000E+00 -0.45593999997E+02  0.45594000000E+02  0.51100000000E-03 0.  1.
         23    2    1    2    0    0 -0.35527136788E-14  0.00000000000E+00 -0.35527136788E-14  0.91188000000E+02  0.91188000000E+02 0.  0.
    9900012    2    3    3    0    0 -0.17762503877E+02  0.26963931418E+02 -0.24710432163E+02  0.50528860816E+02  0.30000002936E+02 0.  0.
         12    1    3    3    0    0  0.17762503877E+02 -0.26963931418E+02  0.24710432163E+02  0.40659139184E+02  0.00000000000E+00 0. -1.
         11    1    4    4    0    0  0.25162346340E+01  0.11260591349E+01 -0.37333061994E+01  0.46407996454E+01  0.51100000000E-03 0. -1.
        -11    1    4    4    0    0 -0.10494005702E+02  0.42595799757E+01 -0.18991218451E+02  0.22111864593E+02  0.51100000000E-03 0.  1.
         12    1    4    4    0    0 -0.97847328088E+01  0.21578292307E+02 -0.19859075124E+01  0.23776196578E+02  0.00000000000E+00 0. -1.
</event>
<event>
 8    1  0.4964753E-012  0.9118800E+02  0.7816164E-02  0.1184000E+00
        -11   -1    0    0    0    0  0.00000000000E+00  0.00000000000E+00  0.45593999997E+02  0.45594000000E+02  0.51100000000E-03 0. -1.
         11   -1    0    0    0    0 -0.00000000000E+00 -0.00000000000E+00 -0.45593999997E+02  0.45594000000E+02  0.51100000000E-03 0.  1.
         23    2    1    2    0    0  0.00000000000E+00  0.00000000000E+00  0.88817841970E-15  0.91188000000E+02  0.91188000000E+02 0.  0.
    9900012    2    3    3    0    0  0.19941213565E+02  0.35364907825E+02 -0.21985713775E+01  0.50528899911E+02  0.30000121770E+02 0.  0.
         12    1    3    3    0    0 -0.19941213565E+02 -0.35364907825E+02  0.21985713775E+01  0.40659100089E+02  0.00000000000E+00 0. -1.
         11    1    4    4    0    0  0.86129383612E+00  0.15502592867E+02  0.24384610685E+00  0.15528415047E+02  0.51100000000E-03 0. -1.
        -11    1    4    4    0    0  0.20486593779E+02  0.19223920377E+02 -0.80174520609E+01  0.29215392812E+02  0.51100000000E-03 0.  1.
        -12    1    4    4    0    0 -0.14066740505E+01  0.63839458061E+00  0.55750345765E+01  0.57850920523E+01  0.00000000000E+00 0.  1.
</event>
<event>
 8    1  0.4964753E-012  0.9118800E+02  0.7816164E-02  0.1184000E+00
        -11   -1    0    0    0    0  0.00000000000E+00  0.00000000000E+00  0.45593999997E+02  0.45594000000E+02  0.51100000000E-03 0. -1.
         11   -1    0    0    0    0 -0.00000000000E+00 -0.00000000000E+00 -0.45593999997E+02  0.45594000000E+02  0.51100000000E-03 0.  1.
         23    2    1    2    0    0  0.00000000000E+00  0.17763568394E-14 -0.71054273576E-14  0.91188000000E+02  0.91188000000E+02 0.  0.
    9900012    2    3    3    0    0 -0.19526356147E+02 -0.15156107646E+02  0.32282804425E+02  0.50528860253E+02  0.30000001226E+02 0.  0.
        -12    1    3    3    0    0  0.19526356147E+02  0.15156107646E+02 -0.32282804425E+02  0.40659139747E+02  0.00000000000E+00 0.  1.
         11    1    4    4    0    0 -0.16128451738E+02 -0.70884209456E+01  0.21075843105E+02  0.27469325252E+02  0.51100000000E-03 0. -1.
        -11    1    4    4    0    0  0.25412049495E+01  0.13900686235E+01  0.11528686942E+02  0.11886994416E+02  0.51100000000E-03 0.  1.
        -12    1    4    4    0    0 -0.59391093591E+01 -0.94577553244E+01 -0.32172562190E+00  0.11172540585E+02  0.00000000000E+00 0.  1.
</event>
<event>
 8    1  0.4964753E-012  0.9118800E+02  0.7816164E-02  0.1184000E+00
        -11   -1    0    0    0    0  0.00000000000E+00  0.00000000000E+00  0.45593999997E+02  0.45594000000E+02  0.51100000000E-03 0. -1.
         11   -1    0    0    0    0 -0.00000000000E+00 -0.00000000000E+00 -0.45593999997E+02  0.45594000000E+02  0.51100000000E-03 0.  1.
         23    2    1    2    0    0 -0.35527136788E-14  0.35527136788E-14 -0.44408920985E-15  0.91188000000E+02  0.91188000000E+02 0.  0.
    9900012    2    3    3    0    0 -0.29357754085E+02 -0.27991754741E+02  0.27837014471E+01  0.50528867544E+02  0.30000023386E+02 0.  0.
        -12    1    3    3    0    0  0.29357754085E+02  0.27991754741E+02 -0.27837014471E+01  0.40659132456E+02  0.00000000000E+00 0.  1.
         11    1    4    4    0    0 -0.66400959699E+01 -0.24655013140E+02  0.14737469281E+01  0.25576013717E+02  0.51100000000E-03 0. -1.
        -11    1    4    4    0    0 -0.81781659979E+01 -0.27094258742E+01  0.49707752442E+01  0.99464563763E+01  0.51100000000E-03 0.  1.
        -12    1    4    4    0    0 -0.14539492117E+02 -0.62731572671E+00 -0.36608207251E+01  0.15006397450E+02  0.00000000000E+00 0.  1.
</event>
<event>
 8    1  0.4964753E-012  0.9118800E+02  0.7816164E-02  0.1184000E+00
        -11   -1    0    0    0    0  0.00000000000E+00  0.00000000000E+00  0.45593999997E+02  0.45594000000E+02  0.51100000000E-03 0.  1.
         11   -1    0    0    0    0 -0.00000000000E+00 -0.00000000000E+00 -0.45593999997E+02  0.45594000000E+02  0.51100000000E-03 0. -1.
         23    2    1    2    0    0  0.00000000000E+00  0.88817841970E-15 -0.35527136788E-14  0.91188000000E+02  0.91188000000E+02 0.  0.
    9900012    2    3    3    0    0  0.33398580411E+02 -0.76301355968E+01 -0.21897008875E+02  0.50528891053E+02  0.30000094844E+02 0.  0.
         12    1    3    3    0    0 -0.33398580411E+02  0.76301355968E+01  0.21897008875E+02  0.40659108947E+02  0.00000000000E+00 0. -1.
         11    1    4    4    0    0  0.86213020055E+01  0.16855616385E+01 -0.13226399431E+02  0.15877833872E+02  0.51100000000E-03 0. -1.
        -11    1    4    4    0    0  0.19989266187E+02  0.28900126152E+01 -0.32208110806E+01  0.20452299624E+02  0.51100000000E-03 0.  1.
        -12    1    4    4    0    0  0.47880122179E+01 -0.12205709851E+02 -0.54497983641E+01  0.14198757557E+02  0.00000000000E+00 0.  1.
</event>
<event>
 8    1  0.4964753E-012  0.9118800E+02  0.7816164E-02  0.1184000E+00
        -11   -1    0    0    0    0  0.00000000000E+00  0.00000000000E+00  0.45593999997E+02  0.45594000000E+02  0.51100000000E-03 0. -1.
         11   -1    0    0    0    0 -0.00000000000E+00 -0.00000000000E+00 -0.45593999997E+02  0.45594000000E+02  0.51100000000E-03 0.  1.
         23    2    1    2    0    0 -0.35527136788E-14  0.00000000000E+00  0.00000000000E+00  0.91188000000E+02  0.91188000000E+02 0.  0.
    9900012    2    3    3    0    0 -0.24748859151E+02  0.89676219728E+01 -0.30987759561E+02  0.50528861843E+02  0.30000006057E+02 0.  0.
         12    1    3    3    0    0  0.24748859151E+02 -0.89676219728E+01  0.30987759561E+02  0.40659138157E+02  0.00000000000E+00 0. -1.
         11    1    4    4    0    0 -0.15653810652E+02 -0.69016938841E+01 -0.11480121701E+02  0.20602629952E+02  0.51100000000E-03 0. -1.
        -11    1    4    4    0    0 -0.85385515906E+01  0.42396765431E+01 -0.35501738268E+01  0.10172780098E+02  0.51100000000E-03 0.  1.
        -12    1    4    4    0    0 -0.55649690794E+00  0.11629639314E+02 -0.15957464033E+02  0.19753451793E+02  0.00000000000E+00 0.  1.
</event>
<event>
 8    1  0.4964753E-012  0.9118800E+02  0.7816164E-02  0.1184000E+00
        -11   -1    0    0    0    0  0.00000000000E+00  0.00000000000E+00  0.45593999997E+02  0.45594000000E+02  0.51100000000E-03 0. -1.
         11   -1    0    0    0    0 -0.00000000000E+00 -0.00000000000E+00 -0.45593999997E+02  0.45594000000E+02  0.51100000000E-03 0.  1.
         23    2    1    2    0    0  0.00000000000E+00  0.00000000000E+00  0.71054273576E-14  0.91188000000E+02  0.91188000000E+02 0.  0.
    9900012    2    3    3    0    0 -0.21458001572E+02  0.37923673255E+01 -0.34326868816E+02  0.50528907485E+02  0.30000144792E+02 0.  0.
         12    1    3    3    0    0  0.21458001572E+02 -0.37923673255E+01  0.34326868816E+02  0.40659092515E+02  0.00000000000E+00 0. -1.
         11    1    4    4    0    0 -0.11306705045E+02 -0.22338641802E+01 -0.67806315237E+01  0.13371936743E+02  0.51100000000E-03 0. -1.
        -11    1    4    4    0    0 -0.91017939204E+01 -0.50364037338E+01 -0.22824365548E+02  0.25083055597E+02  0.51100000000E-03 0.  1.
         12    1    4    4    0    0 -0.10495026067E+01  0.11062635239E+02 -0.47218717440E+01  0.12073915145E+02  0.00000000000E+00 0. -1.
</event>
<event>
 8    1  0.4964753E-012  0.9118800E+02  0.7816164E-02  0.1184000E+00
        -11   -1    0    0    0    0  0.00000000000E+00  0.00000000000E+00  0.45593999997E+02  0.45594000000E+02  0.51100000000E-03 0. -1.
         11   -1    0    0    0    0 -0.00000000000E+00 -0.00000000000E+00 -0.45593999997E+02  0.45594000000E+02  0.51100000000E-03 0.  1.
         23    2    1    2    0    0  0.17763568394E-14  0.00000000000E+00  0.00000000000E+00  0.91188000000E+02  0.91188000000E+02 0.  0.
    9900012    2    3    3    0    0 -0.59045905779E+01  0.28424610811E+02  0.28466520952E+02  0.50528861977E+02  0.30000006466E+02 0.  0.
        -12    1    3    3    0    0  0.59045905779E+01 -0.28424610811E+02 -0.28466520952E+02  0.40659138023E+02  0.00000000000E+00 0.  1.
         11    1    4    4    0    0  0.46639320996E+01  0.78940765783E+01  0.10221461963E+02  0.13731241479E+02  0.51100000000E-03 0. -1.
        -11    1    4    4    0    0  0.59900231349E+01  0.32330517278E+01  0.19247770352E+00  0.68095556800E+01  0.51100000000E-03 0.  1.
         12    1    4    4    0    0 -0.16558545812E+02  0.17297482505E+02  0.18052581286E+02  0.29988064818E+02  0.00000000000E+00 0. -1.
</event>
<event>
 8    1  0.4964753E-012  0.9118800E+02  0.7816164E-02  0.1184000E+00
        -11   -1    0    0    0    0  0.00000000000E+00  0.00000000000E+00  0.45593999997E+02  0.45594000000E+02  0.51100000000E-03 0. -1.
         11   -1    0    0    0    0 -0.00000000000E+00 -0.00000000000E+00 -0.45593999997E+02  0.45594000000E+02  0.51100000000E-03 0.  1.
         23    2    1    2    0    0  0.00000000000E+00  0.00000000000E+00  0.00000000000E+00  0.91188000000E+02  0.91188000000E+02 0.  0.
    9900012    2    3    3    0    0 -0.27129609463E+02 -0.21055582517E+02 -0.21767279105E+02  0.50528834927E+02  0.29999924245E+02 0.  0.
         12    1    3    3    0    0  0.27129609463E+02  0.21055582517E+02  0.21767279105E+02  0.40659165073E+02  0.00000000000E+00 0. -1.
         11    1    4    4    0    0 -0.91203884654E+01  0.22451558749E+01 -0.10030765710E+02  0.13741851100E+02  0.51100000000E-03 0.  1.
        -11    1    4    4    0    0  0.29700203608E+01 -0.34338106650E+01 -0.56699936504E+01  0.72636702075E+01  0.51100000000E-03 0. -1.
         12    1    4    4    0    0 -0.20979241358E+02 -0.19866927727E+02 -0.60665197449E+01  0.29523313620E+02  0.00000000000E+00 0. -1.
</event>
<event>
 8    1  0.4964753E-012  0.9118800E+02  0.7816164E-02  0.1184000E+00
        -11   -1    0    0    0    0  0.00000000000E+00  0.00000000000E+00  0.45593999997E+02  0.45594000000E+02  0.51100000000E-03 0. -1.
         11   -1    0    0    0    0 -0.00000000000E+00 -0.00000000000E+00 -0.45593999997E+02  0.45594000000E+02  0.51100000000E-03 0.  1.
         23    2    1    2    0    0  0.00000000000E+00  0.00000000000E+00  0.00000000000E+00  0.91188000000E+02  0.91188000000E+02 0.  0.
    9900012    2    3    3    0    0 -0.12129377261E+02  0.97071593269E+01  0.37574125688E+02  0.50528860116E+02  0.30000000808E+02 0.  0.
        -12    1    3    3    0    0  0.12129377261E+02 -0.97071593269E+01 -0.37574125688E+02  0.40659139884E+02  0.00000000000E+00 0.  1.
         11    1    4    4    0    0  0.67826331789E+01  0.53774022978E+01  0.83276133923E+01  0.12011232800E+02  0.51100000000E-03 0. -1.
        -11    1    4    4    0    0 -0.25489774251E+01  0.56311129828E+00  0.18273754176E+02  0.18459265213E+02  0.51100000000E-03 0.  1.
         12    1    4    4    0    0 -0.16363033015E+02  0.37666457308E+01  0.10972758119E+02  0.20058362102E+02  0.00000000000E+00 0. -1.
</event>
<event>
 8    1  0.4964753E-012  0.9118800E+02  0.7816164E-02  0.1184000E+00
        -11   -1    0    0    0    0  0.00000000000E+00  0.00000000000E+00  0.45593999997E+02  0.45594000000E+02  0.51100000000E-03 0.  1.
         11   -1    0    0    0    0 -0.00000000000E+00 -0.00000000000E+00 -0.45593999997E+02  0.45594000000E+02  0.51100000000E-03 0. -1.
         23    2    1    2    0    0  0.00000000000E+00 -0.13322676296E-14 -0.34694469520E-15  0.91188000000E+02  0.91188000000E+02 0.  0.
    9900012    2    3    3    0    0  0.40581748332E+02  0.25057054003E+01  0.81869830552E-01  0.50528885894E+02  0.30000079163E+02 0.  0.
         12    1    3    3    0    0 -0.40581748332E+02 -0.25057054003E+01 -0.81869830552E-01  0.40659114106E+02  0.00000000000E+00 0. -1.
         11    1    4    4    0    0  0.26797253513E+01 -0.82196231495E+01  0.14994069593E-01  0.86454240938E+01  0.51100000000E-03 0. -1.
        -11    1    4    4    0    0  0.95963709376E+01  0.38716831860E+01 -0.62414206501E+01  0.12084518934E+02  0.51100000000E-03 0.  1.
        -12    1    4    4    0    0  0.28305652043E+02  0.68536453638E+01  0.63082964111E+01  0.29798942866E+02  0.00000000000E+00 0.  1.
</event>
<event>
 8    1  0.4964753E-012  0.9118800E+02  0.7816164E-02  0.1184000E+00
        -11   -1    0    0    0    0  0.00000000000E+00  0.00000000000E+00  0.45593999997E+02  0.45594000000E+02  0.51100000000E-03 0. -1.
         11   -1    0    0    0    0 -0.00000000000E+00 -0.00000000000E+00 -0.45593999997E+02  0.45594000000E+02  0.51100000000E-03 0.  1.
         23    2    1    2    0    0  0.71054273576E-14  0.00000000000E+00  0.00000000000E+00  0.91188000000E+02  0.91188000000E+02 0.  0.
    9900012    2    3    3    0    0  0.32731097218E+02 -0.47839109858E+01  0.23642241069E+02  0.50528854753E+02  0.29999984507E+02 0.  0.
        -12    1    3    3    0    0 -0.32731097218E+02  0.47839109858E+01 -0.23642241069E+02  0.40659145247E+02  0.00000000000E+00 0.  1.
         11    1    4    4    0    0  0.19943153865E+02 -0.42663777234E+00  0.66768062315E+01  0.21035473553E+02  0.51100000000E-03 0. -1.
        -11    1    4    4    0    0  0.33696887259E-01 -0.60253057777E+00 -0.43389530703E+01  0.43807182727E+01  0.51100000000E-03 0.  1.
         12    1    4    4    0    0  0.12754246466E+02 -0.37547426357E+01  0.21304387908E+02  0.25112662928E+02  0.00000000000E+00 0. -1.
</event>
<event>
 8    1  0.4964753E-012  0.9118800E+02  0.7816164E-02  0.1184000E+00
        -11   -1    0    0    0    0  0.00000000000E+00  0.00000000000E+00  0.45593999997E+02  0.45594000000E+02  0.51100000000E-03 0. -1.
         11   -1    0    0    0    0 -0.00000000000E+00 -0.00000000000E+00 -0.45593999997E+02  0.45594000000E+02  0.51100000000E-03 0.  1.
         23    2    1    2    0    0 -0.71054273576E-14  0.00000000000E+00  0.35527136788E-14  0.91188000000E+02  0.91188000000E+02 0.  0.
    9900012    2    3    3    0    0  0.26048641540E+02 -0.17033514840E+02 -0.26162809865E+02  0.50528868505E+02  0.30000026309E+02 0.  0.
         12    1    3    3    0    0 -0.26048641540E+02  0.17033514840E+02  0.26162809865E+02  0.40659131495E+02  0.00000000000E+00 0. -1.
         11    1    4    4    0    0  0.13491061024E+01  0.23683251660E+01 -0.67076969682E+01  0.72403211425E+01  0.51100000000E-03 0. -1.
        -11    1    4    4    0    0  0.18510289781E+02 -0.21987719990E+00 -0.90441227499E+01  0.20602799089E+02  0.51100000000E-03 0.  1.
        -12    1    4    4    0    0  0.61892456568E+01 -0.19181962806E+02 -0.10410990147E+02  0.22685748274E+02  0.00000000000E+00 0.  1.
</event>
<event>
 8    1  0.4964753E-012  0.9118800E+02  0.7816164E-02  0.1184000E+00
        -11   -1    0    0    0    0  0.00000000000E+00  0.00000000000E+00  0.45593999997E+02  0.45594000000E+02  0.51100000000E-03 0.  1.
         11   -1    0    0    0    0 -0.00000000000E+00 -0.00000000000E+00 -0.45593999997E+02  0.45594000000E+02  0.51100000000E-03 0. -1.
         23    2    1    2    0    0  0.00000000000E+00 -0.17763568394E-14  0.22204460493E-15  0.91188000000E+02  0.91188000000E+02 0.  0.
    9900012    2    3    3    0    0 -0.37690025090E+02 -0.15191012697E+02  0.13643078818E+01  0.50528853501E+02  0.29999980702E+02 0.  0.
         12    1    3    3    0    0  0.37690025090E+02  0.15191012697E+02 -0.13643078818E+01  0.40659146499E+02  0.00000000000E+00 0. -1.
         11    1    4    4    0    0 -0.13942958775E+01  0.29161040024E+01  0.23702266707E+01  0.40082038719E+01  0.51100000000E-03 0. -1.
        -11    1    4    4    0    0 -0.17588338624E+02  0.87526655687E+00 -0.74180815221E+01  0.19108733104E+02  0.51100000000E-03 0.  1.
        -12    1    4    4    0    0 -0.18707390588E+02 -0.18982383256E+02  0.64121627331E+01  0.27411916526E+02  0.00000000000E+00 0.  1.
</event>
<event>
 8    1  0.4964753E-012  0.9118800E+02  0.7816164E-02  0.1184000E+00
        -11   -1    0    0    0    0  0.00000000000E+00  0.00000000000E+00  0.45593999997E+02  0.45594000000E+02  0.51100000000E-03 0. -1.
         11   -1    0    0    0    0 -0.00000000000E+00 -0.00000000000E+00 -0.45593999997E+02  0.45594000000E+02  0.51100000000E-03 0.  1.
         23    2    1    2    0    0  0.00000000000E+00  0.17763568394E-14  0.00000000000E+00  0.91188000000E+02  0.91188000000E+02 0.  0.
    9900012    2    3    3    0    0  0.32548381342E+02  0.15947456980E+02 -0.18424111055E+02  0.50528851210E+02  0.29999973738E+02 0.  0.
         12    1    3    3    0    0 -0.32548381342E+02 -0.15947456980E+02  0.18424111055E+02  0.40659148790E+02  0.00000000000E+00 0. -1.
         11    1    4    4    0    0  0.16188531627E+02 -0.16486902130E+00 -0.19813873913E+00  0.16190583598E+02  0.51100000000E-03 0. -1.
        -11    1    4    4    0    0  0.18233936201E+02  0.96467241722E+01 -0.80636266041E+01  0.22148539250E+02  0.51100000000E-03 0.  1.
        -12    1    4    4    0    0 -0.18740864852E+01  0.64656018293E+01 -0.10162345712E+02  0.12189728362E+02  0.00000000000E+00 0.  1.
</event>
<event>
 8    1  0.4964753E-012  0.9118800E+02  0.7816164E-02  0.1184000E+00
        -11   -1    0    0    0    0  0.00000000000E+00  0.00000000000E+00  0.45593999997E+02  0.45594000000E+02  0.51100000000E-03 0. -1.
         11   -1    0    0    0    0 -0.00000000000E+00 -0.00000000000E+00 -0.45593999997E+02  0.45594000000E+02  0.51100000000E-03 0.  1.
         23    2    1    2    0    0  0.44408920985E-15  0.00000000000E+00  0.00000000000E+00  0.91188000000E+02  0.91188000000E+02 0.  0.
    9900012    2    3    3    0    0  0.24140318857E+01  0.14200131081E+02  0.38022314917E+02  0.50528834929E+02  0.29999924249E+02 0.  0.
        -12    1    3    3    0    0 -0.24140318857E+01 -0.14200131081E+02 -0.38022314917E+02  0.40659165071E+02  0.00000000000E+00 0.  1.
         11    1    4    4    0    0 -0.36767527968E+01 -0.39032378726E+01  0.92382808629E+01  0.10681741926E+02  0.51100000000E-03 0. -1.
        -11    1    4    4    0    0 -0.41489896386E+01  0.16618073263E+02  0.16455550896E+02  0.23752044745E+02  0.51100000000E-03 0.  1.
         12    1    4    4    0    0  0.10239774321E+02  0.14852956903E+01  0.12328483158E+02  0.16095048257E+02  0.00000000000E+00 0. -1.
</event>
<event>
 8    1  0.4964753E-012  0.9118800E+02  0.7816164E-02  0.1184000E+00
        -11   -1    0    0    0    0  0.00000000000E+00  0.00000000000E+00  0.45593999997E+02  0.45594000000E+02  0.51100000000E-03 0. -1.
         11   -1    0    0    0    0 -0.00000000000E+00 -0.00000000000E+00 -0.45593999997E+02  0.45594000000E+02  0.51100000000E-03 0.  1.
         23    2    1    2    0    0 -0.35527136788E-14  0.00000000000E+00  0.00000000000E+00  0.91188000000E+02  0.91188000000E+02 0.  0.
    9900012    2    3    3    0    0  0.16329996172E+02  0.22534012639E+02  0.29643127027E+02  0.50528862275E+02  0.30000007372E+02 0.  0.
        -12    1    3    3    0    0 -0.16329996172E+02 -0.22534012639E+02 -0.29643127027E+02  0.40659137725E+02  0.00000000000E+00 0.  1.
         11    1    4    4    0    0  0.52614794159E+01  0.18624984867E+02  0.16150312062E+02  0.25207257028E+02  0.51100000000E-03 0. -1.
        -11    1    4    4    0    0 -0.41576470287E+01  0.45186644694E+01  0.31174637071E+01  0.68864314147E+01  0.51100000000E-03 0.  1.
        -12    1    4    4    0    0  0.15226163785E+02 -0.60963669716E+00  0.10375351258E+02  0.18435173832E+02  0.00000000000E+00 0.  1.
</event>
<event>
 8    1  0.4964753E-012  0.9118800E+02  0.7816164E-02  0.1184000E+00
        -11   -1    0    0    0    0  0.00000000000E+00  0.00000000000E+00  0.45593999997E+02  0.45594000000E+02  0.51100000000E-03 0. -1.
         11   -1    0    0    0    0 -0.00000000000E+00 -0.00000000000E+00 -0.45593999997E+02  0.45594000000E+02  0.51100000000E-03 0.  1.
         23    2    1    2    0    0  0.00000000000E+00  0.00000000000E+00  0.71054273576E-14  0.91188000000E+02  0.91188000000E+02 0.  0.
    9900012    2    3    3    0    0  0.22276179754E+02 -0.86203842042E+01  0.32903292994E+02  0.50528857141E+02  0.29999991764E+02 0.  0.
        -12    1    3    3    0    0 -0.22276179754E+02  0.86203842042E+01 -0.32903292994E+02  0.40659142859E+02  0.00000000000E+00 0.  1.
         11    1    4    4    0    0  0.20506807226E+02 -0.53811773470E+01  0.24525121803E+02  0.32418633715E+02  0.51100000000E-03 0. -1.
        -11    1    4    4    0    0  0.46009631041E+01  0.48973277420E+01  0.10524454026E+01  0.68014941067E+01  0.51100000000E-03 0.  1.
         12    1    4    4    0    0 -0.28315905767E+01 -0.81365345992E+01  0.73257257880E+01  0.11308729318E+02  0.00000000000E+00 0. -1.
</event>
<event>
 8    1  0.4964753E-012  0.9118800E+02  0.7816164E-02  0.1184000E+00
        -11   -1    0    0    0    0  0.00000000000E+00  0.00000000000E+00  0.45593999997E+02  0.45594000000E+02  0.51100000000E-03 0. -1.
         11   -1    0    0    0    0 -0.00000000000E+00 -0.00000000000E+00 -0.45593999997E+02  0.45594000000E+02  0.51100000000E-03 0.  1.
         23    2    1    2    0    0  0.00000000000E+00  0.88817841970E-15  0.00000000000E+00  0.91188000000E+02  0.91188000000E+02 0.  0.
    9900012    2    3    3    0    0 -0.12067235280E+02  0.71346740168E+01 -0.38166010975E+02  0.50528854234E+02  0.29999982930E+02 0.  0.
         12    1    3    3    0    0  0.12067235280E+02 -0.71346740168E+01  0.38166010975E+02  0.40659145766E+02  0.00000000000E+00 0. -1.
         11    1    4    4    0    0 -0.65677262192E+01  0.71205746831E+01 -0.38488254971E+01  0.10423582373E+02  0.51100000000E-03 0. -1.
        -11    1    4    4    0    0 -0.40210491584E+01 -0.98678596733E+01 -0.15669857269E+02  0.18949615246E+02  0.51100000000E-03 0.  1.
         12    1    4    4    0    0 -0.14784599027E+01  0.98819590070E+01 -0.18647328209E+02  0.21155656615E+02  0.00000000000E+00 0. -1.
</event>
<event>
 8    1  0.4964753E-012  0.9118800E+02  0.7816164E-02  0.1184000E+00
        -11   -1    0    0    0    0  0.00000000000E+00  0.00000000000E+00  0.45593999997E+02  0.45594000000E+02  0.51100000000E-03 0. -1.
         11   -1    0    0    0    0 -0.00000000000E+00 -0.00000000000E+00 -0.45593999997E+02  0.45594000000E+02  0.51100000000E-03 0.  1.
         23    2    1    2    0    0 -0.44408920985E-15  0.00000000000E+00  0.00000000000E+00  0.91188000000E+02  0.91188000000E+02 0.  0.
    9900012    2    3    3    0    0  0.28322577115E+01 -0.20309344439E+02  0.35109473823E+02  0.50528852107E+02  0.29999976463E+02 0.  0.
        -12    1    3    3    0    0 -0.28322577115E+01  0.20309344439E+02 -0.35109473823E+02  0.40659147893E+02  0.00000000000E+00 0.  1.
         11    1    4    4    0    0  0.18296653941E+01 -0.49658650328E+01  0.45824768649E+01  0.70004703740E+01  0.51100000000E-03 0. -1.
        -11    1    4    4    0    0 -0.74056481662E+00 -0.49820228184E+01  0.32457040326E+02  0.32845524118E+02  0.51100000000E-03 0.  1.
         12    1    4    4    0    0  0.17431571340E+01 -0.10361456587E+02 -0.19300433679E+01  0.10682857614E+02  0.00000000000E+00 0. -1.
</event>
<event>
 8    1  0.4964753E-012  0.9118800E+02  0.7816164E-02  0.1184000E+00
        -11   -1    0    0    0    0  0.00000000000E+00  0.00000000000E+00  0.45593999997E+02  0.45594000000E+02  0.51100000000E-03 0. -1.
         11   -1    0    0    0    0 -0.00000000000E+00 -0.00000000000E+00 -0.45593999997E+02  0.45594000000E+02  0.51100000000E-03 0.  1.
         23    2    1    2    0    0  0.00000000000E+00  0.00000000000E+00  0.00000000000E+00  0.91188000000E+02  0.91188000000E+02 0.  0.
    9900012    2    3    3    0    0 -0.31560159719E+02 -0.15753315946E+02 -0.20222646695E+02  0.50528854852E+02  0.29999984808E+02 0.  0.
         12    1    3    3    0    0  0.31560159719E+02  0.15753315946E+02  0.20222646695E+02  0.40659145148E+02  0.00000000000E+00 0. -1.
         11    1    4    4    0    0  0.30631484142E+01 -0.21809206418E+01 -0.37043440475E+00  0.37784275781E+01  0.51100000000E-03 0. -1.
        -11    1    4    4    0    0  0.20545769726E+01 -0.37716944858E+01 -0.28348829431E+01  0.51462148607E+01  0.51100000000E-03 0.  1.
        -12    1    4    4    0    0 -0.36677885106E+02 -0.98007008180E+01 -0.17017329348E+02  0.41604212413E+02  0.00000000000E+00 0.  1.
</event>
<event>
 8    1  0.4970803E-012  0.9118800E+02  0.7816164E-02  0.1184000E+00
        -11   -1    0    0    0    0  0.00000000000E+00  0.00000000000E+00  0.45593999997E+02  0.45594000000E+02  0.51100000000E-03 0. -1.
         11   -1    0    0    0    0 -0.00000000000E+00 -0.00000000000E+00 -0.45593999997E+02  0.45594000000E+02  0.51100000000E-03 0.  1.
         23    2    1    2    0    0  0.35527136788E-14 -0.35527136788E-14  0.00000000000E+00  0.91188000000E+02  0.91188000000E+02 0.  0.
    9900012    2    3    3    0    0  0.18977900844E+02  0.17615706717E+02 -0.31347925916E+02  0.50528852163E+02  0.29999976635E+02 0.  0.
         12    1    3    3    0    0 -0.18977900844E+02 -0.17615706717E+02  0.31347925916E+02  0.40659147837E+02  0.00000000000E+00 0. -1.
         11    1    4    4    0    0  0.59614860118E+01  0.16161516635E+01  0.21760500556E+01  0.65487751354E+01  0.51100000000E-03 0. -1.
        -11    1    4    4    0    0  0.13066250473E+02  0.10870216245E+02 -0.96166885048E+01  0.19528676368E+02  0.51100000000E-03 0.  1.
        -12    1    4    4    0    0 -0.49835640685E-01  0.51293388087E+01 -0.23907287467E+02  0.24451400660E+02  0.00000000000E+00 0.  1.
</event>
<event>
 8    1  0.4964753E-012  0.9118800E+02  0.7816164E-02  0.1184000E+00
        -11   -1    0    0    0    0  0.00000000000E+00  0.00000000000E+00  0.45593999997E+02  0.45594000000E+02  0.51100000000E-03 0. -1.
         11   -1    0    0    0    0 -0.00000000000E+00 -0.00000000000E+00 -0.45593999997E+02  0.45594000000E+02  0.51100000000E-03 0.  1.
         23    2    1    2    0    0  0.00000000000E+00  0.88817841970E-15  0.00000000000E+00  0.91188000000E+02  0.91188000000E+02 0.  0.
    9900012    2    3    3    0    0 -0.99426100970E+01  0.66364286151E+01  0.38862140378E+02  0.50528884969E+02  0.30000076352E+02 0.  0.
        -12    1    3    3    0    0  0.99426100970E+01 -0.66364286151E+01 -0.38862140378E+02  0.40659115031E+02  0.00000000000E+00 0.  1.
         11    1    4    4    0    0 -0.23462104194E+01 -0.83999974140E+01  0.51528110813E+01  0.10129961608E+02  0.51100000000E-03 0. -1.
        -11    1    4    4    0    0  0.28165357421E+01  0.43582484301E+01  0.23973113814E+01  0.57161442499E+01  0.51100000000E-03 0.  1.
        -12    1    4    4    0    0 -0.10412935420E+02  0.10678177599E+02  0.31312017916E+02  0.34682779111E+02  0.00000000000E+00 0.  1.
</event>
<event>
 8    1  0.4964753E-012  0.9118800E+02  0.7816164E-02  0.1184000E+00
        -11   -1    0    0    0    0  0.00000000000E+00  0.00000000000E+00  0.45593999997E+02  0.45594000000E+02  0.51100000000E-03 0. -1.
         11   -1    0    0    0    0 -0.00000000000E+00 -0.00000000000E+00 -0.45593999997E+02  0.45594000000E+02  0.51100000000E-03 0.  1.
         23    2    1    2    0    0  0.71054273576E-14  0.88817841970E-15  0.00000000000E+00  0.91188000000E+02  0.91188000000E+02 0.  0.
    9900012    2    3    3    0    0 -0.35622867144E+02 -0.57578058051E+01  0.18735655918E+02  0.50528858421E+02  0.29999995655E+02 0.  0.
        -12    1    3    3    0    0  0.35622867144E+02  0.57578058051E+01 -0.18735655918E+02  0.40659141579E+02  0.00000000000E+00 0.  1.
         11    1    4    4    0    0 -0.12605787425E+02 -0.80296421108E+01 -0.42326948301E+01  0.15533728941E+02  0.51100000000E-03 0. -1.
        -11    1    4    4    0    0 -0.12146464619E+01 -0.33479974655E+01  0.52513225348E+01  0.63451431570E+01  0.51100000000E-03 0.  1.
        -12    1    4    4    0    0 -0.21802433257E+02  0.56198337711E+01  0.17717028214E+02  0.28649986322E+02  0.00000000000E+00 0.  1.
</event>
<event>
 8    1  0.4964753E-012  0.9118800E+02  0.7816164E-02  0.1184000E+00
        -11   -1    0    0    0    0  0.00000000000E+00  0.00000000000E+00  0.45593999997E+02  0.45594000000E+02  0.51100000000E-03 0.  1.
         11   -1    0    0    0    0 -0.00000000000E+00 -0.00000000000E+00 -0.45593999997E+02  0.45594000000E+02  0.51100000000E-03 0. -1.
         23    2    1    2    0    0  0.00000000000E+00  0.00000000000E+00  0.22204460493E-15  0.91188000000E+02  0.91188000000E+02 0.  0.
    9900012    2    3    3    0    0 -0.18842198970E+02  0.35986965236E+02  0.17536540306E+01  0.50528862880E+02  0.30000009209E+02 0.  0.
         12    1    3    3    0    0  0.18842198970E+02 -0.35986965236E+02 -0.17536540306E+01  0.40659137120E+02  0.00000000000E+00 0. -1.
         11    1    4    4    0    0 -0.84835903676E+00  0.42228277763E+01 -0.30395563088E+01  0.52717065832E+01  0.51100000000E-03 0.  1.
        -11    1    4    4    0    0  0.28956660261E+01  0.15523690589E+02  0.94319211525E+01  0.18393775798E+02  0.51100000000E-03 0. -1.
        -12    1    4    4    0    0 -0.20889505959E+02  0.16240446871E+02 -0.46387108131E+01  0.26863380498E+02  0.00000000000E+00 0.  1.
</event>
<event>
 8    1  0.4964753E-012  0.9118800E+02  0.7816164E-02  0.1184000E+00
        -11   -1    0    0    0    0  0.00000000000E+00  0.00000000000E+00  0.45593999997E+02  0.45594000000E+02  0.51100000000E-03 0. -1.
         11   -1    0    0    0    0 -0.00000000000E+00 -0.00000000000E+00 -0.45593999997E+02  0.45594000000E+02  0.51100000000E-03 0.  1.
         23    2    1    2    0    0 -0.35527136788E-14  0.00000000000E+00  0.00000000000E+00  0.91188000000E+02  0.91188000000E+02 0.  0.
    9900012    2    3    3    0    0 -0.29944684869E+02 -0.27368793017E+02 -0.27258520102E+01  0.50528865081E+02  0.30000015901E+02 0.  0.
        -12    1    3    3    0    0  0.29944684869E+02  0.27368793017E+02  0.27258520102E+01  0.40659134919E+02  0.00000000000E+00 0.  1.
         11    1    4    4    0    0 -0.73090588924E+01  0.23976136876E+01 -0.14384977537E+00  0.76936068464E+01  0.51100000000E-03 0. -1.
        -11    1    4    4    0    0 -0.19452787553E+02 -0.11765013029E+02 -0.74397860131E+01  0.23920219299E+02  0.51100000000E-03 0.  1.
        -12    1    4    4    0    0 -0.31828384243E+01 -0.18001393675E+02  0.48577837783E+01  0.18915038936E+02  0.00000000000E+00 0.  1.
</event>
<event>
 8    1  0.4964753E-012  0.9118800E+02  0.7816164E-02  0.1184000E+00
        -11   -1    0    0    0    0  0.00000000000E+00  0.00000000000E+00  0.45593999997E+02  0.45594000000E+02  0.51100000000E-03 0. -1.
         11   -1    0    0    0    0 -0.00000000000E+00 -0.00000000000E+00 -0.45593999997E+02  0.45594000000E+02  0.51100000000E-03 0.  1.
         23    2    1    2    0    0  0.00000000000E+00  0.00000000000E+00  0.71054273576E-14  0.91188000000E+02  0.91188000000E+02 0.  0.
    9900012    2    3    3    0    0  0.14588106108E+02  0.62098091727E+01  0.37440491949E+02  0.50528868096E+02  0.30000025064E+02 0.  0.
        -12    1    3    3    0    0 -0.14588106108E+02 -0.62098091727E+01 -0.37440491949E+02  0.40659131904E+02  0.00000000000E+00 0.  1.
         11    1    4    4    0    0 -0.20916005428E+01 -0.16584240587E+01  0.23657644715E+02  0.23807757494E+02  0.51100000000E-03 0.  1.
        -11    1    4    4    0    0  0.17504635789E+01 -0.33946166172E+01  0.66231787637E+00  0.38763655593E+01  0.51100000000E-03 0. -1.
         12    1    4    4    0    0  0.14929243072E+02  0.11262849849E+02  0.13120529358E+02  0.22844745042E+02  0.00000000000E+00 0. -1.
</event>
<event>
 8    1  0.4964753E-012  0.9118800E+02  0.7816164E-02  0.1184000E+00
        -11   -1    0    0    0    0  0.00000000000E+00  0.00000000000E+00  0.45593999997E+02  0.45594000000E+02  0.51100000000E-03 0. -1.
         11   -1    0    0    0    0 -0.00000000000E+00 -0.00000000000E+00 -0.45593999997E+02  0.45594000000E+02  0.51100000000E-03 0.  1.
         23    2    1    2    0    0  0.35527136788E-14 -0.71054273576E-14  0.00000000000E+00  0.91188000000E+02  0.91188000000E+02 0.  0.
    9900012    2    3    3    0    0 -0.22344887490E+02  0.30981747819E+02 -0.13928525455E+02  0.50528849539E+02  0.29999968659E+02 0.  0.
         12    1    3    3    0    0  0.22344887490E+02 -0.30981747819E+02  0.13928525455E+02  0.40659150461E+02  0.00000000000E+00 0. -1.
         11    1    4    4    0    0 -0.14989252588E+02  0.23146852031E+02 -0.30467362134E+01  0.27744135487E+02  0.51100000000E-03 0. -1.
        -11    1    4    4    0    0 -0.12255941325E+02  0.75435657796E+01 -0.10588496574E+02  0.17867001494E+02  0.51100000000E-03 0.  1.
         12    1    4    4    0    0  0.49003064232E+01  0.29133000810E+00 -0.29329266714E+00  0.49177125580E+01  0.00000000000E+00 0. -1.
</event>
<event>
 8    1  0.4964753E-012  0.9118800E+02  0.7816164E-02  0.1184000E+00
        -11   -1    0    0    0    0  0.00000000000E+00  0.00000000000E+00  0.45593999997E+02  0.45594000000E+02  0.51100000000E-03 0. -1.
         11   -1    0    0    0    0 -0.00000000000E+00 -0.00000000000E+00 -0.45593999997E+02  0.45594000000E+02  0.51100000000E-03 0.  1.
         23    2    1    2    0    0  0.44408920985E-15  0.00000000000E+00  0.00000000000E+00  0.91188000000E+02  0.91188000000E+02 0.  0.
    9900012    2    3    3    0    0 -0.29933928218E+01  0.57337734133E+01  0.40141353570E+02  0.50528870342E+02  0.30000031890E+02 0.  0.
        -12    1    3    3    0    0  0.29933928218E+01 -0.57337734133E+01 -0.40141353570E+02  0.40659129658E+02  0.00000000000E+00 0.  1.
         11    1    4    4    0    0  0.61597509630E+01  0.13211264916E+01  0.10400558842E+02  0.12159750476E+02  0.51100000000E-03 0. -1.
        -11    1    4    4    0    0  0.14443702160E+01 -0.21488216104E+01 -0.26244901053E+01  0.36866771229E+01  0.51100000000E-03 0.  1.
        -12    1    4    4    0    0 -0.10597514001E+02  0.65614685320E+01  0.32365284833E+02  0.34682442743E+02  0.00000000000E+00 0.  1.
</event>
<event>
 8    1  0.4964753E-012  0.9118800E+02  0.7816164E-02  0.1184000E+00
        -11   -1    0    0    0    0  0.00000000000E+00  0.00000000000E+00  0.45593999997E+02  0.45594000000E+02  0.51100000000E-03 0.  1.
         11   -1    0    0    0    0 -0.00000000000E+00 -0.00000000000E+00 -0.45593999997E+02  0.45594000000E+02  0.51100000000E-03 0. -1.
         23    2    1    2    0    0  0.00000000000E+00  0.00000000000E+00  0.88817841970E-15  0.91188000000E+02  0.91188000000E+02 0.  0.
    9900012    2    3    3    0    0 -0.25546116113E+02  0.31491681404E+02  0.29724958037E+01  0.50528858624E+02  0.29999996274E+02 0.  0.
         12    1    3    3    0    0  0.25546116113E+02 -0.31491681404E+02 -0.29724958037E+01  0.40659141376E+02  0.00000000000E+00 0. -1.
         11    1    4    4    0    0 -0.23235889891E+01 -0.14495580711E+01 -0.38966760432E+01  0.47628110227E+01  0.51100000000E-03 0. -1.
        -11    1    4    4    0    0 -0.29883770124E+01  0.70620935779E+01  0.10184623714E+02  0.12748730264E+02  0.51100000000E-03 0.  1.
         12    1    4    4    0    0 -0.20234150112E+02  0.25879145897E+02 -0.33154518674E+01  0.33017317338E+02  0.00000000000E+00 0. -1.
</event>
<event>
 8    1  0.4964753E-012  0.9118800E+02  0.7816164E-02  0.1184000E+00
        -11   -1    0    0    0    0  0.00000000000E+00  0.00000000000E+00  0.45593999997E+02  0.45594000000E+02  0.51100000000E-03 0. -1.
         11   -1    0    0    0    0 -0.00000000000E+00 -0.00000000000E+00 -0.45593999997E+02  0.45594000000E+02  0.51100000000E-03 0.  1.
         23    2    1    2    0    0 -0.35527136788E-14 -0.22204460493E-15  0.00000000000E+00  0.91188000000E+02  0.91188000000E+02 0.  0.
    9900012    2    3    3    0    0 -0.31400630443E+02 -0.12071631964E+01 -0.25801324152E+02  0.50528866178E+02  0.30000019233E+02 0.  0.
         12    1    3    3    0    0  0.31400630443E+02  0.12071631964E+01  0.25801324152E+02  0.40659133822E+02  0.00000000000E+00 0. -1.
         11    1    4    4    0    0 -0.10895380250E+02 -0.91999802387E+00 -0.92593830364E+00  0.10973288894E+02  0.51100000000E-03 0. -1.
        -11    1    4    4    0    0 -0.24988331465E+02  0.29324926086E+01 -0.21427270646E+02  0.33047604299E+02  0.51100000000E-03 0.  1.
        -12    1    4    4    0    0  0.44830812720E+01 -0.32196577811E+01 -0.34481152033E+01  0.65079729850E+01  0.00000000000E+00 0.  1.
</event>
<event>
 8    1  0.4964753E-012  0.9118800E+02  0.7816164E-02  0.1184000E+00
        -11   -1    0    0    0    0  0.00000000000E+00  0.00000000000E+00  0.45593999997E+02  0.45594000000E+02  0.51100000000E-03 0. -1.
         11   -1    0    0    0    0 -0.00000000000E+00 -0.00000000000E+00 -0.45593999997E+02  0.45594000000E+02  0.51100000000E-03 0.  1.
         23    2    1    2    0    0  0.71054273576E-14 -0.35527136788E-14 -0.35527136788E-14  0.91188000000E+02  0.91188000000E+02 0.  0.
    9900012    2    3    3    0    0 -0.21506456068E+02  0.22918397351E+02  0.25795081611E+02  0.50528845742E+02  0.29999957116E+02 0.  0.
        -12    1    3    3    0    0  0.21506456068E+02 -0.22918397351E+02 -0.25795081611E+02  0.40659154258E+02  0.00000000000E+00 0.  1.
         11    1    4    4    0    0 -0.56575750533E-01 -0.54559920655E+01  0.54099342803E+01  0.76836475330E+01  0.51100000000E-03 0. -1.
        -11    1    4    4    0    0  0.35251539858E+00  0.45816751043E+01 -0.14411380924E+00  0.45974757116E+01  0.51100000000E-03 0.  1.
        -12    1    4    4    0    0 -0.21802395716E+02  0.23792714312E+02  0.20529261140E+02  0.38247722497E+02  0.00000000000E+00 0.  1.
</event>
<event>
 8    1  0.4964753E-012  0.9118800E+02  0.7816164E-02  0.1184000E+00
        -11   -1    0    0    0    0  0.00000000000E+00  0.00000000000E+00  0.45593999997E+02  0.45594000000E+02  0.51100000000E-03 0.  1.
         11   -1    0    0    0    0 -0.00000000000E+00 -0.00000000000E+00 -0.45593999997E+02  0.45594000000E+02  0.51100000000E-03 0. -1.
         23    2    1    2    0    0  0.00000000000E+00  0.71054273576E-14 -0.88817841970E-15  0.91188000000E+02  0.91188000000E+02 0.  0.
    9900012    2    3    3    0    0  0.16355867625E+02  0.36420712208E+02  0.76930129117E+01  0.50528866572E+02  0.30000020431E+02 0.  0.
        -12    1    3    3    0    0 -0.16355867625E+02 -0.36420712208E+02 -0.76930129117E+01  0.40659133428E+02  0.00000000000E+00 0.  1.
         11    1    4    4    0    0  0.21781007743E+00 -0.26853410141E+00 -0.31733246669E+01  0.31921061223E+01  0.51100000000E-03 0. -1.
        -11    1    4    4    0    0  0.49359487185E+01  0.21936425801E+02  0.16596772740E+02  0.27946792881E+02  0.51100000000E-03 0.  1.
         12    1    4    4    0    0  0.11202108829E+02  0.14752820508E+02 -0.57304351617E+01  0.19389967569E+02  0.00000000000E+00 0. -1.
</event>
<event>
 8    1  0.4964753E-012  0.9118800E+02  0.7816164E-02  0.1184000E+00
        -11   -1    0    0    0    0  0.00000000000E+00  0.00000000000E+00  0.45593999997E+02  0.45594000000E+02  0.51100000000E-03 0.  1.
         11   -1    0    0    0    0 -0.00000000000E+00 -0.00000000000E+00 -0.45593999997E+02  0.45594000000E+02  0.51100000000E-03 0. -1.
         23    2    1    2    0    0  0.00000000000E+00  0.71054273576E-14  0.17763568394E-14  0.91188000000E+02  0.91188000000E+02 0.  0.
    9900012    2    3    3    0    0 -0.21971792813E+02 -0.33208087738E+02 -0.82236598009E+01  0.50528863866E+02  0.30000012208E+02 0.  0.
         12    1    3    3    0    0  0.21971792813E+02  0.33208087738E+02  0.82236598009E+01  0.40659136134E+02  0.00000000000E+00 0. -1.
         11    1    4    4    0    0 -0.12709141188E+01 -0.36559965731E+01 -0.51933827782E+01  0.64770949184E+01  0.51100000000E-03 0. -1.
        -11    1    4    4    0    0 -0.13839753220E+01  0.30964130447E+00  0.69658309916E+01  0.71087317500E+01  0.51100000000E-03 0.  1.
        -12    1    4    4    0    0 -0.19316903373E+02 -0.29861732469E+02 -0.99961080142E+01  0.36943037198E+02  0.00000000000E+00 0.  1.
</event>
<event>
 8    1  0.4964753E-012  0.9118800E+02  0.7816164E-02  0.1184000E+00
        -11   -1    0    0    0    0  0.00000000000E+00  0.00000000000E+00  0.45593999997E+02  0.45594000000E+02  0.51100000000E-03 0. -1.
         11   -1    0    0    0    0 -0.00000000000E+00 -0.00000000000E+00 -0.45593999997E+02  0.45594000000E+02  0.51100000000E-03 0.  1.
         23    2    1    2    0    0  0.35527136788E-14 -0.71054273576E-14 -0.22204460493E-15  0.91188000000E+02  0.91188000000E+02 0.  0.
    9900012    2    3    3    0    0 -0.25852810651E+02  0.31376877678E+02  0.53797529206E+00  0.50528859714E+02  0.29999999587E+02 0.  0.
         12    1    3    3    0    0  0.25852810651E+02 -0.31376877678E+02 -0.53797529206E+00  0.40659140286E+02  0.00000000000E+00 0. -1.
         11    1    4    4    0    0  0.28761902925E+01  0.16273016749E+01 -0.15717166028E+01  0.36593544076E+01  0.51100000000E-03 0. -1.
        -11    1    4    4    0    0 -0.92849604614E+01  0.25194139370E+02  0.13492161548E+01  0.26884485003E+02  0.51100000000E-03 0.  1.
        -12    1    4    4    0    0 -0.19444040482E+02  0.45554366327E+01  0.76047574004E+00  0.19985020304E+02  0.00000000000E+00 0.  1.
</event>
<event>
 8    1  0.4964753E-012  0.9118800E+02  0.7816164E-02  0.1184000E+00
        -11   -1    0    0    0    0  0.00000000000E+00  0.00000000000E+00  0.45593999997E+02  0.45594000000E+02  0.51100000000E-03 0. -1.
         11   -1    0    0    0    0 -0.00000000000E+00 -0.00000000000E+00 -0.45593999997E+02  0.45594000000E+02  0.51100000000E-03 0.  1.
         23    2    1    2    0    0  0.35527136788E-14 -0.17763568394E-14  0.00000000000E+00  0.91188000000E+02  0.91188000000E+02 0.  0.
    9900012    2    3    3    0    0  0.26415451880E+02  0.10360883150E+02 -0.29121150642E+02  0.50528863113E+02  0.30000009919E+02 0.  0.
         12    1    3    3    0    0 -0.26415451880E+02 -0.10360883150E+02  0.29121150642E+02  0.40659136887E+02  0.00000000000E+00 0. -1.
         11    1    4    4    0    0  0.16207277030E+02  0.13263406745E+02 -0.67441319862E+01  0.22001752287E+02  0.51100000000E-03 0.  1.
        -11    1    4    4    0    0  0.38042053179E+01 -0.64611738718E+01 -0.34928213513E+01  0.82715504687E+01  0.51100000000E-03 0. -1.
         12    1    4    4    0    0  0.64039695327E+01  0.35586502773E+01 -0.18884197304E+02  0.20255560358E+02  0.00000000000E+00 0. -1.
</event>
<event>
 8    1  0.4964753E-012  0.9118800E+02  0.7816164E-02  0.1184000E+00
        -11   -1    0    0    0    0  0.00000000000E+00  0.00000000000E+00  0.45593999997E+02  0.45594000000E+02  0.51100000000E-03 0. -1.
         11   -1    0    0    0    0 -0.00000000000E+00 -0.00000000000E+00 -0.45593999997E+02  0.45594000000E+02  0.51100000000E-03 0.  1.
         23    2    1    2    0    0 -0.35527136788E-14  0.00000000000E+00 -0.35527136788E-14  0.91188000000E+02  0.91188000000E+02 0.  0.
    9900012    2    3    3    0    0 -0.23806691032E+02  0.80861651466E+01 -0.31953426338E+02  0.50528855156E+02  0.29999985733E+02 0.  0.
         12    1    3    3    0    0  0.23806691032E+02 -0.80861651466E+01  0.31953426338E+02  0.40659144844E+02  0.00000000000E+00 0. -1.
         11    1    4    4    0    0  0.35009252857E+01  0.29897882772E+01 -0.12049540309E+02  0.12899098174E+02  0.51100000000E-03 0. -1.
        -11    1    4    4    0    0 -0.12919059829E+02  0.10088819340E+02 -0.76838677785E+01  0.18103265088E+02  0.51100000000E-03 0.  1.
        -12    1    4    4    0    0 -0.14388556489E+02 -0.49924424704E+01 -0.12220018250E+02  0.19526491894E+02  0.00000000000E+00 0.  1.
</event>
<event>
 8    1  0.4964753E-012  0.9118800E+02  0.7816164E-02  0.1184000E+00
        -11   -1    0    0    0    0  0.00000000000E+00  0.00000000000E+00  0.45593999997E+02  0.45594000000E+02  0.51100000000E-03 0. -1.
         11   -1    0    0    0    0 -0.00000000000E+00 -0.00000000000E+00 -0.45593999997E+02  0.45594000000E+02  0.51100000000E-03 0.  1.
         23    2    1    2    0    0  0.00000000000E+00 -0.12212453271E-14 -0.71054273576E-14  0.91188000000E+02  0.91188000000E+02 0.  0.
    9900012    2    3    3    0    0  0.87690953079E+01  0.71050865018E+00 -0.39695886727E+02  0.50528864764E+02  0.30000014937E+02 0.  0.
         12    1    3    3    0    0 -0.87690953079E+01 -0.71050865018E+00  0.39695886727E+02  0.40659135236E+02  0.00000000000E+00 0. -1.
         11    1    4    4    0    0 -0.36851848717E+01 -0.46407912104E+01 -0.35962265288E+01  0.69318378591E+01  0.51100000000E-03 0. -1.
        -11    1    4    4    0    0 -0.26015408067E+00 -0.19223083802E+01 -0.25359323969E+02  0.25433408386E+02  0.51100000000E-03 0.  1.
        -12    1    4    4    0    0  0.12714434260E+02  0.72736082408E+01 -0.10740336229E+02  0.18163618519E+02  0.00000000000E+00 0.  1.
</event>
<event>
 8    1  0.4964753E-012  0.9118800E+02  0.7816164E-02  0.1184000E+00
        -11   -1    0    0    0    0  0.00000000000E+00  0.00000000000E+00  0.45593999997E+02  0.45594000000E+02  0.51100000000E-03 0. -1.
         11   -1    0    0    0    0 -0.00000000000E+00 -0.00000000000E+00 -0.45593999997E+02  0.45594000000E+02  0.51100000000E-03 0.  1.
         23    2    1    2    0    0  0.00000000000E+00  0.00000000000E+00  0.00000000000E+00  0.91188000000E+02  0.91188000000E+02 0.  0.
    9900012    2    3    3    0    0 -0.17750854163E+02  0.92941576293E+01 -0.35379254839E+02  0.50528857577E+02  0.29999993092E+02 0.  0.
         12    1    3    3    0    0  0.17750854163E+02 -0.92941576293E+01  0.35379254839E+02  0.40659142423E+02  0.00000000000E+00 0. -1.
         11    1    4    4    0    0 -0.91136205830E+01 -0.70189639208E+01 -0.39950475296E+01  0.12177205742E+02  0.51100000000E-03 0. -1.
        -11    1    4    4    0    0 -0.10200488290E+02  0.71856966496E+01 -0.21095618379E+02  0.24509371937E+02  0.51100000000E-03 0.  1.
        -12    1    4    4    0    0  0.15632547104E+01  0.91274249005E+01 -0.10288588930E+02  0.13842279898E+02  0.00000000000E+00 0.  1.
</event>
<event>
 8    1  0.4964753E-012  0.9118800E+02  0.7816164E-02  0.1184000E+00
        -11   -1    0    0    0    0  0.00000000000E+00  0.00000000000E+00  0.45593999997E+02  0.45594000000E+02  0.51100000000E-03 0. -1.
         11   -1    0    0    0    0 -0.00000000000E+00 -0.00000000000E+00 -0.45593999997E+02  0.45594000000E+02  0.51100000000E-03 0.  1.
         23    2    1    2    0    0  0.33306690739E-15  0.17763568394E-14  0.00000000000E+00  0.91188000000E+02  0.91188000000E+02 0.  0.
    9900012    2    3    3    0    0  0.54577627610E+00 -0.10398196032E+02 -0.39303139313E+02  0.50528965182E+02  0.30000320165E+02 0.  0.
         12    1    3    3    0    0 -0.54577627610E+00  0.10398196032E+02  0.39303139313E+02  0.40659034818E+02  0.00000000000E+00 0. -1.
         11    1    4    4    0    0 -0.83996451917E+01 -0.26383325319E+01 -0.14006737594E+02  0.16543987917E+02  0.51100000000E-03 0. -1.
        -11    1    4    4    0    0  0.95302577075E+00  0.30596930394E+00  0.31769908923E+01  0.33309378147E+01  0.51100000000E-03 0.  1.
        -12    1    4    4    0    0  0.79923956971E+01 -0.80658328043E+01 -0.28473392611E+02  0.30654039450E+02  0.00000000000E+00 0.  1.
</event>
<event>
 8    1  0.4964753E-012  0.9118800E+02  0.7816164E-02  0.1184000E+00
        -11   -1    0    0    0    0  0.00000000000E+00  0.00000000000E+00  0.45593999997E+02  0.45594000000E+02  0.51100000000E-03 0. -1.
         11   -1    0    0    0    0 -0.00000000000E+00 -0.00000000000E+00 -0.45593999997E+02  0.45594000000E+02  0.51100000000E-03 0.  1.
         23    2    1    2    0    0  0.35527136788E-14  0.00000000000E+00  0.00000000000E+00  0.91188000000E+02  0.91188000000E+02 0.  0.
    9900012    2    3    3    0    0 -0.29787644046E+02 -0.14613608561E+02  0.23501172440E+02  0.50528850980E+02  0.29999973040E+02 0.  0.
        -12    1    3    3    0    0  0.29787644046E+02  0.14613608561E+02 -0.23501172440E+02  0.40659149020E+02  0.00000000000E+00 0.  1.
         11    1    4    4    0    0 -0.29814671453E+01 -0.80331691241E+01  0.60825423437E+01  0.10508009999E+02  0.51100000000E-03 0. -1.
        -11    1    4    4    0    0  0.40503005343E+01  0.11703142645E+01  0.20940112241E+01  0.47073828359E+01  0.51100000000E-03 0.  1.
        -12    1    4    4    0    0 -0.30856477435E+02 -0.77507537013E+01  0.15324618872E+02  0.35313458145E+02  0.00000000000E+00 0.  1.
</event>
<event>
 8    1  0.4964753E-012  0.9118800E+02  0.7816164E-02  0.1184000E+00
        -11   -1    0    0    0    0  0.00000000000E+00  0.00000000000E+00  0.45593999997E+02  0.45594000000E+02  0.51100000000E-03 0. -1.
         11   -1    0    0    0    0 -0.00000000000E+00 -0.00000000000E+00 -0.45593999997E+02  0.45594000000E+02  0.51100000000E-03 0.  1.
         23    2    1    2    0    0  0.00000000000E+00 -0.22204460493E-15  0.00000000000E+00  0.91188000000E+02  0.91188000000E+02 0.  0.
    9900012    2    3    3    0    0  0.69184409293E+01 -0.11366048646E+01 -0.40050083499E+02  0.50528857316E+02  0.29999992299E+02 0.  0.
         12    1    3    3    0    0 -0.69184409293E+01  0.11366048646E+01  0.40050083499E+02  0.40659142684E+02  0.00000000000E+00 0. -1.
         11    1    4    4    0    0 -0.39261192367E+01 -0.73851899959E+01 -0.88651417246E+00  0.84107877856E+01  0.51100000000E-03 0. -1.
        -11    1    4    4    0    0 -0.63739535864E+00  0.36716950330E+01 -0.97452658895E+01  0.10433495329E+02  0.51100000000E-03 0.  1.
        -12    1    4    4    0    0  0.11481955525E+02  0.25768900983E+01 -0.29418303437E+02  0.31684574202E+02  0.00000000000E+00 0.  1.
</event>
<event>
 8    1  0.4964753E-012  0.9118800E+02  0.7816164E-02  0.1184000E+00
        -11   -1    0    0    0    0  0.00000000000E+00  0.00000000000E+00  0.45593999997E+02  0.45594000000E+02  0.51100000000E-03 0. -1.
         11   -1    0    0    0    0 -0.00000000000E+00 -0.00000000000E+00 -0.45593999997E+02  0.45594000000E+02  0.51100000000E-03 0.  1.
         23    2    1    2    0    0  0.13322676296E-14  0.00000000000E+00  0.35527136788E-14  0.91188000000E+02  0.91188000000E+02 0.  0.
    9900012    2    3    3    0    0  0.94506772535E+00  0.35499836923E+02  0.19799841307E+02  0.50528864614E+02  0.30000014480E+02 0.  0.
        -12    1    3    3    0    0 -0.94506772535E+00 -0.35499836923E+02 -0.19799841307E+02  0.40659135386E+02  0.00000000000E+00 0.  1.
         11    1    4    4    0    0  0.82351728100E+00  0.10440347399E+02 -0.52689111714E+01  0.11723500318E+02  0.51100000000E-03 0. -1.
        -11    1    4    4    0    0 -0.50700635585E+01  0.16632195811E+02  0.81480505396E+01  0.19202244916E+02  0.51100000000E-03 0.  1.
         12    1    4    4    0    0  0.51916140028E+01  0.84272937139E+01  0.16920701939E+02  0.19603119379E+02  0.00000000000E+00 0. -1.
</event>
<event>
 8    1  0.4964753E-012  0.9118800E+02  0.7816164E-02  0.1184000E+00
        -11   -1    0    0    0    0  0.00000000000E+00  0.00000000000E+00  0.45593999997E+02  0.45594000000E+02  0.51100000000E-03 0. -1.
         11   -1    0    0    0    0 -0.00000000000E+00 -0.00000000000E+00 -0.45593999997E+02  0.45594000000E+02  0.51100000000E-03 0.  1.
         23    2    1    2    0    0  0.00000000000E+00  0.00000000000E+00  0.00000000000E+00  0.91188000000E+02  0.91188000000E+02 0.  0.
    9900012    2    3    3    0    0  0.32758868830E+02  0.43870796272E+01  0.23680635473E+02  0.50528899529E+02  0.30000120609E+02 0.  0.
        -12    1    3    3    0    0 -0.32758868830E+02 -0.43870796272E+01 -0.23680635473E+02  0.40659100471E+02  0.00000000000E+00 0.  1.
         11    1    4    4    0    0  0.11571029589E+02  0.32846608296E+00  0.42811026457E+00  0.11583604550E+02  0.51100000000E-03 0. -1.
        -11    1    4    4    0    0  0.11301871391E+02 -0.39522701692E+01 -0.51712030817E+00  0.11984162470E+02  0.51100000000E-03 0.  1.
         12    1    4    4    0    0  0.98859678499E+01  0.80108837134E+01  0.23769645516E+02  0.26961132509E+02  0.00000000000E+00 0. -1.
</event>
<event>
 8    1  0.4964753E-012  0.9118800E+02  0.7816164E-02  0.1184000E+00
        -11   -1    0    0    0    0  0.00000000000E+00  0.00000000000E+00  0.45593999997E+02  0.45594000000E+02  0.51100000000E-03 0. -1.
         11   -1    0    0    0    0 -0.00000000000E+00 -0.00000000000E+00 -0.45593999997E+02  0.45594000000E+02  0.51100000000E-03 0.  1.
         23    2    1    2    0    0  0.71054273576E-14 -0.88817841970E-15 -0.35527136788E-14  0.91188000000E+02  0.91188000000E+02 0.  0.
    9900012    2    3    3    0    0  0.34625400528E+02 -0.55210030486E+01 -0.20585578503E+02  0.50528857379E+02  0.29999992489E+02 0.  0.
         12    1    3    3    0    0 -0.34625400528E+02  0.55210030486E+01  0.20585578503E+02  0.40659142621E+02  0.00000000000E+00 0. -1.
         11    1    4    4    0    0  0.22447602307E+02 -0.31486769461E+01 -0.10285455354E+02  0.24891757832E+02  0.51100000000E-03 0. -1.
        -11    1    4    4    0    0  0.39782415083E+01 -0.80242468328E+01 -0.12558954650E+02  0.15425377950E+02  0.51100000000E-03 0.  1.
         12    1    4    4    0    0  0.81995567128E+01  0.56519207303E+01  0.22588315021E+01  0.10211721597E+02  0.00000000000E+00 0. -1.
</event>
<event>
 8    1  0.4964753E-012  0.9118800E+02  0.7816164E-02  0.1184000E+00
        -11   -1    0    0    0    0  0.00000000000E+00  0.00000000000E+00  0.45593999997E+02  0.45594000000E+02  0.51100000000E-03 0. -1.
         11   -1    0    0    0    0 -0.00000000000E+00 -0.00000000000E+00 -0.45593999997E+02  0.45594000000E+02  0.51100000000E-03 0.  1.
         23    2    1    2    0    0  0.00000000000E+00  0.35527136788E-14  0.00000000000E+00  0.91188000000E+02  0.91188000000E+02 0.  0.
    9900012    2    3    3    0    0  0.82574575492E+01 -0.19998449630E+02 -0.34424443254E+02  0.50528857287E+02  0.29999992209E+02 0.  0.
         12    1    3    3    0    0 -0.82574575492E+01  0.19998449630E+02  0.34424443254E+02  0.40659142713E+02  0.00000000000E+00 0. -1.
         11    1    4    4    0    0 -0.30642265663E+01 -0.93001517246E+01 -0.10374903932E+02  0.14266076489E+02  0.51100000000E-03 0. -1.
        -11    1    4    4    0    0 -0.54016203416E+01 -0.56899127271E+01 -0.14188166703E+02  0.16212855511E+02  0.51100000000E-03 0.  1.
         12    1    4    4    0    0  0.16723304457E+02 -0.50083851783E+01 -0.98613726195E+01  0.20049925287E+02  0.00000000000E+00 0. -1.
</event>
<event>
 8    1  0.4964753E-012  0.9118800E+02  0.7816164E-02  0.1184000E+00
        -11   -1    0    0    0    0  0.00000000000E+00  0.00000000000E+00  0.45593999997E+02  0.45594000000E+02  0.51100000000E-03 0. -1.
         11   -1    0    0    0    0 -0.00000000000E+00 -0.00000000000E+00 -0.45593999997E+02  0.45594000000E+02  0.51100000000E-03 0.  1.
         23    2    1    2    0    0  0.00000000000E+00  0.00000000000E+00  0.00000000000E+00  0.91188000000E+02  0.91188000000E+02 0.  0.
    9900012    2    3    3    0    0  0.21304689984E+02  0.10538360527E+02  0.32988163768E+02  0.50528858264E+02  0.29999995180E+02 0.  0.
        -12    1    3    3    0    0 -0.21304689984E+02 -0.10538360527E+02 -0.32988163768E+02  0.40659141736E+02  0.00000000000E+00 0.  1.
         11    1    4    4    0    0  0.19435498118E+02  0.15474573546E+02  0.29436706017E+02  0.38519094939E+02  0.51100000000E-03 0. -1.
        -11    1    4    4    0    0  0.25967365100E+01  0.44701730157E+00 -0.26695148856E+01  0.37508898886E+01  0.51100000000E-03 0.  1.
        -12    1    4    4    0    0 -0.72754464480E+00 -0.53832303204E+01  0.62209726364E+01  0.82588734362E+01  0.00000000000E+00 0.  1.
</event>
<event>
 8    1  0.4964753E-012  0.9118800E+02  0.7816164E-02  0.1184000E+00
        -11   -1    0    0    0    0  0.00000000000E+00  0.00000000000E+00  0.45593999997E+02  0.45594000000E+02  0.51100000000E-03 0. -1.
         11   -1    0    0    0    0 -0.00000000000E+00 -0.00000000000E+00 -0.45593999997E+02  0.45594000000E+02  0.51100000000E-03 0.  1.
         23    2    1    2    0    0  0.88817841970E-15  0.00000000000E+00  0.71054273576E-14  0.91188000000E+02  0.91188000000E+02 0.  0.
    9900012    2    3    3    0    0  0.39771002273E+01  0.18492467436E+02 -0.35991342011E+02  0.50528863538E+02  0.30000011209E+02 0.  0.
         12    1    3    3    0    0 -0.39771002273E+01 -0.18492467436E+02  0.35991342011E+02  0.40659136462E+02  0.00000000000E+00 0. -1.
         11    1    4    4    0    0  0.89452261200E+01 -0.67171132576E+00 -0.81053339174E+00  0.90069545954E+01  0.51100000000E-03 0. -1.
        -11    1    4    4    0    0 -0.39242076842E+00  0.35100588142E+01 -0.15809717262E+02  0.16199434160E+02  0.51100000000E-03 0.  1.
        -12    1    4    4    0    0 -0.45757051243E+01  0.15654119948E+02 -0.19371091358E+02  0.25322474783E+02  0.00000000000E+00 0.  1.
</event>
<event>
 8    1  0.4964753E-012  0.9118800E+02  0.7816164E-02  0.1184000E+00
        -11   -1    0    0    0    0  0.00000000000E+00  0.00000000000E+00  0.45593999997E+02  0.45594000000E+02  0.51100000000E-03 0. -1.
         11   -1    0    0    0    0 -0.00000000000E+00 -0.00000000000E+00 -0.45593999997E+02  0.45594000000E+02  0.51100000000E-03 0.  1.
         23    2    1    2    0    0  0.00000000000E+00  0.00000000000E+00  0.00000000000E+00  0.91188000000E+02  0.91188000000E+02 0.  0.
    9900012    2    3    3    0    0  0.13795173679E+02  0.16824202906E+02  0.34348274915E+02  0.50528872981E+02  0.30000039914E+02 0.  0.
        -12    1    3    3    0    0 -0.13795173679E+02 -0.16824202906E+02 -0.34348274915E+02  0.40659127019E+02  0.00000000000E+00 0.  1.
         11    1    4    4    0    0  0.73380681964E+01  0.21095849610E+02  0.25321524454E+02  0.33764799964E+02  0.51100000000E-03 0. -1.
        -11    1    4    4    0    0  0.75349279557E+01  0.29483052269E+00  0.11955472770E+01  0.76348803454E+01  0.51100000000E-03 0.  1.
        -12    1    4    4    0    0 -0.10778224736E+01 -0.45664772266E+01  0.78312031839E+01  0.91291926725E+01  0.00000000000E+00 0.  1.
</event>
<event>
 8    1  0.4964753E-012  0.9118800E+02  0.7816164E-02  0.1184000E+00
        -11   -1    0    0    0    0  0.00000000000E+00  0.00000000000E+00  0.45593999997E+02  0.45594000000E+02  0.51100000000E-03 0. -1.
         11   -1    0    0    0    0 -0.00000000000E+00 -0.00000000000E+00 -0.45593999997E+02  0.45594000000E+02  0.51100000000E-03 0.  1.
         23    2    1    2    0    0  0.00000000000E+00  0.00000000000E+00 -0.27755575616E-14  0.91188000000E+02  0.91188000000E+02 0.  0.
    9900012    2    3    3    0    0 -0.35896098738E+02 -0.19071691397E+02 -0.95183598624E+00  0.50528864383E+02  0.30000013780E+02 0.  0.
         12    1    3    3    0    0  0.35896098738E+02  0.19071691397E+02  0.95183598624E+00  0.40659135617E+02  0.00000000000E+00 0. -1.
         11    1    4    4    0    0 -0.73826709670E+01 -0.26016714332E+01  0.10114075600E+01  0.78927479604E+01  0.51100000000E-03 0. -1.
        -11    1    4    4    0    0 -0.68079182225E+01 -0.39621564803E+01 -0.13048423058E+02  0.15241646206E+02  0.51100000000E-03 0.  1.
        -12    1    4    4    0    0 -0.21705509548E+02 -0.12507863484E+02  0.11085179512E+02  0.27394470217E+02  0.00000000000E+00 0.  1.
</event>
<event>
 8    1  0.4964753E-012  0.9118800E+02  0.7816164E-02  0.1184000E+00
        -11   -1    0    0    0    0  0.00000000000E+00  0.00000000000E+00  0.45593999997E+02  0.45594000000E+02  0.51100000000E-03 0. -1.
         11   -1    0    0    0    0 -0.00000000000E+00 -0.00000000000E+00 -0.45593999997E+02  0.45594000000E+02  0.51100000000E-03 0.  1.
         23    2    1    2    0    0 -0.38857805862E-15  0.88817841970E-15  0.00000000000E+00  0.91188000000E+02  0.91188000000E+02 0.  0.
    9900012    2    3    3    0    0 -0.22887032619E+00 -0.43381374964E+01 -0.40426451032E+02  0.50528809629E+02  0.29999847349E+02 0.  0.
         12    1    3    3    0    0  0.22887032619E+00  0.43381374964E+01  0.40426451032E+02  0.40659190371E+02  0.00000000000E+00 0. -1.
         11    1    4    4    0    0 -0.88539967401E+01  0.29740257439E+01 -0.18327999438E+02  0.20570698847E+02  0.51100000000E-03 0. -1.
        -11    1    4    4    0    0 -0.15281759983E+01  0.17287943327E+01  0.14798127007E+01  0.27411489593E+01  0.51100000000E-03 0.  1.
        -12    1    4    4    0    0  0.10153302412E+02 -0.90409575730E+01 -0.23578264295E+02  0.27216961823E+02  0.00000000000E+00 0.  1.
</event>
<event>
 8    1  0.4964753E-012  0.9118800E+02  0.7816164E-02  0.1184000E+00
        -11   -1    0    0    0    0  0.00000000000E+00  0.00000000000E+00  0.45593999997E+02  0.45594000000E+02  0.51100000000E-03 0. -1.
         11   -1    0    0    0    0 -0.00000000000E+00 -0.00000000000E+00 -0.45593999997E+02  0.45594000000E+02  0.51100000000E-03 0.  1.
         23    2    1    2    0    0  0.35527136788E-14  0.00000000000E+00  0.00000000000E+00  0.91188000000E+02  0.91188000000E+02 0.  0.
    9900012    2    3    3    0    0  0.25521047778E+02 -0.20114691633E+02 -0.24438524032E+02  0.50528853968E+02  0.29999982121E+02 0.  0.
         12    1    3    3    0    0 -0.25521047778E+02  0.20114691633E+02  0.24438524032E+02  0.40659146032E+02  0.00000000000E+00 0. -1.
         11    1    4    4    0    0  0.31883564430E+01 -0.18040565070E+02 -0.58771508290E+01  0.19239763694E+02  0.51100000000E-03 0. -1.
        -11    1    4    4    0    0  0.13792714029E+01 -0.10609760688E+01 -0.72500482845E+01  0.74559546813E+01  0.51100000000E-03 0.  1.
         12    1    4    4    0    0  0.20953419933E+02 -0.10131504937E+01 -0.11311324919E+02  0.23833135593E+02  0.00000000000E+00 0. -1.
</event>
<event>
 8    1  0.4964753E-012  0.9118800E+02  0.7816164E-02  0.1184000E+00
        -11   -1    0    0    0    0  0.00000000000E+00  0.00000000000E+00  0.45593999997E+02  0.45594000000E+02  0.51100000000E-03 0. -1.
         11   -1    0    0    0    0 -0.00000000000E+00 -0.00000000000E+00 -0.45593999997E+02  0.45594000000E+02  0.51100000000E-03 0.  1.
         23    2    1    2    0    0  0.35527136788E-14  0.00000000000E+00  0.00000000000E+00  0.91188000000E+02  0.91188000000E+02 0.  0.
    9900012    2    3    3    0    0  0.16334130674E+02  0.34202136369E+02  0.14716506452E+02  0.50528861799E+02  0.30000005924E+02 0.  0.
        -12    1    3    3    0    0 -0.16334130674E+02 -0.34202136369E+02 -0.14716506452E+02  0.40659138201E+02  0.00000000000E+00 0.  1.
         11    1    4    4    0    0  0.10332716730E+02  0.21549121712E+02  0.18768886228E+01  0.23971908409E+02  0.51100000000E-03 0. -1.
        -11    1    4    4    0    0  0.87697405780E+01  0.15154404386E+02  0.14243225007E+02  0.22570639800E+02  0.51100000000E-03 0.  1.
        -12    1    4    4    0    0 -0.27683266346E+01 -0.25013897288E+01 -0.14036071784E+01  0.39863135906E+01  0.00000000000E+00 0.  1.
</event>
<event>
 8    1  0.4964753E-012  0.9118800E+02  0.7816164E-02  0.1184000E+00
        -11   -1    0    0    0    0  0.00000000000E+00  0.00000000000E+00  0.45593999997E+02  0.45594000000E+02  0.51100000000E-03 0.  1.
         11   -1    0    0    0    0 -0.00000000000E+00 -0.00000000000E+00 -0.45593999997E+02  0.45594000000E+02  0.51100000000E-03 0. -1.
         23    2    1    2    0    0  0.00000000000E+00  0.00000000000E+00  0.44408920985E-15  0.91188000000E+02  0.91188000000E+02 0.  0.
    9900012    2    3    3    0    0  0.34620199993E+02 -0.21167454549E+02 -0.25584430871E+01  0.50528868053E+02  0.30000024935E+02 0.  0.
         12    1    3    3    0    0 -0.34620199993E+02  0.21167454549E+02  0.25584430871E+01  0.40659131947E+02  0.00000000000E+00 0. -1.
         11    1    4    4    0    0  0.10268302987E+02 -0.13181163889E+02  0.13111981394E+01  0.16760082593E+02  0.51100000000E-03 0. -1.
        -11    1    4    4    0    0  0.13894375704E+02 -0.10761324613E+02 -0.11071957521E+02  0.20771327046E+02  0.51100000000E-03 0.  1.
         12    1    4    4    0    0  0.10457521302E+02  0.27750339541E+01  0.72023162941E+01  0.12997458414E+02  0.00000000000E+00 0. -1.
</event>
<event>
 8    1  0.4964753E-012  0.9118800E+02  0.7816164E-02  0.1184000E+00
        -11   -1    0    0    0    0  0.00000000000E+00  0.00000000000E+00  0.45593999997E+02  0.45594000000E+02  0.51100000000E-03 0. -1.
         11   -1    0    0    0    0 -0.00000000000E+00 -0.00000000000E+00 -0.45593999997E+02  0.45594000000E+02  0.51100000000E-03 0.  1.
         23    2    1    2    0    0  0.00000000000E+00  0.71054273576E-14  0.00000000000E+00  0.91188000000E+02  0.91188000000E+02 0.  0.
    9900012    2    3    3    0    0 -0.12415015014E+02 -0.37815189678E+02  0.83092226773E+01  0.50528876182E+02  0.30000049643E+02 0.  0.
        -12    1    3    3    0    0  0.12415015014E+02  0.37815189678E+02 -0.83092226773E+01  0.40659123818E+02  0.00000000000E+00 0.  1.
         11    1    4    4    0    0  0.31134143104E+01 -0.15925972175E+02 -0.21431235509E+01  0.16368351084E+02  0.51100000000E-03 0. -1.
        -11    1    4    4    0    0 -0.91869190210E+01 -0.16094151180E+02 -0.24157700995E+01  0.18688422318E+02  0.51100000000E-03 0.  1.
         12    1    4    4    0    0 -0.63415103031E+01 -0.57950663225E+01  0.12868116328E+02  0.15472102780E+02  0.00000000000E+00 0. -1.
</event>
<event>
 8    1  0.4964753E-012  0.9118800E+02  0.7816164E-02  0.1184000E+00
        -11   -1    0    0    0    0  0.00000000000E+00  0.00000000000E+00  0.45593999997E+02  0.45594000000E+02  0.51100000000E-03 0.  1.
         11   -1    0    0    0    0 -0.00000000000E+00 -0.00000000000E+00 -0.45593999997E+02  0.45594000000E+02  0.51100000000E-03 0. -1.
         23    2    1    2    0    0  0.35527136788E-14  0.00000000000E+00  0.17763568394E-14  0.91188000000E+02  0.91188000000E+02 0.  0.
    9900012    2    3    3    0    0  0.22627992626E+02 -0.32331556481E+02  0.97882624979E+01  0.50528859853E+02  0.30000000009E+02 0.  0.
        -12    1    3    3    0    0 -0.22627992626E+02  0.32331556481E+02 -0.97882624979E+01  0.40659140147E+02  0.00000000000E+00 0.  1.
         11    1    4    4    0    0  0.16061044439E+02 -0.26008014765E+01  0.72625372395E+01  0.17817568976E+02  0.51100000000E-03 0. -1.
        -11    1    4    4    0    0  0.16644983518E+01 -0.95709028732E+00  0.29500930415E+01  0.35198900261E+01  0.51100000000E-03 0.  1.
         12    1    4    4    0    0  0.49024498352E+01 -0.28773664717E+02 -0.42436778306E+00  0.29191400851E+02  0.00000000000E+00 0. -1.
</event>
<event>
 8    1  0.4964753E-012  0.9118800E+02  0.7816164E-02  0.1184000E+00
        -11   -1    0    0    0    0  0.00000000000E+00  0.00000000000E+00  0.45593999997E+02  0.45594000000E+02  0.51100000000E-03 0. -1.
         11   -1    0    0    0    0 -0.00000000000E+00 -0.00000000000E+00 -0.45593999997E+02  0.45594000000E+02  0.51100000000E-03 0.  1.
         23    2    1    2    0    0  0.00000000000E+00  0.00000000000E+00  0.71054273576E-14  0.91188000000E+02  0.91188000000E+02 0.  0.
    9900012    2    3    3    0    0 -0.19290028621E+02  0.68434559604E+01  0.35131557016E+02  0.50528875661E+02  0.30000048058E+02 0.  0.
        -12    1    3    3    0    0  0.19290028621E+02 -0.68434559604E+01 -0.35131557016E+02  0.40659124339E+02  0.00000000000E+00 0.  1.
         11    1    4    4    0    0 -0.13105904080E+02 -0.58019645098E+01  0.68037152784E+01  0.15865624973E+02  0.51100000000E-03 0. -1.
        -11    1    4    4    0    0  0.32484380238E+01  0.25232108243E+01  0.13238254902E+01  0.43210480961E+01  0.51100000000E-03 0.  1.
         12    1    4    4    0    0 -0.94325625648E+01  0.10122209646E+02  0.27004016247E+02  0.30342202592E+02  0.00000000000E+00 0. -1.
</event>
<event>
 8    1  0.4964753E-012  0.9118800E+02  0.7816164E-02  0.1184000E+00
        -11   -1    0    0    0    0  0.00000000000E+00  0.00000000000E+00  0.45593999997E+02  0.45594000000E+02  0.51100000000E-03 0. -1.
         11   -1    0    0    0    0 -0.00000000000E+00 -0.00000000000E+00 -0.45593999997E+02  0.45594000000E+02  0.51100000000E-03 0.  1.
         23    2    1    2    0    0 -0.35527136788E-14 -0.35527136788E-14  0.17763568394E-14  0.91188000000E+02  0.91188000000E+02 0.  0.
    9900012    2    3    3    0    0 -0.31321994210E+02 -0.21088555513E+02  0.15078791131E+02  0.50528875110E+02  0.30000046383E+02 0.  0.
        -12    1    3    3    0    0  0.31321994210E+02  0.21088555513E+02 -0.15078791131E+02  0.40659124890E+02  0.00000000000E+00 0.  1.
         11    1    4    4    0    0 -0.32106884549E+02 -0.15360629415E+02  0.84074793420E+01  0.36571664997E+02  0.51100000000E-03 0. -1.
        -11    1    4    4    0    0 -0.19019380059E+01 -0.27643358342E+01 -0.23447983313E+01  0.40935315143E+01  0.51100000000E-03 0.  1.
        -12    1    4    4    0    0  0.26868283451E+01 -0.29635902631E+01  0.90161101199E+01  0.98636785987E+01  0.00000000000E+00 0.  1.
</event>
<event>
 8    1  0.5671939E-012  0.9118800E+02  0.7816164E-02  0.1184000E+00
        -11   -1    0    0    0    0  0.00000000000E+00  0.00000000000E+00  0.45593999997E+02  0.45594000000E+02  0.51100000000E-03 0. -1.
         11   -1    0    0    0    0 -0.00000000000E+00 -0.00000000000E+00 -0.45593999997E+02  0.45594000000E+02  0.51100000000E-03 0.  1.
         23    2    1    2    0    0  0.00000000000E+00 -0.44408920985E-15 -0.71054273576E-14  0.91188000000E+02  0.91188000000E+02 0.  0.
    9900012    2    3    3    0    0  0.18467759354E+02  0.16096006336E+01 -0.36187238939E+02  0.50528865580E+02  0.30000017417E+02 0.  0.
         12    1    3    3    0    0 -0.18467759354E+02 -0.16096006336E+01  0.36187238939E+02  0.40659134420E+02  0.00000000000E+00 0. -1.
         11    1    4    4    0    0  0.11116931884E+01  0.81033460047E+01 -0.10111660714E+02  0.13005604979E+02  0.51100000000E-03 0. -1.
        -11    1    4    4    0    0  0.19386841933E+01 -0.27288233446E+01 -0.20393392920E+02  0.20666287724E+02  0.51100000000E-03 0.  1.
         12    1    4    4    0    0  0.15417381972E+02 -0.37649220264E+01 -0.56821853052E+01  0.16856972877E+02  0.00000000000E+00 0. -1.
</event>
<event>
 8    1  0.4964753E-012  0.9118800E+02  0.7816164E-02  0.1184000E+00
        -11   -1    0    0    0    0  0.00000000000E+00  0.00000000000E+00  0.45593999997E+02  0.45594000000E+02  0.51100000000E-03 0. -1.
         11   -1    0    0    0    0 -0.00000000000E+00 -0.00000000000E+00 -0.45593999997E+02  0.45594000000E+02  0.51100000000E-03 0.  1.
         23    2    1    2    0    0  0.00000000000E+00 -0.17763568394E-14  0.71054273576E-14  0.91188000000E+02  0.91188000000E+02 0.  0.
    9900012    2    3    3    0    0 -0.17984216468E+02  0.11421540821E+02 -0.34630651581E+02  0.50528859999E+02  0.30000000454E+02 0.  0.
         12    1    3    3    0    0  0.17984216468E+02 -0.11421540821E+02  0.34630651581E+02  0.40659140001E+02  0.00000000000E+00 0. -1.
         11    1    4    4    0    0 -0.73879423547E+01 -0.16797831959E+00 -0.16705890511E+01  0.75763300477E+01  0.51100000000E-03 0. -1.
        -11    1    4    4    0    0 -0.11672113896E+02  0.17127444187E+02 -0.19931616568E+02  0.28755120004E+02  0.51100000000E-03 0.  1.
         12    1    4    4    0    0  0.10758397824E+01 -0.55379250460E+01 -0.13028445961E+02  0.14197409947E+02  0.00000000000E+00 0. -1.
</event>
<event>
 8    1  0.4964753E-012  0.9118800E+02  0.7816164E-02  0.1184000E+00
        -11   -1    0    0    0    0  0.00000000000E+00  0.00000000000E+00  0.45593999997E+02  0.45594000000E+02  0.51100000000E-03 0. -1.
         11   -1    0    0    0    0 -0.00000000000E+00 -0.00000000000E+00 -0.45593999997E+02  0.45594000000E+02  0.51100000000E-03 0.  1.
         23    2    1    2    0    0  0.00000000000E+00  0.35527136788E-14  0.00000000000E+00  0.91188000000E+02  0.91188000000E+02 0.  0.
    9900012    2    3    3    0    0 -0.52040635324E+01 -0.21245294324E+02  0.34274182770E+02  0.50528875406E+02  0.30000047285E+02 0.  0.
        -12    1    3    3    0    0  0.52040635324E+01  0.21245294324E+02 -0.34274182770E+02  0.40659124594E+02  0.00000000000E+00 0.  1.
         11    1    4    4    0    0 -0.81045247754E+01 -0.57757002283E+01  0.49788697234E+01  0.11127945855E+02  0.51100000000E-03 0. -1.
        -11    1    4    4    0    0  0.44546463688E+01 -0.16809589720E+02  0.10128202975E+02  0.20124280772E+02  0.51100000000E-03 0.  1.
         12    1    4    4    0    0 -0.15541851258E+01  0.13399956241E+01  0.19167110071E+02  0.19276648779E+02  0.00000000000E+00 0. -1.
</event>
<event>
 8    1  0.4964753E-012  0.9118800E+02  0.7816164E-02  0.1184000E+00
        -11   -1    0    0    0    0  0.00000000000E+00  0.00000000000E+00  0.45593999997E+02  0.45594000000E+02  0.51100000000E-03 0. -1.
         11   -1    0    0    0    0 -0.00000000000E+00 -0.00000000000E+00 -0.45593999997E+02  0.45594000000E+02  0.51100000000E-03 0.  1.
         23    2    1    2    0    0 -0.88817841970E-15  0.00000000000E+00 -0.35527136788E-14  0.91188000000E+02  0.91188000000E+02 0.  0.
    9900012    2    3    3    0    0 -0.61515977984E+01 -0.25524414235E+02  0.31045578629E+02  0.50528857978E+02  0.29999994310E+02 0.  0.
        -12    1    3    3    0    0  0.61515977984E+01  0.25524414235E+02 -0.31045578629E+02  0.40659142022E+02  0.00000000000E+00 0.  1.
         11    1    4    4    0    0 -0.59896292780E+01 -0.14644978431E+01  0.56030671671E+01  0.83315529621E+01  0.51100000000E-03 0. -1.
        -11    1    4    4    0    0 -0.10253867813E+02 -0.36727405782E+01  0.74931688256E+01  0.13220378504E+02  0.51100000000E-03 0.  1.
         12    1    4    4    0    0  0.10091899293E+02 -0.20387175814E+02  0.17949342636E+02  0.28976926512E+02  0.00000000000E+00 0. -1.
</event>
<event>
 8    1  0.4964753E-012  0.9118800E+02  0.7816164E-02  0.1184000E+00
        -11   -1    0    0    0    0  0.00000000000E+00  0.00000000000E+00  0.45593999997E+02  0.45594000000E+02  0.51100000000E-03 0. -1.
         11   -1    0    0    0    0 -0.00000000000E+00 -0.00000000000E+00 -0.45593999997E+02  0.45594000000E+02  0.51100000000E-03 0.  1.
         23    2    1    2    0    0  0.44408920985E-15  0.00000000000E+00 -0.17763568394E-14  0.91188000000E+02  0.91188000000E+02 0.  0.
    9900012    2    3    3    0    0 -0.66716229847E+00 -0.38388955182E+02  0.13379421400E+02  0.50528857086E+02  0.29999991598E+02 0.  0.
        -12    1    3    3    0    0  0.66716229847E+00  0.38388955182E+02 -0.13379421400E+02  0.40659142914E+02  0.00000000000E+00 0.  1.
         11    1    4    4    0    0  0.11552626935E+02 -0.18620419709E+02  0.78968881952E+01  0.23292575269E+02  0.51100000000E-03 0. -1.
        -11    1    4    4    0    0 -0.14533786044E+01 -0.57296607816E+01 -0.40251274124E+01  0.71514315341E+01  0.51100000000E-03 0.  1.
        -12    1    4    4    0    0 -0.10766410629E+02 -0.14038874692E+02  0.95076606175E+01  0.20084850283E+02  0.00000000000E+00 0.  1.
</event>
<event>
 8    1  0.4964753E-012  0.9118800E+02  0.7816164E-02  0.1184000E+00
        -11   -1    0    0    0    0  0.00000000000E+00  0.00000000000E+00  0.45593999997E+02  0.45594000000E+02  0.51100000000E-03 0. -1.
         11   -1    0    0    0    0 -0.00000000000E+00 -0.00000000000E+00 -0.45593999997E+02  0.45594000000E+02  0.51100000000E-03 0.  1.
         23    2    1    2    0    0  0.00000000000E+00  0.35527136788E-14  0.44408920985E-15  0.91188000000E+02  0.91188000000E+02 0.  0.
    9900012    2    3    3    0    0 -0.26657656966E+02 -0.30551688546E+02 -0.30214003112E+01  0.50528865629E+02  0.30000017565E+02 0.  0.
         12    1    3    3    0    0  0.26657656966E+02  0.30551688546E+02  0.30214003112E+01  0.40659134371E+02  0.00000000000E+00 0. -1.
         11    1    4    4    0    0  0.18424482108E+01 -0.19895275061E+01 -0.14941367814E+01  0.30960103503E+01  0.51100000000E-03 0. -1.
        -11    1    4    4    0    0 -0.22891204739E+02 -0.28781627673E+02 -0.92170504881E+01  0.37912311534E+02  0.51100000000E-03 0.  1.
         12    1    4    4    0    0 -0.56089004384E+01  0.21946663214E+00  0.76897869584E+01  0.95205437448E+01  0.00000000000E+00 0. -1.
</event>
<event>
 8    1  0.4964753E-012  0.9118800E+02  0.7816164E-02  0.1184000E+00
        -11   -1    0    0    0    0  0.00000000000E+00  0.00000000000E+00  0.45593999997E+02  0.45594000000E+02  0.51100000000E-03 0. -1.
         11   -1    0    0    0    0 -0.00000000000E+00 -0.00000000000E+00 -0.45593999997E+02  0.45594000000E+02  0.51100000000E-03 0.  1.
         23    2    1    2    0    0  0.00000000000E+00  0.00000000000E+00  0.00000000000E+00  0.91188000000E+02  0.91188000000E+02 0.  0.
    9900012    2    3    3    0    0  0.15436256914E+02  0.16017468644E+02 -0.34034210110E+02  0.50528870802E+02  0.30000033291E+02 0.  0.
         12    1    3    3    0    0 -0.15436256914E+02 -0.16017468644E+02  0.34034210110E+02  0.40659129198E+02  0.00000000000E+00 0. -1.
         11    1    4    4    0    0  0.83076874894E+01  0.15152809401E+02 -0.21859871942E+02  0.27865378263E+02  0.51100000000E-03 0. -1.
        -11    1    4    4    0    0  0.55214124625E+00  0.70918076901E-01 -0.15320184757E+02  0.15330295189E+02  0.51100000000E-03 0.  1.
         12    1    4    4    0    0  0.65764281783E+01  0.79374116631E+00  0.31458465885E+01  0.73331973505E+01  0.00000000000E+00 0. -1.
</event>
<event>
 8    1  0.4964753E-012  0.9118800E+02  0.7816164E-02  0.1184000E+00
        -11   -1    0    0    0    0  0.00000000000E+00  0.00000000000E+00  0.45593999997E+02  0.45594000000E+02  0.51100000000E-03 0.  1.
         11   -1    0    0    0    0 -0.00000000000E+00 -0.00000000000E+00 -0.45593999997E+02  0.45594000000E+02  0.51100000000E-03 0. -1.
         23    2    1    2    0    0  0.35527136788E-14 -0.35527136788E-14 -0.35527136788E-14  0.91188000000E+02  0.91188000000E+02 0.  0.
    9900012    2    3    3    0    0  0.27750514951E+02 -0.19765442765E+02 -0.22190126166E+02  0.50528861950E+02  0.30000006382E+02 0.  0.
         12    1    3    3    0    0 -0.27750514951E+02  0.19765442765E+02  0.22190126166E+02  0.40659138050E+02  0.00000000000E+00 0. -1.
         11    1    4    4    0    0  0.11523226752E+01 -0.15707931208E+01 -0.12472813803E+02  0.12624037508E+02  0.51100000000E-03 0. -1.
        -11    1    4    4    0    0 -0.16454358660E+00 -0.62992693428E+01  0.16092027906E+01  0.65036453414E+01  0.51100000000E-03 0.  1.
        -12    1    4    4    0    0  0.26762735863E+02 -0.11895380301E+02 -0.11326515153E+02  0.31401179100E+02  0.00000000000E+00 0.  1.
</event>
<event>
 8    1  0.4964753E-012  0.9118800E+02  0.7816164E-02  0.1184000E+00
        -11   -1    0    0    0    0  0.00000000000E+00  0.00000000000E+00  0.45593999997E+02  0.45594000000E+02  0.51100000000E-03 0. -1.
         11   -1    0    0    0    0 -0.00000000000E+00 -0.00000000000E+00 -0.45593999997E+02  0.45594000000E+02  0.51100000000E-03 0.  1.
         23    2    1    2    0    0  0.00000000000E+00  0.88817841970E-15  0.71054273576E-14  0.91188000000E+02  0.91188000000E+02 0.  0.
    9900012    2    3    3    0    0  0.21064166772E+02  0.76747598339E+01  0.33919974082E+02  0.50528859551E+02  0.29999999092E+02 0.  0.
        -12    1    3    3    0    0 -0.21064166772E+02 -0.76747598339E+01 -0.33919974082E+02  0.40659140449E+02  0.00000000000E+00 0.  1.
         11    1    4    4    0    0  0.18499961636E+02 -0.19791879780E+01  0.26118662715E+02  0.32067901520E+02  0.51100000000E-03 0. -1.
        -11    1    4    4    0    0  0.63344311628E+00 -0.25798141695E+01 -0.14272658703E+01  0.30155894045E+01  0.51100000000E-03 0.  1.
        -12    1    4    4    0    0  0.19307620196E+01  0.12233761981E+02  0.92285772368E+01  0.15445368627E+02  0.00000000000E+00 0.  1.
</event>
<event>
 8    1  0.4964753E-012  0.9118800E+02  0.7816164E-02  0.1184000E+00
        -11   -1    0    0    0    0  0.00000000000E+00  0.00000000000E+00  0.45593999997E+02  0.45594000000E+02  0.51100000000E-03 0.  1.
         11   -1    0    0    0    0 -0.00000000000E+00 -0.00000000000E+00 -0.45593999997E+02  0.45594000000E+02  0.51100000000E-03 0. -1.
         23    2    1    2    0    0 -0.35527136788E-14  0.00000000000E+00  0.00000000000E+00  0.91188000000E+02  0.91188000000E+02 0.  0.
    9900012    2    3    3    0    0  0.30102063984E+02  0.14692426867E+02  0.23047005155E+02  0.50528854535E+02  0.29999983845E+02 0.  0.
        -12    1    3    3    0    0 -0.30102063984E+02 -0.14692426867E+02 -0.23047005155E+02  0.40659145465E+02  0.00000000000E+00 0.  1.
         11    1    4    4    0    0  0.20038045762E+02  0.11191587183E+02  0.40138836785E+01  0.23299917684E+02  0.51100000000E-03 0. -1.
        -11    1    4    4    0    0  0.15347449304E+01 -0.39485325141E+01 -0.87462800091E+00  0.43256589576E+01  0.51100000000E-03 0.  1.
        -12    1    4    4    0    0  0.85292732915E+01  0.74493721981E+01  0.19907749477E+02  0.22903277894E+02  0.00000000000E+00 0.  1.
</event>
<event>
 8    1  0.4964753E-012  0.9118800E+02  0.7816164E-02  0.1184000E+00
        -11   -1    0    0    0    0  0.00000000000E+00  0.00000000000E+00  0.45593999997E+02  0.45594000000E+02  0.51100000000E-03 0. -1.
         11   -1    0    0    0    0 -0.00000000000E+00 -0.00000000000E+00 -0.45593999997E+02  0.45594000000E+02  0.51100000000E-03 0.  1.
         23    2    1    2    0    0  0.00000000000E+00  0.00000000000E+00  0.71054273576E-14  0.91188000000E+02  0.91188000000E+02 0.  0.
    9900012    2    3    3    0    0 -0.16455209341E+02 -0.23227491311E+02  0.29032318435E+02  0.50528858583E+02  0.29999996149E+02 0.  0.
        -12    1    3    3    0    0  0.16455209341E+02  0.23227491311E+02 -0.29032318435E+02  0.40659141417E+02  0.00000000000E+00 0.  1.
         11    1    4    4    0    0  0.41067824740E+01 -0.13418906548E+02  0.14388242734E+02  0.20098612999E+02  0.51100000000E-03 0.  1.
        -11    1    4    4    0    0 -0.57055241979E+01 -0.10287867202E+02  0.73659161837E+01  0.13879839315E+02  0.51100000000E-03 0. -1.
        -12    1    4    4    0    0 -0.14856467617E+02  0.47928243932E+00  0.72781595173E+01  0.16550406269E+02  0.00000000000E+00 0.  1.
</event>
<event>
 8    1  0.4964753E-012  0.9118800E+02  0.7816164E-02  0.1184000E+00
        -11   -1    0    0    0    0  0.00000000000E+00  0.00000000000E+00  0.45593999997E+02  0.45594000000E+02  0.51100000000E-03 0. -1.
         11   -1    0    0    0    0 -0.00000000000E+00 -0.00000000000E+00 -0.45593999997E+02  0.45594000000E+02  0.51100000000E-03 0.  1.
         23    2    1    2    0    0 -0.35527136788E-14  0.00000000000E+00  0.00000000000E+00  0.91188000000E+02  0.91188000000E+02 0.  0.
    9900012    2    3    3    0    0  0.20815081060E+02 -0.17455681066E+02  0.30252219411E+02  0.50528865967E+02  0.30000018594E+02 0.  0.
        -12    1    3    3    0    0 -0.20815081060E+02  0.17455681066E+02 -0.30252219411E+02  0.40659134033E+02  0.00000000000E+00 0.  1.
         11    1    4    4    0    0 -0.36160065383E+01 -0.41967086985E+01  0.90687159676E+01  0.10626828160E+02  0.51100000000E-03 0. -1.
        -11    1    4    4    0    0  0.15320217730E+02  0.25075420527E+01  0.83771915275E+01  0.17640129722E+02  0.51100000000E-03 0.  1.
         12    1    4    4    0    0  0.91108698678E+01 -0.15766514421E+02  0.12806311915E+02  0.22261908085E+02  0.00000000000E+00 0. -1.
</event>
<event>
 8    1  0.4964753E-012  0.9118800E+02  0.7816164E-02  0.1184000E+00
        -11   -1    0    0    0    0  0.00000000000E+00  0.00000000000E+00  0.45593999997E+02  0.45594000000E+02  0.51100000000E-03 0. -1.
         11   -1    0    0    0    0 -0.00000000000E+00 -0.00000000000E+00 -0.45593999997E+02  0.45594000000E+02  0.51100000000E-03 0.  1.
         23    2    1    2    0    0  0.00000000000E+00  0.00000000000E+00 -0.71054273576E-14  0.91188000000E+02  0.91188000000E+02 0.  0.
    9900012    2    3    3    0    0  0.15552103236E+02 -0.14080749594E+02 -0.34828586779E+02  0.50528857348E+02  0.29999992395E+02 0.  0.
         12    1    3    3    0    0 -0.15552103236E+02  0.14080749594E+02  0.34828586779E+02  0.40659142652E+02  0.00000000000E+00 0. -1.
         11    1    4    4    0    0  0.10233451268E+02  0.53791984355E+01 -0.77547125440E+01  0.13921022504E+02  0.51100000000E-03 0. -1.
        -11    1    4    4    0    0  0.63975801765E+01 -0.80983165107E+01 -0.43911825593E+01  0.11215803447E+02  0.51100000000E-03 0.  1.
        -12    1    4    4    0    0 -0.10789282084E+01 -0.11361631519E+02 -0.22682691675E+02  0.25392031398E+02  0.00000000000E+00 0.  1.
</event>
<event>
 8    1  0.4964753E-012  0.9118800E+02  0.7816164E-02  0.1184000E+00
        -11   -1    0    0    0    0  0.00000000000E+00  0.00000000000E+00  0.45593999997E+02  0.45594000000E+02  0.51100000000E-03 0. -1.
         11   -1    0    0    0    0 -0.00000000000E+00 -0.00000000000E+00 -0.45593999997E+02  0.45594000000E+02  0.51100000000E-03 0.  1.
         23    2    1    2    0    0  0.00000000000E+00 -0.17763568394E-14  0.00000000000E+00  0.91188000000E+02  0.91188000000E+02 0.  0.
    9900012    2    3    3    0    0 -0.64818566685E+01  0.41848117023E+01  0.39920411714E+02  0.50528851137E+02  0.29999973517E+02 0.  0.
        -12    1    3    3    0    0  0.64818566685E+01 -0.41848117023E+01 -0.39920411714E+02  0.40659148863E+02  0.00000000000E+00 0.  1.
         11    1    4    4    0    0 -0.76740069463E+01 -0.84154952487E+01  0.12161865367E+02  0.16661990048E+02  0.51100000000E-03 0. -1.
        -11    1    4    4    0    0  0.46811019454E+00  0.69336448849E-01 -0.17430160834E+01  0.18061118530E+01  0.51100000000E-03 0.  1.
         12    1    4    4    0    0  0.72404008333E+00  0.12530970502E+02  0.29501562430E+02  0.32060749236E+02  0.00000000000E+00 0. -1.
</event>
<event>
 8    1  0.4964753E-012  0.9118800E+02  0.7816164E-02  0.1184000E+00
        -11   -1    0    0    0    0  0.00000000000E+00  0.00000000000E+00  0.45593999997E+02  0.45594000000E+02  0.51100000000E-03 0. -1.
         11   -1    0    0    0    0 -0.00000000000E+00 -0.00000000000E+00 -0.45593999997E+02  0.45594000000E+02  0.51100000000E-03 0.  1.
         23    2    1    2    0    0  0.00000000000E+00  0.00000000000E+00  0.00000000000E+00  0.91188000000E+02  0.91188000000E+02 0.  0.
    9900012    2    3    3    0    0 -0.23122783893E+02 -0.23626659882E+02 -0.23670326399E+02  0.50528849198E+02  0.29999967621E+02 0.  0.
         12    1    3    3    0    0  0.23122783893E+02  0.23626659882E+02  0.23670326399E+02  0.40659150802E+02  0.00000000000E+00 0. -1.
         11    1    4    4    0    0 -0.15577559083E+01 -0.50349044679E+01 -0.10095290667E+02  0.11388229027E+02  0.51100000000E-03 0. -1.
        -11    1    4    4    0    0  0.25469310810E+01 -0.49890958018E+01 -0.96796599182E+01  0.11183637657E+02  0.51100000000E-03 0.  1.
        -12    1    4    4    0    0 -0.24111959066E+02 -0.13602659613E+02 -0.38953758138E+01  0.27956982513E+02  0.00000000000E+00 0.  1.
</event>
<event>
 8    1  0.4964753E-012  0.9118800E+02  0.7816164E-02  0.1184000E+00
        -11   -1    0    0    0    0  0.00000000000E+00  0.00000000000E+00  0.45593999997E+02  0.45594000000E+02  0.51100000000E-03 0. -1.
         11   -1    0    0    0    0 -0.00000000000E+00 -0.00000000000E+00 -0.45593999997E+02  0.45594000000E+02  0.51100000000E-03 0.  1.
         23    2    1    2    0    0 -0.17763568394E-14 -0.17763568394E-14  0.00000000000E+00  0.91188000000E+02  0.91188000000E+02 0.  0.
    9900012    2    3    3    0    0  0.41266880875E+01  0.10023198723E+02 -0.39187647459E+02  0.50528858585E+02  0.29999996155E+02 0.  0.
         12    1    3    3    0    0 -0.41266880875E+01 -0.10023198723E+02  0.39187647459E+02  0.40659141415E+02  0.00000000000E+00 0. -1.
         11    1    4    4    0    0 -0.95386294643E+01  0.41828246266E+01 -0.10021009526E+02  0.14453446167E+02  0.51100000000E-03 0. -1.
        -11    1    4    4    0    0  0.32986599884E+01  0.79745384065E+01 -0.57278567429E+01  0.10357739312E+02  0.51100000000E-03 0.  1.
        -12    1    4    4    0    0  0.10366657563E+02 -0.21341643106E+01 -0.23438781190E+02  0.25717673107E+02  0.00000000000E+00 0.  1.
</event>
<event>
 8    1  0.4964753E-012  0.9118800E+02  0.7816164E-02  0.1184000E+00
        -11   -1    0    0    0    0  0.00000000000E+00  0.00000000000E+00  0.45593999997E+02  0.45594000000E+02  0.51100000000E-03 0. -1.
         11   -1    0    0    0    0 -0.00000000000E+00 -0.00000000000E+00 -0.45593999997E+02  0.45594000000E+02  0.51100000000E-03 0.  1.
         23    2    1    2    0    0 -0.71054273576E-14  0.88817841970E-15  0.00000000000E+00  0.91188000000E+02  0.91188000000E+02 0.  0.
    9900012    2    3    3    0    0 -0.37240331214E+02  0.59377246580E+01  0.15200833290E+02  0.50528878321E+02  0.30000056143E+02 0.  0.
        -12    1    3    3    0    0  0.37240331214E+02 -0.59377246580E+01 -0.15200833290E+02  0.40659121679E+02  0.00000000000E+00 0.  1.
         11    1    4    4    0    0 -0.13111304064E+02  0.76687693257E+01  0.10537477494E+02  0.18486610003E+02  0.51100000000E-03 0. -1.
        -11    1    4    4    0    0 -0.95419525097E+01 -0.72295585387E+01  0.99652860666E+01  0.15576337856E+02  0.51100000000E-03 0.  1.
        -12    1    4    4    0    0 -0.14587074640E+02  0.54985138710E+01 -0.53019302704E+01  0.16465930461E+02  0.00000000000E+00 0.  1.
</event>
<event>
 8    1  0.4964753E-012  0.9118800E+02  0.7816164E-02  0.1184000E+00
        -11   -1    0    0    0    0  0.00000000000E+00  0.00000000000E+00  0.45593999997E+02  0.45594000000E+02  0.51100000000E-03 0. -1.
         11   -1    0    0    0    0 -0.00000000000E+00 -0.00000000000E+00 -0.45593999997E+02  0.45594000000E+02  0.51100000000E-03 0.  1.
         23    2    1    2    0    0  0.00000000000E+00  0.00000000000E+00  0.17763568394E-14  0.91188000000E+02  0.91188000000E+02 0.  0.
    9900012    2    3    3    0    0 -0.11426115394E+02  0.36867436435E+02  0.12782873445E+02  0.50528857906E+02  0.29999994091E+02 0.  0.
        -12    1    3    3    0    0  0.11426115394E+02 -0.36867436435E+02 -0.12782873445E+02  0.40659142094E+02  0.00000000000E+00 0.  1.
         11    1    4    4    0    0 -0.19844347245E+01  0.59979675109E+01  0.23412817159E+01  0.67375956967E+01  0.51100000000E-03 0. -1.
        -11    1    4    4    0    0  0.16285134509E+01 -0.48506276944E+01  0.16421095411E+01  0.53737481421E+01  0.51100000000E-03 0.  1.
        -12    1    4    4    0    0 -0.11070194121E+02  0.35720096619E+02  0.87994821879E+01  0.38417514067E+02  0.00000000000E+00 0.  1.
</event>
<event>
 8    1  0.4964753E-012  0.9118800E+02  0.7816164E-02  0.1184000E+00
        -11   -1    0    0    0    0  0.00000000000E+00  0.00000000000E+00  0.45593999997E+02  0.45594000000E+02  0.51100000000E-03 0. -1.
         11   -1    0    0    0    0 -0.00000000000E+00 -0.00000000000E+00 -0.45593999997E+02  0.45594000000E+02  0.51100000000E-03 0.  1.
         23    2    1    2    0    0  0.00000000000E+00  0.00000000000E+00  0.00000000000E+00  0.91188000000E+02  0.91188000000E+02 0.  0.
    9900012    2    3    3    0    0  0.74712382940E+01 -0.81867897006E+01  0.39119344086E+02  0.50528855777E+02  0.29999987620E+02 0.  0.
        -12    1    3    3    0    0 -0.74712382940E+01  0.81867897006E+01 -0.39119344086E+02  0.40659144223E+02  0.00000000000E+00 0.  1.
         11    1    4    4    0    0  0.77839363538E+01 -0.28913599209E+01  0.13130979147E+02  0.15536159145E+02  0.51100000000E-03 0. -1.
        -11    1    4    4    0    0 -0.33021313178E+01  0.83123508087E+01  0.65911041915E+01  0.11110441122E+02  0.51100000000E-03 0.  1.
         12    1    4    4    0    0  0.29894332580E+01 -0.13607780588E+02  0.19397260747E+02  0.23882255510E+02  0.00000000000E+00 0. -1.
</event>
<event>
 8    1  0.4964753E-012  0.9118800E+02  0.7816164E-02  0.1184000E+00
        -11   -1    0    0    0    0  0.00000000000E+00  0.00000000000E+00  0.45593999997E+02  0.45594000000E+02  0.51100000000E-03 0.  1.
         11   -1    0    0    0    0 -0.00000000000E+00 -0.00000000000E+00 -0.45593999997E+02  0.45594000000E+02  0.51100000000E-03 0. -1.
         23    2    1    2    0    0  0.88817841970E-15 -0.71054273576E-14  0.17763568394E-14  0.91188000000E+02  0.91188000000E+02 0.  0.
    9900012    2    3    3    0    0 -0.57385374624E+01  0.38390765540E+02 -0.12098921595E+02  0.50528860871E+02  0.30000003104E+02 0.  0.
         12    1    3    3    0    0  0.57385374624E+01 -0.38390765540E+02  0.12098921595E+02  0.40659139129E+02  0.00000000000E+00 0. -1.
         11    1    4    4    0    0 -0.64494831994E+01  0.20267488563E+02 -0.11506944002E+01  0.21300024038E+02  0.51100000000E-03 0. -1.
        -11    1    4    4    0    0  0.51340497226E+01  0.49660527909E+01  0.45143450901E+01  0.84498200413E+01  0.51100000000E-03 0.  1.
         12    1    4    4    0    0 -0.44231039856E+01  0.13157224186E+02 -0.15462572285E+02  0.20779016792E+02  0.00000000000E+00 0. -1.
</event>
<event>
 8    1  0.4964753E-012  0.9118800E+02  0.7816164E-02  0.1184000E+00
        -11   -1    0    0    0    0  0.00000000000E+00  0.00000000000E+00  0.45593999997E+02  0.45594000000E+02  0.51100000000E-03 0. -1.
         11   -1    0    0    0    0 -0.00000000000E+00 -0.00000000000E+00 -0.45593999997E+02  0.45594000000E+02  0.51100000000E-03 0.  1.
         23    2    1    2    0    0  0.00000000000E+00  0.00000000000E+00  0.00000000000E+00  0.91188000000E+02  0.91188000000E+02 0.  0.
    9900012    2    3    3    0    0 -0.19210445374E+02  0.16712795495E+02 -0.31698683213E+02  0.50528864960E+02  0.30000015534E+02 0.  0.
         12    1    3    3    0    0  0.19210445374E+02 -0.16712795495E+02  0.31698683213E+02  0.40659135040E+02  0.00000000000E+00 0. -1.
         11    1    4    4    0    0 -0.39209586606E+01  0.13399190551E+02 -0.88446487002E+01  0.16526948754E+02  0.51100000000E-03 0. -1.
        -11    1    4    4    0    0  0.37096267182E+01 -0.32231858775E+01 -0.61550210068E+01  0.78762009525E+01  0.51100000000E-03 0.  1.
        -12    1    4    4    0    0 -0.18999113432E+02  0.65367908212E+01 -0.16699013506E+02  0.26125715254E+02  0.00000000000E+00 0.  1.
</event>
<event>
 8    1  0.4964753E-012  0.9118800E+02  0.7816164E-02  0.1184000E+00
        -11   -1    0    0    0    0  0.00000000000E+00  0.00000000000E+00  0.45593999997E+02  0.45594000000E+02  0.51100000000E-03 0. -1.
         11   -1    0    0    0    0 -0.00000000000E+00 -0.00000000000E+00 -0.45593999997E+02  0.45594000000E+02  0.51100000000E-03 0.  1.
         23    2    1    2    0    0 -0.35527136788E-14  0.88817841970E-15 -0.35527136788E-14  0.91188000000E+02  0.91188000000E+02 0.  0.
    9900012    2    3    3    0    0 -0.27089473425E+02 -0.63334786921E+01  0.29651519044E+02  0.50528866900E+02  0.30000021431E+02 0.  0.
        -12    1    3    3    0    0  0.27089473425E+02  0.63334786921E+01 -0.29651519044E+02  0.40659133100E+02  0.00000000000E+00 0.  1.
         11    1    4    4    0    0 -0.16314509266E+02 -0.49457850506E+01  0.22772535717E+02  0.28446658601E+02  0.51100000000E-03 0. -1.
        -11    1    4    4    0    0 -0.25431643995E+01  0.28219788359E+01  0.11236334950E+02  0.11861132875E+02  0.51100000000E-03 0.  1.
        -12    1    4    4    0    0 -0.82317997596E+01 -0.42096724774E+01 -0.43573516229E+01  0.10221075424E+02  0.00000000000E+00 0.  1.
</event>
<event>
 8    1  0.4964753E-012  0.9118800E+02  0.7816164E-02  0.1184000E+00
        -11   -1    0    0    0    0  0.00000000000E+00  0.00000000000E+00  0.45593999997E+02  0.45594000000E+02  0.51100000000E-03 0. -1.
         11   -1    0    0    0    0 -0.00000000000E+00 -0.00000000000E+00 -0.45593999997E+02  0.45594000000E+02  0.51100000000E-03 0.  1.
         23    2    1    2    0    0  0.00000000000E+00 -0.17763568394E-14  0.00000000000E+00  0.91188000000E+02  0.91188000000E+02 0.  0.
    9900012    2    3    3    0    0  0.60534627649E+01 -0.85302141795E+01  0.39290669841E+02  0.50528859552E+02  0.29999999094E+02 0.  0.
        -12    1    3    3    0    0 -0.60534627649E+01  0.85302141795E+01 -0.39290669841E+02  0.40659140448E+02  0.00000000000E+00 0.  1.
         11    1    4    4    0    0 -0.59211808474E+00  0.75103757213E+00  0.37947348818E+02  0.37959398623E+02  0.51100000000E-03 0.  1.
        -11    1    4    4    0    0 -0.41394130820E+00 -0.25377505650E+01  0.11187032838E+01  0.28041081711E+01  0.51100000000E-03 0. -1.
         12    1    4    4    0    0  0.70595221579E+01 -0.67435011866E+01  0.22461773945E+00  0.97653527576E+01  0.00000000000E+00 0. -1.
</event>
<event>
 8    1  0.4964753E-012  0.9118800E+02  0.7816164E-02  0.1184000E+00
        -11   -1    0    0    0    0  0.00000000000E+00  0.00000000000E+00  0.45593999997E+02  0.45594000000E+02  0.51100000000E-03 0. -1.
         11   -1    0    0    0    0 -0.00000000000E+00 -0.00000000000E+00 -0.45593999997E+02  0.45594000000E+02  0.51100000000E-03 0.  1.
         23    2    1    2    0    0  0.00000000000E+00 -0.17763568394E-14 -0.71054273576E-14  0.91188000000E+02  0.91188000000E+02 0.  0.
    9900012    2    3    3    0    0 -0.46553008632E+01 -0.11820543304E+02  0.38623418157E+02  0.50528862032E+02  0.30000006634E+02 0.  0.
        -12    1    3    3    0    0  0.46553008632E+01  0.11820543304E+02 -0.38623418157E+02  0.40659137968E+02  0.00000000000E+00 0.  1.
         11    1    4    4    0    0 -0.41459464293E+01 -0.11843378691E+02  0.31863132679E+02  0.34244907869E+02  0.51100000000E-03 0. -1.
        -11    1    4    4    0    0  0.26608322796E+01 -0.65427770149E+01  0.53434390829E+01  0.88566529220E+01  0.51100000000E-03 0.  1.
        -12    1    4    4    0    0 -0.31701867135E+01  0.65656124024E+01  0.14168463954E+01  0.74273012410E+01  0.00000000000E+00 0.  1.
</event>
<event>
 8    1  0.4964753E-012  0.9118800E+02  0.7816164E-02  0.1184000E+00
        -11   -1    0    0    0    0  0.00000000000E+00  0.00000000000E+00  0.45593999997E+02  0.45594000000E+02  0.51100000000E-03 0. -1.
         11   -1    0    0    0    0 -0.00000000000E+00 -0.00000000000E+00 -0.45593999997E+02  0.45594000000E+02  0.51100000000E-03 0.  1.
         23    2    1    2    0    0  0.00000000000E+00  0.00000000000E+00  0.71054273576E-14  0.91188000000E+02  0.91188000000E+02 0.  0.
    9900012    2    3    3    0    0 -0.12830039626E+02 -0.81374167244E+01 -0.37713882321E+02  0.50528875717E+02  0.30000048228E+02 0.  0.
         12    1    3    3    0    0  0.12830039626E+02  0.81374167244E+01  0.37713882321E+02  0.40659124283E+02  0.00000000000E+00 0. -1.
         11    1    4    4    0    0 -0.11758263875E+02  0.41554541827E+01 -0.19577134631E+02  0.23211823915E+02  0.51100000000E-03 0.  1.
        -11    1    4    4    0    0  0.11147516545E+01  0.36853413263E+01 -0.14594857643E+01  0.41175855668E+01  0.51100000000E-03 0. -1.
        -12    1    4    4    0    0 -0.21865274055E+01 -0.15978212233E+02 -0.16677261926E+02  0.23199466235E+02  0.00000000000E+00 0.  1.
</event>
<event>
 8    1  0.4964753E-012  0.9118800E+02  0.7816164E-02  0.1184000E+00
        -11   -1    0    0    0    0  0.00000000000E+00  0.00000000000E+00  0.45593999997E+02  0.45594000000E+02  0.51100000000E-03 0. -1.
         11   -1    0    0    0    0 -0.00000000000E+00 -0.00000000000E+00 -0.45593999997E+02  0.45594000000E+02  0.51100000000E-03 0.  1.
         23    2    1    2    0    0  0.00000000000E+00  0.00000000000E+00  0.00000000000E+00  0.91188000000E+02  0.91188000000E+02 0.  0.
    9900012    2    3    3    0    0 -0.33094249985E+02 -0.20271175606E+02  0.12125078549E+02  0.50528837781E+02  0.29999932920E+02 0.  0.
        -12    1    3    3    0    0  0.33094249985E+02  0.20271175606E+02 -0.12125078549E+02  0.40659162219E+02  0.00000000000E+00 0.  1.
         11    1    4    4    0    0 -0.14215968063E+02 -0.76106852196E+01 -0.28791509907E+01  0.16380042374E+02  0.51100000000E-03 0. -1.
        -11    1    4    4    0    0  0.37495584155E+01  0.14324149916E+01  0.21615927665E+01  0.45588907169E+01  0.51100000000E-03 0.  1.
         12    1    4    4    0    0 -0.22627840337E+02 -0.14092905378E+02  0.12842636773E+02  0.29589904691E+02  0.00000000000E+00 0. -1.
</event>
<event>
 8    1  0.4964753E-012  0.9118800E+02  0.7816164E-02  0.1184000E+00
        -11   -1    0    0    0    0  0.00000000000E+00  0.00000000000E+00  0.45593999997E+02  0.45594000000E+02  0.51100000000E-03 0. -1.
         11   -1    0    0    0    0 -0.00000000000E+00 -0.00000000000E+00 -0.45593999997E+02  0.45594000000E+02  0.51100000000E-03 0.  1.
         23    2    1    2    0    0  0.00000000000E+00 -0.17763568394E-14  0.71054273576E-14  0.91188000000E+02  0.91188000000E+02 0.  0.
    9900012    2    3    3    0    0 -0.11567407654E+02 -0.10267365663E+02  0.37602389269E+02  0.50528887907E+02  0.30000085281E+02 0.  0.
        -12    1    3    3    0    0  0.11567407654E+02  0.10267365663E+02 -0.37602389269E+02  0.40659112093E+02  0.00000000000E+00 0.  1.
         11    1    4    4    0    0  0.27346157162E+00 -0.11342431598E+02  0.28475107170E+02  0.30652198361E+02  0.51100000000E-03 0. -1.
        -11    1    4    4    0    0  0.21565310975E+01  0.26830381645E+01  0.88803281467E+00  0.35549856129E+01  0.51100000000E-03 0.  1.
         12    1    4    4    0    0 -0.13997400323E+02 -0.16079722288E+01  0.82392492848E+01  0.16321703933E+02  0.00000000000E+00 0. -1.
</event>
<event>
 8    1  0.4964753E-012  0.9118800E+02  0.7816164E-02  0.1184000E+00
        -11   -1    0    0    0    0  0.00000000000E+00  0.00000000000E+00  0.45593999997E+02  0.45594000000E+02  0.51100000000E-03 0.  1.
         11   -1    0    0    0    0 -0.00000000000E+00 -0.00000000000E+00 -0.45593999997E+02  0.45594000000E+02  0.51100000000E-03 0. -1.
         23    2    1    2    0    0  0.71054273576E-14 -0.35527136788E-14  0.00000000000E+00  0.91188000000E+02  0.91188000000E+02 0.  0.
    9900012    2    3    3    0    0  0.29800898513E+02 -0.27183817425E+02 -0.51100394491E+01  0.50528856070E+02  0.29999988510E+02 0.  0.
         12    1    3    3    0    0 -0.29800898513E+02  0.27183817425E+02  0.51100394491E+01  0.40659143930E+02  0.00000000000E+00 0. -1.
         11    1    4    4    0    0  0.18149925745E+02 -0.85435794195E+01  0.64512231851E+01  0.21072039168E+02  0.51100000000E-03 0. -1.
        -11    1    4    4    0    0  0.76464706968E+01 -0.13844821149E+02  0.55377033335E+00  0.15825746384E+02  0.51100000000E-03 0.  1.
         12    1    4    4    0    0  0.40045020711E+01 -0.47954168561E+01 -0.12115032968E+02  0.13631070518E+02  0.00000000000E+00 0. -1.
</event>
<event>
 8    1  0.4964753E-012  0.9118800E+02  0.7816164E-02  0.1184000E+00
        -11   -1    0    0    0    0  0.00000000000E+00  0.00000000000E+00  0.45593999997E+02  0.45594000000E+02  0.51100000000E-03 0. -1.
         11   -1    0    0    0    0 -0.00000000000E+00 -0.00000000000E+00 -0.45593999997E+02  0.45594000000E+02  0.51100000000E-03 0.  1.
         23    2    1    2    0    0 -0.35527136788E-14 -0.44408920985E-15  0.00000000000E+00  0.91188000000E+02  0.91188000000E+02 0.  0.
    9900012    2    3    3    0    0  0.18562084937E+02 -0.35391534639E+01 -0.36001245654E+02  0.50528852283E+02  0.29999977000E+02 0.  0.
         12    1    3    3    0    0 -0.18562084937E+02  0.35391534639E+01  0.36001245654E+02  0.40659147717E+02  0.00000000000E+00 0. -1.
         11    1    4    4    0    0 -0.83879548277E+00  0.40416214730E+01  0.20698146289E+01  0.46176200419E+01  0.51100000000E-03 0. -1.
        -11    1    4    4    0    0  0.89587938160E+01  0.29101249246E+01 -0.78571031332E+01  0.12266331302E+02  0.51100000000E-03 0.  1.
        -12    1    4    4    0    0  0.10442086604E+02 -0.10490899861E+02 -0.30213957149E+02  0.33644900939E+02  0.00000000000E+00 0.  1.
</event>
<event>
 8    1  0.4964753E-012  0.9118800E+02  0.7816164E-02  0.1184000E+00
        -11   -1    0    0    0    0  0.00000000000E+00  0.00000000000E+00  0.45593999997E+02  0.45594000000E+02  0.51100000000E-03 0. -1.
         11   -1    0    0    0    0 -0.00000000000E+00 -0.00000000000E+00 -0.45593999997E+02  0.45594000000E+02  0.51100000000E-03 0.  1.
         23    2    1    2    0    0  0.17763568394E-14 -0.71054273576E-14  0.35527136788E-14  0.91188000000E+02  0.91188000000E+02 0.  0.
    9900012    2    3    3    0    0  0.94495838523E+01 -0.35704135045E+02  0.17002508191E+02  0.50528865982E+02  0.30000018640E+02 0.  0.
        -12    1    3    3    0    0 -0.94495838523E+01  0.35704135045E+02 -0.17002508191E+02  0.40659134018E+02  0.00000000000E+00 0.  1.
         11    1    4    4    0    0  0.29160081955E+00 -0.15735750156E+02  0.18734226138E+02  0.24467735760E+02  0.51100000000E-03 0. -1.
        -11    1    4    4    0    0  0.15365010424E+01 -0.26525046583E+01  0.50967710274E+01  0.59475786319E+01  0.51100000000E-03 0.  1.
         12    1    4    4    0    0  0.76214819903E+01 -0.17315880231E+02 -0.68284889741E+01  0.20113551590E+02  0.00000000000E+00 0. -1.
</event>
<event>
 8    1  0.4964753E-012  0.9118800E+02  0.7816164E-02  0.1184000E+00
        -11   -1    0    0    0    0  0.00000000000E+00  0.00000000000E+00  0.45593999997E+02  0.45594000000E+02  0.51100000000E-03 0. -1.
         11   -1    0    0    0    0 -0.00000000000E+00 -0.00000000000E+00 -0.45593999997E+02  0.45594000000E+02  0.51100000000E-03 0.  1.
         23    2    1    2    0    0 -0.17763568394E-14  0.00000000000E+00  0.00000000000E+00  0.91188000000E+02  0.91188000000E+02 0.  0.
    9900012    2    3    3    0    0 -0.11284652531E+02  0.25185343095E+02 -0.29858337558E+02  0.50528865586E+02  0.30000017435E+02 0.  0.
         12    1    3    3    0    0  0.11284652531E+02 -0.25185343095E+02  0.29858337558E+02  0.40659134414E+02  0.00000000000E+00 0. -1.
         11    1    4    4    0    0 -0.31725251309E+01  0.18448574533E+02 -0.70951521267E+01  0.20018891128E+02  0.51100000000E-03 0. -1.
        -11    1    4    4    0    0  0.13622891351E+01  0.88304946389E+01 -0.17051619266E+02  0.19250745105E+02  0.51100000000E-03 0.  1.
        -12    1    4    4    0    0 -0.94744165351E+01 -0.20937260766E+01 -0.57115661654E+01  0.11259229353E+02  0.00000000000E+00 0.  1.
</event>
<event>
 8    1  0.5128427E-012  0.9118800E+02  0.7816164E-02  0.1184000E+00
        -11   -1    0    0    0    0  0.00000000000E+00  0.00000000000E+00  0.45593999997E+02  0.45594000000E+02  0.51100000000E-03 0. -1.
         11   -1    0    0    0    0 -0.00000000000E+00 -0.00000000000E+00 -0.45593999997E+02  0.45594000000E+02  0.51100000000E-03 0.  1.
         23    2    1    2    0    0  0.00000000000E+00  0.44408920985E-15  0.00000000000E+00  0.91188000000E+02  0.91188000000E+02 0.  0.
    9900012    2    3    3    0    0 -0.16787318506E+02 -0.19670963358E+01 -0.36979505653E+02  0.50528839052E+02  0.29999936784E+02 0.  0.
         12    1    3    3    0    0  0.16787318506E+02  0.19670963358E+01  0.36979505653E+02  0.40659160948E+02  0.00000000000E+00 0. -1.
         11    1    4    4    0    0 -0.88894670538E+00  0.62906977823E+01 -0.15084138337E+02  0.16367477951E+02  0.51100000000E-03 0. -1.
        -11    1    4    4    0    0 -0.12721285514E+02 -0.52068960518E+00 -0.22417854205E+02  0.25781047500E+02  0.51100000000E-03 0.  1.
         12    1    4    4    0    0 -0.31770862863E+01 -0.77371045129E+01  0.52248688854E+00  0.83803136017E+01  0.00000000000E+00 0. -1.
</event>
<event>
 8    1  0.4964753E-012  0.9118800E+02  0.7816164E-02  0.1184000E+00
        -11   -1    0    0    0    0  0.00000000000E+00  0.00000000000E+00  0.45593999997E+02  0.45594000000E+02  0.51100000000E-03 0. -1.
         11   -1    0    0    0    0 -0.00000000000E+00 -0.00000000000E+00 -0.45593999997E+02  0.45594000000E+02  0.51100000000E-03 0.  1.
         23    2    1    2    0    0  0.00000000000E+00  0.00000000000E+00  0.00000000000E+00  0.91188000000E+02  0.91188000000E+02 0.  0.
    9900012    2    3    3    0    0 -0.51804630379E+01 -0.24752714151E+02  0.31837586901E+02  0.50528855950E+02  0.29999988147E+02 0.  0.
        -12    1    3    3    0    0  0.51804630379E+01  0.24752714151E+02 -0.31837586901E+02  0.40659144050E+02  0.00000000000E+00 0.  1.
         11    1    4    4    0    0  0.48374473211E+00 -0.26651269771E+01  0.13639473070E+02  0.13905831030E+02  0.51100000000E-03 0. -1.
        -11    1    4    4    0    0 -0.40473379520E+01  0.67290036744E+00 -0.33058526822E+01  0.52690038546E+01  0.51100000000E-03 0.  1.
         12    1    4    4    0    0 -0.16168698180E+01 -0.22760487541E+02  0.21503966514E+02  0.31354021065E+02  0.00000000000E+00 0. -1.
</event>
<event>
 8    1  0.4964753E-012  0.9118800E+02  0.7816164E-02  0.1184000E+00
        -11   -1    0    0    0    0  0.00000000000E+00  0.00000000000E+00  0.45593999997E+02  0.45594000000E+02  0.51100000000E-03 0. -1.
         11   -1    0    0    0    0 -0.00000000000E+00 -0.00000000000E+00 -0.45593999997E+02  0.45594000000E+02  0.51100000000E-03 0.  1.
         23    2    1    2    0    0  0.17763568394E-14 -0.71054273576E-14  0.35527136788E-14  0.91188000000E+02  0.91188000000E+02 0.  0.
    9900012    2    3    3    0    0  0.89988583329E+01 -0.28305692138E+02  0.27766427677E+02  0.50528853862E+02  0.29999981799E+02 0.  0.
        -12    1    3    3    0    0 -0.89988583329E+01  0.28305692138E+02 -0.27766427677E+02  0.40659146138E+02  0.00000000000E+00 0.  1.
         11    1    4    4    0    0 -0.17661513316E+01  0.64301107953E+00  0.31716681386E+01  0.36867645459E+01  0.51100000000E-03 0.  1.
        -11    1    4    4    0    0 -0.52389754634E+01 -0.21543559464E+02  0.12416785921E+02  0.25411579864E+02  0.51100000000E-03 0. -1.
         12    1    4    4    0    0  0.16003985128E+02 -0.74051437538E+01  0.12177973617E+02  0.21430509453E+02  0.00000000000E+00 0. -1.
</event>
<event>
 8    1  0.4964753E-012  0.9118800E+02  0.7816164E-02  0.1184000E+00
        -11   -1    0    0    0    0  0.00000000000E+00  0.00000000000E+00  0.45593999997E+02  0.45594000000E+02  0.51100000000E-03 0. -1.
         11   -1    0    0    0    0 -0.00000000000E+00 -0.00000000000E+00 -0.45593999997E+02  0.45594000000E+02  0.51100000000E-03 0.  1.
         23    2    1    2    0    0  0.00000000000E+00  0.00000000000E+00  0.00000000000E+00  0.91188000000E+02  0.91188000000E+02 0.  0.
    9900012    2    3    3    0    0 -0.10969618389E+02 -0.14583944917E+02 -0.36333755156E+02  0.50528859077E+02  0.29999997649E+02 0.  0.
         12    1    3    3    0    0  0.10969618389E+02  0.14583944917E+02  0.36333755156E+02  0.40659140923E+02  0.00000000000E+00 0. -1.
         11    1    4    4    0    0 -0.41810995715E+01  0.47524049965E+00  0.25563127911E+01  0.49236350907E+01  0.51100000000E-03 0. -1.
        -11    1    4    4    0    0  0.41393742506E+01 -0.48517592824E+01 -0.37082308595E+01  0.73773276794E+01  0.51100000000E-03 0.  1.
        -12    1    4    4    0    0 -0.10927893068E+02 -0.10207426134E+02 -0.35181837087E+02  0.38227896306E+02  0.00000000000E+00 0.  1.
</event>
<event>
 8    1  0.4964753E-012  0.9118800E+02  0.7816164E-02  0.1184000E+00
        -11   -1    0    0    0    0  0.00000000000E+00  0.00000000000E+00  0.45593999997E+02  0.45594000000E+02  0.51100000000E-03 0.  1.
         11   -1    0    0    0    0 -0.00000000000E+00 -0.00000000000E+00 -0.45593999997E+02  0.45594000000E+02  0.51100000000E-03 0. -1.
         23    2    1    2    0    0 -0.71054273576E-14  0.35527136788E-14  0.00000000000E+00  0.91188000000E+02  0.91188000000E+02 0.  0.
    9900012    2    3    3    0    0 -0.36346121743E+02  0.16146099415E+02  0.84515643384E+01  0.50528855496E+02  0.29999986765E+02 0.  0.
         12    1    3    3    0    0  0.36346121743E+02 -0.16146099415E+02 -0.84515643384E+01  0.40659144504E+02  0.00000000000E+00 0. -1.
         11    1    4    4    0    0  0.22122711560E+01  0.19478270307E+01 -0.18712570130E+00  0.29535047144E+01  0.51100000000E-03 0. -1.
        -11    1    4    4    0    0 -0.20239756910E+02  0.39673801063E+01  0.15166928090E+02  0.25601241623E+02  0.51100000000E-03 0.  1.
         12    1    4    4    0    0 -0.18318635988E+02  0.10230892278E+02 -0.65282380499E+01  0.21974109159E+02  0.00000000000E+00 0. -1.
</event>
<event>
 8    1  0.8078419E-012  0.9118800E+02  0.7816164E-02  0.1184000E+00
        -11   -1    0    0    0    0  0.00000000000E+00  0.00000000000E+00  0.45593999997E+02  0.45594000000E+02  0.51100000000E-03 0. -1.
         11   -1    0    0    0    0 -0.00000000000E+00 -0.00000000000E+00 -0.45593999997E+02  0.45594000000E+02  0.51100000000E-03 0.  1.
         23    2    1    2    0    0  0.00000000000E+00  0.00000000000E+00  0.00000000000E+00  0.91188000000E+02  0.91188000000E+02 0.  0.
    9900012    2    3    3    0    0  0.26457526658E+02 -0.10768971299E+02 -0.28934305923E+02  0.50528861803E+02  0.30000005937E+02 0.  0.
         12    1    3    3    0    0 -0.26457526658E+02  0.10768971299E+02  0.28934305923E+02  0.40659138197E+02  0.00000000000E+00 0. -1.
         11    1    4    4    0    0  0.91875907040E+01  0.57473264566E+01 -0.85190604838E+01  0.13784700799E+02  0.51100000000E-03 0. -1.
        -11    1    4    4    0    0  0.16012864833E+02 -0.41645661089E+01 -0.17311238238E+02  0.23946490779E+02  0.51100000000E-03 0.  1.
         12    1    4    4    0    0  0.12570711207E+01 -0.12351731647E+02 -0.31040072006E+01  0.12797670225E+02  0.00000000000E+00 0. -1.
</event>
<event>
 8    1  0.4964753E-012  0.9118800E+02  0.7816164E-02  0.1184000E+00
        -11   -1    0    0    0    0  0.00000000000E+00  0.00000000000E+00  0.45593999997E+02  0.45594000000E+02  0.51100000000E-03 0. -1.
         11   -1    0    0    0    0 -0.00000000000E+00 -0.00000000000E+00 -0.45593999997E+02  0.45594000000E+02  0.51100000000E-03 0.  1.
         23    2    1    2    0    0 -0.35527136788E-14  0.00000000000E+00  0.35527136788E-14  0.91188000000E+02  0.91188000000E+02 0.  0.
    9900012    2    3    3    0    0  0.31970738986E+02 -0.12343021601E+02 -0.21878917449E+02  0.50528863729E+02  0.30000011792E+02 0.  0.
         12    1    3    3    0    0 -0.31970738986E+02  0.12343021601E+02  0.21878917449E+02  0.40659136271E+02  0.00000000000E+00 0. -1.
         11    1    4    4    0    0  0.13558877366E+02 -0.19484932742E+01 -0.29156999795E+01  0.14005037954E+02  0.51100000000E-03 0. -1.
        -11    1    4    4    0    0  0.10425777409E+01  0.60901116865E+01 -0.82061467791E+01  0.10272160139E+02  0.51100000000E-03 0.  1.
         12    1    4    4    0    0  0.17369283879E+02 -0.16484640014E+02 -0.10757070690E+02  0.26251665636E+02  0.00000000000E+00 0. -1.
</event>
<event>
 8    1  0.4964753E-012  0.9118800E+02  0.7816164E-02  0.1184000E+00
        -11   -1    0    0    0    0  0.00000000000E+00  0.00000000000E+00  0.45593999997E+02  0.45594000000E+02  0.51100000000E-03 0. -1.
         11   -1    0    0    0    0 -0.00000000000E+00 -0.00000000000E+00 -0.45593999997E+02  0.45594000000E+02  0.51100000000E-03 0.  1.
         23    2    1    2    0    0  0.17763568394E-14 -0.44408920985E-15 -0.71054273576E-14  0.91188000000E+02  0.91188000000E+02 0.  0.
    9900012    2    3    3    0    0  0.12802873546E+02 -0.23339208749E+01 -0.38520189656E+02  0.50528858730E+02  0.29999996595E+02 0.  0.
         12    1    3    3    0    0 -0.12802873546E+02  0.23339208749E+01  0.38520189656E+02  0.40659141270E+02  0.00000000000E+00 0. -1.
         11    1    4    4    0    0  0.32873285569E+01  0.30619143377E+01 -0.28692084692E+02  0.29041652375E+02  0.51100000000E-03 0. -1.
        -11    1    4    4    0    0  0.96978523333E+01 -0.72387588015E+01 -0.13033439586E+02  0.17785345557E+02  0.51100000000E-03 0.  1.
         12    1    4    4    0    0 -0.18230734419E+00  0.18429235890E+01  0.32053346223E+01  0.37018607974E+01  0.00000000000E+00 0. -1.
</event>
<event>
 8    1  0.4964753E-012  0.9118800E+02  0.7816164E-02  0.1184000E+00
        -11   -1    0    0    0    0  0.00000000000E+00  0.00000000000E+00  0.45593999997E+02  0.45594000000E+02  0.51100000000E-03 0.  1.
         11   -1    0    0    0    0 -0.00000000000E+00 -0.00000000000E+00 -0.45593999997E+02  0.45594000000E+02  0.51100000000E-03 0. -1.
         23    2    1    2    0    0  0.00000000000E+00  0.00000000000E+00 -0.17763568394E-14  0.91188000000E+02  0.91188000000E+02 0.  0.
    9900012    2    3    3    0    0 -0.11563995125E+02  0.36495803161E+02  0.13692928245E+02  0.50528856926E+02  0.29999991111E+02 0.  0.
        -12    1    3    3    0    0  0.11563995125E+02 -0.36495803161E+02 -0.13692928245E+02  0.40659143074E+02  0.00000000000E+00 0.  1.
         11    1    4    4    0    0  0.12791943790E-01 -0.20630890560E+01 -0.27332337852E+01  0.34244805844E+01  0.51100000000E-03 0. -1.
        -11    1    4    4    0    0  0.42370977283E+01  0.56755030600E+01  0.56437819909E+01  0.90563020911E+01  0.51100000000E-03 0.  1.
         12    1    4    4    0    0 -0.15813884797E+02  0.32883389157E+02  0.10782380039E+02  0.38048074250E+02  0.00000000000E+00 0. -1.
</event>
<event>
 8    1  0.4964753E-012  0.9118800E+02  0.7816164E-02  0.1184000E+00
        -11   -1    0    0    0    0  0.00000000000E+00  0.00000000000E+00  0.45593999997E+02  0.45594000000E+02  0.51100000000E-03 0. -1.
         11   -1    0    0    0    0 -0.00000000000E+00 -0.00000000000E+00 -0.45593999997E+02  0.45594000000E+02  0.51100000000E-03 0.  1.
         23    2    1    2    0    0 -0.44408920985E-15  0.35527136788E-14  0.00000000000E+00  0.91188000000E+02  0.91188000000E+02 0.  0.
    9900012    2    3    3    0    0  0.33976820681E+01 -0.18936606011E+02 -0.35819354604E+02  0.50528862591E+02  0.30000008330E+02 0.  0.
         12    1    3    3    0    0 -0.33976820681E+01  0.18936606011E+02  0.35819354604E+02  0.40659137409E+02  0.00000000000E+00 0. -1.
         11    1    4    4    0    0  0.86910915011E+01 -0.51957963821E+01 -0.64459363686E+01  0.12003393997E+02  0.51100000000E-03 0. -1.
        -11    1    4    4    0    0 -0.25322718707E+00 -0.16412127869E+02 -0.12262620950E+02  0.20488873517E+02  0.51100000000E-03 0.  1.
         12    1    4    4    0    0 -0.50401822459E+01  0.26713182396E+01 -0.17110797285E+02  0.18036595076E+02  0.00000000000E+00 0. -1.
</event>
<event>
 8    1  0.4964753E-012  0.9118800E+02  0.7816164E-02  0.1184000E+00
        -11   -1    0    0    0    0  0.00000000000E+00  0.00000000000E+00  0.45593999997E+02  0.45594000000E+02  0.51100000000E-03 0. -1.
         11   -1    0    0    0    0 -0.00000000000E+00 -0.00000000000E+00 -0.45593999997E+02  0.45594000000E+02  0.51100000000E-03 0.  1.
         23    2    1    2    0    0  0.00000000000E+00 -0.35527136788E-14  0.17763568394E-14  0.91188000000E+02  0.91188000000E+02 0.  0.
    9900012    2    3    3    0    0 -0.23957195816E+02 -0.28783339136E+02  0.15834710572E+02  0.50528857091E+02  0.29999991614E+02 0.  0.
        -12    1    3    3    0    0  0.23957195816E+02  0.28783339136E+02 -0.15834710572E+02  0.40659142909E+02  0.00000000000E+00 0.  1.
         11    1    4    4    0    0 -0.14169363742E+02 -0.22447592997E+02  0.41119949582E+01  0.26862125810E+02  0.51100000000E-03 0. -1.
        -11    1    4    4    0    0 -0.59488738084E+01  0.11428057721E+01 -0.29643554281E+01  0.67440720626E+01  0.51100000000E-03 0.  1.
        -12    1    4    4    0    0 -0.38389582655E+01 -0.74785519115E+01  0.14687071042E+02  0.16922659219E+02  0.00000000000E+00 0.  1.
</event>
<event>
 8    1  0.4964753E-012  0.9118800E+02  0.7816164E-02  0.1184000E+00
        -11   -1    0    0    0    0  0.00000000000E+00  0.00000000000E+00  0.45593999997E+02  0.45594000000E+02  0.51100000000E-03 0. -1.
         11   -1    0    0    0    0 -0.00000000000E+00 -0.00000000000E+00 -0.45593999997E+02  0.45594000000E+02  0.51100000000E-03 0.  1.
         23    2    1    2    0    0  0.00000000000E+00  0.00000000000E+00  0.35527136788E-14  0.91188000000E+02  0.91188000000E+02 0.  0.
    9900012    2    3    3    0    0  0.25643262427E+02 -0.19267901386E+02  0.24986732090E+02  0.50528859426E+02  0.29999998711E+02 0.  0.
        -12    1    3    3    0    0 -0.25643262427E+02  0.19267901386E+02 -0.24986732090E+02  0.40659140574E+02  0.00000000000E+00 0.  1.
         11    1    4    4    0    0 -0.22762608737E+01  0.44809786941E+00  0.56690617926E+01  0.61253911822E+01  0.51100000000E-03 0. -1.
        -11    1    4    4    0    0  0.75035719844E+00  0.38386766208E+01  0.29302934494E+01  0.48872378789E+01  0.51100000000E-03 0.  1.
         12    1    4    4    0    0  0.27169166102E+02 -0.23554675876E+02  0.16387376848E+02  0.39516230365E+02  0.00000000000E+00 0. -1.
</event>
<event>
 8    1  0.4964753E-012  0.9118800E+02  0.7816164E-02  0.1184000E+00
        -11   -1    0    0    0    0  0.00000000000E+00  0.00000000000E+00  0.45593999997E+02  0.45594000000E+02  0.51100000000E-03 0. -1.
         11   -1    0    0    0    0 -0.00000000000E+00 -0.00000000000E+00 -0.45593999997E+02  0.45594000000E+02  0.51100000000E-03 0.  1.
         23    2    1    2    0    0 -0.17763568394E-14  0.00000000000E+00  0.71054273576E-14  0.91188000000E+02  0.91188000000E+02 0.  0.
    9900012    2    3    3    0    0  0.12727652060E+02 -0.21430915280E+02 -0.32123015489E+02  0.50528863502E+02  0.30000011100E+02 0.  0.
         12    1    3    3    0    0 -0.12727652060E+02  0.21430915280E+02  0.32123015489E+02  0.40659136498E+02  0.00000000000E+00 0. -1.
         11    1    4    4    0    0 -0.44184599575E+01 -0.29334756461E+01  0.85598155570E+00  0.53722223006E+01  0.51100000000E-03 0. -1.
        -11    1    4    4    0    0  0.80357021869E+01 -0.14235746332E+02 -0.79406731127E+01  0.18173697285E+02  0.51100000000E-03 0.  1.
         12    1    4    4    0    0  0.91104098311E+01 -0.42616933022E+01 -0.25038323932E+02  0.26982943916E+02  0.00000000000E+00 0. -1.
</event>
<event>
 8    1  0.4964753E-012  0.9118800E+02  0.7816164E-02  0.1184000E+00
        -11   -1    0    0    0    0  0.00000000000E+00  0.00000000000E+00  0.45593999997E+02  0.45594000000E+02  0.51100000000E-03 0. -1.
         11   -1    0    0    0    0 -0.00000000000E+00 -0.00000000000E+00 -0.45593999997E+02  0.45594000000E+02  0.51100000000E-03 0.  1.
         23    2    1    2    0    0  0.26645352591E-14  0.00000000000E+00 -0.71054273576E-14  0.91188000000E+02  0.91188000000E+02 0.  0.
    9900012    2    3    3    0    0 -0.42378465117E+01 -0.53450030490E+01 -0.40082886896E+02  0.50528853150E+02  0.29999979636E+02 0.  0.
         12    1    3    3    0    0  0.42378465117E+01  0.53450030490E+01  0.40082886896E+02  0.40659146850E+02  0.00000000000E+00 0. -1.
         11    1    4    4    0    0  0.74091248541E+00 -0.34017208992E+01  0.86124722827E+00  0.35864193057E+01  0.51100000000E-03 0. -1.
        -11    1    4    4    0    0 -0.10603236993E+02  0.27131756272E+01 -0.89872137572E+01  0.14161919647E+02  0.51100000000E-03 0.  1.
        -12    1    4    4    0    0  0.56244779955E+01 -0.46564577770E+01 -0.31956920367E+02  0.32780514198E+02  0.00000000000E+00 0.  1.
</event>
<event>
 8    1  0.4964753E-012  0.9118800E+02  0.7816164E-02  0.1184000E+00
        -11   -1    0    0    0    0  0.00000000000E+00  0.00000000000E+00  0.45593999997E+02  0.45594000000E+02  0.51100000000E-03 0. -1.
         11   -1    0    0    0    0 -0.00000000000E+00 -0.00000000000E+00 -0.45593999997E+02  0.45594000000E+02  0.51100000000E-03 0.  1.
         23    2    1    2    0    0  0.00000000000E+00 -0.88817841970E-15  0.00000000000E+00  0.91188000000E+02  0.91188000000E+02 0.  0.
    9900012    2    3    3    0    0 -0.19175718338E+02  0.47610488581E+01  0.35535790963E+02  0.50528828840E+02  0.29999905742E+02 0.  0.
        -12    1    3    3    0    0  0.19175718338E+02 -0.47610488581E+01 -0.35535790963E+02  0.40659171160E+02  0.00000000000E+00 0.  1.
         11    1    4    4    0    0 -0.78145384505E+00  0.18156873115E+01  0.26886603399E+02  0.26959169741E+02  0.51100000000E-03 0. -1.
        -11    1    4    4    0    0 -0.76301874615E+01  0.98788802511E+00  0.99216767709E+01  0.12555291859E+02  0.51100000000E-03 0.  1.
        -12    1    4    4    0    0 -0.10764077031E+02  0.19574735215E+01 -0.12724892066E+01  0.11014367240E+02  0.00000000000E+00 0.  1.
</event>
<event>
 8    1  0.4964753E-012  0.9118800E+02  0.7816164E-02  0.1184000E+00
        -11   -1    0    0    0    0  0.00000000000E+00  0.00000000000E+00  0.45593999997E+02  0.45594000000E+02  0.51100000000E-03 0. -1.
         11   -1    0    0    0    0 -0.00000000000E+00 -0.00000000000E+00 -0.45593999997E+02  0.45594000000E+02  0.51100000000E-03 0.  1.
         23    2    1    2    0    0  0.00000000000E+00  0.17763568394E-14  0.00000000000E+00  0.91188000000E+02  0.91188000000E+02 0.  0.
    9900012    2    3    3    0    0  0.98152026069E+01  0.12541650501E+02 -0.37410352479E+02  0.50528859919E+02  0.30000000211E+02 0.  0.
         12    1    3    3    0    0 -0.98152026069E+01 -0.12541650501E+02  0.37410352479E+02  0.40659140081E+02  0.00000000000E+00 0. -1.
         11    1    4    4    0    0 -0.36464272393E+01 -0.24684760713E+01 -0.26422092653E+01  0.51352775766E+01  0.51100000000E-03 0. -1.
        -11    1    4    4    0    0  0.26313413932E+01  0.15994819568E+02 -0.12021669914E+02  0.20181148588E+02  0.51100000000E-03 0.  1.
        -12    1    4    4    0    0  0.10830288453E+02 -0.98469299579E+00 -0.22746473300E+02  0.25212433755E+02  0.00000000000E+00 0.  1.
</event>
<event>
 8    1  0.4964753E-012  0.9118800E+02  0.7816164E-02  0.1184000E+00
        -11   -1    0    0    0    0  0.00000000000E+00  0.00000000000E+00  0.45593999997E+02  0.45594000000E+02  0.51100000000E-03 0. -1.
         11   -1    0    0    0    0 -0.00000000000E+00 -0.00000000000E+00 -0.45593999997E+02  0.45594000000E+02  0.51100000000E-03 0.  1.
         23    2    1    2    0    0  0.00000000000E+00  0.16653345369E-15  0.35527136788E-14  0.91188000000E+02  0.91188000000E+02 0.  0.
    9900012    2    3    3    0    0  0.27425319718E+02 -0.35702247318E+00 -0.30014856924E+02  0.50528840357E+02  0.29999940749E+02 0.  0.
         12    1    3    3    0    0 -0.27425319718E+02  0.35702247318E+00  0.30014856924E+02  0.40659159643E+02  0.00000000000E+00 0. -1.
         11    1    4    4    0    0  0.75536949214E+01 -0.23575316972E+01 -0.23050293878E+02  0.24370726513E+02  0.51100000000E-03 0. -1.
        -11    1    4    4    0    0  0.44221871313E+01  0.75524375583E+01 -0.16787765875E+01  0.89114164524E+01  0.51100000000E-03 0.  1.
        -12    1    4    4    0    0  0.15449437666E+02 -0.55519283342E+01 -0.52857864588E+01  0.17246697391E+02  0.00000000000E+00 0.  1.
</event>
<event>
 8    1  0.4964753E-012  0.9118800E+02  0.7816164E-02  0.1184000E+00
        -11   -1    0    0    0    0  0.00000000000E+00  0.00000000000E+00  0.45593999997E+02  0.45594000000E+02  0.51100000000E-03 0.  1.
         11   -1    0    0    0    0 -0.00000000000E+00 -0.00000000000E+00 -0.45593999997E+02  0.45594000000E+02  0.51100000000E-03 0. -1.
         23    2    1    2    0    0  0.00000000000E+00  0.00000000000E+00  0.17763568394E-14  0.91188000000E+02  0.91188000000E+02 0.  0.
    9900012    2    3    3    0    0 -0.21684814103E+02 -0.34298598612E+02  0.25581377252E+01  0.50528817789E+02  0.29999872152E+02 0.  0.
         12    1    3    3    0    0  0.21684814103E+02  0.34298598612E+02 -0.25581377252E+01  0.40659182211E+02  0.00000000000E+00 0. -1.
         11    1    4    4    0    0  0.31293994196E+01 -0.10511297936E+02  0.96107675606E+01  0.14582433898E+02  0.51100000000E-03 0. -1.
        -11    1    4    4    0    0 -0.53534809046E+01 -0.13047493119E+01 -0.95376157844E+00  0.55921185585E+01  0.51100000000E-03 0.  1.
        -12    1    4    4    0    0 -0.19460732618E+02 -0.22482551364E+02 -0.60988682569E+01  0.30354265333E+02  0.00000000000E+00 0.  1.
</event>
<event>
 8    1  0.4964753E-012  0.9118800E+02  0.7816164E-02  0.1184000E+00
        -11   -1    0    0    0    0  0.00000000000E+00  0.00000000000E+00  0.45593999997E+02  0.45594000000E+02  0.51100000000E-03 0. -1.
         11   -1    0    0    0    0 -0.00000000000E+00 -0.00000000000E+00 -0.45593999997E+02  0.45594000000E+02  0.51100000000E-03 0.  1.
         23    2    1    2    0    0  0.00000000000E+00 -0.17763568394E-14  0.00000000000E+00  0.91188000000E+02  0.91188000000E+02 0.  0.
    9900012    2    3    3    0    0 -0.31439178835E+02  0.12798805548E+02 -0.22381548580E+02  0.50528866880E+02  0.30000021368E+02 0.  0.
         12    1    3    3    0    0  0.31439178835E+02 -0.12798805548E+02  0.22381548580E+02  0.40659133120E+02  0.00000000000E+00 0. -1.
         11    1    4    4    0    0 -0.13395117737E+01  0.37697680465E+01  0.23539199526E+01  0.46418080875E+01  0.51100000000E-03 0. -1.
        -11    1    4    4    0    0 -0.12749346769E+02 -0.69191573995E+01 -0.56717458420E+01  0.15575277953E+02  0.51100000000E-03 0.  1.
        -12    1    4    4    0    0 -0.17350320292E+02  0.15948194901E+02 -0.19063722691E+02  0.30311780840E+02  0.00000000000E+00 0.  1.
</event>
<event>
 8    1  0.4964753E-012  0.9118800E+02  0.7816164E-02  0.1184000E+00
        -11   -1    0    0    0    0  0.00000000000E+00  0.00000000000E+00  0.45593999997E+02  0.45594000000E+02  0.51100000000E-03 0.  1.
         11   -1    0    0    0    0 -0.00000000000E+00 -0.00000000000E+00 -0.45593999997E+02  0.45594000000E+02  0.51100000000E-03 0. -1.
         23    2    1    2    0    0  0.00000000000E+00  0.00000000000E+00  0.00000000000E+00  0.91188000000E+02  0.91188000000E+02 0.  0.
    9900012    2    3    3    0    0 -0.10229416640E+02 -0.31184385359E+02 -0.24001314227E+02  0.50528807440E+02  0.29999840693E+02 0.  0.
         12    1    3    3    0    0  0.10229416640E+02  0.31184385359E+02  0.24001314227E+02  0.40659192560E+02  0.00000000000E+00 0. -1.
         11    1    4    4    0    0  0.16331867791E+01 -0.10414178589E+02  0.28456038220E+01  0.10918785469E+02  0.51100000000E-03 0. -1.
        -11    1    4    4    0    0 -0.81044309553E+01 -0.36285356413E+01 -0.18535398254E+01  0.90710353409E+01  0.51100000000E-03 0.  1.
         12    1    4    4    0    0 -0.37581724641E+01 -0.17141671129E+02 -0.24993378224E+02  0.30538986630E+02  0.00000000000E+00 0. -1.
</event>
<event>
 8    1  0.4964753E-012  0.9118800E+02  0.7816164E-02  0.1184000E+00
        -11   -1    0    0    0    0  0.00000000000E+00  0.00000000000E+00  0.45593999997E+02  0.45594000000E+02  0.51100000000E-03 0. -1.
         11   -1    0    0    0    0 -0.00000000000E+00 -0.00000000000E+00 -0.45593999997E+02  0.45594000000E+02  0.51100000000E-03 0.  1.
         23    2    1    2    0    0  0.00000000000E+00 -0.13322676296E-14  0.00000000000E+00  0.91188000000E+02  0.91188000000E+02 0.  0.
    9900012    2    3    3    0    0  0.13510983970E+02  0.17825279740E+01  0.38307197830E+02  0.50528862043E+02  0.30000006666E+02 0.  0.
        -12    1    3    3    0    0 -0.13510983970E+02 -0.17825279740E+01 -0.38307197830E+02  0.40659137957E+02  0.00000000000E+00 0.  1.
         11    1    4    4    0    0 -0.33482598797E+01 -0.10229634486E+01  0.71668120741E+00  0.35736438902E+01  0.51100000000E-03 0. -1.
        -11    1    4    4    0    0  0.16507457922E+02 -0.72809909483E+01  0.24459185711E+02  0.30393432879E+02  0.51100000000E-03 0.  1.
         12    1    4    4    0    0  0.35178592751E+00  0.10086482371E+02  0.13131330911E+02  0.16561785274E+02  0.00000000000E+00 0. -1.
</event>
<event>
 8    1  0.4964753E-012  0.9118800E+02  0.7816164E-02  0.1184000E+00
        -11   -1    0    0    0    0  0.00000000000E+00  0.00000000000E+00  0.45593999997E+02  0.45594000000E+02  0.51100000000E-03 0.  1.
         11   -1    0    0    0    0 -0.00000000000E+00 -0.00000000000E+00 -0.45593999997E+02  0.45594000000E+02  0.51100000000E-03 0. -1.
         23    2    1    2    0    0  0.00000000000E+00  0.00000000000E+00  0.00000000000E+00  0.91188000000E+02  0.91188000000E+02 0.  0.
    9900012    2    3    3    0    0  0.34312035485E+02  0.19691405636E+02 -0.93860681800E+01  0.50528861901E+02  0.30000006235E+02 0.  0.
        -12    1    3    3    0    0 -0.34312035485E+02 -0.19691405636E+02  0.93860681800E+01  0.40659138099E+02  0.00000000000E+00 0.  1.
         11    1    4    4    0    0  0.95183622228E+01  0.19369532616E+01  0.27019155183E+01  0.10082229668E+02  0.51100000000E-03 0. -1.
        -11    1    4    4    0    0  0.23831950167E+02  0.88035630612E+01 -0.39060906698E-01  0.25406024824E+02  0.51100000000E-03 0.  1.
         12    1    4    4    0    0  0.96172309534E+00  0.89508893131E+01 -0.12048922792E+02  0.15040607409E+02  0.00000000000E+00 0. -1.
</event>
<event>
 8    1  0.4964753E-012  0.9118800E+02  0.7816164E-02  0.1184000E+00
        -11   -1    0    0    0    0  0.00000000000E+00  0.00000000000E+00  0.45593999997E+02  0.45594000000E+02  0.51100000000E-03 0.  1.
         11   -1    0    0    0    0 -0.00000000000E+00 -0.00000000000E+00 -0.45593999997E+02  0.45594000000E+02  0.51100000000E-03 0. -1.
         23    2    1    2    0    0  0.00000000000E+00  0.00000000000E+00  0.44408920985E-15  0.91188000000E+02  0.91188000000E+02 0.  0.
    9900012    2    3    3    0    0 -0.33142177144E+02  0.23427937718E+02 -0.24277183565E+01  0.50528856035E+02  0.29999988404E+02 0.  0.
         12    1    3    3    0    0  0.33142177144E+02 -0.23427937718E+02  0.24277183565E+01  0.40659143965E+02  0.00000000000E+00 0. -1.
         11    1    4    4    0    0  0.21347394844E+01 -0.20538094463E+01  0.28809471726E-01  0.29624442872E+01  0.51100000000E-03 0. -1.
        -11    1    4    4    0    0 -0.17981493124E+02  0.83374045847E+01 -0.98268820124E+01  0.22122703734E+02  0.51100000000E-03 0.  1.
        -12    1    4    4    0    0 -0.17295423505E+02  0.17144342580E+02  0.73703541841E+01  0.25443708014E+02  0.00000000000E+00 0.  1.
</event>
<event>
 8    1  0.4964753E-012  0.9118800E+02  0.7816164E-02  0.1184000E+00
        -11   -1    0    0    0    0  0.00000000000E+00  0.00000000000E+00  0.45593999997E+02  0.45594000000E+02  0.51100000000E-03 0.  1.
         11   -1    0    0    0    0 -0.00000000000E+00 -0.00000000000E+00 -0.45593999997E+02  0.45594000000E+02  0.51100000000E-03 0. -1.
         23    2    1    2    0    0  0.00000000000E+00  0.00000000000E+00  0.00000000000E+00  0.91188000000E+02  0.91188000000E+02 0.  0.
    9900012    2    3    3    0    0 -0.31604081666E+02 -0.22917904390E+02 -0.11363031538E+02  0.50528845983E+02  0.29999957851E+02 0.  0.
         12    1    3    3    0    0  0.31604081666E+02  0.22917904390E+02  0.11363031538E+02  0.40659154017E+02  0.00000000000E+00 0. -1.
         11    1    4    4    0    0 -0.97647699810E+00  0.32555992463E+01  0.41884484043E+01  0.53940276303E+01  0.51100000000E-03 0. -1.
        -11    1    4    4    0    0 -0.12821794823E+01 -0.73490863450E+01 -0.35602523476E+01  0.82661025502E+01  0.51100000000E-03 0.  1.
         12    1    4    4    0    0 -0.29345425186E+02 -0.18824417291E+02 -0.11991227595E+02  0.36868715803E+02  0.00000000000E+00 0. -1.
</event>
<event>
 8    1  0.4964753E-012  0.9118800E+02  0.7816164E-02  0.1184000E+00
        -11   -1    0    0    0    0  0.00000000000E+00  0.00000000000E+00  0.45593999997E+02  0.45594000000E+02  0.51100000000E-03 0. -1.
         11   -1    0    0    0    0 -0.00000000000E+00 -0.00000000000E+00 -0.45593999997E+02  0.45594000000E+02  0.51100000000E-03 0.  1.
         23    2    1    2    0    0  0.00000000000E+00  0.35527136788E-14  0.17763568394E-14  0.91188000000E+02  0.91188000000E+02 0.  0.
    9900012    2    3    3    0    0  0.23911138915E+02  0.30572399078E+02 -0.12114125876E+02  0.50528853485E+02  0.29999980653E+02 0.  0.
         12    1    3    3    0    0 -0.23911138915E+02 -0.30572399078E+02  0.12114125876E+02  0.40659146515E+02  0.00000000000E+00 0. -1.
         11    1    4    4    0    0  0.40412891621E+00 -0.13154156987E+00  0.36259174560E+01  0.36507397914E+01  0.51100000000E-03 0. -1.
        -11    1    4    4    0    0  0.10545035623E+02  0.26519519581E+02 -0.16967793716E+02  0.33202239667E+02  0.51100000000E-03 0.  1.
         12    1    4    4    0    0  0.12961974376E+02  0.41844210673E+01  0.12277503842E+01  0.13675874026E+02  0.00000000000E+00 0. -1.
</event>
<event>
 8    1  0.4964753E-012  0.9118800E+02  0.7816164E-02  0.1184000E+00
        -11   -1    0    0    0    0  0.00000000000E+00  0.00000000000E+00  0.45593999997E+02  0.45594000000E+02  0.51100000000E-03 0. -1.
         11   -1    0    0    0    0 -0.00000000000E+00 -0.00000000000E+00 -0.45593999997E+02  0.45594000000E+02  0.51100000000E-03 0.  1.
         23    2    1    2    0    0  0.00000000000E+00  0.00000000000E+00  0.71054273576E-14  0.91188000000E+02  0.91188000000E+02 0.  0.
    9900012    2    3    3    0    0  0.12555505802E+02 -0.34371208016E+01  0.38518974135E+02  0.50528857193E+02  0.29999991924E+02 0.  0.
        -12    1    3    3    0    0 -0.12555505802E+02  0.34371208016E+01 -0.38518974135E+02  0.40659142807E+02  0.00000000000E+00 0.  1.
         11    1    4    4    0    0 -0.11009122325E+01 -0.41837441379E+01  0.13844522446E+02  0.14504706986E+02  0.51100000000E-03 0. -1.
        -11    1    4    4    0    0 -0.57371413636E+01  0.26828158977E+01  0.34637362861E+01  0.72187091289E+01  0.51100000000E-03 0.  1.
         12    1    4    4    0    0  0.19393559398E+02 -0.19361925615E+01  0.21210715404E+02  0.28805441078E+02  0.00000000000E+00 0. -1.
</event>
<event>
 8    1  0.4964753E-012  0.9118800E+02  0.7816164E-02  0.1184000E+00
        -11   -1    0    0    0    0  0.00000000000E+00  0.00000000000E+00  0.45593999997E+02  0.45594000000E+02  0.51100000000E-03 0. -1.
         11   -1    0    0    0    0 -0.00000000000E+00 -0.00000000000E+00 -0.45593999997E+02  0.45594000000E+02  0.51100000000E-03 0.  1.
         23    2    1    2    0    0  0.00000000000E+00  0.00000000000E+00  0.00000000000E+00  0.91188000000E+02  0.91188000000E+02 0.  0.
    9900012    2    3    3    0    0 -0.24830411319E+02  0.26985969522E+02 -0.17560561031E+02  0.50528865958E+02  0.30000018567E+02 0.  0.
         12    1    3    3    0    0  0.24830411319E+02 -0.26985969522E+02  0.17560561031E+02  0.40659134042E+02  0.00000000000E+00 0. -1.
         11    1    4    4    0    0 -0.91046872093E+01  0.22738691039E+02 -0.60990001513E+01  0.25241656096E+02  0.51100000000E-03 0. -1.
        -11    1    4    4    0    0  0.14917842283E+01  0.82927939064E-01  0.23776725410E+01  0.28081353600E+01  0.51100000000E-03 0.  1.
        -12    1    4    4    0    0 -0.17217508338E+02  0.41643505435E+01 -0.13839233421E+02  0.22479074503E+02  0.00000000000E+00 0.  1.
</event>
<event>
 8    1  0.4964753E-012  0.9118800E+02  0.7816164E-02  0.1184000E+00
        -11   -1    0    0    0    0  0.00000000000E+00  0.00000000000E+00  0.45593999997E+02  0.45594000000E+02  0.51100000000E-03 0. -1.
         11   -1    0    0    0    0 -0.00000000000E+00 -0.00000000000E+00 -0.45593999997E+02  0.45594000000E+02  0.51100000000E-03 0.  1.
         23    2    1    2    0    0  0.88817841970E-15  0.00000000000E+00  0.00000000000E+00  0.91188000000E+02  0.91188000000E+02 0.  0.
    9900012    2    3    3    0    0 -0.76723855088E+01 -0.39924245097E+02  0.59572031149E+00  0.50528859224E+02  0.29999998098E+02 0.  0.
        -12    1    3    3    0    0  0.76723855088E+01  0.39924245097E+02 -0.59572031149E+00  0.40659140776E+02  0.00000000000E+00 0.  1.
         11    1    4    4    0    0 -0.10936647817E+02 -0.22934604557E+02  0.14098037566E+00  0.25409176047E+02  0.51100000000E-03 0. -1.
        -11    1    4    4    0    0  0.12448379973E+01 -0.95415743206E+01 -0.88208503072E+01  0.13053683869E+02  0.51100000000E-03 0.  1.
        -12    1    4    4    0    0  0.20194243104E+01 -0.74480662193E+01  0.92755902430E+01  0.12065999308E+02  0.00000000000E+00 0.  1.
</event>
<event>
 8    1  0.4964753E-012  0.9118800E+02  0.7816164E-02  0.1184000E+00
        -11   -1    0    0    0    0  0.00000000000E+00  0.00000000000E+00  0.45593999997E+02  0.45594000000E+02  0.51100000000E-03 0. -1.
         11   -1    0    0    0    0 -0.00000000000E+00 -0.00000000000E+00 -0.45593999997E+02  0.45594000000E+02  0.51100000000E-03 0.  1.
         23    2    1    2    0    0  0.00000000000E+00  0.00000000000E+00  0.00000000000E+00  0.91188000000E+02  0.91188000000E+02 0.  0.
    9900012    2    3    3    0    0  0.17263414174E+02  0.14852869365E+02  0.33682823550E+02  0.50528858351E+02  0.29999995443E+02 0.  0.
        -12    1    3    3    0    0 -0.17263414174E+02 -0.14852869365E+02 -0.33682823550E+02  0.40659141649E+02  0.00000000000E+00 0.  1.
         11    1    4    4    0    0 -0.59119069235E+00 -0.16067321582E+01  0.16889055445E+02  0.16975608642E+02  0.51100000000E-03 0. -1.
        -11    1    4    4    0    0 -0.82422035436E+00  0.18113475117E+01 -0.23346647251E+01  0.30677318397E+01  0.51100000000E-03 0.  1.
        -12    1    4    4    0    0  0.18678825221E+02  0.14648254012E+02  0.19128432830E+02  0.30485517869E+02  0.00000000000E+00 0.  1.
</event>
<event>
 8    1  0.4964753E-012  0.9118800E+02  0.7816164E-02  0.1184000E+00
        -11   -1    0    0    0    0  0.00000000000E+00  0.00000000000E+00  0.45593999997E+02  0.45594000000E+02  0.51100000000E-03 0. -1.
         11   -1    0    0    0    0 -0.00000000000E+00 -0.00000000000E+00 -0.45593999997E+02  0.45594000000E+02  0.51100000000E-03 0.  1.
         23    2    1    2    0    0  0.00000000000E+00  0.00000000000E+00  0.00000000000E+00  0.91188000000E+02  0.91188000000E+02 0.  0.
    9900012    2    3    3    0    0  0.16536055802E+02 -0.34029696114E+02  0.14889726102E+02  0.50528864464E+02  0.30000014026E+02 0.  0.
        -12    1    3    3    0    0 -0.16536055802E+02  0.34029696114E+02 -0.14889726102E+02  0.40659135536E+02  0.00000000000E+00 0.  1.
         11    1    4    4    0    0  0.92752277556E+00 -0.19209097308E+01 -0.55884812313E+01  0.59817485259E+01  0.51100000000E-03 0.  1.
        -11    1    4    4    0    0 -0.63471894439E+00  0.85606845976E+00  0.42365991299E+01  0.43685802951E+01  0.51100000000E-03 0. -1.
         12    1    4    4    0    0  0.16243251971E+02 -0.32964854843E+02  0.16241608204E+02  0.40178535643E+02  0.00000000000E+00 0. -1.
</event>
<event>
 8    1  0.4964753E-012  0.9118800E+02  0.7816164E-02  0.1184000E+00
        -11   -1    0    0    0    0  0.00000000000E+00  0.00000000000E+00  0.45593999997E+02  0.45594000000E+02  0.51100000000E-03 0. -1.
         11   -1    0    0    0    0 -0.00000000000E+00 -0.00000000000E+00 -0.45593999997E+02  0.45594000000E+02  0.51100000000E-03 0.  1.
         23    2    1    2    0    0 -0.13322676296E-14  0.22204460493E-14 -0.71054273576E-14  0.91188000000E+02  0.91188000000E+02 0.  0.
    9900012    2    3    3    0    0 -0.20560959866E+01  0.28035205464E+01 -0.40510225674E+02  0.50528860286E+02  0.30000001324E+02 0.  0.
         12    1    3    3    0    0  0.20560959866E+01 -0.28035205464E+01  0.40510225674E+02  0.40659139714E+02  0.00000000000E+00 0. -1.
         11    1    4    4    0    0  0.53291678774E+01  0.10525365704E+01 -0.12389014022E+02  0.13527584123E+02  0.51100000000E-03 0. -1.
        -11    1    4    4    0    0 -0.11124009525E+02  0.93532942784E+01 -0.12238040578E+02  0.18999929980E+02  0.51100000000E-03 0.  1.
         12    1    4    4    0    0  0.37387456614E+01 -0.76023103024E+01 -0.15883171074E+02  0.18001346183E+02  0.00000000000E+00 0. -1.
</event>
<event>
 8    1  0.4964753E-012  0.9118800E+02  0.7816164E-02  0.1184000E+00
        -11   -1    0    0    0    0  0.00000000000E+00  0.00000000000E+00  0.45593999997E+02  0.45594000000E+02  0.51100000000E-03 0. -1.
         11   -1    0    0    0    0 -0.00000000000E+00 -0.00000000000E+00 -0.45593999997E+02  0.45594000000E+02  0.51100000000E-03 0.  1.
         23    2    1    2    0    0  0.00000000000E+00 -0.17763568394E-14  0.00000000000E+00  0.91188000000E+02  0.91188000000E+02 0.  0.
    9900012    2    3    3    0    0 -0.11405252226E+02  0.10908215572E+02 -0.37471279920E+02  0.50528858787E+02  0.29999996770E+02 0.  0.
         12    1    3    3    0    0  0.11405252226E+02 -0.10908215572E+02  0.37471279920E+02  0.40659141213E+02  0.00000000000E+00 0. -1.
         11    1    4    4    0    0 -0.30880997125E+01 -0.25474402601E+01  0.18577705188E+00  0.40075335417E+01  0.51100000000E-03 0. -1.
        -11    1    4    4    0    0  0.64082679411E+01  0.92358511854E+01 -0.10719617431E+02  0.15533095096E+02  0.51100000000E-03 0.  1.
        -12    1    4    4    0    0 -0.14725420454E+02  0.42198046468E+01 -0.26937439541E+02  0.30988230150E+02  0.00000000000E+00 0.  1.
</event>
<event>
 8    1  0.4964753E-012  0.9118800E+02  0.7816164E-02  0.1184000E+00
        -11   -1    0    0    0    0  0.00000000000E+00  0.00000000000E+00  0.45593999997E+02  0.45594000000E+02  0.51100000000E-03 0. -1.
         11   -1    0    0    0    0 -0.00000000000E+00 -0.00000000000E+00 -0.45593999997E+02  0.45594000000E+02  0.51100000000E-03 0.  1.
         23    2    1    2    0    0 -0.35527136788E-14  0.17763568394E-14  0.00000000000E+00  0.91188000000E+02  0.91188000000E+02 0.  0.
    9900012    2    3    3    0    0  0.21725946675E+02 -0.21132022674E+01 -0.34302814571E+02  0.50528862402E+02  0.30000007757E+02 0.  0.
         12    1    3    3    0    0 -0.21725946675E+02  0.21132022674E+01  0.34302814571E+02  0.40659137598E+02  0.00000000000E+00 0. -1.
         11    1    4    4    0    0  0.57912681176E+01 -0.13894376510E+01 -0.15135516995E+02  0.16265091403E+02  0.51100000000E-03 0. -1.
        -11    1    4    4    0    0  0.14406729531E+02 -0.76463919204E+01 -0.21330662487E+02  0.26851784440E+02  0.51100000000E-03 0.  1.
         12    1    4    4    0    0  0.15279490254E+01  0.69226273039E+01  0.21633649110E+01  0.74119865591E+01  0.00000000000E+00 0. -1.
</event>
<event>
 8    1  0.4964753E-012  0.9118800E+02  0.7816164E-02  0.1184000E+00
        -11   -1    0    0    0    0  0.00000000000E+00  0.00000000000E+00  0.45593999997E+02  0.45594000000E+02  0.51100000000E-03 0.  1.
         11   -1    0    0    0    0 -0.00000000000E+00 -0.00000000000E+00 -0.45593999997E+02  0.45594000000E+02  0.51100000000E-03 0. -1.
         23    2    1    2    0    0  0.00000000000E+00  0.00000000000E+00 -0.35527136788E-14  0.91188000000E+02  0.91188000000E+02 0.  0.
    9900012    2    3    3    0    0  0.30588911965E+02 -0.16134330496E+02  0.21381556595E+02  0.50528817541E+02  0.29999871399E+02 0.  0.
        -12    1    3    3    0    0 -0.30588911965E+02  0.16134330496E+02 -0.21381556595E+02  0.40659182459E+02  0.00000000000E+00 0.  1.
         11    1    4    4    0    0  0.92066145687E+01  0.27463605090E+00  0.13739379224E+02  0.16541091817E+02  0.51100000000E-03 0.  1.
        -11    1    4    4    0    0  0.29796435607E+00 -0.66128654360E+01  0.84386173061E+01  0.10725158942E+02  0.51100000000E-03 0. -1.
         12    1    4    4    0    0  0.21084333040E+02 -0.97961011110E+01 -0.79643993504E+00  0.23262566782E+02  0.00000000000E+00 0. -1.
</event>
<event>
 8    1  0.4964753E-012  0.9118800E+02  0.7816164E-02  0.1184000E+00
        -11   -1    0    0    0    0  0.00000000000E+00  0.00000000000E+00  0.45593999997E+02  0.45594000000E+02  0.51100000000E-03 0. -1.
         11   -1    0    0    0    0 -0.00000000000E+00 -0.00000000000E+00 -0.45593999997E+02  0.45594000000E+02  0.51100000000E-03 0.  1.
         23    2    1    2    0    0  0.88817841970E-15  0.00000000000E+00 -0.71054273576E-14  0.91188000000E+02  0.91188000000E+02 0.  0.
    9900012    2    3    3    0    0  0.76722134445E+01 -0.20563343749E+02 -0.34226476935E+02  0.50528859716E+02  0.29999999592E+02 0.  0.
         12    1    3    3    0    0 -0.76722134445E+01  0.20563343749E+02  0.34226476935E+02  0.40659140284E+02  0.00000000000E+00 0. -1.
         11    1    4    4    0    0 -0.64475356080E+01 -0.88423092275E+01 -0.69808639385E+01  0.12980354752E+02  0.51100000000E-03 0. -1.
        -11    1    4    4    0    0  0.47950796526E+00  0.39173872073E+01 -0.96501706152E+00  0.40628941176E+01  0.51100000000E-03 0.  1.
        -12    1    4    4    0    0  0.13640241087E+02 -0.15638421729E+02 -0.26280595935E+02  0.33485610847E+02  0.00000000000E+00 0.  1.
</event>
<event>
 8    1  0.4964753E-012  0.9118800E+02  0.7816164E-02  0.1184000E+00
        -11   -1    0    0    0    0  0.00000000000E+00  0.00000000000E+00  0.45593999997E+02  0.45594000000E+02  0.51100000000E-03 0. -1.
         11   -1    0    0    0    0 -0.00000000000E+00 -0.00000000000E+00 -0.45593999997E+02  0.45594000000E+02  0.51100000000E-03 0.  1.
         23    2    1    2    0    0  0.00000000000E+00  0.88817841970E-15 -0.88817841970E-15  0.91188000000E+02  0.91188000000E+02 0.  0.
    9900012    2    3    3    0    0 -0.39853496315E+02 -0.76587908868E+01  0.24915264030E+01  0.50528856499E+02  0.29999989816E+02 0.  0.
        -12    1    3    3    0    0  0.39853496315E+02  0.76587908868E+01 -0.24915264030E+01  0.40659143501E+02  0.00000000000E+00 0.  1.
         11    1    4    4    0    0 -0.92713740376E+01 -0.70435143997E+01 -0.56559829845E+00  0.11657159746E+02  0.51100000000E-03 0. -1.
        -11    1    4    4    0    0 -0.51040446084E+01 -0.53803231993E+01  0.96076142287E+01  0.12136943624E+02  0.51100000000E-03 0.  1.
        -12    1    4    4    0    0 -0.25478077669E+02  0.47650467123E+01 -0.65504895272E+01  0.26734753130E+02  0.00000000000E+00 0.  1.
</event>
<event>
 8    1  0.4964753E-012  0.9118800E+02  0.7816164E-02  0.1184000E+00
        -11   -1    0    0    0    0  0.00000000000E+00  0.00000000000E+00  0.45593999997E+02  0.45594000000E+02  0.51100000000E-03 0. -1.
         11   -1    0    0    0    0 -0.00000000000E+00 -0.00000000000E+00 -0.45593999997E+02  0.45594000000E+02  0.51100000000E-03 0.  1.
         23    2    1    2    0    0 -0.13322676296E-14  0.00000000000E+00  0.00000000000E+00  0.91188000000E+02  0.91188000000E+02 0.  0.
    9900012    2    3    3    0    0  0.13213038691E+01 -0.37184701760E+02  0.16392616027E+02  0.50528858972E+02  0.29999997331E+02 0.  0.
        -12    1    3    3    0    0 -0.13213038691E+01  0.37184701760E+02 -0.16392616027E+02  0.40659141028E+02  0.00000000000E+00 0.  1.
         11    1    4    4    0    0  0.86357450840E+01 -0.10443344595E+02  0.12497823753E+02  0.18434617932E+02  0.51100000000E-03 0. -1.
        -11    1    4    4    0    0 -0.32814651959E-01 -0.15100407278E+02  0.88428637731E+01  0.17499131885E+02  0.51100000000E-03 0.  1.
        -12    1    4    4    0    0 -0.72816265629E+01 -0.11640949888E+02 -0.49480714986E+01  0.14595109155E+02  0.00000000000E+00 0.  1.
</event>
<event>
 8    1  0.4964753E-012  0.9118800E+02  0.7816164E-02  0.1184000E+00
        -11   -1    0    0    0    0  0.00000000000E+00  0.00000000000E+00  0.45593999997E+02  0.45594000000E+02  0.51100000000E-03 0. -1.
         11   -1    0    0    0    0 -0.00000000000E+00 -0.00000000000E+00 -0.45593999997E+02  0.45594000000E+02  0.51100000000E-03 0.  1.
         23    2    1    2    0    0  0.17763568394E-14 -0.35527136788E-14  0.00000000000E+00  0.91188000000E+02  0.91188000000E+02 0.  0.
    9900012    2    3    3    0    0  0.99173101118E+01 -0.10140834471E+02 -0.38104791298E+02  0.50528872077E+02  0.30000037164E+02 0.  0.
         12    1    3    3    0    0 -0.99173101118E+01  0.10140834471E+02  0.38104791298E+02  0.40659127923E+02  0.00000000000E+00 0. -1.
         11    1    4    4    0    0  0.13004732040E+01 -0.14242608714E+02 -0.91428986991E+01  0.16974561273E+02  0.51100000000E-03 0. -1.
        -11    1    4    4    0    0  0.45325315842E+01 -0.32083922204E+01 -0.21922165061E+02  0.22614573717E+02  0.51100000000E-03 0.  1.
         12    1    4    4    0    0  0.40843053235E+01  0.73101664637E+01 -0.70397275382E+01  0.10939737086E+02  0.00000000000E+00 0. -1.
</event>
<event>
 8    1  0.4964753E-012  0.9118800E+02  0.7816164E-02  0.1184000E+00
        -11   -1    0    0    0    0  0.00000000000E+00  0.00000000000E+00  0.45593999997E+02  0.45594000000E+02  0.51100000000E-03 0. -1.
         11   -1    0    0    0    0 -0.00000000000E+00 -0.00000000000E+00 -0.45593999997E+02  0.45594000000E+02  0.51100000000E-03 0.  1.
         23    2    1    2    0    0 -0.17763568394E-14  0.00000000000E+00  0.35527136788E-14  0.91188000000E+02  0.91188000000E+02 0.  0.
    9900012    2    3    3    0    0 -0.10865092375E+02  0.32412424169E+02 -0.22012502102E+02  0.50528859310E+02  0.29999998359E+02 0.  0.
         12    1    3    3    0    0  0.10865092375E+02 -0.32412424169E+02  0.22012502102E+02  0.40659140690E+02  0.00000000000E+00 0. -1.
         11    1    4    4    0    0  0.15951971370E+01  0.16545541756E+01 -0.54400336817E+01  0.59056049771E+01  0.51100000000E-03 0. -1.
        -11    1    4    4    0    0 -0.15644585488E+02  0.65385737215E+01 -0.78496628665E+01  0.18684839009E+02  0.51100000000E-03 0.  1.
        -12    1    4    4    0    0  0.31842959760E+01  0.24219296272E+02 -0.87228055540E+01  0.25938415324E+02  0.00000000000E+00 0.  1.
</event>
<event>
 8    1  0.4964753E-012  0.9118800E+02  0.7816164E-02  0.1184000E+00
        -11   -1    0    0    0    0  0.00000000000E+00  0.00000000000E+00  0.45593999997E+02  0.45594000000E+02  0.51100000000E-03 0. -1.
         11   -1    0    0    0    0 -0.00000000000E+00 -0.00000000000E+00 -0.45593999997E+02  0.45594000000E+02  0.51100000000E-03 0.  1.
         23    2    1    2    0    0  0.00000000000E+00  0.00000000000E+00  0.00000000000E+00  0.91188000000E+02  0.91188000000E+02 0.  0.
    9900012    2    3    3    0    0  0.26194815012E+02  0.25432451546E+02 -0.17893792587E+02  0.50528859105E+02  0.29999997735E+02 0.  0.
         12    1    3    3    0    0 -0.26194815012E+02 -0.25432451546E+02  0.17893792587E+02  0.40659140895E+02  0.00000000000E+00 0. -1.
         11    1    4    4    0    0  0.12600116514E+02  0.25550945782E+01 -0.12250494981E+01  0.12914805109E+02  0.51100000000E-03 0. -1.
        -11    1    4    4    0    0  0.18436420291E+02  0.20610173365E+02 -0.10831526707E+02  0.29698532125E+02  0.51100000000E-03 0.  1.
        -12    1    4    4    0    0 -0.48417217929E+01  0.22671836035E+01 -0.58372163818E+01  0.79155218716E+01  0.00000000000E+00 0.  1.
</event>
<event>
 8    1  0.4964753E-012  0.9118800E+02  0.7816164E-02  0.1184000E+00
        -11   -1    0    0    0    0  0.00000000000E+00  0.00000000000E+00  0.45593999997E+02  0.45594000000E+02  0.51100000000E-03 0. -1.
         11   -1    0    0    0    0 -0.00000000000E+00 -0.00000000000E+00 -0.45593999997E+02  0.45594000000E+02  0.51100000000E-03 0.  1.
         23    2    1    2    0    0  0.00000000000E+00 -0.17763568394E-14  0.00000000000E+00  0.91188000000E+02  0.91188000000E+02 0.  0.
    9900012    2    3    3    0    0  0.31440418107E+02  0.89862858716E+01  0.24164297832E+02  0.50528849564E+02  0.29999968734E+02 0.  0.
        -12    1    3    3    0    0 -0.31440418107E+02 -0.89862858716E+01 -0.24164297832E+02  0.40659150436E+02  0.00000000000E+00 0.  1.
         11    1    4    4    0    0  0.95008919206E-01  0.81919804777E+01  0.65017568864E+01  0.10458987222E+02  0.51100000000E-03 0.  1.
        -11    1    4    4    0    0  0.30413366469E+02  0.56961322499E+01  0.14583713449E+02  0.34206775364E+02  0.51100000000E-03 0. -1.
         12    1    4    4    0    0  0.93204271829E+00 -0.49018268559E+01  0.30788274966E+01  0.58630869777E+01  0.00000000000E+00 0. -1.
</event>
<event>
 8    1  0.4964753E-012  0.9118800E+02  0.7816164E-02  0.1184000E+00
        -11   -1    0    0    0    0  0.00000000000E+00  0.00000000000E+00  0.45593999997E+02  0.45594000000E+02  0.51100000000E-03 0.  1.
         11   -1    0    0    0    0 -0.00000000000E+00 -0.00000000000E+00 -0.45593999997E+02  0.45594000000E+02  0.51100000000E-03 0. -1.
         23    2    1    2    0    0 -0.17763568394E-14  0.71054273576E-14  0.35527136788E-14  0.91188000000E+02  0.91188000000E+02 0.  0.
    9900012    2    3    3    0    0  0.84426762523E+01 -0.35528012885E+02 -0.17878893409E+02  0.50528765977E+02  0.29999714661E+02 0.  0.
        -12    1    3    3    0    0 -0.84426762523E+01  0.35528012885E+02  0.17878893409E+02  0.40659234023E+02  0.00000000000E+00 0.  1.
         11    1    4    4    0    0  0.11670362222E+02 -0.11513362446E+02 -0.15356735626E+02  0.22462951688E+02  0.51100000000E-03 0. -1.
        -11    1    4    4    0    0 -0.35357467516E+01 -0.95080956209E+01 -0.76190580714E+01  0.12686821256E+02  0.51100000000E-03 0.  1.
        -12    1    4    4    0    0  0.30806078183E+00 -0.14506554818E+02  0.50969002886E+01  0.15378993032E+02  0.00000000000E+00 0.  1.
</event>
<event>
 8    1  0.4964753E-012  0.9118800E+02  0.7816164E-02  0.1184000E+00
        -11   -1    0    0    0    0  0.00000000000E+00  0.00000000000E+00  0.45593999997E+02  0.45594000000E+02  0.51100000000E-03 0. -1.
         11   -1    0    0    0    0 -0.00000000000E+00 -0.00000000000E+00 -0.45593999997E+02  0.45594000000E+02  0.51100000000E-03 0.  1.
         23    2    1    2    0    0 -0.17763568394E-14  0.00000000000E+00  0.00000000000E+00  0.91188000000E+02  0.91188000000E+02 0.  0.
    9900012    2    3    3    0    0 -0.14119972825E+02  0.21853140061E+02 -0.31244709946E+02  0.50528864953E+02  0.30000015512E+02 0.  0.
         12    1    3    3    0    0  0.14119972825E+02 -0.21853140061E+02  0.31244709946E+02  0.40659135047E+02  0.00000000000E+00 0. -1.
         11    1    4    4    0    0 -0.13410107125E+02 -0.61971945740E+00 -0.15477713855E+02  0.20488402860E+02  0.51100000000E-03 0. -1.
        -11    1    4    4    0    0 -0.20571794547E+01  0.76113347813E+01 -0.12477340960E+02  0.14759689771E+02  0.51100000000E-03 0.  1.
        -12    1    4    4    0    0  0.13473137544E+01  0.14861524737E+02 -0.32896551313E+01  0.15280772322E+02  0.00000000000E+00 0.  1.
</event>
<event>
 8    1  0.4964753E-012  0.9118800E+02  0.7816164E-02  0.1184000E+00
        -11   -1    0    0    0    0  0.00000000000E+00  0.00000000000E+00  0.45593999997E+02  0.45594000000E+02  0.51100000000E-03 0. -1.
         11   -1    0    0    0    0 -0.00000000000E+00 -0.00000000000E+00 -0.45593999997E+02  0.45594000000E+02  0.51100000000E-03 0.  1.
         23    2    1    2    0    0 -0.17763568394E-14  0.35527136788E-14 -0.71054273576E-14  0.91188000000E+02  0.91188000000E+02 0.  0.
    9900012    2    3    3    0    0  0.12151614040E+01  0.22801991297E+02 -0.33641621769E+02  0.50528854171E+02  0.29999982738E+02 0.  0.
         12    1    3    3    0    0 -0.12151614040E+01 -0.22801991297E+02  0.33641621769E+02  0.40659145829E+02  0.00000000000E+00 0. -1.
         11    1    4    4    0    0  0.12243233744E+02  0.97771202435E+01 -0.12416703077E+02  0.19991582437E+02  0.51100000000E-03 0. -1.
        -11    1    4    4    0    0 -0.14285718542E+01  0.82651160221E+01 -0.21497178201E+01  0.86587670813E+01  0.51100000000E-03 0.  1.
        -12    1    4    4    0    0 -0.95995004862E+01  0.47597550312E+01 -0.19075200871E+02  0.21878504652E+02  0.00000000000E+00 0.  1.
</event>
<event>
 8    1  0.4964753E-012  0.9118800E+02  0.7816164E-02  0.1184000E+00
        -11   -1    0    0    0    0  0.00000000000E+00  0.00000000000E+00  0.45593999997E+02  0.45594000000E+02  0.51100000000E-03 0. -1.
         11   -1    0    0    0    0 -0.00000000000E+00 -0.00000000000E+00 -0.45593999997E+02  0.45594000000E+02  0.51100000000E-03 0.  1.
         23    2    1    2    0    0  0.71054273576E-14  0.00000000000E+00  0.88817841970E-15  0.91188000000E+02  0.91188000000E+02 0.  0.
    9900012    2    3    3    0    0 -0.34115469554E+02  0.20979818226E+02 -0.70105626068E+01  0.50528855595E+02  0.29999987067E+02 0.  0.
         12    1    3    3    0    0  0.34115469554E+02 -0.20979818226E+02  0.70105626068E+01  0.40659144405E+02  0.00000000000E+00 0. -1.
         11    1    4    4    0    0 -0.99126890567E+01 -0.73647752322E+00 -0.76344627762E+01  0.12533508113E+02  0.51100000000E-03 0.  1.
        -11    1    4    4    0    0 -0.19950983205E+02  0.20771092071E+02 -0.66117580472E+01  0.29549878873E+02  0.51100000000E-03 0. -1.
         12    1    4    4    0    0 -0.42517972919E+01  0.94520367872E+00  0.72356582166E+01  0.84454686095E+01  0.00000000000E+00 0. -1.
</event>
<event>
 8    1  0.4964753E-012  0.9118800E+02  0.7816164E-02  0.1184000E+00
        -11   -1    0    0    0    0  0.00000000000E+00  0.00000000000E+00  0.45593999997E+02  0.45594000000E+02  0.51100000000E-03 0.  1.
         11   -1    0    0    0    0 -0.00000000000E+00 -0.00000000000E+00 -0.45593999997E+02  0.45594000000E+02  0.51100000000E-03 0. -1.
         23    2    1    2    0    0  0.35527136788E-14 -0.71054273576E-14 -0.35527136788E-14  0.91188000000E+02  0.91188000000E+02 0.  0.
    9900012    2    3    3    0    0 -0.17321684488E+02  0.33083275381E+02  0.16081724535E+02  0.50528859239E+02  0.29999998143E+02 0.  0.
        -12    1    3    3    0    0  0.17321684488E+02 -0.33083275381E+02 -0.16081724535E+02  0.40659140761E+02  0.00000000000E+00 0.  1.
         11    1    4    4    0    0 -0.28766824999E+01  0.70312404352E+01  0.10561107593E+02  0.13009636356E+02  0.51100000000E-03 0. -1.
        -11    1    4    4    0    0  0.35323203849E+01  0.15423097288E+02  0.51226739484E+01  0.16631025401E+02  0.51100000000E-03 0.  1.
         12    1    4    4    0    0 -0.17977322373E+02  0.10628937658E+02  0.39794299330E+00  0.20888197482E+02  0.00000000000E+00 0. -1.
</event>
<event>
 8    1  0.4964753E-012  0.9118800E+02  0.7816164E-02  0.1184000E+00
        -11   -1    0    0    0    0  0.00000000000E+00  0.00000000000E+00  0.45593999997E+02  0.45594000000E+02  0.51100000000E-03 0. -1.
         11   -1    0    0    0    0 -0.00000000000E+00 -0.00000000000E+00 -0.45593999997E+02  0.45594000000E+02  0.51100000000E-03 0.  1.
         23    2    1    2    0    0  0.00000000000E+00  0.00000000000E+00  0.00000000000E+00  0.91188000000E+02  0.91188000000E+02 0.  0.
    9900012    2    3    3    0    0  0.16021971038E+02  0.27141662718E+02 -0.25686372349E+02  0.50528891113E+02  0.30000095027E+02 0.  0.
         12    1    3    3    0    0 -0.16021971038E+02 -0.27141662718E+02  0.25686372349E+02  0.40659108887E+02  0.00000000000E+00 0. -1.
         11    1    4    4    0    0  0.13483804087E+02  0.70877374931E+01 -0.81154508269E+01  0.17260056136E+02  0.51100000000E-03 0. -1.
        -11    1    4    4    0    0  0.75469508957E+01  0.10383545370E+00 -0.61877198978E+01  0.97598733300E+01  0.51100000000E-03 0.  1.
        -12    1    4    4    0    0 -0.50087839453E+01  0.19950089771E+02 -0.11383201625E+02  0.23508961647E+02  0.00000000000E+00 0.  1.
</event>
<event>
 8    1  0.4964753E-012  0.9118800E+02  0.7816164E-02  0.1184000E+00
        -11   -1    0    0    0    0  0.00000000000E+00  0.00000000000E+00  0.45593999997E+02  0.45594000000E+02  0.51100000000E-03 0. -1.
         11   -1    0    0    0    0 -0.00000000000E+00 -0.00000000000E+00 -0.45593999997E+02  0.45594000000E+02  0.51100000000E-03 0.  1.
         23    2    1    2    0    0  0.35527136788E-14  0.00000000000E+00  0.71054273576E-14  0.91188000000E+02  0.91188000000E+02 0.  0.
    9900012    2    3    3    0    0  0.19952322074E+02 -0.10020298972E+02  0.33980344916E+02  0.50528863411E+02  0.30000010823E+02 0.  0.
        -12    1    3    3    0    0 -0.19952322074E+02  0.10020298972E+02 -0.33980344916E+02  0.40659136589E+02  0.00000000000E+00 0.  1.
         11    1    4    4    0    0  0.21590460871E+01 -0.48406041636E+01  0.33949597652E+01  0.62943371965E+01  0.51100000000E-03 0. -1.
        -11    1    4    4    0    0 -0.32092330352E+01  0.13418390534E+01 -0.26562969810E+01  0.43767136794E+01  0.51100000000E-03 0.  1.
         12    1    4    4    0    0  0.21002509022E+02 -0.65215338620E+01  0.33241682131E+02  0.39857812535E+02  0.00000000000E+00 0. -1.
</event>
<event>
 8    1  0.4964753E-012  0.9118800E+02  0.7816164E-02  0.1184000E+00
        -11   -1    0    0    0    0  0.00000000000E+00  0.00000000000E+00  0.45593999997E+02  0.45594000000E+02  0.51100000000E-03 0. -1.
         11   -1    0    0    0    0 -0.00000000000E+00 -0.00000000000E+00 -0.45593999997E+02  0.45594000000E+02  0.51100000000E-03 0.  1.
         23    2    1    2    0    0 -0.17763568394E-14  0.00000000000E+00  0.00000000000E+00  0.91188000000E+02  0.91188000000E+02 0.  0.
    9900012    2    3    3    0    0  0.13354017987E+02 -0.36103165225E+02  0.13091868149E+02  0.50528863914E+02  0.30000012352E+02 0.  0.
        -12    1    3    3    0    0 -0.13354017987E+02  0.36103165225E+02 -0.13091868149E+02  0.40659136086E+02  0.00000000000E+00 0.  1.
         11    1    4    4    0    0  0.13570909116E+02 -0.31002568844E+02  0.12567144020E+01  0.33866032842E+02  0.51100000000E-03 0. -1.
        -11    1    4    4    0    0 -0.21323057005E+01 -0.25158223569E+01 -0.98765482997E+00  0.34426083216E+01  0.51100000000E-03 0.  1.
         12    1    4    4    0    0  0.19154145717E+01 -0.25847740241E+01  0.12822808577E+02  0.13220222750E+02  0.00000000000E+00 0. -1.
</event>
<event>
 8    1  0.4964753E-012  0.9118800E+02  0.7816164E-02  0.1184000E+00
        -11   -1    0    0    0    0  0.00000000000E+00  0.00000000000E+00  0.45593999997E+02  0.45594000000E+02  0.51100000000E-03 0. -1.
         11   -1    0    0    0    0 -0.00000000000E+00 -0.00000000000E+00 -0.45593999997E+02  0.45594000000E+02  0.51100000000E-03 0.  1.
         23    2    1    2    0    0 -0.35527136788E-14  0.00000000000E+00  0.17763568394E-14  0.91188000000E+02  0.91188000000E+02 0.  0.
    9900012    2    3    3    0    0 -0.23865748402E+02  0.30774929441E+02  0.11683116367E+02  0.50528862811E+02  0.30000009001E+02 0.  0.
        -12    1    3    3    0    0  0.23865748402E+02 -0.30774929441E+02 -0.11683116367E+02  0.40659137189E+02  0.00000000000E+00 0.  1.
         11    1    4    4    0    0  0.23119903830E+01  0.45773007390E+01 -0.36636892970E+00  0.51411290627E+01  0.51100000000E-03 0.  1.
        -11    1    4    4    0    0 -0.24710576155E+02  0.28246607679E+02  0.15921894724E+02  0.40767513429E+02  0.51100000000E-03 0. -1.
         12    1    4    4    0    0 -0.14671626303E+01 -0.20489789775E+01 -0.38724094269E+01  0.46202203198E+01  0.00000000000E+00 0. -1.
</event>
<event>
 8    1  0.4964753E-012  0.9118800E+02  0.7816164E-02  0.1184000E+00
        -11   -1    0    0    0    0  0.00000000000E+00  0.00000000000E+00  0.45593999997E+02  0.45594000000E+02  0.51100000000E-03 0. -1.
         11   -1    0    0    0    0 -0.00000000000E+00 -0.00000000000E+00 -0.45593999997E+02  0.45594000000E+02  0.51100000000E-03 0.  1.
         23    2    1    2    0    0 -0.35527136788E-14  0.00000000000E+00  0.00000000000E+00  0.91188000000E+02  0.91188000000E+02 0.  0.
    9900012    2    3    3    0    0  0.23656715793E+02  0.28110062294E+02  0.17416968887E+02  0.50528848392E+02  0.29999965172E+02 0.  0.
        -12    1    3    3    0    0 -0.23656715793E+02 -0.28110062294E+02 -0.17416968887E+02  0.40659151608E+02  0.00000000000E+00 0.  1.
         11    1    4    4    0    0 -0.15622141695E+01 -0.99448755630E-01 -0.13556246331E+01  0.20707780116E+01  0.51100000000E-03 0.  1.
        -11    1    4    4    0    0  0.80485030487E+01  0.13944239973E+02  0.20501816782E+02  0.26068078590E+02  0.51100000000E-03 0. -1.
         12    1    4    4    0    0  0.17170426914E+02  0.14265271077E+02 -0.17292232617E+01  0.22389991791E+02  0.00000000000E+00 0. -1.
</event>
<event>
 8    1  0.4964753E-012  0.9118800E+02  0.7816164E-02  0.1184000E+00
        -11   -1    0    0    0    0  0.00000000000E+00  0.00000000000E+00  0.45593999997E+02  0.45594000000E+02  0.51100000000E-03 0. -1.
         11   -1    0    0    0    0 -0.00000000000E+00 -0.00000000000E+00 -0.45593999997E+02  0.45594000000E+02  0.51100000000E-03 0.  1.
         23    2    1    2    0    0  0.22204460493E-15  0.44408920985E-15 -0.71054273576E-14  0.91188000000E+02  0.91188000000E+02 0.  0.
    9900012    2    3    3    0    0  0.63097913127E+00 -0.24272259127E+01 -0.40581706928E+02  0.50528874364E+02  0.30000044116E+02 0.  0.
         12    1    3    3    0    0 -0.63097913127E+00  0.24272259127E+01  0.40581706928E+02  0.40659125636E+02  0.00000000000E+00 0. -1.
         11    1    4    4    0    0 -0.42402549224E-01  0.41824562799E+01 -0.26984522912E+02  0.27306761352E+02  0.51100000000E-03 0. -1.
        -11    1    4    4    0    0 -0.32343421295E+01 -0.92074007322E+01 -0.15369646366E+02  0.18206131575E+02  0.51100000000E-03 0.  1.
         12    1    4    4    0    0  0.39077238100E+01  0.25977185396E+01  0.17724623501E+01  0.50159814362E+01  0.00000000000E+00 0. -1.
</event>
<event>
 8    1  0.4964753E-012  0.9118800E+02  0.7816164E-02  0.1184000E+00
        -11   -1    0    0    0    0  0.00000000000E+00  0.00000000000E+00  0.45593999997E+02  0.45594000000E+02  0.51100000000E-03 0. -1.
         11   -1    0    0    0    0 -0.00000000000E+00 -0.00000000000E+00 -0.45593999997E+02  0.45594000000E+02  0.51100000000E-03 0.  1.
         23    2    1    2    0    0  0.35527136788E-14 -0.17763568394E-14 -0.71054273576E-14  0.91188000000E+02  0.91188000000E+02 0.  0.
    9900012    2    3    3    0    0  0.19610372631E+02  0.13419032091E+02  0.32992784386E+02  0.50528917884E+02  0.30000176399E+02 0.  0.
        -12    1    3    3    0    0 -0.19610372631E+02 -0.13419032091E+02 -0.32992784386E+02  0.40659082116E+02  0.00000000000E+00 0.  1.
         11    1    4    4    0    0  0.76017132148E+01  0.12185666532E+02  0.24989757138E+02  0.28822985181E+02  0.51100000000E-03 0. -1.
        -11    1    4    4    0    0 -0.29382368405E+01 -0.38333597706E+00  0.57976195321E+01  0.65109580480E+01  0.51100000000E-03 0.  1.
        -12    1    4    4    0    0  0.14946896257E+02  0.16167015362E+01  0.22054077155E+01  0.15194974655E+02  0.00000000000E+00 0.  1.
</event>
<event>
 8    1  0.4964753E-012  0.9118800E+02  0.7816164E-02  0.1184000E+00
        -11   -1    0    0    0    0  0.00000000000E+00  0.00000000000E+00  0.45593999997E+02  0.45594000000E+02  0.51100000000E-03 0. -1.
         11   -1    0    0    0    0 -0.00000000000E+00 -0.00000000000E+00 -0.45593999997E+02  0.45594000000E+02  0.51100000000E-03 0.  1.
         23    2    1    2    0    0  0.00000000000E+00  0.00000000000E+00  0.00000000000E+00  0.91188000000E+02  0.91188000000E+02 0.  0.
    9900012    2    3    3    0    0 -0.25033480259E+02  0.23396196511E+02  0.21888545007E+02  0.50528861450E+02  0.30000004865E+02 0.  0.
        -12    1    3    3    0    0  0.25033480259E+02 -0.23396196511E+02 -0.21888545007E+02  0.40659138550E+02  0.00000000000E+00 0.  1.
         11    1    4    4    0    0 -0.58389269044E+01  0.10636931052E+01  0.81785174615E+01  0.10105080828E+02  0.51100000000E-03 0. -1.
        -11    1    4    4    0    0 -0.61750530822E+01  0.57623958103E+00  0.13734061887E+02  0.15069432265E+02  0.51100000000E-03 0.  1.
        -12    1    4    4    0    0 -0.13019500273E+02  0.21756263825E+02 -0.24034341255E-01  0.25354348357E+02  0.00000000000E+00 0.  1.
</event>
<event>
 8    1  0.4964753E-012  0.9118800E+02  0.7816164E-02  0.1184000E+00
        -11   -1    0    0    0    0  0.00000000000E+00  0.00000000000E+00  0.45593999997E+02  0.45594000000E+02  0.51100000000E-03 0. -1.
         11   -1    0    0    0    0 -0.00000000000E+00 -0.00000000000E+00 -0.45593999997E+02  0.45594000000E+02  0.51100000000E-03 0.  1.
         23    2    1    2    0    0 -0.88817841970E-15  0.71054273576E-14  0.71054273576E-14  0.91188000000E+02  0.91188000000E+02 0.  0.
    9900012    2    3    3    0    0 -0.59572108777E+01  0.30101828996E+02  0.26675028135E+02  0.50528860850E+02  0.30000003041E+02 0.  0.
        -12    1    3    3    0    0  0.59572108777E+01 -0.30101828996E+02 -0.26675028135E+02  0.40659139150E+02  0.00000000000E+00 0.  1.
         11    1    4    4    0    0  0.48237561698E+01 -0.23064671648E+01 -0.19047245089E+01  0.56759483863E+01  0.51100000000E-03 0. -1.
        -11    1    4    4    0    0  0.23517371523E-01  0.55226894202E+01  0.56656297442E+01  0.79120169462E+01  0.51100000000E-03 0.  1.
         12    1    4    4    0    0 -0.10804484419E+02  0.26885606741E+02  0.22914122900E+02  0.36940895518E+02  0.00000000000E+00 0. -1.
</event>
<event>
 8    1  0.4964753E-012  0.9118800E+02  0.7816164E-02  0.1184000E+00
        -11   -1    0    0    0    0  0.00000000000E+00  0.00000000000E+00  0.45593999997E+02  0.45594000000E+02  0.51100000000E-03 0. -1.
         11   -1    0    0    0    0 -0.00000000000E+00 -0.00000000000E+00 -0.45593999997E+02  0.45594000000E+02  0.51100000000E-03 0.  1.
         23    2    1    2    0    0  0.00000000000E+00  0.00000000000E+00  0.35527136788E-14  0.91188000000E+02  0.91188000000E+02 0.  0.
    9900012    2    3    3    0    0  0.21364628971E+01  0.30332796642E+02  0.26991074100E+02  0.50528916059E+02  0.30000170852E+02 0.  0.
        -12    1    3    3    0    0 -0.21364628971E+01 -0.30332796642E+02 -0.26991074100E+02  0.40659083941E+02  0.00000000000E+00 0.  1.
         11    1    4    4    0    0 -0.63407555091E+01  0.13141122279E+02  0.15764558752E+02  0.21480586306E+02  0.51100000000E-03 0. -1.
        -11    1    4    4    0    0  0.40240857024E+01  0.54715060699E+01  0.14567604646E+02  0.16073137522E+02  0.51100000000E-03 0.  1.
        -12    1    4    4    0    0  0.44531327038E+01  0.11720168294E+02 -0.33410892978E+01  0.12975192230E+02  0.00000000000E+00 0.  1.
</event>
<event>
 8    1  0.4964753E-012  0.9118800E+02  0.7816164E-02  0.1184000E+00
        -11   -1    0    0    0    0  0.00000000000E+00  0.00000000000E+00  0.45593999997E+02  0.45594000000E+02  0.51100000000E-03 0. -1.
         11   -1    0    0    0    0 -0.00000000000E+00 -0.00000000000E+00 -0.45593999997E+02  0.45594000000E+02  0.51100000000E-03 0.  1.
         23    2    1    2    0    0  0.00000000000E+00  0.00000000000E+00  0.00000000000E+00  0.91188000000E+02  0.91188000000E+02 0.  0.
    9900012    2    3    3    0    0  0.26158806969E+02 -0.42438787369E+01 -0.30836219791E+02  0.50528854168E+02  0.29999982729E+02 0.  0.
         12    1    3    3    0    0 -0.26158806969E+02  0.42438787369E+01  0.30836219791E+02  0.40659145832E+02  0.00000000000E+00 0. -1.
         11    1    4    4    0    0  0.84531191855E+01  0.75929954555E+01 -0.12179423771E+02  0.16656745408E+02  0.51100000000E-03 0. -1.
        -11    1    4    4    0    0  0.49229230087E+01  0.33847507725E+01 -0.11102745912E+02  0.12608040125E+02  0.51100000000E-03 0.  1.
         12    1    4    4    0    0  0.12782764775E+02 -0.15221624965E+02 -0.75540501086E+01  0.21264068635E+02  0.00000000000E+00 0. -1.
</event>
<event>
 8    1  0.4964753E-012  0.9118800E+02  0.7816164E-02  0.1184000E+00
        -11   -1    0    0    0    0  0.00000000000E+00  0.00000000000E+00  0.45593999997E+02  0.45594000000E+02  0.51100000000E-03 0. -1.
         11   -1    0    0    0    0 -0.00000000000E+00 -0.00000000000E+00 -0.45593999997E+02  0.45594000000E+02  0.51100000000E-03 0.  1.
         23    2    1    2    0    0  0.31086244690E-14  0.00000000000E+00  0.00000000000E+00  0.91188000000E+02  0.91188000000E+02 0.  0.
    9900012    2    3    3    0    0 -0.27056935064E+01 -0.40371222330E+01  0.40367649742E+02  0.50528852457E+02  0.29999977527E+02 0.  0.
        -12    1    3    3    0    0  0.27056935064E+01  0.40371222330E+01 -0.40367649742E+02  0.40659147543E+02  0.00000000000E+00 0.  1.
         11    1    4    4    0    0 -0.14091887357E+01  0.23068824943E+01 -0.84755890342E-01  0.27045708639E+01  0.51100000000E-03 0. -1.
        -11    1    4    4    0    0  0.10417438874E+02 -0.83647814660E+01  0.17963032317E+02  0.22386673088E+02  0.51100000000E-03 0.  1.
         12    1    4    4    0    0 -0.11713943645E+02  0.20207767387E+01  0.22489373315E+02  0.25437608505E+02  0.00000000000E+00 0. -1.
</event>
<event>
 8    1  0.4964753E-012  0.9118800E+02  0.7816164E-02  0.1184000E+00
        -11   -1    0    0    0    0  0.00000000000E+00  0.00000000000E+00  0.45593999997E+02  0.45594000000E+02  0.51100000000E-03 0. -1.
         11   -1    0    0    0    0 -0.00000000000E+00 -0.00000000000E+00 -0.45593999997E+02  0.45594000000E+02  0.51100000000E-03 0.  1.
         23    2    1    2    0    0 -0.44408920985E-15 -0.88817841970E-15 -0.71054273576E-14  0.91188000000E+02  0.91188000000E+02 0.  0.
    9900012    2    3    3    0    0  0.31990146397E+01  0.29546793921E+01  0.40425305306E+02  0.50528817346E+02  0.29999870805E+02 0.  0.
        -12    1    3    3    0    0 -0.31990146397E+01 -0.29546793921E+01 -0.40425305306E+02  0.40659182654E+02  0.00000000000E+00 0.  1.
         11    1    4    4    0    0  0.24365417146E+01  0.75033522477E+00  0.33068200774E+02  0.33166332947E+02  0.51100000000E-03 0. -1.
        -11    1    4    4    0    0 -0.53363426364E+01  0.47329801792E+01  0.80129292662E+01  0.10727753250E+02  0.51100000000E-03 0.  1.
         12    1    4    4    0    0  0.60988155614E+01 -0.25286360118E+01 -0.65582473388E+00  0.66347311485E+01  0.00000000000E+00 0. -1.
</event>
<event>
 8    1  0.4964753E-012  0.9118800E+02  0.7816164E-02  0.1184000E+00
        -11   -1    0    0    0    0  0.00000000000E+00  0.00000000000E+00  0.45593999997E+02  0.45594000000E+02  0.51100000000E-03 0. -1.
         11   -1    0    0    0    0 -0.00000000000E+00 -0.00000000000E+00 -0.45593999997E+02  0.45594000000E+02  0.51100000000E-03 0.  1.
         23    2    1    2    0    0  0.00000000000E+00  0.00000000000E+00 -0.88817841970E-15  0.91188000000E+02  0.91188000000E+02 0.  0.
    9900012    2    3    3    0    0  0.11490937409E+02  0.38245348054E+02 -0.76431658299E+01  0.50528852515E+02  0.29999977703E+02 0.  0.
         12    1    3    3    0    0 -0.11490937409E+02 -0.38245348054E+02  0.76431658299E+01  0.40659147485E+02  0.00000000000E+00 0. -1.
         11    1    4    4    0    0  0.55565819135E+00  0.17590228877E+02 -0.18201555309E+01  0.17692876374E+02  0.51100000000E-03 0. -1.
        -11    1    4    4    0    0 -0.84675279877E+00  0.17479736824E+02 -0.97300838595E+01  0.20023304471E+02  0.51100000000E-03 0.  1.
         12    1    4    4    0    0  0.11782032016E+02  0.31753823534E+01  0.39070735604E+01  0.12812671670E+02  0.00000000000E+00 0. -1.
</event>
<event>
 8    1  0.4964753E-012  0.9118800E+02  0.7816164E-02  0.1184000E+00
        -11   -1    0    0    0    0  0.00000000000E+00  0.00000000000E+00  0.45593999997E+02  0.45594000000E+02  0.51100000000E-03 0. -1.
         11   -1    0    0    0    0 -0.00000000000E+00 -0.00000000000E+00 -0.45593999997E+02  0.45594000000E+02  0.51100000000E-03 0.  1.
         23    2    1    2    0    0  0.35527136788E-14  0.17763568394E-14  0.00000000000E+00  0.91188000000E+02  0.91188000000E+02 0.  0.
    9900012    2    3    3    0    0  0.13934155106E+02 -0.77844114316E+01 -0.37395316439E+02  0.50528838285E+02  0.29999934450E+02 0.  0.
         12    1    3    3    0    0 -0.13934155106E+02  0.77844114316E+01  0.37395316439E+02  0.40659161715E+02  0.00000000000E+00 0. -1.
         11    1    4    4    0    0  0.70351832545E+01 -0.72188689408E+01 -0.33794122729E+01  0.10631382778E+02  0.51100000000E-03 0. -1.
        -11    1    4    4    0    0  0.12063377390E+02 -0.46117301295E+01 -0.28633852057E+02  0.31411631806E+02  0.51100000000E-03 0.  1.
        -12    1    4    4    0    0 -0.51644055385E+01  0.40461876387E+01 -0.53820521087E+01  0.84858237004E+01  0.00000000000E+00 0.  1.
</event>
<event>
 8    1  0.4964753E-012  0.9118800E+02  0.7816164E-02  0.1184000E+00
        -11   -1    0    0    0    0  0.00000000000E+00  0.00000000000E+00  0.45593999997E+02  0.45594000000E+02  0.51100000000E-03 0. -1.
         11   -1    0    0    0    0 -0.00000000000E+00 -0.00000000000E+00 -0.45593999997E+02  0.45594000000E+02  0.51100000000E-03 0.  1.
         23    2    1    2    0    0  0.00000000000E+00  0.00000000000E+00  0.00000000000E+00  0.91188000000E+02  0.91188000000E+02 0.  0.
    9900012    2    3    3    0    0 -0.10939299002E+02  0.21043599324E+02  0.33025206485E+02  0.50528860823E+02  0.30000002959E+02 0.  0.
        -12    1    3    3    0    0  0.10939299002E+02 -0.21043599324E+02 -0.33025206485E+02  0.40659139177E+02  0.00000000000E+00 0.  1.
         11    1    4    4    0    0  0.49786105224E+01  0.13614680111E+01  0.12253900589E+02  0.13296549845E+02  0.51100000000E-03 0. -1.
        -11    1    4    4    0    0  0.23869452435E+01  0.71534772420E+01  0.11711158821E+01  0.76315959614E+01  0.51100000000E-03 0.  1.
        -12    1    4    4    0    0 -0.18304854768E+02  0.12528654071E+02  0.19600190015E+02  0.29600715017E+02  0.00000000000E+00 0.  1.
</event>
<event>
 8    1  0.4964753E-012  0.9118800E+02  0.7816164E-02  0.1184000E+00
        -11   -1    0    0    0    0  0.00000000000E+00  0.00000000000E+00  0.45593999997E+02  0.45594000000E+02  0.51100000000E-03 0.  1.
         11   -1    0    0    0    0 -0.00000000000E+00 -0.00000000000E+00 -0.45593999997E+02  0.45594000000E+02  0.51100000000E-03 0. -1.
         23    2    1    2    0    0  0.00000000000E+00  0.00000000000E+00  0.35527136788E-14  0.91188000000E+02  0.91188000000E+02 0.  0.
    9900012    2    3    3    0    0  0.34256673949E+02  0.11900900499E+02  0.18385165889E+02  0.50528862435E+02  0.30000007858E+02 0.  0.
         12    1    3    3    0    0 -0.34256673949E+02 -0.11900900499E+02 -0.18385165889E+02  0.40659137565E+02  0.00000000000E+00 0. -1.
         11    1    4    4    0    0  0.15184392621E+02  0.21809602054E+01  0.24827404737E+00  0.15342229530E+02  0.51100000000E-03 0.  1.
        -11    1    4    4    0    0  0.16801969341E+02  0.30805895115E+01  0.15206507996E+01  0.17149594299E+02  0.51100000000E-03 0. -1.
         12    1    4    4    0    0  0.22703119862E+01  0.66393507819E+01  0.16616241042E+02  0.18037038606E+02  0.00000000000E+00 0. -1.
</event>
<event>
 8    1  0.4964753E-012  0.9118800E+02  0.7816164E-02  0.1184000E+00
        -11   -1    0    0    0    0  0.00000000000E+00  0.00000000000E+00  0.45593999997E+02  0.45594000000E+02  0.51100000000E-03 0.  1.
         11   -1    0    0    0    0 -0.00000000000E+00 -0.00000000000E+00 -0.45593999997E+02  0.45594000000E+02  0.51100000000E-03 0. -1.
         23    2    1    2    0    0  0.00000000000E+00  0.00000000000E+00  0.00000000000E+00  0.91188000000E+02  0.91188000000E+02 0.  0.
    9900012    2    3    3    0    0  0.37847345270E+02 -0.29755906000E+01 -0.14556447264E+02  0.50528857850E+02  0.29999993922E+02 0.  0.
        -12    1    3    3    0    0 -0.37847345270E+02  0.29755906000E+01  0.14556447264E+02  0.40659142150E+02  0.00000000000E+00 0.  1.
         11    1    4    4    0    0  0.11708626060E+02 -0.11133178480E+02 -0.42017612319E+01  0.16694142236E+02  0.51100000000E-03 0. -1.
        -11    1    4    4    0    0  0.51054063230E+01  0.53062558972E+01  0.38354805538E+01  0.83025560346E+01  0.51100000000E-03 0.  1.
         12    1    4    4    0    0  0.21033312887E+02  0.28513319830E+01 -0.14190166586E+02  0.25532159580E+02  0.00000000000E+00 0. -1.
</event>
<event>
 8    1  0.4964753E-012  0.9118800E+02  0.7816164E-02  0.1184000E+00
        -11   -1    0    0    0    0  0.00000000000E+00  0.00000000000E+00  0.45593999997E+02  0.45594000000E+02  0.51100000000E-03 0. -1.
         11   -1    0    0    0    0 -0.00000000000E+00 -0.00000000000E+00 -0.45593999997E+02  0.45594000000E+02  0.51100000000E-03 0.  1.
         23    2    1    2    0    0  0.00000000000E+00  0.00000000000E+00  0.00000000000E+00  0.91188000000E+02  0.91188000000E+02 0.  0.
    9900012    2    3    3    0    0  0.27965982514E+02  0.10362929708E+02 -0.27634765917E+02  0.50528846327E+02  0.29999958896E+02 0.  0.
         12    1    3    3    0    0 -0.27965982514E+02 -0.10362929708E+02  0.27634765917E+02  0.40659153673E+02  0.00000000000E+00 0. -1.
         11    1    4    4    0    0  0.64365078130E+00  0.41406598285E+01  0.26291342930E+01  0.49468876615E+01  0.51100000000E-03 0.  1.
        -11    1    4    4    0    0  0.23297287549E+01  0.16699513815E+01  0.27183707686E+01  0.39504320757E+01  0.51100000000E-03 0. -1.
        -12    1    4    4    0    0  0.24992602978E+02  0.45523184982E+01 -0.32982270978E+02  0.41631526590E+02  0.00000000000E+00 0.  1.
</event>
<event>
 8    1  0.4964753E-012  0.9118800E+02  0.7816164E-02  0.1184000E+00
        -11   -1    0    0    0    0  0.00000000000E+00  0.00000000000E+00  0.45593999997E+02  0.45594000000E+02  0.51100000000E-03 0. -1.
         11   -1    0    0    0    0 -0.00000000000E+00 -0.00000000000E+00 -0.45593999997E+02  0.45594000000E+02  0.51100000000E-03 0.  1.
         23    2    1    2    0    0 -0.17763568394E-14  0.00000000000E+00  0.00000000000E+00  0.91188000000E+02  0.91188000000E+02 0.  0.
    9900012    2    3    3    0    0 -0.91828964037E+01 -0.19620078994E+02 -0.34407746131E+02  0.50528854904E+02  0.29999984967E+02 0.  0.
         12    1    3    3    0    0  0.91828964037E+01  0.19620078994E+02  0.34407746131E+02  0.40659145096E+02  0.00000000000E+00 0. -1.
         11    1    4    4    0    0 -0.20362026944E+01 -0.15382720204E+02 -0.60047619541E+01  0.16638250168E+02  0.51100000000E-03 0. -1.
        -11    1    4    4    0    0 -0.11133010584E+02 -0.68275621051E+01 -0.16294283385E+02  0.20882126334E+02  0.51100000000E-03 0.  1.
        -12    1    4    4    0    0  0.39863168752E+01  0.25902033148E+01 -0.12108700792E+02  0.13008478402E+02  0.00000000000E+00 0.  1.
</event>
<event>
 8    1  0.4964753E-012  0.9118800E+02  0.7816164E-02  0.1184000E+00
        -11   -1    0    0    0    0  0.00000000000E+00  0.00000000000E+00  0.45593999997E+02  0.45594000000E+02  0.51100000000E-03 0. -1.
         11   -1    0    0    0    0 -0.00000000000E+00 -0.00000000000E+00 -0.45593999997E+02  0.45594000000E+02  0.51100000000E-03 0.  1.
         23    2    1    2    0    0  0.71054273576E-14  0.00000000000E+00  0.00000000000E+00  0.91188000000E+02  0.91188000000E+02 0.  0.
    9900012    2    3    3    0    0 -0.36164359712E+02 -0.17455211792E+02 -0.63733922457E+01  0.50528862518E+02  0.30000008109E+02 0.  0.
         12    1    3    3    0    0  0.36164359712E+02  0.17455211792E+02  0.63733922457E+01  0.40659137482E+02  0.00000000000E+00 0. -1.
         11    1    4    4    0    0 -0.66610630740E+00  0.88742035282E+00 -0.73500013588E+01  0.74332854600E+01  0.51100000000E-03 0. -1.
        -11    1    4    4    0    0 -0.20848822920E+02 -0.19174534785E+02  0.19329223277E+01  0.28391414026E+02  0.51100000000E-03 0.  1.
         12    1    4    4    0    0 -0.14649430484E+02  0.83190264011E+00 -0.95631321462E+00  0.14704163032E+02  0.00000000000E+00 0. -1.
</event>
<event>
 8    1  0.4964753E-012  0.9118800E+02  0.7816164E-02  0.1184000E+00
        -11   -1    0    0    0    0  0.00000000000E+00  0.00000000000E+00  0.45593999997E+02  0.45594000000E+02  0.51100000000E-03 0. -1.
         11   -1    0    0    0    0 -0.00000000000E+00 -0.00000000000E+00 -0.45593999997E+02  0.45594000000E+02  0.51100000000E-03 0.  1.
         23    2    1    2    0    0  0.00000000000E+00  0.35527136788E-14  0.00000000000E+00  0.91188000000E+02  0.91188000000E+02 0.  0.
    9900012    2    3    3    0    0  0.33059552072E+02  0.17072455308E+02  0.16393999011E+02  0.50528856907E+02  0.29999991056E+02 0.  0.
        -12    1    3    3    0    0 -0.33059552072E+02 -0.17072455308E+02 -0.16393999011E+02  0.40659143093E+02  0.00000000000E+00 0.  1.
         11    1    4    4    0    0  0.19555723265E+02  0.12430979922E+02  0.11984798652E+02  0.26088138555E+02  0.51100000000E-03 0. -1.
        -11    1    4    4    0    0  0.13427794912E+02 -0.25148202904E+01  0.86043125765E+01  0.16145098094E+02  0.51100000000E-03 0.  1.
        -12    1    4    4    0    0  0.76033894781E-01  0.71562956760E+01 -0.41951122177E+01  0.82956202586E+01  0.00000000000E+00 0.  1.
</event>
<event>
 8    1  0.4964753E-012  0.9118800E+02  0.7816164E-02  0.1184000E+00
        -11   -1    0    0    0    0  0.00000000000E+00  0.00000000000E+00  0.45593999997E+02  0.45594000000E+02  0.51100000000E-03 0. -1.
         11   -1    0    0    0    0 -0.00000000000E+00 -0.00000000000E+00 -0.45593999997E+02  0.45594000000E+02  0.51100000000E-03 0.  1.
         23    2    1    2    0    0 -0.22204460493E-15  0.00000000000E+00  0.71054273576E-14  0.91188000000E+02  0.91188000000E+02 0.  0.
    9900012    2    3    3    0    0  0.15625907762E+01  0.16267091528E+02 -0.37230444562E+02  0.50528856391E+02  0.29999989486E+02 0.  0.
         12    1    3    3    0    0 -0.15625907762E+01 -0.16267091528E+02  0.37230444562E+02  0.40659143609E+02  0.00000000000E+00 0. -1.
         11    1    4    4    0    0  0.86175220561E+00 -0.33431967911E+01  0.14447335341E+01  0.37425708935E+01  0.51100000000E-03 0. -1.
        -11    1    4    4    0    0 -0.66238745040E+01  0.19161644356E+01 -0.13459318569E+02  0.15122852119E+02  0.51100000000E-03 0.  1.
         12    1    4    4    0    0  0.73247130745E+01  0.17694123884E+02 -0.25215859527E+02  0.31663433379E+02  0.00000000000E+00 0. -1.
</event>
<event>
 8    1  0.4964753E-012  0.9118800E+02  0.7816164E-02  0.1184000E+00
        -11   -1    0    0    0    0  0.00000000000E+00  0.00000000000E+00  0.45593999997E+02  0.45594000000E+02  0.51100000000E-03 0. -1.
         11   -1    0    0    0    0 -0.00000000000E+00 -0.00000000000E+00 -0.45593999997E+02  0.45594000000E+02  0.51100000000E-03 0.  1.
         23    2    1    2    0    0  0.00000000000E+00  0.00000000000E+00 -0.71054273576E-14  0.91188000000E+02  0.91188000000E+02 0.  0.
    9900012    2    3    3    0    0 -0.51863412434E+01  0.21512242946E+02  0.34110004815E+02  0.50528841616E+02  0.29999944574E+02 0.  0.
        -12    1    3    3    0    0  0.51863412434E+01 -0.21512242946E+02 -0.34110004815E+02  0.40659158384E+02  0.00000000000E+00 0.  1.
         11    1    4    4    0    0 -0.39029753151E+01  0.11874902664E+02  0.15061093465E+02  0.19572507918E+02  0.51100000000E-03 0. -1.
        -11    1    4    4    0    0 -0.69410233473E+01  0.14813297055E+02  0.10340108498E+02  0.19352762562E+02  0.51100000000E-03 0.  1.
        -12    1    4    4    0    0  0.56576574190E+01 -0.51759567731E+01  0.87088028518E+01  0.11603571136E+02  0.00000000000E+00 0.  1.
</event>
<event>
 8    1  0.4964753E-012  0.9118800E+02  0.7816164E-02  0.1184000E+00
        -11   -1    0    0    0    0  0.00000000000E+00  0.00000000000E+00  0.45593999997E+02  0.45594000000E+02  0.51100000000E-03 0. -1.
         11   -1    0    0    0    0 -0.00000000000E+00 -0.00000000000E+00 -0.45593999997E+02  0.45594000000E+02  0.51100000000E-03 0.  1.
         23    2    1    2    0    0  0.00000000000E+00  0.00000000000E+00 -0.35527136788E-14  0.91188000000E+02  0.91188000000E+02 0.  0.
    9900012    2    3    3    0    0  0.12615877928E+02  0.29867995192E+02 -0.24533824989E+02  0.50528854887E+02  0.29999984915E+02 0.  0.
         12    1    3    3    0    0 -0.12615877928E+02 -0.29867995192E+02  0.24533824989E+02  0.40659145113E+02  0.00000000000E+00 0. -1.
         11    1    4    4    0    0 -0.12033052294E+01  0.55275678213E+01 -0.44151031625E+01  0.71760076429E+01  0.51100000000E-03 0.  1.
        -11    1    4    4    0    0  0.85213973100E+01  0.17682695382E+02  0.19260490476E+01  0.19723123314E+02  0.51100000000E-03 0. -1.
         12    1    4    4    0    0  0.52977858478E+01  0.66577319894E+01 -0.22044770874E+02  0.23629723930E+02  0.00000000000E+00 0. -1.
</event>
<event>
 8    1  0.4964753E-012  0.9118800E+02  0.7816164E-02  0.1184000E+00
        -11   -1    0    0    0    0  0.00000000000E+00  0.00000000000E+00  0.45593999997E+02  0.45594000000E+02  0.51100000000E-03 0. -1.
         11   -1    0    0    0    0 -0.00000000000E+00 -0.00000000000E+00 -0.45593999997E+02  0.45594000000E+02  0.51100000000E-03 0.  1.
         23    2    1    2    0    0  0.88817841970E-15 -0.35527136788E-14 -0.71054273576E-14  0.91188000000E+02  0.91188000000E+02 0.  0.
    9900012    2    3    3    0    0  0.32522850062E+01  0.22356586785E+02  0.33804902496E+02  0.50528858799E+02  0.29999996806E+02 0.  0.
        -12    1    3    3    0    0 -0.32522850062E+01 -0.22356586785E+02 -0.33804902496E+02  0.40659141201E+02  0.00000000000E+00 0.  1.
         11    1    4    4    0    0 -0.10353205492E+01  0.94143037262E+01  0.54556999835E+01  0.10930035035E+02  0.51100000000E-03 0. -1.
        -11    1    4    4    0    0  0.57719011136E+01  0.42102883995E+01 -0.24489049944E+01  0.75523841802E+01  0.51100000000E-03 0.  1.
         12    1    4    4    0    0 -0.14842955581E+01  0.87319946592E+01  0.30798107507E+02  0.32046439584E+02  0.00000000000E+00 0. -1.
</event>
<event>
 8    1  0.4964753E-012  0.9118800E+02  0.7816164E-02  0.1184000E+00
        -11   -1    0    0    0    0  0.00000000000E+00  0.00000000000E+00  0.45593999997E+02  0.45594000000E+02  0.51100000000E-03 0. -1.
         11   -1    0    0    0    0 -0.00000000000E+00 -0.00000000000E+00 -0.45593999997E+02  0.45594000000E+02  0.51100000000E-03 0.  1.
         23    2    1    2    0    0  0.35527136788E-14 -0.88817841970E-15  0.00000000000E+00  0.91188000000E+02  0.91188000000E+02 0.  0.
    9900012    2    3    3    0    0  0.10299533820E+02 -0.60587212662E+01  0.38863563182E+02  0.50528867649E+02  0.30000023707E+02 0.  0.
        -12    1    3    3    0    0 -0.10299533820E+02  0.60587212662E+01 -0.38863563182E+02  0.40659132351E+02  0.00000000000E+00 0.  1.
         11    1    4    4    0    0  0.11335276503E+02 -0.48586548970E+01  0.24372420961E+02  0.27315012806E+02  0.51100000000E-03 0. -1.
        -11    1    4    4    0    0 -0.41133520568E+01 -0.45537979150E+01 -0.17222647675E+01  0.63736125380E+01  0.51100000000E-03 0.  1.
         12    1    4    4    0    0  0.30776093738E+01  0.33537315458E+01  0.16213406988E+02  0.16840242306E+02  0.00000000000E+00 0. -1.
</event>
<event>
 8    1  0.4964753E-012  0.9118800E+02  0.7816164E-02  0.1184000E+00
        -11   -1    0    0    0    0  0.00000000000E+00  0.00000000000E+00  0.45593999997E+02  0.45594000000E+02  0.51100000000E-03 0. -1.
         11   -1    0    0    0    0 -0.00000000000E+00 -0.00000000000E+00 -0.45593999997E+02  0.45594000000E+02  0.51100000000E-03 0.  1.
         23    2    1    2    0    0  0.22204460493E-15  0.00000000000E+00 -0.71054273576E-14  0.91188000000E+02  0.91188000000E+02 0.  0.
    9900012    2    3    3    0    0  0.14803775555E+01 -0.73853424929E+01  0.39955363549E+02  0.50528857390E+02  0.29999992524E+02 0.  0.
        -12    1    3    3    0    0 -0.14803775555E+01  0.73853424929E+01 -0.39955363549E+02  0.40659142610E+02  0.00000000000E+00 0.  1.
         11    1    4    4    0    0  0.33817759863E+01  0.81102310128E+00  0.39433345826E+02  0.39586398303E+02  0.51100000000E-03 0. -1.
        -11    1    4    4    0    0  0.17600936707E+01 -0.30077239278E+01  0.25025108607E+01  0.42903256083E+01  0.51100000000E-03 0.  1.
         12    1    4    4    0    0 -0.36614921014E+01 -0.51886416663E+01 -0.19804931385E+01  0.66521334790E+01  0.00000000000E+00 0. -1.
</event>
<event>
 8    1  0.4964753E-012  0.9118800E+02  0.7816164E-02  0.1184000E+00
        -11   -1    0    0    0    0  0.00000000000E+00  0.00000000000E+00  0.45593999997E+02  0.45594000000E+02  0.51100000000E-03 0. -1.
         11   -1    0    0    0    0 -0.00000000000E+00 -0.00000000000E+00 -0.45593999997E+02  0.45594000000E+02  0.51100000000E-03 0.  1.
         23    2    1    2    0    0  0.00000000000E+00  0.00000000000E+00  0.35527136788E-14  0.91188000000E+02  0.91188000000E+02 0.  0.
    9900012    2    3    3    0    0 -0.17773882123E+02 -0.18627854550E+02 -0.31468388432E+02  0.50528839638E+02  0.29999938564E+02 0.  0.
         12    1    3    3    0    0  0.17773882123E+02  0.18627854550E+02  0.31468388432E+02  0.40659160362E+02  0.00000000000E+00 0. -1.
         11    1    4    4    0    0 -0.43052462933E+01  0.25091940133E+01 -0.65263594456E+01  0.82112464411E+01  0.51100000000E-03 0. -1.
        -11    1    4    4    0    0 -0.16185800194E+02 -0.62168671158E+01 -0.66835271764E+01  0.18582225390E+02  0.51100000000E-03 0.  1.
        -12    1    4    4    0    0  0.27171643646E+01 -0.14920181447E+02 -0.18258501810E+02  0.23735367807E+02  0.00000000000E+00 0.  1.
</event>
<event>
 8    1  0.4964753E-012  0.9118800E+02  0.7816164E-02  0.1184000E+00
        -11   -1    0    0    0    0  0.00000000000E+00  0.00000000000E+00  0.45593999997E+02  0.45594000000E+02  0.51100000000E-03 0. -1.
         11   -1    0    0    0    0 -0.00000000000E+00 -0.00000000000E+00 -0.45593999997E+02  0.45594000000E+02  0.51100000000E-03 0.  1.
         23    2    1    2    0    0 -0.88817841970E-15  0.00000000000E+00 -0.35527136788E-14  0.91188000000E+02  0.91188000000E+02 0.  0.
    9900012    2    3    3    0    0  0.77317174136E+01  0.26864004752E+02  0.29524757889E+02  0.50528861619E+02  0.30000005377E+02 0.  0.
        -12    1    3    3    0    0 -0.77317174136E+01 -0.26864004752E+02 -0.29524757889E+02  0.40659138381E+02  0.00000000000E+00 0.  1.
         11    1    4    4    0    0 -0.57228050565E+01  0.62685672134E+01  0.14888707357E+02  0.17138233271E+02  0.51100000000E-03 0. -1.
        -11    1    4    4    0    0 -0.23124869518E+00  0.49093830364E+01 -0.32937565006E+01  0.59164474056E+01  0.51100000000E-03 0.  1.
        -12    1    4    4    0    0  0.13685771165E+02  0.15686054502E+02  0.17929807033E+02  0.27474180942E+02  0.00000000000E+00 0.  1.
</event>
<event>
 8    1  0.4964753E-012  0.9118800E+02  0.7816164E-02  0.1184000E+00
        -11   -1    0    0    0    0  0.00000000000E+00  0.00000000000E+00  0.45593999997E+02  0.45594000000E+02  0.51100000000E-03 0.  1.
         11   -1    0    0    0    0 -0.00000000000E+00 -0.00000000000E+00 -0.45593999997E+02  0.45594000000E+02  0.51100000000E-03 0. -1.
         23    2    1    2    0    0 -0.35527136788E-14  0.00000000000E+00  0.00000000000E+00  0.91188000000E+02  0.91188000000E+02 0.  0.
    9900012    2    3    3    0    0  0.22596184897E+02  0.95420374605E+01  0.32427281933E+02  0.50528847717E+02  0.29999963122E+02 0.  0.
        -12    1    3    3    0    0 -0.22596184897E+02 -0.95420374605E+01 -0.32427281933E+02  0.40659152283E+02  0.00000000000E+00 0.  1.
         11    1    4    4    0    0  0.54726522919E+01  0.44651493547E+01  0.21952806441E+01  0.73964004242E+01  0.51100000000E-03 0. -1.
        -11    1    4    4    0    0 -0.60146454369E+01  0.83495092081E+00  0.20192886638E+01  0.63992679066E+01  0.51100000000E-03 0.  1.
         12    1    4    4    0    0  0.23138178042E+02  0.42419371850E+01  0.28212712625E+02  0.36733179387E+02  0.00000000000E+00 0. -1.
</event>
<event>
 8    1  0.4964753E-012  0.9118800E+02  0.7816164E-02  0.1184000E+00
        -11   -1    0    0    0    0  0.00000000000E+00  0.00000000000E+00  0.45593999997E+02  0.45594000000E+02  0.51100000000E-03 0. -1.
         11   -1    0    0    0    0 -0.00000000000E+00 -0.00000000000E+00 -0.45593999997E+02  0.45594000000E+02  0.51100000000E-03 0.  1.
         23    2    1    2    0    0 -0.35527136788E-14  0.00000000000E+00  0.00000000000E+00  0.91188000000E+02  0.91188000000E+02 0.  0.
    9900012    2    3    3    0    0 -0.27237277585E+02 -0.23272741112E+02  0.19226946845E+02  0.50528865059E+02  0.30000015834E+02 0.  0.
        -12    1    3    3    0    0  0.27237277585E+02  0.23272741112E+02 -0.19226946845E+02  0.40659134941E+02  0.00000000000E+00 0.  1.
         11    1    4    4    0    0 -0.13443684278E+02 -0.42475648622E+01  0.59759091218E+01  0.15312933890E+02  0.51100000000E-03 0. -1.
        -11    1    4    4    0    0 -0.36364604546E+01  0.14631435500E+01  0.11650400839E+02  0.12292130558E+02  0.51100000000E-03 0.  1.
        -12    1    4    4    0    0 -0.10157132853E+02 -0.20488319800E+02  0.16006368841E+01  0.22923800611E+02  0.00000000000E+00 0.  1.
</event>
<event>
 8    1  0.5610760E-012  0.9118800E+02  0.7816164E-02  0.1184000E+00
        -11   -1    0    0    0    0  0.00000000000E+00  0.00000000000E+00  0.45593999997E+02  0.45594000000E+02  0.51100000000E-03 0. -1.
         11   -1    0    0    0    0 -0.00000000000E+00 -0.00000000000E+00 -0.45593999997E+02  0.45594000000E+02  0.51100000000E-03 0.  1.
         23    2    1    2    0    0 -0.17763568394E-14 -0.35527136788E-14 -0.35527136788E-14  0.91188000000E+02  0.91188000000E+02 0.  0.
    9900012    2    3    3    0    0 -0.15429679140E+02 -0.23619033462E+02 -0.29278522835E+02  0.50528860321E+02  0.30000001431E+02 0.  0.
         12    1    3    3    0    0  0.15429679140E+02  0.23619033462E+02  0.29278522835E+02  0.40659139679E+02  0.00000000000E+00 0. -1.
         11    1    4    4    0    0 -0.31040698646E+01  0.30752694227E+01 -0.14823854737E+02  0.15454423356E+02  0.51100000000E-03 0. -1.
        -11    1    4    4    0    0 -0.57421495897E+01 -0.88654213495E+01 -0.11877829691E+02  0.15894993427E+02  0.51100000000E-03 0.  1.
         12    1    4    4    0    0 -0.65834596855E+01 -0.17828881536E+02 -0.25768384073E+01  0.19179443538E+02  0.00000000000E+00 0. -1.
</event>
<event>
 8    1  0.4964753E-012  0.9118800E+02  0.7816164E-02  0.1184000E+00
        -11   -1    0    0    0    0  0.00000000000E+00  0.00000000000E+00  0.45593999997E+02  0.45594000000E+02  0.51100000000E-03 0. -1.
         11   -1    0    0    0    0 -0.00000000000E+00 -0.00000000000E+00 -0.45593999997E+02  0.45594000000E+02  0.51100000000E-03 0.  1.
         23    2    1    2    0    0  0.00000000000E+00 -0.88817841970E-15  0.00000000000E+00  0.91188000000E+02  0.91188000000E+02 0.  0.
    9900012    2    3    3    0    0  0.62401311224E+01  0.35615964990E+01  0.40019260571E+02  0.50528862986E+02  0.30000009532E+02 0.  0.
        -12    1    3    3    0    0 -0.62401311224E+01 -0.35615964990E+01 -0.40019260571E+02  0.40659137014E+02  0.00000000000E+00 0.  1.
         11    1    4    4    0    0 -0.30994691175E+01  0.11989164764E+02  0.22531863904E+02  0.25710536202E+02  0.51100000000E-03 0. -1.
        -11    1    4    4    0    0  0.50097301870E+01  0.26432432950E+01  0.47140682941E+01  0.73692992751E+01  0.51100000000E-03 0.  1.
        -12    1    4    4    0    0  0.43298700529E+01 -0.11070811560E+02  0.12773328373E+02  0.17449027509E+02  0.00000000000E+00 0.  1.
</event>
<event>
 8    1  0.4964753E-012  0.9118800E+02  0.7816164E-02  0.1184000E+00
        -11   -1    0    0    0    0  0.00000000000E+00  0.00000000000E+00  0.45593999997E+02  0.45594000000E+02  0.51100000000E-03 0. -1.
         11   -1    0    0    0    0 -0.00000000000E+00 -0.00000000000E+00 -0.45593999997E+02  0.45594000000E+02  0.51100000000E-03 0.  1.
         23    2    1    2    0    0 -0.71054273576E-14  0.66613381478E-15 -0.35527136788E-14  0.91188000000E+02  0.91188000000E+02 0.  0.
    9900012    2    3    3    0    0  0.37164051548E+02  0.14895042321E+01  0.16424991397E+02  0.50528859666E+02  0.29999999442E+02 0.  0.
        -12    1    3    3    0    0 -0.37164051548E+02 -0.14895042321E+01 -0.16424991397E+02  0.40659140334E+02  0.00000000000E+00 0.  1.
         11    1    4    4    0    0  0.14644350623E+02  0.85375609295E+01  0.35316674304E+01  0.17315300369E+02  0.51100000000E-03 0.  1.
        -11    1    4    4    0    0  0.22425934737E+02 -0.14186689108E+01  0.15200348501E+02  0.27129057579E+02  0.51100000000E-03 0. -1.
         12    1    4    4    0    0  0.93766188084E-01 -0.56293877867E+01 -0.23070245349E+01  0.60845017179E+01  0.00000000000E+00 0. -1.
</event>
<event>
 8    1  0.4964753E-012  0.9118800E+02  0.7816164E-02  0.1184000E+00
        -11   -1    0    0    0    0  0.00000000000E+00  0.00000000000E+00  0.45593999997E+02  0.45594000000E+02  0.51100000000E-03 0. -1.
         11   -1    0    0    0    0 -0.00000000000E+00 -0.00000000000E+00 -0.45593999997E+02  0.45594000000E+02  0.51100000000E-03 0.  1.
         23    2    1    2    0    0 -0.22204460493E-15  0.00000000000E+00  0.35527136788E-14  0.91188000000E+02  0.91188000000E+02 0.  0.
    9900012    2    3    3    0    0 -0.12653550983E+01 -0.27375325769E+02  0.30035891971E+02  0.50528875674E+02  0.30000048099E+02 0.  0.
        -12    1    3    3    0    0  0.12653550983E+01  0.27375325769E+02 -0.30035891971E+02  0.40659124326E+02  0.00000000000E+00 0.  1.
         11    1    4    4    0    0 -0.10230803962E+02 -0.82033951704E+01  0.11491090690E+02  0.17435888492E+02  0.51100000000E-03 0. -1.
        -11    1    4    4    0    0 -0.77468540609E+00  0.30394756550E+01  0.25248253840E+01  0.40265733839E+01  0.51100000000E-03 0.  1.
         12    1    4    4    0    0  0.97401342693E+01 -0.22211406253E+02  0.16019975897E+02  0.29066413798E+02  0.00000000000E+00 0. -1.
</event>
<event>
 8    1  0.4964753E-012  0.9118800E+02  0.7816164E-02  0.1184000E+00
        -11   -1    0    0    0    0  0.00000000000E+00  0.00000000000E+00  0.45593999997E+02  0.45594000000E+02  0.51100000000E-03 0. -1.
         11   -1    0    0    0    0 -0.00000000000E+00 -0.00000000000E+00 -0.45593999997E+02  0.45594000000E+02  0.51100000000E-03 0.  1.
         23    2    1    2    0    0  0.00000000000E+00  0.00000000000E+00  0.00000000000E+00  0.91188000000E+02  0.91188000000E+02 0.  0.
    9900012    2    3    3    0    0  0.86213541450E+01  0.45617591972E+01  0.39471850201E+02  0.50528876147E+02  0.30000049535E+02 0.  0.
        -12    1    3    3    0    0 -0.86213541450E+01 -0.45617591972E+01 -0.39471850201E+02  0.40659123853E+02  0.00000000000E+00 0.  1.
         11    1    4    4    0    0 -0.18779757298E+01  0.25089922768E+01  0.25250549331E+02  0.25444293601E+02  0.51100000000E-03 0. -1.
        -11    1    4    4    0    0  0.16290407774E+01 -0.67848081773E+01  0.93097332818E+01  0.11634368479E+02  0.51100000000E-03 0.  1.
        -12    1    4    4    0    0  0.88702890973E+01  0.88375750977E+01  0.49115675881E+01  0.13450214067E+02  0.00000000000E+00 0.  1.
</event>
<event>
 8    1  0.4964753E-012  0.9118800E+02  0.7816164E-02  0.1184000E+00
        -11   -1    0    0    0    0  0.00000000000E+00  0.00000000000E+00  0.45593999997E+02  0.45594000000E+02  0.51100000000E-03 0. -1.
         11   -1    0    0    0    0 -0.00000000000E+00 -0.00000000000E+00 -0.45593999997E+02  0.45594000000E+02  0.51100000000E-03 0.  1.
         23    2    1    2    0    0  0.00000000000E+00  0.00000000000E+00  0.00000000000E+00  0.91188000000E+02  0.91188000000E+02 0.  0.
    9900012    2    3    3    0    0 -0.36961525055E+02 -0.10880825382E+02 -0.12985341066E+02  0.50528858617E+02  0.29999996253E+02 0.  0.
         12    1    3    3    0    0  0.36961525055E+02  0.10880825382E+02  0.12985341066E+02  0.40659141383E+02  0.00000000000E+00 0. -1.
         11    1    4    4    0    0  0.19941911870E+01 -0.30673962710E+01  0.21895602556E+01  0.42637885440E+01  0.51100000000E-03 0. -1.
        -11    1    4    4    0    0 -0.12534441122E+02 -0.15308844725E+01 -0.14321821976E+02  0.19093726888E+02  0.51100000000E-03 0.  1.
         12    1    4    4    0    0 -0.26421275120E+02 -0.62825446385E+01 -0.85307934551E+00  0.27171343185E+02  0.00000000000E+00 0. -1.
</event>
<event>
 8    1  0.4964753E-012  0.9118800E+02  0.7816164E-02  0.1184000E+00
        -11   -1    0    0    0    0  0.00000000000E+00  0.00000000000E+00  0.45593999997E+02  0.45594000000E+02  0.51100000000E-03 0.  1.
         11   -1    0    0    0    0 -0.00000000000E+00 -0.00000000000E+00 -0.45593999997E+02  0.45594000000E+02  0.51100000000E-03 0. -1.
         23    2    1    2    0    0  0.00000000000E+00 -0.35527136788E-14  0.00000000000E+00  0.91188000000E+02  0.91188000000E+02 0.  0.
    9900012    2    3    3    0    0  0.32101822136E+02 -0.22347575289E+02 -0.11100653359E+02  0.50528860673E+02  0.30000002503E+02 0.  0.
         12    1    3    3    0    0 -0.32101822136E+02  0.22347575289E+02  0.11100653359E+02  0.40659139327E+02  0.00000000000E+00 0. -1.
         11    1    4    4    0    0  0.25279623285E+01 -0.10235116051E+02 -0.36150130552E+01  0.11145246241E+02  0.51100000000E-03 0. -1.
        -11    1    4    4    0    0  0.16107131126E+01  0.44449633923E+00  0.57552917388E+01  0.59929422646E+01  0.51100000000E-03 0.  1.
        -12    1    4    4    0    0  0.27963146695E+02 -0.12556955577E+02 -0.13240932043E+02  0.33390672168E+02  0.00000000000E+00 0.  1.
</event>
<event>
 8    1  0.4964753E-012  0.9118800E+02  0.7816164E-02  0.1184000E+00
        -11   -1    0    0    0    0  0.00000000000E+00  0.00000000000E+00  0.45593999997E+02  0.45594000000E+02  0.51100000000E-03 0. -1.
         11   -1    0    0    0    0 -0.00000000000E+00 -0.00000000000E+00 -0.45593999997E+02  0.45594000000E+02  0.51100000000E-03 0.  1.
         23    2    1    2    0    0  0.17763568394E-14  0.00000000000E+00  0.00000000000E+00  0.91188000000E+02  0.91188000000E+02 0.  0.
    9900012    2    3    3    0    0 -0.12036648662E+02  0.44856324123E+01 -0.38576712682E+02  0.50528873467E+02  0.30000041389E+02 0.  0.
         12    1    3    3    0    0  0.12036648662E+02 -0.44856324123E+01  0.38576712682E+02  0.40659126533E+02  0.00000000000E+00 0. -1.
         11    1    4    4    0    0  0.46131812936E+01  0.85338022742E+00 -0.87036927508E+00  0.47715031589E+01  0.51100000000E-03 0. -1.
        -11    1    4    4    0    0 -0.18623685583E+01  0.27335525325E+01 -0.27660975379E+02  0.27858038073E+02  0.51100000000E-03 0.  1.
        -12    1    4    4    0    0 -0.14787461397E+02  0.89869965238E+00 -0.10045368028E+02  0.17899332235E+02  0.00000000000E+00 0.  1.
</event>
<event>
 8    1  0.4964753E-012  0.9118800E+02  0.7816164E-02  0.1184000E+00
        -11   -1    0    0    0    0  0.00000000000E+00  0.00000000000E+00  0.45593999997E+02  0.45594000000E+02  0.51100000000E-03 0. -1.
         11   -1    0    0    0    0 -0.00000000000E+00 -0.00000000000E+00 -0.45593999997E+02  0.45594000000E+02  0.51100000000E-03 0.  1.
         23    2    1    2    0    0  0.13322676296E-14  0.00000000000E+00  0.00000000000E+00  0.91188000000E+02  0.91188000000E+02 0.  0.
    9900012    2    3    3    0    0  0.33655404229E+01 -0.12539271630E+02  0.38530609146E+02  0.50528830844E+02  0.29999911832E+02 0.  0.
        -12    1    3    3    0    0 -0.33655404229E+01  0.12539271630E+02 -0.38530609146E+02  0.40659169156E+02  0.00000000000E+00 0.  1.
         11    1    4    4    0    0  0.50737934405E+01 -0.56809743910E+01  0.86419262651E+01  0.11519537306E+02  0.51100000000E-03 0. -1.
        -11    1    4    4    0    0  0.73173596589E+01 -0.87614189343E+01  0.27047312913E+02  0.29357509264E+02  0.51100000000E-03 0.  1.
        -12    1    4    4    0    0 -0.90256126764E+01  0.19031216957E+01  0.28413699675E+01  0.96517842737E+01  0.00000000000E+00 0.  1.
</event>
<event>
 8    1  0.4964753E-012  0.9118800E+02  0.7816164E-02  0.1184000E+00
        -11   -1    0    0    0    0  0.00000000000E+00  0.00000000000E+00  0.45593999997E+02  0.45594000000E+02  0.51100000000E-03 0. -1.
         11   -1    0    0    0    0 -0.00000000000E+00 -0.00000000000E+00 -0.45593999997E+02  0.45594000000E+02  0.51100000000E-03 0.  1.
         23    2    1    2    0    0  0.00000000000E+00  0.00000000000E+00  0.00000000000E+00  0.91188000000E+02  0.91188000000E+02 0.  0.
    9900012    2    3    3    0    0  0.76146979815E+01  0.35169726096E+02  0.18928080002E+02  0.50528862385E+02  0.30000007705E+02 0.  0.
        -12    1    3    3    0    0 -0.76146979815E+01 -0.35169726096E+02 -0.18928080002E+02  0.40659137615E+02  0.00000000000E+00 0.  1.
         11    1    4    4    0    0 -0.50589187827E+00 -0.45808943462E+01  0.34681333833E+01  0.57678825430E+01  0.51100000000E-03 0. -1.
        -11    1    4    4    0    0 -0.22741287968E+01  0.63237006807E+01  0.65118779944E+00  0.67516588995E+01  0.51100000000E-03 0.  1.
         12    1    4    4    0    0  0.10394718657E+02  0.33426919762E+02  0.14808758819E+02  0.38009320942E+02  0.00000000000E+00 0. -1.
</event>
<event>
 8    1  0.4964753E-012  0.9118800E+02  0.7816164E-02  0.1184000E+00
        -11   -1    0    0    0    0  0.00000000000E+00  0.00000000000E+00  0.45593999997E+02  0.45594000000E+02  0.51100000000E-03 0. -1.
         11   -1    0    0    0    0 -0.00000000000E+00 -0.00000000000E+00 -0.45593999997E+02  0.45594000000E+02  0.51100000000E-03 0.  1.
         23    2    1    2    0    0  0.00000000000E+00  0.17763568394E-14 -0.35527136788E-14  0.91188000000E+02  0.91188000000E+02 0.  0.
    9900012    2    3    3    0    0 -0.32637790623E+02  0.10910419350E+02 -0.21654265943E+02  0.50528808410E+02  0.29999843644E+02 0.  0.
         12    1    3    3    0    0  0.32637790623E+02 -0.10910419350E+02  0.21654265943E+02  0.40659191590E+02  0.00000000000E+00 0. -1.
         11    1    4    4    0    0 -0.71750368840E+01 -0.75559820893E+01 -0.85332595730E+01  0.13468130487E+02  0.51100000000E-03 0. -1.
        -11    1    4    4    0    0 -0.24124098897E+00  0.68472123964E+01 -0.18999819487E+01  0.71100243658E+01  0.51100000000E-03 0.  1.
         12    1    4    4    0    0 -0.25221512750E+02  0.11619189043E+02 -0.11221024422E+02  0.29950653557E+02  0.00000000000E+00 0. -1.
</event>
<event>
 8    1  0.4964753E-012  0.9118800E+02  0.7816164E-02  0.1184000E+00
        -11   -1    0    0    0    0  0.00000000000E+00  0.00000000000E+00  0.45593999997E+02  0.45594000000E+02  0.51100000000E-03 0. -1.
         11   -1    0    0    0    0 -0.00000000000E+00 -0.00000000000E+00 -0.45593999997E+02  0.45594000000E+02  0.51100000000E-03 0.  1.
         23    2    1    2    0    0  0.00000000000E+00  0.13322676296E-14  0.00000000000E+00  0.91188000000E+02  0.91188000000E+02 0.  0.
    9900012    2    3    3    0    0  0.17799434813E+02  0.30760762018E+01  0.36426425741E+02  0.50528848302E+02  0.29999964900E+02 0.  0.
        -12    1    3    3    0    0 -0.17799434813E+02 -0.30760762018E+01 -0.36426425741E+02  0.40659151698E+02  0.00000000000E+00 0.  1.
         11    1    4    4    0    0  0.93916317702E+01 -0.11511779295E+01  0.13629778542E+02  0.16592131307E+02  0.51100000000E-03 0. -1.
        -11    1    4    4    0    0  0.41942115042E+01 -0.81949834080E+01  0.21146681324E+01  0.94456860402E+01  0.51100000000E-03 0.  1.
         12    1    4    4    0    0  0.42135915390E+01  0.12422237539E+02  0.20681979067E+02  0.24491030956E+02  0.00000000000E+00 0. -1.
</event>
<event>
 8    1  0.4964753E-012  0.9118800E+02  0.7816164E-02  0.1184000E+00
        -11   -1    0    0    0    0  0.00000000000E+00  0.00000000000E+00  0.45593999997E+02  0.45594000000E+02  0.51100000000E-03 0. -1.
         11   -1    0    0    0    0 -0.00000000000E+00 -0.00000000000E+00 -0.45593999997E+02  0.45594000000E+02  0.51100000000E-03 0.  1.
         23    2    1    2    0    0  0.00000000000E+00  0.00000000000E+00  0.00000000000E+00  0.91188000000E+02  0.91188000000E+02 0.  0.
    9900012    2    3    3    0    0 -0.16528543184E+02 -0.21282580375E+02  0.30447086398E+02  0.50528855428E+02  0.29999986560E+02 0.  0.
        -12    1    3    3    0    0  0.16528543184E+02  0.21282580375E+02 -0.30447086398E+02  0.40659144572E+02  0.00000000000E+00 0.  1.
         11    1    4    4    0    0  0.14123566394E+01 -0.54402395102E+01 -0.32909171621E+01  0.65131477209E+01  0.51100000000E-03 0. -1.
        -11    1    4    4    0    0 -0.71660240571E+01  0.19579372994E+01  0.79611753645E+01  0.10888789313E+02  0.51100000000E-03 0.  1.
        -12    1    4    4    0    0 -0.10774875767E+02 -0.17800278164E+02  0.25776828195E+02  0.33126918394E+02  0.00000000000E+00 0.  1.
</event>
<event>
 8    1  0.5313738E-012  0.9118800E+02  0.7816164E-02  0.1184000E+00
        -11   -1    0    0    0    0  0.00000000000E+00  0.00000000000E+00  0.45593999997E+02  0.45594000000E+02  0.51100000000E-03 0. -1.
         11   -1    0    0    0    0 -0.00000000000E+00 -0.00000000000E+00 -0.45593999997E+02  0.45594000000E+02  0.51100000000E-03 0.  1.
         23    2    1    2    0    0  0.00000000000E+00  0.00000000000E+00  0.00000000000E+00  0.91188000000E+02  0.91188000000E+02 0.  0.
    9900012    2    3    3    0    0 -0.28114089964E+02  0.22373477617E+02 -0.19031286132E+02  0.50528875476E+02  0.30000047498E+02 0.  0.
         12    1    3    3    0    0  0.28114089964E+02 -0.22373477617E+02  0.19031286132E+02  0.40659124524E+02  0.00000000000E+00 0. -1.
         11    1    4    4    0    0 -0.11105771125E+01 -0.53540908591E+01 -0.32724306099E+01  0.63724777605E+01  0.51100000000E-03 0. -1.
        -11    1    4    4    0    0 -0.35630728071E+01  0.34617416354E+01  0.27461152744E+01  0.56762921296E+01  0.51100000000E-03 0.  1.
        -12    1    4    4    0    0 -0.23440440044E+02  0.24265826841E+02 -0.18504970797E+02  0.38480105586E+02  0.00000000000E+00 0.  1.
</event>
<event>
 8    1  0.7634043E-012  0.9118800E+02  0.7816164E-02  0.1184000E+00
        -11   -1    0    0    0    0  0.00000000000E+00  0.00000000000E+00  0.45593999997E+02  0.45594000000E+02  0.51100000000E-03 0. -1.
         11   -1    0    0    0    0 -0.00000000000E+00 -0.00000000000E+00 -0.45593999997E+02  0.45594000000E+02  0.51100000000E-03 0.  1.
         23    2    1    2    0    0  0.10658141036E-13  0.88817841970E-15  0.00000000000E+00  0.91188000000E+02  0.91188000000E+02 0.  0.
    9900012    2    3    3    0    0 -0.30637029308E+02  0.40472967921E+01 -0.26422694310E+02  0.50528844196E+02  0.29999952417E+02 0.  0.
         12    1    3    3    0    0  0.30637029308E+02 -0.40472967921E+01  0.26422694310E+02  0.40659155804E+02  0.00000000000E+00 0. -1.
         11    1    4    4    0    0 -0.14864321582E+02 -0.25572758076E+01 -0.25736166814E+01  0.15300693407E+02  0.51100000000E-03 0. -1.
        -11    1    4    4    0    0 -0.19412777407E+02  0.12713778028E+01 -0.17358317222E+02  0.26072658192E+02  0.51100000000E-03 0.  1.
         12    1    4    4    0    0  0.36400696813E+01  0.53331947970E+01 -0.64907604062E+01  0.91554925961E+01  0.00000000000E+00 0. -1.
</event>
<event>
 8    1  0.4964753E-012  0.9118800E+02  0.7816164E-02  0.1184000E+00
        -11   -1    0    0    0    0  0.00000000000E+00  0.00000000000E+00  0.45593999997E+02  0.45594000000E+02  0.51100000000E-03 0. -1.
         11   -1    0    0    0    0 -0.00000000000E+00 -0.00000000000E+00 -0.45593999997E+02  0.45594000000E+02  0.51100000000E-03 0.  1.
         23    2    1    2    0    0  0.00000000000E+00  0.00000000000E+00  0.35527136788E-14  0.91188000000E+02  0.91188000000E+02 0.  0.
    9900012    2    3    3    0    0  0.23835965491E+02 -0.20680681654E+02  0.25638289253E+02  0.50528859325E+02  0.29999998406E+02 0.  0.
        -12    1    3    3    0    0 -0.23835965491E+02  0.20680681654E+02 -0.25638289253E+02  0.40659140675E+02  0.00000000000E+00 0.  1.
         11    1    4    4    0    0  0.12318559427E+02 -0.83624156346E+01  0.24486949272E+02  0.28658115544E+02  0.51100000000E-03 0. -1.
        -11    1    4    4    0    0 -0.28522349571E+01 -0.34481230803E+01 -0.16177546227E+01  0.47583534240E+01  0.51100000000E-03 0.  1.
        -12    1    4    4    0    0  0.14369641021E+02 -0.88701429391E+01  0.27690946040E+01  0.17112390358E+02  0.00000000000E+00 0.  1.
</event>
<event>
 8    1  0.4964753E-012  0.9118800E+02  0.7816164E-02  0.1184000E+00
        -11   -1    0    0    0    0  0.00000000000E+00  0.00000000000E+00  0.45593999997E+02  0.45594000000E+02  0.51100000000E-03 0. -1.
         11   -1    0    0    0    0 -0.00000000000E+00 -0.00000000000E+00 -0.45593999997E+02  0.45594000000E+02  0.51100000000E-03 0.  1.
         23    2    1    2    0    0 -0.35527136788E-14 -0.88817841970E-15 -0.35527136788E-14  0.91188000000E+02  0.91188000000E+02 0.  0.
    9900012    2    3    3    0    0  0.25291543314E+02  0.59476583396E+01  0.31275044832E+02  0.50528865329E+02  0.30000016654E+02 0.  0.
        -12    1    3    3    0    0 -0.25291543314E+02 -0.59476583396E+01 -0.31275044832E+02  0.40659134671E+02  0.00000000000E+00 0.  1.
         11    1    4    4    0    0  0.20106857388E+00 -0.47882236640E+01  0.13655714766E+01  0.49832017967E+01  0.51100000000E-03 0. -1.
        -11    1    4    4    0    0 -0.27090951096E+01  0.33258186914E+01  0.90311500935E+01  0.99980967466E+01  0.51100000000E-03 0.  1.
         12    1    4    4    0    0  0.27799569850E+02  0.74100633121E+01  0.20878323262E+02  0.35547566786E+02  0.00000000000E+00 0. -1.
</event>
<event>
 8    1  0.4964753E-012  0.9118800E+02  0.7816164E-02  0.1184000E+00
        -11   -1    0    0    0    0  0.00000000000E+00  0.00000000000E+00  0.45593999997E+02  0.45594000000E+02  0.51100000000E-03 0. -1.
         11   -1    0    0    0    0 -0.00000000000E+00 -0.00000000000E+00 -0.45593999997E+02  0.45594000000E+02  0.51100000000E-03 0.  1.
         23    2    1    2    0    0  0.00000000000E+00 -0.35527136788E-14  0.00000000000E+00  0.91188000000E+02  0.91188000000E+02 0.  0.
    9900012    2    3    3    0    0  0.18459289847E+02  0.16269191046E+02  0.32368711896E+02  0.50528862420E+02  0.30000007813E+02 0.  0.
        -12    1    3    3    0    0 -0.18459289847E+02 -0.16269191046E+02 -0.32368711896E+02  0.40659137580E+02  0.00000000000E+00 0.  1.
         11    1    4    4    0    0  0.20748565403E+02  0.10019826109E+02  0.17776405804E+02  0.29101554686E+02  0.51100000000E-03 0. -1.
        -11    1    4    4    0    0 -0.50056826571E+01  0.24120530751E+01  0.15651017408E+02  0.16608106607E+02  0.51100000000E-03 0.  1.
         12    1    4    4    0    0  0.27164071006E+01  0.38373118615E+01 -0.10587113160E+01  0.48192011277E+01  0.00000000000E+00 0. -1.
</event>
<event>
 8    1  0.4964753E-012  0.9118800E+02  0.7816164E-02  0.1184000E+00
        -11   -1    0    0    0    0  0.00000000000E+00  0.00000000000E+00  0.45593999997E+02  0.45594000000E+02  0.51100000000E-03 0. -1.
         11   -1    0    0    0    0 -0.00000000000E+00 -0.00000000000E+00 -0.45593999997E+02  0.45594000000E+02  0.51100000000E-03 0.  1.
         23    2    1    2    0    0  0.00000000000E+00  0.17763568394E-14  0.17763568394E-14  0.91188000000E+02  0.91188000000E+02 0.  0.
    9900012    2    3    3    0    0 -0.37226583788E+02  0.50746579642E+01  0.15543293994E+02  0.50528872093E+02  0.30000037212E+02 0.  0.
        -12    1    3    3    0    0  0.37226583788E+02 -0.50746579642E+01 -0.15543293994E+02  0.40659127907E+02  0.00000000000E+00 0.  1.
         11    1    4    4    0    0 -0.34944198024E+01 -0.77980697590E+01  0.93434316090E+01  0.12661776187E+02  0.51100000000E-03 0. -1.
        -11    1    4    4    0    0 -0.10180257200E+02  0.64699943849E+00  0.48544387211E+01  0.11296982804E+02  0.51100000000E-03 0.  1.
        -12    1    4    4    0    0 -0.23551906786E+02  0.12225728285E+02  0.13454236642E+01  0.26570113101E+02  0.00000000000E+00 0.  1.
</event>
<event>
 8    1  0.4964753E-012  0.9118800E+02  0.7816164E-02  0.1184000E+00
        -11   -1    0    0    0    0  0.00000000000E+00  0.00000000000E+00  0.45593999997E+02  0.45594000000E+02  0.51100000000E-03 0. -1.
         11   -1    0    0    0    0 -0.00000000000E+00 -0.00000000000E+00 -0.45593999997E+02  0.45594000000E+02  0.51100000000E-03 0.  1.
         23    2    1    2    0    0  0.00000000000E+00 -0.17763568394E-14  0.00000000000E+00  0.91188000000E+02  0.91188000000E+02 0.  0.
    9900012    2    3    3    0    0 -0.29775739578E+02 -0.49508739487E+01  0.27240779132E+02  0.50528857511E+02  0.29999992890E+02 0.  0.
        -12    1    3    3    0    0  0.29775739578E+02  0.49508739487E+01 -0.27240779132E+02  0.40659142489E+02  0.00000000000E+00 0.  1.
         11    1    4    4    0    0 -0.72982771637E+01 -0.97441420745E+01  0.12325401583E+02  0.17324222313E+02  0.51100000000E-03 0. -1.
        -11    1    4    4    0    0 -0.11308964250E+02  0.60388969287E+01 -0.19198602281E+01  0.12963287086E+02  0.51100000000E-03 0.  1.
         12    1    4    4    0    0 -0.11168498164E+02 -0.12456288030E+01  0.16835237777E+02  0.20241348111E+02  0.00000000000E+00 0. -1.
</event>
<event>
 8    1  0.4964753E-012  0.9118800E+02  0.7816164E-02  0.1184000E+00
        -11   -1    0    0    0    0  0.00000000000E+00  0.00000000000E+00  0.45593999997E+02  0.45594000000E+02  0.51100000000E-03 0. -1.
         11   -1    0    0    0    0 -0.00000000000E+00 -0.00000000000E+00 -0.45593999997E+02  0.45594000000E+02  0.51100000000E-03 0.  1.
         23    2    1    2    0    0 -0.22204460493E-15  0.00000000000E+00  0.00000000000E+00  0.91188000000E+02  0.91188000000E+02 0.  0.
    9900012    2    3    3    0    0 -0.12352799257E+01  0.24524693464E+02  0.32406476552E+02  0.50528853077E+02  0.29999979412E+02 0.  0.
        -12    1    3    3    0    0  0.12352799257E+01 -0.24524693464E+02 -0.32406476552E+02  0.40659146923E+02  0.00000000000E+00 0.  1.
         11    1    4    4    0    0  0.59459175545E+01  0.17784073709E+02  0.28409220587E+02  0.34039844709E+02  0.51100000000E-03 0. -1.
        -11    1    4    4    0    0 -0.35592942388E+01 -0.32398035972E+01  0.33262205650E+01  0.58505253041E+01  0.51100000000E-03 0.  1.
        -12    1    4    4    0    0 -0.36219032414E+01  0.99804233522E+01  0.67103540079E+00  0.10638483063E+02  0.00000000000E+00 0.  1.
</event>
<event>
 8    1  0.4964753E-012  0.9118800E+02  0.7816164E-02  0.1184000E+00
        -11   -1    0    0    0    0  0.00000000000E+00  0.00000000000E+00  0.45593999997E+02  0.45594000000E+02  0.51100000000E-03 0. -1.
         11   -1    0    0    0    0 -0.00000000000E+00 -0.00000000000E+00 -0.45593999997E+02  0.45594000000E+02  0.51100000000E-03 0.  1.
         23    2    1    2    0    0  0.35527136788E-14  0.00000000000E+00  0.00000000000E+00  0.91188000000E+02  0.91188000000E+02 0.  0.
    9900012    2    3    3    0    0  0.27459301703E+02  0.72323127393E+01  0.29100618916E+02  0.50528860574E+02  0.30000002200E+02 0.  0.
        -12    1    3    3    0    0 -0.27459301703E+02 -0.72323127393E+01 -0.29100618916E+02  0.40659139426E+02  0.00000000000E+00 0.  1.
         11    1    4    4    0    0  0.65155863088E+01  0.24697654827E+01 -0.25535354969E+01  0.74211286394E+01  0.51100000000E-03 0. -1.
        -11    1    4    4    0    0  0.18445224090E+01  0.59427789940E+01  0.12221236562E+00  0.62236501518E+01  0.51100000000E-03 0.  1.
         12    1    4    4    0    0  0.19099192985E+02 -0.11802317374E+01  0.31531942048E+02  0.36884081782E+02  0.00000000000E+00 0. -1.
</event>
<event>
 8    1  0.4964753E-012  0.9118800E+02  0.7816164E-02  0.1184000E+00
        -11   -1    0    0    0    0  0.00000000000E+00  0.00000000000E+00  0.45593999997E+02  0.45594000000E+02  0.51100000000E-03 0. -1.
         11   -1    0    0    0    0 -0.00000000000E+00 -0.00000000000E+00 -0.45593999997E+02  0.45594000000E+02  0.51100000000E-03 0.  1.
         23    2    1    2    0    0 -0.35527136788E-14  0.35527136788E-14 -0.35527136788E-14  0.91188000000E+02  0.91188000000E+02 0.  0.
    9900012    2    3    3    0    0 -0.23928452764E+02  0.10051514993E+02  0.31297949293E+02  0.50528862832E+02  0.30000009063E+02 0.  0.
        -12    1    3    3    0    0  0.23928452764E+02 -0.10051514993E+02 -0.31297949293E+02  0.40659137168E+02  0.00000000000E+00 0.  1.
         11    1    4    4    0    0 -0.15281023730E+02  0.89363300626E+01  0.29782685579E+02  0.34646443421E+02  0.51100000000E-03 0. -1.
        -11    1    4    4    0    0 -0.10101837345E+02  0.33642657200E+01  0.47703009751E+01  0.11667097892E+02  0.51100000000E-03 0.  1.
        -12    1    4    4    0    0  0.14544083110E+01 -0.22490807896E+01 -0.32550372603E+01  0.42153215179E+01  0.00000000000E+00 0.  1.
</event>
<event>
 8    1  0.4964753E-012  0.9118800E+02  0.7816164E-02  0.1184000E+00
        -11   -1    0    0    0    0  0.00000000000E+00  0.00000000000E+00  0.45593999997E+02  0.45594000000E+02  0.51100000000E-03 0. -1.
         11   -1    0    0    0    0 -0.00000000000E+00 -0.00000000000E+00 -0.45593999997E+02  0.45594000000E+02  0.51100000000E-03 0.  1.
         23    2    1    2    0    0 -0.35527136788E-14  0.00000000000E+00  0.35527136788E-14  0.91188000000E+02  0.91188000000E+02 0.  0.
    9900012    2    3    3    0    0  0.14917590977E+02  0.29826467849E+02 -0.23259694473E+02  0.50528854757E+02  0.29999984519E+02 0.  0.
         12    1    3    3    0    0 -0.14917590977E+02 -0.29826467849E+02  0.23259694473E+02  0.40659145243E+02  0.00000000000E+00 0. -1.
         11    1    4    4    0    0  0.18520691194E+01  0.19739302445E+02 -0.74214930990E+01  0.21169524820E+02  0.51100000000E-03 0.  1.
        -11    1    4    4    0    0  0.17201484711E+02  0.45724857789E+01 -0.12043293286E+02  0.21490454064E+02  0.51100000000E-03 0. -1.
         12    1    4    4    0    0 -0.41359628533E+01  0.55146796255E+01 -0.37949080879E+01  0.78688758721E+01  0.00000000000E+00 0. -1.
</event>
<event>
 8    1  0.4964753E-012  0.9118800E+02  0.7816164E-02  0.1184000E+00
        -11   -1    0    0    0    0  0.00000000000E+00  0.00000000000E+00  0.45593999997E+02  0.45594000000E+02  0.51100000000E-03 0. -1.
         11   -1    0    0    0    0 -0.00000000000E+00 -0.00000000000E+00 -0.45593999997E+02  0.45594000000E+02  0.51100000000E-03 0.  1.
         23    2    1    2    0    0  0.00000000000E+00 -0.17763568394E-14  0.00000000000E+00  0.91188000000E+02  0.91188000000E+02 0.  0.
    9900012    2    3    3    0    0  0.31848860235E+02 -0.12260837725E+02 -0.22101776855E+02  0.50528848753E+02  0.29999966270E+02 0.  0.
         12    1    3    3    0    0 -0.31848860235E+02  0.12260837725E+02  0.22101776855E+02  0.40659151247E+02  0.00000000000E+00 0. -1.
         11    1    4    4    0    0 -0.29847481515E+01 -0.46594981517E+01 -0.52320329632E+01  0.76153669474E+01  0.51100000000E-03 0. -1.
        -11    1    4    4    0    0  0.10641985634E+02  0.15704577262E+01 -0.12805614911E+02  0.16724292787E+02  0.51100000000E-03 0.  1.
         12    1    4    4    0    0  0.24191622752E+02 -0.91717972997E+01 -0.40641289804E+01  0.26189189019E+02  0.00000000000E+00 0. -1.
</event>
<event>
 8    1  0.4964753E-012  0.9118800E+02  0.7816164E-02  0.1184000E+00
        -11   -1    0    0    0    0  0.00000000000E+00  0.00000000000E+00  0.45593999997E+02  0.45594000000E+02  0.51100000000E-03 0. -1.
         11   -1    0    0    0    0 -0.00000000000E+00 -0.00000000000E+00 -0.45593999997E+02  0.45594000000E+02  0.51100000000E-03 0.  1.
         23    2    1    2    0    0 -0.23592239273E-15  0.00000000000E+00  0.88817841970E-15  0.91188000000E+02  0.91188000000E+02 0.  0.
    9900012    2    3    3    0    0 -0.11427117322E+00 -0.39907513070E+02 -0.77809277622E+01  0.50528862108E+02  0.30000006863E+02 0.  0.
         12    1    3    3    0    0  0.11427117322E+00  0.39907513070E+02  0.77809277622E+01  0.40659137892E+02  0.00000000000E+00 0. -1.
         11    1    4    4    0    0  0.76538177830E+01 -0.42942097961E+01 -0.27718942139E+01  0.92035081475E+01  0.51100000000E-03 0. -1.
        -11    1    4    4    0    0 -0.75130928605E+01 -0.75661294657E+01 -0.76940281383E+01  0.13148800275E+02  0.51100000000E-03 0.  1.
         12    1    4    4    0    0 -0.25499609565E+00 -0.28047173808E+02  0.26849945900E+01  0.28176553685E+02  0.00000000000E+00 0. -1.
</event>
<event>
 8    1  0.4964753E-012  0.9118800E+02  0.7816164E-02  0.1184000E+00
        -11   -1    0    0    0    0  0.00000000000E+00  0.00000000000E+00  0.45593999997E+02  0.45594000000E+02  0.51100000000E-03 0. -1.
         11   -1    0    0    0    0 -0.00000000000E+00 -0.00000000000E+00 -0.45593999997E+02  0.45594000000E+02  0.51100000000E-03 0.  1.
         23    2    1    2    0    0  0.74940054162E-15 -0.35527136788E-14 -0.35527136788E-14  0.91188000000E+02  0.91188000000E+02 0.  0.
    9900012    2    3    3    0    0  0.23664920665E+00 -0.27720036920E+02 -0.29744083924E+02  0.50528843858E+02  0.29999951392E+02 0.  0.
         12    1    3    3    0    0 -0.23664920665E+00  0.27720036920E+02  0.29744083924E+02  0.40659156142E+02  0.00000000000E+00 0. -1.
         11    1    4    4    0    0 -0.13556429907E+01 -0.12200170652E+02 -0.27114553115E+00  0.12278251179E+02  0.51100000000E-03 0. -1.
        -11    1    4    4    0    0  0.87792409120E+01 -0.48795447810E+01 -0.65952079674E+01  0.12015897663E+02  0.51100000000E-03 0.  1.
        -12    1    4    4    0    0 -0.71869487146E+01 -0.10640321486E+02 -0.22877730425E+02  0.26234695016E+02  0.00000000000E+00 0.  1.
</event>
<event>
 8    1  0.4964753E-012  0.9118800E+02  0.7816164E-02  0.1184000E+00
        -11   -1    0    0    0    0  0.00000000000E+00  0.00000000000E+00  0.45593999997E+02  0.45594000000E+02  0.51100000000E-03 0.  1.
         11   -1    0    0    0    0 -0.00000000000E+00 -0.00000000000E+00 -0.45593999997E+02  0.45594000000E+02  0.51100000000E-03 0. -1.
         23    2    1    2    0    0  0.00000000000E+00  0.00000000000E+00  0.00000000000E+00  0.91188000000E+02  0.91188000000E+02 0.  0.
    9900012    2    3    3    0    0  0.38177696393E+02 -0.13868545096E+02 -0.18141875157E+01  0.50528876530E+02  0.30000050702E+02 0.  0.
         12    1    3    3    0    0 -0.38177696393E+02  0.13868545096E+02  0.18141875157E+01  0.40659123470E+02  0.00000000000E+00 0. -1.
         11    1    4    4    0    0  0.12038384882E+02 -0.15114352941E+02 -0.28589765427E+01  0.19533052054E+02  0.51100000000E-03 0. -1.
        -11    1    4    4    0    0  0.10174854477E+02 -0.26100293928E+01 -0.70849750378E+01  0.12670311307E+02  0.51100000000E-03 0.  1.
        -12    1    4    4    0    0  0.15964457034E+02  0.38558372379E+01  0.81297640648E+01  0.18325513170E+02  0.00000000000E+00 0.  1.
</event>
<event>
 8    1  0.4964753E-012  0.9118800E+02  0.7816164E-02  0.1184000E+00
        -11   -1    0    0    0    0  0.00000000000E+00  0.00000000000E+00  0.45593999997E+02  0.45594000000E+02  0.51100000000E-03 0. -1.
         11   -1    0    0    0    0 -0.00000000000E+00 -0.00000000000E+00 -0.45593999997E+02  0.45594000000E+02  0.51100000000E-03 0.  1.
         23    2    1    2    0    0 -0.35527136788E-14  0.88817841970E-15  0.00000000000E+00  0.91188000000E+02  0.91188000000E+02 0.  0.
    9900012    2    3    3    0    0 -0.31658940914E+02  0.58199723842E+01 -0.24839585251E+02  0.50528860637E+02  0.30000002391E+02 0.  0.
         12    1    3    3    0    0  0.31658940914E+02 -0.58199723842E+01  0.24839585251E+02  0.40659139363E+02  0.00000000000E+00 0. -1.
         11    1    4    4    0    0 -0.71430514383E+01 -0.31659734416E+01 -0.51454347658E+01  0.93553231304E+01  0.51100000000E-03 0. -1.
        -11    1    4    4    0    0 -0.25939899649E+02  0.99805754282E+01 -0.23878808094E+02  0.36642703993E+02  0.51100000000E-03 0.  1.
        -12    1    4    4    0    0  0.14240101734E+01 -0.99462960239E+00  0.41846576089E+01  0.45308335132E+01  0.00000000000E+00 0.  1.
</event>
<event>
 8    1  0.4964753E-012  0.9118800E+02  0.7816164E-02  0.1184000E+00
        -11   -1    0    0    0    0  0.00000000000E+00  0.00000000000E+00  0.45593999997E+02  0.45594000000E+02  0.51100000000E-03 0. -1.
         11   -1    0    0    0    0 -0.00000000000E+00 -0.00000000000E+00 -0.45593999997E+02  0.45594000000E+02  0.51100000000E-03 0.  1.
         23    2    1    2    0    0  0.00000000000E+00  0.00000000000E+00  0.00000000000E+00  0.91188000000E+02  0.91188000000E+02 0.  0.
    9900012    2    3    3    0    0  0.18232614735E+02  0.24497464871E+02 -0.26844235702E+02  0.50528843398E+02  0.29999949993E+02 0.  0.
         12    1    3    3    0    0 -0.18232614735E+02 -0.24497464871E+02  0.26844235702E+02  0.40659156602E+02  0.00000000000E+00 0. -1.
         11    1    4    4    0    0  0.86630260833E+01  0.87028522302E+01 -0.92906128180E+01  0.15398153937E+02  0.51100000000E-03 0.  1.
        -11    1    4    4    0    0  0.69602546798E+01 -0.37674791507E+01 -0.12438927732E+02  0.14743336384E+02  0.51100000000E-03 0. -1.
         12    1    4    4    0    0  0.26093339715E+01  0.19562091791E+02 -0.51146951523E+01  0.20387353078E+02  0.00000000000E+00 0. -1.
</event>
<event>
 8    1  0.4964753E-012  0.9118800E+02  0.7816164E-02  0.1184000E+00
        -11   -1    0    0    0    0  0.00000000000E+00  0.00000000000E+00  0.45593999997E+02  0.45594000000E+02  0.51100000000E-03 0. -1.
         11   -1    0    0    0    0 -0.00000000000E+00 -0.00000000000E+00 -0.45593999997E+02  0.45594000000E+02  0.51100000000E-03 0.  1.
         23    2    1    2    0    0  0.22204460493E-15  0.00000000000E+00  0.00000000000E+00  0.91188000000E+02  0.91188000000E+02 0.  0.
    9900012    2    3    3    0    0 -0.14203471626E+01 -0.32022296312E+02 -0.25014421247E+02  0.50528854443E+02  0.29999983564E+02 0.  0.
         12    1    3    3    0    0  0.14203471626E+01  0.32022296312E+02  0.25014421247E+02  0.40659145557E+02  0.00000000000E+00 0. -1.
         11    1    4    4    0    0 -0.52460574075E+01 -0.15973739585E+02 -0.67059931329E+01  0.18101155179E+02  0.51100000000E-03 0. -1.
        -11    1    4    4    0    0  0.50061110513E+00 -0.16426406204E+02 -0.29347604276E+01  0.16694018428E+02  0.51100000000E-03 0.  1.
        -12    1    4    4    0    0  0.33250991398E+01  0.37784947693E+00 -0.15373667686E+02  0.15733680836E+02  0.00000000000E+00 0.  1.
</event>
<event>
 8    1  0.4964753E-012  0.9118800E+02  0.7816164E-02  0.1184000E+00
        -11   -1    0    0    0    0  0.00000000000E+00  0.00000000000E+00  0.45593999997E+02  0.45594000000E+02  0.51100000000E-03 0. -1.
         11   -1    0    0    0    0 -0.00000000000E+00 -0.00000000000E+00 -0.45593999997E+02  0.45594000000E+02  0.51100000000E-03 0.  1.
         23    2    1    2    0    0  0.00000000000E+00  0.00000000000E+00 -0.35527136788E-14  0.91188000000E+02  0.91188000000E+02 0.  0.
    9900012    2    3    3    0    0 -0.74471846290E+01 -0.31703200428E+02 -0.24343620254E+02  0.50528864208E+02  0.30000013246E+02 0.  0.
         12    1    3    3    0    0  0.74471846290E+01  0.31703200428E+02  0.24343620254E+02  0.40659135792E+02  0.00000000000E+00 0. -1.
         11    1    4    4    0    0  0.26458676545E+01 -0.85661432947E+01  0.44574040248E+01  0.10012386204E+02  0.51100000000E-03 0.  1.
        -11    1    4    4    0    0  0.76835346329E+00  0.74548209191E+00  0.50368541098E+00  0.11831356001E+01  0.51100000000E-03 0. -1.
        -12    1    4    4    0    0 -0.10861405747E+02 -0.23882539225E+02 -0.29304709690E+02  0.39333342404E+02  0.00000000000E+00 0.  1.
</event>
<event>
 8    1  0.7952441E-012  0.9118800E+02  0.7816164E-02  0.1184000E+00
        -11   -1    0    0    0    0  0.00000000000E+00  0.00000000000E+00  0.45593999997E+02  0.45594000000E+02  0.51100000000E-03 0. -1.
         11   -1    0    0    0    0 -0.00000000000E+00 -0.00000000000E+00 -0.45593999997E+02  0.45594000000E+02  0.51100000000E-03 0.  1.
         23    2    1    2    0    0  0.00000000000E+00  0.35527136788E-14  0.35527136788E-14  0.91188000000E+02  0.91188000000E+02 0.  0.
    9900012    2    3    3    0    0 -0.22402011095E+02  0.21597219696E+02 -0.26170129659E+02  0.50528859747E+02  0.29999999688E+02 0.  0.
         12    1    3    3    0    0  0.22402011095E+02 -0.21597219696E+02  0.26170129659E+02  0.40659140253E+02  0.00000000000E+00 0. -1.
         11    1    4    4    0    0 -0.13193559545E+02  0.67221349770E+01 -0.13864395713E+02  0.20284934825E+02  0.51100000000E-03 0. -1.
        -11    1    4    4    0    0 -0.83356906001E+01  0.18219533530E+02 -0.15658290950E+02  0.25428669167E+02  0.51100000000E-03 0.  1.
         12    1    4    4    0    0 -0.87276095003E+00 -0.33444488108E+01  0.33525570041E+01  0.48152557554E+01  0.00000000000E+00 0. -1.
</event>
<event>
 8    1  0.4964753E-012  0.9118800E+02  0.7816164E-02  0.1184000E+00
        -11   -1    0    0    0    0  0.00000000000E+00  0.00000000000E+00  0.45593999997E+02  0.45594000000E+02  0.51100000000E-03 0. -1.
         11   -1    0    0    0    0 -0.00000000000E+00 -0.00000000000E+00 -0.45593999997E+02  0.45594000000E+02  0.51100000000E-03 0.  1.
         23    2    1    2    0    0  0.00000000000E+00  0.35527136788E-14  0.00000000000E+00  0.91188000000E+02  0.91188000000E+02 0.  0.
    9900012    2    3    3    0    0 -0.24397059563E+02  0.29935280277E+02  0.12721011555E+02  0.50528909312E+02  0.30000150344E+02 0.  0.
        -12    1    3    3    0    0  0.24397059563E+02 -0.29935280277E+02 -0.12721011555E+02  0.40659090688E+02  0.00000000000E+00 0.  1.
         11    1    4    4    0    0 -0.82273935180E+01  0.26665161282E+02  0.77966354140E+01  0.28974270557E+02  0.51100000000E-03 0. -1.
        -11    1    4    4    0    0 -0.56052253146E+01  0.55933037625E+01 -0.26491935315E+01  0.83499595469E+01  0.51100000000E-03 0.  1.
        -12    1    4    4    0    0 -0.10564440730E+02 -0.23231847666E+01  0.75735696725E+01  0.13204679208E+02  0.00000000000E+00 0.  1.
</event>
<event>
 8    1  0.4964753E-012  0.9118800E+02  0.7816164E-02  0.1184000E+00
        -11   -1    0    0    0    0  0.00000000000E+00  0.00000000000E+00  0.45593999997E+02  0.45594000000E+02  0.51100000000E-03 0. -1.
         11   -1    0    0    0    0 -0.00000000000E+00 -0.00000000000E+00 -0.45593999997E+02  0.45594000000E+02  0.51100000000E-03 0.  1.
         23    2    1    2    0    0  0.00000000000E+00  0.00000000000E+00  0.17763568394E-14  0.91188000000E+02  0.91188000000E+02 0.  0.
    9900012    2    3    3    0    0 -0.37239444670E+02  0.74480855678E+01 -0.14522928721E+02  0.50528859864E+02  0.30000000042E+02 0.  0.
         12    1    3    3    0    0  0.37239444670E+02 -0.74480855678E+01  0.14522928721E+02  0.40659140136E+02  0.00000000000E+00 0. -1.
         11    1    4    4    0    0 -0.10208292256E+02  0.28459394329E+01 -0.10209285508E+02  0.14715234041E+02  0.51100000000E-03 0.  1.
        -11    1    4    4    0    0 -0.73211268059E+01 -0.28169233560E+01 -0.11184417010E+02  0.13661081180E+02  0.51100000000E-03 0. -1.
        -12    1    4    4    0    0 -0.19710025608E+02  0.74190694909E+01  0.68707737966E+01  0.22152544643E+02  0.00000000000E+00 0.  1.
</event>
<event>
 8    1  0.4964753E-012  0.9118800E+02  0.7816164E-02  0.1184000E+00
        -11   -1    0    0    0    0  0.00000000000E+00  0.00000000000E+00  0.45593999997E+02  0.45594000000E+02  0.51100000000E-03 0. -1.
         11   -1    0    0    0    0 -0.00000000000E+00 -0.00000000000E+00 -0.45593999997E+02  0.45594000000E+02  0.51100000000E-03 0.  1.
         23    2    1    2    0    0  0.00000000000E+00 -0.35527136788E-14 -0.35527136788E-14  0.91188000000E+02  0.91188000000E+02 0.  0.
    9900012    2    3    3    0    0  0.21687082447E+02  0.24421308378E+02  0.24216434314E+02  0.50528861558E+02  0.30000005192E+02 0.  0.
        -12    1    3    3    0    0 -0.21687082447E+02 -0.24421308378E+02 -0.24216434314E+02  0.40659138442E+02  0.00000000000E+00 0.  1.
         11    1    4    4    0    0  0.11608821267E+01  0.28435172870E+01 -0.95852686415E+00  0.32174542551E+01  0.51100000000E-03 0. -1.
        -11    1    4    4    0    0 -0.38154046755E+01  0.85045134668E+01  0.15403681516E+02  0.18004373542E+02  0.51100000000E-03 0.  1.
         12    1    4    4    0    0  0.24341604996E+02  0.13073277625E+02  0.97712796617E+01  0.29307033760E+02  0.00000000000E+00 0. -1.
</event>
<event>
 8    1  0.4964753E-012  0.9118800E+02  0.7816164E-02  0.1184000E+00
        -11   -1    0    0    0    0  0.00000000000E+00  0.00000000000E+00  0.45593999997E+02  0.45594000000E+02  0.51100000000E-03 0. -1.
         11   -1    0    0    0    0 -0.00000000000E+00 -0.00000000000E+00 -0.45593999997E+02  0.45594000000E+02  0.51100000000E-03 0.  1.
         23    2    1    2    0    0  0.00000000000E+00 -0.88817841970E-15  0.00000000000E+00  0.91188000000E+02  0.91188000000E+02 0.  0.
    9900012    2    3    3    0    0  0.29592900705E+02 -0.29419545063E+01  0.27726720349E+02  0.50528857243E+02  0.29999992074E+02 0.  0.
        -12    1    3    3    0    0 -0.29592900705E+02  0.29419545063E+01 -0.27726720349E+02  0.40659142757E+02  0.00000000000E+00 0.  1.
         11    1    4    4    0    0 -0.39506041064E+01 -0.46049121080E+01  0.64952323644E+01  0.88882243478E+01  0.51100000000E-03 0. -1.
        -11    1    4    4    0    0  0.60696920261E+01  0.40025716808E+01  0.87429275941E+01  0.11371038850E+02  0.51100000000E-03 0.  1.
        -12    1    4    4    0    0  0.27473812785E+02 -0.23396140791E+01  0.12488560391E+02  0.30269594045E+02  0.00000000000E+00 0.  1.
</event>
<event>
 8    1  0.4964753E-012  0.9118800E+02  0.7816164E-02  0.1184000E+00
        -11   -1    0    0    0    0  0.00000000000E+00  0.00000000000E+00  0.45593999997E+02  0.45594000000E+02  0.51100000000E-03 0. -1.
         11   -1    0    0    0    0 -0.00000000000E+00 -0.00000000000E+00 -0.45593999997E+02  0.45594000000E+02  0.51100000000E-03 0.  1.
         23    2    1    2    0    0  0.44408920985E-15  0.00000000000E+00  0.00000000000E+00  0.91188000000E+02  0.91188000000E+02 0.  0.
    9900012    2    3    3    0    0  0.10238410691E+01 -0.18201460188E+01 -0.40605475066E+02  0.50528858501E+02  0.29999995901E+02 0.  0.
         12    1    3    3    0    0 -0.10238410691E+01  0.18201460188E+01  0.40605475066E+02  0.40659141499E+02  0.00000000000E+00 0. -1.
         11    1    4    4    0    0  0.99391731491E+01  0.52658835582E+00 -0.75857196236E+01  0.12514295851E+02  0.51100000000E-03 0. -1.
        -11    1    4    4    0    0  0.33751168561E+01 -0.28873558466E+01 -0.18297268529E+02  0.18828655647E+02  0.51100000000E-03 0.  1.
         12    1    4    4    0    0 -0.12290448936E+02  0.54062147199E+00 -0.14722486913E+02  0.19185907003E+02  0.00000000000E+00 0. -1.
</event>
<event>
 8    1  0.4964753E-012  0.9118800E+02  0.7816164E-02  0.1184000E+00
        -11   -1    0    0    0    0  0.00000000000E+00  0.00000000000E+00  0.45593999997E+02  0.45594000000E+02  0.51100000000E-03 0. -1.
         11   -1    0    0    0    0 -0.00000000000E+00 -0.00000000000E+00 -0.45593999997E+02  0.45594000000E+02  0.51100000000E-03 0.  1.
         23    2    1    2    0    0  0.00000000000E+00 -0.88817841970E-15 -0.71054273576E-14  0.91188000000E+02  0.91188000000E+02 0.  0.
    9900012    2    3    3    0    0 -0.21494067754E+02  0.32459712045E+01  0.34360371366E+02  0.50528850991E+02  0.29999973073E+02 0.  0.
        -12    1    3    3    0    0  0.21494067754E+02 -0.32459712045E+01 -0.34360371366E+02  0.40659149009E+02  0.00000000000E+00 0.  1.
         11    1    4    4    0    0 -0.83388145353E+01 -0.41794054061E+01  0.11255498270E+00  0.93282327526E+01  0.51100000000E-03 0. -1.
        -11    1    4    4    0    0 -0.50951374468E+01  0.55435697402E+01  0.18378092235E+01  0.77504279926E+01  0.51100000000E-03 0.  1.
         12    1    4    4    0    0 -0.80601157723E+01  0.18818068705E+01  0.32410007160E+02  0.33450190246E+02  0.00000000000E+00 0. -1.
</event>
<event>
 8    1  0.4964753E-012  0.9118800E+02  0.7816164E-02  0.1184000E+00
        -11   -1    0    0    0    0  0.00000000000E+00  0.00000000000E+00  0.45593999997E+02  0.45594000000E+02  0.51100000000E-03 0. -1.
         11   -1    0    0    0    0 -0.00000000000E+00 -0.00000000000E+00 -0.45593999997E+02  0.45594000000E+02  0.51100000000E-03 0.  1.
         23    2    1    2    0    0 -0.17763568394E-14  0.35527136788E-14  0.00000000000E+00  0.91188000000E+02  0.91188000000E+02 0.  0.
    9900012    2    3    3    0    0 -0.12860713178E+02  0.13640249966E+02 -0.36079233713E+02  0.50528862430E+02  0.30000007842E+02 0.  0.
         12    1    3    3    0    0  0.12860713178E+02 -0.13640249966E+02  0.36079233713E+02  0.40659137570E+02  0.00000000000E+00 0. -1.
         11    1    4    4    0    0  0.29539547060E+01  0.10251629539E+01 -0.16057761438E+02  0.16359355432E+02  0.51100000000E-03 0. -1.
        -11    1    4    4    0    0 -0.16044772252E+01  0.13166490125E+02 -0.75959735006E+01  0.15284947597E+02  0.51100000000E-03 0.  1.
         12    1    4    4    0    0 -0.14210190659E+02 -0.55140311235E+00 -0.12425498774E+02  0.18884559401E+02  0.00000000000E+00 0. -1.
</event>
<event>
 8    1  0.4964753E-012  0.9118800E+02  0.7816164E-02  0.1184000E+00
        -11   -1    0    0    0    0  0.00000000000E+00  0.00000000000E+00  0.45593999997E+02  0.45594000000E+02  0.51100000000E-03 0. -1.
         11   -1    0    0    0    0 -0.00000000000E+00 -0.00000000000E+00 -0.45593999997E+02  0.45594000000E+02  0.51100000000E-03 0.  1.
         23    2    1    2    0    0  0.00000000000E+00  0.00000000000E+00  0.00000000000E+00  0.91188000000E+02  0.91188000000E+02 0.  0.
    9900012    2    3    3    0    0 -0.16395077124E+02 -0.18100464950E+02  0.32507542187E+02  0.50528859768E+02  0.29999999752E+02 0.  0.
        -12    1    3    3    0    0  0.16395077124E+02  0.18100464950E+02 -0.32507542187E+02  0.40659140232E+02  0.00000000000E+00 0.  1.
         11    1    4    4    0    0 -0.53456017872E+00  0.33872021672E+01  0.11849612095E+01  0.36280885375E+01  0.51100000000E-03 0.  1.
        -11    1    4    4    0    0 -0.17329936739E+02 -0.20194974652E+02  0.15173024670E+02  0.30633060351E+02  0.51100000000E-03 0. -1.
         12    1    4    4    0    0  0.14694197931E+01 -0.12926924651E+01  0.16149556308E+02  0.16267710880E+02  0.00000000000E+00 0. -1.
</event>
<event>
 8    1  0.4964753E-012  0.9118800E+02  0.7816164E-02  0.1184000E+00
        -11   -1    0    0    0    0  0.00000000000E+00  0.00000000000E+00  0.45593999997E+02  0.45594000000E+02  0.51100000000E-03 0. -1.
         11   -1    0    0    0    0 -0.00000000000E+00 -0.00000000000E+00 -0.45593999997E+02  0.45594000000E+02  0.51100000000E-03 0.  1.
         23    2    1    2    0    0  0.00000000000E+00 -0.44408920985E-15  0.00000000000E+00  0.91188000000E+02  0.91188000000E+02 0.  0.
    9900012    2    3    3    0    0 -0.27803984835E+02 -0.30821137716E+01  0.29505999002E+02  0.50528868491E+02  0.30000026264E+02 0.  0.
        -12    1    3    3    0    0  0.27803984835E+02  0.30821137716E+01 -0.29505999002E+02  0.40659131509E+02  0.00000000000E+00 0.  1.
         11    1    4    4    0    0 -0.11129310515E+02 -0.23852814266E+01  0.62405276127E+01  0.12980574147E+02  0.51100000000E-03 0. -1.
        -11    1    4    4    0    0 -0.37237505014E+01 -0.63005401537E+01 -0.28581844284E+01  0.78569932234E+01  0.51100000000E-03 0.  1.
        -12    1    4    4    0    0 -0.12950923818E+02  0.56037078087E+01  0.26123655818E+02  0.29691301121E+02  0.00000000000E+00 0.  1.
</event>
<event>
 8    1  0.4964753E-012  0.9118800E+02  0.7816164E-02  0.1184000E+00
        -11   -1    0    0    0    0  0.00000000000E+00  0.00000000000E+00  0.45593999997E+02  0.45594000000E+02  0.51100000000E-03 0. -1.
         11   -1    0    0    0    0 -0.00000000000E+00 -0.00000000000E+00 -0.45593999997E+02  0.45594000000E+02  0.51100000000E-03 0.  1.
         23    2    1    2    0    0  0.00000000000E+00  0.00000000000E+00  0.00000000000E+00  0.91188000000E+02  0.91188000000E+02 0.  0.
    9900012    2    3    3    0    0 -0.31883408672E+02  0.28716268696E+01  0.25067262138E+02  0.50528860554E+02  0.30000002138E+02 0.  0.
        -12    1    3    3    0    0  0.31883408672E+02 -0.28716268696E+01 -0.25067262138E+02  0.40659139446E+02  0.00000000000E+00 0.  1.
         11    1    4    4    0    0 -0.61725988203E+01  0.77678565694E+01  0.55165302624E+01  0.11352210282E+02  0.51100000000E-03 0.  1.
        -11    1    4    4    0    0 -0.13784793784E+02 -0.11005819427E+02  0.30183991047E+01  0.17895790967E+02  0.51100000000E-03 0. -1.
         12    1    4    4    0    0 -0.11926016068E+02  0.61095897277E+01  0.16532332771E+02  0.21280859305E+02  0.00000000000E+00 0. -1.
</event>
<event>
 8    1  0.4964753E-012  0.9118800E+02  0.7816164E-02  0.1184000E+00
        -11   -1    0    0    0    0  0.00000000000E+00  0.00000000000E+00  0.45593999997E+02  0.45594000000E+02  0.51100000000E-03 0. -1.
         11   -1    0    0    0    0 -0.00000000000E+00 -0.00000000000E+00 -0.45593999997E+02  0.45594000000E+02  0.51100000000E-03 0.  1.
         23    2    1    2    0    0 -0.17763568394E-14 -0.88817841970E-15 -0.71054273576E-14  0.91188000000E+02  0.91188000000E+02 0.  0.
    9900012    2    3    3    0    0  0.82912095934E+01 -0.52731877862E+01  0.39453957337E+02  0.50528863075E+02  0.30000009802E+02 0.  0.
        -12    1    3    3    0    0 -0.82912095934E+01  0.52731877862E+01 -0.39453957337E+02  0.40659136925E+02  0.00000000000E+00 0.  1.
         11    1    4    4    0    0  0.12977348118E+02 -0.13096603295E+02  0.31637128839E+02  0.36617489038E+02  0.51100000000E-03 0. -1.
        -11    1    4    4    0    0 -0.14981628780E+01  0.29644840644E+01  0.73686958785E+01  0.80827184158E+01  0.51100000000E-03 0.  1.
        -12    1    4    4    0    0 -0.31879756461E+01  0.48589314443E+01  0.44813261952E+00  0.58286556207E+01  0.00000000000E+00 0.  1.
</event>
<event>
 8    1  0.4964753E-012  0.9118800E+02  0.7816164E-02  0.1184000E+00
        -11   -1    0    0    0    0  0.00000000000E+00  0.00000000000E+00  0.45593999997E+02  0.45594000000E+02  0.51100000000E-03 0.  1.
         11   -1    0    0    0    0 -0.00000000000E+00 -0.00000000000E+00 -0.45593999997E+02  0.45594000000E+02  0.51100000000E-03 0. -1.
         23    2    1    2    0    0  0.44408920985E-15  0.00000000000E+00  0.00000000000E+00  0.91188000000E+02  0.91188000000E+02 0.  0.
    9900012    2    3    3    0    0 -0.30950143334E+01  0.40100294620E+02 -0.59624478482E+01  0.50528886302E+02  0.30000080405E+02 0.  0.
         12    1    3    3    0    0  0.30950143334E+01 -0.40100294620E+02  0.59624478482E+01  0.40659113698E+02  0.00000000000E+00 0. -1.
         11    1    4    4    0    0 -0.31214396212E+01  0.12374332846E+02  0.56075187427E+01  0.13939575510E+02  0.51100000000E-03 0.  1.
        -11    1    4    4    0    0  0.25021111386E+01 -0.18371472218E+01  0.22775331885E+01  0.38500425647E+01  0.51100000000E-03 0. -1.
         12    1    4    4    0    0 -0.24756858508E+01  0.29563108996E+02 -0.13847499779E+02  0.32739268228E+02  0.00000000000E+00 0. -1.
</event>
<event>
 8    1  0.4964753E-012  0.9118800E+02  0.7816164E-02  0.1184000E+00
        -11   -1    0    0    0    0  0.00000000000E+00  0.00000000000E+00  0.45593999997E+02  0.45594000000E+02  0.51100000000E-03 0. -1.
         11   -1    0    0    0    0 -0.00000000000E+00 -0.00000000000E+00 -0.45593999997E+02  0.45594000000E+02  0.51100000000E-03 0.  1.
         23    2    1    2    0    0 -0.35527136788E-14 -0.71054273576E-14  0.88817841970E-15  0.91188000000E+02  0.91188000000E+02 0.  0.
    9900012    2    3    3    0    0  0.26366669429E+02  0.29950066650E+02 -0.78075604518E+01  0.50528858970E+02  0.29999997324E+02 0.  0.
         12    1    3    3    0    0 -0.26366669429E+02 -0.29950066650E+02  0.78075604518E+01  0.40659141030E+02  0.00000000000E+00 0. -1.
         11    1    4    4    0    0  0.38178066891E+01  0.12669054575E+01  0.67705905147E+01  0.78753789453E+01  0.51100000000E-03 0. -1.
        -11    1    4    4    0    0  0.23305649572E+01  0.15794487408E+02 -0.40779507861E+01  0.16478077812E+02  0.51100000000E-03 0.  1.
         12    1    4    4    0    0  0.20218297783E+02  0.12888673785E+02 -0.10500200180E+02  0.26175402213E+02  0.00000000000E+00 0. -1.
</event>
<event>
 8    1  0.5310812E-012  0.9118800E+02  0.7816164E-02  0.1184000E+00
        -11   -1    0    0    0    0  0.00000000000E+00  0.00000000000E+00  0.45593999997E+02  0.45594000000E+02  0.51100000000E-03 0. -1.
         11   -1    0    0    0    0 -0.00000000000E+00 -0.00000000000E+00 -0.45593999997E+02  0.45594000000E+02  0.51100000000E-03 0.  1.
         23    2    1    2    0    0  0.00000000000E+00  0.35527136788E-14  0.00000000000E+00  0.91188000000E+02  0.91188000000E+02 0.  0.
    9900012    2    3    3    0    0  0.66492079378E+01  0.18247687242E+02 -0.35720806026E+02  0.50528855407E+02  0.29999986496E+02 0.  0.
         12    1    3    3    0    0 -0.66492079378E+01 -0.18247687242E+02  0.35720806026E+02  0.40659144593E+02  0.00000000000E+00 0. -1.
         11    1    4    4    0    0  0.44863558296E+01  0.13076577559E+01 -0.17314371664E+02  0.17933901523E+02  0.51100000000E-03 0. -1.
        -11    1    4    4    0    0  0.28317771805E+01  0.14101557141E+02 -0.23015897408E+02  0.27140457062E+02  0.51100000000E-03 0.  1.
         12    1    4    4    0    0 -0.66892507232E+00  0.28384723448E+01  0.46094630466E+01  0.54544968221E+01  0.00000000000E+00 0. -1.
</event>
<event>
 8    1  0.4964753E-012  0.9118800E+02  0.7816164E-02  0.1184000E+00
        -11   -1    0    0    0    0  0.00000000000E+00  0.00000000000E+00  0.45593999997E+02  0.45594000000E+02  0.51100000000E-03 0. -1.
         11   -1    0    0    0    0 -0.00000000000E+00 -0.00000000000E+00 -0.45593999997E+02  0.45594000000E+02  0.51100000000E-03 0.  1.
         23    2    1    2    0    0  0.13322676296E-14 -0.88817841970E-15  0.71054273576E-14  0.91188000000E+02  0.91188000000E+02 0.  0.
    9900012    2    3    3    0    0 -0.24734168535E+01 -0.61399207983E+01  0.40116693734E+02  0.50528861612E+02  0.30000005354E+02 0.  0.
        -12    1    3    3    0    0  0.24734168535E+01  0.61399207983E+01 -0.40116693734E+02  0.40659138388E+02  0.00000000000E+00 0.  1.
         11    1    4    4    0    0 -0.65603025446E+01  0.19569220044E+01  0.21701214105E+02  0.22755434671E+02  0.51100000000E-03 0. -1.
        -11    1    4    4    0    0 -0.18882555604E-01  0.54359217743E+01  0.13334480880E+01  0.55971140913E+01  0.51100000000E-03 0.  1.
         12    1    4    4    0    0  0.41057682466E+01 -0.13532764577E+02  0.17082031541E+02  0.22176312849E+02  0.00000000000E+00 0. -1.
</event>
<event>
 8    1  0.4964753E-012  0.9118800E+02  0.7816164E-02  0.1184000E+00
        -11   -1    0    0    0    0  0.00000000000E+00  0.00000000000E+00  0.45593999997E+02  0.45594000000E+02  0.51100000000E-03 0. -1.
         11   -1    0    0    0    0 -0.00000000000E+00 -0.00000000000E+00 -0.45593999997E+02  0.45594000000E+02  0.51100000000E-03 0.  1.
         23    2    1    2    0    0 -0.71054273576E-14  0.17763568394E-14  0.00000000000E+00  0.91188000000E+02  0.91188000000E+02 0.  0.
    9900012    2    3    3    0    0 -0.35107110943E+02  0.43074096319E+01 -0.20052547676E+02  0.50528835168E+02  0.29999924977E+02 0.  0.
         12    1    3    3    0    0  0.35107110943E+02 -0.43074096319E+01  0.20052547676E+02  0.40659164832E+02  0.00000000000E+00 0. -1.
         11    1    4    4    0    0 -0.18314251232E+01  0.33060244547E+01 -0.71596664911E+01  0.80959706152E+01  0.51100000000E-03 0. -1.
        -11    1    4    4    0    0 -0.93923223200E+01 -0.10304988534E+02 -0.33665183602E+01  0.14343707797E+02  0.51100000000E-03 0.  1.
        -12    1    4    4    0    0 -0.23883363500E+02  0.11306373711E+02 -0.95263628251E+01  0.28089156756E+02  0.00000000000E+00 0.  1.
</event>
<event>
 8    1  0.4964753E-012  0.9118800E+02  0.7816164E-02  0.1184000E+00
        -11   -1    0    0    0    0  0.00000000000E+00  0.00000000000E+00  0.45593999997E+02  0.45594000000E+02  0.51100000000E-03 0. -1.
         11   -1    0    0    0    0 -0.00000000000E+00 -0.00000000000E+00 -0.45593999997E+02  0.45594000000E+02  0.51100000000E-03 0.  1.
         23    2    1    2    0    0  0.00000000000E+00  0.35527136788E-14  0.00000000000E+00  0.91188000000E+02  0.91188000000E+02 0.  0.
    9900012    2    3    3    0    0  0.63124650405E+01  0.29669605400E+02 -0.27074593092E+02  0.50528852314E+02  0.29999977093E+02 0.  0.
         12    1    3    3    0    0 -0.63124650405E+01 -0.29669605400E+02  0.27074593092E+02  0.40659147686E+02  0.00000000000E+00 0. -1.
         11    1    4    4    0    0 -0.47909302239E+01  0.11801804763E+02 -0.11131458785E+01  0.12785722588E+02  0.51100000000E-03 0. -1.
        -11    1    4    4    0    0  0.80004947062E+01  0.14736856591E+02 -0.68228014183E+01  0.18103410651E+02  0.51100000000E-03 0.  1.
        -12    1    4    4    0    0  0.31029005583E+01  0.31309440459E+01 -0.19138645795E+02  0.19639719075E+02  0.00000000000E+00 0.  1.
</event>
<event>
 8    1  0.4964753E-012  0.9118800E+02  0.7816164E-02  0.1184000E+00
        -11   -1    0    0    0    0  0.00000000000E+00  0.00000000000E+00  0.45593999997E+02  0.45594000000E+02  0.51100000000E-03 0. -1.
         11   -1    0    0    0    0 -0.00000000000E+00 -0.00000000000E+00 -0.45593999997E+02  0.45594000000E+02  0.51100000000E-03 0.  1.
         23    2    1    2    0    0 -0.17763568394E-14  0.00000000000E+00  0.00000000000E+00  0.91188000000E+02  0.91188000000E+02 0.  0.
    9900012    2    3    3    0    0  0.86984964762E+01 -0.36274605242E+02  0.16175769320E+02  0.50528851712E+02  0.29999975264E+02 0.  0.
        -12    1    3    3    0    0 -0.86984964762E+01  0.36274605242E+02 -0.16175769320E+02  0.40659148288E+02  0.00000000000E+00 0.  1.
         11    1    4    4    0    0  0.58751875671E+01 -0.45033448571E+01  0.69940705487E+01  0.10184054544E+02  0.51100000000E-03 0.  1.
        -11    1    4    4    0    0  0.10687250729E+02 -0.27622811867E+02  0.10356052837E+02  0.31376502262E+02  0.51100000000E-03 0. -1.
        -12    1    4    4    0    0 -0.78639418199E+01 -0.41484485176E+01 -0.11743540658E+01  0.89682949061E+01  0.00000000000E+00 0.  1.
</event>
<event>
 8    1  0.4964753E-012  0.9118800E+02  0.7816164E-02  0.1184000E+00
        -11   -1    0    0    0    0  0.00000000000E+00  0.00000000000E+00  0.45593999997E+02  0.45594000000E+02  0.51100000000E-03 0. -1.
         11   -1    0    0    0    0 -0.00000000000E+00 -0.00000000000E+00 -0.45593999997E+02  0.45594000000E+02  0.51100000000E-03 0.  1.
         23    2    1    2    0    0  0.00000000000E+00  0.00000000000E+00  0.00000000000E+00  0.91188000000E+02  0.91188000000E+02 0.  0.
    9900012    2    3    3    0    0  0.85660107866E+01  0.55901880861E+01  0.39351478195E+02  0.50528861055E+02  0.30000003663E+02 0.  0.
        -12    1    3    3    0    0 -0.85660107866E+01 -0.55901880861E+01 -0.39351478195E+02  0.40659138945E+02  0.00000000000E+00 0.  1.
         11    1    4    4    0    0  0.10110441991E+02  0.51823265723E+01  0.34884439310E+02  0.36687895173E+02  0.51100000000E-03 0. -1.
        -11    1    4    4    0    0 -0.23236194227E+01 -0.35485279837E+01  0.76208419052E+01  0.87217251549E+01  0.51100000000E-03 0.  1.
        -12    1    4    4    0    0  0.77918821850E+00  0.39563894974E+01 -0.31538030208E+01  0.51192407278E+01  0.00000000000E+00 0.  1.
</event>
<event>
 8    1  0.4964753E-012  0.9118800E+02  0.7816164E-02  0.1184000E+00
        -11   -1    0    0    0    0  0.00000000000E+00  0.00000000000E+00  0.45593999997E+02  0.45594000000E+02  0.51100000000E-03 0. -1.
         11   -1    0    0    0    0 -0.00000000000E+00 -0.00000000000E+00 -0.45593999997E+02  0.45594000000E+02  0.51100000000E-03 0.  1.
         23    2    1    2    0    0 -0.35527136788E-14 -0.17763568394E-14 -0.35527136788E-14  0.91188000000E+02  0.91188000000E+02 0.  0.
    9900012    2    3    3    0    0 -0.31539421098E+02 -0.10338434700E+02 -0.23485055971E+02  0.50528853807E+02  0.29999981630E+02 0.  0.
         12    1    3    3    0    0  0.31539421098E+02  0.10338434700E+02  0.23485055971E+02  0.40659146193E+02  0.00000000000E+00 0. -1.
         11    1    4    4    0    0 -0.13346335881E+02 -0.17512162286E+02 -0.46156178240E+01  0.22496765046E+02  0.51100000000E-03 0.  1.
        -11    1    4    4    0    0 -0.51606257264E+01 -0.76942623083E+00 -0.68176476631E+01  0.85851263550E+01  0.51100000000E-03 0. -1.
        -12    1    4    4    0    0 -0.13032459490E+02  0.79431538171E+01 -0.12051790484E+02  0.19446962405E+02  0.00000000000E+00 0.  1.
</event>
<event>
 8    1  0.4964753E-012  0.9118800E+02  0.7816164E-02  0.1184000E+00
        -11   -1    0    0    0    0  0.00000000000E+00  0.00000000000E+00  0.45593999997E+02  0.45594000000E+02  0.51100000000E-03 0. -1.
         11   -1    0    0    0    0 -0.00000000000E+00 -0.00000000000E+00 -0.45593999997E+02  0.45594000000E+02  0.51100000000E-03 0.  1.
         23    2    1    2    0    0  0.00000000000E+00  0.00000000000E+00  0.71054273576E-14  0.91188000000E+02  0.91188000000E+02 0.  0.
    9900012    2    3    3    0    0  0.60976796689E+01  0.15578640561E+02 -0.37057899106E+02  0.50528885090E+02  0.30000076720E+02 0.  0.
         12    1    3    3    0    0 -0.60976796689E+01 -0.15578640561E+02  0.37057899106E+02  0.40659114910E+02  0.00000000000E+00 0. -1.
         11    1    4    4    0    0  0.63456854890E+01 -0.22706315633E+01 -0.13833699413E+02  0.15388136071E+02  0.51100000000E-03 0. -1.
        -11    1    4    4    0    0 -0.72873438472E+01  0.46165412475E+01 -0.16694519212E+02  0.18791615296E+02  0.51100000000E-03 0.  1.
        -12    1    4    4    0    0  0.70393380272E+01  0.13232730877E+02 -0.65296804814E+01  0.16349133724E+02  0.00000000000E+00 0.  1.
</event>
<event>
 8    1  0.5676444E-012  0.9118800E+02  0.7816164E-02  0.1184000E+00
        -11   -1    0    0    0    0  0.00000000000E+00  0.00000000000E+00  0.45593999997E+02  0.45594000000E+02  0.51100000000E-03 0. -1.
         11   -1    0    0    0    0 -0.00000000000E+00 -0.00000000000E+00 -0.45593999997E+02  0.45594000000E+02  0.51100000000E-03 0.  1.
         23    2    1    2    0    0 -0.35527136788E-14  0.88817841970E-15  0.00000000000E+00  0.91188000000E+02  0.91188000000E+02 0.  0.
    9900012    2    3    3    0    0 -0.19861606433E+02  0.74310008593E+01 -0.34690957334E+02  0.50528859519E+02  0.29999998994E+02 0.  0.
         12    1    3    3    0    0  0.19861606433E+02 -0.74310008593E+01  0.34690957334E+02  0.40659140481E+02  0.00000000000E+00 0. -1.
         11    1    4    4    0    0 -0.19006283871E+01 -0.51536785967E+00  0.34953869579E+01  0.40119474751E+01  0.51100000000E-03 0. -1.
        -11    1    4    4    0    0 -0.17692785515E+02  0.95283631151E+01 -0.20319199699E+02  0.28577862754E+02  0.51100000000E-03 0.  1.
         12    1    4    4    0    0 -0.26819253115E+00 -0.15819943962E+01 -0.17867144594E+02  0.17939049290E+02  0.00000000000E+00 0. -1.
</event>
<event>
 8    1  0.4964753E-012  0.9118800E+02  0.7816164E-02  0.1184000E+00
        -11   -1    0    0    0    0  0.00000000000E+00  0.00000000000E+00  0.45593999997E+02  0.45594000000E+02  0.51100000000E-03 0. -1.
         11   -1    0    0    0    0 -0.00000000000E+00 -0.00000000000E+00 -0.45593999997E+02  0.45594000000E+02  0.51100000000E-03 0.  1.
         23    2    1    2    0    0  0.00000000000E+00  0.00000000000E+00  0.00000000000E+00  0.91188000000E+02  0.91188000000E+02 0.  0.
    9900012    2    3    3    0    0 -0.28948984222E+02 -0.55177761221E+01 -0.28012079091E+02  0.50528854463E+02  0.29999983625E+02 0.  0.
         12    1    3    3    0    0  0.28948984222E+02  0.55177761221E+01  0.28012079091E+02  0.40659145537E+02  0.00000000000E+00 0. -1.
         11    1    4    4    0    0 -0.22397749991E+01 -0.16943411059E+01  0.41854319321E+01  0.50403595655E+01  0.51100000000E-03 0. -1.
        -11    1    4    4    0    0 -0.56478605637E+01  0.64304147971E+01 -0.67422064790E+01  0.10895224269E+02  0.51100000000E-03 0.  1.
        -12    1    4    4    0    0 -0.21061348659E+02 -0.10253849813E+02 -0.25455304544E+02  0.34593270628E+02  0.00000000000E+00 0.  1.
</event>
<event>
 8    1  0.4964753E-012  0.9118800E+02  0.7816164E-02  0.1184000E+00
        -11   -1    0    0    0    0  0.00000000000E+00  0.00000000000E+00  0.45593999997E+02  0.45594000000E+02  0.51100000000E-03 0. -1.
         11   -1    0    0    0    0 -0.00000000000E+00 -0.00000000000E+00 -0.45593999997E+02  0.45594000000E+02  0.51100000000E-03 0.  1.
         23    2    1    2    0    0  0.00000000000E+00  0.35527136788E-14 -0.17763568394E-14  0.91188000000E+02  0.91188000000E+02 0.  0.
    9900012    2    3    3    0    0  0.23837878795E+02  0.30728856752E+02 -0.11859967951E+02  0.50528856594E+02  0.29999990102E+02 0.  0.
         12    1    3    3    0    0 -0.23837878795E+02 -0.30728856752E+02  0.11859967951E+02  0.40659143406E+02  0.00000000000E+00 0. -1.
         11    1    4    4    0    0  0.66982715052E+00  0.57639989243E+01 -0.64542274196E+01  0.86792513419E+01  0.51100000000E-03 0. -1.
        -11    1    4    4    0    0 -0.10038085733E+01  0.45596651263E+01 -0.88737117680E+01  0.10027010448E+02  0.51100000000E-03 0.  1.
         12    1    4    4    0    0  0.24171860218E+02  0.20405192701E+02  0.34679712361E+01  0.31822594804E+02  0.00000000000E+00 0. -1.
</event>
<event>
 8    1  0.4964753E-012  0.9118800E+02  0.7816164E-02  0.1184000E+00
        -11   -1    0    0    0    0  0.00000000000E+00  0.00000000000E+00  0.45593999997E+02  0.45594000000E+02  0.51100000000E-03 0. -1.
         11   -1    0    0    0    0 -0.00000000000E+00 -0.00000000000E+00 -0.45593999997E+02  0.45594000000E+02  0.51100000000E-03 0.  1.
         23    2    1    2    0    0  0.00000000000E+00  0.17763568394E-14 -0.71054273576E-14  0.91188000000E+02  0.91188000000E+02 0.  0.
    9900012    2    3    3    0    0  0.16599390185E+02  0.14119499132E+02 -0.34325870781E+02  0.50528863079E+02  0.30000009815E+02 0.  0.
         12    1    3    3    0    0 -0.16599390185E+02 -0.14119499132E+02  0.34325870781E+02  0.40659136921E+02  0.00000000000E+00 0. -1.
         11    1    4    4    0    0  0.40444215863E+01 -0.78042701764E+01 -0.40874096816E+01  0.96938587323E+01  0.51100000000E-03 0. -1.
        -11    1    4    4    0    0  0.43398202667E+01  0.68225417323E+01 -0.17999272534E+02  0.19732078645E+02  0.51100000000E-03 0.  1.
        -12    1    4    4    0    0  0.82151483321E+01  0.15101227577E+02 -0.12239188566E+02  0.21102925702E+02  0.00000000000E+00 0.  1.
</event>
<event>
 8    1  0.4964753E-012  0.9118800E+02  0.7816164E-02  0.1184000E+00
        -11   -1    0    0    0    0  0.00000000000E+00  0.00000000000E+00  0.45593999997E+02  0.45594000000E+02  0.51100000000E-03 0. -1.
         11   -1    0    0    0    0 -0.00000000000E+00 -0.00000000000E+00 -0.45593999997E+02  0.45594000000E+02  0.51100000000E-03 0.  1.
         23    2    1    2    0    0  0.35527136788E-14 -0.38857805862E-15  0.71054273576E-14  0.91188000000E+02  0.91188000000E+02 0.  0.
    9900012    2    3    3    0    0  0.14262820943E+02  0.90150697699E-01  0.38075322354E+02  0.50528851451E+02  0.29999974471E+02 0.  0.
        -12    1    3    3    0    0 -0.14262820943E+02 -0.90150697699E-01 -0.38075322354E+02  0.40659148549E+02  0.00000000000E+00 0.  1.
         11    1    4    4    0    0 -0.47478679678E+00  0.61180080070E+01 -0.77875459109E+00  0.61856207005E+01  0.51100000000E-03 0. -1.
        -11    1    4    4    0    0  0.81149993549E+01 -0.22959027655E+01  0.53494075947E+01  0.99870188702E+01  0.51100000000E-03 0.  1.
         12    1    4    4    0    0  0.66226083844E+01 -0.37319545439E+01  0.33504669350E+02  0.34356211880E+02  0.00000000000E+00 0. -1.
</event>
<event>
 8    1  0.6125115E-012  0.9118800E+02  0.7816164E-02  0.1184000E+00
        -11   -1    0    0    0    0  0.00000000000E+00  0.00000000000E+00  0.45593999997E+02  0.45594000000E+02  0.51100000000E-03 0. -1.
         11   -1    0    0    0    0 -0.00000000000E+00 -0.00000000000E+00 -0.45593999997E+02  0.45594000000E+02  0.51100000000E-03 0.  1.
         23    2    1    2    0    0 -0.71054273576E-14  0.00000000000E+00  0.00000000000E+00  0.91188000000E+02  0.91188000000E+02 0.  0.
    9900012    2    3    3    0    0  0.30554116564E+02  0.17183183347E+02 -0.20599772711E+02  0.50528850172E+02  0.29999970584E+02 0.  0.
         12    1    3    3    0    0 -0.30554116564E+02 -0.17183183347E+02  0.20599772711E+02  0.40659149828E+02  0.00000000000E+00 0. -1.
         11    1    4    4    0    0 -0.42341013692E+00  0.84825745494E+01 -0.37501376311E+01  0.92842274661E+01  0.51100000000E-03 0. -1.
        -11    1    4    4    0    0  0.24041936734E+02  0.14948234165E+02 -0.12537601531E+02  0.30962168512E+02  0.51100000000E-03 0.  1.
         12    1    4    4    0    0  0.69355899677E+01 -0.62476253675E+01 -0.43120335490E+01  0.10282454194E+02  0.00000000000E+00 0. -1.
</event>
<event>
 8    1  0.4964753E-012  0.9118800E+02  0.7816164E-02  0.1184000E+00
        -11   -1    0    0    0    0  0.00000000000E+00  0.00000000000E+00  0.45593999997E+02  0.45594000000E+02  0.51100000000E-03 0. -1.
         11   -1    0    0    0    0 -0.00000000000E+00 -0.00000000000E+00 -0.45593999997E+02  0.45594000000E+02  0.51100000000E-03 0.  1.
         23    2    1    2    0    0  0.00000000000E+00  0.17763568394E-14 -0.35527136788E-14  0.91188000000E+02  0.91188000000E+02 0.  0.
    9900012    2    3    3    0    0  0.35457186378E+02 -0.40266224416E+01  0.19486930892E+02  0.50528853062E+02  0.29999979367E+02 0.  0.
        -12    1    3    3    0    0 -0.35457186378E+02  0.40266224416E+01 -0.19486930892E+02  0.40659146938E+02  0.00000000000E+00 0.  1.
         11    1    4    4    0    0  0.11751967625E+02 -0.83566723393E+01 -0.81687456299E+00  0.14443337563E+02  0.51100000000E-03 0. -1.
        -11    1    4    4    0    0 -0.11390769307E+01 -0.19317608148E+01  0.67235988565E+01  0.70877343308E+01  0.51100000000E-03 0.  1.
         12    1    4    4    0    0  0.24844295684E+02  0.62618107126E+01  0.13580206599E+02  0.28997781168E+02  0.00000000000E+00 0. -1.
</event>
<event>
 8    1  0.4964753E-012  0.9118800E+02  0.7816164E-02  0.1184000E+00
        -11   -1    0    0    0    0  0.00000000000E+00  0.00000000000E+00  0.45593999997E+02  0.45594000000E+02  0.51100000000E-03 0. -1.
         11   -1    0    0    0    0 -0.00000000000E+00 -0.00000000000E+00 -0.45593999997E+02  0.45594000000E+02  0.51100000000E-03 0.  1.
         23    2    1    2    0    0  0.88817841970E-15 -0.35527136788E-14  0.00000000000E+00  0.91188000000E+02  0.91188000000E+02 0.  0.
    9900012    2    3    3    0    0 -0.40733073514E+01  0.31667501408E+02  0.25174243749E+02  0.50528867858E+02  0.30000024341E+02 0.  0.
        -12    1    3    3    0    0  0.40733073514E+01 -0.31667501408E+02 -0.25174243749E+02  0.40659132142E+02  0.00000000000E+00 0.  1.
         11    1    4    4    0    0 -0.35164957707E+01 -0.29859516134E+01  0.57942728498E+01  0.74064328568E+01  0.51100000000E-03 0. -1.
        -11    1    4    4    0    0  0.57045808216E+01  0.33902214681E+01  0.35127298631E+01  0.75083363873E+01  0.51100000000E-03 0.  1.
         12    1    4    4    0    0 -0.62613924023E+01  0.31263231553E+02  0.15867241036E+02  0.35614098614E+02  0.00000000000E+00 0. -1.
</event>
<event>
 8    1  0.4964753E-012  0.9118800E+02  0.7816164E-02  0.1184000E+00
        -11   -1    0    0    0    0  0.00000000000E+00  0.00000000000E+00  0.45593999997E+02  0.45594000000E+02  0.51100000000E-03 0. -1.
         11   -1    0    0    0    0 -0.00000000000E+00 -0.00000000000E+00 -0.45593999997E+02  0.45594000000E+02  0.51100000000E-03 0.  1.
         23    2    1    2    0    0 -0.17763568394E-14  0.00000000000E+00  0.00000000000E+00  0.91188000000E+02  0.91188000000E+02 0.  0.
    9900012    2    3    3    0    0 -0.15250611842E+02  0.17511794491E+02  0.33375467564E+02  0.50528856589E+02  0.29999990087E+02 0.  0.
        -12    1    3    3    0    0  0.15250611842E+02 -0.17511794491E+02 -0.33375467564E+02  0.40659143411E+02  0.00000000000E+00 0.  1.
         11    1    4    4    0    0  0.14633942277E+01  0.23652022131E+01  0.77573508585E+01  0.82408856792E+01  0.51100000000E-03 0. -1.
        -11    1    4    4    0    0 -0.66683458139E+01  0.14078659948E+02  0.92176992618E+00  0.15605292752E+02  0.51100000000E-03 0.  1.
         12    1    4    4    0    0 -0.10045660256E+02  0.10679323304E+01  0.24696346779E+02  0.26682678158E+02  0.00000000000E+00 0. -1.
</event>
<event>
 8    1  0.4964753E-012  0.9118800E+02  0.7816164E-02  0.1184000E+00
        -11   -1    0    0    0    0  0.00000000000E+00  0.00000000000E+00  0.45593999997E+02  0.45594000000E+02  0.51100000000E-03 0. -1.
         11   -1    0    0    0    0 -0.00000000000E+00 -0.00000000000E+00 -0.45593999997E+02  0.45594000000E+02  0.51100000000E-03 0.  1.
         23    2    1    2    0    0  0.00000000000E+00  0.00000000000E+00  0.00000000000E+00  0.91188000000E+02  0.91188000000E+02 0.  0.
    9900012    2    3    3    0    0 -0.11574849223E+02  0.30685787476E+02  0.24032756193E+02  0.50528830581E+02  0.29999911034E+02 0.  0.
        -12    1    3    3    0    0  0.11574849223E+02 -0.30685787476E+02 -0.24032756193E+02  0.40659169419E+02  0.00000000000E+00 0.  1.
         11    1    4    4    0    0  0.37672923307E+01 -0.23748653504E+01  0.51031225005E+01  0.67730596080E+01  0.51100000000E-03 0. -1.
        -11    1    4    4    0    0  0.37136692978E-01  0.92718514501E+01 -0.69019581627E+00  0.92975791996E+01  0.51100000000E-03 0.  1.
         12    1    4    4    0    0 -0.15379278247E+02  0.23788801377E+02  0.19619829509E+02  0.34458191773E+02  0.00000000000E+00 0. -1.
</event>
<event>
 8    1  0.4964753E-012  0.9118800E+02  0.7816164E-02  0.1184000E+00
        -11   -1    0    0    0    0  0.00000000000E+00  0.00000000000E+00  0.45593999997E+02  0.45594000000E+02  0.51100000000E-03 0. -1.
         11   -1    0    0    0    0 -0.00000000000E+00 -0.00000000000E+00 -0.45593999997E+02  0.45594000000E+02  0.51100000000E-03 0.  1.
         23    2    1    2    0    0  0.00000000000E+00  0.35527136788E-14 -0.35527136788E-14  0.91188000000E+02  0.91188000000E+02 0.  0.
    9900012    2    3    3    0    0 -0.17004980714E+02  0.18470545574E+02  0.31981826767E+02  0.50528835396E+02  0.29999925671E+02 0.  0.
        -12    1    3    3    0    0  0.17004980714E+02 -0.18470545574E+02 -0.31981826767E+02  0.40659164604E+02  0.00000000000E+00 0.  1.
         11    1    4    4    0    0 -0.13188746451E+02  0.72053381963E+01  0.21302960831E+02  0.26070597843E+02  0.51100000000E-03 0. -1.
        -11    1    4    4    0    0 -0.65832879904E+01  0.10937728174E+02  0.14761095755E+02  0.19515725109E+02  0.51100000000E-03 0.  1.
        -12    1    4    4    0    0  0.27670537270E+01  0.32747920401E+00 -0.40822298198E+01  0.49425124440E+01  0.00000000000E+00 0.  1.
</event>
<event>
 8    1  0.4964753E-012  0.9118800E+02  0.7816164E-02  0.1184000E+00
        -11   -1    0    0    0    0  0.00000000000E+00  0.00000000000E+00  0.45593999997E+02  0.45594000000E+02  0.51100000000E-03 0. -1.
         11   -1    0    0    0    0 -0.00000000000E+00 -0.00000000000E+00 -0.45593999997E+02  0.45594000000E+02  0.51100000000E-03 0.  1.
         23    2    1    2    0    0  0.00000000000E+00  0.00000000000E+00 -0.17763568394E-14  0.91188000000E+02  0.91188000000E+02 0.  0.
    9900012    2    3    3    0    0 -0.27739078211E+02  0.28050228374E+02 -0.98434875154E+01  0.50528855662E+02  0.29999987271E+02 0.  0.
         12    1    3    3    0    0  0.27739078211E+02 -0.28050228374E+02  0.98434875154E+01  0.40659144338E+02  0.00000000000E+00 0. -1.
         11    1    4    4    0    0  0.16649772777E+00  0.33073539379E+01 -0.47712396975E+01  0.58078429796E+01  0.51100000000E-03 0. -1.
        -11    1    4    4    0    0 -0.77443696353E+01  0.19598015822E+02  0.49190730455E+01  0.21639195112E+02  0.51100000000E-03 0.  1.
        -12    1    4    4    0    0 -0.20161206303E+02  0.51448586136E+01 -0.99913208634E+01  0.23081817570E+02  0.00000000000E+00 0.  1.
</event>
<event>
 8    1  0.4964753E-012  0.9118800E+02  0.7816164E-02  0.1184000E+00
        -11   -1    0    0    0    0  0.00000000000E+00  0.00000000000E+00  0.45593999997E+02  0.45594000000E+02  0.51100000000E-03 0. -1.
         11   -1    0    0    0    0 -0.00000000000E+00 -0.00000000000E+00 -0.45593999997E+02  0.45594000000E+02  0.51100000000E-03 0.  1.
         23    2    1    2    0    0  0.35527136788E-14  0.00000000000E+00  0.35527136788E-14  0.91188000000E+02  0.91188000000E+02 0.  0.
    9900012    2    3    3    0    0 -0.23638317711E+02  0.21407594474E+02 -0.25221209302E+02  0.50528873546E+02  0.30000041630E+02 0.  0.
         12    1    3    3    0    0  0.23638317711E+02 -0.21407594474E+02  0.25221209302E+02  0.40659126454E+02  0.00000000000E+00 0. -1.
         11    1    4    4    0    0 -0.53099535659E+01 -0.15765870146E+01 -0.79451882090E+00  0.55957567767E+01  0.51100000000E-03 0. -1.
        -11    1    4    4    0    0 -0.17345735380E+02  0.85269586029E+01 -0.23479402971E+02  0.30411608360E+02  0.51100000000E-03 0.  1.
        -12    1    4    4    0    0 -0.98262876471E+00  0.14457222885E+02 -0.94728751029E+00  0.14521508409E+02  0.00000000000E+00 0.  1.
</event>
<event>
 8    1  0.4964753E-012  0.9118800E+02  0.7816164E-02  0.1184000E+00
        -11   -1    0    0    0    0  0.00000000000E+00  0.00000000000E+00  0.45593999997E+02  0.45594000000E+02  0.51100000000E-03 0. -1.
         11   -1    0    0    0    0 -0.00000000000E+00 -0.00000000000E+00 -0.45593999997E+02  0.45594000000E+02  0.51100000000E-03 0.  1.
         23    2    1    2    0    0 -0.88817841970E-15 -0.88817841970E-15  0.71054273576E-14  0.91188000000E+02  0.91188000000E+02 0.  0.
    9900012    2    3    3    0    0 -0.31340223756E+01  0.73110412019E+01 -0.39873442805E+02  0.50528869896E+02  0.30000030536E+02 0.  0.
         12    1    3    3    0    0  0.31340223756E+01 -0.73110412019E+01  0.39873442805E+02  0.40659130104E+02  0.00000000000E+00 0. -1.
         11    1    4    4    0    0  0.17762606009E+01  0.24035524366E+00 -0.32679973711E+00  0.18219963487E+01  0.51100000000E-03 0. -1.
        -11    1    4    4    0    0  0.92109782362E+01  0.16948505251E+00 -0.27206657728E+02  0.28724085194E+02  0.51100000000E-03 0.  1.
         12    1    4    4    0    0 -0.14121261213E+02  0.69012009057E+01 -0.12339985340E+02  0.19982788353E+02  0.00000000000E+00 0. -1.
</event>
<event>
 8    1  0.4964753E-012  0.9118800E+02  0.7816164E-02  0.1184000E+00
        -11   -1    0    0    0    0  0.00000000000E+00  0.00000000000E+00  0.45593999997E+02  0.45594000000E+02  0.51100000000E-03 0. -1.
         11   -1    0    0    0    0 -0.00000000000E+00 -0.00000000000E+00 -0.45593999997E+02  0.45594000000E+02  0.51100000000E-03 0.  1.
         23    2    1    2    0    0  0.88817841970E-15  0.00000000000E+00  0.00000000000E+00  0.91188000000E+02  0.91188000000E+02 0.  0.
    9900012    2    3    3    0    0 -0.53241352894E+01  0.90094479204E+01 -0.39289295253E+02  0.50528864620E+02  0.30000014498E+02 0.  0.
         12    1    3    3    0    0  0.53241352894E+01 -0.90094479204E+01  0.39289295253E+02  0.40659135380E+02  0.00000000000E+00 0. -1.
         11    1    4    4    0    0 -0.39418666212E+01 -0.59200431156E+01 -0.50451383488E+01  0.87200140006E+01  0.51100000000E-03 0. -1.
        -11    1    4    4    0    0 -0.91963930378E+01  0.29154370799E+01 -0.13297869140E+02  0.16428838735E+02  0.51100000000E-03 0.  1.
        -12    1    4    4    0    0  0.78141243696E+01  0.12014053956E+02 -0.20946287764E+02  0.25380011884E+02  0.00000000000E+00 0.  1.
</event>
<event>
 8    1  0.4964753E-012  0.9118800E+02  0.7816164E-02  0.1184000E+00
        -11   -1    0    0    0    0  0.00000000000E+00  0.00000000000E+00  0.45593999997E+02  0.45594000000E+02  0.51100000000E-03 0. -1.
         11   -1    0    0    0    0 -0.00000000000E+00 -0.00000000000E+00 -0.45593999997E+02  0.45594000000E+02  0.51100000000E-03 0.  1.
         23    2    1    2    0    0 -0.35527136788E-14  0.00000000000E+00  0.00000000000E+00  0.91188000000E+02  0.91188000000E+02 0.  0.
    9900012    2    3    3    0    0 -0.27612201327E+02  0.57681960818E+01 -0.29282422250E+02  0.50528855875E+02  0.29999987916E+02 0.  0.
         12    1    3    3    0    0  0.27612201327E+02 -0.57681960818E+01  0.29282422250E+02  0.40659144125E+02  0.00000000000E+00 0. -1.
         11    1    4    4    0    0 -0.28787499428E+01  0.72466899603E+01  0.18951342425E+01  0.80245405272E+01  0.51100000000E-03 0. -1.
        -11    1    4    4    0    0 -0.20451868218E+02  0.14713749925E+01 -0.14710031397E+02  0.25235468728E+02  0.51100000000E-03 0.  1.
         12    1    4    4    0    0 -0.42815831662E+01 -0.29498688710E+01 -0.16467525096E+02  0.17268846620E+02  0.00000000000E+00 0. -1.
</event>
<event>
 8    1  0.4964753E-012  0.9118800E+02  0.7816164E-02  0.1184000E+00
        -11   -1    0    0    0    0  0.00000000000E+00  0.00000000000E+00  0.45593999997E+02  0.45594000000E+02  0.51100000000E-03 0. -1.
         11   -1    0    0    0    0 -0.00000000000E+00 -0.00000000000E+00 -0.45593999997E+02  0.45594000000E+02  0.51100000000E-03 0.  1.
         23    2    1    2    0    0 -0.35527136788E-14  0.00000000000E+00  0.71054273576E-14  0.91188000000E+02  0.91188000000E+02 0.  0.
    9900012    2    3    3    0    0 -0.17361373127E+02 -0.16287646335E+02  0.32961512644E+02  0.50528855693E+02  0.29999987365E+02 0.  0.
        -12    1    3    3    0    0  0.17361373127E+02  0.16287646335E+02 -0.32961512644E+02  0.40659144307E+02  0.00000000000E+00 0.  1.
         11    1    4    4    0    0 -0.65310304725E+01 -0.13978138065E+02  0.16764742668E+02  0.22783750784E+02  0.51100000000E-03 0. -1.
        -11    1    4    4    0    0 -0.13358760073E+02 -0.43893354858E+01  0.33056207865E+01  0.14444717572E+02  0.51100000000E-03 0.  1.
         12    1    4    4    0    0  0.25284174185E+01  0.20798272160E+01  0.12891149189E+02  0.13300387337E+02  0.00000000000E+00 0. -1.
</event>
<event>
 8    1  0.4964753E-012  0.9118800E+02  0.7816164E-02  0.1184000E+00
        -11   -1    0    0    0    0  0.00000000000E+00  0.00000000000E+00  0.45593999997E+02  0.45594000000E+02  0.51100000000E-03 0. -1.
         11   -1    0    0    0    0 -0.00000000000E+00 -0.00000000000E+00 -0.45593999997E+02  0.45594000000E+02  0.51100000000E-03 0.  1.
         23    2    1    2    0    0  0.00000000000E+00 -0.17763568394E-14  0.00000000000E+00  0.91188000000E+02  0.91188000000E+02 0.  0.
    9900012    2    3    3    0    0  0.17534019767E+02 -0.13126382096E+02 -0.34255251067E+02  0.50528856111E+02  0.29999988636E+02 0.  0.
         12    1    3    3    0    0 -0.17534019767E+02  0.13126382096E+02  0.34255251067E+02  0.40659143889E+02  0.00000000000E+00 0. -1.
         11    1    4    4    0    0 -0.25847230662E+01  0.23279437829E+01 -0.14303424197E+01  0.37611162284E+01  0.51100000000E-03 0. -1.
        -11    1    4    4    0    0  0.15417746253E+02 -0.20251211520E+02 -0.30350099411E+02  0.39609935649E+02  0.51100000000E-03 0.  1.
         12    1    4    4    0    0  0.47009965799E+01  0.47968856414E+01 -0.24748092356E+01  0.71578042341E+01  0.00000000000E+00 0. -1.
</event>
<event>
 8    1  0.4964753E-012  0.9118800E+02  0.7816164E-02  0.1184000E+00
        -11   -1    0    0    0    0  0.00000000000E+00  0.00000000000E+00  0.45593999997E+02  0.45594000000E+02  0.51100000000E-03 0. -1.
         11   -1    0    0    0    0 -0.00000000000E+00 -0.00000000000E+00 -0.45593999997E+02  0.45594000000E+02  0.51100000000E-03 0.  1.
         23    2    1    2    0    0 -0.71054273576E-14  0.00000000000E+00  0.00000000000E+00  0.91188000000E+02  0.91188000000E+02 0.  0.
    9900012    2    3    3    0    0  0.36742509390E+02  0.16582948299E+02 -0.53065437319E+01  0.50528861090E+02  0.30000003769E+02 0.  0.
         12    1    3    3    0    0 -0.36742509390E+02 -0.16582948299E+02  0.53065437319E+01  0.40659138910E+02  0.00000000000E+00 0. -1.
         11    1    4    4    0    0 -0.91516961864E-01 -0.21464645411E+00  0.35860030192E+01  0.35935868390E+01  0.51100000000E-03 0. -1.
        -11    1    4    4    0    0  0.30550711925E+02  0.17962112991E+02  0.65570190773E+00  0.35445922861E+02  0.51100000000E-03 0.  1.
         12    1    4    4    0    0  0.62833144261E+01 -0.11645182377E+01 -0.95482486588E+01  0.11489351390E+02  0.00000000000E+00 0. -1.
</event>
<event>
 8    1  0.4964753E-012  0.9118800E+02  0.7816164E-02  0.1184000E+00
        -11   -1    0    0    0    0  0.00000000000E+00  0.00000000000E+00  0.45593999997E+02  0.45594000000E+02  0.51100000000E-03 0. -1.
         11   -1    0    0    0    0 -0.00000000000E+00 -0.00000000000E+00 -0.45593999997E+02  0.45594000000E+02  0.51100000000E-03 0.  1.
         23    2    1    2    0    0 -0.35527136788E-14 -0.35527136788E-14 -0.17763568394E-14  0.91188000000E+02  0.91188000000E+02 0.  0.
    9900012    2    3    3    0    0 -0.28393441985E+02  0.26063282991E+02  0.12949259162E+02  0.50528861042E+02  0.30000003622E+02 0.  0.
        -12    1    3    3    0    0  0.28393441985E+02 -0.26063282991E+02 -0.12949259162E+02  0.40659138958E+02  0.00000000000E+00 0.  1.
         11    1    4    4    0    0 -0.10643694452E+02  0.15019413239E+02  0.75296056870E+01  0.19888840280E+02  0.51100000000E-03 0. -1.
        -11    1    4    4    0    0 -0.21342988475E+02  0.38286458373E+01  0.61708424400E+01  0.22544644213E+02  0.51100000000E-03 0.  1.
        -12    1    4    4    0    0  0.35932409423E+01  0.72152239141E+01 -0.75118896455E+00  0.80953765484E+01  0.00000000000E+00 0.  1.
</event>
<event>
 8    1  0.4964753E-012  0.9118800E+02  0.7816164E-02  0.1184000E+00
        -11   -1    0    0    0    0  0.00000000000E+00  0.00000000000E+00  0.45593999997E+02  0.45594000000E+02  0.51100000000E-03 0. -1.
         11   -1    0    0    0    0 -0.00000000000E+00 -0.00000000000E+00 -0.45593999997E+02  0.45594000000E+02  0.51100000000E-03 0.  1.
         23    2    1    2    0    0  0.00000000000E+00  0.35527136788E-14  0.00000000000E+00  0.91188000000E+02  0.91188000000E+02 0.  0.
    9900012    2    3    3    0    0 -0.17320881693E+02  0.27457818648E+02  0.24479014207E+02  0.50528845015E+02  0.29999954908E+02 0.  0.
        -12    1    3    3    0    0  0.17320881693E+02 -0.27457818648E+02 -0.24479014207E+02  0.40659154985E+02  0.00000000000E+00 0.  1.
         11    1    4    4    0    0  0.54728998498E+00  0.12857101644E+02  0.23338875327E+02  0.26651598279E+02  0.51100000000E-03 0.  1.
        -11    1    4    4    0    0 -0.93958640441E+01  0.99862440244E+01  0.30399271207E+01  0.14044518077E+02  0.51100000000E-03 0. -1.
        -12    1    4    4    0    0 -0.84723076341E+01  0.46144729799E+01 -0.18997882411E+01  0.98327286594E+01  0.00000000000E+00 0.  1.
</event>
<event>
 8    1  0.5129388E-012  0.9118800E+02  0.7816164E-02  0.1184000E+00
        -11   -1    0    0    0    0  0.00000000000E+00  0.00000000000E+00  0.45593999997E+02  0.45594000000E+02  0.51100000000E-03 0. -1.
         11   -1    0    0    0    0 -0.00000000000E+00 -0.00000000000E+00 -0.45593999997E+02  0.45594000000E+02  0.51100000000E-03 0.  1.
         23    2    1    2    0    0  0.44408920985E-15  0.00000000000E+00  0.35527136788E-14  0.91188000000E+02  0.91188000000E+02 0.  0.
    9900012    2    3    3    0    0 -0.21049137420E+01 -0.27155778962E+02 -0.30187735990E+02  0.50528851004E+02  0.29999973112E+02 0.  0.
         12    1    3    3    0    0  0.21049137420E+01  0.27155778962E+02  0.30187735990E+02  0.40659148996E+02  0.00000000000E+00 0. -1.
         11    1    4    4    0    0  0.43474390448E+01 -0.13453699302E+02 -0.17749016456E+02  0.22692065498E+02  0.51100000000E-03 0. -1.
        -11    1    4    4    0    0 -0.57540375363E+01 -0.16969995514E+02 -0.15203441033E+02  0.23499666279E+02  0.51100000000E-03 0.  1.
         12    1    4    4    0    0 -0.69831525052E+00  0.32679158541E+01  0.27647214995E+01  0.43371192269E+01  0.00000000000E+00 0. -1.
</event>
<event>
 8    1  0.4964753E-012  0.9118800E+02  0.7816164E-02  0.1184000E+00
        -11   -1    0    0    0    0  0.00000000000E+00  0.00000000000E+00  0.45593999997E+02  0.45594000000E+02  0.51100000000E-03 0. -1.
         11   -1    0    0    0    0 -0.00000000000E+00 -0.00000000000E+00 -0.45593999997E+02  0.45594000000E+02  0.51100000000E-03 0.  1.
         23    2    1    2    0    0  0.00000000000E+00  0.00000000000E+00  0.00000000000E+00  0.91188000000E+02  0.91188000000E+02 0.  0.
    9900012    2    3    3    0    0  0.71391046730E+01  0.38394804774E+02 -0.11315359662E+02  0.50528865560E+02  0.30000017355E+02 0.  0.
         12    1    3    3    0    0 -0.71391046730E+01 -0.38394804774E+02  0.11315359662E+02  0.40659134440E+02  0.00000000000E+00 0. -1.
         11    1    4    4    0    0  0.20318119149E+01  0.11292482180E+02  0.73912690153E+01  0.13648416441E+02  0.51100000000E-03 0.  1.
        -11    1    4    4    0    0  0.12586119561E+01 -0.91869757166E+00 -0.54041473974E+01  0.56243149483E+01  0.51100000000E-03 0. -1.
        -12    1    4    4    0    0  0.38486808020E+01  0.28021020166E+02 -0.13302481280E+02  0.31256134170E+02  0.00000000000E+00 0.  1.
</event>
<event>
 8    1  0.4964753E-012  0.9118800E+02  0.7816164E-02  0.1184000E+00
        -11   -1    0    0    0    0  0.00000000000E+00  0.00000000000E+00  0.45593999997E+02  0.45594000000E+02  0.51100000000E-03 0. -1.
         11   -1    0    0    0    0 -0.00000000000E+00 -0.00000000000E+00 -0.45593999997E+02  0.45594000000E+02  0.51100000000E-03 0.  1.
         23    2    1    2    0    0  0.00000000000E+00  0.88817841970E-15  0.00000000000E+00  0.91188000000E+02  0.91188000000E+02 0.  0.
    9900012    2    3    3    0    0  0.11078431206E+02 -0.37105960223E+01 -0.38944400904E+02  0.50528849460E+02  0.29999968420E+02 0.  0.
         12    1    3    3    0    0 -0.11078431206E+02  0.37105960223E+01  0.38944400904E+02  0.40659150540E+02  0.00000000000E+00 0. -1.
         11    1    4    4    0    0  0.86101936132E+01 -0.72868517369E+01 -0.10971508124E+02  0.15735553154E+02  0.51100000000E-03 0. -1.
        -11    1    4    4    0    0  0.81014212420E+01  0.89409025048E+01 -0.21582568808E+02  0.24726100387E+02  0.51100000000E-03 0.  1.
        -12    1    4    4    0    0 -0.56331836490E+01 -0.53646467901E+01 -0.63903239728E+01  0.10067195920E+02  0.00000000000E+00 0.  1.
</event>
<event>
 8    1  0.4964753E-012  0.9118800E+02  0.7816164E-02  0.1184000E+00
        -11   -1    0    0    0    0  0.00000000000E+00  0.00000000000E+00  0.45593999997E+02  0.45594000000E+02  0.51100000000E-03 0. -1.
         11   -1    0    0    0    0 -0.00000000000E+00 -0.00000000000E+00 -0.45593999997E+02  0.45594000000E+02  0.51100000000E-03 0.  1.
         23    2    1    2    0    0  0.00000000000E+00  0.00000000000E+00  0.00000000000E+00  0.91188000000E+02  0.91188000000E+02 0.  0.
    9900012    2    3    3    0    0  0.81295496820E+01  0.49403171161E+01  0.39530611745E+02  0.50528861099E+02  0.30000003797E+02 0.  0.
        -12    1    3    3    0    0 -0.81295496820E+01 -0.49403171161E+01 -0.39530611745E+02  0.40659138901E+02  0.00000000000E+00 0.  1.
         11    1    4    4    0    0 -0.92223625931E+00  0.79103353487E+01  0.76399425989E+01  0.11035970652E+02  0.51100000000E-03 0. -1.
        -11    1    4    4    0    0  0.94178281661E+01  0.12638663451E+01  0.25396083028E+01  0.98357743008E+01  0.51100000000E-03 0.  1.
         12    1    4    4    0    0 -0.36604222476E+00 -0.42338845777E+01  0.29351060843E+02  0.29657116147E+02  0.00000000000E+00 0. -1.
</event>
<event>
 8    1  0.4964753E-012  0.9118800E+02  0.7816164E-02  0.1184000E+00
        -11   -1    0    0    0    0  0.00000000000E+00  0.00000000000E+00  0.45593999997E+02  0.45594000000E+02  0.51100000000E-03 0. -1.
         11   -1    0    0    0    0 -0.00000000000E+00 -0.00000000000E+00 -0.45593999997E+02  0.45594000000E+02  0.51100000000E-03 0.  1.
         23    2    1    2    0    0  0.00000000000E+00  0.00000000000E+00  0.00000000000E+00  0.91188000000E+02  0.91188000000E+02 0.  0.
    9900012    2    3    3    0    0  0.25858103399E+02 -0.23874576568E+02  0.20359978841E+02  0.50528860117E+02  0.30000000810E+02 0.  0.
        -12    1    3    3    0    0 -0.25858103399E+02  0.23874576568E+02 -0.20359978841E+02  0.40659139883E+02  0.00000000000E+00 0.  1.
         11    1    4    4    0    0  0.76917436301E+00  0.17482667076E+01 -0.18938204390E+01  0.26897252272E+01  0.51100000000E-03 0. -1.
        -11    1    4    4    0    0  0.13855439128E+02 -0.16694381905E+01  0.14822762461E+02  0.20358646923E+02  0.51100000000E-03 0.  1.
         12    1    4    4    0    0  0.11233489908E+02 -0.23953405085E+02  0.74310368188E+01  0.27480487967E+02  0.00000000000E+00 0. -1.
</event>
<event>
 8    1  0.4964753E-012  0.9118800E+02  0.7816164E-02  0.1184000E+00
        -11   -1    0    0    0    0  0.00000000000E+00  0.00000000000E+00  0.45593999997E+02  0.45594000000E+02  0.51100000000E-03 0. -1.
         11   -1    0    0    0    0 -0.00000000000E+00 -0.00000000000E+00 -0.45593999997E+02  0.45594000000E+02  0.51100000000E-03 0.  1.
         23    2    1    2    0    0  0.35527136788E-14  0.35527136788E-14 -0.35527136788E-14  0.91188000000E+02  0.91188000000E+02 0.  0.
    9900012    2    3    3    0    0 -0.19321160169E+02 -0.30433196422E+02  0.18806370973E+02  0.50528852642E+02  0.29999978090E+02 0.  0.
        -12    1    3    3    0    0  0.19321160169E+02  0.30433196422E+02 -0.18806370973E+02  0.40659147358E+02  0.00000000000E+00 0.  1.
         11    1    4    4    0    0 -0.29559172976E+01 -0.22805139155E+02  0.75760591837E+01  0.24211742853E+02  0.51100000000E-03 0. -1.
        -11    1    4    4    0    0 -0.12599650822E+02 -0.10663940582E+02  0.13158842866E+02  0.21109854936E+02  0.51100000000E-03 0.  1.
        -12    1    4    4    0    0 -0.37655920494E+01  0.30358833157E+01 -0.19285310771E+01  0.52072548530E+01  0.00000000000E+00 0.  1.
</event>
<event>
 8    1  0.4964753E-012  0.9118800E+02  0.7816164E-02  0.1184000E+00
        -11   -1    0    0    0    0  0.00000000000E+00  0.00000000000E+00  0.45593999997E+02  0.45594000000E+02  0.51100000000E-03 0. -1.
         11   -1    0    0    0    0 -0.00000000000E+00 -0.00000000000E+00 -0.45593999997E+02  0.45594000000E+02  0.51100000000E-03 0.  1.
         23    2    1    2    0    0  0.00000000000E+00  0.17763568394E-14  0.00000000000E+00  0.91188000000E+02  0.91188000000E+02 0.  0.
    9900012    2    3    3    0    0 -0.10689885487E+02  0.10728837998E+02 -0.37733063709E+02  0.50528859412E+02  0.29999998668E+02 0.  0.
         12    1    3    3    0    0  0.10689885487E+02 -0.10728837998E+02  0.37733063709E+02  0.40659140588E+02  0.00000000000E+00 0. -1.
         11    1    4    4    0    0  0.62864015426E+00  0.30991322169E+01 -0.45096156297E+00  0.31942409949E+01  0.51100000000E-03 0. -1.
        -11    1    4    4    0    0  0.37817039516E+01  0.69930603122E+01 -0.29062830932E+02  0.30130587769E+02  0.51100000000E-03 0.  1.
        -12    1    4    4    0    0 -0.15100229593E+02  0.63664546908E+00 -0.82192712143E+01  0.17204030647E+02  0.00000000000E+00 0.  1.
</event>
<event>
 8    1  0.4964753E-012  0.9118800E+02  0.7816164E-02  0.1184000E+00
        -11   -1    0    0    0    0  0.00000000000E+00  0.00000000000E+00  0.45593999997E+02  0.45594000000E+02  0.51100000000E-03 0. -1.
         11   -1    0    0    0    0 -0.00000000000E+00 -0.00000000000E+00 -0.45593999997E+02  0.45594000000E+02  0.51100000000E-03 0.  1.
         23    2    1    2    0    0  0.17763568394E-14  0.35527136788E-14  0.71054273576E-14  0.91188000000E+02  0.91188000000E+02 0.  0.
    9900012    2    3    3    0    0  0.14516340865E+02  0.27978898782E+02  0.25683134162E+02  0.50528852080E+02  0.29999976383E+02 0.  0.
        -12    1    3    3    0    0 -0.14516340865E+02 -0.27978898782E+02 -0.25683134162E+02  0.40659147920E+02  0.00000000000E+00 0.  1.
         11    1    4    4    0    0 -0.83158090081E-01  0.16858619066E+02  0.14751793279E+02  0.22401682019E+02  0.51100000000E-03 0. -1.
        -11    1    4    4    0    0  0.61545001716E+01  0.50617238844E+01  0.14984328386E+02  0.16971417692E+02  0.51100000000E-03 0.  1.
        -12    1    4    4    0    0  0.84449987839E+01  0.60585558321E+01 -0.40529875029E+01  0.11155752369E+02  0.00000000000E+00 0.  1.
</event>
<event>
 8    1  0.4964753E-012  0.9118800E+02  0.7816164E-02  0.1184000E+00
        -11   -1    0    0    0    0  0.00000000000E+00  0.00000000000E+00  0.45593999997E+02  0.45594000000E+02  0.51100000000E-03 0. -1.
         11   -1    0    0    0    0 -0.00000000000E+00 -0.00000000000E+00 -0.45593999997E+02  0.45594000000E+02  0.51100000000E-03 0.  1.
         23    2    1    2    0    0  0.00000000000E+00  0.00000000000E+00 -0.71054273576E-14  0.91188000000E+02  0.91188000000E+02 0.  0.
    9900012    2    3    3    0    0  0.21535085475E+02 -0.68554643499E+00 -0.34480934024E+02  0.50528871978E+02  0.30000036865E+02 0.  0.
         12    1    3    3    0    0 -0.21535085475E+02  0.68554643499E+00  0.34480934024E+02  0.40659128022E+02  0.00000000000E+00 0. -1.
         11    1    4    4    0    0  0.58250356743E+01 -0.25121168877E+01  0.12996489677E+01  0.64754042008E+01  0.51100000000E-03 0. -1.
        -11    1    4    4    0    0 -0.48669473648E+01  0.15898462123E+01 -0.72831709293E+01  0.89027729768E+01  0.51100000000E-03 0.  1.
        -12    1    4    4    0    0  0.20576997166E+02  0.23672424038E+00 -0.28497412062E+02  0.35150694801E+02  0.00000000000E+00 0.  1.
</event>
<event>
 8    1  0.4964753E-012  0.9118800E+02  0.7816164E-02  0.1184000E+00
        -11   -1    0    0    0    0  0.00000000000E+00  0.00000000000E+00  0.45593999997E+02  0.45594000000E+02  0.51100000000E-03 0. -1.
         11   -1    0    0    0    0 -0.00000000000E+00 -0.00000000000E+00 -0.45593999997E+02  0.45594000000E+02  0.51100000000E-03 0.  1.
         23    2    1    2    0    0 -0.35527136788E-14  0.35527136788E-14  0.00000000000E+00  0.91188000000E+02  0.91188000000E+02 0.  0.
    9900012    2    3    3    0    0  0.26769754133E+02  0.18285552234E+02 -0.24539454776E+02  0.50528855917E+02  0.29999988044E+02 0.  0.
         12    1    3    3    0    0 -0.26769754133E+02 -0.18285552234E+02  0.24539454776E+02  0.40659144083E+02  0.00000000000E+00 0. -1.
         11    1    4    4    0    0 -0.28729685384E+01  0.94619200252E+01 -0.10756824985E+02  0.14611336790E+02  0.51100000000E-03 0. -1.
        -11    1    4    4    0    0  0.12149055957E+01 -0.19585400959E+01  0.44832149826E+00  0.23479496035E+01  0.51100000000E-03 0.  1.
        -12    1    4    4    0    0  0.28427817076E+02  0.10782172305E+02 -0.14230951290E+02  0.33569569523E+02  0.00000000000E+00 0.  1.
</event>
<event>
 8    1  0.4964753E-012  0.9118800E+02  0.7816164E-02  0.1184000E+00
        -11   -1    0    0    0    0  0.00000000000E+00  0.00000000000E+00  0.45593999997E+02  0.45594000000E+02  0.51100000000E-03 0. -1.
         11   -1    0    0    0    0 -0.00000000000E+00 -0.00000000000E+00 -0.45593999997E+02  0.45594000000E+02  0.51100000000E-03 0.  1.
         23    2    1    2    0    0  0.88817841970E-15  0.17763568394E-14  0.00000000000E+00  0.91188000000E+02  0.91188000000E+02 0.  0.
    9900012    2    3    3    0    0  0.37797144332E+01 -0.10658400014E+02 -0.39054823992E+02  0.50528843478E+02  0.29999950234E+02 0.  0.
         12    1    3    3    0    0 -0.37797144332E+01  0.10658400014E+02  0.39054823992E+02  0.40659156522E+02  0.00000000000E+00 0. -1.
         11    1    4    4    0    0 -0.34222241125E+01 -0.57158394172E+01 -0.70919914168E+01  0.97303021863E+01  0.51100000000E-03 0.  1.
        -11    1    4    4    0    0 -0.19864242376E+01  0.86837878380E+01 -0.10627416313E+02  0.13867084417E+02  0.51100000000E-03 0. -1.
         12    1    4    4    0    0  0.91883627833E+01 -0.13626348435E+02 -0.21335416262E+02  0.26931456874E+02  0.00000000000E+00 0. -1.
</event>
<event>
 8    1  0.4964753E-012  0.9118800E+02  0.7816164E-02  0.1184000E+00
        -11   -1    0    0    0    0  0.00000000000E+00  0.00000000000E+00  0.45593999997E+02  0.45594000000E+02  0.51100000000E-03 0. -1.
         11   -1    0    0    0    0 -0.00000000000E+00 -0.00000000000E+00 -0.45593999997E+02  0.45594000000E+02  0.51100000000E-03 0.  1.
         23    2    1    2    0    0  0.00000000000E+00  0.00000000000E+00  0.17763568394E-14  0.91188000000E+02  0.91188000000E+02 0.  0.
    9900012    2    3    3    0    0 -0.16803138818E+02  0.34454372024E+02 -0.13554191457E+02  0.50528864105E+02  0.30000012934E+02 0.  0.
         12    1    3    3    0    0  0.16803138818E+02 -0.34454372024E+02  0.13554191457E+02  0.40659135895E+02  0.00000000000E+00 0. -1.
         11    1    4    4    0    0 -0.14705584187E+02  0.71125306716E+01 -0.86073517833E+01  0.18464257467E+02  0.51100000000E-03 0. -1.
        -11    1    4    4    0    0 -0.48966450578E+01  0.21552570188E+02 -0.96309276252E+01  0.24109026975E+02  0.51100000000E-03 0.  1.
         12    1    4    4    0    0  0.27990904268E+01  0.57892711643E+01  0.46840879514E+01  0.79555796626E+01  0.00000000000E+00 0. -1.
</event>
<event>
 8    1  0.6201582E-012  0.9118800E+02  0.7816164E-02  0.1184000E+00
        -11   -1    0    0    0    0  0.00000000000E+00  0.00000000000E+00  0.45593999997E+02  0.45594000000E+02  0.51100000000E-03 0. -1.
         11   -1    0    0    0    0 -0.00000000000E+00 -0.00000000000E+00 -0.45593999997E+02  0.45594000000E+02  0.51100000000E-03 0.  1.
         23    2    1    2    0    0  0.00000000000E+00  0.00000000000E+00 -0.71054273576E-14  0.91188000000E+02  0.91188000000E+02 0.  0.
    9900012    2    3    3    0    0 -0.40320711755E+01 -0.20488573175E+02 -0.34887343552E+02  0.50528856270E+02  0.29999989118E+02 0.  0.
         12    1    3    3    0    0  0.40320711755E+01  0.20488573175E+02  0.34887343552E+02  0.40659143730E+02  0.00000000000E+00 0. -1.
         11    1    4    4    0    0  0.84327908107E+01 -0.64962925103E+01 -0.81669662591E+01  0.13416896637E+02  0.51100000000E-03 0. -1.
        -11    1    4    4    0    0 -0.76910605383E+00 -0.37199877458E+01 -0.19652366826E+02  0.20016127374E+02  0.51100000000E-03 0.  1.
         12    1    4    4    0    0 -0.11695755932E+02 -0.10272292919E+02 -0.70680104678E+01  0.17095832259E+02  0.00000000000E+00 0. -1.
</event>
<event>
 8    1  0.4964753E-012  0.9118800E+02  0.7816164E-02  0.1184000E+00
        -11   -1    0    0    0    0  0.00000000000E+00  0.00000000000E+00  0.45593999997E+02  0.45594000000E+02  0.51100000000E-03 0. -1.
         11   -1    0    0    0    0 -0.00000000000E+00 -0.00000000000E+00 -0.45593999997E+02  0.45594000000E+02  0.51100000000E-03 0.  1.
         23    2    1    2    0    0  0.35527136788E-14  0.35527136788E-14  0.35527136788E-14  0.91188000000E+02  0.91188000000E+02 0.  0.
    9900012    2    3    3    0    0 -0.28175604283E+02 -0.17509703358E+02 -0.23509839914E+02  0.50528844067E+02  0.29999952027E+02 0.  0.
         12    1    3    3    0    0  0.28175604283E+02  0.17509703358E+02  0.23509839914E+02  0.40659155933E+02  0.00000000000E+00 0. -1.
         11    1    4    4    0    0 -0.84392123814E+01 -0.74690663340E+00  0.45165781580E+01  0.96009194172E+01  0.51100000000E-03 0. -1.
        -11    1    4    4    0    0 -0.14020504577E+02 -0.57416091185E+01 -0.74189451604E+01  0.16869539751E+02  0.51100000000E-03 0.  1.
         12    1    4    4    0    0 -0.57158873249E+01 -0.11021187606E+02 -0.20607472911E+02  0.24058384899E+02  0.00000000000E+00 0. -1.
</event>
<event>
 8    1  0.4964753E-012  0.9118800E+02  0.7816164E-02  0.1184000E+00
        -11   -1    0    0    0    0  0.00000000000E+00  0.00000000000E+00  0.45593999997E+02  0.45594000000E+02  0.51100000000E-03 0.  1.
         11   -1    0    0    0    0 -0.00000000000E+00 -0.00000000000E+00 -0.45593999997E+02  0.45594000000E+02  0.51100000000E-03 0. -1.
         23    2    1    2    0    0  0.00000000000E+00  0.00000000000E+00  0.00000000000E+00  0.91188000000E+02  0.91188000000E+02 0.  0.
    9900012    2    3    3    0    0 -0.42549287102E+01 -0.35332653715E+02  0.19663796754E+02  0.50528859089E+02  0.29999997686E+02 0.  0.
        -12    1    3    3    0    0  0.42549287102E+01  0.35332653715E+02 -0.19663796754E+02  0.40659140911E+02  0.00000000000E+00 0.  1.
         11    1    4    4    0    0 -0.50060407850E+01 -0.25348331856E+02  0.12050257658E+02  0.28509771695E+02  0.51100000000E-03 0. -1.
        -11    1    4    4    0    0  0.13141061712E+01 -0.88658402543E+01  0.13387606240E+02  0.16110803815E+02  0.51100000000E-03 0.  1.
         12    1    4    4    0    0 -0.56299409634E+00 -0.11184816049E+01 -0.57740671450E+01  0.59082835788E+01  0.00000000000E+00 0. -1.
</event>
<event>
 8    1  0.4964753E-012  0.9118800E+02  0.7816164E-02  0.1184000E+00
        -11   -1    0    0    0    0  0.00000000000E+00  0.00000000000E+00  0.45593999997E+02  0.45594000000E+02  0.51100000000E-03 0. -1.
         11   -1    0    0    0    0 -0.00000000000E+00 -0.00000000000E+00 -0.45593999997E+02  0.45594000000E+02  0.51100000000E-03 0.  1.
         23    2    1    2    0    0 -0.35527136788E-14  0.00000000000E+00  0.35527136788E-14  0.91188000000E+02  0.91188000000E+02 0.  0.
    9900012    2    3    3    0    0  0.26417590506E+02 -0.55890116015E+01  0.30398014433E+02  0.50528863016E+02  0.30000009625E+02 0.  0.
        -12    1    3    3    0    0 -0.26417590506E+02  0.55890116015E+01 -0.30398014433E+02  0.40659136984E+02  0.00000000000E+00 0.  1.
         11    1    4    4    0    0  0.18768028608E+02 -0.73424463366E+01  0.14131223111E+02  0.24613855507E+02  0.51100000000E-03 0.  1.
        -11    1    4    4    0    0  0.52984393450E+01 -0.52287382796E+01  0.16953392446E+02  0.18515687380E+02  0.51100000000E-03 0. -1.
        -12    1    4    4    0    0  0.23511225523E+01  0.69821730146E+01 -0.68660112476E+00  0.73993201287E+01  0.00000000000E+00 0.  1.
</event>
<event>
 8    1  0.4964753E-012  0.9118800E+02  0.7816164E-02  0.1184000E+00
        -11   -1    0    0    0    0  0.00000000000E+00  0.00000000000E+00  0.45593999997E+02  0.45594000000E+02  0.51100000000E-03 0. -1.
         11   -1    0    0    0    0 -0.00000000000E+00 -0.00000000000E+00 -0.45593999997E+02  0.45594000000E+02  0.51100000000E-03 0.  1.
         23    2    1    2    0    0 -0.71054273576E-14  0.00000000000E+00  0.00000000000E+00  0.91188000000E+02  0.91188000000E+02 0.  0.
    9900012    2    3    3    0    0 -0.23950119691E+02 -0.36848687406E+00 -0.32854564206E+02  0.50528850907E+02  0.29999972818E+02 0.  0.
         12    1    3    3    0    0  0.23950119691E+02  0.36848687406E+00  0.32854564206E+02  0.40659149093E+02  0.00000000000E+00 0. -1.
         11    1    4    4    0    0 -0.18791856027E+01 -0.26856862365E+00  0.93517762121E+00  0.21161344663E+01  0.51100000000E-03 0. -1.
        -11    1    4    4    0    0 -0.28137668485E+02 -0.77086977525E+00 -0.30401781527E+02  0.41431762553E+02  0.51100000000E-03 0.  1.
        -12    1    4    4    0    0  0.60667343968E+01  0.67095152484E+00 -0.33879603001E+01  0.69809538879E+01  0.00000000000E+00 0.  1.
</event>
<event>
 8    1  0.6394464E-012  0.9118800E+02  0.7816164E-02  0.1184000E+00
        -11   -1    0    0    0    0  0.00000000000E+00  0.00000000000E+00  0.45593999997E+02  0.45594000000E+02  0.51100000000E-03 0. -1.
         11   -1    0    0    0    0 -0.00000000000E+00 -0.00000000000E+00 -0.45593999997E+02  0.45594000000E+02  0.51100000000E-03 0.  1.
         23    2    1    2    0    0  0.35527136788E-14  0.00000000000E+00 -0.35527136788E-14  0.91188000000E+02  0.91188000000E+02 0.  0.
    9900012    2    3    3    0    0  0.20093720575E+02 -0.16602897096E+02 -0.31205019368E+02  0.50528843193E+02  0.29999949368E+02 0.  0.
         12    1    3    3    0    0 -0.20093720575E+02  0.16602897096E+02  0.31205019368E+02  0.40659156807E+02  0.00000000000E+00 0. -1.
         11    1    4    4    0    0 -0.18397038435E+01 -0.71487195007E+01 -0.10664420599E+02  0.12969910089E+02  0.51100000000E-03 0. -1.
        -11    1    4    4    0    0  0.15596113288E+02 -0.91141991428E+00 -0.21829991502E+02  0.26844328362E+02  0.51100000000E-03 0.  1.
         12    1    4    4    0    0  0.63373111306E+01 -0.85427576807E+01  0.12893927332E+01  0.10714604742E+02  0.00000000000E+00 0. -1.
</event>
<event>
 8    1  0.4964753E-012  0.9118800E+02  0.7816164E-02  0.1184000E+00
        -11   -1    0    0    0    0  0.00000000000E+00  0.00000000000E+00  0.45593999997E+02  0.45594000000E+02  0.51100000000E-03 0. -1.
         11   -1    0    0    0    0 -0.00000000000E+00 -0.00000000000E+00 -0.45593999997E+02  0.45594000000E+02  0.51100000000E-03 0.  1.
         23    2    1    2    0    0  0.00000000000E+00  0.00000000000E+00 -0.71054273576E-14  0.91188000000E+02  0.91188000000E+02 0.  0.
    9900012    2    3    3    0    0  0.99118549910E+01 -0.25220011415E+02  0.30312904634E+02  0.50528855488E+02  0.29999986741E+02 0.  0.
        -12    1    3    3    0    0 -0.99118549910E+01  0.25220011415E+02 -0.30312904634E+02  0.40659144512E+02  0.00000000000E+00 0.  1.
         11    1    4    4    0    0  0.54639520829E+00 -0.11024152488E+02  0.10948956123E+02  0.15547029499E+02  0.51100000000E-03 0. -1.
        -11    1    4    4    0    0 -0.62513197927E+00 -0.12737104856E+02 -0.43202766306E+00  0.12759752281E+02  0.51100000000E-03 0.  1.
        -12    1    4    4    0    0  0.99905917619E+01 -0.14587540704E+01  0.19795976174E+02  0.22222073708E+02  0.00000000000E+00 0.  1.
</event>
<event>
 8    1  0.4964753E-012  0.9118800E+02  0.7816164E-02  0.1184000E+00
        -11   -1    0    0    0    0  0.00000000000E+00  0.00000000000E+00  0.45593999997E+02  0.45594000000E+02  0.51100000000E-03 0. -1.
         11   -1    0    0    0    0 -0.00000000000E+00 -0.00000000000E+00 -0.45593999997E+02  0.45594000000E+02  0.51100000000E-03 0.  1.
         23    2    1    2    0    0  0.00000000000E+00  0.35527136788E-14  0.00000000000E+00  0.91188000000E+02  0.91188000000E+02 0.  0.
    9900012    2    3    3    0    0  0.12172570395E+02 -0.18819311533E+02 -0.33923846758E+02  0.50528864059E+02  0.30000012794E+02 0.  0.
         12    1    3    3    0    0 -0.12172570395E+02  0.18819311533E+02  0.33923846758E+02  0.40659135941E+02  0.00000000000E+00 0. -1.
         11    1    4    4    0    0  0.10096720513E+02  0.30005100259E+01 -0.96817881917E+01  0.14306776310E+02  0.51100000000E-03 0. -1.
        -11    1    4    4    0    0 -0.26434051323E+01  0.11276967319E+01 -0.55548210817E+01  0.62542248220E+01  0.51100000000E-03 0.  1.
        -12    1    4    4    0    0  0.47192550138E+01 -0.22947518290E+02 -0.18687237485E+02  0.29967862927E+02  0.00000000000E+00 0.  1.
</event>
<event>
 8    1  0.6610821E-012  0.9118800E+02  0.7816164E-02  0.1184000E+00
        -11   -1    0    0    0    0  0.00000000000E+00  0.00000000000E+00  0.45593999997E+02  0.45594000000E+02  0.51100000000E-03 0. -1.
         11   -1    0    0    0    0 -0.00000000000E+00 -0.00000000000E+00 -0.45593999997E+02  0.45594000000E+02  0.51100000000E-03 0.  1.
         23    2    1    2    0    0 -0.71054273576E-14  0.16653345369E-15  0.35527136788E-14  0.91188000000E+02  0.91188000000E+02 0.  0.
    9900012    2    3    3    0    0  0.30289168302E+02 -0.26503932909E+00 -0.27123079136E+02  0.50528863461E+02  0.30000010976E+02 0.  0.
         12    1    3    3    0    0 -0.30289168302E+02  0.26503932909E+00  0.27123079136E+02  0.40659136539E+02  0.00000000000E+00 0. -1.
         11    1    4    4    0    0  0.98551135347E+01 -0.93009913665E+01 -0.98170438025E+01  0.16733381382E+02  0.51100000000E-03 0. -1.
        -11    1    4    4    0    0  0.17295744734E+02 -0.62636411836E+00 -0.15968849818E+02  0.23548657768E+02  0.51100000000E-03 0.  1.
         12    1    4    4    0    0  0.31383100327E+01  0.96623161558E+01 -0.13371855161E+01  0.10246824311E+02  0.00000000000E+00 0. -1.
</event>
<event>
 8    1  0.4964753E-012  0.9118800E+02  0.7816164E-02  0.1184000E+00
        -11   -1    0    0    0    0  0.00000000000E+00  0.00000000000E+00  0.45593999997E+02  0.45594000000E+02  0.51100000000E-03 0. -1.
         11   -1    0    0    0    0 -0.00000000000E+00 -0.00000000000E+00 -0.45593999997E+02  0.45594000000E+02  0.51100000000E-03 0.  1.
         23    2    1    2    0    0  0.00000000000E+00  0.00000000000E+00  0.00000000000E+00  0.91188000000E+02  0.91188000000E+02 0.  0.
    9900012    2    3    3    0    0 -0.13061803822E+02  0.17160911904E+02  0.34468117032E+02  0.50528945557E+02  0.30000260513E+02 0.  0.
        -12    1    3    3    0    0  0.13061803822E+02 -0.17160911904E+02 -0.34468117032E+02  0.40659054443E+02  0.00000000000E+00 0.  1.
         11    1    4    4    0    0 -0.47013750118E+01 -0.28653942171E+01  0.88874805366E+01  0.10454698540E+02  0.51100000000E-03 0. -1.
        -11    1    4    4    0    0 -0.76049861668E+01 -0.25864321945E+01  0.87307495075E+01  0.11863870925E+02  0.51100000000E-03 0.  1.
         12    1    4    4    0    0 -0.75544264359E+00  0.22612738316E+02  0.16849886988E+02  0.28210376092E+02  0.00000000000E+00 0. -1.
</event>
<event>
 8    1  0.4964753E-012  0.9118800E+02  0.7816164E-02  0.1184000E+00
        -11   -1    0    0    0    0  0.00000000000E+00  0.00000000000E+00  0.45593999997E+02  0.45594000000E+02  0.51100000000E-03 0. -1.
         11   -1    0    0    0    0 -0.00000000000E+00 -0.00000000000E+00 -0.45593999997E+02  0.45594000000E+02  0.51100000000E-03 0.  1.
         23    2    1    2    0    0  0.00000000000E+00  0.00000000000E+00  0.00000000000E+00  0.91188000000E+02  0.91188000000E+02 0.  0.
    9900012    2    3    3    0    0  0.24165056347E+02  0.14560073463E+02  0.29278317966E+02  0.50528860924E+02  0.30000003264E+02 0.  0.
        -12    1    3    3    0    0 -0.24165056347E+02 -0.14560073463E+02 -0.29278317966E+02  0.40659139076E+02  0.00000000000E+00 0.  1.
         11    1    4    4    0    0  0.78926770853E+01  0.12942017366E+02  0.16033032293E+02  0.22064638901E+02  0.51100000000E-03 0. -1.
        -11    1    4    4    0    0 -0.22392907246E+01 -0.72874587842E-01  0.91624298965E+01  0.94323833427E+01  0.51100000000E-03 0.  1.
         12    1    4    4    0    0  0.18511669986E+02  0.16909306855E+01  0.40828557764E+01  0.19031838680E+02  0.00000000000E+00 0. -1.
</event>
<event>
 8    1  0.4964753E-012  0.9118800E+02  0.7816164E-02  0.1184000E+00
        -11   -1    0    0    0    0  0.00000000000E+00  0.00000000000E+00  0.45593999997E+02  0.45594000000E+02  0.51100000000E-03 0. -1.
         11   -1    0    0    0    0 -0.00000000000E+00 -0.00000000000E+00 -0.45593999997E+02  0.45594000000E+02  0.51100000000E-03 0.  1.
         23    2    1    2    0    0  0.00000000000E+00 -0.35527136788E-14 -0.35527136788E-14  0.91188000000E+02  0.91188000000E+02 0.  0.
    9900012    2    3    3    0    0 -0.13955639208E+02 -0.28515717779E+02 -0.25401957716E+02  0.50528862258E+02  0.30000007318E+02 0.  0.
         12    1    3    3    0    0  0.13955639208E+02  0.28515717779E+02  0.25401957716E+02  0.40659137742E+02  0.00000000000E+00 0. -1.
         11    1    4    4    0    0 -0.27541961777E+01  0.11657054747E+01  0.25428132376E+01  0.39256038085E+01  0.51100000000E-03 0. -1.
        -11    1    4    4    0    0 -0.15605684461E+01 -0.18062748830E+02 -0.44374025490E+01  0.18665176421E+02  0.51100000000E-03 0.  1.
        -12    1    4    4    0    0 -0.96408745843E+01 -0.11618674423E+02 -0.23507368405E+02  0.27938082029E+02  0.00000000000E+00 0.  1.
</event>
<event>
 8    1  0.4964753E-012  0.9118800E+02  0.7816164E-02  0.1184000E+00
        -11   -1    0    0    0    0  0.00000000000E+00  0.00000000000E+00  0.45593999997E+02  0.45594000000E+02  0.51100000000E-03 0. -1.
         11   -1    0    0    0    0 -0.00000000000E+00 -0.00000000000E+00 -0.45593999997E+02  0.45594000000E+02  0.51100000000E-03 0.  1.
         23    2    1    2    0    0  0.00000000000E+00  0.35527136788E-14  0.00000000000E+00  0.91188000000E+02  0.91188000000E+02 0.  0.
    9900012    2    3    3    0    0 -0.32219520049E+02  0.20804197119E+02  0.13500126597E+02  0.50528861936E+02  0.30000006339E+02 0.  0.
        -12    1    3    3    0    0  0.32219520049E+02 -0.20804197119E+02 -0.13500126597E+02  0.40659138064E+02  0.00000000000E+00 0.  1.
         11    1    4    4    0    0 -0.14788623687E+00  0.35256813556E+01 -0.12849519492E+01  0.37554495248E+01  0.51100000000E-03 0. -1.
        -11    1    4    4    0    0 -0.19949121157E+01 -0.49323010011E+01  0.66381883826E+01  0.85072212137E+01  0.51100000000E-03 0.  1.
         12    1    4    4    0    0 -0.30076721697E+02  0.22210816765E+02  0.81468901640E+01  0.38266191197E+02  0.00000000000E+00 0. -1.
</event>
<event>
 8    1  0.4964753E-012  0.9118800E+02  0.7816164E-02  0.1184000E+00
        -11   -1    0    0    0    0  0.00000000000E+00  0.00000000000E+00  0.45593999997E+02  0.45594000000E+02  0.51100000000E-03 0. -1.
         11   -1    0    0    0    0 -0.00000000000E+00 -0.00000000000E+00 -0.45593999997E+02  0.45594000000E+02  0.51100000000E-03 0.  1.
         23    2    1    2    0    0  0.17763568394E-14  0.35527136788E-14  0.00000000000E+00  0.91188000000E+02  0.91188000000E+02 0.  0.
    9900012    2    3    3    0    0  0.93277681901E+01  0.21913538546E+02  0.32953847139E+02  0.50528850080E+02  0.29999970302E+02 0.  0.
        -12    1    3    3    0    0 -0.93277681901E+01 -0.21913538546E+02 -0.32953847139E+02  0.40659149920E+02  0.00000000000E+00 0.  1.
         11    1    4    4    0    0  0.18789743912E+01  0.22542910744E+01  0.53335719101E+01  0.60876401497E+01  0.51100000000E-03 0. -1.
        -11    1    4    4    0    0 -0.24491429333E+01  0.46284620165E+01 -0.49651248473E+01  0.72161919844E+01  0.51100000000E-03 0.  1.
        -12    1    4    4    0    0  0.98979367322E+01  0.15030785455E+02  0.32585400076E+02  0.37225017946E+02  0.00000000000E+00 0.  1.
</event>
<event>
 8    1  0.4964753E-012  0.9118800E+02  0.7816164E-02  0.1184000E+00
        -11   -1    0    0    0    0  0.00000000000E+00  0.00000000000E+00  0.45593999997E+02  0.45594000000E+02  0.51100000000E-03 0. -1.
         11   -1    0    0    0    0 -0.00000000000E+00 -0.00000000000E+00 -0.45593999997E+02  0.45594000000E+02  0.51100000000E-03 0.  1.
         23    2    1    2    0    0 -0.35527136788E-14  0.00000000000E+00  0.35527136788E-14  0.91188000000E+02  0.91188000000E+02 0.  0.
    9900012    2    3    3    0    0 -0.31493054569E+02 -0.52926499560E+01  0.25166289567E+02  0.50528846538E+02  0.29999959538E+02 0.  0.
        -12    1    3    3    0    0  0.31493054569E+02  0.52926499560E+01 -0.25166289567E+02  0.40659153462E+02  0.00000000000E+00 0.  1.
         11    1    4    4    0    0  0.91355990237E+00  0.49471679361E+01  0.26041877410E+01  0.56648791986E+01  0.51100000000E-03 0. -1.
        -11    1    4    4    0    0 -0.11460790563E+02 -0.13346797381E+02  0.10763252652E+02  0.20623635193E+02  0.51100000000E-03 0.  1.
         12    1    4    4    0    0 -0.20945823909E+02  0.31069794893E+01  0.11798849174E+02  0.24240332147E+02  0.00000000000E+00 0. -1.
</event>
<event>
 8    1  0.5032251E-012  0.9118800E+02  0.7816164E-02  0.1184000E+00
        -11   -1    0    0    0    0  0.00000000000E+00  0.00000000000E+00  0.45593999997E+02  0.45594000000E+02  0.51100000000E-03 0. -1.
         11   -1    0    0    0    0 -0.00000000000E+00 -0.00000000000E+00 -0.45593999997E+02  0.45594000000E+02  0.51100000000E-03 0.  1.
         23    2    1    2    0    0  0.00000000000E+00  0.00000000000E+00  0.00000000000E+00  0.91188000000E+02  0.91188000000E+02 0.  0.
    9900012    2    3    3    0    0  0.20942706691E+02  0.21402352007E+02 -0.27504637085E+02  0.50528896516E+02  0.30000111450E+02 0.  0.
         12    1    3    3    0    0 -0.20942706691E+02 -0.21402352007E+02  0.27504637085E+02  0.40659103484E+02  0.00000000000E+00 0. -1.
         11    1    4    4    0    0 -0.51813089322E+01 -0.18937847370E+01 -0.40540492096E+01  0.68459986952E+01  0.51100000000E-03 0. -1.
        -11    1    4    4    0    0  0.90891607164E+01  0.61023309385E+01 -0.15786472943E+01  0.11060895667E+02  0.51100000000E-03 0.  1.
        -12    1    4    4    0    0  0.17034854906E+02  0.17193805806E+02 -0.21871940581E+02  0.32622002154E+02  0.00000000000E+00 0.  1.
</event>
<event>
 8    1  0.4964753E-012  0.9118800E+02  0.7816164E-02  0.1184000E+00
        -11   -1    0    0    0    0  0.00000000000E+00  0.00000000000E+00  0.45593999997E+02  0.45594000000E+02  0.51100000000E-03 0. -1.
         11   -1    0    0    0    0 -0.00000000000E+00 -0.00000000000E+00 -0.45593999997E+02  0.45594000000E+02  0.51100000000E-03 0.  1.
         23    2    1    2    0    0  0.00000000000E+00  0.00000000000E+00  0.00000000000E+00  0.91188000000E+02  0.91188000000E+02 0.  0.
    9900012    2    3    3    0    0 -0.25772798976E+02  0.29575543032E+02 -0.10687164354E+02  0.50528863332E+02  0.30000010583E+02 0.  0.
         12    1    3    3    0    0  0.25772798976E+02 -0.29575543032E+02  0.10687164354E+02  0.40659136668E+02  0.00000000000E+00 0. -1.
         11    1    4    4    0    0 -0.32339325168E+01 -0.15191406749E+00  0.21445388910E+01  0.38833548284E+01  0.51100000000E-03 0. -1.
        -11    1    4    4    0    0 -0.54182616399E+01  0.20781664380E+02  0.29804443296E+01  0.21682208888E+02  0.51100000000E-03 0.  1.
        -12    1    4    4    0    0 -0.17120604819E+02  0.89457927193E+01 -0.15812147574E+02  0.24963299615E+02  0.00000000000E+00 0.  1.
</event>
<event>
 8    1  0.4964753E-012  0.9118800E+02  0.7816164E-02  0.1184000E+00
        -11   -1    0    0    0    0  0.00000000000E+00  0.00000000000E+00  0.45593999997E+02  0.45594000000E+02  0.51100000000E-03 0. -1.
         11   -1    0    0    0    0 -0.00000000000E+00 -0.00000000000E+00 -0.45593999997E+02  0.45594000000E+02  0.51100000000E-03 0.  1.
         23    2    1    2    0    0  0.00000000000E+00 -0.35527136788E-14  0.00000000000E+00  0.91188000000E+02  0.91188000000E+02 0.  0.
    9900012    2    3    3    0    0 -0.12302137195E+02  0.30695849476E+02  0.23655625813E+02  0.50528851125E+02  0.29999973479E+02 0.  0.
        -12    1    3    3    0    0  0.12302137195E+02 -0.30695849476E+02 -0.23655625813E+02  0.40659148875E+02  0.00000000000E+00 0.  1.
         11    1    4    4    0    0 -0.74364380160E+01  0.27110919148E+02  0.96731298452E+01  0.29729984673E+02  0.51100000000E-03 0. -1.
        -11    1    4    4    0    0 -0.80370770779E+01  0.37909366691E+01  0.30206692394E+01  0.93856407187E+01  0.51100000000E-03 0.  1.
         12    1    4    4    0    0  0.31713778992E+01 -0.20600634056E+00  0.10961826729E+02  0.11413225733E+02  0.00000000000E+00 0. -1.
</event>
<event>
 8    1  0.4964753E-012  0.9118800E+02  0.7816164E-02  0.1184000E+00
        -11   -1    0    0    0    0  0.00000000000E+00  0.00000000000E+00  0.45593999997E+02  0.45594000000E+02  0.51100000000E-03 0. -1.
         11   -1    0    0    0    0 -0.00000000000E+00 -0.00000000000E+00 -0.45593999997E+02  0.45594000000E+02  0.51100000000E-03 0.  1.
         23    2    1    2    0    0  0.44408920985E-15  0.00000000000E+00  0.00000000000E+00  0.91188000000E+02  0.91188000000E+02 0.  0.
    9900012    2    3    3    0    0  0.69850689743E+00  0.22416096325E+01  0.40591297618E+02  0.50528853821E+02  0.29999981675E+02 0.  0.
        -12    1    3    3    0    0 -0.69850689743E+00 -0.22416096325E+01 -0.40591297618E+02  0.40659146179E+02  0.00000000000E+00 0.  1.
         11    1    4    4    0    0  0.67339117438E+01 -0.72799703544E+01  0.27086345217E+02  0.28844646526E+02  0.51100000000E-03 0. -1.
        -11    1    4    4    0    0 -0.89853915836E+00  0.16215800261E+01 -0.24993041542E+01  0.31118187474E+01  0.51100000000E-03 0.  1.
        -12    1    4    4    0    0 -0.51368656880E+01  0.78999999607E+01  0.16004256555E+02  0.18572388548E+02  0.00000000000E+00 0.  1.
</event>
<event>
 8    1  0.4964753E-012  0.9118800E+02  0.7816164E-02  0.1184000E+00
        -11   -1    0    0    0    0  0.00000000000E+00  0.00000000000E+00  0.45593999997E+02  0.45594000000E+02  0.51100000000E-03 0. -1.
         11   -1    0    0    0    0 -0.00000000000E+00 -0.00000000000E+00 -0.45593999997E+02  0.45594000000E+02  0.51100000000E-03 0.  1.
         23    2    1    2    0    0  0.00000000000E+00  0.00000000000E+00  0.00000000000E+00  0.91188000000E+02  0.91188000000E+02 0.  0.
    9900012    2    3    3    0    0 -0.21278842354E+02  0.23823427891E+02 -0.25155968152E+02  0.50528836432E+02  0.29999928819E+02 0.  0.
         12    1    3    3    0    0  0.21278842354E+02 -0.23823427891E+02  0.25155968152E+02  0.40659163568E+02  0.00000000000E+00 0. -1.
         11    1    4    4    0    0 -0.67147700453E+01  0.49063187715E+00 -0.17088228261E+02  0.18366719952E+02  0.51100000000E-03 0. -1.
        -11    1    4    4    0    0 -0.17014647338E+01  0.37233818470E+01 -0.76851039803E+01  0.87074323465E+01  0.51100000000E-03 0.  1.
         12    1    4    4    0    0 -0.12862607575E+02  0.19609414167E+02 -0.38263591014E+00  0.23454684134E+02  0.00000000000E+00 0. -1.
</event>
<event>
 8    1  0.4964753E-012  0.9118800E+02  0.7816164E-02  0.1184000E+00
        -11   -1    0    0    0    0  0.00000000000E+00  0.00000000000E+00  0.45593999997E+02  0.45594000000E+02  0.51100000000E-03 0. -1.
         11   -1    0    0    0    0 -0.00000000000E+00 -0.00000000000E+00 -0.45593999997E+02  0.45594000000E+02  0.51100000000E-03 0.  1.
         23    2    1    2    0    0  0.53290705182E-14  0.00000000000E+00  0.00000000000E+00  0.91188000000E+02  0.91188000000E+02 0.  0.
    9900012    2    3    3    0    0  0.78081064624E+01 -0.24887470000E+02 -0.31189962650E+02  0.50528850235E+02  0.29999970774E+02 0.  0.
         12    1    3    3    0    0 -0.78081064624E+01  0.24887470000E+02  0.31189962650E+02  0.40659149765E+02  0.00000000000E+00 0. -1.
         11    1    4    4    0    0  0.15289417533E+02 -0.73858719043E+01 -0.95824468904E+01  0.19497196746E+02  0.51100000000E-03 0. -1.
        -11    1    4    4    0    0  0.18333359168E+01 -0.96816128268E+01 -0.73587843137E+01  0.12298229724E+02  0.51100000000E-03 0.  1.
         12    1    4    4    0    0 -0.93146469878E+01 -0.78199852685E+01 -0.14248731446E+02  0.18733423764E+02  0.00000000000E+00 0. -1.
</event>
<event>
 8    1  0.4964753E-012  0.9118800E+02  0.7816164E-02  0.1184000E+00
        -11   -1    0    0    0    0  0.00000000000E+00  0.00000000000E+00  0.45593999997E+02  0.45594000000E+02  0.51100000000E-03 0. -1.
         11   -1    0    0    0    0 -0.00000000000E+00 -0.00000000000E+00 -0.45593999997E+02  0.45594000000E+02  0.51100000000E-03 0.  1.
         23    2    1    2    0    0 -0.35527136788E-14 -0.22204460493E-15  0.71054273576E-14  0.91188000000E+02  0.91188000000E+02 0.  0.
    9900012    2    3    3    0    0 -0.19086408506E+02 -0.19072384702E+01 -0.35850203899E+02  0.50528859972E+02  0.30000000370E+02 0.  0.
         12    1    3    3    0    0  0.19086408506E+02  0.19072384702E+01  0.35850203899E+02  0.40659140028E+02  0.00000000000E+00 0. -1.
         11    1    4    4    0    0 -0.29197320636E+01  0.28667269707E+01  0.69754208150E-01  0.40924106293E+01  0.51100000000E-03 0. -1.
        -11    1    4    4    0    0 -0.11385219768E+02 -0.47219150591E+01 -0.38897380164E+02  0.40803503463E+02  0.51100000000E-03 0.  1.
         12    1    4    4    0    0 -0.47814566744E+01 -0.52050381756E-01  0.29774220571E+01  0.56329458791E+01  0.00000000000E+00 0. -1.
</event>
<event>
 8    1  0.4964753E-012  0.9118800E+02  0.7816164E-02  0.1184000E+00
        -11   -1    0    0    0    0  0.00000000000E+00  0.00000000000E+00  0.45593999997E+02  0.45594000000E+02  0.51100000000E-03 0.  1.
         11   -1    0    0    0    0 -0.00000000000E+00 -0.00000000000E+00 -0.45593999997E+02  0.45594000000E+02  0.51100000000E-03 0. -1.
         23    2    1    2    0    0 -0.17763568394E-14  0.71054273576E-14  0.88817841970E-15  0.91188000000E+02  0.91188000000E+02 0.  0.
    9900012    2    3    3    0    0  0.40913646240E+01 -0.40022319103E+02  0.58856124669E+01  0.50528859269E+02  0.29999998234E+02 0.  0.
         12    1    3    3    0    0 -0.40913646240E+01  0.40022319103E+02 -0.58856124669E+01  0.40659140731E+02  0.00000000000E+00 0. -1.
         11    1    4    4    0    0 -0.66062578791E+00 -0.44202735099E+01 -0.15040881773E+01  0.47156681224E+01  0.51100000000E-03 0. -1.
        -11    1    4    4    0    0  0.85995217160E+01 -0.26116119127E+02 -0.67929640869E+01  0.28322214132E+02  0.51100000000E-03 0.  1.
         12    1    4    4    0    0 -0.38475313041E+01 -0.94859264663E+01  0.14182664731E+02  0.17490977015E+02  0.00000000000E+00 0. -1.
</event>
<event>
 8    1  0.4964753E-012  0.9118800E+02  0.7816164E-02  0.1184000E+00
        -11   -1    0    0    0    0  0.00000000000E+00  0.00000000000E+00  0.45593999997E+02  0.45594000000E+02  0.51100000000E-03 0.  1.
         11   -1    0    0    0    0 -0.00000000000E+00 -0.00000000000E+00 -0.45593999997E+02  0.45594000000E+02  0.51100000000E-03 0. -1.
         23    2    1    2    0    0  0.00000000000E+00  0.00000000000E+00  0.17763568394E-14  0.91188000000E+02  0.91188000000E+02 0.  0.
    9900012    2    3    3    0    0  0.36821211519E+02 -0.11158561110E+02 -0.13147268768E+02  0.50528858594E+02  0.29999996183E+02 0.  0.
         12    1    3    3    0    0 -0.36821211519E+02  0.11158561110E+02  0.13147268768E+02  0.40659141406E+02  0.00000000000E+00 0. -1.
         11    1    4    4    0    0  0.13958108824E+01 -0.11164538937E+02  0.29955396353E+00  0.11255440930E+02  0.51100000000E-03 0. -1.
        -11    1    4    4    0    0  0.75770290602E+01 -0.17894221116E+01  0.10000448382E+01  0.78494261455E+01  0.51100000000E-03 0.  1.
        -12    1    4    4    0    0  0.27848371577E+02  0.17953999380E+01 -0.14446867570E+02  0.31423991519E+02  0.00000000000E+00 0.  1.
</event>
<event>
 8    1  0.4964753E-012  0.9118800E+02  0.7816164E-02  0.1184000E+00
        -11   -1    0    0    0    0  0.00000000000E+00  0.00000000000E+00  0.45593999997E+02  0.45594000000E+02  0.51100000000E-03 0. -1.
         11   -1    0    0    0    0 -0.00000000000E+00 -0.00000000000E+00 -0.45593999997E+02  0.45594000000E+02  0.51100000000E-03 0.  1.
         23    2    1    2    0    0 -0.22204460493E-15  0.35527136788E-14  0.00000000000E+00  0.91188000000E+02  0.91188000000E+02 0.  0.
    9900012    2    3    3    0    0  0.16575022363E+01  0.30504076277E+02  0.26831334487E+02  0.50528849818E+02  0.29999969506E+02 0.  0.
        -12    1    3    3    0    0 -0.16575022363E+01 -0.30504076277E+02 -0.26831334487E+02  0.40659150182E+02  0.00000000000E+00 0.  1.
         11    1    4    4    0    0 -0.85962398722E+01  0.17537446825E+02  0.13736265064E+02  0.23877653972E+02  0.51100000000E-03 0. -1.
        -11    1    4    4    0    0  0.35922912948E+01  0.15612004699E+02  0.96103516372E+01  0.18681491009E+02  0.51100000000E-03 0.  1.
        -12    1    4    4    0    0  0.66614508137E+01 -0.26453752461E+01  0.34847177862E+01  0.79697048368E+01  0.00000000000E+00 0.  1.
</event>
<event>
 8    1  0.4964753E-012  0.9118800E+02  0.7816164E-02  0.1184000E+00
        -11   -1    0    0    0    0  0.00000000000E+00  0.00000000000E+00  0.45593999997E+02  0.45594000000E+02  0.51100000000E-03 0. -1.
         11   -1    0    0    0    0 -0.00000000000E+00 -0.00000000000E+00 -0.45593999997E+02  0.45594000000E+02  0.51100000000E-03 0.  1.
         23    2    1    2    0    0  0.35527136788E-14  0.17763568394E-14  0.00000000000E+00  0.91188000000E+02  0.91188000000E+02 0.  0.
    9900012    2    3    3    0    0  0.16303014853E+02  0.91733665027E+01  0.36100188565E+02  0.50528898181E+02  0.30000116511E+02 0.  0.
        -12    1    3    3    0    0 -0.16303014853E+02 -0.91733665027E+01 -0.36100188565E+02  0.40659101819E+02  0.00000000000E+00 0.  1.
         11    1    4    4    0    0 -0.52717446082E+01  0.74605294642E+00  0.54893772636E+01  0.76472968569E+01  0.51100000000E-03 0.  1.
        -11    1    4    4    0    0  0.71622923837E+01  0.12927205230E+02  0.12983187112E+02  0.19671660201E+02  0.51100000000E-03 0. -1.
         12    1    4    4    0    0  0.14412467078E+02 -0.44998916736E+01  0.17627624190E+02  0.23209941123E+02  0.00000000000E+00 0. -1.
</event>
<event>
 8    1  0.4964753E-012  0.9118800E+02  0.7816164E-02  0.1184000E+00
        -11   -1    0    0    0    0  0.00000000000E+00  0.00000000000E+00  0.45593999997E+02  0.45594000000E+02  0.51100000000E-03 0.  1.
         11   -1    0    0    0    0 -0.00000000000E+00 -0.00000000000E+00 -0.45593999997E+02  0.45594000000E+02  0.51100000000E-03 0. -1.
         23    2    1    2    0    0  0.00000000000E+00  0.00000000000E+00  0.00000000000E+00  0.91188000000E+02  0.91188000000E+02 0.  0.
    9900012    2    3    3    0    0 -0.21175241130E+02  0.27971655696E+02  0.20551443584E+02  0.50528853518E+02  0.29999980753E+02 0.  0.
        -12    1    3    3    0    0  0.21175241130E+02 -0.27971655696E+02 -0.20551443584E+02  0.40659146482E+02  0.00000000000E+00 0.  1.
         11    1    4    4    0    0 -0.59642902735E+01  0.59399277838E+01 -0.46389115550E+01  0.96111914568E+01  0.51100000000E-03 0. -1.
        -11    1    4    4    0    0  0.28642301038E+01  0.66427157745E+00  0.68557686856E+01  0.74596672411E+01  0.51100000000E-03 0.  1.
        -12    1    4    4    0    0 -0.18075180960E+02  0.21367456335E+02  0.18334586453E+02  0.33457994820E+02  0.00000000000E+00 0.  1.
</event>
<event>
 8    1  0.4964753E-012  0.9118800E+02  0.7816164E-02  0.1184000E+00
        -11   -1    0    0    0    0  0.00000000000E+00  0.00000000000E+00  0.45593999997E+02  0.45594000000E+02  0.51100000000E-03 0. -1.
         11   -1    0    0    0    0 -0.00000000000E+00 -0.00000000000E+00 -0.45593999997E+02  0.45594000000E+02  0.51100000000E-03 0.  1.
         23    2    1    2    0    0  0.00000000000E+00  0.00000000000E+00  0.00000000000E+00  0.91188000000E+02  0.91188000000E+02 0.  0.
    9900012    2    3    3    0    0  0.22501538122E+02  0.49454500188E+01 -0.33502079159E+02  0.50528855866E+02  0.29999987890E+02 0.  0.
         12    1    3    3    0    0 -0.22501538122E+02 -0.49454500188E+01  0.33502079159E+02  0.40659144134E+02  0.00000000000E+00 0. -1.
         11    1    4    4    0    0  0.14822914311E+01 -0.38709664120E+01 -0.24406312684E+01  0.48102234978E+01  0.51100000000E-03 0. -1.
        -11    1    4    4    0    0 -0.23865967695E+01 -0.45348459577E+01 -0.77921385591E+00  0.51834203471E+01  0.51100000000E-03 0.  1.
         12    1    4    4    0    0  0.23405843461E+02  0.13351262389E+02 -0.30282234035E+02  0.40535212021E+02  0.00000000000E+00 0. -1.
</event>
<event>
 8    1  0.4964753E-012  0.9118800E+02  0.7816164E-02  0.1184000E+00
        -11   -1    0    0    0    0  0.00000000000E+00  0.00000000000E+00  0.45593999997E+02  0.45594000000E+02  0.51100000000E-03 0. -1.
         11   -1    0    0    0    0 -0.00000000000E+00 -0.00000000000E+00 -0.45593999997E+02  0.45594000000E+02  0.51100000000E-03 0.  1.
         23    2    1    2    0    0 -0.13322676296E-14 -0.35527136788E-14  0.00000000000E+00  0.91188000000E+02  0.91188000000E+02 0.  0.
    9900012    2    3    3    0    0 -0.28003559945E+01 -0.18843413924E+02 -0.35920035912E+02  0.50528865455E+02  0.30000017038E+02 0.  0.
         12    1    3    3    0    0  0.28003559945E+01  0.18843413924E+02  0.35920035912E+02  0.40659134545E+02  0.00000000000E+00 0. -1.
         11    1    4    4    0    0 -0.65588552838E+01 -0.67663629107E+01 -0.82990985718E+01  0.12556961696E+02  0.51100000000E-03 0. -1.
        -11    1    4    4    0    0  0.13222672716E+01 -0.17555981228E+02 -0.12181820111E+02  0.21409287917E+02  0.51100000000E-03 0.  1.
        -12    1    4    4    0    0  0.24362320178E+01  0.54789302144E+01 -0.15439117229E+02  0.16562615842E+02  0.00000000000E+00 0.  1.
</event>
<event>
 8    1  0.4964753E-012  0.9118800E+02  0.7816164E-02  0.1184000E+00
        -11   -1    0    0    0    0  0.00000000000E+00  0.00000000000E+00  0.45593999997E+02  0.45594000000E+02  0.51100000000E-03 0. -1.
         11   -1    0    0    0    0 -0.00000000000E+00 -0.00000000000E+00 -0.45593999997E+02  0.45594000000E+02  0.51100000000E-03 0.  1.
         23    2    1    2    0    0 -0.17763568394E-14  0.00000000000E+00  0.00000000000E+00  0.91188000000E+02  0.91188000000E+02 0.  0.
    9900012    2    3    3    0    0 -0.85910919585E+01  0.11074171955E+02 -0.38167046436E+02  0.50528836467E+02  0.29999928926E+02 0.  0.
         12    1    3    3    0    0  0.85910919585E+01 -0.11074171955E+02  0.38167046436E+02  0.40659163533E+02  0.00000000000E+00 0. -1.
         11    1    4    4    0    0  0.14007350818E+00  0.21727230881E+00  0.30273934582E+01  0.30384106464E+01  0.51100000000E-03 0. -1.
        -11    1    4    4    0    0 -0.12073396207E+02 -0.19713578813E+00 -0.20505796990E+02  0.23796921417E+02  0.51100000000E-03 0.  1.
         12    1    4    4    0    0  0.33422307399E+01  0.11054035435E+02 -0.20688642904E+02  0.23693504403E+02  0.00000000000E+00 0. -1.
</event>
<event>
 8    1  0.4964753E-012  0.9118800E+02  0.7816164E-02  0.1184000E+00
        -11   -1    0    0    0    0  0.00000000000E+00  0.00000000000E+00  0.45593999997E+02  0.45594000000E+02  0.51100000000E-03 0. -1.
         11   -1    0    0    0    0 -0.00000000000E+00 -0.00000000000E+00 -0.45593999997E+02  0.45594000000E+02  0.51100000000E-03 0.  1.
         23    2    1    2    0    0  0.71054273576E-14  0.44408920985E-15  0.35527136788E-14  0.91188000000E+02  0.91188000000E+02 0.  0.
    9900012    2    3    3    0    0  0.30496830781E+02 -0.93454123119E+00  0.26874439801E+02  0.50528861179E+02  0.30000004041E+02 0.  0.
        -12    1    3    3    0    0 -0.30496830781E+02  0.93454123119E+00 -0.26874439801E+02  0.40659138821E+02  0.00000000000E+00 0.  1.
         11    1    4    4    0    0  0.98784546577E+01  0.59128431573E+01  0.71820664022E+01  0.13569364712E+02  0.51100000000E-03 0. -1.
        -11    1    4    4    0    0 -0.46299833984E+01 -0.18674899607E+01  0.85030247052E+00  0.50643143243E+01  0.51100000000E-03 0.  1.
         12    1    4    4    0    0  0.25248359522E+02 -0.49798944278E+01  0.18842070929E+02  0.31895182143E+02  0.00000000000E+00 0. -1.
</event>
<event>
 8    1  0.4964753E-012  0.9118800E+02  0.7816164E-02  0.1184000E+00
        -11   -1    0    0    0    0  0.00000000000E+00  0.00000000000E+00  0.45593999997E+02  0.45594000000E+02  0.51100000000E-03 0. -1.
         11   -1    0    0    0    0 -0.00000000000E+00 -0.00000000000E+00 -0.45593999997E+02  0.45594000000E+02  0.51100000000E-03 0.  1.
         23    2    1    2    0    0 -0.69388939039E-16 -0.17763568394E-14  0.71054273576E-14  0.91188000000E+02  0.91188000000E+02 0.  0.
    9900012    2    3    3    0    0  0.97163666337E-01 -0.13239659391E+02  0.38443046712E+02  0.50528857583E+02  0.29999993110E+02 0.  0.
        -12    1    3    3    0    0 -0.97163666337E-01  0.13239659391E+02 -0.38443046712E+02  0.40659142417E+02  0.00000000000E+00 0.  1.
         11    1    4    4    0    0  0.32941580782E+01  0.21736352593E+01  0.14762088007E+02  0.15280556609E+02  0.51100000000E-03 0. -1.
        -11    1    4    4    0    0  0.47790709241E+01 -0.15548917738E+02  0.21533606578E+02  0.26987118673E+02  0.51100000000E-03 0.  1.
         12    1    4    4    0    0 -0.79760653359E+01  0.13562308812E+00  0.21473521265E+01  0.82611823016E+01  0.00000000000E+00 0. -1.
</event>
<event>
 8    1  0.4964753E-012  0.9118800E+02  0.7816164E-02  0.1184000E+00
        -11   -1    0    0    0    0  0.00000000000E+00  0.00000000000E+00  0.45593999997E+02  0.45594000000E+02  0.51100000000E-03 0. -1.
         11   -1    0    0    0    0 -0.00000000000E+00 -0.00000000000E+00 -0.45593999997E+02  0.45594000000E+02  0.51100000000E-03 0.  1.
         23    2    1    2    0    0  0.00000000000E+00 -0.17763568394E-14  0.35527136788E-14  0.91188000000E+02  0.91188000000E+02 0.  0.
    9900012    2    3    3    0    0 -0.33451633963E+02  0.88072279206E+01 -0.21367862370E+02  0.50528872848E+02  0.30000039510E+02 0.  0.
         12    1    3    3    0    0  0.33451633963E+02 -0.88072279206E+01  0.21367862370E+02  0.40659127152E+02  0.00000000000E+00 0. -1.
         11    1    4    4    0    0  0.11303034586E+01 -0.24253906742E+01 -0.62584596660E+01  0.68064986214E+01  0.51100000000E-03 0. -1.
        -11    1    4    4    0    0 -0.21771390809E+02 -0.64488148995E+00 -0.19832683917E+01  0.21871046698E+02  0.51100000000E-03 0.  1.
         12    1    4    4    0    0 -0.12810546613E+02  0.11877500085E+02 -0.13126134312E+02  0.21851327529E+02  0.00000000000E+00 0. -1.
</event>
<event>
 8    1  0.4964753E-012  0.9118800E+02  0.7816164E-02  0.1184000E+00
        -11   -1    0    0    0    0  0.00000000000E+00  0.00000000000E+00  0.45593999997E+02  0.45594000000E+02  0.51100000000E-03 0. -1.
         11   -1    0    0    0    0 -0.00000000000E+00 -0.00000000000E+00 -0.45593999997E+02  0.45594000000E+02  0.51100000000E-03 0.  1.
         23    2    1    2    0    0  0.00000000000E+00  0.88817841970E-15  0.00000000000E+00  0.91188000000E+02  0.91188000000E+02 0.  0.
    9900012    2    3    3    0    0  0.29590857838E+02  0.69030047741E+01 -0.27016550005E+02  0.50528876588E+02  0.30000050876E+02 0.  0.
         12    1    3    3    0    0 -0.29590857838E+02 -0.69030047741E+01  0.27016550005E+02  0.40659123412E+02  0.00000000000E+00 0. -1.
         11    1    4    4    0    0  0.93395867376E+01  0.10766963282E+02 -0.64129609462E+01  0.15629505658E+02  0.51100000000E-03 0. -1.
        -11    1    4    4    0    0  0.86654392662E-01 -0.15889645812E+00  0.33584836454E+01  0.33633569133E+01  0.51100000000E-03 0.  1.
        -12    1    4    4    0    0  0.20164616708E+02 -0.37050620502E+01 -0.23962072704E+02  0.31536014016E+02  0.00000000000E+00 0.  1.
</event>
<event>
 8    1  0.4964753E-012  0.9118800E+02  0.7816164E-02  0.1184000E+00
        -11   -1    0    0    0    0  0.00000000000E+00  0.00000000000E+00  0.45593999997E+02  0.45594000000E+02  0.51100000000E-03 0. -1.
         11   -1    0    0    0    0 -0.00000000000E+00 -0.00000000000E+00 -0.45593999997E+02  0.45594000000E+02  0.51100000000E-03 0.  1.
         23    2    1    2    0    0  0.00000000000E+00 -0.17763568394E-14  0.00000000000E+00  0.91188000000E+02  0.91188000000E+02 0.  0.
    9900012    2    3    3    0    0  0.36352888699E+02 -0.12206842455E+02 -0.13513912659E+02  0.50528863821E+02  0.30000012070E+02 0.  0.
         12    1    3    3    0    0 -0.36352888699E+02  0.12206842455E+02  0.13513912659E+02  0.40659136179E+02  0.00000000000E+00 0. -1.
         11    1    4    4    0    0  0.46547219167E+01  0.25781702168E+01 -0.86320892965E+01  0.10140333509E+02  0.51100000000E-03 0. -1.
        -11    1    4    4    0    0  0.11006336775E+02  0.25677559083E+01  0.39558237906E+01  0.11974195661E+02  0.51100000000E-03 0.  1.
         12    1    4    4    0    0  0.20691830007E+02 -0.17352768580E+02 -0.88376471531E+01  0.28414334651E+02  0.00000000000E+00 0. -1.
</event>
<event>
 8    1  0.4964753E-012  0.9118800E+02  0.7816164E-02  0.1184000E+00
        -11   -1    0    0    0    0  0.00000000000E+00  0.00000000000E+00  0.45593999997E+02  0.45594000000E+02  0.51100000000E-03 0. -1.
         11   -1    0    0    0    0 -0.00000000000E+00 -0.00000000000E+00 -0.45593999997E+02  0.45594000000E+02  0.51100000000E-03 0.  1.
         23    2    1    2    0    0  0.00000000000E+00  0.00000000000E+00  0.00000000000E+00  0.91188000000E+02  0.91188000000E+02 0.  0.
    9900012    2    3    3    0    0 -0.11960430556E+02 -0.84014874691E+01  0.37941126763E+02  0.50528856000E+02  0.29999988299E+02 0.  0.
        -12    1    3    3    0    0  0.11960430556E+02  0.84014874691E+01 -0.37941126763E+02  0.40659144000E+02  0.00000000000E+00 0.  1.
         11    1    4    4    0    0 -0.13801083759E+02 -0.68848581713E+01  0.10736412341E+02  0.18792065751E+02  0.51100000000E-03 0. -1.
        -11    1    4    4    0    0 -0.45412612520E+01 -0.49216704998E+01  0.21516890160E+02  0.22534916389E+02  0.51100000000E-03 0.  1.
        -12    1    4    4    0    0  0.63819144556E+01  0.34050412020E+01  0.56878242625E+01  0.92018738606E+01  0.00000000000E+00 0.  1.
</event>
<event>
 8    1  0.5156167E-012  0.9118800E+02  0.7816164E-02  0.1184000E+00
        -11   -1    0    0    0    0  0.00000000000E+00  0.00000000000E+00  0.45593999997E+02  0.45594000000E+02  0.51100000000E-03 0. -1.
         11   -1    0    0    0    0 -0.00000000000E+00 -0.00000000000E+00 -0.45593999997E+02  0.45594000000E+02  0.51100000000E-03 0.  1.
         23    2    1    2    0    0  0.33306690739E-15  0.35527136788E-14 -0.71054273576E-14  0.91188000000E+02  0.91188000000E+02 0.  0.
    9900012    2    3    3    0    0  0.68450882960E+00  0.23361557930E+02 -0.33270632898E+02  0.50528856444E+02  0.29999989648E+02 0.  0.
         12    1    3    3    0    0 -0.68450882960E+00 -0.23361557930E+02  0.33270632898E+02  0.40659143556E+02  0.00000000000E+00 0. -1.
         11    1    4    4    0    0  0.90780107208E+01  0.13503863303E+02 -0.19013163093E+02  0.25025286688E+02  0.51100000000E-03 0. -1.
        -11    1    4    4    0    0  0.14752293313E+01  0.46540067040E+01 -0.13460452358E+02  0.14318514515E+02  0.51100000000E-03 0.  1.
         12    1    4    4    0    0 -0.98687312225E+01  0.52036879229E+01 -0.79701744709E+00  0.11185055241E+02  0.00000000000E+00 0. -1.
</event>
<event>
 8    1  0.4964753E-012  0.9118800E+02  0.7816164E-02  0.1184000E+00
        -11   -1    0    0    0    0  0.00000000000E+00  0.00000000000E+00  0.45593999997E+02  0.45594000000E+02  0.51100000000E-03 0. -1.
         11   -1    0    0    0    0 -0.00000000000E+00 -0.00000000000E+00 -0.45593999997E+02  0.45594000000E+02  0.51100000000E-03 0.  1.
         23    2    1    2    0    0 -0.71054273576E-14 -0.17763568394E-14  0.17763568394E-14  0.91188000000E+02  0.91188000000E+02 0.  0.
    9900012    2    3    3    0    0 -0.37406273353E+02 -0.66024204834E+01  0.14503281483E+02  0.50528850769E+02  0.29999972398E+02 0.  0.
        -12    1    3    3    0    0  0.37406273353E+02  0.66024204834E+01 -0.14503281483E+02  0.40659149231E+02  0.00000000000E+00 0.  1.
         11    1    4    4    0    0 -0.26812490058E+02 -0.85443885953E+01  0.17356264326E+02  0.33062911414E+02  0.51100000000E-03 0. -1.
        -11    1    4    4    0    0 -0.13137253708E+02 -0.27873073775E+00 -0.15044006631E+00  0.13141071429E+02  0.51100000000E-03 0.  1.
        -12    1    4    4    0    0  0.25434704128E+01  0.22206988496E+01 -0.27025427768E+01  0.43248679265E+01  0.00000000000E+00 0.  1.
</event>
<event>
 8    1  0.4964753E-012  0.9118800E+02  0.7816164E-02  0.1184000E+00
        -11   -1    0    0    0    0  0.00000000000E+00  0.00000000000E+00  0.45593999997E+02  0.45594000000E+02  0.51100000000E-03 0. -1.
         11   -1    0    0    0    0 -0.00000000000E+00 -0.00000000000E+00 -0.45593999997E+02  0.45594000000E+02  0.51100000000E-03 0.  1.
         23    2    1    2    0    0  0.00000000000E+00  0.00000000000E+00  0.71054273576E-14  0.91188000000E+02  0.91188000000E+02 0.  0.
    9900012    2    3    3    0    0 -0.17457683289E+02  0.12974486025E+02 -0.34351908877E+02  0.50528909541E+02  0.30000151041E+02 0.  0.
         12    1    3    3    0    0  0.17457683289E+02 -0.12974486025E+02  0.34351908877E+02  0.40659090459E+02  0.00000000000E+00 0. -1.
         11    1    4    4    0    0  0.40548734703E+00  0.60905474700E+01 -0.98379354788E+01  0.11577744306E+02  0.51100000000E-03 0. -1.
        -11    1    4    4    0    0 -0.88406980512E+01  0.20581873158E+01 -0.26946295485E+02  0.28434080216E+02  0.51100000000E-03 0.  1.
        -12    1    4    4    0    0 -0.90224725849E+01  0.48257512391E+01  0.24323220869E+01  0.10517085019E+02  0.00000000000E+00 0.  1.
</event>
<event>
 8    1  0.4964753E-012  0.9118800E+02  0.7816164E-02  0.1184000E+00
        -11   -1    0    0    0    0  0.00000000000E+00  0.00000000000E+00  0.45593999997E+02  0.45594000000E+02  0.51100000000E-03 0.  1.
         11   -1    0    0    0    0 -0.00000000000E+00 -0.00000000000E+00 -0.45593999997E+02  0.45594000000E+02  0.51100000000E-03 0. -1.
         23    2    1    2    0    0  0.00000000000E+00  0.35527136788E-14  0.00000000000E+00  0.91188000000E+02  0.91188000000E+02 0.  0.
    9900012    2    3    3    0    0 -0.31964247841E+02 -0.23401096438E+02 -0.91564671561E+01  0.50528863938E+02  0.30000012427E+02 0.  0.
         12    1    3    3    0    0  0.31964247841E+02  0.23401096438E+02  0.91564671561E+01  0.40659136062E+02  0.00000000000E+00 0. -1.
         11    1    4    4    0    0 -0.91711463076E+00  0.23946624906E+01 -0.40267893356E+00  0.25956999585E+01  0.51100000000E-03 0. -1.
        -11    1    4    4    0    0 -0.28358077310E+01 -0.15467299730E+02 -0.85302082839E+01  0.17889762996E+02  0.51100000000E-03 0.  1.
         12    1    4    4    0    0 -0.28211325479E+02 -0.10328459198E+02 -0.22357993868E+00  0.30043400984E+02  0.00000000000E+00 0. -1.
</event>
<event>
 8    1  0.4964753E-012  0.9118800E+02  0.7816164E-02  0.1184000E+00
        -11   -1    0    0    0    0  0.00000000000E+00  0.00000000000E+00  0.45593999997E+02  0.45594000000E+02  0.51100000000E-03 0. -1.
         11   -1    0    0    0    0 -0.00000000000E+00 -0.00000000000E+00 -0.45593999997E+02  0.45594000000E+02  0.51100000000E-03 0.  1.
         23    2    1    2    0    0 -0.35527136788E-14  0.35527136788E-14  0.00000000000E+00  0.91188000000E+02  0.91188000000E+02 0.  0.
    9900012    2    3    3    0    0  0.18628431796E+02 -0.18437272993E+02  0.31083986332E+02  0.50528859418E+02  0.29999998686E+02 0.  0.
        -12    1    3    3    0    0 -0.18628431796E+02  0.18437272993E+02 -0.31083986332E+02  0.40659140582E+02  0.00000000000E+00 0.  1.
         11    1    4    4    0    0  0.58440781194E+01 -0.25732656936E+01  0.26651219655E+01  0.69193800841E+01  0.51100000000E-03 0. -1.
        -11    1    4    4    0    0 -0.38442641199E+01 -0.61660380420E+01  0.22232616875E+02  0.23389904770E+02  0.51100000000E-03 0.  1.
        -12    1    4    4    0    0  0.16628617796E+02 -0.96979692573E+01  0.61862474920E+01  0.20219574564E+02  0.00000000000E+00 0.  1.
</event>
<event>
 8    1  0.4964753E-012  0.9118800E+02  0.7816164E-02  0.1184000E+00
        -11   -1    0    0    0    0  0.00000000000E+00  0.00000000000E+00  0.45593999997E+02  0.45594000000E+02  0.51100000000E-03 0. -1.
         11   -1    0    0    0    0 -0.00000000000E+00 -0.00000000000E+00 -0.45593999997E+02  0.45594000000E+02  0.51100000000E-03 0.  1.
         23    2    1    2    0    0 -0.55511151231E-15 -0.35527136788E-14 -0.35527136788E-14  0.91188000000E+02  0.91188000000E+02 0.  0.
    9900012    2    3    3    0    0  0.71858366478E+00  0.25545044350E+02 -0.31624354282E+02  0.50528862809E+02  0.30000008996E+02 0.  0.
         12    1    3    3    0    0 -0.71858366478E+00 -0.25545044350E+02  0.31624354282E+02  0.40659137191E+02  0.00000000000E+00 0. -1.
         11    1    4    4    0    0  0.59040487358E+01  0.13991450550E+02 -0.15786463316E+02  0.21905042895E+02  0.51100000000E-03 0. -1.
        -11    1    4    4    0    0  0.17028974133E+01 -0.27817909948E+01 -0.11761315959E+02  0.12205194553E+02  0.51100000000E-03 0.  1.
         12    1    4    4    0    0 -0.68883624844E+01  0.14335384795E+02 -0.40765750067E+01  0.16418625361E+02  0.00000000000E+00 0. -1.
</event>
<event>
 8    1  0.4964753E-012  0.9118800E+02  0.7816164E-02  0.1184000E+00
        -11   -1    0    0    0    0  0.00000000000E+00  0.00000000000E+00  0.45593999997E+02  0.45594000000E+02  0.51100000000E-03 0. -1.
         11   -1    0    0    0    0 -0.00000000000E+00 -0.00000000000E+00 -0.45593999997E+02  0.45594000000E+02  0.51100000000E-03 0.  1.
         23    2    1    2    0    0  0.26645352591E-14 -0.35527136788E-14  0.35527136788E-14  0.91188000000E+02  0.91188000000E+02 0.  0.
    9900012    2    3    3    0    0  0.63918138252E+01  0.29554416095E+02 -0.27181723979E+02  0.50528869252E+02  0.30000028579E+02 0.  0.
         12    1    3    3    0    0 -0.63918138252E+01 -0.29554416095E+02  0.27181723979E+02  0.40659130748E+02  0.00000000000E+00 0. -1.
         11    1    4    4    0    0 -0.38188676663E+01  0.31061645949E+01  0.21898542359E+01  0.53877147827E+01  0.51100000000E-03 0. -1.
        -11    1    4    4    0    0 -0.45033110246E+01  0.14905194313E+02 -0.12900322974E+02  0.20220360056E+02  0.51100000000E-03 0.  1.
         12    1    4    4    0    0  0.14713992516E+02  0.11543057187E+02 -0.16471255241E+02  0.24920794414E+02  0.00000000000E+00 0. -1.
</event>
<event>
 8    1  0.4964753E-012  0.9118800E+02  0.7816164E-02  0.1184000E+00
        -11   -1    0    0    0    0  0.00000000000E+00  0.00000000000E+00  0.45593999997E+02  0.45594000000E+02  0.51100000000E-03 0. -1.
         11   -1    0    0    0    0 -0.00000000000E+00 -0.00000000000E+00 -0.45593999997E+02  0.45594000000E+02  0.51100000000E-03 0.  1.
         23    2    1    2    0    0  0.00000000000E+00 -0.35527136788E-14 -0.71054273576E-14  0.91188000000E+02  0.91188000000E+02 0.  0.
    9900012    2    3    3    0    0  0.99998414550E+01  0.21871174108E+02  0.32784457797E+02  0.50528858850E+02  0.29999996962E+02 0.  0.
        -12    1    3    3    0    0 -0.99998414550E+01 -0.21871174108E+02 -0.32784457797E+02  0.40659141150E+02  0.00000000000E+00 0.  1.
         11    1    4    4    0    0 -0.87119987781E+00  0.14162745446E+02  0.16170276648E+02  0.21513256261E+02  0.51100000000E-03 0. -1.
        -11    1    4    4    0    0  0.55349177822E+01 -0.79046300862E+00  0.18033666268E+02  0.18880499621E+02  0.51100000000E-03 0.  1.
        -12    1    4    4    0    0  0.53361235506E+01  0.84988916708E+01 -0.14194851194E+01  0.10135102969E+02  0.00000000000E+00 0.  1.
</event>
<event>
 8    1  0.4964753E-012  0.9118800E+02  0.7816164E-02  0.1184000E+00
        -11   -1    0    0    0    0  0.00000000000E+00  0.00000000000E+00  0.45593999997E+02  0.45594000000E+02  0.51100000000E-03 0. -1.
         11   -1    0    0    0    0 -0.00000000000E+00 -0.00000000000E+00 -0.45593999997E+02  0.45594000000E+02  0.51100000000E-03 0.  1.
         23    2    1    2    0    0  0.00000000000E+00 -0.35527136788E-14  0.00000000000E+00  0.91188000000E+02  0.91188000000E+02 0.  0.
    9900012    2    3    3    0    0 -0.34839174485E+01  0.22259599708E+02  0.33845766524E+02  0.50528888210E+02  0.30000086204E+02 0.  0.
        -12    1    3    3    0    0  0.34839174485E+01 -0.22259599708E+02 -0.33845766524E+02  0.40659111790E+02  0.00000000000E+00 0.  1.
         11    1    4    4    0    0 -0.33224619537E+01  0.23599867365E+02  0.13199891285E+02  0.27243891486E+02  0.51100000000E-03 0. -1.
        -11    1    4    4    0    0  0.65274783711E+00  0.38589540547E+01  0.31778644459E+01  0.50414708997E+01  0.51100000000E-03 0.  1.
        -12    1    4    4    0    0 -0.81420333195E+00 -0.51992217120E+01  0.17468010793E+02  0.18243525825E+02  0.00000000000E+00 0.  1.
</event>
<event>
 8    1  0.4964753E-012  0.9118800E+02  0.7816164E-02  0.1184000E+00
        -11   -1    0    0    0    0  0.00000000000E+00  0.00000000000E+00  0.45593999997E+02  0.45594000000E+02  0.51100000000E-03 0.  1.
         11   -1    0    0    0    0 -0.00000000000E+00 -0.00000000000E+00 -0.45593999997E+02  0.45594000000E+02  0.51100000000E-03 0. -1.
         23    2    1    2    0    0  0.00000000000E+00  0.00000000000E+00  0.35527136788E-14  0.91188000000E+02  0.91188000000E+02 0.  0.
    9900012    2    3    3    0    0  0.34779308176E+02  0.99324768020E+01  0.18571789369E+02  0.50528859171E+02  0.29999997936E+02 0.  0.
         12    1    3    3    0    0 -0.34779308176E+02 -0.99324768020E+01 -0.18571789369E+02  0.40659140829E+02  0.00000000000E+00 0. -1.
         11    1    4    4    0    0 -0.20144982307E+01  0.12951056671E+01  0.42987523614E+01  0.49208509362E+01  0.51100000000E-03 0. -1.
        -11    1    4    4    0    0  0.20609394464E+02 -0.53087948601E+01  0.31258731972E+01  0.21510498054E+02  0.51100000000E-03 0.  1.
        -12    1    4    4    0    0  0.16184411943E+02  0.13946165995E+02  0.11147163810E+02  0.24097510181E+02  0.00000000000E+00 0.  1.
</event>
<event>
 8    1  0.4964753E-012  0.9118800E+02  0.7816164E-02  0.1184000E+00
        -11   -1    0    0    0    0  0.00000000000E+00  0.00000000000E+00  0.45593999997E+02  0.45594000000E+02  0.51100000000E-03 0. -1.
         11   -1    0    0    0    0 -0.00000000000E+00 -0.00000000000E+00 -0.45593999997E+02  0.45594000000E+02  0.51100000000E-03 0.  1.
         23    2    1    2    0    0 -0.66613381478E-15  0.24702462298E-14  0.00000000000E+00  0.91188000000E+02  0.91188000000E+02 0.  0.
    9900012    2    3    3    0    0 -0.11080256476E+01  0.64684561604E-01 -0.40643961564E+02  0.50528886427E+02  0.30000080783E+02 0.  0.
         12    1    3    3    0    0  0.11080256476E+01 -0.64684561604E-01  0.40643961564E+02  0.40659113573E+02  0.00000000000E+00 0. -1.
         11    1    4    4    0    0  0.75074718154E+01  0.47676938369E+01 -0.11486029782E+02  0.14526593476E+02  0.51100000000E-03 0. -1.
        -11    1    4    4    0    0 -0.97537803943E+01  0.48209085199E+01 -0.19852644898E+02  0.22638571082E+02  0.51100000000E-03 0.  1.
        -12    1    4    4    0    0  0.11382829312E+01 -0.95239177952E+01 -0.93052868836E+01  0.13363721869E+02  0.00000000000E+00 0.  1.
</event>
<event>
 8    1  0.4964753E-012  0.9118800E+02  0.7816164E-02  0.1184000E+00
        -11   -1    0    0    0    0  0.00000000000E+00  0.00000000000E+00  0.45593999997E+02  0.45594000000E+02  0.51100000000E-03 0. -1.
         11   -1    0    0    0    0 -0.00000000000E+00 -0.00000000000E+00 -0.45593999997E+02  0.45594000000E+02  0.51100000000E-03 0.  1.
         23    2    1    2    0    0  0.00000000000E+00  0.00000000000E+00 -0.35527136788E-14  0.91188000000E+02  0.91188000000E+02 0.  0.
    9900012    2    3    3    0    0 -0.35773026203E+02  0.98480282173E+01  0.16627471169E+02  0.50528857597E+02  0.29999993153E+02 0.  0.
        -12    1    3    3    0    0  0.35773026203E+02 -0.98480282173E+01 -0.16627471169E+02  0.40659142403E+02  0.00000000000E+00 0.  1.
         11    1    4    4    0    0 -0.27239954268E+02  0.93861042654E+01  0.14113556845E+02  0.32082807684E+02  0.51100000000E-03 0. -1.
        -11    1    4    4    0    0 -0.30272252237E+01  0.75614279460E+01 -0.20068453030E+01  0.83884869595E+01  0.51100000000E-03 0.  1.
        -12    1    4    4    0    0 -0.55058467105E+01 -0.70995039941E+01  0.45207596263E+01  0.10057562953E+02  0.00000000000E+00 0.  1.
</event>
<event>
 8    1  0.4964753E-012  0.9118800E+02  0.7816164E-02  0.1184000E+00
        -11   -1    0    0    0    0  0.00000000000E+00  0.00000000000E+00  0.45593999997E+02  0.45594000000E+02  0.51100000000E-03 0. -1.
         11   -1    0    0    0    0 -0.00000000000E+00 -0.00000000000E+00 -0.45593999997E+02  0.45594000000E+02  0.51100000000E-03 0.  1.
         23    2    1    2    0    0  0.00000000000E+00 -0.13322676296E-14  0.00000000000E+00  0.91188000000E+02  0.91188000000E+02 0.  0.
    9900012    2    3    3    0    0  0.18722570062E+02  0.25804632682E+01 -0.35999610641E+02  0.50528863429E+02  0.30000010878E+02 0.  0.
         12    1    3    3    0    0 -0.18722570062E+02 -0.25804632682E+01  0.35999610641E+02  0.40659136571E+02  0.00000000000E+00 0. -1.
         11    1    4    4    0    0  0.11825216801E+02  0.15091102645E+02 -0.24074651897E+02  0.30776062055E+02  0.51100000000E-03 0. -1.
        -11    1    4    4    0    0 -0.77406213521E+00 -0.35552478843E+01 -0.12516678471E+01  0.38478087749E+01  0.51100000000E-03 0.  1.
        -12    1    4    4    0    0  0.76714153965E+01 -0.89553914930E+01 -0.10673290897E+02  0.15904992599E+02  0.00000000000E+00 0.  1.
</event>
<event>
 8    1  0.4964753E-012  0.9118800E+02  0.7816164E-02  0.1184000E+00
        -11   -1    0    0    0    0  0.00000000000E+00  0.00000000000E+00  0.45593999997E+02  0.45594000000E+02  0.51100000000E-03 0. -1.
         11   -1    0    0    0    0 -0.00000000000E+00 -0.00000000000E+00 -0.45593999997E+02  0.45594000000E+02  0.51100000000E-03 0.  1.
         23    2    1    2    0    0  0.00000000000E+00 -0.71054273576E-14  0.00000000000E+00  0.91188000000E+02  0.91188000000E+02 0.  0.
    9900012    2    3    3    0    0  0.13453990437E+02  0.33549651690E+02  0.18616588420E+02  0.50528851563E+02  0.29999974811E+02 0.  0.
        -12    1    3    3    0    0 -0.13453990437E+02 -0.33549651690E+02 -0.18616588420E+02  0.40659148437E+02  0.00000000000E+00 0.  1.
         11    1    4    4    0    0 -0.35160519140E+01  0.18377500247E+02  0.18176878127E+00  0.18711712282E+02  0.51100000000E-03 0. -1.
        -11    1    4    4    0    0  0.11321806151E+02  0.37785121441E+01  0.40196295419E+01  0.12594358676E+02  0.51100000000E-03 0.  1.
        -12    1    4    4    0    0  0.56482361999E+01  0.11393639299E+02  0.14415190097E+02  0.19222780605E+02  0.00000000000E+00 0.  1.
</event>
<event>
 8    1  0.4964753E-012  0.9118800E+02  0.7816164E-02  0.1184000E+00
        -11   -1    0    0    0    0  0.00000000000E+00  0.00000000000E+00  0.45593999997E+02  0.45594000000E+02  0.51100000000E-03 0.  1.
         11   -1    0    0    0    0 -0.00000000000E+00 -0.00000000000E+00 -0.45593999997E+02  0.45594000000E+02  0.51100000000E-03 0. -1.
         23    2    1    2    0    0  0.00000000000E+00 -0.17763568394E-14 -0.55511151231E-16  0.91188000000E+02  0.91188000000E+02 0.  0.
    9900012    2    3    3    0    0 -0.37706027333E+02 -0.15205509586E+02  0.46258896715E+00  0.50528855794E+02  0.29999987670E+02 0.  0.
        -12    1    3    3    0    0  0.37706027333E+02  0.15205509586E+02 -0.46258896715E+00  0.40659144206E+02  0.00000000000E+00 0.  1.
         11    1    4    4    0    0 -0.10319295854E+02 -0.19773641386E+02  0.24520639103E+00  0.22305714224E+02  0.51100000000E-03 0.  1.
        -11    1    4    4    0    0 -0.33401373003E+01  0.21337716844E+01 -0.75190794323E+00  0.40342117697E+01  0.51100000000E-03 0. -1.
        -12    1    4    4    0    0 -0.24046594179E+02  0.24343601156E+01  0.96929051936E+00  0.24188929800E+02  0.00000000000E+00 0.  1.
</event>
<event>
 8    1  0.4964753E-012  0.9118800E+02  0.7816164E-02  0.1184000E+00
        -11   -1    0    0    0    0  0.00000000000E+00  0.00000000000E+00  0.45593999997E+02  0.45594000000E+02  0.51100000000E-03 0. -1.
         11   -1    0    0    0    0 -0.00000000000E+00 -0.00000000000E+00 -0.45593999997E+02  0.45594000000E+02  0.51100000000E-03 0.  1.
         23    2    1    2    0    0 -0.88817841970E-15  0.00000000000E+00  0.17763568394E-14  0.91188000000E+02  0.91188000000E+02 0.  0.
    9900012    2    3    3    0    0 -0.38281195169E+01 -0.37746250085E+02 -0.14619565674E+02  0.50528860867E+02  0.30000003092E+02 0.  0.
         12    1    3    3    0    0  0.38281195169E+01  0.37746250085E+02  0.14619565674E+02  0.40659139133E+02  0.00000000000E+00 0. -1.
         11    1    4    4    0    0 -0.55255691901E+01 -0.88992602138E+01 -0.92317863617E+01  0.13962615332E+02  0.51100000000E-03 0. -1.
        -11    1    4    4    0    0  0.55499971759E+01 -0.59761768742E+01 -0.10015372706E+02  0.12916069425E+02  0.51100000000E-03 0.  1.
         12    1    4    4    0    0 -0.38525475028E+01 -0.22870812997E+02  0.46275933940E+01  0.23650176110E+02  0.00000000000E+00 0. -1.
</event>
<event>
 8    1  0.4964753E-012  0.9118800E+02  0.7816164E-02  0.1184000E+00
        -11   -1    0    0    0    0  0.00000000000E+00  0.00000000000E+00  0.45593999997E+02  0.45594000000E+02  0.51100000000E-03 0. -1.
         11   -1    0    0    0    0 -0.00000000000E+00 -0.00000000000E+00 -0.45593999997E+02  0.45594000000E+02  0.51100000000E-03 0.  1.
         23    2    1    2    0    0  0.00000000000E+00 -0.35527136788E-14 -0.35527136788E-14  0.91188000000E+02  0.91188000000E+02 0.  0.
    9900012    2    3    3    0    0  0.12151531241E+02  0.28706267536E+02  0.26104722197E+02  0.50528855539E+02  0.29999986896E+02 0.  0.
        -12    1    3    3    0    0 -0.12151531241E+02 -0.28706267536E+02 -0.26104722197E+02  0.40659144461E+02  0.00000000000E+00 0.  1.
         11    1    4    4    0    0  0.33979492066E+01  0.82482447206E+01  0.41621188558E+01  0.98439236797E+01  0.51100000000E-03 0. -1.
        -11    1    4    4    0    0 -0.73647892722E+01  0.10579261152E+02  0.17243500773E+01  0.13005163243E+02  0.51100000000E-03 0.  1.
        -12    1    4    4    0    0  0.16118371306E+02  0.98787616635E+01  0.20218253264E+02  0.27679768616E+02  0.00000000000E+00 0.  1.
</event>
<event>
 8    1  0.4964753E-012  0.9118800E+02  0.7816164E-02  0.1184000E+00
        -11   -1    0    0    0    0  0.00000000000E+00  0.00000000000E+00  0.45593999997E+02  0.45594000000E+02  0.51100000000E-03 0. -1.
         11   -1    0    0    0    0 -0.00000000000E+00 -0.00000000000E+00 -0.45593999997E+02  0.45594000000E+02  0.51100000000E-03 0.  1.
         23    2    1    2    0    0  0.00000000000E+00  0.88817841970E-15  0.00000000000E+00  0.91188000000E+02  0.91188000000E+02 0.  0.
    9900012    2    3    3    0    0  0.23574658003E+01 -0.42502507579E+01 -0.40367600757E+02  0.50528862437E+02  0.30000007863E+02 0.  0.
         12    1    3    3    0    0 -0.23574658003E+01  0.42502507579E+01  0.40367600757E+02  0.40659137563E+02  0.00000000000E+00 0. -1.
         11    1    4    4    0    0 -0.55004953792E+01 -0.50641822680E+00 -0.17751252517E+02  0.18590827712E+02  0.51100000000E-03 0. -1.
        -11    1    4    4    0    0 -0.28313138794E+01  0.68625242128E+01 -0.63189063741E+01  0.97488027409E+01  0.51100000000E-03 0.  1.
         12    1    4    4    0    0  0.10689275059E+02 -0.10606356744E+02 -0.16297441866E+02  0.22189231984E+02  0.00000000000E+00 0. -1.
</event>
<event>
 8    1  0.4964753E-012  0.9118800E+02  0.7816164E-02  0.1184000E+00
        -11   -1    0    0    0    0  0.00000000000E+00  0.00000000000E+00  0.45593999997E+02  0.45594000000E+02  0.51100000000E-03 0. -1.
         11   -1    0    0    0    0 -0.00000000000E+00 -0.00000000000E+00 -0.45593999997E+02  0.45594000000E+02  0.51100000000E-03 0.  1.
         23    2    1    2    0    0  0.35527136788E-14 -0.44408920985E-15  0.71054273576E-14  0.91188000000E+02  0.91188000000E+02 0.  0.
    9900012    2    3    3    0    0 -0.20026211655E+02 -0.12107500083E+01 -0.35364539373E+02  0.50528859405E+02  0.29999998648E+02 0.  0.
         12    1    3    3    0    0  0.20026211655E+02  0.12107500083E+01  0.35364539373E+02  0.40659140595E+02  0.00000000000E+00 0. -1.
         11    1    4    4    0    0 -0.14028183881E+02  0.78925700429E+01 -0.70035331488E+01  0.17553691398E+02  0.51100000000E-03 0. -1.
        -11    1    4    4    0    0 -0.35047098291E+01  0.23557654316E+01 -0.12874930338E+02  0.13549776870E+02  0.51100000000E-03 0.  1.
        -12    1    4    4    0    0 -0.24933179448E+01 -0.11459085483E+02 -0.15486075886E+02  0.19425391137E+02  0.00000000000E+00 0.  1.
</event>
<event>
 8    1  0.4988628E-012  0.9118800E+02  0.7816164E-02  0.1184000E+00
        -11   -1    0    0    0    0  0.00000000000E+00  0.00000000000E+00  0.45593999997E+02  0.45594000000E+02  0.51100000000E-03 0. -1.
         11   -1    0    0    0    0 -0.00000000000E+00 -0.00000000000E+00 -0.45593999997E+02  0.45594000000E+02  0.51100000000E-03 0.  1.
         23    2    1    2    0    0  0.00000000000E+00  0.35527136788E-14  0.35527136788E-14  0.91188000000E+02  0.91188000000E+02 0.  0.
    9900012    2    3    3    0    0 -0.88986328609E+01  0.28001659268E+02 -0.28104949760E+02  0.50528846178E+02  0.29999958442E+02 0.  0.
         12    1    3    3    0    0  0.88986328609E+01 -0.28001659268E+02  0.28104949760E+02  0.40659153822E+02  0.00000000000E+00 0. -1.
         11    1    4    4    0    0 -0.93939972599E+01  0.89731393356E+01 -0.20799667277E+02  0.24523265956E+02  0.51100000000E-03 0. -1.
        -11    1    4    4    0    0  0.21157533813E+01  0.98882698716E+01 -0.11926311798E+02  0.15636214593E+02  0.51100000000E-03 0.  1.
         12    1    4    4    0    0 -0.16203889823E+01  0.91402500603E+01  0.46210293148E+01  0.10369365629E+02  0.00000000000E+00 0. -1.
</event>
<event>
 8    1  0.4964753E-012  0.9118800E+02  0.7816164E-02  0.1184000E+00
        -11   -1    0    0    0    0  0.00000000000E+00  0.00000000000E+00  0.45593999997E+02  0.45594000000E+02  0.51100000000E-03 0. -1.
         11   -1    0    0    0    0 -0.00000000000E+00 -0.00000000000E+00 -0.45593999997E+02  0.45594000000E+02  0.51100000000E-03 0.  1.
         23    2    1    2    0    0  0.00000000000E+00  0.00000000000E+00  0.00000000000E+00  0.91188000000E+02  0.91188000000E+02 0.  0.
    9900012    2    3    3    0    0  0.20493954705E+02  0.16862342675E+02 -0.30802996534E+02  0.50528863568E+02  0.30000011301E+02 0.  0.
         12    1    3    3    0    0 -0.20493954705E+02 -0.16862342675E+02  0.30802996534E+02  0.40659136432E+02  0.00000000000E+00 0. -1.
         11    1    4    4    0    0  0.61418351020E+01 -0.31490310055E+01 -0.90250186219E+01  0.11361755854E+02  0.51100000000E-03 0. -1.
        -11    1    4    4    0    0  0.11276546950E+02  0.85213209347E+01  0.24615836661E+00  0.14136265977E+02  0.51100000000E-03 0.  1.
        -12    1    4    4    0    0  0.30755726538E+01  0.11490052745E+02 -0.22024136278E+02  0.25030841737E+02  0.00000000000E+00 0.  1.
</event>
<event>
 8    1  0.4964753E-012  0.9118800E+02  0.7816164E-02  0.1184000E+00
        -11   -1    0    0    0    0  0.00000000000E+00  0.00000000000E+00  0.45593999997E+02  0.45594000000E+02  0.51100000000E-03 0. -1.
         11   -1    0    0    0    0 -0.00000000000E+00 -0.00000000000E+00 -0.45593999997E+02  0.45594000000E+02  0.51100000000E-03 0.  1.
         23    2    1    2    0    0 -0.71054273576E-14 -0.35527136788E-14  0.35527136788E-14  0.91188000000E+02  0.91188000000E+02 0.  0.
    9900012    2    3    3    0    0 -0.34468415650E+02 -0.19649628556E+02  0.88873965441E+01  0.50528863300E+02  0.30000010488E+02 0.  0.
        -12    1    3    3    0    0  0.34468415650E+02  0.19649628556E+02 -0.88873965441E+01  0.40659136700E+02  0.00000000000E+00 0.  1.
         11    1    4    4    0    0 -0.52172417370E+01 -0.13572249137E+02  0.14605766168E+01  0.14613652599E+02  0.51100000000E-03 0. -1.
        -11    1    4    4    0    0 -0.18574133448E+02 -0.89216828603E+01 -0.28787388220E+01  0.20805816395E+02  0.51100000000E-03 0.  1.
         12    1    4    4    0    0 -0.10677040465E+02  0.28443034412E+01  0.10305558749E+02  0.15109394306E+02  0.00000000000E+00 0. -1.
</event>
<event>
 8    1  0.4964753E-012  0.9118800E+02  0.7816164E-02  0.1184000E+00
        -11   -1    0    0    0    0  0.00000000000E+00  0.00000000000E+00  0.45593999997E+02  0.45594000000E+02  0.51100000000E-03 0. -1.
         11   -1    0    0    0    0 -0.00000000000E+00 -0.00000000000E+00 -0.45593999997E+02  0.45594000000E+02  0.51100000000E-03 0.  1.
         23    2    1    2    0    0  0.00000000000E+00 -0.66613381478E-15  0.00000000000E+00  0.91188000000E+02  0.91188000000E+02 0.  0.
    9900012    2    3    3    0    0  0.20019305099E+02 -0.18386583899E+01  0.35341330279E+02  0.50528894412E+02  0.30000105055E+02 0.  0.
        -12    1    3    3    0    0 -0.20019305099E+02  0.18386583899E+01 -0.35341330279E+02  0.40659105588E+02  0.00000000000E+00 0.  1.
         11    1    4    4    0    0 -0.12041621321E+01 -0.53261890183E+01  0.19368630606E+02  0.20123671328E+02  0.51100000000E-03 0.  1.
        -11    1    4    4    0    0  0.96897138306E-01 -0.51869426677E+00 -0.21933014061E+01  0.22558821150E+01  0.51100000000E-03 0. -1.
         12    1    4    4    0    0  0.21126570093E+02  0.40062248952E+01  0.18166001079E+02  0.28149340969E+02  0.00000000000E+00 0. -1.
</event>
<event>
 8    1  0.4964753E-012  0.9118800E+02  0.7816164E-02  0.1184000E+00
        -11   -1    0    0    0    0  0.00000000000E+00  0.00000000000E+00  0.45593999997E+02  0.45594000000E+02  0.51100000000E-03 0.  1.
         11   -1    0    0    0    0 -0.00000000000E+00 -0.00000000000E+00 -0.45593999997E+02  0.45594000000E+02  0.51100000000E-03 0. -1.
         23    2    1    2    0    0  0.00000000000E+00 -0.71054273576E-14 -0.35527136788E-14  0.91188000000E+02  0.91188000000E+02 0.  0.
    9900012    2    3    3    0    0  0.33892011881E+01 -0.34841943855E+02 -0.20681350461E+02  0.50528855971E+02  0.29999988210E+02 0.  0.
         12    1    3    3    0    0 -0.33892011881E+01  0.34841943855E+02  0.20681350461E+02  0.40659144029E+02  0.00000000000E+00 0. -1.
         11    1    4    4    0    0  0.20774691412E+01  0.12953219093E+00  0.64528760609E+00  0.21792321989E+01  0.51100000000E-03 0. -1.
        -11    1    4    4    0    0  0.42356323898E+01 -0.34272061455E+02 -0.25697214788E+02  0.43044879211E+02  0.51100000000E-03 0.  1.
         12    1    4    4    0    0 -0.29239003429E+01 -0.69941459088E+00  0.43705767216E+01  0.53047445617E+01  0.00000000000E+00 0. -1.
</event>
<event>
 8    1  0.4964753E-012  0.9118800E+02  0.7816164E-02  0.1184000E+00
        -11   -1    0    0    0    0  0.00000000000E+00  0.00000000000E+00  0.45593999997E+02  0.45594000000E+02  0.51100000000E-03 0. -1.
         11   -1    0    0    0    0 -0.00000000000E+00 -0.00000000000E+00 -0.45593999997E+02  0.45594000000E+02  0.51100000000E-03 0.  1.
         23    2    1    2    0    0  0.00000000000E+00  0.00000000000E+00  0.00000000000E+00  0.91188000000E+02  0.91188000000E+02 0.  0.
    9900012    2    3    3    0    0  0.81824633521E+01 -0.20622943873E+02  0.34072077263E+02  0.50528868559E+02  0.30000026472E+02 0.  0.
        -12    1    3    3    0    0 -0.81824633521E+01  0.20622943873E+02 -0.34072077263E+02  0.40659131441E+02  0.00000000000E+00 0.  1.
         11    1    4    4    0    0  0.30436995668E+01 -0.66172080194E+01  0.16370366765E+02  0.17917601885E+02  0.51100000000E-03 0. -1.
        -11    1    4    4    0    0  0.59534479960E+01 -0.80636000561E+01  0.22693211516E+02  0.24808205055E+02  0.51100000000E-03 0.  1.
        -12    1    4    4    0    0 -0.81468421077E+00 -0.59421357977E+01 -0.49915010181E+01  0.78030616181E+01  0.00000000000E+00 0.  1.
</event>
<event>
 8    1  0.4964753E-012  0.9118800E+02  0.7816164E-02  0.1184000E+00
        -11   -1    0    0    0    0  0.00000000000E+00  0.00000000000E+00  0.45593999997E+02  0.45594000000E+02  0.51100000000E-03 0. -1.
         11   -1    0    0    0    0 -0.00000000000E+00 -0.00000000000E+00 -0.45593999997E+02  0.45594000000E+02  0.51100000000E-03 0.  1.
         23    2    1    2    0    0  0.00000000000E+00  0.00000000000E+00 -0.71054273576E-14  0.91188000000E+02  0.91188000000E+02 0.  0.
    9900012    2    3    3    0    0  0.13740213148E+02 -0.15428043741E+02  0.35019235016E+02  0.50528870494E+02  0.30000032355E+02 0.  0.
        -12    1    3    3    0    0 -0.13740213148E+02  0.15428043741E+02 -0.35019235016E+02  0.40659129506E+02  0.00000000000E+00 0.  1.
         11    1    4    4    0    0  0.38380406125E+01 -0.53510673707E+01  0.19885496571E+02  0.20947492735E+02  0.51100000000E-03 0. -1.
        -11    1    4    4    0    0 -0.58976763168E+01 -0.72853139588E+00  0.78155766089E+01  0.98181760997E+01  0.51100000000E-03 0.  1.
         12    1    4    4    0    0  0.15799848852E+02 -0.93484449742E+01  0.73181618367E+01  0.19763201660E+02  0.00000000000E+00 0. -1.
</event>
<event>
 8    1  0.4964753E-012  0.9118800E+02  0.7816164E-02  0.1184000E+00
        -11   -1    0    0    0    0  0.00000000000E+00  0.00000000000E+00  0.45593999997E+02  0.45594000000E+02  0.51100000000E-03 0.  1.
         11   -1    0    0    0    0 -0.00000000000E+00 -0.00000000000E+00 -0.45593999997E+02  0.45594000000E+02  0.51100000000E-03 0. -1.
         23    2    1    2    0    0  0.15543122345E-14  0.00000000000E+00  0.00000000000E+00  0.91188000000E+02  0.91188000000E+02 0.  0.
    9900012    2    3    3    0    0 -0.12919572237E+01  0.39655207010E+02  0.88860245188E+01  0.50528855539E+02  0.29999986898E+02 0.  0.
        -12    1    3    3    0    0  0.12919572237E+01 -0.39655207010E+02 -0.88860245188E+01  0.40659144461E+02  0.00000000000E+00 0.  1.
         11    1    4    4    0    0  0.73499421794E+01  0.11332257916E+02 -0.11396329547E+01  0.13555090669E+02  0.51100000000E-03 0.  1.
        -11    1    4    4    0    0  0.54824395679E+01  0.14808568454E+02  0.23145900541E+01  0.15959579276E+02  0.51100000000E-03 0. -1.
        -12    1    4    4    0    0 -0.14124338971E+02  0.13514380640E+02  0.77110674194E+01  0.21014185595E+02  0.00000000000E+00 0.  1.
</event>
<event>
 8    1  0.4964753E-012  0.9118800E+02  0.7816164E-02  0.1184000E+00
        -11   -1    0    0    0    0  0.00000000000E+00  0.00000000000E+00  0.45593999997E+02  0.45594000000E+02  0.51100000000E-03 0. -1.
         11   -1    0    0    0    0 -0.00000000000E+00 -0.00000000000E+00 -0.45593999997E+02  0.45594000000E+02  0.51100000000E-03 0.  1.
         23    2    1    2    0    0  0.00000000000E+00 -0.14210854715E-13  0.00000000000E+00  0.91188000000E+02  0.91188000000E+02 0.  0.
    9900012    2    3    3    0    0  0.12074155820E+02  0.37286698078E+02  0.10820476091E+02  0.50528858406E+02  0.29999995612E+02 0.  0.
        -12    1    3    3    0    0 -0.12074155820E+02 -0.37286698078E+02 -0.10820476091E+02  0.40659141594E+02  0.00000000000E+00 0.  1.
         11    1    4    4    0    0  0.16739722147E+02  0.26629502021E+02  0.24251739479E+01  0.31547268414E+02  0.51100000000E-03 0. -1.
        -11    1    4    4    0    0 -0.18326254350E+01  0.10104286361E+02  0.11032251220E+02  0.15072016656E+02  0.51100000000E-03 0.  1.
        -12    1    4    4    0    0 -0.28329408923E+01  0.55290969570E+00 -0.26369490769E+01  0.39095733355E+01  0.00000000000E+00 0.  1.
</event>
<event>
 8    1  0.4964753E-012  0.9118800E+02  0.7816164E-02  0.1184000E+00
        -11   -1    0    0    0    0  0.00000000000E+00  0.00000000000E+00  0.45593999997E+02  0.45594000000E+02  0.51100000000E-03 0. -1.
         11   -1    0    0    0    0 -0.00000000000E+00 -0.00000000000E+00 -0.45593999997E+02  0.45594000000E+02  0.51100000000E-03 0.  1.
         23    2    1    2    0    0 -0.11102230246E-15  0.00000000000E+00  0.00000000000E+00  0.91188000000E+02  0.91188000000E+02 0.  0.
    9900012    2    3    3    0    0  0.57146597501E+00 -0.12756471905E+02 -0.38601964556E+02  0.50528858145E+02  0.29999994817E+02 0.  0.
         12    1    3    3    0    0 -0.57146597501E+00  0.12756471905E+02  0.38601964556E+02  0.40659141855E+02  0.00000000000E+00 0. -1.
         11    1    4    4    0    0 -0.38093257595E+01 -0.11890739989E+02 -0.30550621007E+02  0.33003652895E+02  0.51100000000E-03 0. -1.
        -11    1    4    4    0    0  0.47587475292E+01  0.21956262419E+01 -0.11656536773E+02  0.12780504781E+02  0.51100000000E-03 0.  1.
         12    1    4    4    0    0 -0.37795579470E+00 -0.30613581582E+01  0.36051932246E+01  0.47447004692E+01  0.00000000000E+00 0. -1.
</event>
<event>
 8    1  0.4964753E-012  0.9118800E+02  0.7816164E-02  0.1184000E+00
        -11   -1    0    0    0    0  0.00000000000E+00  0.00000000000E+00  0.45593999997E+02  0.45594000000E+02  0.51100000000E-03 0.  1.
         11   -1    0    0    0    0 -0.00000000000E+00 -0.00000000000E+00 -0.45593999997E+02  0.45594000000E+02  0.51100000000E-03 0. -1.
         23    2    1    2    0    0  0.17763568394E-14 -0.71054273576E-14 -0.44408920985E-15  0.91188000000E+02  0.91188000000E+02 0.  0.
    9900012    2    3    3    0    0  0.85441470242E+01 -0.39695217650E+02  0.21103412159E+01  0.50528852288E+02  0.29999977014E+02 0.  0.
         12    1    3    3    0    0 -0.85441470242E+01  0.39695217650E+02 -0.21103412159E+01  0.40659147712E+02  0.00000000000E+00 0. -1.
         11    1    4    4    0    0  0.13446224195E+01  0.95353616131E+00 -0.23694045797E+01  0.28864024295E+01  0.51100000000E-03 0. -1.
        -11    1    4    4    0    0 -0.77233671695E+00 -0.78133105151E+01  0.10713988551E+02  0.13282841419E+02  0.51100000000E-03 0.  1.
         12    1    4    4    0    0  0.79718613216E+01 -0.32835443296E+02 -0.62342427558E+01  0.34359608440E+02  0.00000000000E+00 0. -1.
</event>
<event>
 8    1  0.4964753E-012  0.9118800E+02  0.7816164E-02  0.1184000E+00
        -11   -1    0    0    0    0  0.00000000000E+00  0.00000000000E+00  0.45593999997E+02  0.45594000000E+02  0.51100000000E-03 0. -1.
         11   -1    0    0    0    0 -0.00000000000E+00 -0.00000000000E+00 -0.45593999997E+02  0.45594000000E+02  0.51100000000E-03 0.  1.
         23    2    1    2    0    0  0.00000000000E+00  0.44408920985E-15  0.00000000000E+00  0.91188000000E+02  0.91188000000E+02 0.  0.
    9900012    2    3    3    0    0  0.22603003267E+02  0.34612257642E+01  0.33619781466E+02  0.50528861466E+02  0.30000004913E+02 0.  0.
        -12    1    3    3    0    0 -0.22603003267E+02 -0.34612257642E+01 -0.33619781466E+02  0.40659138534E+02  0.00000000000E+00 0.  1.
         11    1    4    4    0    0  0.14843959042E+02  0.63127300975E+01  0.23641291874E+02  0.28619999355E+02  0.51100000000E-03 0. -1.
        -11    1    4    4    0    0 -0.39093018154E+01 -0.32573873747E+01  0.88115394656E+01  0.10175285805E+02  0.51100000000E-03 0.  1.
        -12    1    4    4    0    0  0.11668346040E+02  0.40588304137E+00  0.11669501263E+01  0.11733576307E+02  0.00000000000E+00 0.  1.
</event>
<event>
 8    1  0.4964753E-012  0.9118800E+02  0.7816164E-02  0.1184000E+00
        -11   -1    0    0    0    0  0.00000000000E+00  0.00000000000E+00  0.45593999997E+02  0.45594000000E+02  0.51100000000E-03 0. -1.
         11   -1    0    0    0    0 -0.00000000000E+00 -0.00000000000E+00 -0.45593999997E+02  0.45594000000E+02  0.51100000000E-03 0.  1.
         23    2    1    2    0    0  0.00000000000E+00 -0.35527136788E-14  0.00000000000E+00  0.91188000000E+02  0.91188000000E+02 0.  0.
    9900012    2    3    3    0    0  0.25967437881E+02  0.29768913836E+02  0.96264614773E+01  0.50528870377E+02  0.30000031999E+02 0.  0.
        -12    1    3    3    0    0 -0.25967437881E+02 -0.29768913836E+02 -0.96264614773E+01  0.40659129623E+02  0.00000000000E+00 0.  1.
         11    1    4    4    0    0 -0.29445430212E+01  0.93941489158E+01  0.12590207592E+00  0.98456192822E+01  0.51100000000E-03 0. -1.
        -11    1    4    4    0    0  0.11655449178E+02 -0.22624464856E+00 -0.12804899727E+01  0.11727759250E+02  0.51100000000E-03 0.  1.
         12    1    4    4    0    0  0.17256531724E+02  0.20601009569E+02  0.10781049374E+02  0.28955491846E+02  0.00000000000E+00 0. -1.
</event>
<event>
 8    1  0.4964753E-012  0.9118800E+02  0.7816164E-02  0.1184000E+00
        -11   -1    0    0    0    0  0.00000000000E+00  0.00000000000E+00  0.45593999997E+02  0.45594000000E+02  0.51100000000E-03 0. -1.
         11   -1    0    0    0    0 -0.00000000000E+00 -0.00000000000E+00 -0.45593999997E+02  0.45594000000E+02  0.51100000000E-03 0.  1.
         23    2    1    2    0    0  0.17763568394E-14  0.22204460493E-15  0.00000000000E+00  0.91188000000E+02  0.91188000000E+02 0.  0.
    9900012    2    3    3    0    0 -0.13846811103E+02 -0.11200863703E+01 -0.38212265922E+02  0.50528855418E+02  0.29999986530E+02 0.  0.
         12    1    3    3    0    0  0.13846811103E+02  0.11200863703E+01  0.38212265922E+02  0.40659144582E+02  0.00000000000E+00 0. -1.
         11    1    4    4    0    0 -0.10728984121E+02  0.11408777315E+02 -0.23272033590E+02  0.28051004399E+02  0.51100000000E-03 0. -1.
        -11    1    4    4    0    0  0.23645061173E+01  0.11299384932E+00 -0.32214643091E+00  0.23890239372E+01  0.51100000000E-03 0.  1.
        -12    1    4    4    0    0 -0.54823330997E+01 -0.12641857535E+02 -0.14618085901E+02  0.20088827082E+02  0.00000000000E+00 0.  1.
</event>
<event>
 8    1  0.4964753E-012  0.9118800E+02  0.7816164E-02  0.1184000E+00
        -11   -1    0    0    0    0  0.00000000000E+00  0.00000000000E+00  0.45593999997E+02  0.45594000000E+02  0.51100000000E-03 0. -1.
         11   -1    0    0    0    0 -0.00000000000E+00 -0.00000000000E+00 -0.45593999997E+02  0.45594000000E+02  0.51100000000E-03 0.  1.
         23    2    1    2    0    0  0.00000000000E+00  0.00000000000E+00 -0.17763568394E-14  0.91188000000E+02  0.91188000000E+02 0.  0.
    9900012    2    3    3    0    0 -0.85239374476E+01 -0.37135547620E+02  0.14193646544E+02  0.50528855778E+02  0.29999987623E+02 0.  0.
        -12    1    3    3    0    0  0.85239374476E+01  0.37135547620E+02 -0.14193646544E+02  0.40659144222E+02  0.00000000000E+00 0.  1.
         11    1    4    4    0    0 -0.63544112481E+01 -0.20901864745E+02  0.15415886111E+02  0.26737913849E+02  0.51100000000E-03 0. -1.
        -11    1    4    4    0    0 -0.95194669608E+01 -0.11226181314E+02 -0.20406511399E+01  0.14859732684E+02  0.51100000000E-03 0.  1.
         12    1    4    4    0    0  0.73499407612E+01 -0.50075015609E+01  0.81841157218E+00  0.89312092449E+01  0.00000000000E+00 0. -1.
</event>
<event>
 8    1  0.4964753E-012  0.9118800E+02  0.7816164E-02  0.1184000E+00
        -11   -1    0    0    0    0  0.00000000000E+00  0.00000000000E+00  0.45593999997E+02  0.45594000000E+02  0.51100000000E-03 0. -1.
         11   -1    0    0    0    0 -0.00000000000E+00 -0.00000000000E+00 -0.45593999997E+02  0.45594000000E+02  0.51100000000E-03 0.  1.
         23    2    1    2    0    0 -0.35527136788E-14  0.00000000000E+00  0.00000000000E+00  0.91188000000E+02  0.91188000000E+02 0.  0.
    9900012    2    3    3    0    0 -0.16378086739E+02  0.10683017059E+02  0.35648242800E+02  0.50528858427E+02  0.29999995675E+02 0.  0.
        -12    1    3    3    0    0  0.16378086739E+02 -0.10683017059E+02 -0.35648242800E+02  0.40659141573E+02  0.00000000000E+00 0.  1.
         11    1    4    4    0    0 -0.57384052544E+01 -0.14532381627E+01  0.21169576856E+02  0.21981632800E+02  0.51100000000E-03 0. -1.
        -11    1    4    4    0    0 -0.55142184735E+00  0.28208489814E+00 -0.41928673615E+01  0.42383693699E+01  0.51100000000E-03 0.  1.
         12    1    4    4    0    0 -0.10088259638E+02  0.11854170323E+02  0.18671533305E+02  0.24308856257E+02  0.00000000000E+00 0. -1.
</event>
<event>
 8    1  0.4964753E-012  0.9118800E+02  0.7816164E-02  0.1184000E+00
        -11   -1    0    0    0    0  0.00000000000E+00  0.00000000000E+00  0.45593999997E+02  0.45594000000E+02  0.51100000000E-03 0. -1.
         11   -1    0    0    0    0 -0.00000000000E+00 -0.00000000000E+00 -0.45593999997E+02  0.45594000000E+02  0.51100000000E-03 0.  1.
         23    2    1    2    0    0  0.88817841970E-15 -0.35527136788E-14  0.71054273576E-14  0.91188000000E+02  0.91188000000E+02 0.  0.
    9900012    2    3    3    0    0  0.48574867856E+01 -0.16038778445E+02  0.37044936752E+02  0.50528869035E+02  0.30000027918E+02 0.  0.
        -12    1    3    3    0    0 -0.48574867856E+01  0.16038778445E+02 -0.37044936752E+02  0.40659130965E+02  0.00000000000E+00 0.  1.
         11    1    4    4    0    0  0.55556819603E+01 -0.41677807755E+01  0.46896086706E+01  0.83802403534E+01  0.51100000000E-03 0. -1.
        -11    1    4    4    0    0  0.40963864749E+01 -0.41495720899E+01  0.32539541160E+02  0.33057844302E+02  0.51100000000E-03 0.  1.
        -12    1    4    4    0    0 -0.47945816496E+01 -0.77214255798E+01 -0.18421307915E+00  0.90907843797E+01  0.00000000000E+00 0.  1.
</event>
<event>
 8    1  0.4964753E-012  0.9118800E+02  0.7816164E-02  0.1184000E+00
        -11   -1    0    0    0    0  0.00000000000E+00  0.00000000000E+00  0.45593999997E+02  0.45594000000E+02  0.51100000000E-03 0. -1.
         11   -1    0    0    0    0 -0.00000000000E+00 -0.00000000000E+00 -0.45593999997E+02  0.45594000000E+02  0.51100000000E-03 0.  1.
         23    2    1    2    0    0  0.88817841970E-15  0.00000000000E+00 -0.35527136788E-14  0.91188000000E+02  0.91188000000E+02 0.  0.
    9900012    2    3    3    0    0  0.55785411755E+01  0.35873462241E+02  0.18306833970E+02  0.50528860993E+02  0.30000003475E+02 0.  0.
        -12    1    3    3    0    0 -0.55785411755E+01 -0.35873462241E+02 -0.18306833970E+02  0.40659139007E+02  0.00000000000E+00 0.  1.
         11    1    4    4    0    0 -0.70491512944E+01  0.10127236892E+02  0.17871078782E+02  0.21716973043E+02  0.51100000000E-03 0. -1.
        -11    1    4    4    0    0  0.71604935168E+01  0.12347134651E+02 -0.74205775797E+00  0.14292482341E+02  0.51100000000E-03 0.  1.
        -12    1    4    4    0    0  0.54671989532E+01  0.13399090698E+02  0.11778129455E+01  0.14519405610E+02  0.00000000000E+00 0.  1.
</event>
<event>
 8    1  0.4964753E-012  0.9118800E+02  0.7816164E-02  0.1184000E+00
        -11   -1    0    0    0    0  0.00000000000E+00  0.00000000000E+00  0.45593999997E+02  0.45594000000E+02  0.51100000000E-03 0. -1.
         11   -1    0    0    0    0 -0.00000000000E+00 -0.00000000000E+00 -0.45593999997E+02  0.45594000000E+02  0.51100000000E-03 0.  1.
         23    2    1    2    0    0  0.35527136788E-14  0.87430063189E-15  0.71054273576E-14  0.91188000000E+02  0.91188000000E+02 0.  0.
    9900012    2    3    3    0    0  0.22152806139E+02  0.70998022241E-01  0.34094190758E+02  0.50528859527E+02  0.29999999018E+02 0.  0.
        -12    1    3    3    0    0 -0.22152806139E+02 -0.70998022241E-01 -0.34094190758E+02  0.40659140473E+02  0.00000000000E+00 0.  1.
         11    1    4    4    0    0  0.71971415545E+01  0.69998509267E+01  0.65233293530E+01  0.11972910492E+02  0.51100000000E-03 0. -1.
        -11    1    4    4    0    0 -0.45756179331E+01 -0.18891976378E+00  0.11506044783E+02  0.12383902332E+02  0.51100000000E-03 0.  1.
        -12    1    4    4    0    0  0.19531282518E+02 -0.67399331407E+01  0.16064816622E+02  0.26172046703E+02  0.00000000000E+00 0.  1.
</event>
<event>
 8    1  0.5088310E-012  0.9118800E+02  0.7816164E-02  0.1184000E+00
        -11   -1    0    0    0    0  0.00000000000E+00  0.00000000000E+00  0.45593999997E+02  0.45594000000E+02  0.51100000000E-03 0. -1.
         11   -1    0    0    0    0 -0.00000000000E+00 -0.00000000000E+00 -0.45593999997E+02  0.45594000000E+02  0.51100000000E-03 0.  1.
         23    2    1    2    0    0 -0.35527136788E-14 -0.35527136788E-14 -0.35527136788E-14  0.91188000000E+02  0.91188000000E+02 0.  0.
    9900012    2    3    3    0    0 -0.13941637443E+02  0.29282214911E+02 -0.24522398951E+02  0.50528863081E+02  0.30000009820E+02 0.  0.
         12    1    3    3    0    0  0.13941637443E+02 -0.29282214911E+02  0.24522398951E+02  0.40659136919E+02  0.00000000000E+00 0. -1.
         11    1    4    4    0    0 -0.77742284565E+01  0.72076372491E+01 -0.13054760031E+02  0.16817116951E+02  0.51100000000E-03 0. -1.
        -11    1    4    4    0    0 -0.89262038561E+01  0.25578380845E+02 -0.86584597617E+01  0.28441160448E+02  0.51100000000E-03 0.  1.
         12    1    4    4    0    0  0.27587948694E+01 -0.35038031831E+01 -0.28091791584E+01  0.52705856811E+01  0.00000000000E+00 0. -1.
</event>
<event>
 8    1  0.4964753E-012  0.9118800E+02  0.7816164E-02  0.1184000E+00
        -11   -1    0    0    0    0  0.00000000000E+00  0.00000000000E+00  0.45593999997E+02  0.45594000000E+02  0.51100000000E-03 0. -1.
         11   -1    0    0    0    0 -0.00000000000E+00 -0.00000000000E+00 -0.45593999997E+02  0.45594000000E+02  0.51100000000E-03 0.  1.
         23    2    1    2    0    0  0.00000000000E+00  0.71054273576E-14  0.88817841970E-15  0.91188000000E+02  0.91188000000E+02 0.  0.
    9900012    2    3    3    0    0 -0.19029146644E+02  0.35219076048E+02 -0.71185567738E+01  0.50528860927E+02  0.30000003272E+02 0.  0.
         12    1    3    3    0    0  0.19029146644E+02 -0.35219076048E+02  0.71185567738E+01  0.40659139073E+02  0.00000000000E+00 0. -1.
         11    1    4    4    0    0 -0.15126031603E+02  0.21768132365E+02  0.63715473710E+01  0.27262520699E+02  0.51100000000E-03 0. -1.
        -11    1    4    4    0    0 -0.56423906564E+01  0.11863039656E+02 -0.43657997673E+01  0.13842994259E+02  0.51100000000E-03 0.  1.
        -12    1    4    4    0    0  0.17392756151E+01  0.15879040273E+01 -0.91243043775E+01  0.94233459683E+01  0.00000000000E+00 0.  1.
</event>
<event>
 8    1  0.4964753E-012  0.9118800E+02  0.7816164E-02  0.1184000E+00
        -11   -1    0    0    0    0  0.00000000000E+00  0.00000000000E+00  0.45593999997E+02  0.45594000000E+02  0.51100000000E-03 0. -1.
         11   -1    0    0    0    0 -0.00000000000E+00 -0.00000000000E+00 -0.45593999997E+02  0.45594000000E+02  0.51100000000E-03 0.  1.
         23    2    1    2    0    0  0.00000000000E+00  0.00000000000E+00  0.17763568394E-14  0.91188000000E+02  0.91188000000E+02 0.  0.
    9900012    2    3    3    0    0  0.32910428741E+02  0.21393653114E+02 -0.10600960947E+02  0.50528867120E+02  0.30000022099E+02 0.  0.
         12    1    3    3    0    0 -0.32910428741E+02 -0.21393653114E+02  0.10600960947E+02  0.40659132880E+02  0.00000000000E+00 0. -1.
         11    1    4    4    0    0  0.11994615927E+02  0.49128950500E+01 -0.13518165517E+02  0.18728271362E+02  0.51100000000E-03 0. -1.
        -11    1    4    4    0    0  0.17710301917E+02  0.13207063013E+02 -0.50017679240E+01  0.22651688459E+02  0.51100000000E-03 0.  1.
         12    1    4    4    0    0  0.32055108975E+01  0.32736950518E+01  0.79189724942E+01  0.91489072992E+01  0.00000000000E+00 0. -1.
</event>
<event>
 8    1  0.4964753E-012  0.9118800E+02  0.7816164E-02  0.1184000E+00
        -11   -1    0    0    0    0  0.00000000000E+00  0.00000000000E+00  0.45593999997E+02  0.45594000000E+02  0.51100000000E-03 0. -1.
         11   -1    0    0    0    0 -0.00000000000E+00 -0.00000000000E+00 -0.45593999997E+02  0.45594000000E+02  0.51100000000E-03 0.  1.
         23    2    1    2    0    0  0.00000000000E+00  0.35527136788E-14  0.00000000000E+00  0.91188000000E+02  0.91188000000E+02 0.  0.
    9900012    2    3    3    0    0  0.33076562211E+02  0.23612851224E+02 -0.12407299148E+01  0.50528866692E+02  0.30000020796E+02 0.  0.
         12    1    3    3    0    0 -0.33076562211E+02 -0.23612851224E+02  0.12407299148E+01  0.40659133308E+02  0.00000000000E+00 0. -1.
         11    1    4    4    0    0  0.12556589008E+01  0.80825729217E+01  0.62924069876E+01  0.10319837706E+02  0.51100000000E-03 0. -1.
        -11    1    4    4    0    0 -0.18286901155E+00  0.37058843170E+01 -0.46789457406E+01  0.59715620361E+01  0.51100000000E-03 0.  1.
        -12    1    4    4    0    0  0.32003772322E+02  0.11824393985E+02 -0.28541911619E+01  0.34237466950E+02  0.00000000000E+00 0.  1.
</event>
<event>
 8    1  0.4964753E-012  0.9118800E+02  0.7816164E-02  0.1184000E+00
        -11   -1    0    0    0    0  0.00000000000E+00  0.00000000000E+00  0.45593999997E+02  0.45594000000E+02  0.51100000000E-03 0. -1.
         11   -1    0    0    0    0 -0.00000000000E+00 -0.00000000000E+00 -0.45593999997E+02  0.45594000000E+02  0.51100000000E-03 0.  1.
         23    2    1    2    0    0  0.00000000000E+00 -0.99920072216E-15  0.00000000000E+00  0.91188000000E+02  0.91188000000E+02 0.  0.
    9900012    2    3    3    0    0 -0.13709945422E+02  0.62911746341E+00 -0.38272791265E+02  0.50528868879E+02  0.30000027445E+02 0.  0.
         12    1    3    3    0    0  0.13709945422E+02 -0.62911746341E+00  0.38272791265E+02  0.40659131121E+02  0.00000000000E+00 0. -1.
         11    1    4    4    0    0  0.34867364335E+01 -0.38956904035E+01  0.10972188232E+01  0.53420617821E+01  0.51100000000E-03 0. -1.
        -11    1    4    4    0    0 -0.88562345711E+01 -0.37073601331E+01 -0.11682959871E+02  0.15121804176E+02  0.51100000000E-03 0.  1.
         12    1    4    4    0    0 -0.83404472841E+01  0.82321680000E+01 -0.27687050218E+02  0.30065002921E+02  0.00000000000E+00 0. -1.
</event>
<event>
 8    1  0.4964753E-012  0.9118800E+02  0.7816164E-02  0.1184000E+00
        -11   -1    0    0    0    0  0.00000000000E+00  0.00000000000E+00  0.45593999997E+02  0.45594000000E+02  0.51100000000E-03 0. -1.
         11   -1    0    0    0    0 -0.00000000000E+00 -0.00000000000E+00 -0.45593999997E+02  0.45594000000E+02  0.51100000000E-03 0.  1.
         23    2    1    2    0    0  0.00000000000E+00  0.33306690739E-15  0.71054273576E-14  0.91188000000E+02  0.91188000000E+02 0.  0.
    9900012    2    3    3    0    0 -0.13042578854E+01 -0.59018552956E+00  0.40633933420E+02  0.50528856468E+02  0.29999989719E+02 0.  0.
        -12    1    3    3    0    0  0.13042578854E+01  0.59018552956E+00 -0.40633933420E+02  0.40659143532E+02  0.00000000000E+00 0.  1.
         11    1    4    4    0    0 -0.71639264584E+01 -0.56447124648E+01  0.88817701336E+01  0.12730689772E+02  0.51100000000E-03 0. -1.
        -11    1    4    4    0    0  0.76740338647E+01  0.19497174866E+01  0.24673283239E+01  0.82933650199E+01  0.51100000000E-03 0.  1.
         12    1    4    4    0    0 -0.18143652916E+01  0.31048094486E+01  0.29284834963E+02  0.29504801675E+02  0.00000000000E+00 0. -1.
</event>
<event>
 8    1  0.4964753E-012  0.9118800E+02  0.7816164E-02  0.1184000E+00
        -11   -1    0    0    0    0  0.00000000000E+00  0.00000000000E+00  0.45593999997E+02  0.45594000000E+02  0.51100000000E-03 0. -1.
         11   -1    0    0    0    0 -0.00000000000E+00 -0.00000000000E+00 -0.45593999997E+02  0.45594000000E+02  0.51100000000E-03 0.  1.
         23    2    1    2    0    0  0.00000000000E+00  0.00000000000E+00  0.17763568394E-14  0.91188000000E+02  0.91188000000E+02 0.  0.
    9900012    2    3    3    0    0 -0.31633643774E+02  0.23026241425E+02 -0.11057579707E+02  0.50528864722E+02  0.30000014810E+02 0.  0.
         12    1    3    3    0    0  0.31633643774E+02 -0.23026241425E+02  0.11057579707E+02  0.40659135278E+02  0.00000000000E+00 0. -1.
         11    1    4    4    0    0 -0.35379029582E+01  0.13687960758E+00  0.20622259183E+01  0.40973490659E+01  0.51100000000E-03 0. -1.
        -11    1    4    4    0    0 -0.16826329318E+01  0.15867293171E+02  0.35388439937E+00  0.15960184228E+02  0.51100000000E-03 0.  1.
        -12    1    4    4    0    0 -0.26413107884E+02  0.70220686459E+01 -0.13473690024E+02  0.30471331428E+02  0.00000000000E+00 0.  1.
</event>
<event>
 8    1  0.4964753E-012  0.9118800E+02  0.7816164E-02  0.1184000E+00
        -11   -1    0    0    0    0  0.00000000000E+00  0.00000000000E+00  0.45593999997E+02  0.45594000000E+02  0.51100000000E-03 0. -1.
         11   -1    0    0    0    0 -0.00000000000E+00 -0.00000000000E+00 -0.45593999997E+02  0.45594000000E+02  0.51100000000E-03 0.  1.
         23    2    1    2    0    0 -0.26645352591E-14  0.00000000000E+00  0.00000000000E+00  0.91188000000E+02  0.91188000000E+02 0.  0.
    9900012    2    3    3    0    0  0.44707649926E+01 -0.40058555341E+02 -0.53370423455E+01  0.50528934386E+02  0.30000226558E+02 0.  0.
        -12    1    3    3    0    0 -0.44707649926E+01  0.40058555341E+02  0.53370423455E+01  0.40659065614E+02  0.00000000000E+00 0.  1.
         11    1    4    4    0    0  0.61171476471E+01 -0.78250075439E+01  0.14187646739E+01  0.10033101807E+02  0.51100000000E-03 0. -1.
        -11    1    4    4    0    0  0.75890039008E+01 -0.10287474227E+02 -0.10308319567E+02  0.16422136242E+02  0.51100000000E-03 0.  1.
         12    1    4    4    0    0 -0.92353865553E+01 -0.21946073570E+02  0.35525125475E+01  0.24073696338E+02  0.00000000000E+00 0. -1.
</event>
<event>
 8    1  0.4964753E-012  0.9118800E+02  0.7816164E-02  0.1184000E+00
        -11   -1    0    0    0    0  0.00000000000E+00  0.00000000000E+00  0.45593999997E+02  0.45594000000E+02  0.51100000000E-03 0. -1.
         11   -1    0    0    0    0 -0.00000000000E+00 -0.00000000000E+00 -0.45593999997E+02  0.45594000000E+02  0.51100000000E-03 0.  1.
         23    2    1    2    0    0  0.00000000000E+00  0.00000000000E+00  0.00000000000E+00  0.91188000000E+02  0.91188000000E+02 0.  0.
    9900012    2    3    3    0    0  0.17942379510E+02  0.71682288925E+01  0.35775076893E+02  0.50528823734E+02  0.29999890222E+02 0.  0.
        -12    1    3    3    0    0 -0.17942379510E+02 -0.71682288925E+01 -0.35775076893E+02  0.40659176266E+02  0.00000000000E+00 0.  1.
         11    1    4    4    0    0  0.12956164631E+02  0.24354605267E+01  0.14843512434E+02  0.19852544712E+02  0.51100000000E-03 0. -1.
        -11    1    4    4    0    0  0.11093765350E+02 -0.38387570196E+00  0.37151903142E+01  0.11705623842E+02  0.51100000000E-03 0.  1.
         12    1    4    4    0    0 -0.61075504711E+01  0.51166440677E+01  0.17216374145E+02  0.18970655180E+02  0.00000000000E+00 0. -1.
</event>
<event>
 8    1  0.4964753E-012  0.9118800E+02  0.7816164E-02  0.1184000E+00
        -11   -1    0    0    0    0  0.00000000000E+00  0.00000000000E+00  0.45593999997E+02  0.45594000000E+02  0.51100000000E-03 0. -1.
         11   -1    0    0    0    0 -0.00000000000E+00 -0.00000000000E+00 -0.45593999997E+02  0.45594000000E+02  0.51100000000E-03 0.  1.
         23    2    1    2    0    0  0.00000000000E+00 -0.35527136788E-14 -0.71054273576E-14  0.91188000000E+02  0.91188000000E+02 0.  0.
    9900012    2    3    3    0    0  0.62992571441E+01  0.19642114302E+02  0.35038140361E+02  0.50528873414E+02  0.30000041228E+02 0.  0.
        -12    1    3    3    0    0 -0.62992571441E+01 -0.19642114302E+02 -0.35038140361E+02  0.40659126586E+02  0.00000000000E+00 0.  1.
         11    1    4    4    0    0  0.37252500571E+01  0.13326817701E+02  0.18713304233E+02  0.23273790271E+02  0.51100000000E-03 0.  1.
        -11    1    4    4    0    0  0.76549631564E+01  0.26336280626E+01  0.18831884348E+02  0.20498154211E+02  0.51100000000E-03 0. -1.
        -12    1    4    4    0    0 -0.50809560694E+01  0.36816685383E+01 -0.25070482199E+01  0.67569289313E+01  0.00000000000E+00 0.  1.
</event>
<event>
 8    1  0.4964753E-012  0.9118800E+02  0.7816164E-02  0.1184000E+00
        -11   -1    0    0    0    0  0.00000000000E+00  0.00000000000E+00  0.45593999997E+02  0.45594000000E+02  0.51100000000E-03 0. -1.
         11   -1    0    0    0    0 -0.00000000000E+00 -0.00000000000E+00 -0.45593999997E+02  0.45594000000E+02  0.51100000000E-03 0.  1.
         23    2    1    2    0    0  0.00000000000E+00  0.00000000000E+00  0.00000000000E+00  0.91188000000E+02  0.91188000000E+02 0.  0.
    9900012    2    3    3    0    0  0.12547979017E+01 -0.30997988053E+02 -0.26281498001E+02  0.50528844595E+02  0.29999953629E+02 0.  0.
         12    1    3    3    0    0 -0.12547979017E+01  0.30997988053E+02  0.26281498001E+02  0.40659155405E+02  0.00000000000E+00 0. -1.
         11    1    4    4    0    0  0.36880854481E+01 -0.16270902767E+02  0.18783830864E+01  0.16789061153E+02  0.51100000000E-03 0.  1.
        -11    1    4    4    0    0  0.44359451687E+01 -0.52161628123E+01 -0.10767803173E+02  0.12760546597E+02  0.51100000000E-03 0. -1.
        -12    1    4    4    0    0 -0.68692327150E+01 -0.95109224742E+01 -0.17392077914E+02  0.20979236844E+02  0.00000000000E+00 0.  1.
</event>
<event>
 8    1  0.4964753E-012  0.9118800E+02  0.7816164E-02  0.1184000E+00
        -11   -1    0    0    0    0  0.00000000000E+00  0.00000000000E+00  0.45593999997E+02  0.45594000000E+02  0.51100000000E-03 0. -1.
         11   -1    0    0    0    0 -0.00000000000E+00 -0.00000000000E+00 -0.45593999997E+02  0.45594000000E+02  0.51100000000E-03 0.  1.
         23    2    1    2    0    0  0.17763568394E-14  0.00000000000E+00  0.00000000000E+00  0.91188000000E+02  0.91188000000E+02 0.  0.
    9900012    2    3    3    0    0  0.12367870997E+02 -0.74407557974E+01  0.38011005293E+02  0.50528860766E+02  0.30000002785E+02 0.  0.
        -12    1    3    3    0    0 -0.12367870997E+02  0.74407557974E+01 -0.38011005293E+02  0.40659139234E+02  0.00000000000E+00 0.  1.
         11    1    4    4    0    0  0.46237320762E+01  0.66313674629E+01  0.83811893303E+00  0.81275073883E+01  0.51100000000E-03 0. -1.
        -11    1    4    4    0    0 -0.50328006472E+00 -0.47501977007E+01  0.21609197391E+01  0.52428278056E+01  0.51100000000E-03 0.  1.
         12    1    4    4    0    0  0.82474189859E+01 -0.93219255596E+01  0.35011966621E+02  0.37158525572E+02  0.00000000000E+00 0. -1.
</event>
<event>
 8    1  0.4964753E-012  0.9118800E+02  0.7816164E-02  0.1184000E+00
        -11   -1    0    0    0    0  0.00000000000E+00  0.00000000000E+00  0.45593999997E+02  0.45594000000E+02  0.51100000000E-03 0. -1.
         11   -1    0    0    0    0 -0.00000000000E+00 -0.00000000000E+00 -0.45593999997E+02  0.45594000000E+02  0.51100000000E-03 0.  1.
         23    2    1    2    0    0 -0.35527136788E-14  0.88817841970E-15  0.00000000000E+00  0.91188000000E+02  0.91188000000E+02 0.  0.
    9900012    2    3    3    0    0 -0.16923696111E+02 -0.49736376860E+01 -0.36633547952E+02  0.50528863297E+02  0.30000010478E+02 0.  0.
         12    1    3    3    0    0  0.16923696111E+02  0.49736376860E+01  0.36633547952E+02  0.40659136703E+02  0.00000000000E+00 0. -1.
         11    1    4    4    0    0 -0.96080825381E+01  0.22945799970E+01 -0.22661239244E+01  0.10134873720E+02  0.51100000000E-03 0. -1.
        -11    1    4    4    0    0 -0.11808188250E+02 -0.54683827516E+01 -0.32831629329E+02  0.35316460812E+02  0.51100000000E-03 0.  1.
        -12    1    4    4    0    0  0.44925746764E+01 -0.17998349314E+01 -0.15357946986E+01  0.50775287650E+01  0.00000000000E+00 0.  1.
</event>
<event>
 8    1  0.4964753E-012  0.9118800E+02  0.7816164E-02  0.1184000E+00
        -11   -1    0    0    0    0  0.00000000000E+00  0.00000000000E+00  0.45593999997E+02  0.45594000000E+02  0.51100000000E-03 0. -1.
         11   -1    0    0    0    0 -0.00000000000E+00 -0.00000000000E+00 -0.45593999997E+02  0.45594000000E+02  0.51100000000E-03 0.  1.
         23    2    1    2    0    0  0.00000000000E+00  0.35527136788E-14  0.00000000000E+00  0.91188000000E+02  0.91188000000E+02 0.  0.
    9900012    2    3    3    0    0  0.98795215476E+01 -0.27891796405E+02  0.27885628020E+02  0.50528862001E+02  0.30000006538E+02 0.  0.
        -12    1    3    3    0    0 -0.98795215476E+01  0.27891796405E+02 -0.27885628020E+02  0.40659137999E+02  0.00000000000E+00 0.  1.
         11    1    4    4    0    0 -0.20940820056E+01  0.14680036219E+01  0.53518809424E+01  0.59315127888E+01  0.51100000000E-03 0. -1.
        -11    1    4    4    0    0  0.12203918231E+02 -0.36201319492E+01  0.68632029927E+01  0.14461830143E+02  0.51100000000E-03 0.  1.
        -12    1    4    4    0    0 -0.23031467734E+00 -0.25739668078E+02  0.15670544085E+02  0.30135519069E+02  0.00000000000E+00 0.  1.
</event>
<event>
 8    1  0.4964753E-012  0.9118800E+02  0.7816164E-02  0.1184000E+00
        -11   -1    0    0    0    0  0.00000000000E+00  0.00000000000E+00  0.45593999997E+02  0.45594000000E+02  0.51100000000E-03 0. -1.
         11   -1    0    0    0    0 -0.00000000000E+00 -0.00000000000E+00 -0.45593999997E+02  0.45594000000E+02  0.51100000000E-03 0.  1.
         23    2    1    2    0    0 -0.17763568394E-14  0.00000000000E+00  0.00000000000E+00  0.91188000000E+02  0.91188000000E+02 0.  0.
    9900012    2    3    3    0    0  0.15550129497E+02  0.21414564123E+02 -0.30867061389E+02  0.50528861264E+02  0.30000004297E+02 0.  0.
         12    1    3    3    0    0 -0.15550129497E+02 -0.21414564123E+02  0.30867061389E+02  0.40659138736E+02  0.00000000000E+00 0. -1.
         11    1    4    4    0    0 -0.44493487249E+01  0.11422384646E+02 -0.23517255470E+01  0.12481914452E+02  0.51100000000E-03 0. -1.
        -11    1    4    4    0    0  0.80329217745E+00  0.41660605740E+01 -0.95072839071E+01  0.10411041570E+02  0.51100000000E-03 0.  1.
         12    1    4    4    0    0  0.19196186045E+02  0.58261189030E+01 -0.19008051935E+02  0.27635905241E+02  0.00000000000E+00 0. -1.
</event>
<event>
 8    1  0.4964753E-012  0.9118800E+02  0.7816164E-02  0.1184000E+00
        -11   -1    0    0    0    0  0.00000000000E+00  0.00000000000E+00  0.45593999997E+02  0.45594000000E+02  0.51100000000E-03 0. -1.
         11   -1    0    0    0    0 -0.00000000000E+00 -0.00000000000E+00 -0.45593999997E+02  0.45594000000E+02  0.51100000000E-03 0.  1.
         23    2    1    2    0    0  0.35527136788E-14  0.00000000000E+00  0.00000000000E+00  0.91188000000E+02  0.91188000000E+02 0.  0.
    9900012    2    3    3    0    0  0.22812634416E+02 -0.17463404888E+02  0.28771154009E+02  0.50528854629E+02  0.29999984130E+02 0.  0.
        -12    1    3    3    0    0 -0.22812634416E+02  0.17463404888E+02 -0.28771154009E+02  0.40659145371E+02  0.00000000000E+00 0.  1.
         11    1    4    4    0    0  0.15731697404E+01 -0.71798928229E+01  0.12772796817E+01  0.74603731560E+01  0.51100000000E-03 0. -1.
        -11    1    4    4    0    0  0.19330725312E+02 -0.16651258369E+02  0.25630943704E+02  0.36164715149E+02  0.51100000000E-03 0.  1.
        -12    1    4    4    0    0  0.19087393634E+01  0.63677463037E+01  0.18629306229E+01  0.69037663237E+01  0.00000000000E+00 0.  1.
</event>
<event>
 8    1  0.4964753E-012  0.9118800E+02  0.7816164E-02  0.1184000E+00
        -11   -1    0    0    0    0  0.00000000000E+00  0.00000000000E+00  0.45593999997E+02  0.45594000000E+02  0.51100000000E-03 0. -1.
         11   -1    0    0    0    0 -0.00000000000E+00 -0.00000000000E+00 -0.45593999997E+02  0.45594000000E+02  0.51100000000E-03 0.  1.
         23    2    1    2    0    0  0.00000000000E+00  0.66613381478E-15 -0.71054273576E-14  0.91188000000E+02  0.91188000000E+02 0.  0.
    9900012    2    3    3    0    0 -0.20255349533E+02  0.18929707764E+00  0.35254099792E+02  0.50528848874E+02  0.29999966638E+02 0.  0.
        -12    1    3    3    0    0  0.20255349533E+02 -0.18929707764E+00 -0.35254099792E+02  0.40659151126E+02  0.00000000000E+00 0.  1.
         11    1    4    4    0    0 -0.79386946626E+01  0.12676460013E+02  0.89115641566E+01  0.17410671652E+02  0.51100000000E-03 0. -1.
        -11    1    4    4    0    0 -0.94069076646E+01 -0.38396682023E+01  0.18411980231E+02  0.21029359952E+02  0.51100000000E-03 0.  1.
        -12    1    4    4    0    0 -0.29097472059E+01 -0.86474947327E+01  0.79305554049E+01  0.12088817270E+02  0.00000000000E+00 0.  1.
</event>
<event>
 8    1  0.4964753E-012  0.9118800E+02  0.7816164E-02  0.1184000E+00
        -11   -1    0    0    0    0  0.00000000000E+00  0.00000000000E+00  0.45593999997E+02  0.45594000000E+02  0.51100000000E-03 0. -1.
         11   -1    0    0    0    0 -0.00000000000E+00 -0.00000000000E+00 -0.45593999997E+02  0.45594000000E+02  0.51100000000E-03 0.  1.
         23    2    1    2    0    0  0.17763568394E-14 -0.35527136788E-14 -0.35527136788E-14  0.91188000000E+02  0.91188000000E+02 0.  0.
    9900012    2    3    3    0    0 -0.14480024255E+02  0.30285915208E+02  0.22940308860E+02  0.50528861630E+02  0.30000005411E+02 0.  0.
        -12    1    3    3    0    0  0.14480024255E+02 -0.30285915208E+02 -0.22940308860E+02  0.40659138370E+02  0.00000000000E+00 0.  1.
         11    1    4    4    0    0 -0.35910141531E+01 -0.32581388846E+01  0.25172880619E+01  0.54632948929E+01  0.51100000000E-03 0. -1.
        -11    1    4    4    0    0 -0.13939598869E+02  0.16358957232E+02  0.57106929889E+01  0.22238253372E+02  0.51100000000E-03 0.  1.
         12    1    4    4    0    0  0.30505887675E+01  0.17185096860E+02  0.14712327809E+02  0.22827313366E+02  0.00000000000E+00 0. -1.
</event>
<event>
 8    1  0.4964753E-012  0.9118800E+02  0.7816164E-02  0.1184000E+00
        -11   -1    0    0    0    0  0.00000000000E+00  0.00000000000E+00  0.45593999997E+02  0.45594000000E+02  0.51100000000E-03 0. -1.
         11   -1    0    0    0    0 -0.00000000000E+00 -0.00000000000E+00 -0.45593999997E+02  0.45594000000E+02  0.51100000000E-03 0.  1.
         23    2    1    2    0    0  0.00000000000E+00 -0.17763568394E-14  0.71054273576E-14  0.91188000000E+02  0.91188000000E+02 0.  0.
    9900012    2    3    3    0    0 -0.14837230622E+02  0.75377316721E+01 -0.37097229688E+02  0.50528864965E+02  0.30000015547E+02 0.  0.
         12    1    3    3    0    0  0.14837230622E+02 -0.75377316721E+01  0.37097229688E+02  0.40659135035E+02  0.00000000000E+00 0. -1.
         11    1    4    4    0    0 -0.11716889566E+02  0.31186023796E+01 -0.66787486138E+01  0.13842574371E+02  0.51100000000E-03 0. -1.
        -11    1    4    4    0    0 -0.12637366314E+01 -0.39519085359E+01  0.87418897400E+00  0.42401436265E+01  0.51100000000E-03 0.  1.
        -12    1    4    4    0    0 -0.18566044245E+01  0.83710378285E+01 -0.31292670048E+02  0.32446146968E+02  0.00000000000E+00 0.  1.
</event>
<event>
 8    1  0.4964753E-012  0.9118800E+02  0.7816164E-02  0.1184000E+00
        -11   -1    0    0    0    0  0.00000000000E+00  0.00000000000E+00  0.45593999997E+02  0.45594000000E+02  0.51100000000E-03 0. -1.
         11   -1    0    0    0    0 -0.00000000000E+00 -0.00000000000E+00 -0.45593999997E+02  0.45594000000E+02  0.51100000000E-03 0.  1.
         23    2    1    2    0    0  0.35527136788E-14 -0.35527136788E-14  0.00000000000E+00  0.91188000000E+02  0.91188000000E+02 0.  0.
    9900012    2    3    3    0    0  0.23100688018E+02 -0.28321297193E+02 -0.17816506787E+02  0.50528861105E+02  0.30000003815E+02 0.  0.
         12    1    3    3    0    0 -0.23100688018E+02  0.28321297193E+02  0.17816506787E+02  0.40659138895E+02  0.00000000000E+00 0. -1.
         11    1    4    4    0    0  0.32611272812E+01  0.95298171834E+00  0.23293660256E+01  0.41193533039E+01  0.51100000000E-03 0. -1.
        -11    1    4    4    0    0 -0.30457715556E+01 -0.19478479449E+01 -0.79561743732E+01  0.87390815824E+01  0.51100000000E-03 0.  1.
         12    1    4    4    0    0  0.22885332292E+02 -0.27326430966E+02 -0.12189698439E+02  0.37670426219E+02  0.00000000000E+00 0. -1.
</event>
<event>
 8    1  0.4964753E-012  0.9118800E+02  0.7816164E-02  0.1184000E+00
        -11   -1    0    0    0    0  0.00000000000E+00  0.00000000000E+00  0.45593999997E+02  0.45594000000E+02  0.51100000000E-03 0. -1.
         11   -1    0    0    0    0 -0.00000000000E+00 -0.00000000000E+00 -0.45593999997E+02  0.45594000000E+02  0.51100000000E-03 0.  1.
         23    2    1    2    0    0  0.55511151231E-15 -0.38857805862E-15  0.00000000000E+00  0.91188000000E+02  0.91188000000E+02 0.  0.
    9900012    2    3    3    0    0  0.76036003209E+00  0.30272693076E+00  0.40650879338E+02  0.50528883164E+02  0.30000070865E+02 0.  0.
        -12    1    3    3    0    0 -0.76036003209E+00 -0.30272693076E+00 -0.40650879338E+02  0.40659116836E+02  0.00000000000E+00 0.  1.
         11    1    4    4    0    0  0.31104517542E+01 -0.27032756982E+01  0.31147509694E+02  0.31418942853E+02  0.51100000000E-03 0. -1.
        -11    1    4    4    0    0  0.54606941437E+01  0.60910724286E+01  0.45889852432E+01  0.93797190622E+01  0.51100000000E-03 0.  1.
        -12    1    4    4    0    0 -0.78107858658E+01 -0.30850697997E+01  0.49143844004E+01  0.97302212485E+01  0.00000000000E+00 0.  1.
</event>
<event>
 8    1  0.4964753E-012  0.9118800E+02  0.7816164E-02  0.1184000E+00
        -11   -1    0    0    0    0  0.00000000000E+00  0.00000000000E+00  0.45593999997E+02  0.45594000000E+02  0.51100000000E-03 0. -1.
         11   -1    0    0    0    0 -0.00000000000E+00 -0.00000000000E+00 -0.45593999997E+02  0.45594000000E+02  0.51100000000E-03 0.  1.
         23    2    1    2    0    0  0.17763568394E-14  0.00000000000E+00  0.35527136788E-14  0.91188000000E+02  0.91188000000E+02 0.  0.
    9900012    2    3    3    0    0 -0.15036981420E+02  0.27462674178E+02 -0.25939479436E+02  0.50528857404E+02  0.29999992565E+02 0.  0.
         12    1    3    3    0    0  0.15036981420E+02 -0.27462674178E+02  0.25939479436E+02  0.40659142596E+02  0.00000000000E+00 0. -1.
         11    1    4    4    0    0 -0.35082612506E+01  0.13221234190E+01  0.45280511036E+01  0.58787034621E+01  0.51100000000E-03 0. -1.
        -11    1    4    4    0    0 -0.10341235424E+02  0.52967294802E+01 -0.89260775838E+01  0.14651667297E+02  0.51100000000E-03 0.  1.
        -12    1    4    4    0    0 -0.11874847453E+01  0.20843821279E+02 -0.21541452956E+02  0.29998486645E+02  0.00000000000E+00 0.  1.
</event>
<event>
 8    1  0.4964753E-012  0.9118800E+02  0.7816164E-02  0.1184000E+00
        -11   -1    0    0    0    0  0.00000000000E+00  0.00000000000E+00  0.45593999997E+02  0.45594000000E+02  0.51100000000E-03 0. -1.
         11   -1    0    0    0    0 -0.00000000000E+00 -0.00000000000E+00 -0.45593999997E+02  0.45594000000E+02  0.51100000000E-03 0.  1.
         23    2    1    2    0    0  0.13322676296E-14  0.00000000000E+00  0.00000000000E+00  0.91188000000E+02  0.91188000000E+02 0.  0.
    9900012    2    3    3    0    0 -0.29765103878E+01 -0.47322003121E+01  0.40272963750E+02  0.50528868884E+02  0.30000027461E+02 0.  0.
        -12    1    3    3    0    0  0.29765103878E+01  0.47322003121E+01 -0.40272963750E+02  0.40659131116E+02  0.00000000000E+00 0.  1.
         11    1    4    4    0    0 -0.67955632584E+01  0.44721570929E+01  0.69760719290E+01  0.10716596889E+02  0.51100000000E-03 0. -1.
        -11    1    4    4    0    0 -0.55055464588E+01  0.22223299817E+01  0.44704217032E+01  0.74319891565E+01  0.51100000000E-03 0.  1.
         12    1    4    4    0    0  0.93245993293E+01 -0.11426687387E+02  0.28826470118E+02  0.32380282839E+02  0.00000000000E+00 0. -1.
</event>
<event>
 8    1  0.4964753E-012  0.9118800E+02  0.7816164E-02  0.1184000E+00
        -11   -1    0    0    0    0  0.00000000000E+00  0.00000000000E+00  0.45593999997E+02  0.45594000000E+02  0.51100000000E-03 0. -1.
         11   -1    0    0    0    0 -0.00000000000E+00 -0.00000000000E+00 -0.45593999997E+02  0.45594000000E+02  0.51100000000E-03 0.  1.
         23    2    1    2    0    0 -0.35527136788E-14 -0.71054273576E-14 -0.17763568394E-14  0.91188000000E+02  0.91188000000E+02 0.  0.
    9900012    2    3    3    0    0  0.21617608079E+02  0.32589558604E+02  0.11125010563E+02  0.50528853807E+02  0.29999981632E+02 0.  0.
        -12    1    3    3    0    0 -0.21617608079E+02 -0.32589558604E+02 -0.11125010563E+02  0.40659146193E+02  0.00000000000E+00 0.  1.
         11    1    4    4    0    0  0.10408260525E+00  0.11210553616E+02  0.16023484297E+01  0.11324966504E+02  0.51100000000E-03 0. -1.
        -11    1    4    4    0    0  0.35367784892E+01  0.91574120493E+01  0.13912614856E+02  0.17027267835E+02  0.51100000000E-03 0.  1.
        -12    1    4    4    0    0  0.17976746985E+02  0.12221592940E+02 -0.43899527230E+01  0.22176619469E+02  0.00000000000E+00 0.  1.
</event>
<event>
 8    1  0.4964753E-012  0.9118800E+02  0.7816164E-02  0.1184000E+00
        -11   -1    0    0    0    0  0.00000000000E+00  0.00000000000E+00  0.45593999997E+02  0.45594000000E+02  0.51100000000E-03 0. -1.
         11   -1    0    0    0    0 -0.00000000000E+00 -0.00000000000E+00 -0.45593999997E+02  0.45594000000E+02  0.51100000000E-03 0.  1.
         23    2    1    2    0    0  0.22204460493E-15 -0.35527136788E-14  0.71054273576E-14  0.91188000000E+02  0.91188000000E+02 0.  0.
    9900012    2    3    3    0    0 -0.14554356150E+01 -0.24993059262E+02  0.32037395076E+02  0.50528856043E+02  0.29999988428E+02 0.  0.
        -12    1    3    3    0    0  0.14554356150E+01  0.24993059262E+02 -0.32037395076E+02  0.40659143957E+02  0.00000000000E+00 0.  1.
         11    1    4    4    0    0 -0.37979350121E+01 -0.20981454468E+01  0.16404665338E+02  0.16968782213E+02  0.51100000000E-03 0. -1.
        -11    1    4    4    0    0  0.65395819381E+01 -0.22120727846E+02  0.17447426066E+02  0.28922403236E+02  0.51100000000E-03 0.  1.
         12    1    4    4    0    0 -0.41970825411E+01 -0.77418596842E+00 -0.18146963283E+01  0.46376705935E+01  0.00000000000E+00 0. -1.
</event>
<event>
 8    1  0.4964753E-012  0.9118800E+02  0.7816164E-02  0.1184000E+00
        -11   -1    0    0    0    0  0.00000000000E+00  0.00000000000E+00  0.45593999997E+02  0.45594000000E+02  0.51100000000E-03 0. -1.
         11   -1    0    0    0    0 -0.00000000000E+00 -0.00000000000E+00 -0.45593999997E+02  0.45594000000E+02  0.51100000000E-03 0.  1.
         23    2    1    2    0    0  0.17763568394E-14 -0.35527136788E-14  0.35527136788E-14  0.91188000000E+02  0.91188000000E+02 0.  0.
    9900012    2    3    3    0    0  0.69358513942E+01 -0.26867882776E+02  0.29718298569E+02  0.50528850609E+02  0.29999971910E+02 0.  0.
        -12    1    3    3    0    0 -0.69358513942E+01  0.26867882776E+02 -0.29718298569E+02  0.40659149391E+02  0.00000000000E+00 0.  1.
         11    1    4    4    0    0  0.19703413366E+01 -0.40770157243E+01  0.74908227806E+01  0.87530982166E+01  0.51100000000E-03 0. -1.
        -11    1    4    4    0    0 -0.10988714960E+02 -0.10328386374E+02  0.84378348098E+01  0.17280754558E+02  0.51100000000E-03 0.  1.
        -12    1    4    4    0    0  0.15954225018E+02 -0.12462480678E+02  0.13789640978E+02  0.24494997834E+02  0.00000000000E+00 0.  1.
</event>
<event>
 8    1  0.4964753E-012  0.9118800E+02  0.7816164E-02  0.1184000E+00
        -11   -1    0    0    0    0  0.00000000000E+00  0.00000000000E+00  0.45593999997E+02  0.45594000000E+02  0.51100000000E-03 0. -1.
         11   -1    0    0    0    0 -0.00000000000E+00 -0.00000000000E+00 -0.45593999997E+02  0.45594000000E+02  0.51100000000E-03 0.  1.
         23    2    1    2    0    0  0.44408920985E-15  0.00000000000E+00  0.00000000000E+00  0.91188000000E+02  0.91188000000E+02 0.  0.
    9900012    2    3    3    0    0 -0.29517408635E+01  0.18923855145E+02  0.35865590135E+02  0.50528860518E+02  0.30000002031E+02 0.  0.
        -12    1    3    3    0    0  0.29517408635E+01 -0.18923855145E+02 -0.35865590135E+02  0.40659139482E+02  0.00000000000E+00 0.  1.
         11    1    4    4    0    0  0.49489846028E+01  0.11353458025E+02  0.84700073813E+01  0.15004482098E+02  0.51100000000E-03 0. -1.
        -11    1    4    4    0    0 -0.38632337092E+01  0.14543531540E+01 -0.24445848354E+01  0.47974694441E+01  0.51100000000E-03 0.  1.
         12    1    4    4    0    0 -0.40374917571E+01  0.61160439665E+01  0.29840167589E+02  0.30726908976E+02  0.00000000000E+00 0. -1.
</event>
<event>
 8    1  0.4964753E-012  0.9118800E+02  0.7816164E-02  0.1184000E+00
        -11   -1    0    0    0    0  0.00000000000E+00  0.00000000000E+00  0.45593999997E+02  0.45594000000E+02  0.51100000000E-03 0. -1.
         11   -1    0    0    0    0 -0.00000000000E+00 -0.00000000000E+00 -0.45593999997E+02  0.45594000000E+02  0.51100000000E-03 0.  1.
         23    2    1    2    0    0  0.44408920985E-15  0.00000000000E+00 -0.71054273576E-14  0.91188000000E+02  0.91188000000E+02 0.  0.
    9900012    2    3    3    0    0  0.29055644395E+01  0.80791947324E+01  0.39742297357E+02  0.50528857222E+02  0.29999992011E+02 0.  0.
        -12    1    3    3    0    0 -0.29055644395E+01 -0.80791947324E+01 -0.39742297357E+02  0.40659142778E+02  0.00000000000E+00 0.  1.
         11    1    4    4    0    0  0.39963827440E+00 -0.24102851252E+01 -0.98322062144E+00  0.26336112444E+01  0.51100000000E-03 0.  1.
        -11    1    4    4    0    0  0.10465144389E+02  0.78659294146E+01  0.35927616020E+02  0.38238536658E+02  0.51100000000E-03 0. -1.
         12    1    4    4    0    0 -0.79592182239E+01  0.26235504430E+01  0.47979019591E+01  0.96567093190E+01  0.00000000000E+00 0. -1.
</event>
<event>
 8    1  0.4964753E-012  0.9118800E+02  0.7816164E-02  0.1184000E+00
        -11   -1    0    0    0    0  0.00000000000E+00  0.00000000000E+00  0.45593999997E+02  0.45594000000E+02  0.51100000000E-03 0. -1.
         11   -1    0    0    0    0 -0.00000000000E+00 -0.00000000000E+00 -0.45593999997E+02  0.45594000000E+02  0.51100000000E-03 0.  1.
         23    2    1    2    0    0  0.44408920985E-15  0.17763568394E-14  0.00000000000E+00  0.91188000000E+02  0.91188000000E+02 0.  0.
    9900012    2    3    3    0    0 -0.28202061577E+01 -0.13796190674E+02 -0.38142860473E+02  0.50528852874E+02  0.29999978797E+02 0.  0.
         12    1    3    3    0    0  0.28202061577E+01  0.13796190674E+02  0.38142860473E+02  0.40659147126E+02  0.00000000000E+00 0. -1.
         11    1    4    4    0    0  0.26802628370E+01 -0.53585858222E+01 -0.41824059115E+01  0.73068988195E+01  0.51100000000E-03 0. -1.
        -11    1    4    4    0    0  0.52780756628E+01  0.11545219314E+01 -0.26371464452E+02  0.26919233667E+02  0.51100000000E-03 0.  1.
        -12    1    4    4    0    0 -0.10778544657E+02 -0.95921267837E+01 -0.75889901093E+01  0.16302720388E+02  0.00000000000E+00 0.  1.
</event>
<event>
 8    1  0.4964753E-012  0.9118800E+02  0.7816164E-02  0.1184000E+00
        -11   -1    0    0    0    0  0.00000000000E+00  0.00000000000E+00  0.45593999997E+02  0.45594000000E+02  0.51100000000E-03 0. -1.
         11   -1    0    0    0    0 -0.00000000000E+00 -0.00000000000E+00 -0.45593999997E+02  0.45594000000E+02  0.51100000000E-03 0.  1.
         23    2    1    2    0    0 -0.88817841970E-15  0.00000000000E+00  0.00000000000E+00  0.91188000000E+02  0.91188000000E+02 0.  0.
    9900012    2    3    3    0    0 -0.77911328444E+01  0.17715987591E+02  0.35757626071E+02  0.50528858475E+02  0.29999995820E+02 0.  0.
        -12    1    3    3    0    0  0.77911328444E+01 -0.17715987591E+02 -0.35757626071E+02  0.40659141525E+02  0.00000000000E+00 0.  1.
         11    1    4    4    0    0  0.15165633254E+01  0.11819906816E+01 -0.25730685389E+01  0.32121251935E+01  0.51100000000E-03 0. -1.
        -11    1    4    4    0    0  0.55553001400E+01  0.36796802191E+01  0.40337952452E+01  0.77892817706E+01  0.51100000000E-03 0.  1.
         12    1    4    4    0    0 -0.14862996310E+02  0.12854316690E+02  0.34296899365E+02  0.39527451511E+02  0.00000000000E+00 0. -1.
</event>
<event>
 8    1  0.4964753E-012  0.9118800E+02  0.7816164E-02  0.1184000E+00
        -11   -1    0    0    0    0  0.00000000000E+00  0.00000000000E+00  0.45593999997E+02  0.45594000000E+02  0.51100000000E-03 0. -1.
         11   -1    0    0    0    0 -0.00000000000E+00 -0.00000000000E+00 -0.45593999997E+02  0.45594000000E+02  0.51100000000E-03 0.  1.
         23    2    1    2    0    0  0.17763568394E-14 -0.35527136788E-14  0.00000000000E+00  0.91188000000E+02  0.91188000000E+02 0.  0.
    9900012    2    3    3    0    0 -0.12792908973E+02  0.26909726994E+02 -0.27665386617E+02  0.50528861500E+02  0.30000005015E+02 0.  0.
         12    1    3    3    0    0  0.12792908973E+02 -0.26909726994E+02  0.27665386617E+02  0.40659138500E+02  0.00000000000E+00 0. -1.
         11    1    4    4    0    0  0.34468764889E+01 -0.31743454154E+01 -0.16302936550E+01  0.49613792446E+01  0.51100000000E-03 0. -1.
        -11    1    4    4    0    0 -0.14259572460E+02  0.10538936618E+02 -0.11592955180E+02  0.21184928648E+02  0.51100000000E-03 0.  1.
        -12    1    4    4    0    0 -0.19802130021E+01  0.19545135792E+02 -0.14442137783E+02  0.24382553607E+02  0.00000000000E+00 0.  1.
</event>
<event>
 8    1  0.4964753E-012  0.9118800E+02  0.7816164E-02  0.1184000E+00
        -11   -1    0    0    0    0  0.00000000000E+00  0.00000000000E+00  0.45593999997E+02  0.45594000000E+02  0.51100000000E-03 0.  1.
         11   -1    0    0    0    0 -0.00000000000E+00 -0.00000000000E+00 -0.45593999997E+02  0.45594000000E+02  0.51100000000E-03 0. -1.
         23    2    1    2    0    0  0.00000000000E+00  0.44408920985E-15  0.00000000000E+00  0.91188000000E+02  0.91188000000E+02 0.  0.
    9900012    2    3    3    0    0 -0.25232895208E+02  0.26575764997E+01  0.31771078637E+02  0.50528890920E+02  0.30000094439E+02 0.  0.
        -12    1    3    3    0    0  0.25232895208E+02 -0.26575764997E+01 -0.31771078637E+02  0.40659109080E+02  0.00000000000E+00 0.  1.
         11    1    4    4    0    0 -0.13929039747E+02  0.10821225638E+02  0.18231149972E+02  0.25367142176E+02  0.51100000000E-03 0. -1.
        -11    1    4    4    0    0 -0.28971462544E+00  0.78474621842E+00  0.10645804481E+02  0.10678619503E+02  0.51100000000E-03 0.  1.
         12    1    4    4    0    0 -0.11014140836E+02 -0.89483953567E+01  0.28941241840E+01  0.14483129241E+02  0.00000000000E+00 0. -1.
</event>
<event>
 8    1  0.4964753E-012  0.9118800E+02  0.7816164E-02  0.1184000E+00
        -11   -1    0    0    0    0  0.00000000000E+00  0.00000000000E+00  0.45593999997E+02  0.45594000000E+02  0.51100000000E-03 0. -1.
         11   -1    0    0    0    0 -0.00000000000E+00 -0.00000000000E+00 -0.45593999997E+02  0.45594000000E+02  0.51100000000E-03 0.  1.
         23    2    1    2    0    0  0.35527136788E-14 -0.35527136788E-14 -0.35527136788E-14  0.91188000000E+02  0.91188000000E+02 0.  0.
    9900012    2    3    3    0    0 -0.25476836875E+02 -0.21506481534E+02 -0.23271598417E+02  0.50528865012E+02  0.30000015690E+02 0.  0.
         12    1    3    3    0    0  0.25476836875E+02  0.21506481534E+02  0.23271598417E+02  0.40659134988E+02  0.00000000000E+00 0. -1.
         11    1    4    4    0    0 -0.93013717045E+01 -0.74613973053E+01 -0.53041718178E+01  0.13050754931E+02  0.51100000000E-03 0. -1.
        -11    1    4    4    0    0 -0.74206957575E+01 -0.11085711312E+02 -0.23270633703E+02  0.26823163759E+02  0.51100000000E-03 0.  1.
         12    1    4    4    0    0 -0.87547694127E+01 -0.29593729169E+01  0.53032071046E+01  0.10654946322E+02  0.00000000000E+00 0. -1.
</event>
<event>
 8    1  0.7114858E-012  0.9118800E+02  0.7816164E-02  0.1184000E+00
        -11   -1    0    0    0    0  0.00000000000E+00  0.00000000000E+00  0.45593999997E+02  0.45594000000E+02  0.51100000000E-03 0. -1.
         11   -1    0    0    0    0 -0.00000000000E+00 -0.00000000000E+00 -0.45593999997E+02  0.45594000000E+02  0.51100000000E-03 0.  1.
         23    2    1    2    0    0  0.00000000000E+00  0.17763568394E-14 -0.35527136788E-14  0.91188000000E+02  0.91188000000E+02 0.  0.
    9900012    2    3    3    0    0 -0.32017841119E+02 -0.21292211509E+01 -0.24969776297E+02  0.50528862515E+02  0.30000008102E+02 0.  0.
         12    1    3    3    0    0  0.32017841119E+02  0.21292211509E+01  0.24969776297E+02  0.40659137485E+02  0.00000000000E+00 0. -1.
         11    1    4    4    0    0 -0.69363075556E+01 -0.89176035973E+01 -0.32482061577E+01  0.11755290721E+02  0.51100000000E-03 0. -1.
        -11    1    4    4    0    0 -0.16842293711E+02  0.17741491921E+00 -0.22585779197E+02  0.28174665139E+02  0.51100000000E-03 0.  1.
         12    1    4    4    0    0 -0.82392398526E+01  0.66109675272E+01  0.86420905743E+00  0.10598906655E+02  0.00000000000E+00 0. -1.
</event>
<event>
 8    1  0.4964753E-012  0.9118800E+02  0.7816164E-02  0.1184000E+00
        -11   -1    0    0    0    0  0.00000000000E+00  0.00000000000E+00  0.45593999997E+02  0.45594000000E+02  0.51100000000E-03 0. -1.
         11   -1    0    0    0    0 -0.00000000000E+00 -0.00000000000E+00 -0.45593999997E+02  0.45594000000E+02  0.51100000000E-03 0.  1.
         23    2    1    2    0    0  0.35527136788E-14  0.00000000000E+00  0.00000000000E+00  0.91188000000E+02  0.91188000000E+02 0.  0.
    9900012    2    3    3    0    0  0.20531160731E+02  0.13368292775E+02 -0.32448819485E+02  0.50528859593E+02  0.29999999218E+02 0.  0.
         12    1    3    3    0    0 -0.20531160731E+02 -0.13368292775E+02  0.32448819485E+02  0.40659140407E+02  0.00000000000E+00 0. -1.
         11    1    4    4    0    0 -0.85032406911E+00  0.38114883283E+01 -0.46051322187E+01  0.60380242888E+01  0.51100000000E-03 0. -1.
        -11    1    4    4    0    0  0.10505857197E+02  0.27211122182E+01 -0.29599148605E+02  0.31525974776E+02  0.51100000000E-03 0.  1.
         12    1    4    4    0    0  0.10875627603E+02  0.68356922289E+01  0.17554613387E+01  0.12964860528E+02  0.00000000000E+00 0. -1.
</event>
<event>
 8    1  0.4964753E-012  0.9118800E+02  0.7816164E-02  0.1184000E+00
        -11   -1    0    0    0    0  0.00000000000E+00  0.00000000000E+00  0.45593999997E+02  0.45594000000E+02  0.51100000000E-03 0. -1.
         11   -1    0    0    0    0 -0.00000000000E+00 -0.00000000000E+00 -0.45593999997E+02  0.45594000000E+02  0.51100000000E-03 0.  1.
         23    2    1    2    0    0 -0.35527136788E-14  0.00000000000E+00  0.00000000000E+00  0.91188000000E+02  0.91188000000E+02 0.  0.
    9900012    2    3    3    0    0 -0.18256489717E+02  0.32062587508E+02  0.17083897409E+02  0.50528825326E+02  0.29999895061E+02 0.  0.
        -12    1    3    3    0    0  0.18256489717E+02 -0.32062587508E+02 -0.17083897409E+02  0.40659174674E+02  0.00000000000E+00 0.  1.
         11    1    4    4    0    0 -0.40355830757E+01  0.27715108511E+00 -0.22535889192E+01  0.46304866659E+01  0.51100000000E-03 0. -1.
        -11    1    4    4    0    0 -0.14539199789E+02  0.10778828380E+02  0.11922837784E+01  0.18138164533E+02  0.51100000000E-03 0.  1.
         12    1    4    4    0    0  0.31829314797E+00  0.21006608043E+02  0.18145202550E+02  0.27760174127E+02  0.00000000000E+00 0. -1.
</event>
<event>
 8    1  0.4964753E-012  0.9118800E+02  0.7816164E-02  0.1184000E+00
        -11   -1    0    0    0    0  0.00000000000E+00  0.00000000000E+00  0.45593999997E+02  0.45594000000E+02  0.51100000000E-03 0. -1.
         11   -1    0    0    0    0 -0.00000000000E+00 -0.00000000000E+00 -0.45593999997E+02  0.45594000000E+02  0.51100000000E-03 0.  1.
         23    2    1    2    0    0  0.00000000000E+00  0.17763568394E-14  0.00000000000E+00  0.91188000000E+02  0.91188000000E+02 0.  0.
    9900012    2    3    3    0    0  0.20822876365E+02  0.13944146993E+02  0.32017716578E+02  0.50528860925E+02  0.30000003266E+02 0.  0.
        -12    1    3    3    0    0 -0.20822876365E+02 -0.13944146993E+02 -0.32017716578E+02  0.40659139075E+02  0.00000000000E+00 0.  1.
         11    1    4    4    0    0  0.37345066699E+01 -0.10259001883E+00  0.13548480448E+02  0.14054123505E+02  0.51100000000E-03 0. -1.
        -11    1    4    4    0    0  0.86829957523E+01 -0.31045786146E+01 -0.90855533181E+00  0.92659752136E+01  0.51100000000E-03 0.  1.
         12    1    4    4    0    0  0.84053739432E+01  0.17151315626E+02  0.19377791462E+02  0.27208762206E+02  0.00000000000E+00 0. -1.
</event>
<event>
 8    1  0.4964753E-012  0.9118800E+02  0.7816164E-02  0.1184000E+00
        -11   -1    0    0    0    0  0.00000000000E+00  0.00000000000E+00  0.45593999997E+02  0.45594000000E+02  0.51100000000E-03 0.  1.
         11   -1    0    0    0    0 -0.00000000000E+00 -0.00000000000E+00 -0.45593999997E+02  0.45594000000E+02  0.51100000000E-03 0. -1.
         23    2    1    2    0    0  0.00000000000E+00 -0.71054273576E-14  0.00000000000E+00  0.91188000000E+02  0.91188000000E+02 0.  0.
    9900012    2    3    3    0    0 -0.50431487756E+01 -0.40234341769E+02 -0.29884457816E+01  0.50528850780E+02  0.29999972429E+02 0.  0.
         12    1    3    3    0    0  0.50431487756E+01  0.40234341769E+02  0.29884457816E+01  0.40659149220E+02  0.00000000000E+00 0. -1.
         11    1    4    4    0    0  0.62325643638E+01 -0.77382432844E+01  0.14182702649E+01  0.10036770321E+02  0.51100000000E-03 0.  1.
        -11    1    4    4    0    0  0.27249950255E+01 -0.14598916380E+02 -0.89218879426E+01  0.17324954317E+02  0.51100000000E-03 0. -1.
        -12    1    4    4    0    0 -0.14000708165E+02 -0.17897182104E+02  0.45151718962E+01  0.23167126141E+02  0.00000000000E+00 0.  1.
</event>
<event>
 8    1  0.4964753E-012  0.9118800E+02  0.7816164E-02  0.1184000E+00
        -11   -1    0    0    0    0  0.00000000000E+00  0.00000000000E+00  0.45593999997E+02  0.45594000000E+02  0.51100000000E-03 0. -1.
         11   -1    0    0    0    0 -0.00000000000E+00 -0.00000000000E+00 -0.45593999997E+02  0.45594000000E+02  0.51100000000E-03 0.  1.
         23    2    1    2    0    0  0.71054273576E-14  0.35527136788E-14  0.35527136788E-14  0.91188000000E+02  0.91188000000E+02 0.  0.
    9900012    2    3    3    0    0 -0.23044060454E+02 -0.28885516050E+02 -0.16963600142E+02  0.50528862166E+02  0.30000007039E+02 0.  0.
         12    1    3    3    0    0  0.23044060454E+02  0.28885516050E+02  0.16963600142E+02  0.40659137834E+02  0.00000000000E+00 0. -1.
         11    1    4    4    0    0 -0.20197423225E+02 -0.57224819987E+01 -0.92494906483E+01  0.22939829613E+02  0.51100000000E-03 0. -1.
        -11    1    4    4    0    0  0.15225364779E+01 -0.10559602188E+00  0.17168820527E+01  0.22971617466E+01  0.51100000000E-03 0.  1.
        -12    1    4    4    0    0 -0.43691737073E+01 -0.23057438029E+02 -0.94309915461E+01  0.25291870806E+02  0.00000000000E+00 0.  1.
</event>
<event>
 8    1  0.4964753E-012  0.9118800E+02  0.7816164E-02  0.1184000E+00
        -11   -1    0    0    0    0  0.00000000000E+00  0.00000000000E+00  0.45593999997E+02  0.45594000000E+02  0.51100000000E-03 0. -1.
         11   -1    0    0    0    0 -0.00000000000E+00 -0.00000000000E+00 -0.45593999997E+02  0.45594000000E+02  0.51100000000E-03 0.  1.
         23    2    1    2    0    0  0.00000000000E+00  0.35527136788E-14 -0.71054273576E-14  0.91188000000E+02  0.91188000000E+02 0.  0.
    9900012    2    3    3    0    0 -0.11990233777E+02 -0.16513975395E+02 -0.35166577184E+02  0.50528865231E+02  0.30000016355E+02 0.  0.
         12    1    3    3    0    0  0.11990233777E+02  0.16513975395E+02  0.35166577184E+02  0.40659134769E+02  0.00000000000E+00 0. -1.
         11    1    4    4    0    0 -0.33565582074E+01 -0.72158512711E+01  0.19106670132E+01  0.81844756254E+01  0.51100000000E-03 0. -1.
        -11    1    4    4    0    0 -0.13518562757E+01  0.68596742298E+00  0.13184607568E+01  0.20090808157E+01  0.51100000000E-03 0.  1.
        -12    1    4    4    0    0 -0.72818192942E+01 -0.99840915469E+01 -0.38395704954E+02  0.40335308789E+02  0.00000000000E+00 0.  1.
</event>
<event>
 8    1  0.4964753E-012  0.9118800E+02  0.7816164E-02  0.1184000E+00
        -11   -1    0    0    0    0  0.00000000000E+00  0.00000000000E+00  0.45593999997E+02  0.45594000000E+02  0.51100000000E-03 0. -1.
         11   -1    0    0    0    0 -0.00000000000E+00 -0.00000000000E+00 -0.45593999997E+02  0.45594000000E+02  0.51100000000E-03 0.  1.
         23    2    1    2    0    0 -0.35527136788E-14  0.00000000000E+00  0.11102230246E-15  0.91188000000E+02  0.91188000000E+02 0.  0.
    9900012    2    3    3    0    0 -0.25325431430E+02 -0.31803178967E+02 -0.58839792421E+00  0.50528857342E+02  0.29999992378E+02 0.  0.
         12    1    3    3    0    0  0.25325431430E+02  0.31803178967E+02  0.58839792421E+00  0.40659142658E+02  0.00000000000E+00 0. -1.
         11    1    4    4    0    0 -0.67298732211E+01 -0.18957566611E+02  0.95362678036E+01  0.22262545435E+02  0.51100000000E-03 0. -1.
        -11    1    4    4    0    0 -0.22338187279E+01 -0.94081430017E+01 -0.35347967684E+01  0.10295527636E+02  0.51100000000E-03 0.  1.
        -12    1    4    4    0    0 -0.16361739481E+02 -0.34374693546E+01 -0.65898689594E+01  0.17970784271E+02  0.00000000000E+00 0.  1.
</event>
<event>
 8    1  0.4964753E-012  0.9118800E+02  0.7816164E-02  0.1184000E+00
        -11   -1    0    0    0    0  0.00000000000E+00  0.00000000000E+00  0.45593999997E+02  0.45594000000E+02  0.51100000000E-03 0. -1.
         11   -1    0    0    0    0 -0.00000000000E+00 -0.00000000000E+00 -0.45593999997E+02  0.45594000000E+02  0.51100000000E-03 0.  1.
         23    2    1    2    0    0  0.13322676296E-14 -0.44408920985E-15 -0.71054273576E-14  0.91188000000E+02  0.91188000000E+02 0.  0.
    9900012    2    3    3    0    0  0.16220707737E+01 -0.35173635484E+01 -0.40474223965E+02  0.50528858771E+02  0.29999996721E+02 0.  0.
         12    1    3    3    0    0 -0.16220707737E+01  0.35173635484E+01  0.40474223965E+02  0.40659141229E+02  0.00000000000E+00 0. -1.
         11    1    4    4    0    0 -0.48469075415E+01 -0.18708049650E+01 -0.10622876428E+01  0.53029123347E+01  0.51100000000E-03 0. -1.
        -11    1    4    4    0    0 -0.26536335110E+01 -0.78078230655E+01 -0.28717908636E+02  0.29878456261E+02  0.51100000000E-03 0.  1.
         12    1    4    4    0    0  0.91226118262E+01  0.61612644821E+01 -0.10694027686E+02  0.15347490176E+02  0.00000000000E+00 0. -1.
</event>
<event>
 8    1  0.9354423E-012  0.9118800E+02  0.7816164E-02  0.1184000E+00
        -11   -1    0    0    0    0  0.00000000000E+00  0.00000000000E+00  0.45593999997E+02  0.45594000000E+02  0.51100000000E-03 0. -1.
         11   -1    0    0    0    0 -0.00000000000E+00 -0.00000000000E+00 -0.45593999997E+02  0.45594000000E+02  0.51100000000E-03 0.  1.
         23    2    1    2    0    0  0.00000000000E+00  0.00000000000E+00  0.71054273576E-14  0.91188000000E+02  0.91188000000E+02 0.  0.
    9900012    2    3    3    0    0 -0.22418087518E+02 -0.54281927640E+01 -0.33483276657E+02  0.50528859080E+02  0.29999997660E+02 0.  0.
         12    1    3    3    0    0  0.22418087518E+02  0.54281927640E+01  0.33483276657E+02  0.40659140920E+02  0.00000000000E+00 0. -1.
         11    1    4    4    0    0 -0.14328289627E+02 -0.94011044164E+01 -0.15691363243E+02  0.23235738176E+02  0.51100000000E-03 0. -1.
        -11    1    4    4    0    0 -0.12149721260E+02  0.77967822369E+01 -0.15721312952E+02  0.21343973883E+02  0.51100000000E-03 0.  1.
         12    1    4    4    0    0  0.40599233685E+01 -0.38238705846E+01 -0.20706004623E+01  0.59491470212E+01  0.00000000000E+00 0. -1.
</event>
<event>
 8    1  0.4964753E-012  0.9118800E+02  0.7816164E-02  0.1184000E+00
        -11   -1    0    0    0    0  0.00000000000E+00  0.00000000000E+00  0.45593999997E+02  0.45594000000E+02  0.51100000000E-03 0. -1.
         11   -1    0    0    0    0 -0.00000000000E+00 -0.00000000000E+00 -0.45593999997E+02  0.45594000000E+02  0.51100000000E-03 0.  1.
         23    2    1    2    0    0  0.00000000000E+00 -0.88817841970E-15  0.00000000000E+00  0.91188000000E+02  0.91188000000E+02 0.  0.
    9900012    2    3    3    0    0  0.85013747654E+01 -0.45564286968E+01 -0.39498516331E+02  0.50528841035E+02  0.29999942810E+02 0.  0.
         12    1    3    3    0    0 -0.85013747654E+01  0.45564286968E+01  0.39498516331E+02  0.40659158965E+02  0.00000000000E+00 0. -1.
         11    1    4    4    0    0 -0.80052647985E+00 -0.29433916339E+00  0.14238835405E+01  0.16597960073E+01  0.51100000000E-03 0. -1.
        -11    1    4    4    0    0  0.52444695223E+00  0.86713946725E+01 -0.58559111207E+01  0.10476632354E+02  0.51100000000E-03 0.  1.
        -12    1    4    4    0    0  0.87774542930E+01 -0.12933484206E+02 -0.35066488751E+02  0.38392412673E+02  0.00000000000E+00 0.  1.
</event>
<event>
 8    1  0.4964753E-012  0.9118800E+02  0.7816164E-02  0.1184000E+00
        -11   -1    0    0    0    0  0.00000000000E+00  0.00000000000E+00  0.45593999997E+02  0.45594000000E+02  0.51100000000E-03 0. -1.
         11   -1    0    0    0    0 -0.00000000000E+00 -0.00000000000E+00 -0.45593999997E+02  0.45594000000E+02  0.51100000000E-03 0.  1.
         23    2    1    2    0    0 -0.71054273576E-14 -0.17763568394E-14 -0.35527136788E-14  0.91188000000E+02  0.91188000000E+02 0.  0.
    9900012    2    3    3    0    0 -0.27987954593E+02  0.12416501576E+02  0.26752112500E+02  0.50528798865E+02  0.29999814631E+02 0.  0.
        -12    1    3    3    0    0  0.27987954593E+02 -0.12416501576E+02 -0.26752112500E+02  0.40659201135E+02  0.00000000000E+00 0.  1.
         11    1    4    4    0    0 -0.18163430306E+02  0.95658016842E+01  0.18908603805E+02  0.27909676825E+02  0.51100000000E-03 0. -1.
        -11    1    4    4    0    0 -0.69421983391E+01  0.71031815620E+01 -0.32034582089E+01  0.10436064912E+02  0.51100000000E-03 0.  1.
         12    1    4    4    0    0 -0.28823259479E+01 -0.42524816705E+01  0.11046966904E+02  0.12183057129E+02  0.00000000000E+00 0. -1.
</event>
<event>
 8    1  0.4964753E-012  0.9118800E+02  0.7816164E-02  0.1184000E+00
        -11   -1    0    0    0    0  0.00000000000E+00  0.00000000000E+00  0.45593999997E+02  0.45594000000E+02  0.51100000000E-03 0. -1.
         11   -1    0    0    0    0 -0.00000000000E+00 -0.00000000000E+00 -0.45593999997E+02  0.45594000000E+02  0.51100000000E-03 0.  1.
         23    2    1    2    0    0 -0.17763568394E-14  0.00000000000E+00  0.00000000000E+00  0.91188000000E+02  0.91188000000E+02 0.  0.
    9900012    2    3    3    0    0 -0.12408729716E+02  0.22935831190E+02 -0.31195154258E+02  0.50528848819E+02  0.29999966472E+02 0.  0.
         12    1    3    3    0    0  0.12408729716E+02 -0.22935831190E+02  0.31195154258E+02  0.40659151181E+02  0.00000000000E+00 0. -1.
         11    1    4    4    0    0 -0.10035698621E+01 -0.41633012480E+01  0.16513657292E+01  0.45899061845E+01  0.51100000000E-03 0. -1.
        -11    1    4    4    0    0  0.20684988694E+01  0.97354118529E+01 -0.12598415382E+02  0.16055435276E+02  0.51100000000E-03 0.  1.
        -12    1    4    4    0    0 -0.13473658723E+02  0.17363720585E+02 -0.20248104606E+02  0.29883507359E+02  0.00000000000E+00 0.  1.
</event>
<event>
 8    1  0.4964753E-012  0.9118800E+02  0.7816164E-02  0.1184000E+00
        -11   -1    0    0    0    0  0.00000000000E+00  0.00000000000E+00  0.45593999997E+02  0.45594000000E+02  0.51100000000E-03 0. -1.
         11   -1    0    0    0    0 -0.00000000000E+00 -0.00000000000E+00 -0.45593999997E+02  0.45594000000E+02  0.51100000000E-03 0.  1.
         23    2    1    2    0    0  0.00000000000E+00 -0.88817841970E-15  0.00000000000E+00  0.91188000000E+02  0.91188000000E+02 0.  0.
    9900012    2    3    3    0    0  0.32743428912E+02 -0.79186221280E+01  0.22766847130E+02  0.50528855376E+02  0.29999986401E+02 0.  0.
        -12    1    3    3    0    0 -0.32743428912E+02  0.79186221280E+01 -0.22766847130E+02  0.40659144624E+02  0.00000000000E+00 0.  1.
         11    1    4    4    0    0  0.77921795914E+01  0.64197301242E+01  0.33161391124E+01  0.10626748163E+02  0.51100000000E-03 0. -1.
        -11    1    4    4    0    0  0.81871728747E+01 -0.43431909344E+01 -0.33807737247E+01  0.98652287562E+01  0.51100000000E-03 0.  1.
         12    1    4    4    0    0  0.16764076446E+02 -0.99951613178E+01  0.22831481742E+02  0.30036878456E+02  0.00000000000E+00 0. -1.
</event>
<event>
 8    1  0.4964753E-012  0.9118800E+02  0.7816164E-02  0.1184000E+00
        -11   -1    0    0    0    0  0.00000000000E+00  0.00000000000E+00  0.45593999997E+02  0.45594000000E+02  0.51100000000E-03 0. -1.
         11   -1    0    0    0    0 -0.00000000000E+00 -0.00000000000E+00 -0.45593999997E+02  0.45594000000E+02  0.51100000000E-03 0.  1.
         23    2    1    2    0    0  0.00000000000E+00  0.00000000000E+00  0.00000000000E+00  0.91188000000E+02  0.91188000000E+02 0.  0.
    9900012    2    3    3    0    0 -0.97517217498E+01 -0.17251749450E+02 -0.35502768914E+02  0.50528861584E+02  0.30000005270E+02 0.  0.
         12    1    3    3    0    0  0.97517217498E+01  0.17251749450E+02  0.35502768914E+02  0.40659138416E+02  0.00000000000E+00 0. -1.
         11    1    4    4    0    0 -0.33195343697E+01 -0.89713874605E+01  0.90468716663E+00  0.96085150012E+01  0.51100000000E-03 0. -1.
        -11    1    4    4    0    0 -0.68207040647E+01 -0.41705272935E+00 -0.48092760223E+01  0.83561398407E+01  0.51100000000E-03 0.  1.
         12    1    4    4    0    0  0.38851668459E+00 -0.78633092606E+01 -0.31598180058E+02  0.32564206742E+02  0.00000000000E+00 0. -1.
</event>
<event>
 8    1  0.4964753E-012  0.9118800E+02  0.7816164E-02  0.1184000E+00
        -11   -1    0    0    0    0  0.00000000000E+00  0.00000000000E+00  0.45593999997E+02  0.45594000000E+02  0.51100000000E-03 0. -1.
         11   -1    0    0    0    0 -0.00000000000E+00 -0.00000000000E+00 -0.45593999997E+02  0.45594000000E+02  0.51100000000E-03 0.  1.
         23    2    1    2    0    0 -0.77715611724E-15  0.00000000000E+00  0.00000000000E+00  0.91188000000E+02  0.91188000000E+02 0.  0.
    9900012    2    3    3    0    0  0.46187656180E+00 -0.29222889085E+02  0.28266150951E+02  0.50528857535E+02  0.29999992963E+02 0.  0.
        -12    1    3    3    0    0 -0.46187656180E+00  0.29222889085E+02 -0.28266150951E+02  0.40659142465E+02  0.00000000000E+00 0.  1.
         11    1    4    4    0    0  0.12302615550E+01 -0.15837567202E+02  0.10166645358E+02  0.18860083682E+02  0.51100000000E-03 0. -1.
        -11    1    4    4    0    0 -0.11336277456E+02 -0.53809657118E+01  0.69383697014E+01  0.14339001114E+02  0.51100000000E-03 0.  1.
         12    1    4    4    0    0  0.10567892463E+02 -0.80043561704E+01  0.11161135891E+02  0.17329772739E+02  0.00000000000E+00 0. -1.
</event>
<event>
 8    1  0.4964753E-012  0.9118800E+02  0.7816164E-02  0.1184000E+00
        -11   -1    0    0    0    0  0.00000000000E+00  0.00000000000E+00  0.45593999997E+02  0.45594000000E+02  0.51100000000E-03 0. -1.
         11   -1    0    0    0    0 -0.00000000000E+00 -0.00000000000E+00 -0.45593999997E+02  0.45594000000E+02  0.51100000000E-03 0.  1.
         23    2    1    2    0    0  0.00000000000E+00  0.00000000000E+00  0.00000000000E+00  0.91188000000E+02  0.91188000000E+02 0.  0.
    9900012    2    3    3    0    0 -0.25561940975E+02 -0.14598467886E+02 -0.28047055603E+02  0.50528863031E+02  0.30000009670E+02 0.  0.
         12    1    3    3    0    0  0.25561940975E+02  0.14598467886E+02  0.28047055603E+02  0.40659136969E+02  0.00000000000E+00 0. -1.
         11    1    4    4    0    0 -0.99323094715E+01 -0.52845180688E+00  0.30608033530E+00  0.99510661833E+01  0.51100000000E-03 0. -1.
        -11    1    4    4    0    0 -0.47462517167E+01  0.50917777369E+01 -0.76214798563E+01  0.10321824516E+02  0.51100000000E-03 0.  1.
        -12    1    4    4    0    0 -0.10883379787E+02 -0.19161793816E+02 -0.20731656082E+02  0.30255972332E+02  0.00000000000E+00 0.  1.
</event>
<event>
 8    1  0.4964753E-012  0.9118800E+02  0.7816164E-02  0.1184000E+00
        -11   -1    0    0    0    0  0.00000000000E+00  0.00000000000E+00  0.45593999997E+02  0.45594000000E+02  0.51100000000E-03 0. -1.
         11   -1    0    0    0    0 -0.00000000000E+00 -0.00000000000E+00 -0.45593999997E+02  0.45594000000E+02  0.51100000000E-03 0.  1.
         23    2    1    2    0    0  0.00000000000E+00 -0.88817841970E-15  0.00000000000E+00  0.91188000000E+02  0.91188000000E+02 0.  0.
    9900012    2    3    3    0    0  0.17677988980E+02  0.79904807170E+01 -0.35732434627E+02  0.50528856368E+02  0.29999989418E+02 0.  0.
         12    1    3    3    0    0 -0.17677988980E+02 -0.79904807170E+01  0.35732434627E+02  0.40659143632E+02  0.00000000000E+00 0. -1.
         11    1    4    4    0    0  0.68816614551E+01  0.65920566035E+01  0.17258187562E+01  0.96845715077E+01  0.51100000000E-03 0. -1.
        -11    1    4    4    0    0 -0.18830775763E+01 -0.18692859631E+01 -0.31279875849E+01  0.41017700768E+01  0.51100000000E-03 0.  1.
         12    1    4    4    0    0  0.12679405101E+02  0.32677100767E+01 -0.34330265798E+02  0.36742514784E+02  0.00000000000E+00 0. -1.
</event>
<event>
 8    1  0.4964753E-012  0.9118800E+02  0.7816164E-02  0.1184000E+00
        -11   -1    0    0    0    0  0.00000000000E+00  0.00000000000E+00  0.45593999997E+02  0.45594000000E+02  0.51100000000E-03 0. -1.
         11   -1    0    0    0    0 -0.00000000000E+00 -0.00000000000E+00 -0.45593999997E+02  0.45594000000E+02  0.51100000000E-03 0.  1.
         23    2    1    2    0    0 -0.35527136788E-14 -0.35527136788E-14  0.71054273576E-14  0.91188000000E+02  0.91188000000E+02 0.  0.
    9900012    2    3    3    0    0 -0.13788615886E+02 -0.17920958953E+02  0.33791708770E+02  0.50528852451E+02  0.29999977509E+02 0.  0.
        -12    1    3    3    0    0  0.13788615886E+02  0.17920958953E+02 -0.33791708770E+02  0.40659147549E+02  0.00000000000E+00 0.  1.
         11    1    4    4    0    0 -0.69701433385E+00 -0.53791462396E+01  0.23597777990E+02  0.24213140432E+02  0.51100000000E-03 0. -1.
        -11    1    4    4    0    0 -0.16206449269E+01  0.84433925131E+00 -0.35298668102E+01  0.39748407150E+01  0.51100000000E-03 0.  1.
        -12    1    4    4    0    0 -0.11470956625E+02 -0.13386151964E+02  0.13723797591E+02  0.22340871304E+02  0.00000000000E+00 0.  1.
</event>
<event>
 8    1  0.4964753E-012  0.9118800E+02  0.7816164E-02  0.1184000E+00
        -11   -1    0    0    0    0  0.00000000000E+00  0.00000000000E+00  0.45593999997E+02  0.45594000000E+02  0.51100000000E-03 0. -1.
         11   -1    0    0    0    0 -0.00000000000E+00 -0.00000000000E+00 -0.45593999997E+02  0.45594000000E+02  0.51100000000E-03 0.  1.
         23    2    1    2    0    0  0.35527136788E-14  0.00000000000E+00 -0.35527136788E-14  0.91188000000E+02  0.91188000000E+02 0.  0.
    9900012    2    3    3    0    0 -0.24474738143E+02 -0.12645782467E+02  0.29903818250E+02  0.50528843992E+02  0.29999951798E+02 0.  0.
        -12    1    3    3    0    0  0.24474738143E+02  0.12645782467E+02 -0.29903818250E+02  0.40659156008E+02  0.00000000000E+00 0.  1.
         11    1    4    4    0    0  0.23965577131E+01 -0.37196091897E+01  0.83671274921E+01  0.94650834189E+01  0.51100000000E-03 0. -1.
        -11    1    4    4    0    0 -0.14245318843E+02 -0.72477678161E+00 -0.61832714652E+00  0.14277140436E+02  0.51100000000E-03 0.  1.
         12    1    4    4    0    0 -0.12625977014E+02 -0.82013964958E+01  0.22155017904E+02  0.26786620137E+02  0.00000000000E+00 0. -1.
</event>
<event>
 8    1  0.4964753E-012  0.9118800E+02  0.7816164E-02  0.1184000E+00
        -11   -1    0    0    0    0  0.00000000000E+00  0.00000000000E+00  0.45593999997E+02  0.45594000000E+02  0.51100000000E-03 0. -1.
         11   -1    0    0    0    0 -0.00000000000E+00 -0.00000000000E+00 -0.45593999997E+02  0.45594000000E+02  0.51100000000E-03 0.  1.
         23    2    1    2    0    0  0.00000000000E+00 -0.17763568394E-14 -0.35527136788E-14  0.91188000000E+02  0.91188000000E+02 0.  0.
    9900012    2    3    3    0    0 -0.31274026478E+02  0.95725760719E+01  0.24155062187E+02  0.50528856206E+02  0.29999988923E+02 0.  0.
        -12    1    3    3    0    0  0.31274026478E+02 -0.95725760719E+01 -0.24155062187E+02  0.40659143794E+02  0.00000000000E+00 0.  1.
         11    1    4    4    0    0 -0.74865311076E+01  0.89617222714E+01  0.11208799661E+02  0.16186346227E+02  0.51100000000E-03 0. -1.
        -11    1    4    4    0    0  0.58032730235E+00 -0.38910165993E+01  0.82238088895E+01  0.91163492071E+01  0.51100000000E-03 0.  1.
         12    1    4    4    0    0 -0.24367822673E+02  0.45018703998E+01  0.47224536370E+01  0.25226160771E+02  0.00000000000E+00 0. -1.
</event>
<event>
 8    1  0.4964753E-012  0.9118800E+02  0.7816164E-02  0.1184000E+00
        -11   -1    0    0    0    0  0.00000000000E+00  0.00000000000E+00  0.45593999997E+02  0.45594000000E+02  0.51100000000E-03 0. -1.
         11   -1    0    0    0    0 -0.00000000000E+00 -0.00000000000E+00 -0.45593999997E+02  0.45594000000E+02  0.51100000000E-03 0.  1.
         23    2    1    2    0    0 -0.35527136788E-14  0.00000000000E+00  0.10658141036E-13  0.91188000000E+02  0.91188000000E+02 0.  0.
    9900012    2    3    3    0    0 -0.31665874458E+02  0.29069889953E+01  0.25337466217E+02  0.50528863456E+02  0.30000010961E+02 0.  0.
        -12    1    3    3    0    0  0.31665874458E+02 -0.29069889953E+01 -0.25337466217E+02  0.40659136544E+02  0.00000000000E+00 0.  1.
         11    1    4    4    0    0 -0.12372692385E+02 -0.81257485762E+01  0.20458105687E+02  0.25251641438E+02  0.51100000000E-03 0. -1.
        -11    1    4    4    0    0 -0.49267245745E+01  0.16667964573E+01  0.61809937488E+01  0.80780882297E+01  0.51100000000E-03 0.  1.
        -12    1    4    4    0    0 -0.14366457499E+02  0.93659411142E+01 -0.13016332187E+01  0.17199133788E+02  0.00000000000E+00 0.  1.
</event>
<event>
 8    1  0.4964753E-012  0.9118800E+02  0.7816164E-02  0.1184000E+00
        -11   -1    0    0    0    0  0.00000000000E+00  0.00000000000E+00  0.45593999997E+02  0.45594000000E+02  0.51100000000E-03 0. -1.
         11   -1    0    0    0    0 -0.00000000000E+00 -0.00000000000E+00 -0.45593999997E+02  0.45594000000E+02  0.51100000000E-03 0.  1.
         23    2    1    2    0    0  0.00000000000E+00  0.00000000000E+00  0.71054273576E-14  0.91188000000E+02  0.91188000000E+02 0.  0.
    9900012    2    3    3    0    0  0.12755477228E+02 -0.11175370745E+02  0.36953695379E+02  0.50528847121E+02  0.29999961310E+02 0.  0.
        -12    1    3    3    0    0 -0.12755477228E+02  0.11175370745E+02 -0.36953695379E+02  0.40659152879E+02  0.00000000000E+00 0.  1.
         11    1    4    4    0    0  0.23132987052E+01  0.35863717204E+01  0.62373122487E+01  0.75576105592E+01  0.51100000000E-03 0. -1.
        -11    1    4    4    0    0  0.14877682845E+02 -0.70122215194E+01  0.29745028482E+02  0.33989460383E+02  0.51100000000E-03 0.  1.
        -12    1    4    4    0    0 -0.44355043217E+01 -0.77495209462E+01  0.97135464857E+00  0.89817761794E+01  0.00000000000E+00 0.  1.
</event>
<event>
 8    1  0.4964753E-012  0.9118800E+02  0.7816164E-02  0.1184000E+00
        -11   -1    0    0    0    0  0.00000000000E+00  0.00000000000E+00  0.45593999997E+02  0.45594000000E+02  0.51100000000E-03 0. -1.
         11   -1    0    0    0    0 -0.00000000000E+00 -0.00000000000E+00 -0.45593999997E+02  0.45594000000E+02  0.51100000000E-03 0.  1.
         23    2    1    2    0    0  0.35527136788E-14  0.35527136788E-14  0.00000000000E+00  0.91188000000E+02  0.91188000000E+02 0.  0.
    9900012    2    3    3    0    0 -0.17130852666E+02  0.24641251307E+02 -0.27431887645E+02  0.50528857869E+02  0.29999993979E+02 0.  0.
         12    1    3    3    0    0  0.17130852666E+02 -0.24641251307E+02  0.27431887645E+02  0.40659142131E+02  0.00000000000E+00 0. -1.
         11    1    4    4    0    0  0.75193953647E+00  0.97450678251E+01 -0.27656339645E+01  0.10157779849E+02  0.51100000000E-03 0. -1.
        -11    1    4    4    0    0  0.19845027370E+01 -0.19069171276E+01 -0.10272948443E+02  0.10635227032E+02  0.51100000000E-03 0.  1.
        -12    1    4    4    0    0 -0.19867294939E+02  0.16803100610E+02 -0.14393305238E+02  0.29735850988E+02  0.00000000000E+00 0.  1.
</event>
<event>
 8    1  0.4964753E-012  0.9118800E+02  0.7816164E-02  0.1184000E+00
        -11   -1    0    0    0    0  0.00000000000E+00  0.00000000000E+00  0.45593999997E+02  0.45594000000E+02  0.51100000000E-03 0. -1.
         11   -1    0    0    0    0 -0.00000000000E+00 -0.00000000000E+00 -0.45593999997E+02  0.45594000000E+02  0.51100000000E-03 0.  1.
         23    2    1    2    0    0  0.00000000000E+00 -0.26645352591E-14  0.00000000000E+00  0.91188000000E+02  0.91188000000E+02 0.  0.
    9900012    2    3    3    0    0 -0.17928237137E+02  0.71599108699E+01 -0.35783787090E+02  0.50528862909E+02  0.30000009297E+02 0.  0.
         12    1    3    3    0    0  0.17928237137E+02 -0.71599108699E+01  0.35783787090E+02  0.40659137091E+02  0.00000000000E+00 0. -1.
         11    1    4    4    0    0  0.55899431493E+00 -0.45754374670E+00  0.17592709096E+01  0.19018031756E+01  0.51100000000E-03 0. -1.
        -11    1    4    4    0    0 -0.15140733762E+02  0.10006678105E+02 -0.98871579763E+01  0.20667155553E+02  0.51100000000E-03 0.  1.
        -12    1    4    4    0    0 -0.33464976904E+01 -0.23892234882E+01 -0.27655900023E+02  0.27959904180E+02  0.00000000000E+00 0.  1.
</event>
<event>
 8    1  0.4964753E-012  0.9118800E+02  0.7816164E-02  0.1184000E+00
        -11   -1    0    0    0    0  0.00000000000E+00  0.00000000000E+00  0.45593999997E+02  0.45594000000E+02  0.51100000000E-03 0. -1.
         11   -1    0    0    0    0 -0.00000000000E+00 -0.00000000000E+00 -0.45593999997E+02  0.45594000000E+02  0.51100000000E-03 0.  1.
         23    2    1    2    0    0 -0.13322676296E-14  0.00000000000E+00  0.00000000000E+00  0.91188000000E+02  0.91188000000E+02 0.  0.
    9900012    2    3    3    0    0  0.22047978147E+01  0.22814311969E+02  0.33582883003E+02  0.50528880545E+02  0.30000062906E+02 0.  0.
        -12    1    3    3    0    0 -0.22047978147E+01 -0.22814311969E+02 -0.33582883003E+02  0.40659119455E+02  0.00000000000E+00 0.  1.
         11    1    4    4    0    0 -0.70402190778E+01  0.89798029747E+01  0.67012438762E+01  0.13232846099E+02  0.51100000000E-03 0. -1.
        -11    1    4    4    0    0 -0.47512362173E-01 -0.33402481253E+01  0.12779291363E+02  0.13208701789E+02  0.51100000000E-03 0.  1.
        -12    1    4    4    0    0  0.92925292547E+01  0.17174757120E+02  0.14102347764E+02  0.24087332657E+02  0.00000000000E+00 0.  1.
</event>
<event>
 8    1  0.4964753E-012  0.9118800E+02  0.7816164E-02  0.1184000E+00
        -11   -1    0    0    0    0  0.00000000000E+00  0.00000000000E+00  0.45593999997E+02  0.45594000000E+02  0.51100000000E-03 0.  1.
         11   -1    0    0    0    0 -0.00000000000E+00 -0.00000000000E+00 -0.45593999997E+02  0.45594000000E+02  0.51100000000E-03 0. -1.
         23    2    1    2    0    0  0.00000000000E+00  0.00000000000E+00 -0.35527136788E-14  0.91188000000E+02  0.91188000000E+02 0.  0.
    9900012    2    3    3    0    0  0.53336354938E+01 -0.34344370839E+02 -0.21099344694E+02  0.50528858071E+02  0.29999994592E+02 0.  0.
         12    1    3    3    0    0 -0.53336354938E+01  0.34344370839E+02  0.21099344694E+02  0.40659141929E+02  0.00000000000E+00 0. -1.
         11    1    4    4    0    0  0.28524598848E+01 -0.60762789009E+01  0.22207519316E+01  0.70703205075E+01  0.51100000000E-03 0. -1.
        -11    1    4    4    0    0 -0.74694957580E+01 -0.16666385077E+01 -0.19012633261E+01  0.78858007387E+01  0.51100000000E-03 0.  1.
        -12    1    4    4    0    0  0.99506713670E+01 -0.26601453430E+02 -0.21418833300E+02  0.35572736825E+02  0.00000000000E+00 0.  1.
</event>
<event>
 8    1  0.4964753E-012  0.9118800E+02  0.7816164E-02  0.1184000E+00
        -11   -1    0    0    0    0  0.00000000000E+00  0.00000000000E+00  0.45593999997E+02  0.45594000000E+02  0.51100000000E-03 0. -1.
         11   -1    0    0    0    0 -0.00000000000E+00 -0.00000000000E+00 -0.45593999997E+02  0.45594000000E+02  0.51100000000E-03 0.  1.
         23    2    1    2    0    0  0.00000000000E+00  0.00000000000E+00  0.00000000000E+00  0.91188000000E+02  0.91188000000E+02 0.  0.
    9900012    2    3    3    0    0  0.63898794463E+01 -0.21884125030E+02  0.33666290450E+02  0.50528873099E+02  0.30000040272E+02 0.  0.
        -12    1    3    3    0    0 -0.63898794463E+01  0.21884125030E+02 -0.33666290450E+02  0.40659126901E+02  0.00000000000E+00 0.  1.
         11    1    4    4    0    0  0.82527161435E+01 -0.79658244155E+01  0.60372554447E+01  0.12961872393E+02  0.51100000000E-03 0. -1.
        -11    1    4    4    0    0 -0.17879604265E+01  0.43921348979E+01  0.13884000325E+02  0.14671506968E+02  0.51100000000E-03 0.  1.
         12    1    4    4    0    0 -0.74876270680E-01 -0.18310435512E+02  0.13745034681E+02  0.22895493738E+02  0.00000000000E+00 0. -1.
</event>
<event>
 8    1  0.4964753E-012  0.9118800E+02  0.7816164E-02  0.1184000E+00
        -11   -1    0    0    0    0  0.00000000000E+00  0.00000000000E+00  0.45593999997E+02  0.45594000000E+02  0.51100000000E-03 0. -1.
         11   -1    0    0    0    0 -0.00000000000E+00 -0.00000000000E+00 -0.45593999997E+02  0.45594000000E+02  0.51100000000E-03 0.  1.
         23    2    1    2    0    0  0.00000000000E+00 -0.71054273576E-14 -0.35527136788E-14  0.91188000000E+02  0.91188000000E+02 0.  0.
    9900012    2    3    3    0    0 -0.77832256333E+01 -0.36405546729E+02 -0.16346987966E+02  0.50528850360E+02  0.29999971153E+02 0.  0.
         12    1    3    3    0    0  0.77832256333E+01  0.36405546729E+02  0.16346987966E+02  0.40659149640E+02  0.00000000000E+00 0. -1.
         11    1    4    4    0    0  0.15343463907E+01 -0.17732153993E+02  0.38576045641E+01  0.18211661575E+02  0.51100000000E-03 0. -1.
        -11    1    4    4    0    0  0.25462292464E+01 -0.91695823212E+01 -0.11005287169E+02  0.14549256657E+02  0.51100000000E-03 0.  1.
        -12    1    4    4    0    0 -0.11863801270E+02 -0.95038104150E+01 -0.91993053605E+01  0.17767932128E+02  0.00000000000E+00 0.  1.
</event>
<event>
 8    1  0.4964753E-012  0.9118800E+02  0.7816164E-02  0.1184000E+00
        -11   -1    0    0    0    0  0.00000000000E+00  0.00000000000E+00  0.45593999997E+02  0.45594000000E+02  0.51100000000E-03 0. -1.
         11   -1    0    0    0    0 -0.00000000000E+00 -0.00000000000E+00 -0.45593999997E+02  0.45594000000E+02  0.51100000000E-03 0.  1.
         23    2    1    2    0    0 -0.17763568394E-14  0.00000000000E+00  0.00000000000E+00  0.91188000000E+02  0.91188000000E+02 0.  0.
    9900012    2    3    3    0    0 -0.10534920881E+02 -0.26442733973E+02 -0.29033821820E+02  0.50528861453E+02  0.30000004872E+02 0.  0.
         12    1    3    3    0    0  0.10534920881E+02  0.26442733973E+02  0.29033821820E+02  0.40659138547E+02  0.00000000000E+00 0. -1.
         11    1    4    4    0    0  0.90172320967E+00  0.26811094180E+01  0.12526894123E+01  0.30936521270E+01  0.51100000000E-03 0. -1.
        -11    1    4    4    0    0 -0.54807180188E+01  0.11853372269E+01 -0.50920199542E+01  0.75744281512E+01  0.51100000000E-03 0.  1.
        -12    1    4    4    0    0 -0.59559260724E+01 -0.30309180617E+02 -0.25194491278E+02  0.39860781175E+02  0.00000000000E+00 0.  1.
</event>
<event>
 8    1  0.5456721E-012  0.9118800E+02  0.7816164E-02  0.1184000E+00
        -11   -1    0    0    0    0  0.00000000000E+00  0.00000000000E+00  0.45593999997E+02  0.45594000000E+02  0.51100000000E-03 0. -1.
         11   -1    0    0    0    0 -0.00000000000E+00 -0.00000000000E+00 -0.45593999997E+02  0.45594000000E+02  0.51100000000E-03 0.  1.
         23    2    1    2    0    0  0.00000000000E+00  0.00000000000E+00  0.00000000000E+00  0.91188000000E+02  0.91188000000E+02 0.  0.
    9900012    2    3    3    0    0  0.33618810290E+02  0.14346817246E+02 -0.17807561538E+02  0.50528870418E+02  0.30000032124E+02 0.  0.
         12    1    3    3    0    0 -0.33618810290E+02 -0.14346817246E+02  0.17807561538E+02  0.40659129582E+02  0.00000000000E+00 0. -1.
         11    1    4    4    0    0 -0.17351162157E+01 -0.20670308562E+01 -0.41231443089E+01  0.49278356400E+01  0.51100000000E-03 0.  1.
        -11    1    4    4    0    0  0.29039323982E+02  0.16017491909E+02 -0.18198342398E+02  0.37828852093E+02  0.51100000000E-03 0. -1.
         12    1    4    4    0    0  0.63146025237E+01  0.39635619350E+00  0.45139251691E+01  0.77721826855E+01  0.00000000000E+00 0. -1.
</event>
<event>
 8    1  0.4964753E-012  0.9118800E+02  0.7816164E-02  0.1184000E+00
        -11   -1    0    0    0    0  0.00000000000E+00  0.00000000000E+00  0.45593999997E+02  0.45594000000E+02  0.51100000000E-03 0. -1.
         11   -1    0    0    0    0 -0.00000000000E+00 -0.00000000000E+00 -0.45593999997E+02  0.45594000000E+02  0.51100000000E-03 0.  1.
         23    2    1    2    0    0  0.35527136788E-14 -0.88817841970E-15  0.00000000000E+00  0.91188000000E+02  0.91188000000E+02 0.  0.
    9900012    2    3    3    0    0  0.17057414229E+02 -0.32845598258E+01 -0.36761694787E+02  0.50528856907E+02  0.29999991056E+02 0.  0.
         12    1    3    3    0    0 -0.17057414229E+02  0.32845598258E+01  0.36761694787E+02  0.40659143093E+02  0.00000000000E+00 0. -1.
         11    1    4    4    0    0  0.12813768112E+02 -0.12255878024E+02 -0.12195435956E+02  0.21520405614E+02  0.51100000000E-03 0. -1.
        -11    1    4    4    0    0 -0.62532308667E-01 -0.23211202561E+01 -0.90370255886E+01  0.93305595375E+01  0.51100000000E-03 0.  1.
         12    1    4    4    0    0  0.43061784255E+01  0.11292438454E+02 -0.15529233242E+02  0.19677891756E+02  0.00000000000E+00 0. -1.
</event>
<event>
 8    1  0.4964753E-012  0.9118800E+02  0.7816164E-02  0.1184000E+00
        -11   -1    0    0    0    0  0.00000000000E+00  0.00000000000E+00  0.45593999997E+02  0.45594000000E+02  0.51100000000E-03 0. -1.
         11   -1    0    0    0    0 -0.00000000000E+00 -0.00000000000E+00 -0.45593999997E+02  0.45594000000E+02  0.51100000000E-03 0.  1.
         23    2    1    2    0    0  0.00000000000E+00  0.00000000000E+00 -0.71054273576E-14  0.91188000000E+02  0.91188000000E+02 0.  0.
    9900012    2    3    3    0    0 -0.60987597712E+00  0.19292089172E+02  0.35785601319E+02  0.50528856931E+02  0.29999991129E+02 0.  0.
        -12    1    3    3    0    0  0.60987597712E+00 -0.19292089172E+02 -0.35785601319E+02  0.40659143069E+02  0.00000000000E+00 0.  1.
         11    1    4    4    0    0 -0.76681565577E+00  0.53655112025E+01 -0.88562667399E-01  0.54207527449E+01  0.51100000000E-03 0. -1.
        -11    1    4    4    0    0 -0.58211934427E+00 -0.28457889655E+01 -0.21026374474E+01  0.35858698057E+01  0.51100000000E-03 0.  1.
         12    1    4    4    0    0  0.73905902292E+00  0.16772366935E+02  0.37976801434E+02  0.41522234381E+02  0.00000000000E+00 0. -1.
</event>
<event>
 8    1  0.4964753E-012  0.9118800E+02  0.7816164E-02  0.1184000E+00
        -11   -1    0    0    0    0  0.00000000000E+00  0.00000000000E+00  0.45593999997E+02  0.45594000000E+02  0.51100000000E-03 0. -1.
         11   -1    0    0    0    0 -0.00000000000E+00 -0.00000000000E+00 -0.45593999997E+02  0.45594000000E+02  0.51100000000E-03 0.  1.
         23    2    1    2    0    0 -0.17763568394E-14  0.35527136788E-14  0.00000000000E+00  0.91188000000E+02  0.91188000000E+02 0.  0.
    9900012    2    3    3    0    0 -0.11116643158E+02 -0.21010411113E+02  0.32987105426E+02  0.50528852756E+02  0.29999978436E+02 0.  0.
        -12    1    3    3    0    0  0.11116643158E+02  0.21010411113E+02 -0.32987105426E+02  0.40659147244E+02  0.00000000000E+00 0.  1.
         11    1    4    4    0    0 -0.85996568591E+01 -0.50681010128E+01  0.18278016663E+02  0.20826080749E+02  0.51100000000E-03 0. -1.
        -11    1    4    4    0    0 -0.53241257007E+01 -0.19908968657E+02  0.98895393728E+01  0.22858616247E+02  0.51100000000E-03 0.  1.
         12    1    4    4    0    0  0.28071394015E+01  0.39666585575E+01  0.48195493909E+01  0.68441557597E+01  0.00000000000E+00 0. -1.
</event>
<event>
 8    1  0.4964753E-012  0.9118800E+02  0.7816164E-02  0.1184000E+00
        -11   -1    0    0    0    0  0.00000000000E+00  0.00000000000E+00  0.45593999997E+02  0.45594000000E+02  0.51100000000E-03 0. -1.
         11   -1    0    0    0    0 -0.00000000000E+00 -0.00000000000E+00 -0.45593999997E+02  0.45594000000E+02  0.51100000000E-03 0.  1.
         23    2    1    2    0    0  0.17763568394E-14  0.17763568394E-14  0.00000000000E+00  0.91188000000E+02  0.91188000000E+02 0.  0.
    9900012    2    3    3    0    0 -0.13725257954E+02 -0.13203208756E+02 -0.35922949199E+02  0.50528859496E+02  0.29999998925E+02 0.  0.
         12    1    3    3    0    0  0.13725257954E+02  0.13203208756E+02  0.35922949199E+02  0.40659140504E+02  0.00000000000E+00 0. -1.
         11    1    4    4    0    0 -0.27242797534E+01  0.12807568543E+01 -0.19516560760E-01  0.30103852664E+01  0.51100000000E-03 0. -1.
        -11    1    4    4    0    0 -0.14228910360E+02 -0.52276049228E+01 -0.34411681357E+02  0.37602573812E+02  0.51100000000E-03 0.  1.
        -12    1    4    4    0    0  0.32279321595E+01 -0.92563606877E+01 -0.14917512811E+01  0.99159004176E+01  0.00000000000E+00 0.  1.
</event>
<event>
 8    1  0.4964753E-012  0.9118800E+02  0.7816164E-02  0.1184000E+00
        -11   -1    0    0    0    0  0.00000000000E+00  0.00000000000E+00  0.45593999997E+02  0.45594000000E+02  0.51100000000E-03 0. -1.
         11   -1    0    0    0    0 -0.00000000000E+00 -0.00000000000E+00 -0.45593999997E+02  0.45594000000E+02  0.51100000000E-03 0.  1.
         23    2    1    2    0    0  0.00000000000E+00  0.88817841970E-15  0.00000000000E+00  0.91188000000E+02  0.91188000000E+02 0.  0.
    9900012    2    3    3    0    0 -0.32433734321E+02  0.53474214149E+01  0.23929562274E+02  0.50528856029E+02  0.29999988385E+02 0.  0.
        -12    1    3    3    0    0  0.32433734321E+02 -0.53474214149E+01 -0.23929562274E+02  0.40659143971E+02  0.00000000000E+00 0.  1.
         11    1    4    4    0    0 -0.20772525026E+02  0.58936821073E+01  0.56662625852E+01  0.22323526081E+02  0.51100000000E-03 0. -1.
        -11    1    4    4    0    0 -0.11194459056E+02 -0.73429476278E+01  0.71696057758E+01  0.15186771897E+02  0.51100000000E-03 0.  1.
         12    1    4    4    0    0 -0.46675024015E+00  0.67966869354E+01  0.11093693913E+02  0.13018558051E+02  0.00000000000E+00 0. -1.
</event>
<event>
 8    1  0.4964753E-012  0.9118800E+02  0.7816164E-02  0.1184000E+00
        -11   -1    0    0    0    0  0.00000000000E+00  0.00000000000E+00  0.45593999997E+02  0.45594000000E+02  0.51100000000E-03 0. -1.
         11   -1    0    0    0    0 -0.00000000000E+00 -0.00000000000E+00 -0.45593999997E+02  0.45594000000E+02  0.51100000000E-03 0.  1.
         23    2    1    2    0    0  0.00000000000E+00  0.00000000000E+00  0.00000000000E+00  0.91188000000E+02  0.91188000000E+02 0.  0.
    9900012    2    3    3    0    0 -0.24069597609E+02 -0.17129413627E+02 -0.27935698816E+02  0.50528860700E+02  0.30000002583E+02 0.  0.
         12    1    3    3    0    0  0.24069597609E+02  0.17129413627E+02  0.27935698816E+02  0.40659139300E+02  0.00000000000E+00 0. -1.
         11    1    4    4    0    0 -0.63933038122E+01  0.51592732945E+01 -0.38393599262E+01  0.90682478720E+01  0.51100000000E-03 0. -1.
        -11    1    4    4    0    0 -0.43703653446E+01 -0.13176285788E+02 -0.18814089674E+01  0.14009079212E+02  0.51100000000E-03 0.  1.
         12    1    4    4    0    0 -0.13305928453E+02 -0.91124011341E+01 -0.22214929922E+02  0.27451533616E+02  0.00000000000E+00 0. -1.
</event>
<event>
 8    1  0.4964753E-012  0.9118800E+02  0.7816164E-02  0.1184000E+00
        -11   -1    0    0    0    0  0.00000000000E+00  0.00000000000E+00  0.45593999997E+02  0.45594000000E+02  0.51100000000E-03 0. -1.
         11   -1    0    0    0    0 -0.00000000000E+00 -0.00000000000E+00 -0.45593999997E+02  0.45594000000E+02  0.51100000000E-03 0.  1.
         23    2    1    2    0    0 -0.35527136788E-14 -0.88817841970E-15  0.00000000000E+00  0.91188000000E+02  0.91188000000E+02 0.  0.
    9900012    2    3    3    0    0 -0.16583122741E+02 -0.74007856646E+01 -0.36378480881E+02  0.50528862533E+02  0.30000008156E+02 0.  0.
         12    1    3    3    0    0  0.16583122741E+02  0.74007856646E+01  0.36378480881E+02  0.40659137467E+02  0.00000000000E+00 0. -1.
         11    1    4    4    0    0 -0.10833592415E+02 -0.96923745398E+01 -0.92164867910E+01  0.17211986459E+02  0.51100000000E-03 0. -1.
        -11    1    4    4    0    0  0.25605527899E+01 -0.62136696278E+01 -0.58409216205E+01  0.89040713424E+01  0.51100000000E-03 0.  1.
         12    1    4    4    0    0 -0.83100831168E+01  0.85052585030E+01 -0.21321072470E+02  0.24412804732E+02  0.00000000000E+00 0. -1.
</event>
<event>
 8    1  0.4964753E-012  0.9118800E+02  0.7816164E-02  0.1184000E+00
        -11   -1    0    0    0    0  0.00000000000E+00  0.00000000000E+00  0.45593999997E+02  0.45594000000E+02  0.51100000000E-03 0.  1.
         11   -1    0    0    0    0 -0.00000000000E+00 -0.00000000000E+00 -0.45593999997E+02  0.45594000000E+02  0.51100000000E-03 0. -1.
         23    2    1    2    0    0  0.00000000000E+00  0.00000000000E+00  0.17763568394E-14  0.91188000000E+02  0.91188000000E+02 0.  0.
    9900012    2    3    3    0    0 -0.31012310254E+02 -0.21062134193E+02  0.15741299117E+02  0.50528863487E+02  0.30000011056E+02 0.  0.
        -12    1    3    3    0    0  0.31012310254E+02  0.21062134193E+02 -0.15741299117E+02  0.40659136513E+02  0.00000000000E+00 0.  1.
         11    1    4    4    0    0  0.28477724860E+00 -0.12832262976E+02  0.41846198020E+01  0.13500337563E+02  0.51100000000E-03 0. -1.
        -11    1    4    4    0    0 -0.27971299962E+01  0.22019418260E+01  0.47319929498E+01  0.59215066967E+01  0.51100000000E-03 0.  1.
         12    1    4    4    0    0 -0.28499957507E+02 -0.10431813042E+02  0.68246863650E+01  0.31107019227E+02  0.00000000000E+00 0. -1.
</event>
<event>
 8    1  0.4964753E-012  0.9118800E+02  0.7816164E-02  0.1184000E+00
        -11   -1    0    0    0    0  0.00000000000E+00  0.00000000000E+00  0.45593999997E+02  0.45594000000E+02  0.51100000000E-03 0. -1.
         11   -1    0    0    0    0 -0.00000000000E+00 -0.00000000000E+00 -0.45593999997E+02  0.45594000000E+02  0.51100000000E-03 0.  1.
         23    2    1    2    0    0  0.00000000000E+00  0.00000000000E+00  0.00000000000E+00  0.91188000000E+02  0.91188000000E+02 0.  0.
    9900012    2    3    3    0    0  0.22635908865E+02 -0.87593552728E+01  0.32619850584E+02  0.50528864162E+02  0.30000013108E+02 0.  0.
        -12    1    3    3    0    0 -0.22635908865E+02  0.87593552728E+01 -0.32619850584E+02  0.40659135838E+02  0.00000000000E+00 0.  1.
         11    1    4    4    0    0  0.19240080073E+01  0.43531187679E+00  0.10867906315E+02  0.11045482841E+02  0.51100000000E-03 0. -1.
        -11    1    4    4    0    0 -0.23564771584E+01 -0.95074357413E+01  0.52032415484E+01  0.11091349866E+02  0.51100000000E-03 0.  1.
        -12    1    4    4    0    0  0.23068378016E+02  0.31276859164E+00  0.16548702721E+02  0.28392031456E+02  0.00000000000E+00 0.  1.
</event>
<event>
 8    1  0.4964753E-012  0.9118800E+02  0.7816164E-02  0.1184000E+00
        -11   -1    0    0    0    0  0.00000000000E+00  0.00000000000E+00  0.45593999997E+02  0.45594000000E+02  0.51100000000E-03 0. -1.
         11   -1    0    0    0    0 -0.00000000000E+00 -0.00000000000E+00 -0.45593999997E+02  0.45594000000E+02  0.51100000000E-03 0.  1.
         23    2    1    2    0    0 -0.71054273576E-14 -0.35527136788E-14  0.00000000000E+00  0.91188000000E+02  0.91188000000E+02 0.  0.
    9900012    2    3    3    0    0  0.32051686507E+02  0.17285155035E+02 -0.18085298212E+02  0.50528865676E+02  0.30000017709E+02 0.  0.
         12    1    3    3    0    0 -0.32051686507E+02 -0.17285155035E+02  0.18085298212E+02  0.40659134324E+02  0.00000000000E+00 0. -1.
         11    1    4    4    0    0 -0.16120425021E+01  0.36335097396E+01 -0.22676668838E+01  0.45763945868E+01  0.51100000000E-03 0. -1.
        -11    1    4    4    0    0  0.39819748535E+01 -0.48075595584E+01  0.22120859839E+01  0.66228451063E+01  0.51100000000E-03 0.  1.
        -12    1    4    4    0    0  0.29681754156E+02  0.18459204853E+02 -0.18029717313E+02  0.39329625983E+02  0.00000000000E+00 0.  1.
</event>
<event>
 8    1  0.4964753E-012  0.9118800E+02  0.7816164E-02  0.1184000E+00
        -11   -1    0    0    0    0  0.00000000000E+00  0.00000000000E+00  0.45593999997E+02  0.45594000000E+02  0.51100000000E-03 0. -1.
         11   -1    0    0    0    0 -0.00000000000E+00 -0.00000000000E+00 -0.45593999997E+02  0.45594000000E+02  0.51100000000E-03 0.  1.
         23    2    1    2    0    0  0.00000000000E+00  0.00000000000E+00  0.00000000000E+00  0.91188000000E+02  0.91188000000E+02 0.  0.
    9900012    2    3    3    0    0  0.26353707758E+02 -0.27102346812E+02 -0.14970302209E+02  0.50528867403E+02  0.30000022959E+02 0.  0.
         12    1    3    3    0    0 -0.26353707758E+02  0.27102346812E+02  0.14970302209E+02  0.40659132597E+02  0.00000000000E+00 0. -1.
         11    1    4    4    0    0  0.27054026039E+01  0.25661194532E+01  0.34906892362E+01  0.51077474391E+01  0.51100000000E-03 0. -1.
        -11    1    4    4    0    0  0.61758411477E+01 -0.10463102572E+02  0.20643851529E+01  0.12323928580E+02  0.51100000000E-03 0.  1.
        -12    1    4    4    0    0  0.17472464006E+02 -0.19205363693E+02 -0.20525376598E+02  0.33097191384E+02  0.00000000000E+00 0.  1.
</event>
<event>
 8    1  0.4964753E-012  0.9118800E+02  0.7816164E-02  0.1184000E+00
        -11   -1    0    0    0    0  0.00000000000E+00  0.00000000000E+00  0.45593999997E+02  0.45594000000E+02  0.51100000000E-03 0. -1.
         11   -1    0    0    0    0 -0.00000000000E+00 -0.00000000000E+00 -0.45593999997E+02  0.45594000000E+02  0.51100000000E-03 0.  1.
         23    2    1    2    0    0  0.35527136788E-14  0.00000000000E+00  0.35527136788E-14  0.91188000000E+02  0.91188000000E+02 0.  0.
    9900012    2    3    3    0    0 -0.82309472588E+01  0.33094096164E+02 -0.22140478836E+02  0.50528825184E+02  0.29999894629E+02 0.  0.
         12    1    3    3    0    0  0.82309472588E+01 -0.33094096164E+02  0.22140478836E+02  0.40659174816E+02  0.00000000000E+00 0. -1.
         11    1    4    4    0    0 -0.11374780831E+02  0.28426513092E+02 -0.16172268992E+02  0.34626500981E+02  0.51100000000E-03 0.  1.
        -11    1    4    4    0    0 -0.44684680713E+01  0.13549290750E+01  0.13230487499E+01  0.48531946137E+01  0.51100000000E-03 0. -1.
         12    1    4    4    0    0  0.76123016436E+01  0.33126539964E+01 -0.72912585933E+01  0.11049129590E+02  0.00000000000E+00 0. -1.
</event>
<event>
 8    1  0.4964753E-012  0.9118800E+02  0.7816164E-02  0.1184000E+00
        -11   -1    0    0    0    0  0.00000000000E+00  0.00000000000E+00  0.45593999997E+02  0.45594000000E+02  0.51100000000E-03 0.  1.
         11   -1    0    0    0    0 -0.00000000000E+00 -0.00000000000E+00 -0.45593999997E+02  0.45594000000E+02  0.51100000000E-03 0. -1.
         23    2    1    2    0    0  0.00000000000E+00 -0.35527136788E-14  0.00000000000E+00  0.91188000000E+02  0.91188000000E+02 0.  0.
    9900012    2    3    3    0    0  0.32250687773E+02  0.23569723618E+02  0.75847196297E+01  0.50528847216E+02  0.29999961597E+02 0.  0.
        -12    1    3    3    0    0 -0.32250687773E+02 -0.23569723618E+02 -0.75847196297E+01  0.40659152784E+02  0.00000000000E+00 0.  1.
         11    1    4    4    0    0  0.23167867285E+02  0.15454130114E+02  0.15003448692E+01  0.27889626155E+02  0.51100000000E-03 0. -1.
        -11    1    4    4    0    0  0.10844703422E+02  0.11916977892E+02  0.80493445846E+01  0.18011493633E+02  0.51100000000E-03 0.  1.
         12    1    4    4    0    0 -0.17618829344E+01 -0.38013843871E+01 -0.19649698241E+01  0.46277274275E+01  0.00000000000E+00 0. -1.
</event>
<event>
 8    1  0.4964753E-012  0.9118800E+02  0.7816164E-02  0.1184000E+00
        -11   -1    0    0    0    0  0.00000000000E+00  0.00000000000E+00  0.45593999997E+02  0.45594000000E+02  0.51100000000E-03 0. -1.
         11   -1    0    0    0    0 -0.00000000000E+00 -0.00000000000E+00 -0.45593999997E+02  0.45594000000E+02  0.51100000000E-03 0.  1.
         23    2    1    2    0    0  0.71054273576E-14  0.35527136788E-14 -0.35527136788E-14  0.91188000000E+02  0.91188000000E+02 0.  0.
    9900012    2    3    3    0    0  0.26474340193E+02  0.20368187715E+02 -0.23182204417E+02  0.50528826852E+02  0.29999899699E+02 0.  0.
         12    1    3    3    0    0 -0.26474340193E+02 -0.20368187715E+02  0.23182204417E+02  0.40659173148E+02  0.00000000000E+00 0. -1.
         11    1    4    4    0    0 -0.96259581484E-01  0.14709798484E+01 -0.66860664272E+01  0.68466438605E+01  0.51100000000E-03 0. -1.
        -11    1    4    4    0    0 -0.42622880862E+00 -0.37328203601E+00  0.44284838791E+01  0.44645806302E+01  0.51100000000E-03 0.  1.
        -12    1    4    4    0    0  0.26996828583E+02  0.19270489902E+02 -0.20924621869E+02  0.39217602361E+02  0.00000000000E+00 0.  1.
</event>
<event>
 8    1  0.4964753E-012  0.9118800E+02  0.7816164E-02  0.1184000E+00
        -11   -1    0    0    0    0  0.00000000000E+00  0.00000000000E+00  0.45593999997E+02  0.45594000000E+02  0.51100000000E-03 0. -1.
         11   -1    0    0    0    0 -0.00000000000E+00 -0.00000000000E+00 -0.45593999997E+02  0.45594000000E+02  0.51100000000E-03 0.  1.
         23    2    1    2    0    0  0.00000000000E+00  0.00000000000E+00  0.00000000000E+00  0.91188000000E+02  0.91188000000E+02 0.  0.
    9900012    2    3    3    0    0  0.20424785245E+02 -0.33210143908E+01  0.34999514840E+02  0.50528843246E+02  0.29999949531E+02 0.  0.
        -12    1    3    3    0    0 -0.20424785245E+02  0.33210143908E+01 -0.34999514840E+02  0.40659156754E+02  0.00000000000E+00 0.  1.
         11    1    4    4    0    0  0.12756980837E+02  0.75434386918E+01  0.85256448633E+01  0.17097679608E+02  0.51100000000E-03 0. -1.
        -11    1    4    4    0    0 -0.42133504938E+01 -0.11620382949E+00  0.38483067877E+01  0.57074767724E+01  0.51100000000E-03 0.  1.
         12    1    4    4    0    0  0.11881154902E+02 -0.10748249253E+02  0.22625563189E+02  0.27723686866E+02  0.00000000000E+00 0. -1.
</event>
<event>
 8    1  0.4964753E-012  0.9118800E+02  0.7816164E-02  0.1184000E+00
        -11   -1    0    0    0    0  0.00000000000E+00  0.00000000000E+00  0.45593999997E+02  0.45594000000E+02  0.51100000000E-03 0.  1.
         11   -1    0    0    0    0 -0.00000000000E+00 -0.00000000000E+00 -0.45593999997E+02  0.45594000000E+02  0.51100000000E-03 0. -1.
         23    2    1    2    0    0  0.00000000000E+00  0.35527136788E-14  0.00000000000E+00  0.91188000000E+02  0.91188000000E+02 0.  0.
    9900012    2    3    3    0    0 -0.24678278663E+02 -0.26227795144E+02  0.18874604088E+02  0.50528863814E+02  0.30000012050E+02 0.  0.
        -12    1    3    3    0    0  0.24678278663E+02  0.26227795144E+02 -0.18874604088E+02  0.40659136186E+02  0.00000000000E+00 0.  1.
         11    1    4    4    0    0 -0.22358342258E+01 -0.44591272451E+01 -0.31617236002E+01  0.59058671555E+01  0.51100000000E-03 0. -1.
        -11    1    4    4    0    0  0.35002174675E+01 -0.87865308812E+01  0.80395349338E+01  0.12413249754E+02  0.51100000000E-03 0.  1.
         12    1    4    4    0    0 -0.25942661905E+02 -0.12982137018E+02  0.13996792754E+02  0.32209746905E+02  0.00000000000E+00 0. -1.
</event>
<event>
 8    1  0.4964753E-012  0.9118800E+02  0.7816164E-02  0.1184000E+00
        -11   -1    0    0    0    0  0.00000000000E+00  0.00000000000E+00  0.45593999997E+02  0.45594000000E+02  0.51100000000E-03 0.  1.
         11   -1    0    0    0    0 -0.00000000000E+00 -0.00000000000E+00 -0.45593999997E+02  0.45594000000E+02  0.51100000000E-03 0. -1.
         23    2    1    2    0    0 -0.35527136788E-14  0.00000000000E+00  0.00000000000E+00  0.91188000000E+02  0.91188000000E+02 0.  0.
    9900012    2    3    3    0    0  0.28887314297E+02  0.18038688350E+02  0.22210234169E+02  0.50528859496E+02  0.29999998925E+02 0.  0.
        -12    1    3    3    0    0 -0.28887314297E+02 -0.18038688350E+02 -0.22210234169E+02  0.40659140504E+02  0.00000000000E+00 0.  1.
         11    1    4    4    0    0  0.57686652731E+01  0.66570516364E+01 -0.44328280753E+01  0.98612271310E+01  0.51100000000E-03 0. -1.
        -11    1    4    4    0    0  0.11951435887E+02  0.14304160070E+02  0.12646471417E+02  0.22525076129E+02  0.51100000000E-03 0.  1.
         12    1    4    4    0    0  0.11167213136E+02 -0.29225233561E+01  0.13996590827E+02  0.18142556236E+02  0.00000000000E+00 0. -1.
</event>
<event>
 8    1  0.4964753E-012  0.9118800E+02  0.7816164E-02  0.1184000E+00
        -11   -1    0    0    0    0  0.00000000000E+00  0.00000000000E+00  0.45593999997E+02  0.45594000000E+02  0.51100000000E-03 0. -1.
         11   -1    0    0    0    0 -0.00000000000E+00 -0.00000000000E+00 -0.45593999997E+02  0.45594000000E+02  0.51100000000E-03 0.  1.
         23    2    1    2    0    0  0.11102230246E-15  0.35527136788E-14 -0.35527136788E-14  0.91188000000E+02  0.91188000000E+02 0.  0.
    9900012    2    3    3    0    0 -0.39051553767E+00  0.31633372909E+02 -0.25540993569E+02  0.50528866506E+02  0.30000020231E+02 0.  0.
         12    1    3    3    0    0  0.39051553767E+00 -0.31633372909E+02  0.25540993569E+02  0.40659133494E+02  0.00000000000E+00 0. -1.
         11    1    4    4    0    0  0.58342649540E+01  0.22533238944E+01 -0.72807947677E+01  0.95982336311E+01  0.51100000000E-03 0. -1.
        -11    1    4    4    0    0  0.35821682997E+01  0.22040771809E+02 -0.17995468031E+02  0.28678640511E+02  0.51100000000E-03 0.  1.
        -12    1    4    4    0    0 -0.98069487914E+01  0.73392772062E+01 -0.26473077063E+00  0.12251992364E+02  0.00000000000E+00 0.  1.
</event>
<event>
 8    1  0.4964753E-012  0.9118800E+02  0.7816164E-02  0.1184000E+00
        -11   -1    0    0    0    0  0.00000000000E+00  0.00000000000E+00  0.45593999997E+02  0.45594000000E+02  0.51100000000E-03 0. -1.
         11   -1    0    0    0    0 -0.00000000000E+00 -0.00000000000E+00 -0.45593999997E+02  0.45594000000E+02  0.51100000000E-03 0.  1.
         23    2    1    2    0    0  0.00000000000E+00  0.00000000000E+00  0.00000000000E+00  0.91188000000E+02  0.91188000000E+02 0.  0.
    9900012    2    3    3    0    0  0.21942362416E+02 -0.19914763768E+02 -0.27840633533E+02  0.50528856381E+02  0.29999989456E+02 0.  0.
         12    1    3    3    0    0 -0.21942362416E+02  0.19914763768E+02  0.27840633533E+02  0.40659143619E+02  0.00000000000E+00 0. -1.
         11    1    4    4    0    0  0.23590178135E+02 -0.11020584480E+02 -0.16697119602E+02  0.30931272040E+02  0.51100000000E-03 0.  1.
        -11    1    4    4    0    0 -0.27069914142E+01  0.20923782729E+00  0.21415272987E+01  0.34579939874E+01  0.51100000000E-03 0. -1.
        -12    1    4    4    0    0  0.10591756949E+01 -0.91034171150E+01 -0.13285041229E+02  0.16139590354E+02  0.00000000000E+00 0.  1.
</event>
<event>
 8    1  0.4964753E-012  0.9118800E+02  0.7816164E-02  0.1184000E+00
        -11   -1    0    0    0    0  0.00000000000E+00  0.00000000000E+00  0.45593999997E+02  0.45594000000E+02  0.51100000000E-03 0.  1.
         11   -1    0    0    0    0 -0.00000000000E+00 -0.00000000000E+00 -0.45593999997E+02  0.45594000000E+02  0.51100000000E-03 0. -1.
         23    2    1    2    0    0  0.00000000000E+00  0.00000000000E+00 -0.17763568394E-14  0.91188000000E+02  0.91188000000E+02 0.  0.
    9900012    2    3    3    0    0 -0.26543655377E+02  0.26795412151E+02 -0.15185685485E+02  0.50528870683E+02  0.30000032929E+02 0.  0.
         12    1    3    3    0    0  0.26543655377E+02 -0.26795412151E+02  0.15185685485E+02  0.40659129317E+02  0.00000000000E+00 0. -1.
         11    1    4    4    0    0 -0.81001783715E+01  0.14339893434E+02 -0.74658275725E+01  0.18082699327E+02  0.51100000000E-03 0.  1.
        -11    1    4    4    0    0  0.10571636727E+01  0.10197225462E+02  0.21481864008E+01  0.10474526587E+02  0.51100000000E-03 0. -1.
         12    1    4    4    0    0 -0.19500640679E+02  0.22582932555E+01 -0.98680443135E+01  0.21971644769E+02  0.00000000000E+00 0. -1.
</event>
<event>
 8    1  0.4964753E-012  0.9118800E+02  0.7816164E-02  0.1184000E+00
        -11   -1    0    0    0    0  0.00000000000E+00  0.00000000000E+00  0.45593999997E+02  0.45594000000E+02  0.51100000000E-03 0. -1.
         11   -1    0    0    0    0 -0.00000000000E+00 -0.00000000000E+00 -0.45593999997E+02  0.45594000000E+02  0.51100000000E-03 0.  1.
         23    2    1    2    0    0  0.00000000000E+00  0.00000000000E+00  0.00000000000E+00  0.91188000000E+02  0.91188000000E+02 0.  0.
    9900012    2    3    3    0    0 -0.17757255917E+02 -0.26628178399E+01  0.36479504298E+02  0.50528868549E+02  0.30000026442E+02 0.  0.
        -12    1    3    3    0    0  0.17757255917E+02  0.26628178399E+01 -0.36479504298E+02  0.40659131451E+02  0.00000000000E+00 0.  1.
         11    1    4    4    0    0 -0.13373063880E+02 -0.63122198480E+00  0.63802033506E+01  0.14830518325E+02  0.51100000000E-03 0. -1.
        -11    1    4    4    0    0  0.36860553944E+01  0.19137562791E+01 -0.13735775506E+00  0.41555186055E+01  0.51100000000E-03 0.  1.
         12    1    4    4    0    0 -0.80702474311E+01 -0.39453521342E+01  0.30236658702E+02  0.31542831619E+02  0.00000000000E+00 0. -1.
</event>
<event>
 8    1  0.4964753E-012  0.9118800E+02  0.7816164E-02  0.1184000E+00
        -11   -1    0    0    0    0  0.00000000000E+00  0.00000000000E+00  0.45593999997E+02  0.45594000000E+02  0.51100000000E-03 0. -1.
         11   -1    0    0    0    0 -0.00000000000E+00 -0.00000000000E+00 -0.45593999997E+02  0.45594000000E+02  0.51100000000E-03 0.  1.
         23    2    1    2    0    0  0.35527136788E-14 -0.17763568394E-14 -0.71054273576E-14  0.91188000000E+02  0.91188000000E+02 0.  0.
    9900012    2    3    3    0    0 -0.19905842742E+02  0.14500858954E+02  0.32351935354E+02  0.50528865641E+02  0.30000017603E+02 0.  0.
        -12    1    3    3    0    0  0.19905842742E+02 -0.14500858954E+02 -0.32351935354E+02  0.40659134359E+02  0.00000000000E+00 0.  1.
         11    1    4    4    0    0 -0.16912310483E+02  0.70781898011E+01  0.19546095272E+02  0.26798821940E+02  0.51100000000E-03 0.  1.
        -11    1    4    4    0    0 -0.14826152367E+00  0.10836431908E+01  0.16032027680E+02  0.16069292947E+02  0.51100000000E-03 0. -1.
        -12    1    4    4    0    0 -0.28452707348E+01  0.63390259616E+01 -0.32261875976E+01  0.76607507537E+01  0.00000000000E+00 0.  1.
</event>
<event>
 8    1  0.4964753E-012  0.9118800E+02  0.7816164E-02  0.1184000E+00
        -11   -1    0    0    0    0  0.00000000000E+00  0.00000000000E+00  0.45593999997E+02  0.45594000000E+02  0.51100000000E-03 0.  1.
         11   -1    0    0    0    0 -0.00000000000E+00 -0.00000000000E+00 -0.45593999997E+02  0.45594000000E+02  0.51100000000E-03 0. -1.
         23    2    1    2    0    0  0.13600232052E-14  0.00000000000E+00 -0.17763568394E-14  0.91188000000E+02  0.91188000000E+02 0.  0.
    9900012    2    3    3    0    0  0.21983754981E+00  0.40335832158E+02  0.51125697793E+01  0.50528855220E+02  0.29999985928E+02 0.  0.
        -12    1    3    3    0    0 -0.21983754981E+00 -0.40335832158E+02 -0.51125697793E+01  0.40659144780E+02  0.00000000000E+00 0.  1.
         11    1    4    4    0    0 -0.10993203549E+02  0.20594218985E+02 -0.30925999072E+01  0.23548599838E+02  0.51100000000E-03 0. -1.
        -11    1    4    4    0    0  0.27365425241E+01  0.59984806316E+01 -0.30833825378E+01  0.72785769907E+01  0.51100000000E-03 0.  1.
        -12    1    4    4    0    0  0.84764985743E+01  0.13743132542E+02  0.11288552224E+02  0.19701678392E+02  0.00000000000E+00 0.  1.
</event>
<event>
 8    1  0.4964753E-012  0.9118800E+02  0.7816164E-02  0.1184000E+00
        -11   -1    0    0    0    0  0.00000000000E+00  0.00000000000E+00  0.45593999997E+02  0.45594000000E+02  0.51100000000E-03 0. -1.
         11   -1    0    0    0    0 -0.00000000000E+00 -0.00000000000E+00 -0.45593999997E+02  0.45594000000E+02  0.51100000000E-03 0.  1.
         23    2    1    2    0    0  0.88817841970E-15  0.00000000000E+00  0.00000000000E+00  0.91188000000E+02  0.91188000000E+02 0.  0.
    9900012    2    3    3    0    0  0.59967437023E+01 -0.10550653595E+02 -0.38805777025E+02  0.50528861337E+02  0.30000004521E+02 0.  0.
         12    1    3    3    0    0 -0.59967437023E+01  0.10550653595E+02  0.38805777025E+02  0.40659138663E+02  0.00000000000E+00 0. -1.
         11    1    4    4    0    0  0.26321991439E+01 -0.33483549374E+01 -0.28428915442E+02  0.28746185601E+02  0.51100000000E-03 0. -1.
        -11    1    4    4    0    0  0.91591100097E+01 -0.28187250194E+01 -0.10881017914E+02  0.14499346813E+02  0.51100000000E-03 0.  1.
         12    1    4    4    0    0 -0.57945654512E+01 -0.43835736378E+01  0.50415633076E+00  0.72833289238E+01  0.00000000000E+00 0. -1.
</event>
<event>
 8    1  0.4964753E-012  0.9118800E+02  0.7816164E-02  0.1184000E+00
        -11   -1    0    0    0    0  0.00000000000E+00  0.00000000000E+00  0.45593999997E+02  0.45594000000E+02  0.51100000000E-03 0. -1.
         11   -1    0    0    0    0 -0.00000000000E+00 -0.00000000000E+00 -0.45593999997E+02  0.45594000000E+02  0.51100000000E-03 0.  1.
         23    2    1    2    0    0  0.80491169285E-15  0.88817841970E-15  0.71054273576E-14  0.91188000000E+02  0.91188000000E+02 0.  0.
    9900012    2    3    3    0    0  0.16770134293E+00  0.61485549238E+01  0.40191215242E+02  0.50528848091E+02  0.29999964256E+02 0.  0.
        -12    1    3    3    0    0 -0.16770134293E+00 -0.61485549238E+01 -0.40191215242E+02  0.40659151909E+02  0.00000000000E+00 0.  1.
         11    1    4    4    0    0  0.87822553215E+01  0.28345821179E+01  0.22066858182E+02  0.23918802114E+02  0.51100000000E-03 0. -1.
        -11    1    4    4    0    0 -0.30240678673E+01  0.24533913369E+01  0.20209773526E+02  0.20581522338E+02  0.51100000000E-03 0.  1.
        -12    1    4    4    0    0 -0.55904861113E+01  0.86058146899E+00 -0.20854164658E+01  0.60285236386E+01  0.00000000000E+00 0.  1.
</event>
<event>
 8    1  0.4964753E-012  0.9118800E+02  0.7816164E-02  0.1184000E+00
        -11   -1    0    0    0    0  0.00000000000E+00  0.00000000000E+00  0.45593999997E+02  0.45594000000E+02  0.51100000000E-03 0. -1.
         11   -1    0    0    0    0 -0.00000000000E+00 -0.00000000000E+00 -0.45593999997E+02  0.45594000000E+02  0.51100000000E-03 0.  1.
         23    2    1    2    0    0  0.17763568394E-14  0.00000000000E+00  0.00000000000E+00  0.91188000000E+02  0.91188000000E+02 0.  0.
    9900012    2    3    3    0    0  0.92932959083E+01  0.21670595278E+02 -0.33123788991E+02  0.50528862704E+02  0.30000008674E+02 0.  0.
         12    1    3    3    0    0 -0.92932959083E+01 -0.21670595278E+02  0.33123788991E+02  0.40659137296E+02  0.00000000000E+00 0. -1.
         11    1    4    4    0    0  0.18454530081E+01 -0.17402381060E+01 -0.94174832583E+01  0.97531080509E+01  0.51100000000E-03 0. -1.
        -11    1    4    4    0    0  0.12501515492E+02  0.15457367605E+02 -0.24225345586E+02  0.31338242961E+02  0.51100000000E-03 0.  1.
         12    1    4    4    0    0 -0.50536725918E+01  0.79534657792E+01  0.51903985277E+00  0.94375116919E+01  0.00000000000E+00 0. -1.
</event>
<event>
 8    1  0.4964753E-012  0.9118800E+02  0.7816164E-02  0.1184000E+00
        -11   -1    0    0    0    0  0.00000000000E+00  0.00000000000E+00  0.45593999997E+02  0.45594000000E+02  0.51100000000E-03 0. -1.
         11   -1    0    0    0    0 -0.00000000000E+00 -0.00000000000E+00 -0.45593999997E+02  0.45594000000E+02  0.51100000000E-03 0.  1.
         23    2    1    2    0    0 -0.35527136788E-14  0.35527136788E-14  0.35527136788E-14  0.91188000000E+02  0.91188000000E+02 0.  0.
    9900012    2    3    3    0    0  0.20860985177E+02 -0.29485216725E+02 -0.18671008762E+02  0.50528864790E+02  0.30000015015E+02 0.  0.
         12    1    3    3    0    0 -0.20860985177E+02  0.29485216725E+02  0.18671008762E+02  0.40659135210E+02  0.00000000000E+00 0. -1.
         11    1    4    4    0    0  0.14063455427E+02 -0.10423418153E+02 -0.16006403174E+02  0.23719893915E+02  0.51100000000E-03 0. -1.
        -11    1    4    4    0    0  0.10510156929E+02 -0.11117450094E+02 -0.72314123163E+01  0.16922009916E+02  0.51100000000E-03 0.  1.
        -12    1    4    4    0    0 -0.37126271784E+01 -0.79443484774E+01  0.45668067284E+01  0.98869609583E+01  0.00000000000E+00 0.  1.
</event>
<event>
 8    1  0.4964753E-012  0.9118800E+02  0.7816164E-02  0.1184000E+00
        -11   -1    0    0    0    0  0.00000000000E+00  0.00000000000E+00  0.45593999997E+02  0.45594000000E+02  0.51100000000E-03 0. -1.
         11   -1    0    0    0    0 -0.00000000000E+00 -0.00000000000E+00 -0.45593999997E+02  0.45594000000E+02  0.51100000000E-03 0.  1.
         23    2    1    2    0    0  0.00000000000E+00  0.35527136788E-14 -0.71054273576E-14  0.91188000000E+02  0.91188000000E+02 0.  0.
    9900012    2    3    3    0    0 -0.25366689577E+01 -0.13971375685E+02  0.38098985600E+02  0.50528846890E+02  0.29999960606E+02 0.  0.
        -12    1    3    3    0    0  0.25366689577E+01  0.13971375685E+02 -0.38098985600E+02  0.40659153110E+02  0.00000000000E+00 0.  1.
         11    1    4    4    0    0  0.31359942766E+00  0.53281508318E+01  0.18545387730E+02  0.19298159036E+02  0.51100000000E-03 0. -1.
        -11    1    4    4    0    0 -0.77107202906E+00 -0.13501642342E+01 -0.23612010155E+01  0.28271480383E+01  0.51100000000E-03 0.  1.
         12    1    4    4    0    0 -0.20791963563E+01 -0.17949362282E+02  0.21914798886E+02  0.28403539815E+02  0.00000000000E+00 0. -1.
</event>
<event>
 8    1  0.4964753E-012  0.9118800E+02  0.7816164E-02  0.1184000E+00
        -11   -1    0    0    0    0  0.00000000000E+00  0.00000000000E+00  0.45593999997E+02  0.45594000000E+02  0.51100000000E-03 0. -1.
         11   -1    0    0    0    0 -0.00000000000E+00 -0.00000000000E+00 -0.45593999997E+02  0.45594000000E+02  0.51100000000E-03 0.  1.
         23    2    1    2    0    0  0.35527136788E-14 -0.88817841970E-15  0.00000000000E+00  0.91188000000E+02  0.91188000000E+02 0.  0.
    9900012    2    3    3    0    0  0.20492535411E+02  0.43555128092E+01 -0.34846098189E+02  0.50528867466E+02  0.30000023151E+02 0.  0.
         12    1    3    3    0    0 -0.20492535411E+02 -0.43555128092E+01  0.34846098189E+02  0.40659132534E+02  0.00000000000E+00 0. -1.
         11    1    4    4    0    0  0.18969390581E+01  0.33838878152E+01 -0.48282970671E+01  0.61936683287E+01  0.51100000000E-03 0. -1.
        -11    1    4    4    0    0  0.21949694847E+02 -0.75120326625E+01 -0.18695331617E+02  0.29794884849E+02  0.51100000000E-03 0.  1.
         12    1    4    4    0    0 -0.33540984943E+01  0.84836576565E+01 -0.11322469505E+02  0.14540314289E+02  0.00000000000E+00 0. -1.
</event>
<event>
 8    1  0.4964753E-012  0.9118800E+02  0.7816164E-02  0.1184000E+00
        -11   -1    0    0    0    0  0.00000000000E+00  0.00000000000E+00  0.45593999997E+02  0.45594000000E+02  0.51100000000E-03 0. -1.
         11   -1    0    0    0    0 -0.00000000000E+00 -0.00000000000E+00 -0.45593999997E+02  0.45594000000E+02  0.51100000000E-03 0.  1.
         23    2    1    2    0    0  0.71054273576E-14  0.17763568394E-14  0.71054273576E-14  0.91188000000E+02  0.91188000000E+02 0.  0.
    9900012    2    3    3    0    0  0.25125978411E+02  0.11814971184E+02  0.29702816841E+02  0.50528860025E+02  0.30000000531E+02 0.  0.
        -12    1    3    3    0    0 -0.25125978411E+02 -0.11814971184E+02 -0.29702816841E+02  0.40659139975E+02  0.00000000000E+00 0.  1.
         11    1    4    4    0    0  0.18740403470E+02  0.30441630107E+01  0.98080450507E+01  0.21369777693E+02  0.51100000000E-03 0. -1.
        -11    1    4    4    0    0  0.47680513473E+01 -0.52916284896E+01  0.58316491238E+01  0.92056383531E+01  0.51100000000E-03 0.  1.
         12    1    4    4    0    0  0.16175235937E+01  0.14062436663E+02  0.14063122667E+02  0.19953443979E+02  0.00000000000E+00 0. -1.
</event>
<event>
 8    1  0.5408846E-012  0.9118800E+02  0.7816164E-02  0.1184000E+00
        -11   -1    0    0    0    0  0.00000000000E+00  0.00000000000E+00  0.45593999997E+02  0.45594000000E+02  0.51100000000E-03 0.  1.
         11   -1    0    0    0    0 -0.00000000000E+00 -0.00000000000E+00 -0.45593999997E+02  0.45594000000E+02  0.51100000000E-03 0. -1.
         23    2    1    2    0    0 -0.88817841970E-15  0.71054273576E-14  0.35527136788E-14  0.91188000000E+02  0.91188000000E+02 0.  0.
    9900012    2    3    3    0    0 -0.32669919809E+01 -0.35839417402E+02 -0.18921629075E+02  0.50528866670E+02  0.30000020730E+02 0.  0.
         12    1    3    3    0    0  0.32669919809E+01  0.35839417402E+02  0.18921629075E+02  0.40659133330E+02  0.00000000000E+00 0. -1.
         11    1    4    4    0    0  0.18158395638E+01 -0.18140614782E+02 -0.14722294916E+02  0.23433419422E+02  0.51100000000E-03 0. -1.
        -11    1    4    4    0    0  0.13952741635E+01 -0.17470916213E+02  0.25804760090E+01  0.17715489268E+02  0.51100000000E-03 0.  1.
         12    1    4    4    0    0 -0.64781057082E+01 -0.22788640711E+00 -0.67798101682E+01  0.93799579796E+01  0.00000000000E+00 0. -1.
</event>
<event>
 8    1  0.4964753E-012  0.9118800E+02  0.7816164E-02  0.1184000E+00
        -11   -1    0    0    0    0  0.00000000000E+00  0.00000000000E+00  0.45593999997E+02  0.45594000000E+02  0.51100000000E-03 0. -1.
         11   -1    0    0    0    0 -0.00000000000E+00 -0.00000000000E+00 -0.45593999997E+02  0.45594000000E+02  0.51100000000E-03 0.  1.
         23    2    1    2    0    0 -0.71054273576E-14  0.17763568394E-14 -0.88817841970E-15  0.91188000000E+02  0.91188000000E+02 0.  0.
    9900012    2    3    3    0    0 -0.38928113908E+02  0.10311220242E+02 -0.56076183521E+01  0.50528871887E+02  0.30000036589E+02 0.  0.
         12    1    3    3    0    0  0.38928113908E+02 -0.10311220242E+02  0.56076183521E+01  0.40659128113E+02  0.00000000000E+00 0. -1.
         11    1    4    4    0    0 -0.44765533276E+01 -0.38240573444E+01  0.17751053756E+01  0.61493043203E+01  0.51100000000E-03 0. -1.
        -11    1    4    4    0    0 -0.10625370124E+02 -0.17243409610E+01 -0.11164780822E+02  0.15508841771E+02  0.51100000000E-03 0.  1.
        -12    1    4    4    0    0 -0.23826190456E+02  0.15859618548E+02  0.37820570942E+01  0.28870725796E+02  0.00000000000E+00 0.  1.
</event>
<event>
 8    1  0.4964753E-012  0.9118800E+02  0.7816164E-02  0.1184000E+00
        -11   -1    0    0    0    0  0.00000000000E+00  0.00000000000E+00  0.45593999997E+02  0.45594000000E+02  0.51100000000E-03 0. -1.
         11   -1    0    0    0    0 -0.00000000000E+00 -0.00000000000E+00 -0.45593999997E+02  0.45594000000E+02  0.51100000000E-03 0.  1.
         23    2    1    2    0    0 -0.44408920985E-15 -0.71054273576E-14  0.00000000000E+00  0.91188000000E+02  0.91188000000E+02 0.  0.
    9900012    2    3    3    0    0  0.28615492341E+01 -0.38315804121E+02 -0.13299485342E+02  0.50528860562E+02  0.30000002166E+02 0.  0.
         12    1    3    3    0    0 -0.28615492341E+01  0.38315804121E+02  0.13299485342E+02  0.40659139438E+02  0.00000000000E+00 0. -1.
         11    1    4    4    0    0  0.74986028215E+01 -0.88629566282E+01  0.46959541546E+01  0.12523299491E+02  0.51100000000E-03 0. -1.
        -11    1    4    4    0    0  0.31200007323E-01 -0.99792672206E+01  0.14599976859E+01  0.10085551111E+02  0.51100000000E-03 0.  1.
        -12    1    4    4    0    0 -0.46682535947E+01 -0.19473580272E+02 -0.19455437183E+02  0.27920009961E+02  0.00000000000E+00 0.  1.
</event>
<event>
 8    1  0.4964753E-012  0.9118800E+02  0.7816164E-02  0.1184000E+00
        -11   -1    0    0    0    0  0.00000000000E+00  0.00000000000E+00  0.45593999997E+02  0.45594000000E+02  0.51100000000E-03 0. -1.
         11   -1    0    0    0    0 -0.00000000000E+00 -0.00000000000E+00 -0.45593999997E+02  0.45594000000E+02  0.51100000000E-03 0.  1.
         23    2    1    2    0    0  0.00000000000E+00  0.00000000000E+00 -0.35527136788E-14  0.91188000000E+02  0.91188000000E+02 0.  0.
    9900012    2    3    3    0    0 -0.34069468556E+02 -0.10495800057E+02  0.19552135826E+02  0.50528726496E+02  0.29999594655E+02 0.  0.
        -12    1    3    3    0    0  0.34069468556E+02  0.10495800057E+02 -0.19552135826E+02  0.40659273504E+02  0.00000000000E+00 0.  1.
         11    1    4    4    0    0 -0.15032079846E+02  0.98890149829E+00  0.11416474551E+02  0.18901778808E+02  0.51100000000E-03 0. -1.
        -11    1    4    4    0    0 -0.51494985901E-01  0.16971012657E+01 -0.48339470535E+01  0.51234606290E+01  0.51100000000E-03 0.  1.
         12    1    4    4    0    0 -0.18985893724E+02 -0.13181802821E+02  0.12969608329E+02  0.26503487059E+02  0.00000000000E+00 0. -1.
</event>
<event>
 8    1  0.4964753E-012  0.9118800E+02  0.7816164E-02  0.1184000E+00
        -11   -1    0    0    0    0  0.00000000000E+00  0.00000000000E+00  0.45593999997E+02  0.45594000000E+02  0.51100000000E-03 0. -1.
         11   -1    0    0    0    0 -0.00000000000E+00 -0.00000000000E+00 -0.45593999997E+02  0.45594000000E+02  0.51100000000E-03 0.  1.
         23    2    1    2    0    0  0.35527136788E-14  0.00000000000E+00  0.00000000000E+00  0.91188000000E+02  0.91188000000E+02 0.  0.
    9900012    2    3    3    0    0  0.16902043356E+02  0.35162051452E+02 -0.11450497658E+02  0.50528894888E+02  0.30000106500E+02 0.  0.
         12    1    3    3    0    0 -0.16902043356E+02 -0.35162051452E+02  0.11450497658E+02  0.40659105112E+02  0.00000000000E+00 0. -1.
         11    1    4    4    0    0 -0.57045494575E+01  0.15292141505E+02 -0.21575002367E+01  0.16463483345E+02  0.51100000000E-03 0. -1.
        -11    1    4    4    0    0  0.69425729925E+01  0.14726079535E+02 -0.49378475529E+01  0.17012909127E+02  0.51100000000E-03 0.  1.
         12    1    4    4    0    0  0.15664019821E+02  0.51438304114E+01 -0.43551498689E+01  0.17052502415E+02  0.00000000000E+00 0. -1.
</event>
<event>
 8    1  0.4964753E-012  0.9118800E+02  0.7816164E-02  0.1184000E+00
        -11   -1    0    0    0    0  0.00000000000E+00  0.00000000000E+00  0.45593999997E+02  0.45594000000E+02  0.51100000000E-03 0. -1.
         11   -1    0    0    0    0 -0.00000000000E+00 -0.00000000000E+00 -0.45593999997E+02  0.45594000000E+02  0.51100000000E-03 0.  1.
         23    2    1    2    0    0  0.00000000000E+00  0.00000000000E+00  0.00000000000E+00  0.91188000000E+02  0.91188000000E+02 0.  0.
    9900012    2    3    3    0    0  0.67715027402E+01  0.29122887764E+02 -0.27553044364E+02  0.50528854721E+02  0.29999984411E+02 0.  0.
         12    1    3    3    0    0 -0.67715027402E+01 -0.29122887764E+02  0.27553044364E+02  0.40659145279E+02  0.00000000000E+00 0. -1.
         11    1    4    4    0    0  0.44518553170E+00 -0.17793648674E+01 -0.14960031993E+00  0.18403016073E+01  0.51100000000E-03 0. -1.
        -11    1    4    4    0    0 -0.94684069937E+01  0.13352227922E+02 -0.13995748896E+02  0.21536334621E+02  0.51100000000E-03 0.  1.
        -12    1    4    4    0    0  0.15794724202E+02  0.17550024709E+02 -0.13407695148E+02  0.27152218493E+02  0.00000000000E+00 0.  1.
</event>
<event>
 8    1  0.4964753E-012  0.9118800E+02  0.7816164E-02  0.1184000E+00
        -11   -1    0    0    0    0  0.00000000000E+00  0.00000000000E+00  0.45593999997E+02  0.45594000000E+02  0.51100000000E-03 0. -1.
         11   -1    0    0    0    0 -0.00000000000E+00 -0.00000000000E+00 -0.45593999997E+02  0.45594000000E+02  0.51100000000E-03 0.  1.
         23    2    1    2    0    0  0.00000000000E+00  0.35527136788E-14  0.00000000000E+00  0.91188000000E+02  0.91188000000E+02 0.  0.
    9900012    2    3    3    0    0 -0.18658588928E+02  0.22168158239E+02 -0.28523607808E+02  0.50528851178E+02  0.29999973642E+02 0.  0.
         12    1    3    3    0    0  0.18658588928E+02 -0.22168158239E+02  0.28523607808E+02  0.40659148822E+02  0.00000000000E+00 0. -1.
         11    1    4    4    0    0 -0.50004661886E+01 -0.19384460419E+01 -0.16151398601E+02  0.17018516744E+02  0.51100000000E-03 0. -1.
        -11    1    4    4    0    0 -0.62997161088E+00  0.30417980287E+01 -0.77032778793E+01  0.83060152796E+01  0.51100000000E-03 0.  1.
        -12    1    4    4    0    0 -0.13028151129E+02  0.21064806252E+02 -0.46689313281E+01  0.25204319154E+02  0.00000000000E+00 0.  1.
</event>
<event>
 8    1  0.4964753E-012  0.9118800E+02  0.7816164E-02  0.1184000E+00
        -11   -1    0    0    0    0  0.00000000000E+00  0.00000000000E+00  0.45593999997E+02  0.45594000000E+02  0.51100000000E-03 0. -1.
         11   -1    0    0    0    0 -0.00000000000E+00 -0.00000000000E+00 -0.45593999997E+02  0.45594000000E+02  0.51100000000E-03 0.  1.
         23    2    1    2    0    0  0.71054273576E-14  0.17763568394E-14  0.00000000000E+00  0.91188000000E+02  0.91188000000E+02 0.  0.
    9900012    2    3    3    0    0 -0.33698375407E+02 -0.10003085774E+02 -0.20433358250E+02  0.50528876061E+02  0.30000049276E+02 0.  0.
         12    1    3    3    0    0  0.33698375407E+02  0.10003085774E+02  0.20433358250E+02  0.40659123939E+02  0.00000000000E+00 0. -1.
         11    1    4    4    0    0 -0.11359948812E+02 -0.45001357711E+01  0.46652495655E+01  0.13079151836E+02  0.51100000000E-03 0. -1.
        -11    1    4    4    0    0 -0.14661586519E+02 -0.93937893182E+01 -0.10025836999E+02  0.20092854571E+02  0.51100000000E-03 0.  1.
         12    1    4    4    0    0 -0.76768400754E+01  0.38908393151E+01 -0.15072770817E+02  0.17356869655E+02  0.00000000000E+00 0. -1.
</event>
<event>
 8    1  0.5882566E-012  0.9118800E+02  0.7816164E-02  0.1184000E+00
        -11   -1    0    0    0    0  0.00000000000E+00  0.00000000000E+00  0.45593999997E+02  0.45594000000E+02  0.51100000000E-03 0. -1.
         11   -1    0    0    0    0 -0.00000000000E+00 -0.00000000000E+00 -0.45593999997E+02  0.45594000000E+02  0.51100000000E-03 0.  1.
         23    2    1    2    0    0  0.00000000000E+00  0.00000000000E+00 -0.35527136788E-14  0.91188000000E+02  0.91188000000E+02 0.  0.
    9900012    2    3    3    0    0 -0.33531244636E+02  0.13155287130E+02 -0.18861651885E+02  0.50528833037E+02  0.29999918500E+02 0.  0.
         12    1    3    3    0    0  0.33531244636E+02 -0.13155287130E+02  0.18861651885E+02  0.40659166963E+02  0.00000000000E+00 0. -1.
         11    1    4    4    0    0 -0.14414366997E+02  0.44902326903E+00 -0.10573924202E+02  0.17882490630E+02  0.51100000000E-03 0. -1.
        -11    1    4    4    0    0 -0.18858171865E+02  0.17468591883E+02 -0.99952227824E+01  0.27580551612E+02  0.51100000000E-03 0.  1.
         12    1    4    4    0    0 -0.25870577270E+00 -0.47623280223E+01  0.17074950998E+01  0.50657907955E+01  0.00000000000E+00 0. -1.
</event>
<event>
 8    1  0.4964753E-012  0.9118800E+02  0.7816164E-02  0.1184000E+00
        -11   -1    0    0    0    0  0.00000000000E+00  0.00000000000E+00  0.45593999997E+02  0.45594000000E+02  0.51100000000E-03 0. -1.
         11   -1    0    0    0    0 -0.00000000000E+00 -0.00000000000E+00 -0.45593999997E+02  0.45594000000E+02  0.51100000000E-03 0.  1.
         23    2    1    2    0    0  0.00000000000E+00  0.71054273576E-14 -0.35527136788E-14  0.91188000000E+02  0.91188000000E+02 0.  0.
    9900012    2    3    3    0    0  0.85942971315E+01  0.26713727377E+02 -0.29422452090E+02  0.50528857601E+02  0.29999993165E+02 0.  0.
         12    1    3    3    0    0 -0.85942971315E+01 -0.26713727377E+02  0.29422452090E+02  0.40659142399E+02  0.00000000000E+00 0. -1.
         11    1    4    4    0    0 -0.57427510685E+01  0.10648024037E+01 -0.56766576790E+01  0.81447797183E+01  0.51100000000E-03 0.  1.
        -11    1    4    4    0    0 -0.15544045693E+01  0.11586390422E+02 -0.17492266272E+01  0.11820338855E+02  0.51100000000E-03 0. -1.
        -12    1    4    4    0    0  0.15891452769E+02  0.14062534551E+02 -0.21996567784E+02  0.30563739029E+02  0.00000000000E+00 0.  1.
</event>
<event>
 8    1  0.4964753E-012  0.9118800E+02  0.7816164E-02  0.1184000E+00
        -11   -1    0    0    0    0  0.00000000000E+00  0.00000000000E+00  0.45593999997E+02  0.45594000000E+02  0.51100000000E-03 0.  1.
         11   -1    0    0    0    0 -0.00000000000E+00 -0.00000000000E+00 -0.45593999997E+02  0.45594000000E+02  0.51100000000E-03 0. -1.
         23    2    1    2    0    0  0.71054273576E-14  0.35527136788E-14  0.22204460493E-15  0.91188000000E+02  0.91188000000E+02 0.  0.
    9900012    2    3    3    0    0 -0.36353140372E+02 -0.18174885465E+02  0.11350182849E+01  0.50528861506E+02  0.30000005033E+02 0.  0.
         12    1    3    3    0    0  0.36353140372E+02  0.18174885465E+02 -0.11350182849E+01  0.40659138494E+02  0.00000000000E+00 0. -1.
         11    1    4    4    0    0 -0.36251704365E+01 -0.70784766835E+01 -0.11088570947E+02  0.13645625627E+02  0.51100000000E-03 0. -1.
        -11    1    4    4    0    0 -0.15773476864E+02 -0.65886792234E+01  0.78053390066E+01  0.18791928681E+02  0.51100000000E-03 0.  1.
        -12    1    4    4    0    0 -0.16954493071E+02 -0.45077295581E+01  0.44182502248E+01  0.18091307198E+02  0.00000000000E+00 0.  1.
</event>
<event>
 8    1  0.4964753E-012  0.9118800E+02  0.7816164E-02  0.1184000E+00
        -11   -1    0    0    0    0  0.00000000000E+00  0.00000000000E+00  0.45593999997E+02  0.45594000000E+02  0.51100000000E-03 0. -1.
         11   -1    0    0    0    0 -0.00000000000E+00 -0.00000000000E+00 -0.45593999997E+02  0.45594000000E+02  0.51100000000E-03 0.  1.
         23    2    1    2    0    0  0.00000000000E+00  0.26645352591E-14  0.00000000000E+00  0.91188000000E+02  0.91188000000E+02 0.  0.
    9900012    2    3    3    0    0 -0.36555263576E+02 -0.66133964731E+01  0.16527037898E+02  0.50528840027E+02  0.29999939747E+02 0.  0.
        -12    1    3    3    0    0  0.36555263576E+02  0.66133964731E+01 -0.16527037898E+02  0.40659159973E+02  0.00000000000E+00 0.  1.
         11    1    4    4    0    0 -0.15816672298E+02 -0.66938115801E+01  0.84738103509E+01  0.19151493367E+02  0.51100000000E-03 0. -1.
        -11    1    4    4    0    0 -0.99651188627E+01 -0.97108350947E+01 -0.14539440750E+01  0.13989920151E+02  0.51100000000E-03 0.  1.
        -12    1    4    4    0    0 -0.10773472415E+02  0.97912502016E+01  0.95071716223E+01  0.17387426510E+02  0.00000000000E+00 0.  1.
</event>
<event>
 8    1  0.4964753E-012  0.9118800E+02  0.7816164E-02  0.1184000E+00
        -11   -1    0    0    0    0  0.00000000000E+00  0.00000000000E+00  0.45593999997E+02  0.45594000000E+02  0.51100000000E-03 0. -1.
         11   -1    0    0    0    0 -0.00000000000E+00 -0.00000000000E+00 -0.45593999997E+02  0.45594000000E+02  0.51100000000E-03 0.  1.
         23    2    1    2    0    0 -0.66613381478E-15  0.17763568394E-14  0.71054273576E-14  0.91188000000E+02  0.91188000000E+02 0.  0.
    9900012    2    3    3    0    0  0.14494727729E+01  0.15376398747E+02 -0.37611575882E+02  0.50528865109E+02  0.30000015986E+02 0.  0.
         12    1    3    3    0    0 -0.14494727729E+01 -0.15376398747E+02  0.37611575882E+02  0.40659134891E+02  0.00000000000E+00 0. -1.
         11    1    4    4    0    0 -0.76741663967E+01  0.56811866454E+01 -0.61895143159E+01  0.11378875134E+02  0.51100000000E-03 0. -1.
        -11    1    4    4    0    0  0.39511308473E+01  0.15172196261E+02 -0.23174790745E+02  0.27979955337E+02  0.51100000000E-03 0.  1.
         12    1    4    4    0    0  0.51725083223E+01 -0.54769841586E+01 -0.82472708214E+01  0.11170034638E+02  0.00000000000E+00 0. -1.
</event>
<event>
 8    1  0.4964753E-012  0.9118800E+02  0.7816164E-02  0.1184000E+00
        -11   -1    0    0    0    0  0.00000000000E+00  0.00000000000E+00  0.45593999997E+02  0.45594000000E+02  0.51100000000E-03 0. -1.
         11   -1    0    0    0    0 -0.00000000000E+00 -0.00000000000E+00 -0.45593999997E+02  0.45594000000E+02  0.51100000000E-03 0.  1.
         23    2    1    2    0    0  0.00000000000E+00  0.00000000000E+00  0.00000000000E+00  0.91188000000E+02  0.91188000000E+02 0.  0.
    9900012    2    3    3    0    0 -0.40115481032E+01 -0.31438519494E+02  0.25469432478E+02  0.50528867976E+02  0.30000024700E+02 0.  0.
        -12    1    3    3    0    0  0.40115481032E+01  0.31438519494E+02 -0.25469432478E+02  0.40659132024E+02  0.00000000000E+00 0.  1.
         11    1    4    4    0    0 -0.34917667264E+01 -0.13074320901E+02  0.84067523821E+01  0.15931220536E+02  0.51100000000E-03 0. -1.
        -11    1    4    4    0    0 -0.15466442905E+00 -0.24096148016E+02  0.15478192694E+02  0.28639530716E+02  0.51100000000E-03 0.  1.
        -12    1    4    4    0    0 -0.36511694779E+00  0.57319494225E+01  0.15844874018E+01  0.59581167238E+01  0.00000000000E+00 0.  1.
</event>
<event>
 8    1  0.5690084E-012  0.9118800E+02  0.7816164E-02  0.1184000E+00
        -11   -1    0    0    0    0  0.00000000000E+00  0.00000000000E+00  0.45593999997E+02  0.45594000000E+02  0.51100000000E-03 0.  1.
         11   -1    0    0    0    0 -0.00000000000E+00 -0.00000000000E+00 -0.45593999997E+02  0.45594000000E+02  0.51100000000E-03 0. -1.
         23    2    1    2    0    0  0.00000000000E+00  0.17763568394E-14 -0.35527136788E-14  0.91188000000E+02  0.91188000000E+02 0.  0.
    9900012    2    3    3    0    0  0.25127314152E+02  0.12906110687E+02 -0.29244087645E+02  0.50528852545E+02  0.29999977796E+02 0.  0.
         12    1    3    3    0    0 -0.25127314152E+02 -0.12906110687E+02  0.29244087645E+02  0.40659147455E+02  0.00000000000E+00 0. -1.
         11    1    4    4    0    0  0.88545944211E+01 -0.30355476818E+01 -0.89423237825E+01  0.12945406405E+02  0.51100000000E-03 0. -1.
        -11    1    4    4    0    0  0.71865060601E+01  0.21916294318E+00  0.32113905343E+01  0.78744479916E+01  0.51100000000E-03 0.  1.
        -12    1    4    4    0    0  0.90862136704E+01  0.15722495426E+02 -0.23513154397E+02  0.29708998149E+02  0.00000000000E+00 0.  1.
</event>
<event>
 8    1  0.4964753E-012  0.9118800E+02  0.7816164E-02  0.1184000E+00
        -11   -1    0    0    0    0  0.00000000000E+00  0.00000000000E+00  0.45593999997E+02  0.45594000000E+02  0.51100000000E-03 0. -1.
         11   -1    0    0    0    0 -0.00000000000E+00 -0.00000000000E+00 -0.45593999997E+02  0.45594000000E+02  0.51100000000E-03 0.  1.
         23    2    1    2    0    0  0.00000000000E+00  0.00000000000E+00  0.00000000000E+00  0.91188000000E+02  0.91188000000E+02 0.  0.
    9900012    2    3    3    0    0  0.15467801701E+02  0.60688543764E+01  0.37109077106E+02  0.50528837606E+02  0.29999932387E+02 0.  0.
        -12    1    3    3    0    0 -0.15467801701E+02 -0.60688543764E+01 -0.37109077106E+02  0.40659162394E+02  0.00000000000E+00 0.  1.
         11    1    4    4    0    0 -0.40138832721E+01  0.68347995522E+01  0.14800118773E+02  0.16788962440E+02  0.51100000000E-03 0. -1.
        -11    1    4    4    0    0  0.10437965275E+02 -0.22751694756E+01  0.22125107261E+02  0.24569246769E+02  0.51100000000E-03 0.  1.
        -12    1    4    4    0    0  0.90437196989E+01  0.15092242998E+01  0.18385107127E+00  0.91706283969E+01  0.00000000000E+00 0.  1.
</event>
<event>
 8    1  0.4964753E-012  0.9118800E+02  0.7816164E-02  0.1184000E+00
        -11   -1    0    0    0    0  0.00000000000E+00  0.00000000000E+00  0.45593999997E+02  0.45594000000E+02  0.51100000000E-03 0. -1.
         11   -1    0    0    0    0 -0.00000000000E+00 -0.00000000000E+00 -0.45593999997E+02  0.45594000000E+02  0.51100000000E-03 0.  1.
         23    2    1    2    0    0 -0.17763568394E-14  0.72164496601E-15  0.00000000000E+00  0.91188000000E+02  0.91188000000E+02 0.  0.
    9900012    2    3    3    0    0  0.12121223135E+02  0.44879232321E+00 -0.38807734274E+02  0.50528859523E+02  0.29999999006E+02 0.  0.
         12    1    3    3    0    0 -0.12121223135E+02 -0.44879232321E+00  0.38807734274E+02  0.40659140477E+02  0.00000000000E+00 0. -1.
         11    1    4    4    0    0 -0.31289840910E+01 -0.72010363152E+00 -0.82995700503E+01  0.88989861199E+01  0.51100000000E-03 0. -1.
        -11    1    4    4    0    0  0.14162140765E+02  0.64903246294E+01 -0.32340948195E+02  0.35897457783E+02  0.51100000000E-03 0.  1.
         12    1    4    4    0    0  0.10880664608E+01 -0.53214286747E+01  0.18327839710E+01  0.57324156206E+01  0.00000000000E+00 0. -1.
</event>
<event>
 8    1  0.4964753E-012  0.9118800E+02  0.7816164E-02  0.1184000E+00
        -11   -1    0    0    0    0  0.00000000000E+00  0.00000000000E+00  0.45593999997E+02  0.45594000000E+02  0.51100000000E-03 0. -1.
         11   -1    0    0    0    0 -0.00000000000E+00 -0.00000000000E+00 -0.45593999997E+02  0.45594000000E+02  0.51100000000E-03 0.  1.
         23    2    1    2    0    0 -0.71054273576E-14 -0.17763568394E-14  0.00000000000E+00  0.91188000000E+02  0.91188000000E+02 0.  0.
    9900012    2    3    3    0    0  0.35635413501E+02  0.80744439875E+01  0.17834979235E+02  0.50528858034E+02  0.29999994480E+02 0.  0.
        -12    1    3    3    0    0 -0.35635413501E+02 -0.80744439875E+01 -0.17834979235E+02  0.40659141966E+02  0.00000000000E+00 0.  1.
         11    1    4    4    0    0  0.28441349350E+02  0.55807018164E+01  0.27375759217E+01  0.29112693242E+02  0.51100000000E-03 0. -1.
        -11    1    4    4    0    0  0.14001609252E+01  0.60614389338E+01  0.17954607709E+01  0.64749650351E+01  0.51100000000E-03 0.  1.
        -12    1    4    4    0    0  0.57939032261E+01 -0.35676967628E+01  0.13301942543E+02  0.14941199757E+02  0.00000000000E+00 0.  1.
</event>
<event>
 8    1  0.4964753E-012  0.9118800E+02  0.7816164E-02  0.1184000E+00
        -11   -1    0    0    0    0  0.00000000000E+00  0.00000000000E+00  0.45593999997E+02  0.45594000000E+02  0.51100000000E-03 0. -1.
         11   -1    0    0    0    0 -0.00000000000E+00 -0.00000000000E+00 -0.45593999997E+02  0.45594000000E+02  0.51100000000E-03 0.  1.
         23    2    1    2    0    0  0.17763568394E-14  0.35527136788E-14  0.00000000000E+00  0.91188000000E+02  0.91188000000E+02 0.  0.
    9900012    2    3    3    0    0  0.11259227624E+02  0.24758348329E+02  0.30222836822E+02  0.50528857311E+02  0.29999992281E+02 0.  0.
        -12    1    3    3    0    0 -0.11259227624E+02 -0.24758348329E+02 -0.30222836822E+02  0.40659142689E+02  0.00000000000E+00 0.  1.
         11    1    4    4    0    0 -0.55359866288E+01  0.11944501883E+02  0.16414112402E+02  0.21041420089E+02  0.51100000000E-03 0. -1.
        -11    1    4    4    0    0  0.32686429196E+01 -0.35249939173E+01  0.19643847501E+01  0.51931123963E+01  0.51100000000E-03 0.  1.
         12    1    4    4    0    0  0.13526571334E+02  0.16338840364E+02  0.11844339670E+02  0.24294324825E+02  0.00000000000E+00 0. -1.
</event>
<event>
 8    1  0.4964753E-012  0.9118800E+02  0.7816164E-02  0.1184000E+00
        -11   -1    0    0    0    0  0.00000000000E+00  0.00000000000E+00  0.45593999997E+02  0.45594000000E+02  0.51100000000E-03 0.  1.
         11   -1    0    0    0    0 -0.00000000000E+00 -0.00000000000E+00 -0.45593999997E+02  0.45594000000E+02  0.51100000000E-03 0. -1.
         23    2    1    2    0    0 -0.44408920985E-15  0.00000000000E+00  0.35527136788E-14  0.91188000000E+02  0.91188000000E+02 0.  0.
    9900012    2    3    3    0    0  0.24385060898E+01  0.36600886081E+02  0.17538334192E+02  0.50528876299E+02  0.30000050000E+02 0.  0.
         12    1    3    3    0    0 -0.24385060898E+01 -0.36600886081E+02 -0.17538334192E+02  0.40659123701E+02  0.00000000000E+00 0. -1.
         11    1    4    4    0    0  0.36727970800E+01  0.25695528870E+01 -0.24599578449E+01  0.51130649605E+01  0.51100000000E-03 0. -1.
        -11    1    4    4    0    0 -0.84765885620E+01  0.32316342466E+01  0.34116737081E+01  0.96920344255E+01  0.51100000000E-03 0.  1.
        -12    1    4    4    0    0  0.72422975718E+01  0.30799698948E+02  0.16586618328E+02  0.35723776913E+02  0.00000000000E+00 0.  1.
</event>
<event>
 8    1  0.4964753E-012  0.9118800E+02  0.7816164E-02  0.1184000E+00
        -11   -1    0    0    0    0  0.00000000000E+00  0.00000000000E+00  0.45593999997E+02  0.45594000000E+02  0.51100000000E-03 0. -1.
         11   -1    0    0    0    0 -0.00000000000E+00 -0.00000000000E+00 -0.45593999997E+02  0.45594000000E+02  0.51100000000E-03 0.  1.
         23    2    1    2    0    0 -0.35527136788E-14  0.00000000000E+00  0.00000000000E+00  0.91188000000E+02  0.91188000000E+02 0.  0.
    9900012    2    3    3    0    0 -0.31250190164E+02  0.15181245466E+02  0.21121577369E+02  0.50528860440E+02  0.30000001794E+02 0.  0.
        -12    1    3    3    0    0  0.31250190164E+02 -0.15181245466E+02 -0.21121577369E+02  0.40659139560E+02  0.00000000000E+00 0.  1.
         11    1    4    4    0    0 -0.25457293146E+02  0.65303793625E+01  0.18980359645E+02  0.32418724241E+02  0.51100000000E-03 0. -1.
        -11    1    4    4    0    0 -0.36602162123E+01 -0.23745386996E+01 -0.34530275407E+01  0.55640826930E+01  0.51100000000E-03 0.  1.
         12    1    4    4    0    0 -0.21326808058E+01  0.11025404803E+02  0.55942452651E+01  0.12546053506E+02  0.00000000000E+00 0. -1.
</event>
<event>
 8    1  0.4964753E-012  0.9118800E+02  0.7816164E-02  0.1184000E+00
        -11   -1    0    0    0    0  0.00000000000E+00  0.00000000000E+00  0.45593999997E+02  0.45594000000E+02  0.51100000000E-03 0. -1.
         11   -1    0    0    0    0 -0.00000000000E+00 -0.00000000000E+00 -0.45593999997E+02  0.45594000000E+02  0.51100000000E-03 0.  1.
         23    2    1    2    0    0  0.35527136788E-14  0.17763568394E-14  0.71054273576E-14  0.91188000000E+02  0.91188000000E+02 0.  0.
    9900012    2    3    3    0    0  0.29980210339E+02  0.89051885428E+01  0.25981728858E+02  0.50528860444E+02  0.30000001807E+02 0.  0.
        -12    1    3    3    0    0 -0.29980210339E+02 -0.89051885428E+01 -0.25981728858E+02  0.40659139556E+02  0.00000000000E+00 0.  1.
         11    1    4    4    0    0  0.19311856744E+02 -0.12476653462E+01  0.20674064352E+02  0.28318217048E+02  0.51100000000E-03 0. -1.
        -11    1    4    4    0    0  0.93051192689E+01  0.22550912356E+01 -0.35993252745E+01  0.10228676541E+02  0.51100000000E-03 0.  1.
        -12    1    4    4    0    0  0.13632343263E+01  0.78977626535E+01  0.89069897812E+01  0.11981966855E+02  0.00000000000E+00 0.  1.
</event>
<event>
 8    1  0.4964753E-012  0.9118800E+02  0.7816164E-02  0.1184000E+00
        -11   -1    0    0    0    0  0.00000000000E+00  0.00000000000E+00  0.45593999997E+02  0.45594000000E+02  0.51100000000E-03 0. -1.
         11   -1    0    0    0    0 -0.00000000000E+00 -0.00000000000E+00 -0.45593999997E+02  0.45594000000E+02  0.51100000000E-03 0.  1.
         23    2    1    2    0    0 -0.17763568394E-14  0.88817841970E-15  0.71054273576E-14  0.91188000000E+02  0.91188000000E+02 0.  0.
    9900012    2    3    3    0    0 -0.12014065537E+02  0.55908941825E+01  0.38439169876E+02  0.50528860200E+02  0.30000001064E+02 0.  0.
        -12    1    3    3    0    0  0.12014065537E+02 -0.55908941825E+01 -0.38439169876E+02  0.40659139800E+02  0.00000000000E+00 0.  1.
         11    1    4    4    0    0  0.16733909716E+01 -0.33284311887E+01 -0.12508720538E+01  0.39298056794E+01  0.51100000000E-03 0.  1.
        -11    1    4    4    0    0 -0.14822715298E+01 -0.34018875726E+01  0.20080844839E+02  0.20420829994E+02  0.51100000000E-03 0. -1.
        -12    1    4    4    0    0 -0.12205184979E+02  0.12321212944E+02  0.19609197091E+02  0.26178224526E+02  0.00000000000E+00 0.  1.
</event>
<event>
 8    1  0.4964753E-012  0.9118800E+02  0.7816164E-02  0.1184000E+00
        -11   -1    0    0    0    0  0.00000000000E+00  0.00000000000E+00  0.45593999997E+02  0.45594000000E+02  0.51100000000E-03 0. -1.
         11   -1    0    0    0    0 -0.00000000000E+00 -0.00000000000E+00 -0.45593999997E+02  0.45594000000E+02  0.51100000000E-03 0.  1.
         23    2    1    2    0    0  0.00000000000E+00  0.00000000000E+00  0.00000000000E+00  0.91188000000E+02  0.91188000000E+02 0.  0.
    9900012    2    3    3    0    0  0.70357865977E+01 -0.33532428944E+02 -0.21891527960E+02  0.50528867196E+02  0.30000022328E+02 0.  0.
         12    1    3    3    0    0 -0.70357865977E+01  0.33532428944E+02  0.21891527960E+02  0.40659132804E+02  0.00000000000E+00 0. -1.
         11    1    4    4    0    0 -0.38994072365E+01  0.65518599724E+00 -0.13674588130E+01  0.41838486293E+01  0.51100000000E-03 0. -1.
        -11    1    4    4    0    0  0.51647921684E+01 -0.57544644995E+01 -0.14907580477E+02  0.16793596867E+02  0.51100000000E-03 0.  1.
        -12    1    4    4    0    0  0.57704016657E+01 -0.28433150442E+02 -0.56164886708E+01  0.29551421699E+02  0.00000000000E+00 0.  1.
</event>
<event>
 8    1  0.4964753E-012  0.9118800E+02  0.7816164E-02  0.1184000E+00
        -11   -1    0    0    0    0  0.00000000000E+00  0.00000000000E+00  0.45593999997E+02  0.45594000000E+02  0.51100000000E-03 0. -1.
         11   -1    0    0    0    0 -0.00000000000E+00 -0.00000000000E+00 -0.45593999997E+02  0.45594000000E+02  0.51100000000E-03 0.  1.
         23    2    1    2    0    0 -0.44408920985E-15  0.00000000000E+00  0.00000000000E+00  0.91188000000E+02  0.91188000000E+02 0.  0.
    9900012    2    3    3    0    0  0.21878246712E+01  0.23881556544E+02  0.32833674341E+02  0.50528862153E+02  0.30000006999E+02 0.  0.
        -12    1    3    3    0    0 -0.21878246712E+01 -0.23881556544E+02 -0.32833674341E+02  0.40659137847E+02  0.00000000000E+00 0.  1.
         11    1    4    4    0    0 -0.28751833677E+00  0.60395874168E+01  0.16412555444E+02  0.17490890755E+02  0.51100000000E-03 0. -1.
        -11    1    4    4    0    0 -0.17151126837E+01  0.12596040829E+02  0.21253828067E+02  0.24765440918E+02  0.51100000000E-03 0.  1.
        -12    1    4    4    0    0  0.41904556917E+01  0.52459282981E+01 -0.48327091698E+01  0.82725304794E+01  0.00000000000E+00 0.  1.
</event>
<event>
 8    1  0.4964753E-012  0.9118800E+02  0.7816164E-02  0.1184000E+00
        -11   -1    0    0    0    0  0.00000000000E+00  0.00000000000E+00  0.45593999997E+02  0.45594000000E+02  0.51100000000E-03 0. -1.
         11   -1    0    0    0    0 -0.00000000000E+00 -0.00000000000E+00 -0.45593999997E+02  0.45594000000E+02  0.51100000000E-03 0.  1.
         23    2    1    2    0    0  0.00000000000E+00  0.00000000000E+00  0.00000000000E+00  0.91188000000E+02  0.91188000000E+02 0.  0.
    9900012    2    3    3    0    0  0.30625392170E+02 -0.21135090069E+02 -0.16387776905E+02  0.50528856998E+02  0.29999991331E+02 0.  0.
         12    1    3    3    0    0 -0.30625392170E+02  0.21135090069E+02  0.16387776905E+02  0.40659143002E+02  0.00000000000E+00 0. -1.
         11    1    4    4    0    0 -0.29835982156E+01 -0.50953371394E+01  0.44195829492E+01  0.73754343996E+01  0.51100000000E-03 0. -1.
        -11    1    4    4    0    0  0.30723226018E+01  0.75465352168E-01 -0.30374343321E+01  0.43209800708E+01  0.51100000000E-03 0.  1.
        -12    1    4    4    0    0  0.30536667784E+02 -0.16115218281E+02 -0.17769925522E+02  0.38832442528E+02  0.00000000000E+00 0.  1.
</event>
<event>
 8    1  0.4964753E-012  0.9118800E+02  0.7816164E-02  0.1184000E+00
        -11   -1    0    0    0    0  0.00000000000E+00  0.00000000000E+00  0.45593999997E+02  0.45594000000E+02  0.51100000000E-03 0. -1.
         11   -1    0    0    0    0 -0.00000000000E+00 -0.00000000000E+00 -0.45593999997E+02  0.45594000000E+02  0.51100000000E-03 0.  1.
         23    2    1    2    0    0  0.00000000000E+00  0.00000000000E+00  0.00000000000E+00  0.91188000000E+02  0.91188000000E+02 0.  0.
    9900012    2    3    3    0    0 -0.25446120580E+02 -0.19139583089E+02  0.25285065964E+02  0.50528889653E+02  0.30000090589E+02 0.  0.
        -12    1    3    3    0    0  0.25446120580E+02  0.19139583089E+02 -0.25285065964E+02  0.40659110347E+02  0.00000000000E+00 0.  1.
         11    1    4    4    0    0 -0.48051608647E-01 -0.59108335042E+01 -0.16602347577E+01  0.61397590656E+01  0.51100000000E-03 0. -1.
        -11    1    4    4    0    0 -0.19853287651E+02 -0.20449374321E+01  0.75800809311E+01  0.21349295699E+02  0.51100000000E-03 0.  1.
         12    1    4    4    0    0 -0.55447813204E+01 -0.11183812153E+02  0.19365219790E+02  0.23039834889E+02  0.00000000000E+00 0. -1.
</event>
<event>
 8    1  0.4964753E-012  0.9118800E+02  0.7816164E-02  0.1184000E+00
        -11   -1    0    0    0    0  0.00000000000E+00  0.00000000000E+00  0.45593999997E+02  0.45594000000E+02  0.51100000000E-03 0. -1.
         11   -1    0    0    0    0 -0.00000000000E+00 -0.00000000000E+00 -0.45593999997E+02  0.45594000000E+02  0.51100000000E-03 0.  1.
         23    2    1    2    0    0  0.00000000000E+00  0.00000000000E+00  0.00000000000E+00  0.91188000000E+02  0.91188000000E+02 0.  0.
    9900012    2    3    3    0    0  0.17005538484E+02 -0.95727137004E+01  0.35669889438E+02  0.50528853437E+02  0.29999980507E+02 0.  0.
        -12    1    3    3    0    0 -0.17005538484E+02  0.95727137004E+01 -0.35669889438E+02  0.40659146563E+02  0.00000000000E+00 0.  1.
         11    1    4    4    0    0 -0.21008843595E+01  0.21350471378E+01  0.75639426359E+01  0.81354391297E+01  0.51100000000E-03 0. -1.
        -11    1    4    4    0    0  0.86420626071E+01  0.23771204435E+01 -0.34169712721E+00  0.89695431822E+01  0.51100000000E-03 0.  1.
        -12    1    4    4    0    0  0.10464360237E+02 -0.14084881282E+02  0.28447643929E+02  0.33423871125E+02  0.00000000000E+00 0.  1.
</event>
<event>
 8    1  0.4964753E-012  0.9118800E+02  0.7816164E-02  0.1184000E+00
        -11   -1    0    0    0    0  0.00000000000E+00  0.00000000000E+00  0.45593999997E+02  0.45594000000E+02  0.51100000000E-03 0.  1.
         11   -1    0    0    0    0 -0.00000000000E+00 -0.00000000000E+00 -0.45593999997E+02  0.45594000000E+02  0.51100000000E-03 0. -1.
         23    2    1    2    0    0  0.13322676296E-14  0.71054273576E-14  0.00000000000E+00  0.91188000000E+02  0.91188000000E+02 0.  0.
    9900012    2    3    3    0    0 -0.27249173392E+01  0.39178606297E+02  0.10525044698E+02  0.50528869024E+02  0.30000027884E+02 0.  0.
         12    1    3    3    0    0  0.27249173392E+01 -0.39178606297E+02 -0.10525044698E+02  0.40659130976E+02  0.00000000000E+00 0. -1.
         11    1    4    4    0    0  0.13128085950E+01  0.93536279700E+01  0.46216864293E+01  0.10515408139E+02  0.51100000000E-03 0. -1.
        -11    1    4    4    0    0  0.51754859983E+01  0.29688628840E+02  0.26949110256E+01  0.30256617184E+02  0.51100000000E-03 0.  1.
         12    1    4    4    0    0 -0.92132119326E+01  0.13634948679E+00  0.32084472433E+01  0.97568437012E+01  0.00000000000E+00 0. -1.
</event>
<event>
 8    1  0.4964753E-012  0.9118800E+02  0.7816164E-02  0.1184000E+00
        -11   -1    0    0    0    0  0.00000000000E+00  0.00000000000E+00  0.45593999997E+02  0.45594000000E+02  0.51100000000E-03 0. -1.
         11   -1    0    0    0    0 -0.00000000000E+00 -0.00000000000E+00 -0.45593999997E+02  0.45594000000E+02  0.51100000000E-03 0.  1.
         23    2    1    2    0    0  0.14988010832E-14  0.00000000000E+00  0.00000000000E+00  0.91188000000E+02  0.91188000000E+02 0.  0.
    9900012    2    3    3    0    0 -0.30347426946E+00  0.10686989068E+02  0.39228345317E+02  0.50528844718E+02  0.29999954004E+02 0.  0.
        -12    1    3    3    0    0  0.30347426946E+00 -0.10686989068E+02 -0.39228345317E+02  0.40659155282E+02  0.00000000000E+00 0.  1.
         11    1    4    4    0    0  0.42019544734E+00  0.12086991667E+02  0.24116599970E+02  0.26979294396E+02  0.51100000000E-03 0. -1.
        -11    1    4    4    0    0  0.67618930674E+01 -0.28261234488E+01  0.84761991433E+00  0.73775762540E+01  0.51100000000E-03 0.  1.
         12    1    4    4    0    0 -0.74855627842E+01  0.14261208499E+01  0.14264125433E+02  0.16171974068E+02  0.00000000000E+00 0. -1.
</event>
<event>
 8    1  0.4964753E-012  0.9118800E+02  0.7816164E-02  0.1184000E+00
        -11   -1    0    0    0    0  0.00000000000E+00  0.00000000000E+00  0.45593999997E+02  0.45594000000E+02  0.51100000000E-03 0. -1.
         11   -1    0    0    0    0 -0.00000000000E+00 -0.00000000000E+00 -0.45593999997E+02  0.45594000000E+02  0.51100000000E-03 0.  1.
         23    2    1    2    0    0  0.00000000000E+00 -0.35527136788E-14  0.00000000000E+00  0.91188000000E+02  0.91188000000E+02 0.  0.
    9900012    2    3    3    0    0 -0.19855966272E+02 -0.18297142700E+02  0.30399355598E+02  0.50528860212E+02  0.30000001100E+02 0.  0.
        -12    1    3    3    0    0  0.19855966272E+02  0.18297142700E+02 -0.30399355598E+02  0.40659139788E+02  0.00000000000E+00 0.  1.
         11    1    4    4    0    0 -0.89375708792E+00 -0.12310070513E+01 -0.25523755096E+01  0.29713298530E+01  0.51100000000E-03 0.  1.
        -11    1    4    4    0    0 -0.45198187391E+01  0.26255780590E+01  0.18405316399E+02  0.19133167369E+02  0.51100000000E-03 0. -1.
         12    1    4    4    0    0 -0.14442390445E+02 -0.19691713707E+02  0.14546414709E+02  0.28424362990E+02  0.00000000000E+00 0. -1.
</event>
<event>
 8    1  0.4964753E-012  0.9118800E+02  0.7816164E-02  0.1184000E+00
        -11   -1    0    0    0    0  0.00000000000E+00  0.00000000000E+00  0.45593999997E+02  0.45594000000E+02  0.51100000000E-03 0. -1.
         11   -1    0    0    0    0 -0.00000000000E+00 -0.00000000000E+00 -0.45593999997E+02  0.45594000000E+02  0.51100000000E-03 0.  1.
         23    2    1    2    0    0  0.00000000000E+00  0.00000000000E+00 -0.35527136788E-14  0.91188000000E+02  0.91188000000E+02 0.  0.
    9900012    2    3    3    0    0  0.26468069346E+02 -0.21286143631E+02 -0.22349662533E+02  0.50528855630E+02  0.29999987173E+02 0.  0.
         12    1    3    3    0    0 -0.26468069346E+02  0.21286143631E+02  0.22349662533E+02  0.40659144370E+02  0.00000000000E+00 0. -1.
         11    1    4    4    0    0  0.15574062492E+02  0.26412338296E+01 -0.25544376640E+01  0.16001646499E+02  0.51100000000E-03 0. -1.
        -11    1    4    4    0    0  0.11390494058E+02 -0.13074166297E+02 -0.13454870612E+02  0.21947909301E+02  0.51100000000E-03 0.  1.
        -12    1    4    4    0    0 -0.49648720434E+00 -0.10853211163E+02 -0.63403542573E+01  0.12579299830E+02  0.00000000000E+00 0.  1.
</event>
<event>
 8    1  0.4964753E-012  0.9118800E+02  0.7816164E-02  0.1184000E+00
        -11   -1    0    0    0    0  0.00000000000E+00  0.00000000000E+00  0.45593999997E+02  0.45594000000E+02  0.51100000000E-03 0. -1.
         11   -1    0    0    0    0 -0.00000000000E+00 -0.00000000000E+00 -0.45593999997E+02  0.45594000000E+02  0.51100000000E-03 0.  1.
         23    2    1    2    0    0  0.35527136788E-14 -0.35527136788E-14 -0.35527136788E-14  0.91188000000E+02  0.91188000000E+02 0.  0.
    9900012    2    3    3    0    0  0.13092253502E+02 -0.28141676497E+02  0.26264130422E+02  0.50528860749E+02  0.30000002733E+02 0.  0.
        -12    1    3    3    0    0 -0.13092253502E+02  0.28141676497E+02 -0.26264130422E+02  0.40659139251E+02  0.00000000000E+00 0.  1.
         11    1    4    4    0    0  0.12021520884E+02 -0.13648988063E+02  0.19825366534E+02  0.26904590649E+02  0.51100000000E-03 0. -1.
        -11    1    4    4    0    0  0.59954109116E+01  0.87413309715E+00 -0.45688904111E+00  0.60760026768E+01  0.51100000000E-03 0.  1.
        -12    1    4    4    0    0 -0.49246782938E+01 -0.15366821531E+02  0.68956529290E+01  0.17548267424E+02  0.00000000000E+00 0.  1.
</event>
<event>
 8    1  0.4964753E-012  0.9118800E+02  0.7816164E-02  0.1184000E+00
        -11   -1    0    0    0    0  0.00000000000E+00  0.00000000000E+00  0.45593999997E+02  0.45594000000E+02  0.51100000000E-03 0. -1.
         11   -1    0    0    0    0 -0.00000000000E+00 -0.00000000000E+00 -0.45593999997E+02  0.45594000000E+02  0.51100000000E-03 0.  1.
         23    2    1    2    0    0  0.00000000000E+00  0.00000000000E+00  0.35527136788E-14  0.91188000000E+02  0.91188000000E+02 0.  0.
    9900012    2    3    3    0    0 -0.24448293966E+02 -0.23567471108E+02  0.22361151868E+02  0.50528857300E+02  0.29999992248E+02 0.  0.
        -12    1    3    3    0    0  0.24448293966E+02  0.23567471108E+02 -0.22361151868E+02  0.40659142700E+02  0.00000000000E+00 0.  1.
         11    1    4    4    0    0 -0.75244526006E+01 -0.67511489463E+01  0.17707245058E+02  0.20389750534E+02  0.51100000000E-03 0. -1.
        -11    1    4    4    0    0 -0.85361310861E+01 -0.16482208155E+02  0.90644916702E+01  0.20656566246E+02  0.51100000000E-03 0.  1.
        -12    1    4    4    0    0 -0.83877102795E+01 -0.33411400692E+00 -0.44105848600E+01  0.94825405198E+01  0.00000000000E+00 0.  1.
</event>
<event>
 8    1  0.4964753E-012  0.9118800E+02  0.7816164E-02  0.1184000E+00
        -11   -1    0    0    0    0  0.00000000000E+00  0.00000000000E+00  0.45593999997E+02  0.45594000000E+02  0.51100000000E-03 0. -1.
         11   -1    0    0    0    0 -0.00000000000E+00 -0.00000000000E+00 -0.45593999997E+02  0.45594000000E+02  0.51100000000E-03 0.  1.
         23    2    1    2    0    0  0.00000000000E+00  0.00000000000E+00 -0.35527136788E-14  0.91188000000E+02  0.91188000000E+02 0.  0.
    9900012    2    3    3    0    0 -0.23001909839E+02  0.15745571280E+02 -0.29599902076E+02  0.50528867274E+02  0.30000022565E+02 0.  0.
         12    1    3    3    0    0  0.23001909839E+02 -0.15745571280E+02  0.29599902076E+02  0.40659132726E+02  0.00000000000E+00 0. -1.
         11    1    4    4    0    0  0.43276718770E+01 -0.74127302875E+00 -0.98545411883E+01  0.10788429537E+02  0.51100000000E-03 0. -1.
        -11    1    4    4    0    0 -0.19305642712E+01  0.17610585221E+00  0.18073657463E+01  0.26504080589E+01  0.51100000000E-03 0.  1.
        -12    1    4    4    0    0 -0.25399017445E+02  0.16310738456E+02 -0.21552726634E+02  0.37090029678E+02  0.00000000000E+00 0.  1.
</event>
<event>
 8    1  0.4964753E-012  0.9118800E+02  0.7816164E-02  0.1184000E+00
        -11   -1    0    0    0    0  0.00000000000E+00  0.00000000000E+00  0.45593999997E+02  0.45594000000E+02  0.51100000000E-03 0. -1.
         11   -1    0    0    0    0 -0.00000000000E+00 -0.00000000000E+00 -0.45593999997E+02  0.45594000000E+02  0.51100000000E-03 0.  1.
         23    2    1    2    0    0  0.35527136788E-14 -0.35527136788E-14 -0.35527136788E-14  0.91188000000E+02  0.91188000000E+02 0.  0.
    9900012    2    3    3    0    0 -0.31026762398E+02  0.20032860969E+02  0.17005596701E+02  0.50528858068E+02  0.29999994583E+02 0.  0.
        -12    1    3    3    0    0  0.31026762398E+02 -0.20032860969E+02 -0.17005596701E+02  0.40659141932E+02  0.00000000000E+00 0.  1.
         11    1    4    4    0    0 -0.32980910154E+01 -0.98528403149E+00  0.41784566615E+01  0.54136576639E+01  0.51100000000E-03 0. -1.
        -11    1    4    4    0    0 -0.68063898546E+01  0.16162950193E+01  0.14946734121E+02  0.16502854710E+02  0.51100000000E-03 0.  1.
        -12    1    4    4    0    0 -0.20922281528E+02  0.19401849981E+02 -0.21195940817E+01  0.28612345694E+02  0.00000000000E+00 0.  1.
</event>
<event>
 8    1  0.4964753E-012  0.9118800E+02  0.7816164E-02  0.1184000E+00
        -11   -1    0    0    0    0  0.00000000000E+00  0.00000000000E+00  0.45593999997E+02  0.45594000000E+02  0.51100000000E-03 0. -1.
         11   -1    0    0    0    0 -0.00000000000E+00 -0.00000000000E+00 -0.45593999997E+02  0.45594000000E+02  0.51100000000E-03 0.  1.
         23    2    1    2    0    0 -0.66613381478E-15  0.00000000000E+00  0.00000000000E+00  0.91188000000E+02  0.91188000000E+02 0.  0.
    9900012    2    3    3    0    0  0.13599551263E+01  0.33483609166E+02 -0.23025287864E+02  0.50528862749E+02  0.30000008812E+02 0.  0.
         12    1    3    3    0    0 -0.13599551263E+01 -0.33483609166E+02  0.23025287864E+02  0.40659137251E+02  0.00000000000E+00 0. -1.
         11    1    4    4    0    0  0.97416929543E+01  0.12389129868E+02 -0.66610454699E+01  0.17110249779E+02  0.51100000000E-03 0. -1.
        -11    1    4    4    0    0  0.29062245066E+00  0.15885163604E+02 -0.17016996945E+02  0.23280916421E+02  0.51100000000E-03 0.  1.
        -12    1    4    4    0    0 -0.86723602787E+01  0.52093156947E+01  0.65275455038E+00  0.10137696549E+02  0.00000000000E+00 0.  1.
</event>
<event>
 8    1  0.4964753E-012  0.9118800E+02  0.7816164E-02  0.1184000E+00
        -11   -1    0    0    0    0  0.00000000000E+00  0.00000000000E+00  0.45593999997E+02  0.45594000000E+02  0.51100000000E-03 0. -1.
         11   -1    0    0    0    0 -0.00000000000E+00 -0.00000000000E+00 -0.45593999997E+02  0.45594000000E+02  0.51100000000E-03 0.  1.
         23    2    1    2    0    0  0.00000000000E+00  0.00000000000E+00  0.00000000000E+00  0.91188000000E+02  0.91188000000E+02 0.  0.
    9900012    2    3    3    0    0  0.27346492851E+02 -0.22602234219E+02 -0.19861370840E+02  0.50528859397E+02  0.29999998623E+02 0.  0.
         12    1    3    3    0    0 -0.27346492851E+02  0.22602234219E+02  0.19861370840E+02  0.40659140603E+02  0.00000000000E+00 0. -1.
         11    1    4    4    0    0 -0.23778900221E+01 -0.76344364406E+01  0.14936305549E+00  0.79975802782E+01  0.51100000000E-03 0. -1.
        -11    1    4    4    0    0  0.77738354405E+01 -0.13055516104E+02 -0.10841119709E+02  0.18665714425E+02  0.51100000000E-03 0.  1.
         12    1    4    4    0    0  0.21950547433E+02 -0.19122816740E+01 -0.91696141864E+01  0.23865564693E+02  0.00000000000E+00 0. -1.
</event>
<event>
 8    1  0.4964753E-012  0.9118800E+02  0.7816164E-02  0.1184000E+00
        -11   -1    0    0    0    0  0.00000000000E+00  0.00000000000E+00  0.45593999997E+02  0.45594000000E+02  0.51100000000E-03 0.  1.
         11   -1    0    0    0    0 -0.00000000000E+00 -0.00000000000E+00 -0.45593999997E+02  0.45594000000E+02  0.51100000000E-03 0. -1.
         23    2    1    2    0    0 -0.35527136788E-14  0.35527136788E-14  0.88817841970E-15  0.91188000000E+02  0.91188000000E+02 0.  0.
    9900012    2    3    3    0    0  0.31934843723E+02 -0.24069928062E+02  0.73464257564E+01  0.50528860168E+02  0.30000000966E+02 0.  0.
         12    1    3    3    0    0 -0.31934843723E+02  0.24069928062E+02 -0.73464257564E+01  0.40659139832E+02  0.00000000000E+00 0. -1.
         11    1    4    4    0    0  0.31435091744E+01 -0.14372836516E+02 -0.73475190357E+00  0.14730917828E+02  0.51100000000E-03 0. -1.
        -11    1    4    4    0    0  0.11747245832E+02 -0.53347056769E+01 -0.50390169217E+01  0.13850940802E+02  0.51100000000E-03 0.  1.
        -12    1    4    4    0    0  0.17044088716E+02 -0.43623858693E+01  0.13120194582E+02  0.21947001538E+02  0.00000000000E+00 0.  1.
</event>
<event>
 8    1  0.4964753E-012  0.9118800E+02  0.7816164E-02  0.1184000E+00
        -11   -1    0    0    0    0  0.00000000000E+00  0.00000000000E+00  0.45593999997E+02  0.45594000000E+02  0.51100000000E-03 0. -1.
         11   -1    0    0    0    0 -0.00000000000E+00 -0.00000000000E+00 -0.45593999997E+02  0.45594000000E+02  0.51100000000E-03 0.  1.
         23    2    1    2    0    0  0.00000000000E+00  0.71054273576E-14  0.00000000000E+00  0.91188000000E+02  0.91188000000E+02 0.  0.
    9900012    2    3    3    0    0  0.15991052755E+02 -0.34738289991E+02 -0.13809461623E+02  0.50528883064E+02  0.30000070561E+02 0.  0.
         12    1    3    3    0    0 -0.15991052755E+02  0.34738289991E+02  0.13809461623E+02  0.40659116936E+02  0.00000000000E+00 0. -1.
         11    1    4    4    0    0  0.19442150562E+01 -0.87872982466E+00 -0.11361169789E+02  0.11559771517E+02  0.51100000000E-03 0. -1.
        -11    1    4    4    0    0  0.70444733121E+01 -0.13085484602E+02 -0.72371117554E+01  0.16529679317E+02  0.51100000000E-03 0.  1.
        -12    1    4    4    0    0  0.70023643863E+01 -0.20774075565E+02  0.47888199216E+01  0.22439432230E+02  0.00000000000E+00 0.  1.
</event>
<event>
 8    1  0.4964753E-012  0.9118800E+02  0.7816164E-02  0.1184000E+00
        -11   -1    0    0    0    0  0.00000000000E+00  0.00000000000E+00  0.45593999997E+02  0.45594000000E+02  0.51100000000E-03 0. -1.
         11   -1    0    0    0    0 -0.00000000000E+00 -0.00000000000E+00 -0.45593999997E+02  0.45594000000E+02  0.51100000000E-03 0.  1.
         23    2    1    2    0    0  0.00000000000E+00  0.35527136788E-14 -0.35527136788E-14  0.91188000000E+02  0.91188000000E+02 0.  0.
    9900012    2    3    3    0    0  0.19729045554E+02  0.18649799365E+02 -0.30267401910E+02  0.50528857447E+02  0.29999992695E+02 0.  0.
         12    1    3    3    0    0 -0.19729045554E+02 -0.18649799365E+02  0.30267401910E+02  0.40659142553E+02  0.00000000000E+00 0. -1.
         11    1    4    4    0    0 -0.16570564633E+01  0.46341392612E+01  0.19808252863E+01  0.53051627582E+01  0.51100000000E-03 0. -1.
        -11    1    4    4    0    0 -0.10258318774E+01  0.19293288028E+01 -0.13314559065E+02  0.13492669270E+02  0.51100000000E-03 0.  1.
        -12    1    4    4    0    0  0.22411933894E+02  0.12086331301E+02 -0.18933668131E+02  0.31731025418E+02  0.00000000000E+00 0.  1.
</event>
<event>
 8    1  0.4964753E-012  0.9118800E+02  0.7816164E-02  0.1184000E+00
        -11   -1    0    0    0    0  0.00000000000E+00  0.00000000000E+00  0.45593999997E+02  0.45594000000E+02  0.51100000000E-03 0. -1.
         11   -1    0    0    0    0 -0.00000000000E+00 -0.00000000000E+00 -0.45593999997E+02  0.45594000000E+02  0.51100000000E-03 0.  1.
         23    2    1    2    0    0 -0.17763568394E-14  0.00000000000E+00  0.35527136788E-14  0.91188000000E+02  0.91188000000E+02 0.  0.
    9900012    2    3    3    0    0 -0.13416843362E+02  0.23547256245E+02 -0.30309745649E+02  0.50528860268E+02  0.30000001270E+02 0.  0.
         12    1    3    3    0    0  0.13416843362E+02 -0.23547256245E+02  0.30309745649E+02  0.40659139732E+02  0.00000000000E+00 0. -1.
         11    1    4    4    0    0 -0.33631817125E+01 -0.13947997944E+01 -0.26629340882E+01  0.45108398239E+01  0.51100000000E-03 0. -1.
        -11    1    4    4    0    0 -0.15757978014E+02  0.17154063120E+02 -0.27919786016E+02  0.36360558357E+02  0.51100000000E-03 0.  1.
         12    1    4    4    0    0  0.57043163643E+01  0.77879929194E+01  0.27297445559E+00  0.96574620863E+01  0.00000000000E+00 0. -1.
</event>
<event>
 8    1  0.4964753E-012  0.9118800E+02  0.7816164E-02  0.1184000E+00
        -11   -1    0    0    0    0  0.00000000000E+00  0.00000000000E+00  0.45593999997E+02  0.45594000000E+02  0.51100000000E-03 0. -1.
         11   -1    0    0    0    0 -0.00000000000E+00 -0.00000000000E+00 -0.45593999997E+02  0.45594000000E+02  0.51100000000E-03 0.  1.
         23    2    1    2    0    0  0.35527136788E-14 -0.88817841970E-15  0.00000000000E+00  0.91188000000E+02  0.91188000000E+02 0.  0.
    9900012    2    3    3    0    0  0.26909113456E+02 -0.43097421298E+01  0.30174349872E+02  0.50528860137E+02  0.30000000873E+02 0.  0.
        -12    1    3    3    0    0 -0.26909113456E+02  0.43097421298E+01 -0.30174349872E+02  0.40659139863E+02  0.00000000000E+00 0.  1.
         11    1    4    4    0    0 -0.17516747971E+01 -0.51735498014E+00 -0.11762548412E+01  0.21724632293E+01  0.51100000000E-03 0.  1.
        -11    1    4    4    0    0  0.31724268940E+02 -0.68342761724E+01  0.28431497521E+02  0.43144948976E+02  0.51100000000E-03 0. -1.
         12    1    4    4    0    0 -0.30634806875E+01  0.30418890228E+01  0.29191071920E+01  0.52114479320E+01  0.00000000000E+00 0. -1.
</event>
<event>
 8    1  0.4964753E-012  0.9118800E+02  0.7816164E-02  0.1184000E+00
        -11   -1    0    0    0    0  0.00000000000E+00  0.00000000000E+00  0.45593999997E+02  0.45594000000E+02  0.51100000000E-03 0. -1.
         11   -1    0    0    0    0 -0.00000000000E+00 -0.00000000000E+00 -0.45593999997E+02  0.45594000000E+02  0.51100000000E-03 0.  1.
         23    2    1    2    0    0  0.35527136788E-14  0.00000000000E+00  0.00000000000E+00  0.91188000000E+02  0.91188000000E+02 0.  0.
    9900012    2    3    3    0    0 -0.19431105108E+02  0.57132324756E+01 -0.35255589025E+02  0.50528862915E+02  0.30000009316E+02 0.  0.
         12    1    3    3    0    0  0.19431105108E+02 -0.57132324756E+01  0.35255589025E+02  0.40659137085E+02  0.00000000000E+00 0. -1.
         11    1    4    4    0    0  0.12298914245E+01  0.31144605269E+01 -0.13077229295E+02  0.13499126771E+02  0.51100000000E-03 0. -1.
        -11    1    4    4    0    0 -0.14810000366E+02 -0.26485332713E+01 -0.24573730486E+02  0.28813522340E+02  0.51100000000E-03 0.  1.
        -12    1    4    4    0    0 -0.58509961667E+01  0.52473052200E+01  0.23953707566E+01  0.82162138042E+01  0.00000000000E+00 0.  1.
</event>
<event>
 8    1  0.4964753E-012  0.9118800E+02  0.7816164E-02  0.1184000E+00
        -11   -1    0    0    0    0  0.00000000000E+00  0.00000000000E+00  0.45593999997E+02  0.45594000000E+02  0.51100000000E-03 0. -1.
         11   -1    0    0    0    0 -0.00000000000E+00 -0.00000000000E+00 -0.45593999997E+02  0.45594000000E+02  0.51100000000E-03 0.  1.
         23    2    1    2    0    0  0.00000000000E+00  0.17763568394E-14  0.00000000000E+00  0.91188000000E+02  0.91188000000E+02 0.  0.
    9900012    2    3    3    0    0  0.65317657538E+01  0.95929814185E+01 -0.38967552489E+02  0.50528937009E+02  0.30000234531E+02 0.  0.
         12    1    3    3    0    0 -0.65317657538E+01 -0.95929814185E+01  0.38967552489E+02  0.40659062991E+02  0.00000000000E+00 0. -1.
         11    1    4    4    0    0 -0.22356082052E+01  0.55987296512E+01  0.16763151511E+01  0.62572957819E+01  0.51100000000E-03 0. -1.
        -11    1    4    4    0    0  0.89551156856E+01  0.44785251084E+01 -0.12023632843E+02  0.15646693935E+02  0.51100000000E-03 0.  1.
         12    1    4    4    0    0 -0.18774172668E+00 -0.48427334108E+00 -0.28620234797E+02  0.28624947292E+02  0.00000000000E+00 0. -1.
</event>
<event>
 8    1  0.4964753E-012  0.9118800E+02  0.7816164E-02  0.1184000E+00
        -11   -1    0    0    0    0  0.00000000000E+00  0.00000000000E+00  0.45593999997E+02  0.45594000000E+02  0.51100000000E-03 0. -1.
         11   -1    0    0    0    0 -0.00000000000E+00 -0.00000000000E+00 -0.45593999997E+02  0.45594000000E+02  0.51100000000E-03 0.  1.
         23    2    1    2    0    0  0.00000000000E+00  0.00000000000E+00  0.00000000000E+00  0.91188000000E+02  0.91188000000E+02 0.  0.
    9900012    2    3    3    0    0  0.18829632538E+02 -0.29035738754E+02  0.21343322926E+02  0.50528848262E+02  0.29999964777E+02 0.  0.
        -12    1    3    3    0    0 -0.18829632538E+02  0.29035738754E+02 -0.21343322926E+02  0.40659151738E+02  0.00000000000E+00 0.  1.
         11    1    4    4    0    0  0.91793600699E+01 -0.23921814712E+02  0.24226143221E+01  0.25736801100E+02  0.51100000000E-03 0. -1.
        -11    1    4    4    0    0 -0.58498693716E+00  0.81790381773E+00  0.98075614759E+01  0.98589775705E+01  0.51100000000E-03 0.  1.
        -12    1    4    4    0    0  0.10235259405E+02 -0.59318278594E+01  0.91131471284E+01  0.14933069592E+02  0.00000000000E+00 0.  1.
</event>
<event>
 8    1  0.4964753E-012  0.9118800E+02  0.7816164E-02  0.1184000E+00
        -11   -1    0    0    0    0  0.00000000000E+00  0.00000000000E+00  0.45593999997E+02  0.45594000000E+02  0.51100000000E-03 0. -1.
         11   -1    0    0    0    0 -0.00000000000E+00 -0.00000000000E+00 -0.45593999997E+02  0.45594000000E+02  0.51100000000E-03 0.  1.
         23    2    1    2    0    0  0.17763568394E-14  0.17763568394E-14  0.00000000000E+00  0.91188000000E+02  0.91188000000E+02 0.  0.
    9900012    2    3    3    0    0 -0.14495831189E+02 -0.13384776927E+02 -0.35551142650E+02  0.50528866721E+02  0.30000020886E+02 0.  0.
         12    1    3    3    0    0  0.14495831189E+02  0.13384776927E+02  0.35551142650E+02  0.40659133279E+02  0.00000000000E+00 0. -1.
         11    1    4    4    0    0 -0.31402725633E+01 -0.10033575780E+02 -0.65842513330E+01  0.12405092526E+02  0.51100000000E-03 0. -1.
        -11    1    4    4    0    0  0.21456952985E+01 -0.55245229792E+01 -0.21984362179E+02  0.22769201636E+02  0.51100000000E-03 0.  1.
         12    1    4    4    0    0 -0.13501253924E+02  0.21733218324E+01 -0.69825291384E+01  0.15354572560E+02  0.00000000000E+00 0. -1.
</event>
<event>
 8    1  0.4964753E-012  0.9118800E+02  0.7816164E-02  0.1184000E+00
        -11   -1    0    0    0    0  0.00000000000E+00  0.00000000000E+00  0.45593999997E+02  0.45594000000E+02  0.51100000000E-03 0. -1.
         11   -1    0    0    0    0 -0.00000000000E+00 -0.00000000000E+00 -0.45593999997E+02  0.45594000000E+02  0.51100000000E-03 0.  1.
         23    2    1    2    0    0  0.00000000000E+00 -0.22204460493E-15  0.35527136788E-14  0.91188000000E+02  0.91188000000E+02 0.  0.
    9900012    2    3    3    0    0 -0.30333805778E+02 -0.65023297555E+00 -0.27066638678E+02  0.50528861971E+02  0.30000006446E+02 0.  0.
         12    1    3    3    0    0  0.30333805778E+02  0.65023297555E+00  0.27066638678E+02  0.40659138029E+02  0.00000000000E+00 0. -1.
         11    1    4    4    0    0 -0.14005401998E+02 -0.84510409896E+01 -0.43820687986E+01  0.16934400082E+02  0.51100000000E-03 0. -1.
        -11    1    4    4    0    0  0.44977746095E+00 -0.31752588150E+01 -0.83587044248E+01  0.89527933199E+01  0.51100000000E-03 0.  1.
        -12    1    4    4    0    0 -0.16778181241E+02  0.10976066829E+02 -0.14325865455E+02  0.24641668568E+02  0.00000000000E+00 0.  1.
</event>
<event>
 8    1  0.4964753E-012  0.9118800E+02  0.7816164E-02  0.1184000E+00
        -11   -1    0    0    0    0  0.00000000000E+00  0.00000000000E+00  0.45593999997E+02  0.45594000000E+02  0.51100000000E-03 0. -1.
         11   -1    0    0    0    0 -0.00000000000E+00 -0.00000000000E+00 -0.45593999997E+02  0.45594000000E+02  0.51100000000E-03 0.  1.
         23    2    1    2    0    0  0.00000000000E+00  0.00000000000E+00 -0.71054273576E-14  0.91188000000E+02  0.91188000000E+02 0.  0.
    9900012    2    3    3    0    0 -0.10037232159E+01  0.10734927039E+02  0.39203551930E+02  0.50528873069E+02  0.30000040181E+02 0.  0.
        -12    1    3    3    0    0  0.10037232159E+01 -0.10734927039E+02 -0.39203551930E+02  0.40659126931E+02  0.00000000000E+00 0.  1.
         11    1    4    4    0    0  0.72550434256E+01  0.39226865254E+01  0.11851234567E+02  0.14438659415E+02  0.51100000000E-03 0. -1.
        -11    1    4    4    0    0 -0.14180425403E+01  0.12716926763E+02  0.90316781526E+01  0.15662128893E+02  0.51100000000E-03 0.  1.
         12    1    4    4    0    0 -0.68407241011E+01 -0.59046862496E+01  0.18320639211E+02  0.20428084762E+02  0.00000000000E+00 0. -1.
</event>
<event>
 8    1  0.4964753E-012  0.9118800E+02  0.7816164E-02  0.1184000E+00
        -11   -1    0    0    0    0  0.00000000000E+00  0.00000000000E+00  0.45593999997E+02  0.45594000000E+02  0.51100000000E-03 0. -1.
         11   -1    0    0    0    0 -0.00000000000E+00 -0.00000000000E+00 -0.45593999997E+02  0.45594000000E+02  0.51100000000E-03 0.  1.
         23    2    1    2    0    0  0.00000000000E+00 -0.71054273576E-14 -0.17763568394E-14  0.91188000000E+02  0.91188000000E+02 0.  0.
    9900012    2    3    3    0    0  0.15780620257E+02  0.35830495432E+02  0.10968937029E+02  0.50528807212E+02  0.29999840002E+02 0.  0.
        -12    1    3    3    0    0 -0.15780620257E+02 -0.35830495432E+02 -0.10968937029E+02  0.40659192788E+02  0.00000000000E+00 0.  1.
         11    1    4    4    0    0  0.38660847705E+01  0.33756006159E+02  0.46587624739E+01  0.34294586035E+02  0.51100000000E-03 0. -1.
        -11    1    4    4    0    0 -0.58276998985E+00  0.15013665522E+01 -0.84856993325E+00  0.18203828108E+01  0.51100000000E-03 0.  1.
        -12    1    4    4    0    0  0.12497305476E+02  0.57312272105E+00  0.71587444886E+01  0.14413838367E+02  0.00000000000E+00 0.  1.
</event>
<event>
 8    1  0.4964753E-012  0.9118800E+02  0.7816164E-02  0.1184000E+00
        -11   -1    0    0    0    0  0.00000000000E+00  0.00000000000E+00  0.45593999997E+02  0.45594000000E+02  0.51100000000E-03 0. -1.
         11   -1    0    0    0    0 -0.00000000000E+00 -0.00000000000E+00 -0.45593999997E+02  0.45594000000E+02  0.51100000000E-03 0.  1.
         23    2    1    2    0    0  0.00000000000E+00  0.00000000000E+00  0.00000000000E+00  0.91188000000E+02  0.91188000000E+02 0.  0.
    9900012    2    3    3    0    0  0.22935372447E+02  0.23492907817E+02  0.23983700370E+02  0.50528856988E+02  0.29999991302E+02 0.  0.
        -12    1    3    3    0    0 -0.22935372447E+02 -0.23492907817E+02 -0.23983700370E+02  0.40659143012E+02  0.00000000000E+00 0.  1.
         11    1    4    4    0    0  0.47299539521E+00  0.74480927680E+01 -0.18226969490E+01  0.76824498016E+01  0.51100000000E-03 0. -1.
        -11    1    4    4    0    0  0.14702484259E+02 -0.10581225563E+01  0.71839158674E+01  0.16397905787E+02  0.51100000000E-03 0.  1.
         12    1    4    4    0    0  0.77598927929E+01  0.17102937606E+02  0.18622481452E+02  0.26448501400E+02  0.00000000000E+00 0. -1.
</event>
<event>
 8    1  0.4964753E-012  0.9118800E+02  0.7816164E-02  0.1184000E+00
        -11   -1    0    0    0    0  0.00000000000E+00  0.00000000000E+00  0.45593999997E+02  0.45594000000E+02  0.51100000000E-03 0. -1.
         11   -1    0    0    0    0 -0.00000000000E+00 -0.00000000000E+00 -0.45593999997E+02  0.45594000000E+02  0.51100000000E-03 0.  1.
         23    2    1    2    0    0  0.00000000000E+00  0.44408920985E-15  0.00000000000E+00  0.91188000000E+02  0.91188000000E+02 0.  0.
    9900012    2    3    3    0    0 -0.23806371036E+02 -0.24385794268E+01  0.32870562582E+02  0.50528882253E+02  0.30000068095E+02 0.  0.
        -12    1    3    3    0    0  0.23806371036E+02  0.24385794268E+01 -0.32870562582E+02  0.40659117747E+02  0.00000000000E+00 0.  1.
         11    1    4    4    0    0 -0.18215319279E+02 -0.14551601471E+02  0.17450539422E+02  0.29121612047E+02  0.51100000000E-03 0. -1.
        -11    1    4    4    0    0  0.12078205946E+01  0.75416492798E+00  0.62726920856E+00  0.15559763008E+01  0.51100000000E-03 0.  1.
         12    1    4    4    0    0 -0.67988723512E+01  0.11358857116E+02  0.14792753951E+02  0.19851293905E+02  0.00000000000E+00 0. -1.
</event>
<event>
 8    1  0.4964753E-012  0.9118800E+02  0.7816164E-02  0.1184000E+00
        -11   -1    0    0    0    0  0.00000000000E+00  0.00000000000E+00  0.45593999997E+02  0.45594000000E+02  0.51100000000E-03 0. -1.
         11   -1    0    0    0    0 -0.00000000000E+00 -0.00000000000E+00 -0.45593999997E+02  0.45594000000E+02  0.51100000000E-03 0.  1.
         23    2    1    2    0    0  0.00000000000E+00  0.00000000000E+00  0.71054273576E-14  0.91188000000E+02  0.91188000000E+02 0.  0.
    9900012    2    3    3    0    0  0.94960131168E+01 -0.22268439450E+02 -0.32666616699E+02  0.50528861947E+02  0.30000006374E+02 0.  0.
         12    1    3    3    0    0 -0.94960131168E+01  0.22268439450E+02  0.32666616699E+02  0.40659138053E+02  0.00000000000E+00 0. -1.
         11    1    4    4    0    0  0.18036349408E+01  0.40058782940E+01  0.14494979980E+01  0.46261436006E+01  0.51100000000E-03 0. -1.
        -11    1    4    4    0    0 -0.26760395378E+01 -0.14847863615E+02 -0.19446025798E+02  0.24612357895E+02  0.51100000000E-03 0.  1.
        -12    1    4    4    0    0  0.10368417714E+02 -0.11426454129E+02 -0.14670088899E+02  0.21290360452E+02  0.00000000000E+00 0.  1.
</event>
<event>
 8    1  0.4964753E-012  0.9118800E+02  0.7816164E-02  0.1184000E+00
        -11   -1    0    0    0    0  0.00000000000E+00  0.00000000000E+00  0.45593999997E+02  0.45594000000E+02  0.51100000000E-03 0. -1.
         11   -1    0    0    0    0 -0.00000000000E+00 -0.00000000000E+00 -0.45593999997E+02  0.45594000000E+02  0.51100000000E-03 0.  1.
         23    2    1    2    0    0 -0.22204460493E-15  0.00000000000E+00  0.00000000000E+00  0.91188000000E+02  0.91188000000E+02 0.  0.
    9900012    2    3    3    0    0 -0.94741196103E+00  0.33740264556E+02 -0.22668440665E+02  0.50528914374E+02  0.30000165731E+02 0.  0.
         12    1    3    3    0    0  0.94741196103E+00 -0.33740264556E+02  0.22668440665E+02  0.40659085626E+02  0.00000000000E+00 0. -1.
         11    1    4    4    0    0 -0.26266275813E+01 -0.45211140875E+01 -0.43078564432E+01  0.67747525741E+01  0.51100000000E-03 0. -1.
        -11    1    4    4    0    0  0.94142910678E+00  0.53909186593E+01 -0.71771134992E+01  0.90254778929E+01  0.51100000000E-03 0.  1.
        -12    1    4    4    0    0  0.73778651352E+00  0.32870459984E+02 -0.11183470723E+02  0.34728683907E+02  0.00000000000E+00 0.  1.
</event>
<event>
 8    1  0.4964753E-012  0.9118800E+02  0.7816164E-02  0.1184000E+00
        -11   -1    0    0    0    0  0.00000000000E+00  0.00000000000E+00  0.45593999997E+02  0.45594000000E+02  0.51100000000E-03 0. -1.
         11   -1    0    0    0    0 -0.00000000000E+00 -0.00000000000E+00 -0.45593999997E+02  0.45594000000E+02  0.51100000000E-03 0.  1.
         23    2    1    2    0    0  0.17763568394E-14  0.35527136788E-14  0.00000000000E+00  0.91188000000E+02  0.91188000000E+02 0.  0.
    9900012    2    3    3    0    0 -0.80294145818E+01 -0.27791757266E+02 -0.28571170161E+02  0.50528867756E+02  0.30000024032E+02 0.  0.
         12    1    3    3    0    0  0.80294145818E+01  0.27791757266E+02  0.28571170161E+02  0.40659132244E+02  0.00000000000E+00 0. -1.
         11    1    4    4    0    0  0.18106478420E+01 -0.51382824474E+01  0.35033590077E+01  0.64771843200E+01  0.51100000000E-03 0. -1.
        -11    1    4    4    0    0  0.49604009323E+01 -0.44848813079E+01 -0.84502091160E+01  0.10776166857E+02  0.51100000000E-03 0.  1.
         12    1    4    4    0    0 -0.14800463356E+02 -0.18168593511E+02 -0.23624320052E+02  0.33275516580E+02  0.00000000000E+00 0. -1.
</event>
<event>
 8    1  0.4964753E-012  0.9118800E+02  0.7816164E-02  0.1184000E+00
        -11   -1    0    0    0    0  0.00000000000E+00  0.00000000000E+00  0.45593999997E+02  0.45594000000E+02  0.51100000000E-03 0. -1.
         11   -1    0    0    0    0 -0.00000000000E+00 -0.00000000000E+00 -0.45593999997E+02  0.45594000000E+02  0.51100000000E-03 0.  1.
         23    2    1    2    0    0 -0.27755575616E-15  0.00000000000E+00 -0.71054273576E-14  0.91188000000E+02  0.91188000000E+02 0.  0.
    9900012    2    3    3    0    0 -0.30426040049E+00  0.10643970374E+02  0.39240029406E+02  0.50528848662E+02  0.29999965993E+02 0.  0.
        -12    1    3    3    0    0  0.30426040049E+00 -0.10643970374E+02 -0.39240029406E+02  0.40659151338E+02  0.00000000000E+00 0.  1.
         11    1    4    4    0    0  0.40313782034E+01  0.14402895265E+02  0.26129976105E+02  0.30107657726E+02  0.51100000000E-03 0. -1.
        -11    1    4    4    0    0 -0.38448418851E+01  0.75825131714E+00  0.14997462615E+02  0.15501020590E+02  0.51100000000E-03 0.  1.
        -12    1    4    4    0    0 -0.49079671883E+00 -0.45171762081E+01 -0.18874093137E+01  0.49201703458E+01  0.00000000000E+00 0.  1.
</event>
<event>
 8    1  0.4964753E-012  0.9118800E+02  0.7816164E-02  0.1184000E+00
        -11   -1    0    0    0    0  0.00000000000E+00  0.00000000000E+00  0.45593999997E+02  0.45594000000E+02  0.51100000000E-03 0. -1.
         11   -1    0    0    0    0 -0.00000000000E+00 -0.00000000000E+00 -0.45593999997E+02  0.45594000000E+02  0.51100000000E-03 0.  1.
         23    2    1    2    0    0 -0.17763568394E-14 -0.44408920985E-15  0.00000000000E+00  0.91188000000E+02  0.91188000000E+02 0.  0.
    9900012    2    3    3    0    0 -0.12042939625E+02 -0.26460070701E+01  0.38744443320E+02  0.50528860359E+02  0.30000001546E+02 0.  0.
        -12    1    3    3    0    0  0.12042939625E+02  0.26460070701E+01 -0.38744443320E+02  0.40659139641E+02  0.00000000000E+00 0.  1.
         11    1    4    4    0    0  0.50911542575E+00  0.39553377285E+01  0.80743634869E+00  0.40688879048E+01  0.51100000000E-03 0. -1.
        -11    1    4    4    0    0 -0.92808043902E+00 -0.74803901622E+01  0.85171605058E+00  0.75857096419E+01  0.51100000000E-03 0.  1.
         12    1    4    4    0    0 -0.11623974612E+02  0.87904536352E+00  0.37085290920E+02  0.38874262812E+02  0.00000000000E+00 0. -1.
</event>
<event>
 8    1  0.4964753E-012  0.9118800E+02  0.7816164E-02  0.1184000E+00
        -11   -1    0    0    0    0  0.00000000000E+00  0.00000000000E+00  0.45593999997E+02  0.45594000000E+02  0.51100000000E-03 0. -1.
         11   -1    0    0    0    0 -0.00000000000E+00 -0.00000000000E+00 -0.45593999997E+02  0.45594000000E+02  0.51100000000E-03 0.  1.
         23    2    1    2    0    0  0.00000000000E+00  0.88817841970E-15  0.00000000000E+00  0.91188000000E+02  0.91188000000E+02 0.  0.
    9900012    2    3    3    0    0  0.81424956430E+01 -0.62455228410E+01 -0.39342824859E+02  0.50528872381E+02  0.30000038088E+02 0.  0.
         12    1    3    3    0    0 -0.81424956430E+01  0.62455228410E+01  0.39342824859E+02  0.40659127619E+02  0.00000000000E+00 0. -1.
         11    1    4    4    0    0  0.17241506799E+01  0.50151847602E+01 -0.22360347936E+01  0.57553996912E+01  0.51100000000E-03 0. -1.
        -11    1    4    4    0    0 -0.57975234494E+01  0.21297640738E+01 -0.51827472357E+01  0.80627564968E+01  0.51100000000E-03 0.  1.
        -12    1    4    4    0    0  0.12215868413E+02 -0.13390471675E+02 -0.31924042830E+02  0.36710716193E+02  0.00000000000E+00 0.  1.
</event>
<event>
 8    1  0.4964753E-012  0.9118800E+02  0.7816164E-02  0.1184000E+00
        -11   -1    0    0    0    0  0.00000000000E+00  0.00000000000E+00  0.45593999997E+02  0.45594000000E+02  0.51100000000E-03 0. -1.
         11   -1    0    0    0    0 -0.00000000000E+00 -0.00000000000E+00 -0.45593999997E+02  0.45594000000E+02  0.51100000000E-03 0.  1.
         23    2    1    2    0    0  0.35527136788E-14  0.35527136788E-14 -0.35527136788E-14  0.91188000000E+02  0.91188000000E+02 0.  0.
    9900012    2    3    3    0    0  0.25001651055E+02  0.26268694275E+02 -0.18385881712E+02  0.50528837432E+02  0.29999931859E+02 0.  0.
         12    1    3    3    0    0 -0.25001651055E+02 -0.26268694275E+02  0.18385881712E+02  0.40659162568E+02  0.00000000000E+00 0. -1.
         11    1    4    4    0    0  0.12628970383E+02  0.49700143398E+01  0.24731544951E+00  0.13573986175E+02  0.51100000000E-03 0. -1.
        -11    1    4    4    0    0  0.71636056921E+01 -0.43234225237E+00 -0.11392354065E+02  0.13464393701E+02  0.51100000000E-03 0.  1.
        -12    1    4    4    0    0  0.52090749794E+01  0.21731022188E+02 -0.72408430963E+01  0.23490457556E+02  0.00000000000E+00 0.  1.
</event>
<event>
 8    1  0.4964753E-012  0.9118800E+02  0.7816164E-02  0.1184000E+00
        -11   -1    0    0    0    0  0.00000000000E+00  0.00000000000E+00  0.45593999997E+02  0.45594000000E+02  0.51100000000E-03 0.  1.
         11   -1    0    0    0    0 -0.00000000000E+00 -0.00000000000E+00 -0.45593999997E+02  0.45594000000E+02  0.51100000000E-03 0. -1.
         23    2    1    2    0    0  0.17763568394E-14  0.35527136788E-14  0.71054273576E-14  0.91188000000E+02  0.91188000000E+02 0.  0.
    9900012    2    3    3    0    0  0.12659405332E+02  0.15405532688E+02  0.35434081574E+02  0.50528866736E+02  0.30000020931E+02 0.  0.
        -12    1    3    3    0    0 -0.12659405332E+02 -0.15405532688E+02 -0.35434081574E+02  0.40659133264E+02  0.00000000000E+00 0.  1.
         11    1    4    4    0    0  0.61636250519E+01  0.13938377798E+01 -0.23232585618E+01  0.67327994284E+01  0.51100000000E-03 0. -1.
        -11    1    4    4    0    0  0.91787301204E+01  0.34776870547E+01  0.10121561814E+02  0.14099269758E+02  0.51100000000E-03 0.  1.
        -12    1    4    4    0    0 -0.26829498401E+01  0.10534007854E+02  0.27635778321E+02  0.29696797550E+02  0.00000000000E+00 0.  1.
</event>
<event>
 8    1  0.4964753E-012  0.9118800E+02  0.7816164E-02  0.1184000E+00
        -11   -1    0    0    0    0  0.00000000000E+00  0.00000000000E+00  0.45593999997E+02  0.45594000000E+02  0.51100000000E-03 0. -1.
         11   -1    0    0    0    0 -0.00000000000E+00 -0.00000000000E+00 -0.45593999997E+02  0.45594000000E+02  0.51100000000E-03 0.  1.
         23    2    1    2    0    0 -0.35527136788E-14  0.00000000000E+00  0.35527136788E-14  0.91188000000E+02  0.91188000000E+02 0.  0.
    9900012    2    3    3    0    0 -0.24335409359E+02 -0.98480192858E+01  0.31047894432E+02  0.50528838902E+02  0.29999936326E+02 0.  0.
        -12    1    3    3    0    0  0.24335409359E+02  0.98480192858E+01 -0.31047894432E+02  0.40659161098E+02  0.00000000000E+00 0.  1.
         11    1    4    4    0    0 -0.18385061693E+02 -0.11958086613E+02  0.10968472918E+02  0.24521699111E+02  0.51100000000E-03 0. -1.
        -11    1    4    4    0    0 -0.59353725524E+01  0.23661696730E+01  0.48172691745E+00  0.64077661741E+01  0.51100000000E-03 0.  1.
         12    1    4    4    0    0 -0.14975114110E-01 -0.25610234582E+00  0.19597694597E+02  0.19599373617E+02  0.00000000000E+00 0. -1.
</event>
<event>
 8    1  0.4964753E-012  0.9118800E+02  0.7816164E-02  0.1184000E+00
        -11   -1    0    0    0    0  0.00000000000E+00  0.00000000000E+00  0.45593999997E+02  0.45594000000E+02  0.51100000000E-03 0.  1.
         11   -1    0    0    0    0 -0.00000000000E+00 -0.00000000000E+00 -0.45593999997E+02  0.45594000000E+02  0.51100000000E-03 0. -1.
         23    2    1    2    0    0  0.35527136788E-14  0.00000000000E+00  0.00000000000E+00  0.91188000000E+02  0.91188000000E+02 0.  0.
    9900012    2    3    3    0    0 -0.31230972700E+02 -0.18230663586E+02 -0.18585921386E+02  0.50528840830E+02  0.29999942188E+02 0.  0.
         12    1    3    3    0    0  0.31230972700E+02  0.18230663586E+02  0.18585921386E+02  0.40659159170E+02  0.00000000000E+00 0. -1.
         11    1    4    4    0    0 -0.38143011194E+01 -0.10565064956E+02 -0.94797694811E+01  0.14698146830E+02  0.51100000000E-03 0. -1.
        -11    1    4    4    0    0 -0.33411669482E+01  0.55141475968E+01 -0.48225608940E+01  0.80514790028E+01  0.51100000000E-03 0.  1.
        -12    1    4    4    0    0 -0.24075504633E+02 -0.13179746227E+02 -0.42835910114E+01  0.27779214997E+02  0.00000000000E+00 0.  1.
</event>
<event>
 8    1  0.4964753E-012  0.9118800E+02  0.7816164E-02  0.1184000E+00
        -11   -1    0    0    0    0  0.00000000000E+00  0.00000000000E+00  0.45593999997E+02  0.45594000000E+02  0.51100000000E-03 0. -1.
         11   -1    0    0    0    0 -0.00000000000E+00 -0.00000000000E+00 -0.45593999997E+02  0.45594000000E+02  0.51100000000E-03 0.  1.
         23    2    1    2    0    0 -0.88817841970E-15  0.17763568394E-14  0.00000000000E+00  0.91188000000E+02  0.91188000000E+02 0.  0.
    9900012    2    3    3    0    0 -0.72496979632E+01 -0.58955466227E+01 -0.39570819932E+02  0.50528863503E+02  0.30000011105E+02 0.  0.
         12    1    3    3    0    0  0.72496979632E+01  0.58955466227E+01  0.39570819932E+02  0.40659136497E+02  0.00000000000E+00 0. -1.
         11    1    4    4    0    0 -0.16080056854E+01 -0.22889744192E+01 -0.50974650237E+01  0.58145710164E+01  0.51100000000E-03 0. -1.
        -11    1    4    4    0    0 -0.73583805245E+01 -0.51608239834E+01 -0.38788961332E+02  0.39816622027E+02  0.51100000000E-03 0.  1.
         12    1    4    4    0    0  0.17166882467E+01  0.15542517798E+01  0.43156064237E+01  0.48976704601E+01  0.00000000000E+00 0. -1.
</event>
<event>
 8    1  0.4964753E-012  0.9118800E+02  0.7816164E-02  0.1184000E+00
        -11   -1    0    0    0    0  0.00000000000E+00  0.00000000000E+00  0.45593999997E+02  0.45594000000E+02  0.51100000000E-03 0. -1.
         11   -1    0    0    0    0 -0.00000000000E+00 -0.00000000000E+00 -0.45593999997E+02  0.45594000000E+02  0.51100000000E-03 0.  1.
         23    2    1    2    0    0  0.00000000000E+00 -0.11102230246E-14  0.71054273576E-14  0.91188000000E+02  0.91188000000E+02 0.  0.
    9900012    2    3    3    0    0 -0.15817705831E+02  0.14840150573E+01 -0.37426784060E+02  0.50528852401E+02  0.29999977358E+02 0.  0.
         12    1    3    3    0    0  0.15817705831E+02 -0.14840150573E+01  0.37426784060E+02  0.40659147599E+02  0.00000000000E+00 0. -1.
         11    1    4    4    0    0 -0.39419735955E+01  0.15674989254E+01  0.44110013312E+01  0.61198971980E+01  0.51100000000E-03 0. -1.
        -11    1    4    4    0    0 -0.66344616094E+01  0.38955072137E+01 -0.16108264587E+02  0.17851253333E+02  0.51100000000E-03 0.  1.
        -12    1    4    4    0    0 -0.52412706263E+01 -0.39789910818E+01 -0.25729520804E+02  0.26557701870E+02  0.00000000000E+00 0.  1.
</event>
<event>
 8    1  0.4964753E-012  0.9118800E+02  0.7816164E-02  0.1184000E+00
        -11   -1    0    0    0    0  0.00000000000E+00  0.00000000000E+00  0.45593999997E+02  0.45594000000E+02  0.51100000000E-03 0. -1.
         11   -1    0    0    0    0 -0.00000000000E+00 -0.00000000000E+00 -0.45593999997E+02  0.45594000000E+02  0.51100000000E-03 0.  1.
         23    2    1    2    0    0  0.00000000000E+00  0.00000000000E+00  0.00000000000E+00  0.91188000000E+02  0.91188000000E+02 0.  0.
    9900012    2    3    3    0    0  0.34095601290E+02  0.14552827518E+02  0.16699391665E+02  0.50528874357E+02  0.30000044096E+02 0.  0.
        -12    1    3    3    0    0 -0.34095601290E+02 -0.14552827518E+02 -0.16699391665E+02  0.40659125643E+02  0.00000000000E+00 0.  1.
         11    1    4    4    0    0  0.37368671880E+00 -0.41643272570E+01  0.50462361609E+01  0.65533016808E+01  0.51100000000E-03 0. -1.
        -11    1    4    4    0    0 -0.90325246798E+00  0.45047695222E+00  0.39498383463E+01  0.40767655965E+01  0.51100000000E-03 0.  1.
         12    1    4    4    0    0  0.34625167039E+02  0.18266677823E+02  0.77033171573E+01  0.39898807080E+02  0.00000000000E+00 0. -1.
</event>
<event>
 8    1  0.4964753E-012  0.9118800E+02  0.7816164E-02  0.1184000E+00
        -11   -1    0    0    0    0  0.00000000000E+00  0.00000000000E+00  0.45593999997E+02  0.45594000000E+02  0.51100000000E-03 0. -1.
         11   -1    0    0    0    0 -0.00000000000E+00 -0.00000000000E+00 -0.45593999997E+02  0.45594000000E+02  0.51100000000E-03 0.  1.
         23    2    1    2    0    0  0.00000000000E+00  0.00000000000E+00  0.00000000000E+00  0.91188000000E+02  0.91188000000E+02 0.  0.
    9900012    2    3    3    0    0 -0.13699381803E+02  0.51872608181E+00  0.38278237771E+02  0.50528860494E+02  0.30000001957E+02 0.  0.
        -12    1    3    3    0    0  0.13699381803E+02 -0.51872608181E+00 -0.38278237771E+02  0.40659139506E+02  0.00000000000E+00 0.  1.
         11    1    4    4    0    0  0.29009948059E+01 -0.36153211539E+01  0.10713521843E+02  0.11673297240E+02  0.51100000000E-03 0. -1.
        -11    1    4    4    0    0 -0.17867554537E+01 -0.49385075054E+01  0.18561098900E+02  0.19289783411E+02  0.51100000000E-03 0.  1.
        -12    1    4    4    0    0 -0.14813621155E+02  0.90725547411E+01  0.90036170283E+01  0.19565779843E+02  0.00000000000E+00 0.  1.
</event>
<event>
 8    1  0.7289970E-012  0.9118800E+02  0.7816164E-02  0.1184000E+00
        -11   -1    0    0    0    0  0.00000000000E+00  0.00000000000E+00  0.45593999997E+02  0.45594000000E+02  0.51100000000E-03 0.  1.
         11   -1    0    0    0    0 -0.00000000000E+00 -0.00000000000E+00 -0.45593999997E+02  0.45594000000E+02  0.51100000000E-03 0. -1.
         23    2    1    2    0    0 -0.35527136788E-14  0.35527136788E-14 -0.35527136788E-14  0.91188000000E+02  0.91188000000E+02 0.  0.
    9900012    2    3    3    0    0  0.26491844205E+02  0.18137241652E+02 -0.24947710857E+02  0.50528860546E+02  0.30000002116E+02 0.  0.
         12    1    3    3    0    0 -0.26491844205E+02 -0.18137241652E+02  0.24947710857E+02  0.40659139454E+02  0.00000000000E+00 0. -1.
         11    1    4    4    0    0  0.18281296494E+00  0.84406970737E+01 -0.64674617230E-01  0.84429243001E+01  0.51100000000E-03 0. -1.
        -11    1    4    4    0    0  0.24628394022E+02  0.14253509060E+02 -0.18031964989E+02  0.33687862417E+02  0.51100000000E-03 0.  1.
         12    1    4    4    0    0  0.16806372182E+01 -0.45569644819E+01 -0.68510712510E+01  0.83980738288E+01  0.00000000000E+00 0. -1.
</event>
<event>
 8    1  0.4964753E-012  0.9118800E+02  0.7816164E-02  0.1184000E+00
        -11   -1    0    0    0    0  0.00000000000E+00  0.00000000000E+00  0.45593999997E+02  0.45594000000E+02  0.51100000000E-03 0. -1.
         11   -1    0    0    0    0 -0.00000000000E+00 -0.00000000000E+00 -0.45593999997E+02  0.45594000000E+02  0.51100000000E-03 0.  1.
         23    2    1    2    0    0  0.17763568394E-14 -0.88817841970E-15 -0.71054273576E-14  0.91188000000E+02  0.91188000000E+02 0.  0.
    9900012    2    3    3    0    0 -0.10325559768E+02  0.65247763372E+01  0.38781122542E+02  0.50528863801E+02  0.30000012011E+02 0.  0.
        -12    1    3    3    0    0  0.10325559768E+02 -0.65247763372E+01 -0.38781122542E+02  0.40659136199E+02  0.00000000000E+00 0.  1.
         11    1    4    4    0    0 -0.34692797005E+01  0.75288965493E+01  0.20191422173E+02  0.21826903457E+02  0.51100000000E-03 0. -1.
        -11    1    4    4    0    0  0.59964118791E+01 -0.10083923463E+01  0.13631235596E+02  0.14925963777E+02  0.51100000000E-03 0.  1.
        -12    1    4    4    0    0 -0.12852691946E+02  0.42721341940E-02  0.49584647740E+01  0.13775996568E+02  0.00000000000E+00 0.  1.
</event>
<event>
 8    1  0.4964753E-012  0.9118800E+02  0.7816164E-02  0.1184000E+00
        -11   -1    0    0    0    0  0.00000000000E+00  0.00000000000E+00  0.45593999997E+02  0.45594000000E+02  0.51100000000E-03 0. -1.
         11   -1    0    0    0    0 -0.00000000000E+00 -0.00000000000E+00 -0.45593999997E+02  0.45594000000E+02  0.51100000000E-03 0.  1.
         23    2    1    2    0    0  0.00000000000E+00  0.35527136788E-14  0.17763568394E-14  0.91188000000E+02  0.91188000000E+02 0.  0.
    9900012    2    3    3    0    0  0.29469987487E+02  0.26024319769E+02 -0.10364385140E+02  0.50528857594E+02  0.29999993142E+02 0.  0.
         12    1    3    3    0    0 -0.29469987487E+02 -0.26024319769E+02  0.10364385140E+02  0.40659142406E+02  0.00000000000E+00 0. -1.
         11    1    4    4    0    0  0.15030926790E+02  0.71661306482E+01  0.51994623993E+01  0.17444672486E+02  0.51100000000E-03 0. -1.
        -11    1    4    4    0    0  0.27449576825E+01 -0.32022824301E+01 -0.19694876243E+01  0.46549207517E+01  0.51100000000E-03 0.  1.
        -12    1    4    4    0    0  0.11694103014E+02  0.22060471551E+02 -0.13594359915E+02  0.28429264356E+02  0.00000000000E+00 0.  1.
</event>
<event>
 8    1  0.4964753E-012  0.9118800E+02  0.7816164E-02  0.1184000E+00
        -11   -1    0    0    0    0  0.00000000000E+00  0.00000000000E+00  0.45593999997E+02  0.45594000000E+02  0.51100000000E-03 0. -1.
         11   -1    0    0    0    0 -0.00000000000E+00 -0.00000000000E+00 -0.45593999997E+02  0.45594000000E+02  0.51100000000E-03 0.  1.
         23    2    1    2    0    0 -0.26645352591E-14  0.71054273576E-14  0.00000000000E+00  0.91188000000E+02  0.91188000000E+02 0.  0.
    9900012    2    3    3    0    0  0.46705298138E+01 -0.33473107037E+02 -0.22603167159E+02  0.50528857005E+02  0.29999991353E+02 0.  0.
         12    1    3    3    0    0 -0.46705298138E+01  0.33473107037E+02  0.22603167159E+02  0.40659142995E+02  0.00000000000E+00 0. -1.
         11    1    4    4    0    0  0.11759245210E+02 -0.15028613942E+02 -0.18360893797E+02  0.26481342606E+02  0.51100000000E-03 0. -1.
        -11    1    4    4    0    0 -0.10845231028E+01 -0.12920778608E+02 -0.78168982126E+01  0.15140231442E+02  0.51100000000E-03 0.  1.
         12    1    4    4    0    0 -0.60041922938E+01 -0.55237144883E+01  0.35746248515E+01  0.89072829571E+01  0.00000000000E+00 0. -1.
</event>
<event>
 8    1  0.4964753E-012  0.9118800E+02  0.7816164E-02  0.1184000E+00
        -11   -1    0    0    0    0  0.00000000000E+00  0.00000000000E+00  0.45593999997E+02  0.45594000000E+02  0.51100000000E-03 0. -1.
         11   -1    0    0    0    0 -0.00000000000E+00 -0.00000000000E+00 -0.45593999997E+02  0.45594000000E+02  0.51100000000E-03 0.  1.
         23    2    1    2    0    0 -0.71054273576E-14 -0.13322676296E-14  0.44408920985E-15  0.91188000000E+02  0.91188000000E+02 0.  0.
    9900012    2    3    3    0    0 -0.40514041334E+02 -0.32355069607E+01 -0.11443517593E+01  0.50528860911E+02  0.30000003226E+02 0.  0.
         12    1    3    3    0    0  0.40514041334E+02  0.32355069607E+01  0.11443517593E+01  0.40659139089E+02  0.00000000000E+00 0. -1.
         11    1    4    4    0    0 -0.11636193190E+02 -0.10455454409E+02 -0.24284241379E+00  0.15645334498E+02  0.51100000000E-03 0. -1.
        -11    1    4    4    0    0 -0.18977729634E+02  0.96937940430E-01 -0.81961486212E+01  0.20672214964E+02  0.51100000000E-03 0.  1.
        -12    1    4    4    0    0 -0.99001185099E+01  0.71230095078E+01  0.72946392757E+01  0.14211311450E+02  0.00000000000E+00 0.  1.
</event>
<event>
 8    1  0.4964753E-012  0.9118800E+02  0.7816164E-02  0.1184000E+00
        -11   -1    0    0    0    0  0.00000000000E+00  0.00000000000E+00  0.45593999997E+02  0.45594000000E+02  0.51100000000E-03 0. -1.
         11   -1    0    0    0    0 -0.00000000000E+00 -0.00000000000E+00 -0.45593999997E+02  0.45594000000E+02  0.51100000000E-03 0.  1.
         23    2    1    2    0    0  0.00000000000E+00  0.00000000000E+00  0.00000000000E+00  0.91188000000E+02  0.91188000000E+02 0.  0.
    9900012    2    3    3    0    0 -0.24278203646E+02  0.17489342369E+02  0.27529220330E+02  0.50528852926E+02  0.29999978954E+02 0.  0.
        -12    1    3    3    0    0  0.24278203646E+02 -0.17489342369E+02 -0.27529220330E+02  0.40659147074E+02  0.00000000000E+00 0.  1.
         11    1    4    4    0    0 -0.65027604436E+01 -0.31019980841E+01  0.13965783131E+02  0.15714686896E+02  0.51100000000E-03 0. -1.
        -11    1    4    4    0    0 -0.12479496656E+02  0.28060275186E+01  0.19928168050E+01  0.12945383204E+02  0.51100000000E-03 0.  1.
        -12    1    4    4    0    0 -0.52959465471E+01  0.17785312934E+02  0.11570620394E+02  0.21868782827E+02  0.00000000000E+00 0.  1.
</event>
<event>
 8    1  0.4964753E-012  0.9118800E+02  0.7816164E-02  0.1184000E+00
        -11   -1    0    0    0    0  0.00000000000E+00  0.00000000000E+00  0.45593999997E+02  0.45594000000E+02  0.51100000000E-03 0. -1.
         11   -1    0    0    0    0 -0.00000000000E+00 -0.00000000000E+00 -0.45593999997E+02  0.45594000000E+02  0.51100000000E-03 0.  1.
         23    2    1    2    0    0 -0.35527136788E-14 -0.35527136788E-14  0.00000000000E+00  0.91188000000E+02  0.91188000000E+02 0.  0.
    9900012    2    3    3    0    0  0.22701272306E+02  0.17411943322E+02  0.28890187362E+02  0.50528850226E+02  0.29999970747E+02 0.  0.
        -12    1    3    3    0    0 -0.22701272306E+02 -0.17411943322E+02 -0.28890187362E+02  0.40659149774E+02  0.00000000000E+00 0.  1.
         11    1    4    4    0    0  0.27542505055E+01  0.12301978662E+02  0.16862824803E+02  0.21054202322E+02  0.51100000000E-03 0. -1.
        -11    1    4    4    0    0  0.91129827733E+01 -0.50887594526E+01  0.10005650212E+02  0.14458733147E+02  0.51100000000E-03 0.  1.
        -12    1    4    4    0    0  0.10834039027E+02  0.10198724112E+02  0.20217123473E+01  0.15015914757E+02  0.00000000000E+00 0.  1.
</event>
<event>
 8    1  0.4964753E-012  0.9118800E+02  0.7816164E-02  0.1184000E+00
        -11   -1    0    0    0    0  0.00000000000E+00  0.00000000000E+00  0.45593999997E+02  0.45594000000E+02  0.51100000000E-03 0. -1.
         11   -1    0    0    0    0 -0.00000000000E+00 -0.00000000000E+00 -0.45593999997E+02  0.45594000000E+02  0.51100000000E-03 0.  1.
         23    2    1    2    0    0  0.00000000000E+00  0.00000000000E+00  0.00000000000E+00  0.91188000000E+02  0.91188000000E+02 0.  0.
    9900012    2    3    3    0    0  0.64197532518E+00 -0.84758687748E+01 -0.39760698597E+02  0.50528860355E+02  0.30000001534E+02 0.  0.
         12    1    3    3    0    0 -0.64197532518E+00  0.84758687748E+01  0.39760698597E+02  0.40659139645E+02  0.00000000000E+00 0. -1.
         11    1    4    4    0    0  0.37089016629E+01 -0.64080870388E+01  0.45411212324E+00  0.74179342896E+01  0.51100000000E-03 0. -1.
        -11    1    4    4    0    0 -0.52329135614E+01 -0.34998457979E+01 -0.56813376226E+01  0.84799706599E+01  0.51100000000E-03 0.  1.
         12    1    4    4    0    0  0.21659872237E+01  0.14320640620E+01 -0.34533473097E+02  0.34630955405E+02  0.00000000000E+00 0. -1.
</event>
<event>
 8    1  0.4964753E-012  0.9118800E+02  0.7816164E-02  0.1184000E+00
        -11   -1    0    0    0    0  0.00000000000E+00  0.00000000000E+00  0.45593999997E+02  0.45594000000E+02  0.51100000000E-03 0. -1.
         11   -1    0    0    0    0 -0.00000000000E+00 -0.00000000000E+00 -0.45593999997E+02  0.45594000000E+02  0.51100000000E-03 0.  1.
         23    2    1    2    0    0  0.00000000000E+00  0.11102230246E-15  0.00000000000E+00  0.91188000000E+02  0.91188000000E+02 0.  0.
    9900012    2    3    3    0    0 -0.32306811539E+02  0.16695059686E+00  0.24686193919E+02  0.50528854479E+02  0.29999983674E+02 0.  0.
        -12    1    3    3    0    0  0.32306811539E+02 -0.16695059686E+00 -0.24686193919E+02  0.40659145521E+02  0.00000000000E+00 0.  1.
         11    1    4    4    0    0  0.78326937798E+00  0.15569864751E+01 -0.41089246042E+00  0.17906844159E+01  0.51100000000E-03 0.  1.
        -11    1    4    4    0    0 -0.20658639471E+02 -0.69574755119E+01  0.27304965599E+02  0.34939189987E+02  0.51100000000E-03 0. -1.
         12    1    4    4    0    0 -0.12431441446E+02  0.55674396336E+01 -0.22078792203E+01  0.13798980076E+02  0.00000000000E+00 0. -1.
</event>
<event>
 8    1  0.4964753E-012  0.9118800E+02  0.7816164E-02  0.1184000E+00
        -11   -1    0    0    0    0  0.00000000000E+00  0.00000000000E+00  0.45593999997E+02  0.45594000000E+02  0.51100000000E-03 0. -1.
         11   -1    0    0    0    0 -0.00000000000E+00 -0.00000000000E+00 -0.45593999997E+02  0.45594000000E+02  0.51100000000E-03 0.  1.
         23    2    1    2    0    0 -0.17763568394E-14 -0.35527136788E-14  0.00000000000E+00  0.91188000000E+02  0.91188000000E+02 0.  0.
    9900012    2    3    3    0    0  0.13696848546E+02  0.31391388922E+02 -0.21912155847E+02  0.50528861637E+02  0.30000005432E+02 0.  0.
         12    1    3    3    0    0 -0.13696848546E+02 -0.31391388922E+02  0.21912155847E+02  0.40659138363E+02  0.00000000000E+00 0. -1.
         11    1    4    4    0    0 -0.22322347640E+01  0.46301013395E+01 -0.12600745076E+02  0.13608801827E+02  0.51100000000E-03 0. -1.
        -11    1    4    4    0    0 -0.25971338447E+01  0.64792067033E+01  0.19252924379E+01  0.72409926767E+01  0.51100000000E-03 0.  1.
         12    1    4    4    0    0  0.18526217155E+02  0.20282080879E+02 -0.11236703209E+02  0.29679067133E+02  0.00000000000E+00 0. -1.
</event>
<event>
 8    1  0.5205912E-012  0.9118800E+02  0.7816164E-02  0.1184000E+00
        -11   -1    0    0    0    0  0.00000000000E+00  0.00000000000E+00  0.45593999997E+02  0.45594000000E+02  0.51100000000E-03 0. -1.
         11   -1    0    0    0    0 -0.00000000000E+00 -0.00000000000E+00 -0.45593999997E+02  0.45594000000E+02  0.51100000000E-03 0.  1.
         23    2    1    2    0    0  0.35527136788E-14  0.00000000000E+00  0.00000000000E+00  0.91188000000E+02  0.91188000000E+02 0.  0.
    9900012    2    3    3    0    0  0.19201854770E+02  0.98773932342E+01 -0.34451292537E+02  0.50528859808E+02  0.29999999872E+02 0.  0.
         12    1    3    3    0    0 -0.19201854770E+02 -0.98773932342E+01  0.34451292537E+02  0.40659140192E+02  0.00000000000E+00 0. -1.
         11    1    4    4    0    0  0.54928549843E-01  0.27370629490E+01  0.21271719698E+01  0.34668994192E+01  0.51100000000E-03 0. -1.
        -11    1    4    4    0    0  0.16176983771E-01 -0.51579566523E+01 -0.14397697292E+02  0.15293739441E+02  0.51100000000E-03 0.  1.
        -12    1    4    4    0    0  0.19130749236E+02  0.12298286938E+02 -0.22180767215E+02  0.31768220948E+02  0.00000000000E+00 0.  1.
</event>
<event>
 8    1  0.4964753E-012  0.9118800E+02  0.7816164E-02  0.1184000E+00
        -11   -1    0    0    0    0  0.00000000000E+00  0.00000000000E+00  0.45593999997E+02  0.45594000000E+02  0.51100000000E-03 0.  1.
         11   -1    0    0    0    0 -0.00000000000E+00 -0.00000000000E+00 -0.45593999997E+02  0.45594000000E+02  0.51100000000E-03 0. -1.
         23    2    1    2    0    0  0.71054273576E-14  0.26645352591E-14 -0.71054273576E-14  0.91188000000E+02  0.91188000000E+02 0.  0.
    9900012    2    3    3    0    0 -0.33081694353E+02 -0.32751874549E+01  0.23410287834E+02  0.50528844443E+02  0.29999953169E+02 0.  0.
        -12    1    3    3    0    0  0.33081694353E+02  0.32751874549E+01 -0.23410287834E+02  0.40659155557E+02  0.00000000000E+00 0.  1.
         11    1    4    4    0    0 -0.19987294346E+02 -0.24197097339E+01  0.91513656393E+01  0.22115479281E+02  0.51100000000E-03 0. -1.
        -11    1    4    4    0    0 -0.75682833640E+01 -0.84952240579E+01  0.70574965280E-01  0.11377729385E+02  0.51100000000E-03 0.  1.
        -12    1    4    4    0    0 -0.55261166430E+01  0.76397463370E+01  0.14188347229E+02  0.17035635777E+02  0.00000000000E+00 0.  1.
</event>
<event>
 8    1  0.4964753E-012  0.9118800E+02  0.7816164E-02  0.1184000E+00
        -11   -1    0    0    0    0  0.00000000000E+00  0.00000000000E+00  0.45593999997E+02  0.45594000000E+02  0.51100000000E-03 0. -1.
         11   -1    0    0    0    0 -0.00000000000E+00 -0.00000000000E+00 -0.45593999997E+02  0.45594000000E+02  0.51100000000E-03 0.  1.
         23    2    1    2    0    0  0.88817841970E-15 -0.22204460493E-15  0.71054273576E-14  0.91188000000E+02  0.91188000000E+02 0.  0.
    9900012    2    3    3    0    0  0.42755452187E+01 -0.13405326546E+01  0.40411478451E+02  0.50528869349E+02  0.30000028872E+02 0.  0.
        -12    1    3    3    0    0 -0.42755452187E+01  0.13405326546E+01 -0.40411478451E+02  0.40659130651E+02  0.00000000000E+00 0.  1.
         11    1    4    4    0    0  0.64219115554E+01  0.29879069065E+01  0.17600275973E+02  0.18972038643E+02  0.51100000000E-03 0. -1.
        -11    1    4    4    0    0  0.21451781657E+01 -0.11895828790E+01 -0.37432247210E+01  0.44753355585E+01  0.51100000000E-03 0.  1.
         12    1    4    4    0    0 -0.42915445024E+01 -0.31388566822E+01  0.26554427199E+02  0.27081495147E+02  0.00000000000E+00 0. -1.
</event>
<event>
 8    1  0.4964753E-012  0.9118800E+02  0.7816164E-02  0.1184000E+00
        -11   -1    0    0    0    0  0.00000000000E+00  0.00000000000E+00  0.45593999997E+02  0.45594000000E+02  0.51100000000E-03 0.  1.
         11   -1    0    0    0    0 -0.00000000000E+00 -0.00000000000E+00 -0.45593999997E+02  0.45594000000E+02  0.51100000000E-03 0. -1.
         23    2    1    2    0    0 -0.17763568394E-14  0.35527136788E-14 -0.35527136788E-14  0.91188000000E+02  0.91188000000E+02 0.  0.
    9900012    2    3    3    0    0 -0.91536741059E+01 -0.29367580624E+02  0.26587990321E+02  0.50528858707E+02  0.29999996526E+02 0.  0.
        -12    1    3    3    0    0  0.91536741059E+01  0.29367580624E+02 -0.26587990321E+02  0.40659141293E+02  0.00000000000E+00 0.  1.
         11    1    4    4    0    0 -0.91048129520E+01  0.56561297659E+00  0.96946060293E+01  0.13311758834E+02  0.51100000000E-03 0. -1.
        -11    1    4    4    0    0 -0.16921152109E+01 -0.52581135614E+01 -0.22290319247E+01  0.59564751065E+01  0.51100000000E-03 0.  1.
        -12    1    4    4    0    0  0.16432540570E+01 -0.24675080039E+02  0.19122416217E+02  0.31260624767E+02  0.00000000000E+00 0.  1.
</event>
<event>
 8    1  0.4964753E-012  0.9118800E+02  0.7816164E-02  0.1184000E+00
        -11   -1    0    0    0    0  0.00000000000E+00  0.00000000000E+00  0.45593999997E+02  0.45594000000E+02  0.51100000000E-03 0. -1.
         11   -1    0    0    0    0 -0.00000000000E+00 -0.00000000000E+00 -0.45593999997E+02  0.45594000000E+02  0.51100000000E-03 0.  1.
         23    2    1    2    0    0  0.00000000000E+00  0.00000000000E+00  0.35527136788E-14  0.91188000000E+02  0.91188000000E+02 0.  0.
    9900012    2    3    3    0    0 -0.29581786334E+02  0.20130777692E+02  0.19309013804E+02  0.50528827514E+02  0.29999901711E+02 0.  0.
        -12    1    3    3    0    0  0.29581786334E+02 -0.20130777692E+02 -0.19309013804E+02  0.40659172486E+02  0.00000000000E+00 0.  1.
         11    1    4    4    0    0 -0.79569210590E+00  0.13896900225E+02  0.35851154350E+01  0.14373935256E+02  0.51100000000E-03 0. -1.
        -11    1    4    4    0    0 -0.12429644655E+02  0.75600625230E+01  0.18490034825E+01  0.14665245506E+02  0.51100000000E-03 0.  1.
        -12    1    4    4    0    0 -0.16356449573E+02 -0.13261850562E+01  0.13874894886E+02  0.21489646752E+02  0.00000000000E+00 0.  1.
</event>
<event>
 8    1  0.4964753E-012  0.9118800E+02  0.7816164E-02  0.1184000E+00
        -11   -1    0    0    0    0  0.00000000000E+00  0.00000000000E+00  0.45593999997E+02  0.45594000000E+02  0.51100000000E-03 0. -1.
         11   -1    0    0    0    0 -0.00000000000E+00 -0.00000000000E+00 -0.45593999997E+02  0.45594000000E+02  0.51100000000E-03 0.  1.
         23    2    1    2    0    0  0.00000000000E+00  0.00000000000E+00  0.00000000000E+00  0.91188000000E+02  0.91188000000E+02 0.  0.
    9900012    2    3    3    0    0 -0.22139390222E+02  0.20231328327E+02 -0.27453715747E+02  0.50528858918E+02  0.29999997167E+02 0.  0.
         12    1    3    3    0    0  0.22139390222E+02 -0.20231328327E+02  0.27453715747E+02  0.40659141082E+02  0.00000000000E+00 0. -1.
         11    1    4    4    0    0  0.15882301173E+01  0.13108059123E+01  0.21883552355E+00  0.20708878030E+01  0.51100000000E-03 0. -1.
        -11    1    4    4    0    0 -0.12456073422E+02 -0.41250377107E+01 -0.44539164679E+01  0.13856661697E+02  0.51100000000E-03 0.  1.
        -12    1    4    4    0    0 -0.11271546917E+02  0.23045560125E+02 -0.23218634802E+02  0.34601309418E+02  0.00000000000E+00 0.  1.
</event>
<event>
 8    1  0.4964753E-012  0.9118800E+02  0.7816164E-02  0.1184000E+00
        -11   -1    0    0    0    0  0.00000000000E+00  0.00000000000E+00  0.45593999997E+02  0.45594000000E+02  0.51100000000E-03 0.  1.
         11   -1    0    0    0    0 -0.00000000000E+00 -0.00000000000E+00 -0.45593999997E+02  0.45594000000E+02  0.51100000000E-03 0. -1.
         23    2    1    2    0    0 -0.71054273576E-14 -0.35527136788E-14  0.35527136788E-14  0.91188000000E+02  0.91188000000E+02 0.  0.
    9900012    2    3    3    0    0 -0.23597596483E+02 -0.28312560454E+02 -0.17167361092E+02  0.50528856795E+02  0.29999990715E+02 0.  0.
         12    1    3    3    0    0  0.23597596483E+02  0.28312560454E+02  0.17167361092E+02  0.40659143205E+02  0.00000000000E+00 0. -1.
         11    1    4    4    0    0 -0.17320022569E+02 -0.13083586103E+02 -0.18080937783E+02  0.28250375545E+02  0.51100000000E-03 0. -1.
        -11    1    4    4    0    0  0.12298847095E+01 -0.29572964977E+01 -0.56276239635E+01  0.64752120205E+01  0.51100000000E-03 0.  1.
        -12    1    4    4    0    0 -0.75074586241E+01 -0.12271677854E+02  0.65412006539E+01  0.15803269229E+02  0.00000000000E+00 0.  1.
</event>
<event>
 8    1  0.4964753E-012  0.9118800E+02  0.7816164E-02  0.1184000E+00
        -11   -1    0    0    0    0  0.00000000000E+00  0.00000000000E+00  0.45593999997E+02  0.45594000000E+02  0.51100000000E-03 0. -1.
         11   -1    0    0    0    0 -0.00000000000E+00 -0.00000000000E+00 -0.45593999997E+02  0.45594000000E+02  0.51100000000E-03 0.  1.
         23    2    1    2    0    0  0.00000000000E+00 -0.17763568394E-14  0.00000000000E+00  0.91188000000E+02  0.91188000000E+02 0.  0.
    9900012    2    3    3    0    0 -0.22532796180E+02 -0.15615325027E+02  0.30026657682E+02  0.50528862639E+02  0.30000008478E+02 0.  0.
        -12    1    3    3    0    0  0.22532796180E+02  0.15615325027E+02 -0.30026657682E+02  0.40659137361E+02  0.00000000000E+00 0.  1.
         11    1    4    4    0    0 -0.67702714196E+01  0.13990679346E+01  0.78286338706E+01  0.10444207712E+02  0.51100000000E-03 0.  1.
        -11    1    4    4    0    0 -0.11893038004E+02 -0.12801534279E+02  0.27304341189E+02  0.32416827126E+02  0.51100000000E-03 0. -1.
        -12    1    4    4    0    0 -0.38694867561E+01 -0.42128586827E+01 -0.51063173779E+01  0.76678278020E+01  0.00000000000E+00 0.  1.
</event>
<event>
 8    1  0.5262257E-012  0.9118800E+02  0.7816164E-02  0.1184000E+00
        -11   -1    0    0    0    0  0.00000000000E+00  0.00000000000E+00  0.45593999997E+02  0.45594000000E+02  0.51100000000E-03 0. -1.
         11   -1    0    0    0    0 -0.00000000000E+00 -0.00000000000E+00 -0.45593999997E+02  0.45594000000E+02  0.51100000000E-03 0.  1.
         23    2    1    2    0    0  0.88817841970E-15  0.00000000000E+00  0.00000000000E+00  0.91188000000E+02  0.91188000000E+02 0.  0.
    9900012    2    3    3    0    0  0.60623393496E+01  0.22337103932E+02 -0.33428540554E+02  0.50528862110E+02  0.30000006868E+02 0.  0.
         12    1    3    3    0    0 -0.60623393496E+01 -0.22337103932E+02  0.33428540554E+02  0.40659137890E+02  0.00000000000E+00 0. -1.
         11    1    4    4    0    0  0.65285888168E+01 -0.18762834144E+01 -0.19484348519E+01  0.70667750794E+01  0.51100000000E-03 0. -1.
        -11    1    4    4    0    0  0.62092289186E+01  0.46827652026E+01 -0.15561384351E+02  0.17396536922E+02  0.51100000000E-03 0.  1.
         12    1    4    4    0    0 -0.66754783858E+01  0.19530622144E+02 -0.15918721351E+02  0.26065550108E+02  0.00000000000E+00 0. -1.
</event>
<event>
 8    1  0.4964753E-012  0.9118800E+02  0.7816164E-02  0.1184000E+00
        -11   -1    0    0    0    0  0.00000000000E+00  0.00000000000E+00  0.45593999997E+02  0.45594000000E+02  0.51100000000E-03 0. -1.
         11   -1    0    0    0    0 -0.00000000000E+00 -0.00000000000E+00 -0.45593999997E+02  0.45594000000E+02  0.51100000000E-03 0.  1.
         23    2    1    2    0    0  0.00000000000E+00  0.00000000000E+00  0.00000000000E+00  0.91188000000E+02  0.91188000000E+02 0.  0.
    9900012    2    3    3    0    0 -0.10482829070E+02  0.20500176341E+01 -0.39231039875E+02  0.50528846452E+02  0.29999959275E+02 0.  0.
         12    1    3    3    0    0  0.10482829070E+02 -0.20500176341E+01  0.39231039875E+02  0.40659153548E+02  0.00000000000E+00 0. -1.
         11    1    4    4    0    0 -0.44291208535E+01  0.79491897603E+01 -0.21998963425E+01  0.93619588527E+01  0.51100000000E-03 0. -1.
        -11    1    4    4    0    0  0.22110335769E+01  0.42712244009E+01 -0.11604155962E+02  0.12561387790E+02  0.51100000000E-03 0.  1.
         12    1    4    4    0    0 -0.82647417933E+01 -0.10170396527E+02 -0.25426987570E+02  0.28605499809E+02  0.00000000000E+00 0. -1.
</event>
<event>
 8    1  0.5244593E-012  0.9118800E+02  0.7816164E-02  0.1184000E+00
        -11   -1    0    0    0    0  0.00000000000E+00  0.00000000000E+00  0.45593999997E+02  0.45594000000E+02  0.51100000000E-03 0. -1.
         11   -1    0    0    0    0 -0.00000000000E+00 -0.00000000000E+00 -0.45593999997E+02  0.45594000000E+02  0.51100000000E-03 0.  1.
         23    2    1    2    0    0 -0.35527136788E-14  0.00000000000E+00  0.00000000000E+00  0.91188000000E+02  0.91188000000E+02 0.  0.
    9900012    2    3    3    0    0 -0.16443035680E+02  0.34244367316E+02 -0.14495360574E+02  0.50528860887E+02  0.30000003152E+02 0.  0.
         12    1    3    3    0    0  0.16443035680E+02 -0.34244367316E+02  0.14495360574E+02  0.40659139113E+02  0.00000000000E+00 0. -1.
         11    1    4    4    0    0 -0.14529323434E+02  0.75815315658E+01 -0.61203751572E+01  0.17493994760E+02  0.51100000000E-03 0. -1.
        -11    1    4    4    0    0 -0.66471162876E+01  0.25724634810E+02 -0.92441048218E+01  0.28131734132E+02  0.51100000000E-03 0.  1.
         12    1    4    4    0    0  0.47334040417E+01  0.93820094038E+00  0.86911940495E+00  0.49031319956E+01  0.00000000000E+00 0. -1.
</event>
<event>
 8    1  0.4964753E-012  0.9118800E+02  0.7816164E-02  0.1184000E+00
        -11   -1    0    0    0    0  0.00000000000E+00  0.00000000000E+00  0.45593999997E+02  0.45594000000E+02  0.51100000000E-03 0. -1.
         11   -1    0    0    0    0 -0.00000000000E+00 -0.00000000000E+00 -0.45593999997E+02  0.45594000000E+02  0.51100000000E-03 0.  1.
         23    2    1    2    0    0  0.00000000000E+00 -0.88817841970E-15  0.00000000000E+00  0.91188000000E+02  0.91188000000E+02 0.  0.
    9900012    2    3    3    0    0  0.16440558808E+02 -0.41962463554E+01 -0.36949499802E+02  0.50528855973E+02  0.29999988214E+02 0.  0.
         12    1    3    3    0    0 -0.16440558808E+02  0.41962463554E+01  0.36949499802E+02  0.40659144027E+02  0.00000000000E+00 0. -1.
         11    1    4    4    0    0  0.13285310177E+02 -0.74973800951E+00 -0.83614605269E+01  0.15715457231E+02  0.51100000000E-03 0. -1.
        -11    1    4    4    0    0 -0.19967127610E+01  0.34665654592E+01  0.89178922600E+00  0.40986859135E+01  0.51100000000E-03 0.  1.
        -12    1    4    4    0    0  0.51519613919E+01 -0.69130738052E+01 -0.29479828502E+02  0.30714712828E+02  0.00000000000E+00 0.  1.
</event>
<event>
 8    1  0.4964753E-012  0.9118800E+02  0.7816164E-02  0.1184000E+00
        -11   -1    0    0    0    0  0.00000000000E+00  0.00000000000E+00  0.45593999997E+02  0.45594000000E+02  0.51100000000E-03 0. -1.
         11   -1    0    0    0    0 -0.00000000000E+00 -0.00000000000E+00 -0.45593999997E+02  0.45594000000E+02  0.51100000000E-03 0.  1.
         23    2    1    2    0    0 -0.17763568394E-14  0.71054273576E-14  0.00000000000E+00  0.91188000000E+02  0.91188000000E+02 0.  0.
    9900012    2    3    3    0    0  0.12783136627E+02 -0.32715658849E+02 -0.20480309091E+02  0.50528856177E+02  0.29999988836E+02 0.  0.
         12    1    3    3    0    0 -0.12783136627E+02  0.32715658849E+02  0.20480309091E+02  0.40659143823E+02  0.00000000000E+00 0. -1.
         11    1    4    4    0    0  0.50602554394E+01 -0.74772027207E+01 -0.16652905021E+02  0.18942914020E+02  0.51100000000E-03 0.  1.
        -11    1    4    4    0    0  0.58898811173E+01 -0.26576332280E+02 -0.65932563714E+01  0.28008269616E+02  0.51100000000E-03 0. -1.
         12    1    4    4    0    0  0.18330000703E+01  0.13378761517E+01  0.27658523022E+01  0.35776725413E+01  0.00000000000E+00 0. -1.
</event>
<event>
 8    1  0.4964753E-012  0.9118800E+02  0.7816164E-02  0.1184000E+00
        -11   -1    0    0    0    0  0.00000000000E+00  0.00000000000E+00  0.45593999997E+02  0.45594000000E+02  0.51100000000E-03 0. -1.
         11   -1    0    0    0    0 -0.00000000000E+00 -0.00000000000E+00 -0.45593999997E+02  0.45594000000E+02  0.51100000000E-03 0.  1.
         23    2    1    2    0    0  0.00000000000E+00  0.88817841970E-15 -0.71054273576E-14  0.91188000000E+02  0.91188000000E+02 0.  0.
    9900012    2    3    3    0    0 -0.25982839059E+02 -0.66736988217E+01 -0.30553572094E+02  0.50528844214E+02  0.29999952472E+02 0.  0.
         12    1    3    3    0    0  0.25982839059E+02  0.66736988217E+01  0.30553572094E+02  0.40659155786E+02  0.00000000000E+00 0. -1.
         11    1    4    4    0    0 -0.11833984985E+02 -0.88692235604E+01 -0.28726255879E+02  0.32309504859E+02  0.51100000000E-03 0.  1.
        -11    1    4    4    0    0  0.92731085276E+00  0.28481704373E+01 -0.76632753071E+00  0.30918018053E+01  0.51100000000E-03 0. -1.
        -12    1    4    4    0    0 -0.15076164927E+02 -0.65264569859E+00 -0.10609886850E+01  0.15127537549E+02  0.00000000000E+00 0.  1.
</event>
<event>
 8    1  0.4964753E-012  0.9118800E+02  0.7816164E-02  0.1184000E+00
        -11   -1    0    0    0    0  0.00000000000E+00  0.00000000000E+00  0.45593999997E+02  0.45594000000E+02  0.51100000000E-03 0. -1.
         11   -1    0    0    0    0 -0.00000000000E+00 -0.00000000000E+00 -0.45593999997E+02  0.45594000000E+02  0.51100000000E-03 0.  1.
         23    2    1    2    0    0  0.17763568394E-14  0.00000000000E+00  0.71054273576E-14  0.91188000000E+02  0.91188000000E+02 0.  0.
    9900012    2    3    3    0    0  0.43960392134E+01  0.33374750515E+02  0.22802745835E+02  0.50528876174E+02  0.30000049618E+02 0.  0.
        -12    1    3    3    0    0 -0.43960392134E+01 -0.33374750515E+02 -0.22802745835E+02  0.40659123826E+02  0.00000000000E+00 0.  1.
         11    1    4    4    0    0  0.44609234780E+01  0.16268504616E+02  0.11398366861E+02  0.20358950073E+02  0.51100000000E-03 0. -1.
        -11    1    4    4    0    0  0.10582728844E+02  0.49238753286E+01  0.59078697649E+01  0.13082110818E+02  0.51100000000E-03 0.  1.
        -12    1    4    4    0    0 -0.10647613109E+02  0.12182370571E+02  0.54965092083E+01  0.17087815282E+02  0.00000000000E+00 0.  1.
</event>
