<event>
 7    1  0.4621547E-010  0.4778727E+02  0.7816164E-02  0.1312668E+00
        -11   -1    0    0    0    0  0.00000000000E+00  0.00000000000E+00  0.45593999997E+02  0.45594000000E+02  0.51100000000E-03 0.  1.
         11   -1    0    0    0    0 -0.00000000000E+00 -0.00000000000E+00 -0.45593999997E+02  0.45594000000E+02  0.51100000000E-03 0. -1.
    9900012    2    1    2    0    0 -0.19847877865E+01  0.71600423527E+01 -0.42759998227E+02  0.47787273768E+02  0.20000012419E+02 0.  0.
        -12    1    1    2    0    0  0.19847877865E+01 -0.71600423527E+01  0.42759998227E+02  0.43400726232E+02  0.00000000000E+00 0.  1.
         11    1    3    3    0    0  0.27692709380E+01  0.28270708240E+01 -0.25974273638E+01  0.47336899079E+01  0.51100000000E-03 0. -1.
        -11    1    3    3    0    0  0.35237509447E+01 -0.26007144560E+01 -0.79108594374E+01  0.90422471599E+01  0.51100000000E-03 0.  1.
         12    1    3    3    0    0 -0.82778096692E+01  0.69336859847E+01 -0.32251711426E+02  0.34011336701E+02  0.00000000000E+00 0. -1.
</event>
<event>
 7    1  0.4621547E-010  0.4778727E+02  0.7816164E-02  0.1312668E+00
        -11   -1    0    0    0    0  0.00000000000E+00  0.00000000000E+00  0.45593999997E+02  0.45594000000E+02  0.51100000000E-03 0.  1.
         11   -1    0    0    0    0 -0.00000000000E+00 -0.00000000000E+00 -0.45593999997E+02  0.45594000000E+02  0.51100000000E-03 0. -1.
    9900012    2    1    2    0    0 -0.20119523494E+02 -0.71733271027E+01 -0.37780569648E+02  0.47787270856E+02  0.19999999141E+02 0.  0.
        -12    1    1    2    0    0  0.20119523494E+02  0.71733271027E+01  0.37780569648E+02  0.43400729144E+02  0.00000000000E+00 0.  1.
         11    1    3    3    0    0 -0.93515711370E+00  0.63246423989E+00  0.16284794647E+01  0.19815336157E+01  0.51100000000E-03 0.  1.
        -11    1    3    3    0    0 -0.10236791194E+02  0.18024076414E-01 -0.11083935823E+02  0.15087937315E+02  0.51100000000E-03 0. -1.
         12    1    3    3    0    0 -0.89475751856E+01 -0.78238154191E+01 -0.28325113289E+02  0.30717799926E+02  0.00000000000E+00 0. -1.
</event>
<event>
 7    1  0.4621547E-010  0.4778727E+02  0.7816164E-02  0.1312668E+00
        -11   -1    0    0    0    0  0.00000000000E+00  0.00000000000E+00  0.45593999997E+02  0.45594000000E+02  0.51100000000E-03 0.  1.
         11   -1    0    0    0    0 -0.00000000000E+00 -0.00000000000E+00 -0.45593999997E+02  0.45594000000E+02  0.51100000000E-03 0. -1.
    9900012    2    1    2    0    0 -0.68521522426E+01 -0.36058513912E+02  0.23161495723E+02  0.47787270743E+02  0.19999998627E+02 0.  0.
        -12    1    1    2    0    0  0.68521522426E+01  0.36058513912E+02 -0.23161495723E+02  0.43400729257E+02  0.00000000000E+00 0.  1.
         11    1    3    3    0    0 -0.59515495853E+01 -0.31142246998E+02  0.19481956141E+02  0.37212996465E+02  0.51100000000E-03 0. -1.
        -11    1    3    3    0    0 -0.22232009064E+01 -0.62338527512E+01  0.49938956574E+01  0.82911118972E+01  0.51100000000E-03 0.  1.
        -12    1    3    3    0    0  0.13225982491E+01  0.13175858370E+01 -0.13143560755E+01  0.22831623814E+01  0.00000000000E+00 0.  1.
</event>
<event>
 7    1  0.4621547E-010  0.4778727E+02  0.7816164E-02  0.1312668E+00
        -11   -1    0    0    0    0  0.00000000000E+00  0.00000000000E+00  0.45593999997E+02  0.45594000000E+02  0.51100000000E-03 0. -1.
         11   -1    0    0    0    0 -0.00000000000E+00 -0.00000000000E+00 -0.45593999997E+02  0.45594000000E+02  0.51100000000E-03 0.  1.
    9900012    2    1    2    0    0  0.17428288877E+02  0.16260721527E+02  0.36269365081E+02  0.47787272343E+02  0.20000005921E+02 0.  0.
        -12    1    1    2    0    0 -0.17428288877E+02 -0.16260721527E+02 -0.36269365081E+02  0.43400727657E+02  0.00000000000E+00 0.  1.
         11    1    3    3    0    0  0.54246398399E+01  0.26727360924E+01  0.14684679441E+02  0.15881122320E+02  0.51100000000E-03 0. -1.
        -11    1    3    3    0    0  0.74718864399E+01 -0.13688033340E+01  0.48697077411E+01  0.90231238096E+01  0.51100000000E-03 0.  1.
        -12    1    3    3    0    0  0.45317625973E+01  0.14956788768E+02  0.16714977899E+02  0.22883026213E+02  0.00000000000E+00 0.  1.
</event>
<event>
 7    1  0.4621547E-010  0.4778727E+02  0.7816164E-02  0.1312668E+00
        -11   -1    0    0    0    0  0.00000000000E+00  0.00000000000E+00  0.45593999997E+02  0.45594000000E+02  0.51100000000E-03 0. -1.
         11   -1    0    0    0    0 -0.00000000000E+00 -0.00000000000E+00 -0.45593999997E+02  0.45594000000E+02  0.51100000000E-03 0.  1.
    9900012    2    1    2    0    0  0.11578931641E+02 -0.13970311815E+02  0.39425652226E+02  0.47787270472E+02  0.19999997390E+02 0.  0.
        -12    1    1    2    0    0 -0.11578931641E+02  0.13970311815E+02 -0.39425652226E+02  0.43400729528E+02  0.00000000000E+00 0.  1.
         11    1    3    3    0    0  0.30379205836E+01  0.10289057170E+01  0.65458384829E+01  0.72894176826E+01  0.51100000000E-03 0. -1.
        -11    1    3    3    0    0  0.13093849302E+02 -0.12813613691E+02  0.23024379547E+02  0.29423793759E+02  0.51100000000E-03 0.  1.
        -12    1    3    3    0    0 -0.45528382445E+01 -0.21856038412E+01  0.98554341953E+01  0.11074059030E+02  0.00000000000E+00 0.  1.
</event>
<event>
 7    1  0.4621547E-010  0.4778727E+02  0.7816164E-02  0.1312668E+00
        -11   -1    0    0    0    0  0.00000000000E+00  0.00000000000E+00  0.45593999997E+02  0.45594000000E+02  0.51100000000E-03 0.  1.
         11   -1    0    0    0    0 -0.00000000000E+00 -0.00000000000E+00 -0.45593999997E+02  0.45594000000E+02  0.51100000000E-03 0. -1.
    9900012    2    1    2    0    0  0.34115397516E+02  0.26079337451E+02  0.62953283728E+01  0.47787270180E+02  0.19999996060E+02 0.  0.
        -12    1    1    2    0    0 -0.34115397516E+02 -0.26079337451E+02 -0.62953283728E+01  0.43400729820E+02  0.00000000000E+00 0.  1.
         11    1    3    3    0    0 -0.77996603323E+00  0.47336737799E+00 -0.34817206447E-01  0.91303679363E+00  0.51100000000E-03 0. -1.
        -11    1    3    3    0    0  0.60580639082E+01  0.97807260911E+01  0.78779672634E+01  0.13943640473E+02  0.51100000000E-03 0.  1.
         12    1    3    3    0    0  0.28837299641E+02  0.15825243982E+02 -0.15478216842E+01  0.32930592913E+02  0.00000000000E+00 0. -1.
</event>
<event>
 7    1  0.4621547E-010  0.4778727E+02  0.7816164E-02  0.1312668E+00
        -11   -1    0    0    0    0  0.00000000000E+00  0.00000000000E+00  0.45593999997E+02  0.45594000000E+02  0.51100000000E-03 0.  1.
         11   -1    0    0    0    0 -0.00000000000E+00 -0.00000000000E+00 -0.45593999997E+02  0.45594000000E+02  0.51100000000E-03 0. -1.
    9900012    2    1    2    0    0  0.24157183654E+02  0.26108861008E+02 -0.24867268616E+02  0.47787271969E+02  0.20000004214E+02 0.  0.
        -12    1    1    2    0    0 -0.24157183654E+02 -0.26108861008E+02  0.24867268616E+02  0.43400728031E+02  0.00000000000E+00 0.  1.
         11    1    3    3    0    0  0.84689779095E+01  0.10421111384E+02 -0.19970562385E+02  0.24065463044E+02  0.51100000000E-03 0. -1.
        -11    1    3    3    0    0  0.10777198737E+01  0.49074792731E+01 -0.57289797760E+00  0.50569798591E+01  0.51100000000E-03 0.  1.
         12    1    3    3    0    0  0.14610485871E+02  0.10780270351E+02 -0.43238082534E+01  0.18664829065E+02  0.00000000000E+00 0. -1.
</event>
<event>
 7    1  0.4621547E-010  0.4778727E+02  0.7816164E-02  0.1312668E+00
        -11   -1    0    0    0    0  0.00000000000E+00  0.00000000000E+00  0.45593999997E+02  0.45594000000E+02  0.51100000000E-03 0.  1.
         11   -1    0    0    0    0 -0.00000000000E+00 -0.00000000000E+00 -0.45593999997E+02  0.45594000000E+02  0.51100000000E-03 0. -1.
    9900012    2    1    2    0    0 -0.17431805971E+02  0.20761188227E+02 -0.33892892399E+02  0.47787274762E+02  0.20000016948E+02 0.  0.
        -12    1    1    2    0    0  0.17431805971E+02 -0.20761188227E+02  0.33892892399E+02  0.43400725238E+02  0.00000000000E+00 0.  1.
         11    1    3    3    0    0 -0.61572299651E+00  0.11754030679E+00  0.18982484848E+01  0.19990693093E+01  0.51100000000E-03 0. -1.
        -11    1    3    3    0    0 -0.62332547216E+01  0.57985875225E+01 -0.46434965912E+01  0.96973781268E+01  0.51100000000E-03 0.  1.
         12    1    3    3    0    0 -0.10582828253E+02  0.14845060398E+02 -0.31147644293E+02  0.36090827326E+02  0.00000000000E+00 0. -1.
</event>
<event>
 7    1  0.4621547E-010  0.4778727E+02  0.7816164E-02  0.1312668E+00
        -11   -1    0    0    0    0  0.00000000000E+00  0.00000000000E+00  0.45593999997E+02  0.45594000000E+02  0.51100000000E-03 0.  1.
         11   -1    0    0    0    0 -0.00000000000E+00 -0.00000000000E+00 -0.45593999997E+02  0.45594000000E+02  0.51100000000E-03 0. -1.
    9900012    2    1    2    0    0  0.13745606842E+02  0.25030285897E+02 -0.32682811707E+02  0.47787273040E+02  0.20000009099E+02 0.  0.
        -12    1    1    2    0    0 -0.13745606842E+02 -0.25030285897E+02  0.32682811707E+02  0.43400726960E+02  0.00000000000E+00 0.  1.
         11    1    3    3    0    0  0.92296567788E+01  0.84684705028E+01 -0.10428129310E+02  0.16298694367E+02  0.51100000000E-03 0. -1.
        -11    1    3    3    0    0  0.42806523820E+01 -0.12505410100E+01 -0.46779571647E+01  0.64630581870E+01  0.51100000000E-03 0.  1.
         12    1    3    3    0    0  0.23529768100E+00  0.17812356405E+02 -0.17576725233E+02  0.25025520486E+02  0.00000000000E+00 0. -1.
</event>
<event>
 7    1  0.4621547E-010  0.4778727E+02  0.7816164E-02  0.1312668E+00
        -11   -1    0    0    0    0  0.00000000000E+00  0.00000000000E+00  0.45593999997E+02  0.45594000000E+02  0.51100000000E-03 0. -1.
         11   -1    0    0    0    0 -0.00000000000E+00 -0.00000000000E+00 -0.45593999997E+02  0.45594000000E+02  0.51100000000E-03 0.  1.
    9900012    2    1    2    0    0 -0.33610941314E+02 -0.26024715067E+02  0.87545476173E+01  0.47787271039E+02  0.19999999975E+02 0.  0.
        -12    1    1    2    0    0  0.33610941314E+02  0.26024715067E+02 -0.87545476173E+01  0.43400728961E+02  0.00000000000E+00 0.  1.
         11    1    3    3    0    0 -0.45124555345E+00 -0.22109015713E+01 -0.19218204934E+01  0.29639673712E+01  0.51100000000E-03 0.  1.
        -11    1    3    3    0    0 -0.10582879608E+02 -0.20425029783E+01  0.78466420236E+01  0.13331877232E+02  0.51100000000E-03 0. -1.
         12    1    3    3    0    0 -0.22576816153E+02 -0.21771310518E+02  0.28297260871E+01  0.31491426436E+02  0.00000000000E+00 0. -1.
</event>
<event>
 7    1  0.4621547E-010  0.4778727E+02  0.7816164E-02  0.1312668E+00
        -11   -1    0    0    0    0  0.00000000000E+00  0.00000000000E+00  0.45593999997E+02  0.45594000000E+02  0.51100000000E-03 0.  1.
         11   -1    0    0    0    0 -0.00000000000E+00 -0.00000000000E+00 -0.45593999997E+02  0.45594000000E+02  0.51100000000E-03 0. -1.
    9900012    2    1    2    0    0 -0.12681348705E+02 -0.27960989645E+02 -0.30675553733E+02  0.47787272544E+02  0.20000006837E+02 0.  0.
        -12    1    1    2    0    0  0.12681348705E+02  0.27960989645E+02  0.30675553733E+02  0.43400727456E+02  0.00000000000E+00 0.  1.
         11    1    3    3    0    0 -0.67106728448E+01 -0.98389222623E+01 -0.95207595157E+01  0.15247372998E+02  0.51100000000E-03 0. -1.
        -11    1    3    3    0    0 -0.10555500804E+02 -0.77953043900E+01 -0.88105604249E+01  0.15805421317E+02  0.51100000000E-03 0.  1.
         12    1    3    3    0    0  0.45848249441E+01 -0.10326762993E+02 -0.12344233792E+02  0.16734478229E+02  0.00000000000E+00 0. -1.
</event>
<event>
 7    1  0.4621547E-010  0.4778728E+02  0.7816164E-02  0.1312668E+00
        -11   -1    0    0    0    0  0.00000000000E+00  0.00000000000E+00  0.45593999997E+02  0.45594000000E+02  0.51100000000E-03 0. -1.
         11   -1    0    0    0    0 -0.00000000000E+00 -0.00000000000E+00 -0.45593999997E+02  0.45594000000E+02  0.51100000000E-03 0.  1.
    9900012    2    1    2    0    0  0.41828383066E+02  0.11909564383E+01  0.11514805750E+02  0.47787276981E+02  0.20000027065E+02 0.  0.
        -12    1    1    2    0    0 -0.41828383066E+02 -0.11909564383E+01 -0.11514805750E+02  0.43400723019E+02  0.00000000000E+00 0.  1.
         11    1    3    3    0    0  0.59329195116E+01 -0.41976152403E-01 -0.15069971204E+01  0.61214652258E+01  0.51100000000E-03 0. -1.
        -11    1    3    3    0    0  0.15026196482E+02 -0.75285713467E+01  0.38355870877E+01  0.17238842647E+02  0.51100000000E-03 0.  1.
         12    1    3    3    0    0  0.20869267072E+02  0.87615039374E+01  0.91862157828E+01  0.24426969107E+02  0.00000000000E+00 0. -1.
</event>
<event>
 7    1  0.4621547E-010  0.4778727E+02  0.7816164E-02  0.1312668E+00
        -11   -1    0    0    0    0  0.00000000000E+00  0.00000000000E+00  0.45593999997E+02  0.45594000000E+02  0.51100000000E-03 0.  1.
         11   -1    0    0    0    0 -0.00000000000E+00 -0.00000000000E+00 -0.45593999997E+02  0.45594000000E+02  0.51100000000E-03 0. -1.
    9900012    2    1    2    0    0  0.21051501688E+02  0.30467551842E+02 -0.22631520655E+02  0.47787272290E+02  0.20000005681E+02 0.  0.
        -12    1    1    2    0    0 -0.21051501688E+02 -0.30467551842E+02  0.22631520655E+02  0.43400727710E+02  0.00000000000E+00 0.  1.
         11    1    3    3    0    0  0.22180748195E+01  0.30056472833E+01  0.16433266332E+01  0.40809673095E+01  0.51100000000E-03 0. -1.
        -11    1    3    3    0    0  0.75530065507E+01  0.82499551738E+01 -0.60619282353E+00  0.11201657838E+02  0.51100000000E-03 0.  1.
         12    1    3    3    0    0  0.11280420318E+02  0.19211949385E+02 -0.23668654464E+02  0.32504647143E+02  0.00000000000E+00 0. -1.
</event>
<event>
 7    1  0.4621547E-010  0.4778727E+02  0.7816164E-02  0.1312668E+00
        -11   -1    0    0    0    0  0.00000000000E+00  0.00000000000E+00  0.45593999997E+02  0.45594000000E+02  0.51100000000E-03 0. -1.
         11   -1    0    0    0    0 -0.00000000000E+00 -0.00000000000E+00 -0.45593999997E+02  0.45594000000E+02  0.51100000000E-03 0.  1.
    9900012    2    1    2    0    0 -0.81988386694E+01 -0.16349716924E+02  0.39358467618E+02  0.47787272215E+02  0.20000005337E+02 0.  0.
        -12    1    1    2    0    0  0.81988386694E+01  0.16349716924E+02 -0.39358467618E+02  0.43400727785E+02  0.00000000000E+00 0.  1.
         11    1    3    3    0    0 -0.10988941942E+01  0.87858633471E+00 -0.14148903785E+01  0.19953439408E+01  0.51100000000E-03 0.  1.
        -11    1    3    3    0    0 -0.65376269084E+00 -0.13537038880E+01  0.13499399549E+02  0.13582846105E+02  0.51100000000E-03 0. -1.
        -12    1    3    3    0    0 -0.64461817843E+01 -0.15874599371E+02  0.27273958448E+02  0.32209082169E+02  0.00000000000E+00 0.  1.
</event>
<event>
 7    1  0.4621547E-010  0.4778726E+02  0.7816164E-02  0.1312668E+00
        -11   -1    0    0    0    0  0.00000000000E+00  0.00000000000E+00  0.45593999997E+02  0.45594000000E+02  0.51100000000E-03 0. -1.
         11   -1    0    0    0    0 -0.00000000000E+00 -0.00000000000E+00 -0.45593999997E+02  0.45594000000E+02  0.51100000000E-03 0.  1.
    9900012    2    1    2    0    0 -0.24151829939E+02 -0.32971850530E+02  0.14600355857E+02  0.47787260283E+02  0.19999950936E+02 0.  0.
        -12    1    1    2    0    0  0.24151829939E+02  0.32971850530E+02 -0.14600355857E+02  0.43400739717E+02  0.00000000000E+00 0.  1.
         11    1    3    3    0    0 -0.10416188231E+02 -0.12272326474E+02  0.49897552405E+01  0.16852436974E+02  0.51100000000E-03 0. -1.
        -11    1    3    3    0    0 -0.79050576438E+00 -0.15046727959E+02  0.31091481292E+01  0.15384918719E+02  0.51100000000E-03 0.  1.
         12    1    3    3    0    0 -0.12945135944E+02 -0.56527960970E+01  0.65014524876E+01  0.15549904590E+02  0.00000000000E+00 0. -1.
</event>
<event>
 7    1  0.4621547E-010  0.4778726E+02  0.7816164E-02  0.1312668E+00
        -11   -1    0    0    0    0  0.00000000000E+00  0.00000000000E+00  0.45593999997E+02  0.45594000000E+02  0.51100000000E-03 0. -1.
         11   -1    0    0    0    0 -0.00000000000E+00 -0.00000000000E+00 -0.45593999997E+02  0.45594000000E+02  0.51100000000E-03 0.  1.
    9900012    2    1    2    0    0 -0.23322383023E+02 -0.47392880468E+01  0.36293655654E+02  0.47787264502E+02  0.19999970172E+02 0.  0.
        -12    1    1    2    0    0  0.23322383023E+02  0.47392880468E+01 -0.36293655654E+02  0.43400735498E+02  0.00000000000E+00 0.  1.
         11    1    3    3    0    0 -0.29843587255E+01 -0.21027483604E+01  0.14817786201E+02  0.15260889091E+02  0.51100000000E-03 0. -1.
        -11    1    3    3    0    0 -0.32827038062E+01  0.20423260876E+01  0.11692787879E+02  0.12315377736E+02  0.51100000000E-03 0.  1.
        -12    1    3    3    0    0 -0.17055320491E+02 -0.46788657740E+01  0.97830815728E+01  0.20210997676E+02  0.00000000000E+00 0.  1.
</event>
<event>
 7    1  0.4621547E-010  0.4778727E+02  0.7816164E-02  0.1312668E+00
        -11   -1    0    0    0    0  0.00000000000E+00  0.00000000000E+00  0.45593999997E+02  0.45594000000E+02  0.51100000000E-03 0.  1.
         11   -1    0    0    0    0 -0.00000000000E+00 -0.00000000000E+00 -0.45593999997E+02  0.45594000000E+02  0.51100000000E-03 0. -1.
    9900012    2    1    2    0    0 -0.29321743364E+02  0.26354390146E+02 -0.18146758209E+02  0.47787270197E+02  0.19999996138E+02 0.  0.
        -12    1    1    2    0    0  0.29321743364E+02 -0.26354390146E+02  0.18146758209E+02  0.43400729803E+02  0.00000000000E+00 0.  1.
         11    1    3    3    0    0 -0.14356553652E+02  0.21859465625E+02 -0.42115539184E+01  0.26489319676E+02  0.51100000000E-03 0. -1.
        -11    1    3    3    0    0 -0.57267848803E+01  0.13975634466E+01 -0.28772437783E+01  0.65595564387E+01  0.51100000000E-03 0.  1.
         12    1    3    3    0    0 -0.92384048316E+01  0.30973610743E+01 -0.11057960512E+02  0.14738394083E+02  0.00000000000E+00 0. -1.
</event>
<event>
 7    1  0.4621547E-010  0.4778725E+02  0.7816164E-02  0.1312668E+00
        -11   -1    0    0    0    0  0.00000000000E+00  0.00000000000E+00  0.45593999997E+02  0.45594000000E+02  0.51100000000E-03 0.  1.
         11   -1    0    0    0    0 -0.00000000000E+00 -0.00000000000E+00 -0.45593999997E+02  0.45594000000E+02  0.51100000000E-03 0. -1.
    9900012    2    1    2    0    0 -0.34200938544E+02 -0.12254742589E+02 -0.23743246713E+02  0.47787254872E+02  0.19999926262E+02 0.  0.
        -12    1    1    2    0    0  0.34200938544E+02  0.12254742589E+02  0.23743246713E+02  0.43400745128E+02  0.00000000000E+00 0.  1.
         11    1    3    3    0    0 -0.66811632586E+01 -0.21002252536E+01 -0.47393264487E+01  0.84563647067E+01  0.51100000000E-03 0. -1.
        -11    1    3    3    0    0 -0.25060238172E+02 -0.16029971166E+01 -0.11202056937E+02  0.27496749205E+02  0.51100000000E-03 0.  1.
         12    1    3    3    0    0 -0.24595371133E+01 -0.85515202192E+01 -0.78018633278E+01  0.11834140960E+02  0.00000000000E+00 0. -1.
</event>
<event>
 7    1  0.4621547E-010  0.4778727E+02  0.7816164E-02  0.1312668E+00
        -11   -1    0    0    0    0  0.00000000000E+00  0.00000000000E+00  0.45593999997E+02  0.45594000000E+02  0.51100000000E-03 0.  1.
         11   -1    0    0    0    0 -0.00000000000E+00 -0.00000000000E+00 -0.45593999997E+02  0.45594000000E+02  0.51100000000E-03 0. -1.
    9900012    2    1    2    0    0  0.17806560331E+02 -0.39697032074E+01 -0.39380084797E+02  0.47787271746E+02  0.20000003197E+02 0.  0.
        -12    1    1    2    0    0 -0.17806560331E+02  0.39697032074E+01  0.39380084797E+02  0.43400728254E+02  0.00000000000E+00 0.  1.
         11    1    3    3    0    0  0.15970360306E+02 -0.42570247259E+01 -0.23565652565E+02  0.28783930394E+02  0.51100000000E-03 0. -1.
        -11    1    3    3    0    0  0.23991044160E+01 -0.28468253137E+01 -0.10060402158E+01  0.38564534929E+01  0.51100000000E-03 0.  1.
         12    1    3    3    0    0 -0.56290439107E+00  0.31341468322E+01 -0.14808392016E+02  0.15146887859E+02  0.00000000000E+00 0. -1.
</event>
<event>
 7    1  0.4621547E-010  0.4778727E+02  0.7816164E-02  0.1312668E+00
        -11   -1    0    0    0    0  0.00000000000E+00  0.00000000000E+00  0.45593999997E+02  0.45594000000E+02  0.51100000000E-03 0.  1.
         11   -1    0    0    0    0 -0.00000000000E+00 -0.00000000000E+00 -0.45593999997E+02  0.45594000000E+02  0.51100000000E-03 0. -1.
    9900012    2    1    2    0    0 -0.13543838808E+02 -0.12819457039E+02 -0.39189909429E+02  0.47787273630E+02  0.20000011787E+02 0.  0.
        -12    1    1    2    0    0  0.13543838808E+02  0.12819457039E+02  0.39189909429E+02  0.43400726370E+02  0.00000000000E+00 0.  1.
         11    1    3    3    0    0 -0.11356160927E+01  0.23949562172E+01 -0.44356385664E+01  0.51672361031E+01  0.51100000000E-03 0. -1.
        -11    1    3    3    0    0 -0.20803082154E+00 -0.39182355215E+01  0.18315058004E+00  0.39280263264E+01  0.51100000000E-03 0.  1.
         12    1    3    3    0    0 -0.12200191893E+02 -0.11296177735E+02 -0.34937421443E+02  0.38692011200E+02  0.00000000000E+00 0. -1.
</event>
<event>
 7    1  0.4621547E-010  0.4778727E+02  0.7816164E-02  0.1312668E+00
        -11   -1    0    0    0    0  0.00000000000E+00  0.00000000000E+00  0.45593999997E+02  0.45594000000E+02  0.51100000000E-03 0.  1.
         11   -1    0    0    0    0 -0.00000000000E+00 -0.00000000000E+00 -0.45593999997E+02  0.45594000000E+02  0.51100000000E-03 0. -1.
    9900012    2    1    2    0    0  0.33401875847E+02 -0.14832139249E+02 -0.23408236890E+02  0.47787271676E+02  0.20000002878E+02 0.  0.
        -12    1    1    2    0    0 -0.33401875847E+02  0.14832139249E+02  0.23408236890E+02  0.43400728324E+02  0.00000000000E+00 0.  1.
         11    1    3    3    0    0  0.13390861335E+02  0.89549586388E+00 -0.28209673116E+01  0.13714041598E+02  0.51100000000E-03 0. -1.
        -11    1    3    3    0    0  0.10753800838E+01 -0.54988203256E+01 -0.36633328463E+01  0.66942867507E+01  0.51100000000E-03 0.  1.
         12    1    3    3    0    0  0.18935634428E+02 -0.10228814787E+02 -0.16923936732E+02  0.27378943326E+02  0.00000000000E+00 0. -1.
</event>
<event>
 7    1  0.4621547E-010  0.4778727E+02  0.7816164E-02  0.1312668E+00
        -11   -1    0    0    0    0  0.00000000000E+00  0.00000000000E+00  0.45593999997E+02  0.45594000000E+02  0.51100000000E-03 0.  1.
         11   -1    0    0    0    0 -0.00000000000E+00 -0.00000000000E+00 -0.45593999997E+02  0.45594000000E+02  0.51100000000E-03 0. -1.
    9900012    2    1    2    0    0 -0.11667293600E+02  0.36231860861E+02 -0.20850657802E+02  0.47787269451E+02  0.19999992736E+02 0.  0.
        -12    1    1    2    0    0  0.11667293600E+02 -0.36231860861E+02  0.20850657802E+02  0.43400730549E+02  0.00000000000E+00 0.  1.
         11    1    3    3    0    0 -0.26786892942E+01  0.14750149081E+02 -0.99725974677E+01  0.18005415151E+02  0.51100000000E-03 0. -1.
        -11    1    3    3    0    0 -0.67992461676E+01  0.20848444956E+02 -0.36853075899E+01  0.22236656624E+02  0.51100000000E-03 0.  1.
         12    1    3    3    0    0 -0.21893581384E+01  0.63326682399E+00 -0.71927527445E+01  0.75451976761E+01  0.00000000000E+00 0. -1.
</event>
<event>
 7    1  0.4621547E-010  0.4778727E+02  0.7816164E-02  0.1312668E+00
        -11   -1    0    0    0    0  0.00000000000E+00  0.00000000000E+00  0.45593999997E+02  0.45594000000E+02  0.51100000000E-03 0.  1.
         11   -1    0    0    0    0 -0.00000000000E+00 -0.00000000000E+00 -0.45593999997E+02  0.45594000000E+02  0.51100000000E-03 0. -1.
    9900012    2    1    2    0    0  0.27195396151E+02  0.17023744980E+02 -0.29227147155E+02  0.47787267336E+02  0.19999983091E+02 0.  0.
        -12    1    1    2    0    0 -0.27195396151E+02 -0.17023744980E+02  0.29227147155E+02  0.43400732664E+02  0.00000000000E+00 0.  1.
         11    1    3    3    0    0  0.15838893998E+02  0.42859182006E+01 -0.17230880321E+02  0.23793757475E+02  0.51100000000E-03 0.  1.
        -11    1    3    3    0    0  0.11533023557E+02  0.61917558057E+01 -0.40617280564E+01  0.13705696166E+02  0.51100000000E-03 0. -1.
         12    1    3    3    0    0 -0.17652140409E+00  0.65460709734E+01 -0.79345387781E+01  0.10287813695E+02  0.00000000000E+00 0. -1.
</event>
<event>
 7    1  0.4621547E-010  0.4778727E+02  0.7816164E-02  0.1312668E+00
        -11   -1    0    0    0    0  0.00000000000E+00  0.00000000000E+00  0.45593999997E+02  0.45594000000E+02  0.51100000000E-03 0.  1.
         11   -1    0    0    0    0 -0.00000000000E+00 -0.00000000000E+00 -0.45593999997E+02  0.45594000000E+02  0.51100000000E-03 0. -1.
    9900012    2    1    2    0    0  0.67790427595E+01 -0.35639263021E+02 -0.23822489727E+02  0.47787268368E+02  0.19999987798E+02 0.  0.
        -12    1    1    2    0    0 -0.67790427595E+01  0.35639263021E+02  0.23822489727E+02  0.43400731632E+02  0.00000000000E+00 0.  1.
         11    1    3    3    0    0  0.36691185773E+01 -0.24998483314E+02 -0.75092076222E+01  0.26358581117E+02  0.51100000000E-03 0. -1.
        -11    1    3    3    0    0  0.24181088593E+01 -0.38802503876E+01 -0.10070705228E+01  0.46816433893E+01  0.51100000000E-03 0.  1.
        -12    1    3    3    0    0  0.69181532286E+00 -0.67605293191E+01 -0.15306211582E+02  0.16747043862E+02  0.00000000000E+00 0.  1.
</event>
<event>
 7    1  0.4621547E-010  0.4778726E+02  0.7816164E-02  0.1312668E+00
        -11   -1    0    0    0    0  0.00000000000E+00  0.00000000000E+00  0.45593999997E+02  0.45594000000E+02  0.51100000000E-03 0.  1.
         11   -1    0    0    0    0 -0.00000000000E+00 -0.00000000000E+00 -0.45593999997E+02  0.45594000000E+02  0.51100000000E-03 0. -1.
    9900012    2    1    2    0    0  0.29137389905E+02  0.93959370242E+01 -0.30762847808E+02  0.47787263505E+02  0.19999965625E+02 0.  0.
        -12    1    1    2    0    0 -0.29137389905E+02 -0.93959370242E+01  0.30762847808E+02  0.43400736495E+02  0.00000000000E+00 0.  1.
         11    1    3    3    0    0 -0.44036850640E+00  0.75275923411E-02 -0.58637901256E+01  0.58803074736E+01  0.51100000000E-03 0. -1.
        -11    1    3    3    0    0  0.16770567197E+02 -0.13739864826E+00 -0.17742953241E+02  0.24414815020E+02  0.51100000000E-03 0.  1.
         12    1    3    3    0    0  0.12807191215E+02  0.95258080801E+01 -0.71561044411E+01  0.17492141011E+02  0.00000000000E+00 0. -1.
</event>
<event>
 7    1  0.4621547E-010  0.4778727E+02  0.7816164E-02  0.1312668E+00
        -11   -1    0    0    0    0  0.00000000000E+00  0.00000000000E+00  0.45593999997E+02  0.45594000000E+02  0.51100000000E-03 0.  1.
         11   -1    0    0    0    0 -0.00000000000E+00 -0.00000000000E+00 -0.45593999997E+02  0.45594000000E+02  0.51100000000E-03 0. -1.
    9900012    2    1    2    0    0  0.11788321878E+02  0.38156925092E+02 -0.16991417401E+02  0.47787265784E+02  0.19999976017E+02 0.  0.
        -12    1    1    2    0    0 -0.11788321878E+02 -0.38156925092E+02  0.16991417401E+02  0.43400734216E+02  0.00000000000E+00 0.  1.
         11    1    3    3    0    0  0.43765559019E+01  0.42629694545E+01 -0.26938220512E+01  0.66771122229E+01  0.51100000000E-03 0. -1.
        -11    1    3    3    0    0  0.67211576247E+01  0.10188020898E+02  0.19531886836E+01  0.12360609852E+02  0.51100000000E-03 0.  1.
         12    1    3    3    0    0  0.69060835189E+00  0.23705934740E+02 -0.16250784033E+02  0.28749543709E+02  0.00000000000E+00 0. -1.
</event>
<event>
 7    1  0.4621547E-010  0.4778727E+02  0.7816164E-02  0.1312668E+00
        -11   -1    0    0    0    0  0.00000000000E+00  0.00000000000E+00  0.45593999997E+02  0.45594000000E+02  0.51100000000E-03 0.  1.
         11   -1    0    0    0    0 -0.00000000000E+00 -0.00000000000E+00 -0.45593999997E+02  0.45594000000E+02  0.51100000000E-03 0. -1.
    9900012    2    1    2    0    0 -0.34145715015E+02  0.26915359687E+01 -0.26654251741E+02  0.47787270102E+02  0.19999995704E+02 0.  0.
        -12    1    1    2    0    0  0.34145715015E+02 -0.26915359687E+01  0.26654251741E+02  0.43400729898E+02  0.00000000000E+00 0.  1.
         11    1    3    3    0    0 -0.11420692025E+02 -0.33937986928E+01 -0.93514497329E+01  0.15145946265E+02  0.51100000000E-03 0. -1.
        -11    1    3    3    0    0 -0.13296093717E+02  0.35164389271E+01 -0.18217437707E+02  0.22826004638E+02  0.51100000000E-03 0.  1.
        -12    1    3    3    0    0 -0.94289292727E+01  0.25688957343E+01  0.91463569834E+00  0.98153191993E+01  0.00000000000E+00 0.  1.
</event>
<event>
 7    1  0.4621547E-010  0.4778727E+02  0.7816164E-02  0.1312668E+00
        -11   -1    0    0    0    0  0.00000000000E+00  0.00000000000E+00  0.45593999997E+02  0.45594000000E+02  0.51100000000E-03 0. -1.
         11   -1    0    0    0    0 -0.00000000000E+00 -0.00000000000E+00 -0.45593999997E+02  0.45594000000E+02  0.51100000000E-03 0.  1.
    9900012    2    1    2    0    0 -0.97519699047E+01  0.41160579519E+02 -0.97123041417E+01  0.47787273335E+02  0.20000010443E+02 0.  0.
        -12    1    1    2    0    0  0.97519699047E+01 -0.41160579519E+02  0.97123041417E+01  0.43400726665E+02  0.00000000000E+00 0.  1.
         11    1    3    3    0    0  0.24970780620E+01  0.96147133710E+01 -0.88459140525E+01  0.13301440063E+02  0.51100000000E-03 0. -1.
        -11    1    3    3    0    0 -0.50256905631E+01  0.13870403392E+02  0.28695777898E+01  0.15029309127E+02  0.51100000000E-03 0.  1.
         12    1    3    3    0    0 -0.72233574035E+01  0.17675462756E+02 -0.37359678790E+01  0.19456524145E+02  0.00000000000E+00 0. -1.
</event>
<event>
 7    1  0.4621547E-010  0.4778727E+02  0.7816164E-02  0.1312668E+00
        -11   -1    0    0    0    0  0.00000000000E+00  0.00000000000E+00  0.45593999997E+02  0.45594000000E+02  0.51100000000E-03 0. -1.
         11   -1    0    0    0    0 -0.00000000000E+00 -0.00000000000E+00 -0.45593999997E+02  0.45594000000E+02  0.51100000000E-03 0.  1.
    9900012    2    1    2    0    0 -0.35556575527E+02  0.11346157731E+02  0.22149899078E+02  0.47787269734E+02  0.19999994026E+02 0.  0.
        -12    1    1    2    0    0  0.35556575527E+02 -0.11346157731E+02 -0.22149899078E+02  0.43400730266E+02  0.00000000000E+00 0.  1.
         11    1    3    3    0    0 -0.27799392452E+02  0.88415653543E+01  0.23809809251E+02  0.37654833892E+02  0.51100000000E-03 0. -1.
        -11    1    3    3    0    0 -0.53418281037E+01 -0.91997505327E-01  0.13167074586E+01  0.55024821511E+01  0.51100000000E-03 0.  1.
        -12    1    3    3    0    0 -0.24153549712E+01  0.25965898819E+01 -0.29766176319E+01  0.46299536908E+01  0.00000000000E+00 0.  1.
</event>
<event>
 7    1  0.4621547E-010  0.4778727E+02  0.7816164E-02  0.1312668E+00
        -11   -1    0    0    0    0  0.00000000000E+00  0.00000000000E+00  0.45593999997E+02  0.45594000000E+02  0.51100000000E-03 0. -1.
         11   -1    0    0    0    0 -0.00000000000E+00 -0.00000000000E+00 -0.45593999997E+02  0.45594000000E+02  0.51100000000E-03 0.  1.
    9900012    2    1    2    0    0 -0.66853792360E+01 -0.41036876921E+02 -0.12446027340E+02  0.47787272362E+02  0.20000006008E+02 0.  0.
        -12    1    1    2    0    0  0.66853792360E+01  0.41036876921E+02  0.12446027340E+02  0.43400727638E+02  0.00000000000E+00 0.  1.
         11    1    3    3    0    0 -0.17832507428E+01 -0.22667048847E+02  0.12374931136E+01  0.22770737277E+02  0.51100000000E-03 0. -1.
        -11    1    3    3    0    0  0.17013596043E+01 -0.55421090026E+00 -0.21203941404E+01  0.27744991975E+01  0.51100000000E-03 0.  1.
        -12    1    3    3    0    0 -0.66034880974E+01 -0.17815617173E+02 -0.11563126313E+02  0.22242035888E+02  0.00000000000E+00 0.  1.
</event>
<event>
 7    1  0.4621547E-010  0.4778727E+02  0.7816164E-02  0.1312668E+00
        -11   -1    0    0    0    0  0.00000000000E+00  0.00000000000E+00  0.45593999997E+02  0.45594000000E+02  0.51100000000E-03 0.  1.
         11   -1    0    0    0    0 -0.00000000000E+00 -0.00000000000E+00 -0.45593999997E+02  0.45594000000E+02  0.51100000000E-03 0. -1.
    9900012    2    1    2    0    0  0.36180145000E+02  0.18873580340E+02 -0.14778636271E+02  0.47787274003E+02  0.20000013488E+02 0.  0.
        -12    1    1    2    0    0 -0.36180145000E+02 -0.18873580340E+02  0.14778636271E+02  0.43400725997E+02  0.00000000000E+00 0.  1.
         11    1    3    3    0    0  0.11691263888E+02  0.82389082438E+01 -0.73032074439E+01  0.16059330608E+02  0.51100000000E-03 0. -1.
        -11    1    3    3    0    0  0.22338650981E+02  0.27081287126E+01 -0.42266256858E+01  0.22895712562E+02  0.51100000000E-03 0.  1.
        -12    1    3    3    0    0  0.21502301305E+01  0.79265433835E+01 -0.32488031416E+01  0.88322308325E+01  0.00000000000E+00 0.  1.
</event>
<event>
 7    1  0.4621547E-010  0.4778727E+02  0.7816164E-02  0.1312668E+00
        -11   -1    0    0    0    0  0.00000000000E+00  0.00000000000E+00  0.45593999997E+02  0.45594000000E+02  0.51100000000E-03 0.  1.
         11   -1    0    0    0    0 -0.00000000000E+00 -0.00000000000E+00 -0.45593999997E+02  0.45594000000E+02  0.51100000000E-03 0. -1.
    9900012    2    1    2    0    0  0.21509094774E+02  0.37633352671E+02 -0.21709387151E+01  0.47787269981E+02  0.19999995151E+02 0.  0.
        -12    1    1    2    0    0 -0.21509094774E+02 -0.37633352671E+02  0.21709387151E+01  0.43400730019E+02  0.00000000000E+00 0.  1.
         11    1    3    3    0    0  0.56898986634E+01  0.15632092757E+02 -0.21949376690E+00  0.16636870154E+02  0.51100000000E-03 0. -1.
        -11    1    3    3    0    0  0.18075922223E+02  0.16786352876E+02  0.11152588816E+01  0.24693408225E+02  0.51100000000E-03 0.  1.
        -12    1    3    3    0    0 -0.22567261129E+01  0.52149070385E+01 -0.30667038298E+01  0.64569916020E+01  0.00000000000E+00 0.  1.
</event>
<event>
 7    1  0.4621547E-010  0.4778727E+02  0.7816164E-02  0.1312668E+00
        -11   -1    0    0    0    0  0.00000000000E+00  0.00000000000E+00  0.45593999997E+02  0.45594000000E+02  0.51100000000E-03 0.  1.
         11   -1    0    0    0    0 -0.00000000000E+00 -0.00000000000E+00 -0.45593999997E+02  0.45594000000E+02  0.51100000000E-03 0. -1.
    9900012    2    1    2    0    0  0.25167858604E+02  0.17980427102E+02 -0.30445137349E+02  0.47787271277E+02  0.20000001062E+02 0.  0.
        -12    1    1    2    0    0 -0.25167858604E+02 -0.17980427102E+02  0.30445137349E+02  0.43400728723E+02  0.00000000000E+00 0.  1.
         11    1    3    3    0    0  0.23520650012E+02  0.18728615965E+02 -0.20137863647E+02  0.36187229591E+02  0.51100000000E-03 0. -1.
        -11    1    3    3    0    0  0.13806092480E+01 -0.13444771954E+01 -0.82660103860E+00  0.20968954105E+01  0.51100000000E-03 0.  1.
         12    1    3    3    0    0  0.26659934327E+00  0.59628833246E+00 -0.94806726632E+01  0.95031462754E+01  0.00000000000E+00 0. -1.
</event>
<event>
 7    1  0.4621547E-010  0.4778727E+02  0.7816164E-02  0.1312668E+00
        -11   -1    0    0    0    0  0.00000000000E+00  0.00000000000E+00  0.45593999997E+02  0.45594000000E+02  0.51100000000E-03 0.  1.
         11   -1    0    0    0    0 -0.00000000000E+00 -0.00000000000E+00 -0.45593999997E+02  0.45594000000E+02  0.51100000000E-03 0. -1.
    9900012    2    1    2    0    0  0.18250604456E+02  0.16982795332E+02 -0.35526377755E+02  0.47787269399E+02  0.19999992498E+02 0.  0.
        -12    1    1    2    0    0 -0.18250604456E+02 -0.16982795332E+02  0.35526377755E+02  0.43400730601E+02  0.00000000000E+00 0.  1.
         11    1    3    3    0    0  0.14388792570E+01 -0.16164522775E+01 -0.33117483657E+01  0.39561305566E+01  0.51100000000E-03 0.  1.
        -11    1    3    3    0    0  0.39785991529E+01  0.27499803378E+01  0.92042685879E+00  0.49232945211E+01  0.51100000000E-03 0. -1.
         12    1    3    3    0    0  0.12833126046E+02  0.15849267271E+02 -0.33135056248E+02  0.38907844321E+02  0.00000000000E+00 0. -1.
</event>
<event>
 7    1  0.4621547E-010  0.4778728E+02  0.7816164E-02  0.1312668E+00
        -11   -1    0    0    0    0  0.00000000000E+00  0.00000000000E+00  0.45593999997E+02  0.45594000000E+02  0.51100000000E-03 0. -1.
         11   -1    0    0    0    0 -0.00000000000E+00 -0.00000000000E+00 -0.45593999997E+02  0.45594000000E+02  0.51100000000E-03 0.  1.
    9900012    2    1    2    0    0  0.69881507991E+01 -0.15417380614E+02  0.39963638564E+02  0.47787282450E+02  0.20000052003E+02 0.  0.
        -12    1    1    2    0    0 -0.69881507991E+01  0.15417380614E+02 -0.39963638564E+02  0.43400717550E+02  0.00000000000E+00 0.  1.
         11    1    3    3    0    0  0.64666894418E-01 -0.14046356249E+01  0.20197417786E+02  0.20246305059E+02  0.51100000000E-03 0. -1.
        -11    1    3    3    0    0  0.39878445502E+01  0.73946598179E+00  0.52812309368E+01  0.66589124160E+01  0.51100000000E-03 0.  1.
         12    1    3    3    0    0  0.29356393545E+01 -0.14752210971E+02  0.14484989841E+02  0.20882064975E+02  0.00000000000E+00 0. -1.
</event>
<event>
 7    1  0.4621547E-010  0.4778727E+02  0.7816164E-02  0.1312668E+00
        -11   -1    0    0    0    0  0.00000000000E+00  0.00000000000E+00  0.45593999997E+02  0.45594000000E+02  0.51100000000E-03 0.  1.
         11   -1    0    0    0    0 -0.00000000000E+00 -0.00000000000E+00 -0.45593999997E+02  0.45594000000E+02  0.51100000000E-03 0. -1.
    9900012    2    1    2    0    0  0.20261619893E+02  0.10366694220E+02 -0.36954323153E+02  0.47787267409E+02  0.19999983424E+02 0.  0.
        -12    1    1    2    0    0 -0.20261619893E+02 -0.10366694220E+02  0.36954323153E+02  0.43400732591E+02  0.00000000000E+00 0.  1.
         11    1    3    3    0    0  0.76474951843E+01  0.68060828557E+01 -0.15274428264E+02  0.18387906501E+02  0.51100000000E-03 0. -1.
        -11    1    3    3    0    0  0.61619301795E+01  0.55428587882E+01 -0.19049838533E+01  0.85042125342E+01  0.51100000000E-03 0.  1.
        -12    1    3    3    0    0  0.64521945292E+01 -0.19822474240E+01 -0.19774911035E+02  0.20895148373E+02  0.00000000000E+00 0.  1.
</event>
<event>
 7    1  0.4621547E-010  0.4778727E+02  0.7816164E-02  0.1312668E+00
        -11   -1    0    0    0    0  0.00000000000E+00  0.00000000000E+00  0.45593999997E+02  0.45594000000E+02  0.51100000000E-03 0. -1.
         11   -1    0    0    0    0 -0.00000000000E+00 -0.00000000000E+00 -0.45593999997E+02  0.45594000000E+02  0.51100000000E-03 0.  1.
    9900012    2    1    2    0    0 -0.27800465968E+01  0.43308355825E+02 -0.53019965889E+00  0.47787268958E+02  0.19999990486E+02 0.  0.
        -12    1    1    2    0    0  0.27800465968E+01 -0.43308355825E+02  0.53019965889E+00  0.43400731042E+02  0.00000000000E+00 0.  1.
         11    1    3    3    0    0  0.13735021065E+01  0.55210753031E+01 -0.22511205313E+01  0.61185230609E+01  0.51100000000E-03 0. -1.
        -11    1    3    3    0    0  0.52576782843E+01  0.48630171463E+01  0.19591592412E+01  0.74249863232E+01  0.51100000000E-03 0.  1.
         12    1    3    3    0    0 -0.94112269876E+01  0.32924263375E+02 -0.23823836875E+00  0.34243759574E+02  0.00000000000E+00 0. -1.
</event>
<event>
 7    1  0.4621547E-010  0.4778733E+02  0.7816164E-02  0.1312668E+00
        -11   -1    0    0    0    0  0.00000000000E+00  0.00000000000E+00  0.45593999997E+02  0.45594000000E+02  0.51100000000E-03 0.  1.
         11   -1    0    0    0    0 -0.00000000000E+00 -0.00000000000E+00 -0.45593999997E+02  0.45594000000E+02  0.51100000000E-03 0. -1.
    9900012    2    1    2    0    0 -0.60642332286E+01  0.66029839091E+00 -0.42969842663E+02  0.47787328380E+02  0.20000261413E+02 0.  0.
        -12    1    1    2    0    0  0.60642332286E+01 -0.66029839091E+00  0.42969842663E+02  0.43400671620E+02  0.00000000000E+00 0.  1.
         11    1    3    3    0    0 -0.86091435824E+00  0.29041785670E+01 -0.46698294283E+01  0.55662135991E+01  0.51100000000E-03 0. -1.
        -11    1    3    3    0    0  0.12116924116E+01  0.25669476643E+01  0.24666960023E+00  0.28492569144E+01  0.51100000000E-03 0.  1.
         12    1    3    3    0    0 -0.64150112820E+01 -0.48108278403E+01 -0.38546682835E+02  0.39371857866E+02  0.00000000000E+00 0. -1.
</event>
<event>
 7    1  0.4621547E-010  0.4778727E+02  0.7816164E-02  0.1312668E+00
        -11   -1    0    0    0    0  0.00000000000E+00  0.00000000000E+00  0.45593999997E+02  0.45594000000E+02  0.51100000000E-03 0. -1.
         11   -1    0    0    0    0 -0.00000000000E+00 -0.00000000000E+00 -0.45593999997E+02  0.45594000000E+02  0.51100000000E-03 0.  1.
    9900012    2    1    2    0    0  0.41826840038E+02 -0.75433355142E+01  0.87884363019E+01  0.47787273383E+02  0.20000010664E+02 0.  0.
        -12    1    1    2    0    0 -0.41826840038E+02  0.75433355142E+01 -0.87884363019E+01  0.43400726617E+02  0.00000000000E+00 0.  1.
         11    1    3    3    0    0  0.77902776912E+01  0.30274240409E+01  0.39633576677E+01  0.92499690320E+01  0.51100000000E-03 0. -1.
        -11    1    3    3    0    0  0.10841800859E+02 -0.11359760544E+01 -0.45323223476E+01  0.11805805080E+02  0.51100000000E-03 0.  1.
         12    1    3    3    0    0  0.23194761487E+02 -0.94347835007E+01  0.93574009818E+01  0.26731499271E+02  0.00000000000E+00 0. -1.
</event>
<event>
 7    1  0.4621547E-010  0.4778727E+02  0.7816164E-02  0.1312668E+00
        -11   -1    0    0    0    0  0.00000000000E+00  0.00000000000E+00  0.45593999997E+02  0.45594000000E+02  0.51100000000E-03 0.  1.
         11   -1    0    0    0    0 -0.00000000000E+00 -0.00000000000E+00 -0.45593999997E+02  0.45594000000E+02  0.51100000000E-03 0. -1.
    9900012    2    1    2    0    0 -0.33412347304E+01  0.42497515194E+02  0.81498687261E+01  0.47787274114E+02  0.20000013994E+02 0.  0.
        -12    1    1    2    0    0  0.33412347304E+01 -0.42497515194E+02 -0.81498687261E+01  0.43400725886E+02  0.00000000000E+00 0.  1.
         11    1    3    3    0    0  0.37469722356E+01  0.14748946384E+02 -0.39060399788E+01  0.15710772385E+02  0.51100000000E-03 0. -1.
        -11    1    3    3    0    0  0.10511958044E+01  0.10867369116E+02  0.54724541669E+01  0.12212799801E+02  0.51100000000E-03 0.  1.
        -12    1    3    3    0    0 -0.81394027703E+01  0.16881199695E+02  0.65834545380E+01  0.19863701927E+02  0.00000000000E+00 0.  1.
</event>
<event>
 7    1  0.4621547E-010  0.4778728E+02  0.7816164E-02  0.1312668E+00
        -11   -1    0    0    0    0  0.00000000000E+00  0.00000000000E+00  0.45593999997E+02  0.45594000000E+02  0.51100000000E-03 0. -1.
         11   -1    0    0    0    0 -0.00000000000E+00 -0.00000000000E+00 -0.45593999997E+02  0.45594000000E+02  0.51100000000E-03 0.  1.
    9900012    2    1    2    0    0 -0.41840429805E+02  0.10003004978E+02 -0.57394273581E+01  0.47787277641E+02  0.20000030076E+02 0.  0.
        -12    1    1    2    0    0  0.41840429805E+02 -0.10003004978E+02  0.57394273581E+01  0.43400722359E+02  0.00000000000E+00 0.  1.
         11    1    3    3    0    0 -0.81546515699E+01  0.10144650840E+02  0.13546602393E+01  0.13086152510E+02  0.51100000000E-03 0.  1.
        -11    1    3    3    0    0 -0.81537947942E+01 -0.39166618834E+00  0.13487173469E+00  0.81643102951E+01  0.51100000000E-03 0. -1.
         12    1    3    3    0    0 -0.25531983441E+02  0.25002032698E+00 -0.72289593322E+01  0.26536814836E+02  0.00000000000E+00 0. -1.
</event>
<event>
 7    1  0.4621547E-010  0.4778732E+02  0.7816164E-02  0.1312668E+00
        -11   -1    0    0    0    0  0.00000000000E+00  0.00000000000E+00  0.45593999997E+02  0.45594000000E+02  0.51100000000E-03 0.  1.
         11   -1    0    0    0    0 -0.00000000000E+00 -0.00000000000E+00 -0.45593999997E+02  0.45594000000E+02  0.51100000000E-03 0. -1.
    9900012    2    1    2    0    0 -0.38465192159E+02  0.19614528211E+02 -0.43952504951E+01  0.47787320838E+02  0.20000227028E+02 0.  0.
        -12    1    1    2    0    0  0.38465192159E+02 -0.19614528211E+02  0.43952504951E+01  0.43400679162E+02  0.00000000000E+00 0.  1.
         11    1    3    3    0    0 -0.20234298381E+02  0.17991103433E+02 -0.56847313864E+01  0.27666275588E+02  0.51100000000E-03 0. -1.
        -11    1    3    3    0    0 -0.71289282055E+01  0.39671518324E+01 -0.18139032420E+01  0.83576405912E+01  0.51100000000E-03 0.  1.
        -12    1    3    3    0    0 -0.11101965573E+02 -0.23437270546E+01  0.31033841333E+01  0.11763404659E+02  0.00000000000E+00 0.  1.
</event>
<event>
 7    1  0.4621547E-010  0.4778729E+02  0.7816164E-02  0.1312668E+00
        -11   -1    0    0    0    0  0.00000000000E+00  0.00000000000E+00  0.45593999997E+02  0.45594000000E+02  0.51100000000E-03 0.  1.
         11   -1    0    0    0    0 -0.00000000000E+00 -0.00000000000E+00 -0.45593999997E+02  0.45594000000E+02  0.51100000000E-03 0. -1.
    9900012    2    1    2    0    0  0.34152156951E+02 -0.19939571739E+02 -0.17879192907E+02  0.47787287050E+02  0.20000072977E+02 0.  0.
        -12    1    1    2    0    0 -0.34152156951E+02  0.19939571739E+02  0.17879192907E+02  0.43400712950E+02  0.00000000000E+00 0.  1.
         11    1    3    3    0    0  0.12446837314E+02 -0.96847210786E+01 -0.16484606599E+02  0.22813588856E+02  0.51100000000E-03 0. -1.
        -11    1    3    3    0    0  0.31933931084E+00 -0.59893182989E+00  0.11869526747E+01  0.13673162931E+01  0.51100000000E-03 0.  1.
         12    1    3    3    0    0  0.21385980326E+02 -0.96559188304E+01 -0.25815389832E+01  0.23606381901E+02  0.00000000000E+00 0. -1.
</event>
<event>
 7    1  0.4621547E-010  0.4778727E+02  0.7816164E-02  0.1312668E+00
        -11   -1    0    0    0    0  0.00000000000E+00  0.00000000000E+00  0.45593999997E+02  0.45594000000E+02  0.51100000000E-03 0.  1.
         11   -1    0    0    0    0 -0.00000000000E+00 -0.00000000000E+00 -0.45593999997E+02  0.45594000000E+02  0.51100000000E-03 0. -1.
    9900012    2    1    2    0    0  0.77175582486E+01  0.21184417384E+02 -0.37084804452E+02  0.47787274586E+02  0.20000016148E+02 0.  0.
        -12    1    1    2    0    0 -0.77175582486E+01 -0.21184417384E+02  0.37084804452E+02  0.43400725414E+02  0.00000000000E+00 0.  1.
         11    1    3    3    0    0  0.24268320046E+01  0.38492697546E+00 -0.31803688911E+01  0.40190084473E+01  0.51100000000E-03 0. -1.
        -11    1    3    3    0    0  0.10319195198E+02  0.10174869266E+02 -0.25458169748E+02  0.29293892901E+02  0.51100000000E-03 0.  1.
         12    1    3    3    0    0 -0.50284689544E+01  0.10624621142E+02 -0.84462658128E+01  0.14474373237E+02  0.00000000000E+00 0. -1.
</event>
<event>
 7    1  0.4621547E-010  0.4778727E+02  0.7816164E-02  0.1312668E+00
        -11   -1    0    0    0    0  0.00000000000E+00  0.00000000000E+00  0.45593999997E+02  0.45594000000E+02  0.51100000000E-03 0.  1.
         11   -1    0    0    0    0 -0.00000000000E+00 -0.00000000000E+00 -0.45593999997E+02  0.45594000000E+02  0.51100000000E-03 0. -1.
    9900012    2    1    2    0    0  0.44193698385E+01  0.40058160511E+02 -0.16107029779E+02  0.47787268882E+02  0.19999990141E+02 0.  0.
        -12    1    1    2    0    0 -0.44193698385E+01 -0.40058160511E+02  0.16107029779E+02  0.43400731118E+02  0.00000000000E+00 0.  1.
         11    1    3    3    0    0  0.81818683806E+00  0.82824015209E+01  0.15754359180E+01  0.84705137535E+01  0.51100000000E-03 0. -1.
        -11    1    3    3    0    0 -0.20428396035E+01  0.20351555816E+02 -0.44220649781E+01  0.20926387091E+02  0.51100000000E-03 0.  1.
         12    1    3    3    0    0  0.56440226040E+01  0.11424203174E+02 -0.13260400719E+02  0.18390368037E+02  0.00000000000E+00 0. -1.
</event>
<event>
 7    1  0.4642908E-010  0.4778727E+02  0.7816164E-02  0.1312668E+00
        -11   -1    0    0    0    0  0.00000000000E+00  0.00000000000E+00  0.45593999997E+02  0.45594000000E+02  0.51100000000E-03 0. -1.
         11   -1    0    0    0    0 -0.00000000000E+00 -0.00000000000E+00 -0.45593999997E+02  0.45594000000E+02  0.51100000000E-03 0.  1.
    9900012    2    1    2    0    0  0.18595382955E+02 -0.22757247974E+02  0.31936544754E+02  0.47787268516E+02  0.19999988470E+02 0.  0.
        -12    1    1    2    0    0 -0.18595382955E+02  0.22757247974E+02 -0.31936544754E+02  0.43400731484E+02  0.00000000000E+00 0.  1.
         11    1    3    3    0    0  0.24809271074E+01 -0.24284510198E+01  0.12040651908E+02  0.12531148084E+02  0.51100000000E-03 0. -1.
        -11    1    3    3    0    0  0.11400226827E+02 -0.39765265669E+01  0.77259067716E+01  0.14334140049E+02  0.51100000000E-03 0.  1.
         12    1    3    3    0    0  0.47142290205E+01 -0.16352270387E+02  0.12169986074E+02  0.20921980382E+02  0.00000000000E+00 0. -1.
</event>
<event>
 7    1  0.4621547E-010  0.4778727E+02  0.7816164E-02  0.1312668E+00
        -11   -1    0    0    0    0  0.00000000000E+00  0.00000000000E+00  0.45593999997E+02  0.45594000000E+02  0.51100000000E-03 0.  1.
         11   -1    0    0    0    0 -0.00000000000E+00 -0.00000000000E+00 -0.45593999997E+02  0.45594000000E+02  0.51100000000E-03 0. -1.
    9900012    2    1    2    0    0  0.33977253241E+02  0.16687699449E+02 -0.21229463372E+02  0.47787272290E+02  0.20000005677E+02 0.  0.
        -12    1    1    2    0    0 -0.33977253241E+02 -0.16687699449E+02  0.21229463372E+02  0.43400727710E+02  0.00000000000E+00 0.  1.
         11    1    3    3    0    0 -0.82866157465E+00  0.51132468392E+00  0.76123303343E+00  0.12359647770E+01  0.51100000000E-03 0. -1.
        -11    1    3    3    0    0  0.91106855949E+01  0.29554783512E+01  0.99187031773E+00  0.96292913177E+01  0.51100000000E-03 0.  1.
         12    1    3    3    0    0  0.25695229221E+02  0.13220896414E+02 -0.22982566723E+02  0.36922016195E+02  0.00000000000E+00 0. -1.
</event>
<event>
 7    1  0.4621547E-010  0.4778727E+02  0.7816164E-02  0.1312668E+00
        -11   -1    0    0    0    0  0.00000000000E+00  0.00000000000E+00  0.45593999997E+02  0.45594000000E+02  0.51100000000E-03 0. -1.
         11   -1    0    0    0    0 -0.00000000000E+00 -0.00000000000E+00 -0.45593999997E+02  0.45594000000E+02  0.51100000000E-03 0.  1.
    9900012    2    1    2    0    0  0.13801255813E+02  0.40799130497E+02  0.53459916976E+01  0.47787270299E+02  0.19999996601E+02 0.  0.
        -12    1    1    2    0    0 -0.13801255813E+02 -0.40799130497E+02 -0.53459916976E+01  0.43400729701E+02  0.00000000000E+00 0.  1.
         11    1    3    3    0    0  0.47953328917E+01  0.11157654095E+02 -0.13751411854E+01  0.12222089674E+02  0.51100000000E-03 0. -1.
        -11    1    3    3    0    0  0.12373431572E+02  0.28935736565E+02  0.63502331125E+01  0.32104580986E+02  0.51100000000E-03 0.  1.
        -12    1    3    3    0    0 -0.33675086501E+01  0.70573983662E+00  0.37089977047E+00  0.34605996395E+01  0.00000000000E+00 0.  1.
</event>
<event>
 7    1  0.4621547E-010  0.4778728E+02  0.7816164E-02  0.1312668E+00
        -11   -1    0    0    0    0  0.00000000000E+00  0.00000000000E+00  0.45593999997E+02  0.45594000000E+02  0.51100000000E-03 0.  1.
         11   -1    0    0    0    0 -0.00000000000E+00 -0.00000000000E+00 -0.45593999997E+02  0.45594000000E+02  0.51100000000E-03 0. -1.
    9900012    2    1    2    0    0 -0.34392180217E+02 -0.21579564427E+02 -0.15333721807E+02  0.47787277824E+02  0.20000030912E+02 0.  0.
        -12    1    1    2    0    0  0.34392180217E+02  0.21579564427E+02  0.15333721807E+02  0.43400722176E+02  0.00000000000E+00 0.  1.
         11    1    3    3    0    0 -0.18575492728E+02 -0.14754195782E+02 -0.78611037765E+01  0.24990641770E+02  0.51100000000E-03 0. -1.
        -11    1    3    3    0    0 -0.16692005070E+02 -0.24152621384E+01 -0.46772939088E+01  0.17502388495E+02  0.51100000000E-03 0.  1.
         12    1    3    3    0    0  0.87531758113E+00 -0.44101065069E+01 -0.27953241213E+01  0.52942475588E+01  0.00000000000E+00 0. -1.
</event>
<event>
 7    1  0.4621547E-010  0.4778727E+02  0.7816164E-02  0.1312668E+00
        -11   -1    0    0    0    0  0.00000000000E+00  0.00000000000E+00  0.45593999997E+02  0.45594000000E+02  0.51100000000E-03 0.  1.
         11   -1    0    0    0    0 -0.00000000000E+00 -0.00000000000E+00 -0.45593999997E+02  0.45594000000E+02  0.51100000000E-03 0. -1.
    9900012    2    1    2    0    0 -0.24299417906E+02 -0.35006568618E+02  0.82281093852E+01  0.47787270270E+02  0.19999996471E+02 0.  0.
        -12    1    1    2    0    0  0.24299417906E+02  0.35006568618E+02 -0.82281093852E+01  0.43400729730E+02  0.00000000000E+00 0.  1.
         11    1    3    3    0    0 -0.35362953760E+01 -0.89046438731E+00  0.14777306486E+01  0.39347172633E+01  0.51100000000E-03 0.  1.
        -11    1    3    3    0    0 -0.10967806276E+02 -0.42762793877E+01  0.21810095716E+00  0.11773992874E+02  0.51100000000E-03 0. -1.
         12    1    3    3    0    0 -0.97953162534E+01 -0.29839824843E+02  0.65322777794E+01  0.32078560133E+02  0.00000000000E+00 0. -1.
</event>
<event>
 7    1  0.4621547E-010  0.4778727E+02  0.7816164E-02  0.1312668E+00
        -11   -1    0    0    0    0  0.00000000000E+00  0.00000000000E+00  0.45593999997E+02  0.45594000000E+02  0.51100000000E-03 0.  1.
         11   -1    0    0    0    0 -0.00000000000E+00 -0.00000000000E+00 -0.45593999997E+02  0.45594000000E+02  0.51100000000E-03 0. -1.
    9900012    2    1    2    0    0 -0.12997457003E+02  0.41395298042E+02 -0.10577096684E+01  0.47787270303E+02  0.19999996617E+02 0.  0.
        -12    1    1    2    0    0  0.12997457003E+02 -0.41395298042E+02  0.10577096684E+01  0.43400729697E+02  0.00000000000E+00 0.  1.
         11    1    3    3    0    0 -0.76150409186E+01  0.10092864631E+02 -0.17529444949E+01  0.12764308807E+02  0.51100000000E-03 0. -1.
        -11    1    3    3    0    0 -0.88211349553E+01  0.10438580113E+02 -0.15706347045E+01  0.13756571895E+02  0.51100000000E-03 0.  1.
         12    1    3    3    0    0  0.34387188705E+01  0.20863853298E+02  0.22658695310E+01  0.21266389600E+02  0.00000000000E+00 0. -1.
</event>
<event>
 7    1  0.4621547E-010  0.4778727E+02  0.7816164E-02  0.1312668E+00
        -11   -1    0    0    0    0  0.00000000000E+00  0.00000000000E+00  0.45593999997E+02  0.45594000000E+02  0.51100000000E-03 0.  1.
         11   -1    0    0    0    0 -0.00000000000E+00 -0.00000000000E+00 -0.45593999997E+02  0.45594000000E+02  0.51100000000E-03 0. -1.
    9900012    2    1    2    0    0 -0.92135485047E+01  0.32677234623E+02 -0.27035755456E+02  0.47787271760E+02  0.20000003264E+02 0.  0.
        -12    1    1    2    0    0  0.92135485047E+01 -0.32677234623E+02  0.27035755456E+02  0.43400728240E+02  0.00000000000E+00 0.  1.
         11    1    3    3    0    0 -0.17644129758E+00  0.32239659869E+01  0.68963711171E+00  0.33016189700E+01  0.51100000000E-03 0. -1.
        -11    1    3    3    0    0  0.32607732382E+01  0.10972900217E+01 -0.52218524406E+01  0.62533535543E+01  0.51100000000E-03 0.  1.
         12    1    3    3    0    0 -0.12297880445E+02  0.28355978614E+02 -0.22503540127E+02  0.38232299236E+02  0.00000000000E+00 0. -1.
</event>
<event>
 7    1  0.4621547E-010  0.4778727E+02  0.7816164E-02  0.1312668E+00
        -11   -1    0    0    0    0  0.00000000000E+00  0.00000000000E+00  0.45593999997E+02  0.45594000000E+02  0.51100000000E-03 0.  1.
         11   -1    0    0    0    0 -0.00000000000E+00 -0.00000000000E+00 -0.45593999997E+02  0.45594000000E+02  0.51100000000E-03 0. -1.
    9900012    2    1    2    0    0  0.19235630758E+02 -0.14222425756E+02 -0.36212378231E+02  0.47787271640E+02  0.20000002716E+02 0.  0.
        -12    1    1    2    0    0 -0.19235630758E+02  0.14222425756E+02  0.36212378231E+02  0.43400728360E+02  0.00000000000E+00 0.  1.
         11    1    3    3    0    0  0.20050493045E+01 -0.27173899806E+01 -0.11688936448E+02  0.12166990859E+02  0.51100000000E-03 0.  1.
        -11    1    3    3    0    0  0.18930489805E+02 -0.79936280830E+01 -0.24137723170E+02  0.31700019153E+02  0.51100000000E-03 0. -1.
        -12    1    3    3    0    0 -0.16999083519E+01 -0.35114076921E+01 -0.38571861310E+00  0.39202616282E+01  0.00000000000E+00 0.  1.
</event>
<event>
 7    1  0.4621547E-010  0.4778727E+02  0.7816164E-02  0.1312668E+00
        -11   -1    0    0    0    0  0.00000000000E+00  0.00000000000E+00  0.45593999997E+02  0.45594000000E+02  0.51100000000E-03 0.  1.
         11   -1    0    0    0    0 -0.00000000000E+00 -0.00000000000E+00 -0.45593999997E+02  0.45594000000E+02  0.51100000000E-03 0. -1.
    9900012    2    1    2    0    0  0.24569963345E+02  0.33143828623E+02 -0.13469474312E+02  0.47787271748E+02  0.20000003208E+02 0.  0.
        -12    1    1    2    0    0 -0.24569963345E+02 -0.33143828623E+02  0.13469474312E+02  0.43400728252E+02  0.00000000000E+00 0.  1.
         11    1    3    3    0    0  0.21218061919E+02  0.21226180461E+02 -0.90658848109E+01  0.31351988074E+02  0.51100000000E-03 0. -1.
        -11    1    3    3    0    0  0.37734119293E+01  0.47318134936E+01  0.24188611894E+01  0.65176365533E+01  0.51100000000E-03 0.  1.
         12    1    3    3    0    0 -0.42151050275E+00  0.71858346682E+01 -0.68224506904E+01  0.99176471204E+01  0.00000000000E+00 0. -1.
</event>
<event>
 7    1  0.4621547E-010  0.4778727E+02  0.7816164E-02  0.1312668E+00
        -11   -1    0    0    0    0  0.00000000000E+00  0.00000000000E+00  0.45593999997E+02  0.45594000000E+02  0.51100000000E-03 0.  1.
         11   -1    0    0    0    0 -0.00000000000E+00 -0.00000000000E+00 -0.45593999997E+02  0.45594000000E+02  0.51100000000E-03 0. -1.
    9900012    2    1    2    0    0  0.23129707638E+02  0.31203007041E+02 -0.19365235144E+02  0.47787270098E+02  0.19999995684E+02 0.  0.
        -12    1    1    2    0    0 -0.23129707638E+02 -0.31203007041E+02  0.19365235144E+02  0.43400729902E+02  0.00000000000E+00 0.  1.
         11    1    3    3    0    0  0.65339910221E+01  0.79739985042E+01 -0.93392760894E+01  0.13910419439E+02  0.51100000000E-03 0. -1.
        -11    1    3    3    0    0  0.67477611504E+01 -0.25260078339E-01 -0.42386304790E+01  0.79686201574E+01  0.51100000000E-03 0.  1.
        -12    1    3    3    0    0  0.98479554658E+01  0.23254268616E+02 -0.57873285755E+01  0.25908230502E+02  0.00000000000E+00 0.  1.
</event>
<event>
 7    1  0.4621547E-010  0.4778727E+02  0.7816164E-02  0.1312668E+00
        -11   -1    0    0    0    0  0.00000000000E+00  0.00000000000E+00  0.45593999997E+02  0.45594000000E+02  0.51100000000E-03 0.  1.
         11   -1    0    0    0    0 -0.00000000000E+00 -0.00000000000E+00 -0.45593999997E+02  0.45594000000E+02  0.51100000000E-03 0. -1.
    9900012    2    1    2    0    0  0.37603166525E+02 -0.12102027700E+01 -0.21637015128E+02  0.47787272505E+02  0.20000006660E+02 0.  0.
        -12    1    1    2    0    0 -0.37603166525E+02  0.12102027700E+01  0.21637015128E+02  0.43400727495E+02  0.00000000000E+00 0.  1.
         11    1    3    3    0    0  0.77095813911E+01 -0.56407705242E+01 -0.50027480229E+01  0.10783479280E+02  0.51100000000E-03 0. -1.
        -11    1    3    3    0    0  0.19678651262E+02 -0.34007347708E+01 -0.12137315380E+02  0.23369397454E+02  0.51100000000E-03 0.  1.
        -12    1    3    3    0    0  0.10214933871E+02  0.78313025250E+01 -0.44969517254E+01  0.13634395771E+02  0.00000000000E+00 0.  1.
</event>
<event>
 7    1  0.4621547E-010  0.4778727E+02  0.7816164E-02  0.1312668E+00
        -11   -1    0    0    0    0  0.00000000000E+00  0.00000000000E+00  0.45593999997E+02  0.45594000000E+02  0.51100000000E-03 0.  1.
         11   -1    0    0    0    0 -0.00000000000E+00 -0.00000000000E+00 -0.45593999997E+02  0.45594000000E+02  0.51100000000E-03 0. -1.
    9900012    2    1    2    0    0 -0.39713647620E+02  0.10805415981E+02 -0.13772883561E+02  0.47787272548E+02  0.20000006854E+02 0.  0.
        -12    1    1    2    0    0  0.39713647620E+02 -0.10805415981E+02  0.13772883561E+02  0.43400727452E+02  0.00000000000E+00 0.  1.
         11    1    3    3    0    0 -0.17132702530E+02  0.12364233490E+00  0.19593661740E+01  0.17244822396E+02  0.51100000000E-03 0. -1.
        -11    1    3    3    0    0 -0.44923991377E+01 -0.40681045463E+00 -0.51068738873E+01  0.68137585751E+01  0.51100000000E-03 0.  1.
         12    1    3    3    0    0 -0.18088545952E+02  0.11088584101E+02 -0.10625375848E+02  0.23728691577E+02  0.00000000000E+00 0. -1.
</event>
<event>
 7    1  0.4621547E-010  0.4778727E+02  0.7816164E-02  0.1312668E+00
        -11   -1    0    0    0    0  0.00000000000E+00  0.00000000000E+00  0.45593999997E+02  0.45594000000E+02  0.51100000000E-03 0.  1.
         11   -1    0    0    0    0 -0.00000000000E+00 -0.00000000000E+00 -0.45593999997E+02  0.45594000000E+02  0.51100000000E-03 0. -1.
    9900012    2    1    2    0    0 -0.41904047506E+02  0.81944685030E+01 -0.77797535663E+01  0.47787273312E+02  0.20000010340E+02 0.  0.
        -12    1    1    2    0    0  0.41904047506E+02 -0.81944685030E+01  0.77797535663E+01  0.43400726688E+02  0.00000000000E+00 0.  1.
         11    1    3    3    0    0 -0.36595521773E+01 -0.20661468598E+01 -0.61740910722E+01  0.74686468529E+01  0.51100000000E-03 0. -1.
        -11    1    3    3    0    0 -0.14266620497E+02  0.71799534063E+01 -0.22850622053E+01  0.16134116055E+02  0.51100000000E-03 0.  1.
         12    1    3    3    0    0 -0.23977874832E+02  0.30806619565E+01  0.67939971125E+00  0.24184510405E+02  0.00000000000E+00 0. -1.
</event>
<event>
 7    1  0.4621547E-010  0.4778727E+02  0.7816164E-02  0.1312668E+00
        -11   -1    0    0    0    0  0.00000000000E+00  0.00000000000E+00  0.45593999997E+02  0.45594000000E+02  0.51100000000E-03 0.  1.
         11   -1    0    0    0    0 -0.00000000000E+00 -0.00000000000E+00 -0.45593999997E+02  0.45594000000E+02  0.51100000000E-03 0. -1.
    9900012    2    1    2    0    0 -0.16507747074E+02  0.12729337794E+02 -0.38066806787E+02  0.47787268058E+02  0.19999986385E+02 0.  0.
        -12    1    1    2    0    0  0.16507747074E+02 -0.12729337794E+02  0.38066806787E+02  0.43400731942E+02  0.00000000000E+00 0.  1.
         11    1    3    3    0    0 -0.29591415167E+01  0.34304729642E+01 -0.15824608647E+02  0.16460343325E+02  0.51100000000E-03 0. -1.
        -11    1    3    3    0    0  0.26261766360E+00  0.52109769747E+01 -0.13511576684E+02  0.14483989568E+02  0.51100000000E-03 0.  1.
         12    1    3    3    0    0 -0.13811223221E+02  0.40878878553E+01 -0.87306214555E+01  0.16842935165E+02  0.00000000000E+00 0. -1.
</event>
<event>
 7    1  0.4621547E-010  0.4778727E+02  0.7816164E-02  0.1312668E+00
        -11   -1    0    0    0    0  0.00000000000E+00  0.00000000000E+00  0.45593999997E+02  0.45594000000E+02  0.51100000000E-03 0.  1.
         11   -1    0    0    0    0 -0.00000000000E+00 -0.00000000000E+00 -0.45593999997E+02  0.45594000000E+02  0.51100000000E-03 0. -1.
    9900012    2    1    2    0    0 -0.38897419441E+01  0.83066056651E+01 -0.42420437489E+02  0.47787270665E+02  0.19999998268E+02 0.  0.
        -12    1    1    2    0    0  0.38897419441E+01 -0.83066056651E+01  0.42420437489E+02  0.43400729335E+02  0.00000000000E+00 0.  1.
         11    1    3    3    0    0  0.26872871542E+01  0.79073437203E+00 -0.47157636097E+01  0.54849977010E+01  0.51100000000E-03 0. -1.
        -11    1    3    3    0    0  0.36513991692E+01  0.37522439488E+01 -0.32440334014E+01  0.61592047794E+01  0.51100000000E-03 0.  1.
        -12    1    3    3    0    0 -0.10228428268E+02  0.37636273442E+01 -0.34460640478E+02  0.36143068184E+02  0.00000000000E+00 0.  1.
</event>
<event>
 7    1  0.4621547E-010  0.4778727E+02  0.7816164E-02  0.1312668E+00
        -11   -1    0    0    0    0  0.00000000000E+00  0.00000000000E+00  0.45593999997E+02  0.45594000000E+02  0.51100000000E-03 0. -1.
         11   -1    0    0    0    0 -0.00000000000E+00 -0.00000000000E+00 -0.45593999997E+02  0.45594000000E+02  0.51100000000E-03 0.  1.
    9900012    2    1    2    0    0 -0.16972476829E+02 -0.39349532648E+02 -0.68682177665E+01  0.47787272995E+02  0.20000008892E+02 0.  0.
        -12    1    1    2    0    0  0.16972476829E+02  0.39349532648E+02  0.68682177665E+01  0.43400727005E+02  0.00000000000E+00 0.  1.
         11    1    3    3    0    0 -0.97510504344E+01 -0.11006055593E+02 -0.35483160451E+01  0.15126360808E+02  0.51100000000E-03 0. -1.
        -11    1    3    3    0    0 -0.98404735089E+01 -0.20771665551E+02  0.19560914008E+01  0.23067797955E+02  0.51100000000E-03 0.  1.
        -12    1    3    3    0    0  0.26190471143E+01 -0.75718115035E+01 -0.52759931222E+01  0.95931142314E+01  0.00000000000E+00 0.  1.
</event>
<event>
 7    1  0.4621547E-010  0.4778728E+02  0.7816164E-02  0.1312668E+00
        -11   -1    0    0    0    0  0.00000000000E+00  0.00000000000E+00  0.45593999997E+02  0.45594000000E+02  0.51100000000E-03 0.  1.
         11   -1    0    0    0    0 -0.00000000000E+00 -0.00000000000E+00 -0.45593999997E+02  0.45594000000E+02  0.51100000000E-03 0. -1.
    9900012    2    1    2    0    0 -0.27501664995E+02 -0.12325601313E+02 -0.31230766791E+02  0.47787276278E+02  0.20000023863E+02 0.  0.
        -12    1    1    2    0    0  0.27501664995E+02  0.12325601313E+02  0.31230766791E+02  0.43400723722E+02  0.00000000000E+00 0.  1.
         11    1    3    3    0    0 -0.52642172153E+01  0.13288101138E+01 -0.66404723178E+01  0.85775050028E+01  0.51100000000E-03 0. -1.
        -11    1    3    3    0    0 -0.54158656031E+01 -0.95563069010E+01 -0.17148026354E+02  0.20364415286E+02  0.51100000000E-03 0.  1.
        -12    1    3    3    0    0 -0.16821582177E+02 -0.40981045255E+01 -0.74422681188E+01  0.18845355990E+02  0.00000000000E+00 0.  1.
</event>
<event>
 7    1  0.4621547E-010  0.4778727E+02  0.7816164E-02  0.1312668E+00
        -11   -1    0    0    0    0  0.00000000000E+00  0.00000000000E+00  0.45593999997E+02  0.45594000000E+02  0.51100000000E-03 0.  1.
         11   -1    0    0    0    0 -0.00000000000E+00 -0.00000000000E+00 -0.45593999997E+02  0.45594000000E+02  0.51100000000E-03 0. -1.
    9900012    2    1    2    0    0 -0.65314733580E+01  0.30624901345E+02 -0.30051271675E+02  0.47787266643E+02  0.19999979934E+02 0.  0.
        -12    1    1    2    0    0  0.65314733580E+01 -0.30624901345E+02  0.30051271675E+02  0.43400733357E+02  0.00000000000E+00 0.  1.
         11    1    3    3    0    0 -0.10031128751E+02  0.25934291109E+02 -0.17565075711E+02  0.32889859901E+02  0.51100000000E-03 0. -1.
        -11    1    3    3    0    0 -0.14719094952E+01  0.35584701616E+00 -0.27047416671E+01  0.30998019949E+01  0.51100000000E-03 0.  1.
        -12    1    3    3    0    0  0.49715648880E+01  0.43347632200E+01 -0.97814542969E+01  0.11797604747E+02  0.00000000000E+00 0.  1.
</event>
<event>
 7    1  0.4621547E-010  0.4778728E+02  0.7816164E-02  0.1312668E+00
        -11   -1    0    0    0    0  0.00000000000E+00  0.00000000000E+00  0.45593999997E+02  0.45594000000E+02  0.51100000000E-03 0.  1.
         11   -1    0    0    0    0 -0.00000000000E+00 -0.00000000000E+00 -0.45593999997E+02  0.45594000000E+02  0.51100000000E-03 0. -1.
    9900012    2    1    2    0    0 -0.37960401720E+02  0.77797150600E+01 -0.19547553174E+02  0.47787275349E+02  0.20000019627E+02 0.  0.
        -12    1    1    2    0    0  0.37960401720E+02 -0.77797150600E+01  0.19547553174E+02  0.43400724651E+02  0.00000000000E+00 0.  1.
         11    1    3    3    0    0 -0.73302565171E+01  0.43261781550E+01 -0.90611357737E+01  0.12431921002E+02  0.51100000000E-03 0. -1.
        -11    1    3    3    0    0 -0.20255354775E+02  0.16891747515E+00 -0.13152088352E+02  0.24151301382E+02  0.51100000000E-03 0.  1.
        -12    1    3    3    0    0 -0.10374790428E+02  0.32846194298E+01  0.26656709517E+01  0.11204052965E+02  0.00000000000E+00 0.  1.
</event>
<event>
 7    1  0.4621547E-010  0.4778728E+02  0.7816164E-02  0.1312668E+00
        -11   -1    0    0    0    0  0.00000000000E+00  0.00000000000E+00  0.45593999997E+02  0.45594000000E+02  0.51100000000E-03 0. -1.
         11   -1    0    0    0    0 -0.00000000000E+00 -0.00000000000E+00 -0.45593999997E+02  0.45594000000E+02  0.51100000000E-03 0.  1.
    9900012    2    1    2    0    0 -0.21328293873E+02  0.23849613133E+02  0.29324436313E+02  0.47787277297E+02  0.20000028506E+02 0.  0.
        -12    1    1    2    0    0  0.21328293873E+02 -0.23849613133E+02 -0.29324436313E+02  0.43400722703E+02  0.00000000000E+00 0.  1.
         11    1    3    3    0    0 -0.29997198848E+01  0.92143012523E+00  0.32843832128E+01  0.45425242116E+01  0.51100000000E-03 0. -1.
        -11    1    3    3    0    0  0.17833136841E+01  0.74833492509E+01  0.12711881699E+01  0.77972202310E+01  0.51100000000E-03 0.  1.
         12    1    3    3    0    0 -0.20111887672E+02  0.15444833757E+02  0.24768864930E+02  0.35447532854E+02  0.00000000000E+00 0. -1.
</event>
<event>
 7    1  0.4621547E-010  0.4778727E+02  0.7816164E-02  0.1312668E+00
        -11   -1    0    0    0    0  0.00000000000E+00  0.00000000000E+00  0.45593999997E+02  0.45594000000E+02  0.51100000000E-03 0.  1.
         11   -1    0    0    0    0 -0.00000000000E+00 -0.00000000000E+00 -0.45593999997E+02  0.45594000000E+02  0.51100000000E-03 0. -1.
    9900012    2    1    2    0    0  0.12165761837E+02  0.47071208169E+01 -0.41393971703E+02  0.47787266817E+02  0.19999980727E+02 0.  0.
        -12    1    1    2    0    0 -0.12165761837E+02 -0.47071208169E+01  0.41393971703E+02  0.43400733183E+02  0.00000000000E+00 0.  1.
         11    1    3    3    0    0  0.76842291313E+01 -0.17382852156E+01 -0.57881333072E+01  0.97760677307E+01  0.51100000000E-03 0.  1.
        -11    1    3    3    0    0 -0.19081582398E+01  0.22317984677E+01 -0.20194496974E+01  0.35637297330E+01  0.51100000000E-03 0. -1.
         12    1    3    3    0    0  0.63896909453E+01  0.42136075648E+01 -0.33586388698E+02  0.34447469354E+02  0.00000000000E+00 0. -1.
</event>
<event>
 7    1  0.4621547E-010  0.4778727E+02  0.7816164E-02  0.1312668E+00
        -11   -1    0    0    0    0  0.00000000000E+00  0.00000000000E+00  0.45593999997E+02  0.45594000000E+02  0.51100000000E-03 0. -1.
         11   -1    0    0    0    0 -0.00000000000E+00 -0.00000000000E+00 -0.45593999997E+02  0.45594000000E+02  0.51100000000E-03 0.  1.
    9900012    2    1    2    0    0 -0.42240681357E+02 -0.98155999893E+01  0.17326900793E+01  0.47787269827E+02  0.19999994448E+02 0.  0.
        -12    1    1    2    0    0  0.42240681357E+02  0.98155999893E+01 -0.17326900793E+01  0.43400730173E+02  0.00000000000E+00 0.  1.
         11    1    3    3    0    0 -0.57522973816E+01  0.84615502222E+00 -0.64971087855E+00  0.58503869936E+01  0.51100000000E-03 0. -1.
        -11    1    3    3    0    0 -0.16623781733E+02  0.11621919423E+01 -0.54434695898E+01  0.17530891895E+02  0.51100000000E-03 0.  1.
         12    1    3    3    0    0 -0.19864602243E+02 -0.11823946954E+02  0.78258705476E+01  0.24405990938E+02  0.00000000000E+00 0. -1.
</event>
<event>
 7    1  0.4621547E-010  0.4778726E+02  0.7816164E-02  0.1312668E+00
        -11   -1    0    0    0    0  0.00000000000E+00  0.00000000000E+00  0.45593999997E+02  0.45594000000E+02  0.51100000000E-03 0.  1.
         11   -1    0    0    0    0 -0.00000000000E+00 -0.00000000000E+00 -0.45593999997E+02  0.45594000000E+02  0.51100000000E-03 0. -1.
    9900012    2    1    2    0    0  0.20354375386E+01 -0.21943852626E+02 -0.37389145698E+02  0.47787263945E+02  0.19999967631E+02 0.  0.
        -12    1    1    2    0    0 -0.20354375386E+01  0.21943852626E+02  0.37389145698E+02  0.43400736055E+02  0.00000000000E+00 0.  1.
         11    1    3    3    0    0  0.28075152611E+01 -0.45660790540E+01 -0.12127465977E+02  0.13259210050E+02  0.51100000000E-03 0. -1.
        -11    1    3    3    0    0  0.71297616041E+01 -0.68050631458E+01 -0.14316170240E+02  0.17380883624E+02  0.51100000000E-03 0.  1.
        -12    1    3    3    0    0 -0.79018393266E+01 -0.10572710426E+02 -0.10945509482E+02  0.17147170272E+02  0.00000000000E+00 0.  1.
</event>
<event>
 7    1  0.4621547E-010  0.4778727E+02  0.7816164E-02  0.1312668E+00
        -11   -1    0    0    0    0  0.00000000000E+00  0.00000000000E+00  0.45593999997E+02  0.45594000000E+02  0.51100000000E-03 0. -1.
         11   -1    0    0    0    0 -0.00000000000E+00 -0.00000000000E+00 -0.45593999997E+02  0.45594000000E+02  0.51100000000E-03 0.  1.
    9900012    2    1    2    0    0  0.15923211691E+02  0.31301590911E+02  0.25500688516E+02  0.47787269834E+02  0.19999994481E+02 0.  0.
        -12    1    1    2    0    0 -0.15923211691E+02 -0.31301590911E+02 -0.25500688516E+02  0.43400730166E+02  0.00000000000E+00 0.  1.
         11    1    3    3    0    0  0.26324376006E+01 -0.50128959640E-01 -0.10335114542E+01  0.28284955048E+01  0.51100000000E-03 0. -1.
        -11    1    3    3    0    0  0.71141152110E+00  0.29278199851E+01  0.85105039897E+01  0.90281180008E+01  0.51100000000E-03 0.  1.
         12    1    3    3    0    0  0.12579362569E+02  0.28423899886E+02  0.18023695981E+02  0.35930656328E+02  0.00000000000E+00 0. -1.
</event>
<event>
 7    1  0.4621547E-010  0.4778727E+02  0.7816164E-02  0.1312668E+00
        -11   -1    0    0    0    0  0.00000000000E+00  0.00000000000E+00  0.45593999997E+02  0.45594000000E+02  0.51100000000E-03 0.  1.
         11   -1    0    0    0    0 -0.00000000000E+00 -0.00000000000E+00 -0.45593999997E+02  0.45594000000E+02  0.51100000000E-03 0. -1.
    9900012    2    1    2    0    0 -0.24939620984E+02  0.31531205661E+02 -0.16353043022E+02  0.47787266811E+02  0.19999980700E+02 0.  0.
        -12    1    1    2    0    0  0.24939620984E+02 -0.31531205661E+02  0.16353043022E+02  0.43400733189E+02  0.00000000000E+00 0.  1.
         11    1    3    3    0    0 -0.15133929545E+02  0.17415847366E+02 -0.13222933372E+02  0.26593110577E+02  0.51100000000E-03 0. -1.
        -11    1    3    3    0    0 -0.30425834762E+01  0.13632355741E+02 -0.35138541058E+01  0.14402972200E+02  0.51100000000E-03 0.  1.
         12    1    3    3    0    0 -0.67631079628E+01  0.48300255419E+00  0.38374445579E+00  0.67911840346E+01  0.00000000000E+00 0. -1.
</event>
<event>
 7    1  0.4621547E-010  0.4778727E+02  0.7816164E-02  0.1312668E+00
        -11   -1    0    0    0    0  0.00000000000E+00  0.00000000000E+00  0.45593999997E+02  0.45594000000E+02  0.51100000000E-03 0.  1.
         11   -1    0    0    0    0 -0.00000000000E+00 -0.00000000000E+00 -0.45593999997E+02  0.45594000000E+02  0.51100000000E-03 0. -1.
    9900012    2    1    2    0    0  0.23655815595E+02 -0.40860404283E+01 -0.36157019781E+02  0.47787269392E+02  0.19999992466E+02 0.  0.
        -12    1    1    2    0    0 -0.23655815595E+02  0.40860404283E+01  0.36157019781E+02  0.43400730608E+02  0.00000000000E+00 0.  1.
         11    1    3    3    0    0  0.93653919377E+01  0.92989297034E-01 -0.11130468753E+02  0.14546702309E+02  0.51100000000E-03 0. -1.
        -11    1    3    3    0    0  0.51648071068E+01  0.43761311953E+01 -0.17202347802E+02  0.18486387610E+02  0.51100000000E-03 0.  1.
         12    1    3    3    0    0  0.91256165504E+01 -0.85551609206E+01 -0.78242032266E+01  0.14754179473E+02  0.00000000000E+00 0. -1.
</event>
<event>
 7    1  0.4621547E-010  0.4778728E+02  0.7816164E-02  0.1312668E+00
        -11   -1    0    0    0    0  0.00000000000E+00  0.00000000000E+00  0.45593999997E+02  0.45594000000E+02  0.51100000000E-03 0.  1.
         11   -1    0    0    0    0 -0.00000000000E+00 -0.00000000000E+00 -0.45593999997E+02  0.45594000000E+02  0.51100000000E-03 0. -1.
    9900012    2    1    2    0    0  0.28027677898E+02 -0.83002933378E+01 -0.32080782216E+02  0.47787283584E+02  0.20000057174E+02 0.  0.
        -12    1    1    2    0    0 -0.28027677898E+02  0.83002933378E+01  0.32080782216E+02  0.43400716416E+02  0.00000000000E+00 0.  1.
         11    1    3    3    0    0  0.89265252501E+01  0.49220461676E+01 -0.14441716599E+02  0.17676893678E+02  0.51100000000E-03 0. -1.
        -11    1    3    3    0    0  0.10297087285E+02 -0.26348166984E+01 -0.74071428856E+01  0.12955231823E+02  0.51100000000E-03 0.  1.
        -12    1    3    3    0    0  0.88040653624E+01 -0.10587522807E+02 -0.10231922731E+02  0.17155158084E+02  0.00000000000E+00 0.  1.
</event>
<event>
 7    1  0.4621547E-010  0.4778726E+02  0.7816164E-02  0.1312668E+00
        -11   -1    0    0    0    0  0.00000000000E+00  0.00000000000E+00  0.45593999997E+02  0.45594000000E+02  0.51100000000E-03 0.  1.
         11   -1    0    0    0    0 -0.00000000000E+00 -0.00000000000E+00 -0.45593999997E+02  0.45594000000E+02  0.51100000000E-03 0. -1.
    9900012    2    1    2    0    0 -0.25419417069E+02  0.10294152891E+02 -0.33637887501E+02  0.47787264714E+02  0.19999971138E+02 0.  0.
        -12    1    1    2    0    0  0.25419417069E+02 -0.10294152891E+02  0.33637887501E+02  0.43400735286E+02  0.00000000000E+00 0.  1.
         11    1    3    3    0    0 -0.30759209503E+01  0.25775874447E+01 -0.13952016032E+01  0.42487450503E+01  0.51100000000E-03 0. -1.
        -11    1    3    3    0    0 -0.42754948866E+00 -0.40467375145E+01 -0.25412170217E+01  0.47975688936E+01  0.51100000000E-03 0.  1.
         12    1    3    3    0    0 -0.21915946630E+02  0.11763302961E+02 -0.29701468876E+02  0.38740950770E+02  0.00000000000E+00 0. -1.
</event>
<event>
 7    1  0.4621547E-010  0.4778727E+02  0.7816164E-02  0.1312668E+00
        -11   -1    0    0    0    0  0.00000000000E+00  0.00000000000E+00  0.45593999997E+02  0.45594000000E+02  0.51100000000E-03 0. -1.
         11   -1    0    0    0    0 -0.00000000000E+00 -0.00000000000E+00 -0.45593999997E+02  0.45594000000E+02  0.51100000000E-03 0.  1.
    9900012    2    1    2    0    0  0.26127523131E+01  0.43312390636E+02  0.91293997417E+00  0.47787272855E+02  0.20000008257E+02 0.  0.
        -12    1    1    2    0    0 -0.26127523131E+01 -0.43312390636E+02 -0.91293997417E+00  0.43400727145E+02  0.00000000000E+00 0.  1.
         11    1    3    3    0    0 -0.38780797909E+01  0.40255951876E+01 -0.44344193891E+00  0.56072774582E+01  0.51100000000E-03 0.  1.
        -11    1    3    3    0    0  0.61357758230E+00  0.39687029000E+00  0.27283912079E+01  0.28245534729E+01  0.51100000000E-03 0. -1.
         12    1    3    3    0    0  0.58772545217E+01  0.38889925159E+02 -0.13720092948E+01  0.39355441924E+02  0.00000000000E+00 0. -1.
</event>
<event>
 7    1  0.4621547E-010  0.4778727E+02  0.7816164E-02  0.1312668E+00
        -11   -1    0    0    0    0  0.00000000000E+00  0.00000000000E+00  0.45593999997E+02  0.45594000000E+02  0.51100000000E-03 0. -1.
         11   -1    0    0    0    0 -0.00000000000E+00 -0.00000000000E+00 -0.45593999997E+02  0.45594000000E+02  0.51100000000E-03 0.  1.
    9900012    2    1    2    0    0 -0.74294185681E+01 -0.90771237259E+01  0.41785558554E+02  0.47787270293E+02  0.19999996575E+02 0.  0.
        -12    1    1    2    0    0  0.74294185681E+01  0.90771237259E+01 -0.41785558554E+02  0.43400729707E+02  0.00000000000E+00 0.  1.
         11    1    3    3    0    0 -0.80130958616E+01 -0.49645287991E+00  0.20221101646E+02  0.21756588032E+02  0.51100000000E-03 0. -1.
        -11    1    3    3    0    0 -0.10532235301E+01  0.28469342508E+01  0.45166856130E+01  0.54419448380E+01  0.51100000000E-03 0.  1.
         12    1    3    3    0    0  0.16369008237E+01 -0.11427605097E+02  0.17047771295E+02  0.20588737423E+02  0.00000000000E+00 0. -1.
</event>
<event>
 7    1  0.4621547E-010  0.4778727E+02  0.7816164E-02  0.1312668E+00
        -11   -1    0    0    0    0  0.00000000000E+00  0.00000000000E+00  0.45593999997E+02  0.45594000000E+02  0.51100000000E-03 0.  1.
         11   -1    0    0    0    0 -0.00000000000E+00 -0.00000000000E+00 -0.45593999997E+02  0.45594000000E+02  0.51100000000E-03 0. -1.
    9900012    2    1    2    0    0 -0.31183916866E+02  0.14546355834E+02  0.26449764373E+02  0.47787272189E+02  0.20000005217E+02 0.  0.
        -12    1    1    2    0    0  0.31183916866E+02 -0.14546355834E+02 -0.26449764373E+02  0.43400727811E+02  0.00000000000E+00 0.  1.
         11    1    3    3    0    0 -0.11853961962E+02  0.37686107177E+01  0.33267663221E+01  0.12875799601E+02  0.51100000000E-03 0. -1.
        -11    1    3    3    0    0 -0.20490433236E+02  0.69962478753E+01  0.16600863669E+02  0.27283585053E+02  0.51100000000E-03 0.  1.
        -12    1    3    3    0    0  0.11604783321E+01  0.37814972408E+01  0.65221343818E+01  0.76278875343E+01  0.00000000000E+00 0.  1.
</event>
<event>
 7    1  0.4621547E-010  0.4778728E+02  0.7816164E-02  0.1312668E+00
        -11   -1    0    0    0    0  0.00000000000E+00  0.00000000000E+00  0.45593999997E+02  0.45594000000E+02  0.51100000000E-03 0. -1.
         11   -1    0    0    0    0 -0.00000000000E+00 -0.00000000000E+00 -0.45593999997E+02  0.45594000000E+02  0.51100000000E-03 0.  1.
    9900012    2    1    2    0    0 -0.21690189801E+02 -0.15051656478E+02  0.34447150580E+02  0.47787275589E+02  0.20000020719E+02 0.  0.
        -12    1    1    2    0    0  0.21690189801E+02  0.15051656478E+02 -0.34447150580E+02  0.43400724411E+02  0.00000000000E+00 0.  1.
         11    1    3    3    0    0 -0.15380348774E+02 -0.14334003888E+02  0.24613500479E+02  0.32370406268E+02  0.51100000000E-03 0. -1.
        -11    1    3    3    0    0 -0.90367988381E+01 -0.89077845042E+00  0.68758846590E+01  0.11390127725E+02  0.51100000000E-03 0.  1.
        -12    1    3    3    0    0  0.27269578110E+01  0.17312586091E+00  0.29577654417E+01  0.40267415953E+01  0.00000000000E+00 0.  1.
</event>
<event>
 7    1  0.4621547E-010  0.4778727E+02  0.7816164E-02  0.1312668E+00
        -11   -1    0    0    0    0  0.00000000000E+00  0.00000000000E+00  0.45593999997E+02  0.45594000000E+02  0.51100000000E-03 0.  1.
         11   -1    0    0    0    0 -0.00000000000E+00 -0.00000000000E+00 -0.45593999997E+02  0.45594000000E+02  0.51100000000E-03 0. -1.
    9900012    2    1    2    0    0 -0.76230813450E+01  0.39689867012E+02 -0.15818559228E+02  0.47787265805E+02  0.19999976112E+02 0.  0.
        -12    1    1    2    0    0  0.76230813450E+01 -0.39689867012E+02  0.15818559228E+02  0.43400734195E+02  0.00000000000E+00 0.  1.
         11    1    3    3    0    0  0.15210523238E+01  0.11048611554E+02 -0.78539437672E+01  0.13640742296E+02  0.51100000000E-03 0. -1.
        -11    1    3    3    0    0 -0.82248713627E+01  0.28813757721E+02 -0.10256298217E+02  0.31671324512E+02  0.51100000000E-03 0.  1.
        -12    1    3    3    0    0 -0.91926230610E+00 -0.17250226307E+00  0.22916827566E+01  0.24751989971E+01  0.00000000000E+00 0.  1.
</event>
<event>
 7    1  0.4621547E-010  0.4778727E+02  0.7816164E-02  0.1312668E+00
        -11   -1    0    0    0    0  0.00000000000E+00  0.00000000000E+00  0.45593999997E+02  0.45594000000E+02  0.51100000000E-03 0.  1.
         11   -1    0    0    0    0 -0.00000000000E+00 -0.00000000000E+00 -0.45593999997E+02  0.45594000000E+02  0.51100000000E-03 0. -1.
    9900012    2    1    2    0    0 -0.47146956861E+01 -0.15650091788E+02 -0.40205344751E+02  0.47787268728E+02  0.19999989439E+02 0.  0.
        -12    1    1    2    0    0  0.47146956861E+01  0.15650091788E+02  0.40205344751E+02  0.43400731272E+02  0.00000000000E+00 0.  1.
         11    1    3    3    0    0 -0.10321769331E+02 -0.16622712186E+02 -0.30690208221E+02  0.36397010364E+02  0.51100000000E-03 0. -1.
        -11    1    3    3    0    0  0.46740704967E+00 -0.16512566694E+00  0.22636824407E-01  0.49623434273E+00  0.51100000000E-03 0.  1.
         12    1    3    3    0    0  0.51396665949E+01  0.11377460647E+01 -0.95377733548E+01  0.10894024022E+02  0.00000000000E+00 0. -1.
</event>
<event>
 7    1  0.4621547E-010  0.4778727E+02  0.7816164E-02  0.1312668E+00
        -11   -1    0    0    0    0  0.00000000000E+00  0.00000000000E+00  0.45593999997E+02  0.45594000000E+02  0.51100000000E-03 0. -1.
         11   -1    0    0    0    0 -0.00000000000E+00 -0.00000000000E+00 -0.45593999997E+02  0.45594000000E+02  0.51100000000E-03 0.  1.
    9900012    2    1    2    0    0  0.40704411798E+02 -0.86786787123E+00  0.15033988500E+02  0.47787272533E+02  0.20000006789E+02 0.  0.
        -12    1    1    2    0    0 -0.40704411798E+02  0.86786787123E+00 -0.15033988500E+02  0.43400727467E+02  0.00000000000E+00 0.  1.
         11    1    3    3    0    0  0.14398724178E+02 -0.15560804862E+01  0.12830060031E+02  0.19348257935E+02  0.51100000000E-03 0. -1.
        -11    1    3    3    0    0 -0.60755672833E-01 -0.15946729865E+01 -0.83316082922E+00  0.18002306558E+01  0.51100000000E-03 0.  1.
         12    1    3    3    0    0  0.26366443292E+02  0.22828856015E+01  0.30370892974E+01  0.26638783943E+02  0.00000000000E+00 0. -1.
</event>
<event>
 7    1  0.4621547E-010  0.4778727E+02  0.7816164E-02  0.1312668E+00
        -11   -1    0    0    0    0  0.00000000000E+00  0.00000000000E+00  0.45593999997E+02  0.45594000000E+02  0.51100000000E-03 0.  1.
         11   -1    0    0    0    0 -0.00000000000E+00 -0.00000000000E+00 -0.45593999997E+02  0.45594000000E+02  0.51100000000E-03 0. -1.
    9900012    2    1    2    0    0  0.35399555171E+02 -0.15250287058E+02  0.19948021397E+02  0.47787270521E+02  0.19999997612E+02 0.  0.
        -12    1    1    2    0    0 -0.35399555171E+02  0.15250287058E+02 -0.19948021397E+02  0.43400729479E+02  0.00000000000E+00 0.  1.
         11    1    3    3    0    0  0.89154307258E+00  0.15317940968E+01  0.10176734471E+01  0.20437469783E+01  0.51100000000E-03 0. -1.
        -11    1    3    3    0    0  0.11538819467E+02 -0.52675343718E+01 -0.16929394751E+01  0.12796769803E+02  0.51100000000E-03 0.  1.
         12    1    3    3    0    0  0.22969192631E+02 -0.11514546783E+02  0.20623287425E+02  0.32946753740E+02  0.00000000000E+00 0. -1.
</event>
<event>
 7    1  0.4621547E-010  0.4778727E+02  0.7816164E-02  0.1312668E+00
        -11   -1    0    0    0    0  0.00000000000E+00  0.00000000000E+00  0.45593999997E+02  0.45594000000E+02  0.51100000000E-03 0.  1.
         11   -1    0    0    0    0 -0.00000000000E+00 -0.00000000000E+00 -0.45593999997E+02  0.45594000000E+02  0.51100000000E-03 0. -1.
    9900012    2    1    2    0    0 -0.28417720002E+02  0.83926918140E+01 -0.31711497323E+02  0.47787272490E+02  0.20000006589E+02 0.  0.
        -12    1    1    2    0    0  0.28417720002E+02 -0.83926918140E+01  0.31711497323E+02  0.43400727510E+02  0.00000000000E+00 0.  1.
         11    1    3    3    0    0 -0.14041278019E+01 -0.26161735669E+01 -0.64312860182E+01  0.70835993058E+01  0.51100000000E-03 0. -1.
        -11    1    3    3    0    0 -0.20229941202E+02  0.25324495917E+01 -0.20259933835E+02  0.28742455379E+02  0.51100000000E-03 0.  1.
        -12    1    3    3    0    0 -0.67836509981E+01  0.84764157891E+01 -0.50202774693E+01  0.11961217804E+02  0.00000000000E+00 0.  1.
</event>
<event>
 7    1  0.4621547E-010  0.4778727E+02  0.7816164E-02  0.1312668E+00
        -11   -1    0    0    0    0  0.00000000000E+00  0.00000000000E+00  0.45593999997E+02  0.45594000000E+02  0.51100000000E-03 0.  1.
         11   -1    0    0    0    0 -0.00000000000E+00 -0.00000000000E+00 -0.45593999997E+02  0.45594000000E+02  0.51100000000E-03 0. -1.
    9900012    2    1    2    0    0 -0.36505503372E+02  0.35466812648E+01 -0.23203293280E+02  0.47787267938E+02  0.19999985838E+02 0.  0.
        -12    1    1    2    0    0  0.36505503372E+02 -0.35466812648E+01  0.23203293280E+02  0.43400732062E+02  0.00000000000E+00 0.  1.
         11    1    3    3    0    0  0.45147266841E+00  0.51322677658E+00 -0.92511866860E+00  0.11502495845E+01  0.51100000000E-03 0. -1.
        -11    1    3    3    0    0 -0.13069631194E+02  0.91374010697E+01 -0.11848221357E+02  0.19866748789E+02  0.51100000000E-03 0.  1.
         12    1    3    3    0    0 -0.23887344847E+02 -0.61039465815E+01 -0.10429953255E+02  0.26770269565E+02  0.00000000000E+00 0. -1.
</event>
<event>
 7    1  0.4621547E-010  0.4778730E+02  0.7816164E-02  0.1312668E+00
        -11   -1    0    0    0    0  0.00000000000E+00  0.00000000000E+00  0.45593999997E+02  0.45594000000E+02  0.51100000000E-03 0.  1.
         11   -1    0    0    0    0 -0.00000000000E+00 -0.00000000000E+00 -0.45593999997E+02  0.45594000000E+02  0.51100000000E-03 0. -1.
    9900012    2    1    2    0    0 -0.29047865884E+02 -0.75826591040E+00 -0.32237664124E+02  0.47787303373E+02  0.20000147397E+02 0.  0.
        -12    1    1    2    0    0  0.29047865884E+02  0.75826591040E+00  0.32237664124E+02  0.43400696627E+02  0.00000000000E+00 0.  1.
         11    1    3    3    0    0 -0.13967181279E+02  0.36909091339E-01 -0.15265011786E+02  0.20690676650E+02  0.51100000000E-03 0. -1.
        -11    1    3    3    0    0 -0.10478230884E+02 -0.52694133578E+01 -0.17029410615E+02  0.20677544964E+02  0.51100000000E-03 0.  1.
         12    1    3    3    0    0 -0.46024537205E+01  0.44742383561E+01  0.56758276790E-01  0.64190817582E+01  0.00000000000E+00 0. -1.
</event>
<event>
 7    1  0.4621547E-010  0.4778727E+02  0.7816164E-02  0.1312668E+00
        -11   -1    0    0    0    0  0.00000000000E+00  0.00000000000E+00  0.45593999997E+02  0.45594000000E+02  0.51100000000E-03 0. -1.
         11   -1    0    0    0    0 -0.00000000000E+00 -0.00000000000E+00 -0.45593999997E+02  0.45594000000E+02  0.51100000000E-03 0.  1.
    9900012    2    1    2    0    0  0.23344577514E+02  0.20472948427E+02  0.30323462815E+02  0.47787270586E+02  0.19999997908E+02 0.  0.
        -12    1    1    2    0    0 -0.23344577514E+02 -0.20472948427E+02 -0.30323462815E+02  0.43400729414E+02  0.00000000000E+00 0.  1.
         11    1    3    3    0    0  0.14679666825E+02  0.17764290349E+02  0.27814370412E+02  0.36120656574E+02  0.51100000000E-03 0. -1.
        -11    1    3    3    0    0 -0.10203457261E+01  0.10727507867E+01 -0.15690697977E+00  0.14887980765E+01  0.51100000000E-03 0.  1.
        -12    1    3    3    0    0  0.96852564152E+01  0.16359072914E+01  0.26659993831E+01  0.10177815935E+02  0.00000000000E+00 0.  1.
</event>
<event>
 7    1  0.4621547E-010  0.4778727E+02  0.7816164E-02  0.1312668E+00
        -11   -1    0    0    0    0  0.00000000000E+00  0.00000000000E+00  0.45593999997E+02  0.45594000000E+02  0.51100000000E-03 0.  1.
         11   -1    0    0    0    0 -0.00000000000E+00 -0.00000000000E+00 -0.45593999997E+02  0.45594000000E+02  0.51100000000E-03 0. -1.
    9900012    2    1    2    0    0  0.25927305463E+02 -0.58723993684E+01 -0.34306168919E+02  0.47787268798E+02  0.19999989759E+02 0.  0.
        -12    1    1    2    0    0 -0.25927305463E+02  0.58723993684E+01  0.34306168919E+02  0.43400731202E+02  0.00000000000E+00 0.  1.
         11    1    3    3    0    0  0.14826005042E+02 -0.72944023791E+01 -0.27552557094E+02  0.32127280219E+02  0.51100000000E-03 0. -1.
        -11    1    3    3    0    0  0.56373377734E+01 -0.35396373512E+01 -0.23149333931E+01  0.70475191823E+01  0.51100000000E-03 0.  1.
        -12    1    3    3    0    0  0.54639626478E+01  0.49616403619E+01 -0.44386784321E+01  0.86124693974E+01  0.00000000000E+00 0.  1.
</event>
<event>
 7    1  0.4621547E-010  0.4778727E+02  0.7816164E-02  0.1312668E+00
        -11   -1    0    0    0    0  0.00000000000E+00  0.00000000000E+00  0.45593999997E+02  0.45594000000E+02  0.51100000000E-03 0. -1.
         11   -1    0    0    0    0 -0.00000000000E+00 -0.00000000000E+00 -0.45593999997E+02  0.45594000000E+02  0.51100000000E-03 0.  1.
    9900012    2    1    2    0    0  0.47926923307E+00 -0.38584558897E+02  0.19865176233E+02  0.47787272920E+02  0.20000008553E+02 0.  0.
        -12    1    1    2    0    0 -0.47926923307E+00  0.38584558897E+02 -0.19865176233E+02  0.43400727080E+02  0.00000000000E+00 0.  1.
         11    1    3    3    0    0  0.71043641408E+01 -0.87457704839E+01  0.88367223248E+01  0.14319502537E+02  0.51100000000E-03 0. -1.
        -11    1    3    3    0    0 -0.17775350911E+01 -0.87789261685E+01  0.72627736472E+01  0.11531567846E+02  0.51100000000E-03 0.  1.
         12    1    3    3    0    0 -0.48475598166E+01 -0.21059862244E+02  0.37656802614E+01  0.21936202537E+02  0.00000000000E+00 0. -1.
</event>
<event>
 7    1  0.4621547E-010  0.4778728E+02  0.7816164E-02  0.1312668E+00
        -11   -1    0    0    0    0  0.00000000000E+00  0.00000000000E+00  0.45593999997E+02  0.45594000000E+02  0.51100000000E-03 0.  1.
         11   -1    0    0    0    0 -0.00000000000E+00 -0.00000000000E+00 -0.45593999997E+02  0.45594000000E+02  0.51100000000E-03 0. -1.
    9900012    2    1    2    0    0 -0.29706894325E+02  0.13794193192E+02 -0.28475314680E+02  0.47787275555E+02  0.20000020565E+02 0.  0.
        -12    1    1    2    0    0  0.29706894325E+02 -0.13794193192E+02  0.28475314680E+02  0.43400724445E+02  0.00000000000E+00 0.  1.
         11    1    3    3    0    0 -0.95104323035E+01  0.15446810624E+01 -0.39726244900E+01  0.10421905190E+02  0.51100000000E-03 0. -1.
        -11    1    3    3    0    0 -0.16438009257E+02  0.15595422242E+02 -0.16981152560E+02  0.28315806289E+02  0.51100000000E-03 0.  1.
        -12    1    3    3    0    0 -0.37584527643E+01 -0.33459101125E+01 -0.75215376297E+01  0.90495640767E+01  0.00000000000E+00 0.  1.
</event>
<event>
 7    1  0.4621547E-010  0.4778727E+02  0.7816164E-02  0.1312668E+00
        -11   -1    0    0    0    0  0.00000000000E+00  0.00000000000E+00  0.45593999997E+02  0.45594000000E+02  0.51100000000E-03 0.  1.
         11   -1    0    0    0    0 -0.00000000000E+00 -0.00000000000E+00 -0.45593999997E+02  0.45594000000E+02  0.51100000000E-03 0. -1.
    9900012    2    1    2    0    0 -0.39327645051E+02  0.10047798360E+02 -0.15362345242E+02  0.47787267650E+02  0.19999984525E+02 0.  0.
        -12    1    1    2    0    0  0.39327645051E+02 -0.10047798360E+02  0.15362345242E+02  0.43400732350E+02  0.00000000000E+00 0.  1.
         11    1    3    3    0    0 -0.30958910445E+01 -0.15852574188E+01 -0.27998781187E+01  0.44650756079E+01  0.51100000000E-03 0. -1.
        -11    1    3    3    0    0 -0.21229725945E+02 -0.18051427174E+01 -0.70163235028E+01  0.22431865720E+02  0.51100000000E-03 0.  1.
        -12    1    3    3    0    0 -0.15002028062E+02  0.13438198496E+02 -0.55461436205E+01  0.20890326322E+02  0.00000000000E+00 0.  1.
</event>
<event>
 7    1  0.4621547E-010  0.4778727E+02  0.7816164E-02  0.1312668E+00
        -11   -1    0    0    0    0  0.00000000000E+00  0.00000000000E+00  0.45593999997E+02  0.45594000000E+02  0.51100000000E-03 0.  1.
         11   -1    0    0    0    0 -0.00000000000E+00 -0.00000000000E+00 -0.45593999997E+02  0.45594000000E+02  0.51100000000E-03 0. -1.
    9900012    2    1    2    0    0 -0.16496768293E+02 -0.18885112240E+02 -0.35423617177E+02  0.47787268643E+02  0.19999989049E+02 0.  0.
        -12    1    1    2    0    0  0.16496768293E+02  0.18885112240E+02  0.35423617177E+02  0.43400731357E+02  0.00000000000E+00 0.  1.
         11    1    3    3    0    0 -0.72189338379E+00  0.26536698563E+01 -0.22711339674E+01  0.35666712104E+01  0.51100000000E-03 0. -1.
        -11    1    3    3    0    0 -0.29935861674E+01 -0.14988614980E+00 -0.91304397711E+01  0.96098363500E+01  0.51100000000E-03 0.  1.
         12    1    3    3    0    0 -0.12781288742E+02 -0.21388895946E+02 -0.24022043439E+02  0.34610761082E+02  0.00000000000E+00 0. -1.
</event>
<event>
 7    1  0.4621547E-010  0.4778727E+02  0.7816164E-02  0.1312668E+00
        -11   -1    0    0    0    0  0.00000000000E+00  0.00000000000E+00  0.45593999997E+02  0.45594000000E+02  0.51100000000E-03 0.  1.
         11   -1    0    0    0    0 -0.00000000000E+00 -0.00000000000E+00 -0.45593999997E+02  0.45594000000E+02  0.51100000000E-03 0. -1.
    9900012    2    1    2    0    0  0.16426611791E+02 -0.39385265957E+02 -0.79114166439E+01  0.47787271172E+02  0.20000000583E+02 0.  0.
        -12    1    1    2    0    0 -0.16426611791E+02  0.39385265957E+02  0.79114166439E+01  0.43400728828E+02  0.00000000000E+00 0.  1.
         11    1    3    3    0    0  0.13655122078E+02 -0.13233316184E+02 -0.43039228020E+01  0.19496327037E+02  0.51100000000E-03 0. -1.
        -11    1    3    3    0    0  0.57210439927E+01 -0.16668856539E+02  0.28115730574E+00  0.17625554527E+02  0.51100000000E-03 0.  1.
         12    1    3    3    0    0 -0.29495542803E+01 -0.94830932341E+01 -0.38886511476E+01  0.10665389608E+02  0.00000000000E+00 0. -1.
</event>
<event>
 7    1  0.4621547E-010  0.4778727E+02  0.7816164E-02  0.1312668E+00
        -11   -1    0    0    0    0  0.00000000000E+00  0.00000000000E+00  0.45593999997E+02  0.45594000000E+02  0.51100000000E-03 0. -1.
         11   -1    0    0    0    0 -0.00000000000E+00 -0.00000000000E+00 -0.45593999997E+02  0.45594000000E+02  0.51100000000E-03 0.  1.
    9900012    2    1    2    0    0  0.18555361739E+02 -0.31763436327E+02  0.23030540210E+02  0.47787272829E+02  0.20000008137E+02 0.  0.
        -12    1    1    2    0    0 -0.18555361739E+02  0.31763436327E+02 -0.23030540210E+02  0.43400727171E+02  0.00000000000E+00 0.  1.
         11    1    3    3    0    0  0.17155913249E+02 -0.18688229589E+02  0.15352706747E+02  0.29652670863E+02  0.51100000000E-03 0. -1.
        -11    1    3    3    0    0  0.50721150282E+01 -0.11005657336E+02  0.65295359052E+01  0.13765379895E+02  0.51100000000E-03 0.  1.
        -12    1    3    3    0    0 -0.36726665379E+01 -0.20695494024E+01  0.11482975576E+01  0.43692220713E+01  0.00000000000E+00 0.  1.
</event>
<event>
 7    1  0.4621547E-010  0.4778728E+02  0.7816164E-02  0.1312668E+00
        -11   -1    0    0    0    0  0.00000000000E+00  0.00000000000E+00  0.45593999997E+02  0.45594000000E+02  0.51100000000E-03 0. -1.
         11   -1    0    0    0    0 -0.00000000000E+00 -0.00000000000E+00 -0.45593999997E+02  0.45594000000E+02  0.51100000000E-03 0.  1.
    9900012    2    1    2    0    0 -0.10032644172E+02  0.26747885315E+02  0.32672915434E+02  0.47787277416E+02  0.20000029049E+02 0.  0.
        -12    1    1    2    0    0  0.10032644172E+02 -0.26747885315E+02 -0.32672915434E+02  0.43400722584E+02  0.00000000000E+00 0.  1.
         11    1    3    3    0    0 -0.14393579577E+01  0.81551005504E+01  0.10482799609E+02  0.13359135609E+02  0.51100000000E-03 0. -1.
        -11    1    3    3    0    0  0.12669991878E+01 -0.54590289522E-01  0.99698566459E+01  0.10050189493E+02  0.51100000000E-03 0.  1.
         12    1    3    3    0    0 -0.98602854020E+01  0.18647375054E+02  0.12220259180E+02  0.24377952314E+02  0.00000000000E+00 0. -1.
</event>
<event>
 7    1  0.4621547E-010  0.4778727E+02  0.7816164E-02  0.1312668E+00
        -11   -1    0    0    0    0  0.00000000000E+00  0.00000000000E+00  0.45593999997E+02  0.45594000000E+02  0.51100000000E-03 0.  1.
         11   -1    0    0    0    0 -0.00000000000E+00 -0.00000000000E+00 -0.45593999997E+02  0.45594000000E+02  0.51100000000E-03 0. -1.
    9900012    2    1    2    0    0 -0.33132354493E+01  0.27230528659E+02 -0.33632482428E+02  0.47787273111E+02  0.20000009422E+02 0.  0.
        -12    1    1    2    0    0  0.33132354493E+01 -0.27230528659E+02  0.33632482428E+02  0.43400726889E+02  0.00000000000E+00 0.  1.
         11    1    3    3    0    0 -0.63031335618E+00  0.36382514517E+00 -0.54906472683E+01  0.55386705398E+01  0.51100000000E-03 0. -1.
        -11    1    3    3    0    0  0.30273918593E+01  0.24039779605E+00 -0.74569296788E+01  0.80516267342E+01  0.51100000000E-03 0.  1.
        -12    1    3    3    0    0 -0.57103139525E+01  0.26626305718E+02 -0.20684905481E+02  0.34196975837E+02  0.00000000000E+00 0.  1.
</event>
<event>
 7    1  0.4621547E-010  0.4778732E+02  0.7816164E-02  0.1312668E+00
        -11   -1    0    0    0    0  0.00000000000E+00  0.00000000000E+00  0.45593999997E+02  0.45594000000E+02  0.51100000000E-03 0.  1.
         11   -1    0    0    0    0 -0.00000000000E+00 -0.00000000000E+00 -0.45593999997E+02  0.45594000000E+02  0.51100000000E-03 0. -1.
    9900012    2    1    2    0    0 -0.12789426822E+02 -0.93684188310E+01 -0.40401513767E+02  0.47787320000E+02  0.20000223205E+02 0.  0.
        -12    1    1    2    0    0  0.12789426822E+02  0.93684188310E+01  0.40401513767E+02  0.43400680000E+02  0.00000000000E+00 0.  1.
         11    1    3    3    0    0 -0.94165624241E+01 -0.77679016559E+01 -0.40520306925E+02  0.42319111730E+02  0.51100000000E-03 0. -1.
        -11    1    3    3    0    0 -0.20483248863E+01 -0.16367803766E+01 -0.17681946422E+01  0.31624669793E+01  0.51100000000E-03 0.  1.
         12    1    3    3    0    0 -0.13245395121E+01  0.36263201460E-01  0.18869878006E+01  0.23057412905E+01  0.00000000000E+00 0. -1.
</event>
<event>
 7    1  0.4621547E-010  0.4778729E+02  0.7816164E-02  0.1312668E+00
        -11   -1    0    0    0    0  0.00000000000E+00  0.00000000000E+00  0.45593999997E+02  0.45594000000E+02  0.51100000000E-03 0.  1.
         11   -1    0    0    0    0 -0.00000000000E+00 -0.00000000000E+00 -0.45593999997E+02  0.45594000000E+02  0.51100000000E-03 0. -1.
    9900012    2    1    2    0    0 -0.40255781523E+01 -0.40546115801E+02 -0.14947533675E+02  0.47787290916E+02  0.20000090604E+02 0.  0.
        -12    1    1    2    0    0  0.40255781523E+01  0.40546115801E+02  0.14947533675E+02  0.43400709084E+02  0.00000000000E+00 0.  1.
         11    1    3    3    0    0  0.53466220152E+00 -0.10312968900E+00  0.80793437089E+00  0.97429852267E+00  0.51100000000E-03 0. -1.
        -11    1    3    3    0    0  0.15127495135E+01 -0.21295527409E+02 -0.10665654917E+00  0.21349456073E+02  0.51100000000E-03 0.  1.
         12    1    3    3    0    0 -0.60729898673E+01 -0.19147458703E+02 -0.15648811497E+02  0.25463536321E+02  0.00000000000E+00 0. -1.
</event>
<event>
 7    1  0.4621547E-010  0.4778727E+02  0.7816164E-02  0.1312668E+00
        -11   -1    0    0    0    0  0.00000000000E+00  0.00000000000E+00  0.45593999997E+02  0.45594000000E+02  0.51100000000E-03 0.  1.
         11   -1    0    0    0    0 -0.00000000000E+00 -0.00000000000E+00 -0.45593999997E+02  0.45594000000E+02  0.51100000000E-03 0. -1.
    9900012    2    1    2    0    0 -0.40367942536E+02  0.14738596928E+02  0.60684683200E+01  0.47787270377E+02  0.19999996959E+02 0.  0.
        -12    1    1    2    0    0  0.40367942536E+02 -0.14738596928E+02 -0.60684683200E+01  0.43400729623E+02  0.00000000000E+00 0.  1.
         11    1    3    3    0    0 -0.53376648883E+01 -0.14602765463E+01 -0.36797157374E+01  0.66455535677E+01  0.51100000000E-03 0. -1.
        -11    1    3    3    0    0 -0.10121708761E+01  0.32216689004E+01  0.19743208428E+01  0.39117238447E+01  0.51100000000E-03 0.  1.
        -12    1    3    3    0    0 -0.34018106772E+02  0.12977204574E+02  0.77738632146E+01  0.37229992965E+02  0.00000000000E+00 0.  1.
</event>
<event>
 7    1  0.4621547E-010  0.4778727E+02  0.7816164E-02  0.1312668E+00
        -11   -1    0    0    0    0  0.00000000000E+00  0.00000000000E+00  0.45593999997E+02  0.45594000000E+02  0.51100000000E-03 0. -1.
         11   -1    0    0    0    0 -0.00000000000E+00 -0.00000000000E+00 -0.45593999997E+02  0.45594000000E+02  0.51100000000E-03 0.  1.
    9900012    2    1    2    0    0  0.35140553769E+02 -0.17659767937E+02 -0.18354768453E+02  0.47787269041E+02  0.19999990866E+02 0.  0.
        -12    1    1    2    0    0 -0.35140553769E+02  0.17659767937E+02  0.18354768453E+02  0.43400730959E+02  0.00000000000E+00 0.  1.
         11    1    3    3    0    0  0.25878945208E+01 -0.38002215204E+01 -0.33647424358E+01  0.56974005981E+01  0.51100000000E-03 0. -1.
        -11    1    3    3    0    0  0.34317314235E+02 -0.13432766480E+02 -0.12312876755E+02  0.38855169615E+02  0.51100000000E-03 0.  1.
        -12    1    3    3    0    0 -0.17646549864E+01 -0.42677993739E+00 -0.26771492617E+01  0.32346988276E+01  0.00000000000E+00 0.  1.
</event>
<event>
 7    1  0.4621547E-010  0.4778727E+02  0.7816164E-02  0.1312668E+00
        -11   -1    0    0    0    0  0.00000000000E+00  0.00000000000E+00  0.45593999997E+02  0.45594000000E+02  0.51100000000E-03 0.  1.
         11   -1    0    0    0    0 -0.00000000000E+00 -0.00000000000E+00 -0.45593999997E+02  0.45594000000E+02  0.51100000000E-03 0. -1.
    9900012    2    1    2    0    0 -0.43285158130E+01 -0.37487668051E+02 -0.21437399870E+02  0.47787269381E+02  0.19999992418E+02 0.  0.
        -12    1    1    2    0    0  0.43285158130E+01  0.37487668051E+02  0.21437399870E+02  0.43400730619E+02  0.00000000000E+00 0.  1.
         11    1    3    3    0    0 -0.40106288013E+01 -0.16177248079E+02 -0.14794983350E+02  0.22286319377E+02  0.51100000000E-03 0. -1.
        -11    1    3    3    0    0  0.36079016701E+01 -0.20773123274E+01 -0.38558305113E+01  0.56744700334E+01  0.51100000000E-03 0.  1.
        -12    1    3    3    0    0 -0.39257886818E+01 -0.19233107645E+02 -0.27865860081E+01  0.19826479971E+02  0.00000000000E+00 0.  1.
</event>
<event>
 7    1  0.4621547E-010  0.4778727E+02  0.7816164E-02  0.1312668E+00
        -11   -1    0    0    0    0  0.00000000000E+00  0.00000000000E+00  0.45593999997E+02  0.45594000000E+02  0.51100000000E-03 0. -1.
         11   -1    0    0    0    0 -0.00000000000E+00 -0.00000000000E+00 -0.45593999997E+02  0.45594000000E+02  0.51100000000E-03 0.  1.
    9900012    2    1    2    0    0  0.10593733089E+02  0.42087352445E+02 -0.22544572859E+00  0.47787271408E+02  0.20000001657E+02 0.  0.
        -12    1    1    2    0    0 -0.10593733089E+02 -0.42087352445E+02  0.22544572859E+00  0.43400728592E+02  0.00000000000E+00 0.  1.
         11    1    3    3    0    0  0.58010164720E+01  0.22543709470E+02 -0.77851147563E+00  0.23291129409E+02  0.51100000000E-03 0. -1.
        -11    1    3    3    0    0  0.47825818722E+01  0.10361680739E+02 -0.63028404391E+01  0.13036997927E+02  0.51100000000E-03 0.  1.
         12    1    3    3    0    0  0.10134744897E-01  0.91819622356E+01  0.68559061861E+01  0.11459144071E+02  0.00000000000E+00 0. -1.
</event>
<event>
 7    1  0.4621547E-010  0.4778726E+02  0.7816164E-02  0.1312668E+00
        -11   -1    0    0    0    0  0.00000000000E+00  0.00000000000E+00  0.45593999997E+02  0.45594000000E+02  0.51100000000E-03 0.  1.
         11   -1    0    0    0    0 -0.00000000000E+00 -0.00000000000E+00 -0.45593999997E+02  0.45594000000E+02  0.51100000000E-03 0. -1.
    9900012    2    1    2    0    0  0.12996513083E+02  0.15921875252E+02 -0.38225762601E+02  0.47787258183E+02  0.19999941357E+02 0.  0.
        -12    1    1    2    0    0 -0.12996513083E+02 -0.15921875252E+02  0.38225762601E+02  0.43400741817E+02  0.00000000000E+00 0.  1.
         11    1    3    3    0    0  0.72629846909E+01  0.41448641890E+01 -0.93109712408E+01  0.12514992268E+02  0.51100000000E-03 0. -1.
        -11    1    3    3    0    0 -0.13318853708E+00  0.11300428970E+02 -0.88271276296E+01  0.14340000576E+02  0.51100000000E-03 0.  1.
        -12    1    3    3    0    0  0.58667169292E+01  0.47658209397E+00 -0.20087663731E+02  0.20932265338E+02  0.00000000000E+00 0.  1.
</event>
<event>
 7    1  0.4621547E-010  0.4778727E+02  0.7816164E-02  0.1312668E+00
        -11   -1    0    0    0    0  0.00000000000E+00  0.00000000000E+00  0.45593999997E+02  0.45594000000E+02  0.51100000000E-03 0. -1.
         11   -1    0    0    0    0 -0.00000000000E+00 -0.00000000000E+00 -0.45593999997E+02  0.45594000000E+02  0.51100000000E-03 0.  1.
    9900012    2    1    2    0    0  0.30411344142E+02  0.30921488238E+02 -0.16232323087E+01  0.47787272235E+02  0.20000005428E+02 0.  0.
        -12    1    1    2    0    0 -0.30411344142E+02 -0.30921488238E+02  0.16232323087E+01  0.43400727765E+02  0.00000000000E+00 0.  1.
         11    1    3    3    0    0  0.17803975351E+02  0.11977637486E+02  0.13939460325E+01  0.21503218919E+02  0.51100000000E-03 0. -1.
        -11    1    3    3    0    0  0.66036647587E+01  0.69253715968E+01  0.48368195165E+01  0.10722125876E+02  0.51100000000E-03 0.  1.
        -12    1    3    3    0    0  0.60037040323E+01  0.12018479155E+02 -0.78539978578E+01  0.15561927441E+02  0.00000000000E+00 0.  1.
</event>
<event>
 7    1  0.4621547E-010  0.4778727E+02  0.7816164E-02  0.1312668E+00
        -11   -1    0    0    0    0  0.00000000000E+00  0.00000000000E+00  0.45593999997E+02  0.45594000000E+02  0.51100000000E-03 0. -1.
         11   -1    0    0    0    0 -0.00000000000E+00 -0.00000000000E+00 -0.45593999997E+02  0.45594000000E+02  0.51100000000E-03 0.  1.
    9900012    2    1    2    0    0 -0.40864507781E+02  0.11371899179E+02 -0.91866924131E+01  0.47787269538E+02  0.19999993133E+02 0.  0.
        -12    1    1    2    0    0  0.40864507781E+02 -0.11371899179E+02  0.91866924131E+01  0.43400730462E+02  0.00000000000E+00 0.  1.
         11    1    3    3    0    0 -0.12267955139E+02  0.27118308909E+01 -0.52251221344E+01  0.13607301410E+02  0.51100000000E-03 0. -1.
        -11    1    3    3    0    0 -0.70684090959E+01 -0.44612688231E+01  0.12031174231E+01  0.84446917323E+01  0.51100000000E-03 0.  1.
        -12    1    3    3    0    0 -0.21528143546E+02  0.13121337112E+02 -0.51646877019E+01  0.25735276396E+02  0.00000000000E+00 0.  1.
</event>
<event>
 7    1  0.4621547E-010  0.4778727E+02  0.7816164E-02  0.1312668E+00
        -11   -1    0    0    0    0  0.00000000000E+00  0.00000000000E+00  0.45593999997E+02  0.45594000000E+02  0.51100000000E-03 0.  1.
         11   -1    0    0    0    0 -0.00000000000E+00 -0.00000000000E+00 -0.45593999997E+02  0.45594000000E+02  0.51100000000E-03 0. -1.
    9900012    2    1    2    0    0  0.89236404245E+01  0.29389058906E+02  0.30663903565E+02  0.47787272776E+02  0.20000007893E+02 0.  0.
        -12    1    1    2    0    0 -0.89236404245E+01 -0.29389058906E+02 -0.30663903565E+02  0.43400727224E+02  0.00000000000E+00 0.  1.
         11    1    3    3    0    0  0.21493991050E+01  0.22743878712E+01  0.67446905385E+01  0.74352947099E+01  0.51100000000E-03 0. -1.
        -11    1    3    3    0    0  0.19299506590E+01 -0.13257005755E+01 -0.68021226362E+00  0.24382125721E+01  0.51100000000E-03 0.  1.
         12    1    3    3    0    0  0.48442906606E+01  0.28440371610E+02  0.24599425290E+02  0.37913765494E+02  0.00000000000E+00 0. -1.
</event>
<event>
 7    1  0.4621547E-010  0.4778728E+02  0.7816164E-02  0.1312668E+00
        -11   -1    0    0    0    0  0.00000000000E+00  0.00000000000E+00  0.45593999997E+02  0.45594000000E+02  0.51100000000E-03 0. -1.
         11   -1    0    0    0    0 -0.00000000000E+00 -0.00000000000E+00 -0.45593999997E+02  0.45594000000E+02  0.51100000000E-03 0.  1.
    9900012    2    1    2    0    0  0.43276381207E+02  0.10198560630E+01  0.31204854579E+01  0.47787277583E+02  0.20000029814E+02 0.  0.
        -12    1    1    2    0    0 -0.43276381207E+02 -0.10198560630E+01 -0.31204854579E+01  0.43400722417E+02  0.00000000000E+00 0.  1.
         11    1    3    3    0    0  0.83742333433E+01  0.39292025523E+01  0.38518843199E+01  0.10020151189E+02  0.51100000000E-03 0. -1.
        -11    1    3    3    0    0  0.18388270175E+02  0.49042350561E+01  0.25646923623E+01  0.19203063523E+02  0.51100000000E-03 0.  1.
        -12    1    3    3    0    0  0.16513877689E+02 -0.78135815454E+01 -0.32960912243E+01  0.18564062871E+02  0.00000000000E+00 0.  1.
</event>
<event>
 7    1  0.4621547E-010  0.4778727E+02  0.7816164E-02  0.1312668E+00
        -11   -1    0    0    0    0  0.00000000000E+00  0.00000000000E+00  0.45593999997E+02  0.45594000000E+02  0.51100000000E-03 0. -1.
         11   -1    0    0    0    0 -0.00000000000E+00 -0.00000000000E+00 -0.45593999997E+02  0.45594000000E+02  0.51100000000E-03 0.  1.
    9900012    2    1    2    0    0  0.34342130156E+02  0.26039088249E+02  0.51192968271E+01  0.47787271659E+02  0.20000002804E+02 0.  0.
        -12    1    1    2    0    0 -0.34342130156E+02 -0.26039088249E+02 -0.51192968271E+01  0.43400728341E+02  0.00000000000E+00 0.  1.
         11    1    3    3    0    0  0.89394014618E+01  0.78985193730E+01  0.15704586009E+01  0.12031867987E+02  0.51100000000E-03 0. -1.
        -11    1    3    3    0    0 -0.10537324615E+01  0.65585870929E+01  0.14469396664E+01  0.67984594883E+01  0.51100000000E-03 0.  1.
         12    1    3    3    0    0  0.26456461156E+02  0.11581981783E+02  0.21018985599E+01  0.28956944184E+02  0.00000000000E+00 0. -1.
</event>
<event>
 7    1  0.4621547E-010  0.4778727E+02  0.7816164E-02  0.1312668E+00
        -11   -1    0    0    0    0  0.00000000000E+00  0.00000000000E+00  0.45593999997E+02  0.45594000000E+02  0.51100000000E-03 0. -1.
         11   -1    0    0    0    0 -0.00000000000E+00 -0.00000000000E+00 -0.45593999997E+02  0.45594000000E+02  0.51100000000E-03 0.  1.
    9900012    2    1    2    0    0  0.12150498118E+02  0.19718099991E+02  0.36704018954E+02  0.47787273288E+02  0.20000010229E+02 0.  0.
        -12    1    1    2    0    0 -0.12150498118E+02 -0.19718099991E+02 -0.36704018954E+02  0.43400726712E+02  0.00000000000E+00 0.  1.
         11    1    3    3    0    0  0.10290854561E+02  0.43240332174E+01  0.24571356814E+02  0.26987970039E+02  0.51100000000E-03 0. -1.
        -11    1    3    3    0    0  0.40848635254E+01  0.62620982797E+01  0.48964049639E+01  0.89372684148E+01  0.51100000000E-03 0.  1.
         12    1    3    3    0    0 -0.22252199692E+01  0.91319684944E+01  0.72362571754E+01  0.11862034834E+02  0.00000000000E+00 0. -1.
</event>
<event>
 7    1  0.4621547E-010  0.4778727E+02  0.7816164E-02  0.1312668E+00
        -11   -1    0    0    0    0  0.00000000000E+00  0.00000000000E+00  0.45593999997E+02  0.45594000000E+02  0.51100000000E-03 0.  1.
         11   -1    0    0    0    0 -0.00000000000E+00 -0.00000000000E+00 -0.45593999997E+02  0.45594000000E+02  0.51100000000E-03 0. -1.
    9900012    2    1    2    0    0  0.23070695130E+02 -0.16838254077E+01 -0.36722351717E+02  0.47787270082E+02  0.19999995612E+02 0.  0.
        -12    1    1    2    0    0 -0.23070695130E+02  0.16838254077E+01  0.36722351717E+02  0.43400729918E+02  0.00000000000E+00 0.  1.
         11    1    3    3    0    0 -0.17923879935E+01 -0.77990461256E+00 -0.48294268490E+01  0.52100163027E+01  0.51100000000E-03 0.  1.
        -11    1    3    3    0    0  0.10828444886E+01  0.11919112647E+01 -0.10182606674E+02  0.10309155328E+02  0.51100000000E-03 0. -1.
         12    1    3    3    0    0  0.23780238635E+02 -0.20958320599E+01 -0.21710318195E+02  0.32268098451E+02  0.00000000000E+00 0. -1.
</event>
<event>
 7    1  0.4621547E-010  0.4778727E+02  0.7816164E-02  0.1312668E+00
        -11   -1    0    0    0    0  0.00000000000E+00  0.00000000000E+00  0.45593999997E+02  0.45594000000E+02  0.51100000000E-03 0.  1.
         11   -1    0    0    0    0 -0.00000000000E+00 -0.00000000000E+00 -0.45593999997E+02  0.45594000000E+02  0.51100000000E-03 0. -1.
    9900012    2    1    2    0    0  0.30034364561E+02 -0.31007934811E+02 -0.44797972981E+01  0.47787266600E+02  0.19999979735E+02 0.  0.
        -12    1    1    2    0    0 -0.30034364561E+02  0.31007934811E+02  0.44797972981E+01  0.43400733400E+02  0.00000000000E+00 0.  1.
         11    1    3    3    0    0  0.26035087907E+00  0.17682389484E+01  0.68452843838E+00  0.19139046484E+01  0.51100000000E-03 0. -1.
        -11    1    3    3    0    0  0.88549857347E+00 -0.14447528139E+01 -0.26968644181E+01  0.31850426006E+01  0.51100000000E-03 0.  1.
         12    1    3    3    0    0  0.28888515109E+02 -0.31331420946E+02 -0.24674613183E+01  0.42688319351E+02  0.00000000000E+00 0. -1.
</event>
<event>
 7    1  0.4621547E-010  0.4778727E+02  0.7816164E-02  0.1312668E+00
        -11   -1    0    0    0    0  0.00000000000E+00  0.00000000000E+00  0.45593999997E+02  0.45594000000E+02  0.51100000000E-03 0.  1.
         11   -1    0    0    0    0 -0.00000000000E+00 -0.00000000000E+00 -0.45593999997E+02  0.45594000000E+02  0.51100000000E-03 0. -1.
    9900012    2    1    2    0    0 -0.11779866187E+02  0.29807628901E+02 -0.29263686127E+02  0.47787270584E+02  0.19999997902E+02 0.  0.
        -12    1    1    2    0    0  0.11779866187E+02 -0.29807628901E+02  0.29263686127E+02  0.43400729416E+02  0.00000000000E+00 0.  1.
         11    1    3    3    0    0 -0.84763612862E+01  0.13740044886E+02 -0.80358467657E+01  0.18033645434E+02  0.51100000000E-03 0. -1.
        -11    1    3    3    0    0  0.85734278620E+00  0.14199914876E+02 -0.93320807903E+01  0.17013534356E+02  0.51100000000E-03 0.  1.
        -12    1    3    3    0    0 -0.41608476874E+01  0.18676691388E+01 -0.11895758571E+02  0.12740090795E+02  0.00000000000E+00 0.  1.
</event>
<event>
 7    1  0.4621547E-010  0.4778727E+02  0.7816164E-02  0.1312668E+00
        -11   -1    0    0    0    0  0.00000000000E+00  0.00000000000E+00  0.45593999997E+02  0.45594000000E+02  0.51100000000E-03 0.  1.
         11   -1    0    0    0    0 -0.00000000000E+00 -0.00000000000E+00 -0.45593999997E+02  0.45594000000E+02  0.51100000000E-03 0. -1.
    9900012    2    1    2    0    0 -0.27723086529E+02  0.25261956832E+02 -0.21837752251E+02  0.47787269441E+02  0.19999992689E+02 0.  0.
        -12    1    1    2    0    0  0.27723086529E+02 -0.25261956832E+02  0.21837752251E+02  0.43400730559E+02  0.00000000000E+00 0.  1.
         11    1    3    3    0    0 -0.10883523931E+02  0.40705420998E+01 -0.25331116315E+01  0.11892731433E+02  0.51100000000E-03 0. -1.
        -11    1    3    3    0    0 -0.74188666174E+01  0.33403146529E+01 -0.25486115779E+00  0.81401620585E+01  0.51100000000E-03 0.  1.
        -12    1    3    3    0    0 -0.94206959809E+01  0.17851100080E+02 -0.19049779461E+02  0.27754375950E+02  0.00000000000E+00 0.  1.
</event>
<event>
 7    1  0.4621547E-010  0.4778727E+02  0.7816164E-02  0.1312668E+00
        -11   -1    0    0    0    0  0.00000000000E+00  0.00000000000E+00  0.45593999997E+02  0.45594000000E+02  0.51100000000E-03 0.  1.
         11   -1    0    0    0    0 -0.00000000000E+00 -0.00000000000E+00 -0.45593999997E+02  0.45594000000E+02  0.51100000000E-03 0. -1.
    9900012    2    1    2    0    0 -0.14010541915E+02  0.22488415623E+02 -0.34374397175E+02  0.47787270707E+02  0.19999998463E+02 0.  0.
        -12    1    1    2    0    0  0.14010541915E+02 -0.22488415623E+02  0.34374397175E+02  0.43400729293E+02  0.00000000000E+00 0.  1.
         11    1    3    3    0    0 -0.90817035830E+01  0.13529519690E+02 -0.18902287932E+02  0.24956396621E+02  0.51100000000E-03 0. -1.
        -11    1    3    3    0    0 -0.54928828446E+01  0.11468090885E+02 -0.82325182979E+01  0.15148043711E+02  0.51100000000E-03 0.  1.
        -12    1    3    3    0    0  0.56404451299E+00 -0.25091949509E+01 -0.72395909454E+01  0.76828303750E+01  0.00000000000E+00 0.  1.
</event>
<event>
 7    1  0.4621547E-010  0.4778730E+02  0.7816164E-02  0.1312668E+00
        -11   -1    0    0    0    0  0.00000000000E+00  0.00000000000E+00  0.45593999997E+02  0.45594000000E+02  0.51100000000E-03 0.  1.
         11   -1    0    0    0    0 -0.00000000000E+00 -0.00000000000E+00 -0.45593999997E+02  0.45594000000E+02  0.51100000000E-03 0. -1.
    9900012    2    1    2    0    0  0.17248847187E+02 -0.39455200025E+02 -0.54207926749E+01  0.47787302638E+02  0.20000144048E+02 0.  0.
        -12    1    1    2    0    0 -0.17248847187E+02  0.39455200025E+02  0.54207926749E+01  0.43400697362E+02  0.00000000000E+00 0.  1.
         11    1    3    3    0    0  0.67410548465E+01 -0.18286399110E+02  0.29162529947E+01  0.19706312305E+02  0.51100000000E-03 0. -1.
        -11    1    3    3    0    0 -0.69863163308E+00 -0.12687625939E+02 -0.30698930763E+01  0.13072420659E+02  0.51100000000E-03 0.  1.
         12    1    3    3    0    0  0.11206423973E+02 -0.84811749756E+01 -0.52671525932E+01  0.15008569675E+02  0.00000000000E+00 0. -1.
</event>
<event>
 7    1  0.4621547E-010  0.4778727E+02  0.7816164E-02  0.1312668E+00
        -11   -1    0    0    0    0  0.00000000000E+00  0.00000000000E+00  0.45593999997E+02  0.45594000000E+02  0.51100000000E-03 0.  1.
         11   -1    0    0    0    0 -0.00000000000E+00 -0.00000000000E+00 -0.45593999997E+02  0.45594000000E+02  0.51100000000E-03 0. -1.
    9900012    2    1    2    0    0  0.13176145968E+01 -0.33239268070E+02 -0.27875407438E+02  0.47787269708E+02  0.19999993906E+02 0.  0.
        -12    1    1    2    0    0 -0.13176145968E+01  0.33239268070E+02  0.27875407438E+02  0.43400730292E+02  0.00000000000E+00 0.  1.
         11    1    3    3    0    0  0.25178161052E+01 -0.18724585238E+02 -0.20383099119E+02  0.27792448979E+02  0.51100000000E-03 0. -1.
        -11    1    3    3    0    0 -0.35476329885E+01 -0.74940263855E+00  0.85600653632E+00  0.37255941254E+01  0.51100000000E-03 0.  1.
         12    1    3    3    0    0  0.23474314801E+01 -0.13765280194E+02 -0.83483148554E+01  0.16269226604E+02  0.00000000000E+00 0. -1.
</event>
<event>
 7    1  0.4621547E-010  0.4778727E+02  0.7816164E-02  0.1312668E+00
        -11   -1    0    0    0    0  0.00000000000E+00  0.00000000000E+00  0.45593999997E+02  0.45594000000E+02  0.51100000000E-03 0. -1.
         11   -1    0    0    0    0 -0.00000000000E+00 -0.00000000000E+00 -0.45593999997E+02  0.45594000000E+02  0.51100000000E-03 0.  1.
    9900012    2    1    2    0    0 -0.13711590823E+02 -0.32258748619E+02  0.25592742952E+02  0.47787273311E+02  0.20000010333E+02 0.  0.
        -12    1    1    2    0    0  0.13711590823E+02  0.32258748619E+02 -0.25592742952E+02  0.43400726689E+02  0.00000000000E+00 0.  1.
         11    1    3    3    0    0 -0.55879052439E+01 -0.19423668195E+00  0.30365018365E+01  0.63626061144E+01  0.51100000000E-03 0. -1.
        -11    1    3    3    0    0 -0.65555705046E+00 -0.60916317163E+01  0.97584616694E+01  0.11522382845E+02  0.51100000000E-03 0.  1.
         12    1    3    3    0    0 -0.74681285289E+01 -0.25972880221E+02  0.12797779446E+02  0.29902284351E+02  0.00000000000E+00 0. -1.
</event>
<event>
 7    1  0.4621547E-010  0.4778728E+02  0.7816164E-02  0.1312668E+00
        -11   -1    0    0    0    0  0.00000000000E+00  0.00000000000E+00  0.45593999997E+02  0.45594000000E+02  0.51100000000E-03 0. -1.
         11   -1    0    0    0    0 -0.00000000000E+00 -0.00000000000E+00 -0.45593999997E+02  0.45594000000E+02  0.51100000000E-03 0.  1.
    9900012    2    1    2    0    0 -0.58103458008E+01 -0.28500386925E+02  0.32211655129E+02  0.47787275359E+02  0.20000019672E+02 0.  0.
        -12    1    1    2    0    0  0.58103458008E+01  0.28500386925E+02 -0.32211655129E+02  0.43400724641E+02  0.00000000000E+00 0.  1.
         11    1    3    3    0    0  0.15457437175E+01  0.40078351794E+00  0.18788261664E+01  0.24657532507E+01  0.51100000000E-03 0. -1.
        -11    1    3    3    0    0 -0.61276015749E+01 -0.56108299959E+01  0.15772416349E+02  0.17826890701E+02  0.51100000000E-03 0.  1.
         12    1    3    3    0    0 -0.12284879434E+01 -0.23290340447E+02  0.14560412613E+02  0.27494631408E+02  0.00000000000E+00 0. -1.
</event>
<event>
 7    1  0.4621547E-010  0.4778727E+02  0.7816164E-02  0.1312668E+00
        -11   -1    0    0    0    0  0.00000000000E+00  0.00000000000E+00  0.45593999997E+02  0.45594000000E+02  0.51100000000E-03 0.  1.
         11   -1    0    0    0    0 -0.00000000000E+00 -0.00000000000E+00 -0.45593999997E+02  0.45594000000E+02  0.51100000000E-03 0. -1.
    9900012    2    1    2    0    0  0.20069997342E+02 -0.14830051683E+02 -0.35508989501E+02  0.47787267730E+02  0.19999984887E+02 0.  0.
        -12    1    1    2    0    0 -0.20069997342E+02  0.14830051683E+02  0.35508989501E+02  0.43400732270E+02  0.00000000000E+00 0.  1.
         11    1    3    3    0    0  0.44433469129E+01 -0.49511741155E+01 -0.93655274214E+01  0.11487844056E+02  0.51100000000E-03 0. -1.
        -11    1    3    3    0    0  0.77779988142E+01 -0.11144940566E+02 -0.24738846317E+02  0.28226184353E+02  0.51100000000E-03 0.  1.
        -12    1    3    3    0    0  0.78486516147E+01  0.12660629985E+01 -0.14046157622E+01  0.80732393204E+01  0.00000000000E+00 0.  1.
</event>
<event>
 7    1  0.4621547E-010  0.4778727E+02  0.7816164E-02  0.1312668E+00
        -11   -1    0    0    0    0  0.00000000000E+00  0.00000000000E+00  0.45593999997E+02  0.45594000000E+02  0.51100000000E-03 0.  1.
         11   -1    0    0    0    0 -0.00000000000E+00 -0.00000000000E+00 -0.45593999997E+02  0.45594000000E+02  0.51100000000E-03 0. -1.
    9900012    2    1    2    0    0 -0.67651790496E+01  0.41773460570E+02 -0.96350232657E+01  0.47787270411E+02  0.19999997111E+02 0.  0.
        -12    1    1    2    0    0  0.67651790496E+01 -0.41773460570E+02  0.96350232657E+01  0.43400729589E+02  0.00000000000E+00 0.  1.
         11    1    3    3    0    0  0.29337573196E+01  0.17960946493E+02 -0.48471928950E+01  0.18833422689E+02  0.51100000000E-03 0. -1.
        -11    1    3    3    0    0 -0.51499273900E+01  0.21021155924E+02  0.20734221143E+00  0.21643792171E+02  0.51100000000E-03 0.  1.
        -12    1    3    3    0    0 -0.45490089792E+01  0.27913581526E+01 -0.49951725822E+01  0.73100555507E+01  0.00000000000E+00 0.  1.
</event>
<event>
 7    1  0.4621547E-010  0.4778727E+02  0.7816164E-02  0.1312668E+00
        -11   -1    0    0    0    0  0.00000000000E+00  0.00000000000E+00  0.45593999997E+02  0.45594000000E+02  0.51100000000E-03 0.  1.
         11   -1    0    0    0    0 -0.00000000000E+00 -0.00000000000E+00 -0.45593999997E+02  0.45594000000E+02  0.51100000000E-03 0. -1.
    9900012    2    1    2    0    0 -0.39406654154E+01  0.25076555794E+02 -0.35203131374E+02  0.47787274742E+02  0.20000016858E+02 0.  0.
        -12    1    1    2    0    0  0.39406654154E+01 -0.25076555794E+02  0.35203131374E+02  0.43400725258E+02  0.00000000000E+00 0.  1.
         11    1    3    3    0    0 -0.20016208143E+01  0.52481154437E+00 -0.20855165579E+01  0.29379061618E+01  0.51100000000E-03 0. -1.
        -11    1    3    3    0    0 -0.81971745317E+01  0.12740312215E+02 -0.24936154298E+02  0.29177405935E+02  0.51100000000E-03 0.  1.
        -12    1    3    3    0    0  0.62581299306E+01  0.11811432035E+02 -0.81814605173E+01  0.15671962645E+02  0.00000000000E+00 0.  1.
</event>
<event>
 7    1  0.4621547E-010  0.4778726E+02  0.7816164E-02  0.1312668E+00
        -11   -1    0    0    0    0  0.00000000000E+00  0.00000000000E+00  0.45593999997E+02  0.45594000000E+02  0.51100000000E-03 0.  1.
         11   -1    0    0    0    0 -0.00000000000E+00 -0.00000000000E+00 -0.45593999997E+02  0.45594000000E+02  0.51100000000E-03 0. -1.
    9900012    2    1    2    0    0  0.30234900485E+02  0.28557450233E+02 -0.12407526407E+02  0.47787264030E+02  0.19999968020E+02 0.  0.
        -12    1    1    2    0    0 -0.30234900485E+02 -0.28557450233E+02  0.12407526407E+02  0.43400735970E+02  0.00000000000E+00 0.  1.
         11    1    3    3    0    0  0.58545842127E+01  0.11648381365E+02 -0.67863890418E+01  0.14697483499E+02  0.51100000000E-03 0.  1.
        -11    1    3    3    0    0  0.21029429305E+02  0.15225987943E+02 -0.95454465496E+01  0.27661944180E+02  0.51100000000E-03 0. -1.
        -12    1    3    3    0    0  0.33508869672E+01  0.16830809257E+01  0.39243091849E+01  0.54278363505E+01  0.00000000000E+00 0.  1.
</event>
<event>
 7    1  0.4621547E-010  0.4778727E+02  0.7816164E-02  0.1312668E+00
        -11   -1    0    0    0    0  0.00000000000E+00  0.00000000000E+00  0.45593999997E+02  0.45594000000E+02  0.51100000000E-03 0.  1.
         11   -1    0    0    0    0 -0.00000000000E+00 -0.00000000000E+00 -0.45593999997E+02  0.45594000000E+02  0.51100000000E-03 0. -1.
    9900012    2    1    2    0    0 -0.10222615543E+02 -0.12226020885E+02 -0.40368869519E+02  0.47787273261E+02  0.20000010108E+02 0.  0.
        -12    1    1    2    0    0  0.10222615543E+02  0.12226020885E+02  0.40368869519E+02  0.43400726739E+02  0.00000000000E+00 0.  1.
         11    1    3    3    0    0 -0.63132255284E+01  0.14287392617E+01 -0.17533023559E+02  0.18689703792E+02  0.51100000000E-03 0. -1.
        -11    1    3    3    0    0  0.30589686552E+01 -0.45482274405E+00 -0.43657004699E+01  0.53500928792E+01  0.51100000000E-03 0.  1.
        -12    1    3    3    0    0 -0.69683586696E+01 -0.13199937402E+02 -0.18470145490E+02  0.23747476590E+02  0.00000000000E+00 0.  1.
</event>
<event>
 7    1  0.4621547E-010  0.4778727E+02  0.7816164E-02  0.1312668E+00
        -11   -1    0    0    0    0  0.00000000000E+00  0.00000000000E+00  0.45593999997E+02  0.45594000000E+02  0.51100000000E-03 0.  1.
         11   -1    0    0    0    0 -0.00000000000E+00 -0.00000000000E+00 -0.45593999997E+02  0.45594000000E+02  0.51100000000E-03 0. -1.
    9900012    2    1    2    0    0 -0.75332169829E+01  0.30606772449E+02 -0.29834534453E+02  0.47787270469E+02  0.19999997374E+02 0.  0.
        -12    1    1    2    0    0  0.75332169829E+01 -0.30606772449E+02  0.29834534453E+02  0.43400729531E+02  0.00000000000E+00 0.  1.
         11    1    3    3    0    0 -0.62883093826E+01  0.19041875351E+02 -0.27002051186E+02  0.33634009875E+02  0.51100000000E-03 0. -1.
        -11    1    3    3    0    0 -0.39559122385E+01  0.41383150633E+01 -0.24813222702E+01  0.62395395400E+01  0.51100000000E-03 0.  1.
         12    1    3    3    0    0  0.27110046382E+01  0.74265820343E+01 -0.35116099651E+00  0.79137210531E+01  0.00000000000E+00 0. -1.
</event>
<event>
 7    1  0.4621547E-010  0.4778727E+02  0.7816164E-02  0.1312668E+00
        -11   -1    0    0    0    0  0.00000000000E+00  0.00000000000E+00  0.45593999997E+02  0.45594000000E+02  0.51100000000E-03 0. -1.
         11   -1    0    0    0    0 -0.00000000000E+00 -0.00000000000E+00 -0.45593999997E+02  0.45594000000E+02  0.51100000000E-03 0.  1.
    9900012    2    1    2    0    0  0.11038243977E+02 -0.31787535060E+02  0.27410452680E+02  0.47787272686E+02  0.20000007484E+02 0.  0.
        -12    1    1    2    0    0 -0.11038243977E+02  0.31787535060E+02 -0.27410452680E+02  0.43400727314E+02  0.00000000000E+00 0.  1.
         11    1    3    3    0    0  0.41119150147E+01 -0.29263921853E+02  0.19748669869E+02  0.35542860452E+02  0.51100000000E-03 0. -1.
        -11    1    3    3    0    0  0.29595496191E+01 -0.34120246298E+01  0.13093925797E+01  0.47026965893E+01  0.51100000000E-03 0.  1.
         12    1    3    3    0    0  0.39667793428E+01  0.88841142237E+00  0.63523902310E+01  0.75417156442E+01  0.00000000000E+00 0. -1.
</event>
<event>
 7    1  0.4621547E-010  0.4778727E+02  0.7816164E-02  0.1312668E+00
        -11   -1    0    0    0    0  0.00000000000E+00  0.00000000000E+00  0.45593999997E+02  0.45594000000E+02  0.51100000000E-03 0.  1.
         11   -1    0    0    0    0 -0.00000000000E+00 -0.00000000000E+00 -0.45593999997E+02  0.45594000000E+02  0.51100000000E-03 0. -1.
    9900012    2    1    2    0    0 -0.15374966899E+02 -0.32393165046E+02 -0.24452330601E+02  0.47787271658E+02  0.20000002797E+02 0.  0.
        -12    1    1    2    0    0  0.15374966899E+02  0.32393165046E+02  0.24452330601E+02  0.43400728342E+02  0.00000000000E+00 0.  1.
         11    1    3    3    0    0 -0.60076495264E+00 -0.20180047785E+02 -0.13326453862E+02  0.24190692837E+02  0.51100000000E-03 0. -1.
        -11    1    3    3    0    0 -0.22615850203E+01 -0.61118643830E+01 -0.15454960830E+01  0.66976272996E+01  0.51100000000E-03 0.  1.
        -12    1    3    3    0    0 -0.12512616926E+02 -0.61012528780E+01 -0.95803806561E+01  0.16898951522E+02  0.00000000000E+00 0.  1.
</event>
<event>
 7    1  0.4621547E-010  0.4778728E+02  0.7816164E-02  0.1312668E+00
        -11   -1    0    0    0    0  0.00000000000E+00  0.00000000000E+00  0.45593999997E+02  0.45594000000E+02  0.51100000000E-03 0.  1.
         11   -1    0    0    0    0 -0.00000000000E+00 -0.00000000000E+00 -0.45593999997E+02  0.45594000000E+02  0.51100000000E-03 0. -1.
    9900012    2    1    2    0    0 -0.27737716209E+02 -0.29926681676E+02 -0.14786320612E+02  0.47787280492E+02  0.20000043073E+02 0.  0.
        -12    1    1    2    0    0  0.27737716209E+02  0.29926681676E+02  0.14786320612E+02  0.43400719508E+02  0.00000000000E+00 0.  1.
         11    1    3    3    0    0 -0.21071167997E+02 -0.17396669389E+02 -0.11419452219E+02  0.29614896857E+02  0.51100000000E-03 0. -1.
        -11    1    3    3    0    0 -0.37853663717E+01 -0.39720758337E+01 -0.65983657781E+01  0.85816557960E+01  0.51100000000E-03 0.  1.
         12    1    3    3    0    0 -0.28811818398E+01 -0.85579364525E+01  0.32314973849E+01  0.95907278383E+01  0.00000000000E+00 0. -1.
</event>
<event>
 7    1  0.4621547E-010  0.4778727E+02  0.7816164E-02  0.1312668E+00
        -11   -1    0    0    0    0  0.00000000000E+00  0.00000000000E+00  0.45593999997E+02  0.45594000000E+02  0.51100000000E-03 0.  1.
         11   -1    0    0    0    0 -0.00000000000E+00 -0.00000000000E+00 -0.45593999997E+02  0.45594000000E+02  0.51100000000E-03 0. -1.
    9900012    2    1    2    0    0  0.34216649836E+02 -0.30660494907E+01 -0.26522517750E+02  0.47787265752E+02  0.19999975869E+02 0.  0.
        -12    1    1    2    0    0 -0.34216649836E+02  0.30660494907E+01  0.26522517750E+02  0.43400734248E+02  0.00000000000E+00 0.  1.
         11    1    3    3    0    0  0.21703862880E+02 -0.18054610806E+01 -0.15291577432E+02  0.26611082170E+02  0.51100000000E-03 0. -1.
        -11    1    3    3    0    0  0.13922620100E+02 -0.37038314387E+01 -0.11368318592E+02  0.18352013123E+02  0.51100000000E-03 0.  1.
        -12    1    3    3    0    0 -0.14098331442E+01  0.24432430287E+01  0.13737827445E+00  0.28241704591E+01  0.00000000000E+00 0.  1.
</event>
<event>
 7    1  0.4621547E-010  0.4778727E+02  0.7816164E-02  0.1312668E+00
        -11   -1    0    0    0    0  0.00000000000E+00  0.00000000000E+00  0.45593999997E+02  0.45594000000E+02  0.51100000000E-03 0.  1.
         11   -1    0    0    0    0 -0.00000000000E+00 -0.00000000000E+00 -0.45593999997E+02  0.45594000000E+02  0.51100000000E-03 0. -1.
    9900012    2    1    2    0    0 -0.33678511042E+02 -0.25656080783E+02 -0.95470718302E+01  0.47787272267E+02  0.20000005576E+02 0.  0.
        -12    1    1    2    0    0  0.33678511042E+02  0.25656080783E+02  0.95470718302E+01  0.43400727733E+02  0.00000000000E+00 0.  1.
         11    1    3    3    0    0 -0.36096845277E+01  0.32018385204E+00  0.63089265789E+00  0.36783645681E+01  0.51100000000E-03 0. -1.
        -11    1    3    3    0    0  0.12058539020E+01 -0.19946887020E-01 -0.24601088405E+01  0.27398206656E+01  0.51100000000E-03 0.  1.
         12    1    3    3    0    0 -0.31274680416E+02 -0.25956317748E+02 -0.77178556475E+01  0.41369087034E+02  0.00000000000E+00 0. -1.
</event>
<event>
 7    1  0.4621547E-010  0.4778727E+02  0.7816164E-02  0.1312668E+00
        -11   -1    0    0    0    0  0.00000000000E+00  0.00000000000E+00  0.45593999997E+02  0.45594000000E+02  0.51100000000E-03 0.  1.
         11   -1    0    0    0    0 -0.00000000000E+00 -0.00000000000E+00 -0.45593999997E+02  0.45594000000E+02  0.51100000000E-03 0. -1.
    9900012    2    1    2    0    0  0.35732772167E+02 -0.12086923327E+02 -0.21463885996E+02  0.47787272768E+02  0.20000007857E+02 0.  0.
        -12    1    1    2    0    0 -0.35732772167E+02  0.12086923327E+02  0.21463885996E+02  0.43400727232E+02  0.00000000000E+00 0.  1.
         11    1    3    3    0    0  0.12959407211E+02 -0.14510565793E+02 -0.85423556602E+01  0.21247931556E+02  0.51100000000E-03 0. -1.
        -11    1    3    3    0    0  0.16102371522E+01 -0.36538680844E+00 -0.13524679918E+00  0.16567024971E+01  0.51100000000E-03 0.  1.
        -12    1    3    3    0    0  0.21163127803E+02  0.27890292753E+01 -0.12786283537E+02  0.24882638715E+02  0.00000000000E+00 0.  1.
</event>
<event>
 7    1  0.4621547E-010  0.4778726E+02  0.7816164E-02  0.1312668E+00
        -11   -1    0    0    0    0  0.00000000000E+00  0.00000000000E+00  0.45593999997E+02  0.45594000000E+02  0.51100000000E-03 0.  1.
         11   -1    0    0    0    0 -0.00000000000E+00 -0.00000000000E+00 -0.45593999997E+02  0.45594000000E+02  0.51100000000E-03 0. -1.
    9900012    2    1    2    0    0  0.14528021590E+02 -0.26498345288E+02 -0.31151221930E+02  0.47787258738E+02  0.19999943890E+02 0.  0.
        -12    1    1    2    0    0 -0.14528021590E+02  0.26498345288E+02  0.31151221930E+02  0.43400741262E+02  0.00000000000E+00 0.  1.
         11    1    3    3    0    0  0.13978595000E+01 -0.38893304281E+01 -0.76133638140E+01  0.86628061958E+01  0.51100000000E-03 0. -1.
        -11    1    3    3    0    0  0.99346834677E+01 -0.15149931028E+02 -0.48559820034E+01  0.18756303133E+02  0.51100000000E-03 0.  1.
        -12    1    3    3    0    0  0.31954786228E+01 -0.74590838319E+01 -0.18681876113E+02  0.20368149409E+02  0.00000000000E+00 0.  1.
</event>
<event>
 7    1  0.4621547E-010  0.4778727E+02  0.7816164E-02  0.1312668E+00
        -11   -1    0    0    0    0  0.00000000000E+00  0.00000000000E+00  0.45593999997E+02  0.45594000000E+02  0.51100000000E-03 0.  1.
         11   -1    0    0    0    0 -0.00000000000E+00 -0.00000000000E+00 -0.45593999997E+02  0.45594000000E+02  0.51100000000E-03 0. -1.
    9900012    2    1    2    0    0  0.24836974494E+02 -0.15493332365E+02 -0.32042228739E+02  0.47787273366E+02  0.20000010586E+02 0.  0.
        -12    1    1    2    0    0 -0.24836974494E+02  0.15493332365E+02  0.32042228739E+02  0.43400726634E+02  0.00000000000E+00 0.  1.
         11    1    3    3    0    0  0.54759645044E+01 -0.32936907945E+01 -0.14783099559E+01  0.65589623333E+01  0.51100000000E-03 0. -1.
        -11    1    3    3    0    0  0.33397209474E+01 -0.67025424657E+01 -0.15730064261E+01  0.76519383811E+01  0.51100000000E-03 0.  1.
         12    1    3    3    0    0  0.16021289042E+02 -0.54970991044E+01 -0.28990912357E+02  0.33576372652E+02  0.00000000000E+00 0. -1.
</event>
<event>
 7    1  0.4621547E-010  0.4778727E+02  0.7816164E-02  0.1312668E+00
        -11   -1    0    0    0    0  0.00000000000E+00  0.00000000000E+00  0.45593999997E+02  0.45594000000E+02  0.51100000000E-03 0.  1.
         11   -1    0    0    0    0 -0.00000000000E+00 -0.00000000000E+00 -0.45593999997E+02  0.45594000000E+02  0.51100000000E-03 0. -1.
    9900012    2    1    2    0    0 -0.64564485434E+01  0.39245235215E+02 -0.17370924148E+02  0.47787271658E+02  0.20000002798E+02 0.  0.
        -12    1    1    2    0    0  0.64564485434E+01 -0.39245235215E+02  0.17370924148E+02  0.43400728342E+02  0.00000000000E+00 0.  1.
         11    1    3    3    0    0 -0.54626910510E+01  0.30745236457E+01 -0.37357131430E+01  0.72972078301E+01  0.51100000000E-03 0.  1.
        -11    1    3    3    0    0 -0.43676955699E+01  0.83204011646E+01 -0.23501416615E+00  0.94000570238E+01  0.51100000000E-03 0. -1.
         12    1    3    3    0    0  0.33739380775E+01  0.27850310404E+02 -0.13400196839E+02  0.31090006804E+02  0.00000000000E+00 0. -1.
</event>
<event>
 7    1  0.4621547E-010  0.4778728E+02  0.7816164E-02  0.1312668E+00
        -11   -1    0    0    0    0  0.00000000000E+00  0.00000000000E+00  0.45593999997E+02  0.45594000000E+02  0.51100000000E-03 0. -1.
         11   -1    0    0    0    0 -0.00000000000E+00 -0.00000000000E+00 -0.45593999997E+02  0.45594000000E+02  0.51100000000E-03 0.  1.
    9900012    2    1    2    0    0  0.12866916534E+02  0.34688334956E+02  0.22688869443E+02  0.47787275125E+02  0.20000018604E+02 0.  0.
        -12    1    1    2    0    0 -0.12866916534E+02 -0.34688334956E+02 -0.22688869443E+02  0.43400724875E+02  0.00000000000E+00 0.  1.
         11    1    3    3    0    0 -0.19803865519E+01  0.26945966370E+01 -0.80456426969E-02  0.33440763934E+01  0.51100000000E-03 0. -1.
        -11    1    3    3    0    0  0.43632757448E+01  0.40344421223E+01 -0.13617592339E+01  0.60966619502E+01  0.51100000000E-03 0.  1.
         12    1    3    3    0    0  0.10484027341E+02  0.27959296196E+02  0.24058674320E+02  0.38346536781E+02  0.00000000000E+00 0. -1.
</event>
<event>
 7    1  0.4621547E-010  0.4778727E+02  0.7816164E-02  0.1312668E+00
        -11   -1    0    0    0    0  0.00000000000E+00  0.00000000000E+00  0.45593999997E+02  0.45594000000E+02  0.51100000000E-03 0.  1.
         11   -1    0    0    0    0 -0.00000000000E+00 -0.00000000000E+00 -0.45593999997E+02  0.45594000000E+02  0.51100000000E-03 0. -1.
    9900012    2    1    2    0    0 -0.10031572017E+02 -0.75653335199E+01 -0.41542227116E+02  0.47787270257E+02  0.19999996411E+02 0.  0.
        -12    1    1    2    0    0  0.10031572017E+02  0.75653335199E+01  0.41542227116E+02  0.43400729743E+02  0.00000000000E+00 0.  1.
         11    1    3    3    0    0 -0.39735765064E+01 -0.12092287512E+00 -0.32394879658E+01  0.51281785398E+01  0.51100000000E-03 0. -1.
        -11    1    3    3    0    0 -0.22849555495E+01 -0.29767790558E+01  0.15837419770E+00  0.37559709873E+01  0.51100000000E-03 0.  1.
         12    1    3    3    0    0 -0.37730399615E+01 -0.44676315890E+01 -0.38461113348E+02  0.38903120730E+02  0.00000000000E+00 0. -1.
</event>
<event>
 7    1  0.4621547E-010  0.4778727E+02  0.7816164E-02  0.1312668E+00
        -11   -1    0    0    0    0  0.00000000000E+00  0.00000000000E+00  0.45593999997E+02  0.45594000000E+02  0.51100000000E-03 0.  1.
         11   -1    0    0    0    0 -0.00000000000E+00 -0.00000000000E+00 -0.45593999997E+02  0.45594000000E+02  0.51100000000E-03 0. -1.
    9900012    2    1    2    0    0 -0.10548303749E+02  0.23826023088E+02 -0.34708462633E+02  0.47787268825E+02  0.19999989880E+02 0.  0.
        -12    1    1    2    0    0  0.10548303749E+02 -0.23826023088E+02  0.34708462633E+02  0.43400731175E+02  0.00000000000E+00 0.  1.
         11    1    3    3    0    0 -0.20485653890E+01 -0.30310474910E+00 -0.17265472260E+01  0.26961932843E+01  0.51100000000E-03 0. -1.
        -11    1    3    3    0    0 -0.62453626181E+01  0.12536022929E+02 -0.52643900058E+01  0.14962293524E+02  0.51100000000E-03 0.  1.
         12    1    3    3    0    0 -0.22543757422E+01  0.11593104908E+02 -0.27717525402E+02  0.30128782016E+02  0.00000000000E+00 0. -1.
</event>
<event>
 7    1  0.4621547E-010  0.4778727E+02  0.7816164E-02  0.1312668E+00
        -11   -1    0    0    0    0  0.00000000000E+00  0.00000000000E+00  0.45593999997E+02  0.45594000000E+02  0.51100000000E-03 0.  1.
         11   -1    0    0    0    0 -0.00000000000E+00 -0.00000000000E+00 -0.45593999997E+02  0.45594000000E+02  0.51100000000E-03 0. -1.
    9900012    2    1    2    0    0  0.26978688907E+02  0.46089975319E+01 -0.33682801306E+02  0.47787267089E+02  0.19999981965E+02 0.  0.
        -12    1    1    2    0    0 -0.26978688907E+02 -0.46089975319E+01  0.33682801306E+02  0.43400732911E+02  0.00000000000E+00 0.  1.
         11    1    3    3    0    0  0.45515973154E+01  0.37685659788E+01  0.75521153001E-01  0.59097234592E+01  0.51100000000E-03 0. -1.
        -11    1    3    3    0    0  0.72688736275E+01  0.49321450009E+01 -0.15323607971E+02  0.17662829321E+02  0.51100000000E-03 0.  1.
         12    1    3    3    0    0  0.15158217965E+02 -0.40917134479E+01 -0.18434714488E+02  0.24214714309E+02  0.00000000000E+00 0. -1.
</event>
<event>
 7    1  0.4621547E-010  0.4778730E+02  0.7816164E-02  0.1312668E+00
        -11   -1    0    0    0    0  0.00000000000E+00  0.00000000000E+00  0.45593999997E+02  0.45594000000E+02  0.51100000000E-03 0.  1.
         11   -1    0    0    0    0 -0.00000000000E+00 -0.00000000000E+00 -0.45593999997E+02  0.45594000000E+02  0.51100000000E-03 0. -1.
    9900012    2    1    2    0    0 -0.72125358445E+00 -0.94450225473E+01 -0.42354367347E+02  0.47787296193E+02  0.20000114660E+02 0.  0.
        -12    1    1    2    0    0  0.72125358445E+00  0.94450225473E+01  0.42354367347E+02  0.43400703807E+02  0.00000000000E+00 0.  1.
         11    1    3    3    0    0  0.19128779063E+01 -0.12764313757E+02 -0.30224704224E+02  0.32865172345E+02  0.51100000000E-03 0. -1.
        -11    1    3    3    0    0  0.92222401447E+00 -0.11800839921E+01 -0.72163373343E+01  0.73701166981E+01  0.51100000000E-03 0.  1.
        -12    1    3    3    0    0 -0.35563555052E+01  0.44993752017E+01 -0.49133257885E+01  0.75520071497E+01  0.00000000000E+00 0.  1.
</event>
<event>
 7    1  0.4621547E-010  0.4778727E+02  0.7816164E-02  0.1312668E+00
        -11   -1    0    0    0    0  0.00000000000E+00  0.00000000000E+00  0.45593999997E+02  0.45594000000E+02  0.51100000000E-03 0.  1.
         11   -1    0    0    0    0 -0.00000000000E+00 -0.00000000000E+00 -0.45593999997E+02  0.45594000000E+02  0.51100000000E-03 0. -1.
    9900012    2    1    2    0    0 -0.37881334080E+02  0.17714750587E+02 -0.11611002146E+02  0.47787271540E+02  0.20000002258E+02 0.  0.
        -12    1    1    2    0    0  0.37881334080E+02 -0.17714750587E+02  0.11611002146E+02  0.43400728460E+02  0.00000000000E+00 0.  1.
         11    1    3    3    0    0 -0.22074357739E-01  0.17358387680E+00 -0.40754041650E+00  0.44351785957E+00  0.51100000000E-03 0. -1.
        -11    1    3    3    0    0  0.16980419578E+00 -0.80971531541E+00  0.27508406639E+01  0.28725593077E+01  0.51100000000E-03 0.  1.
         12    1    3    3    0    0 -0.38029063918E+02  0.18350882025E+02 -0.13954302394E+02  0.44471194372E+02  0.00000000000E+00 0. -1.
</event>
<event>
 7    1  0.4621547E-010  0.4778727E+02  0.7816164E-02  0.1312668E+00
        -11   -1    0    0    0    0  0.00000000000E+00  0.00000000000E+00  0.45593999997E+02  0.45594000000E+02  0.51100000000E-03 0. -1.
         11   -1    0    0    0    0 -0.00000000000E+00 -0.00000000000E+00 -0.45593999997E+02  0.45594000000E+02  0.51100000000E-03 0.  1.
    9900012    2    1    2    0    0  0.17359670812E+02 -0.15631026354E+01  0.39746978502E+02  0.47787265437E+02  0.19999974433E+02 0.  0.
        -12    1    1    2    0    0 -0.17359670812E+02  0.15631026354E+01 -0.39746978502E+02  0.43400734563E+02  0.00000000000E+00 0.  1.
         11    1    3    3    0    0  0.98103496698E+01  0.42976916171E+01  0.11276520201E+02  0.15552267422E+02  0.51100000000E-03 0.  1.
        -11    1    3    3    0    0  0.93462921789E+00  0.34839237449E+01  0.56430327393E+01  0.66973931639E+01  0.51100000000E-03 0. -1.
         12    1    3    3    0    0  0.66146919247E+01 -0.93447179974E+01  0.22827425562E+02  0.25537604851E+02  0.00000000000E+00 0. -1.
</event>
<event>
 7    1  0.4621547E-010  0.4778727E+02  0.7816164E-02  0.1312668E+00
        -11   -1    0    0    0    0  0.00000000000E+00  0.00000000000E+00  0.45593999997E+02  0.45594000000E+02  0.51100000000E-03 0.  1.
         11   -1    0    0    0    0 -0.00000000000E+00 -0.00000000000E+00 -0.45593999997E+02  0.45594000000E+02  0.51100000000E-03 0. -1.
    9900012    2    1    2    0    0 -0.15333504416E+01  0.20625295246E+02 -0.38155854171E+02  0.47787272183E+02  0.20000005190E+02 0.  0.
        -12    1    1    2    0    0  0.15333504416E+01 -0.20625295246E+02  0.38155854171E+02  0.43400727817E+02  0.00000000000E+00 0.  1.
         11    1    3    3    0    0  0.81677161963E+01  0.12794002645E+02 -0.22240714076E+02  0.26926705228E+02  0.51100000000E-03 0. -1.
        -11    1    3    3    0    0 -0.88731876781E+00  0.10903221135E+01  0.63330866730E-01  0.14071773046E+01  0.51100000000E-03 0.  1.
         12    1    3    3    0    0 -0.88137478702E+01  0.67409704875E+01 -0.15978470961E+02  0.19453389650E+02  0.00000000000E+00 0. -1.
</event>
<event>
 7    1  0.4621547E-010  0.4778727E+02  0.7816164E-02  0.1312668E+00
        -11   -1    0    0    0    0  0.00000000000E+00  0.00000000000E+00  0.45593999997E+02  0.45594000000E+02  0.51100000000E-03 0.  1.
         11   -1    0    0    0    0 -0.00000000000E+00 -0.00000000000E+00 -0.45593999997E+02  0.45594000000E+02  0.51100000000E-03 0. -1.
    9900012    2    1    2    0    0 -0.16742233265E+02  0.20636171069E+02 -0.34314273465E+02  0.47787270806E+02  0.19999998914E+02 0.  0.
        -12    1    1    2    0    0  0.16742233265E+02 -0.20636171069E+02  0.34314273465E+02  0.43400729194E+02  0.00000000000E+00 0.  1.
         11    1    3    3    0    0 -0.59642496599E-02 -0.89239896161E-01 -0.91722858603E+01  0.91727219240E+01  0.51100000000E-03 0. -1.
        -11    1    3    3    0    0 -0.41998291350E+00 -0.13233539820E+01 -0.32019062106E+01  0.34899649070E+01  0.51100000000E-03 0.  1.
         12    1    3    3    0    0 -0.16316286102E+02  0.22048764947E+02 -0.21940081395E+02  0.35124583975E+02  0.00000000000E+00 0. -1.
</event>
<event>
 7    1  0.4621547E-010  0.4778727E+02  0.7816164E-02  0.1312668E+00
        -11   -1    0    0    0    0  0.00000000000E+00  0.00000000000E+00  0.45593999997E+02  0.45594000000E+02  0.51100000000E-03 0.  1.
         11   -1    0    0    0    0 -0.00000000000E+00 -0.00000000000E+00 -0.45593999997E+02  0.45594000000E+02  0.51100000000E-03 0. -1.
    9900012    2    1    2    0    0  0.39287350822E+01 -0.36091484399E+02 -0.23782198417E+02  0.47787272275E+02  0.20000005611E+02 0.  0.
        -12    1    1    2    0    0 -0.39287350822E+01  0.36091484399E+02  0.23782198417E+02  0.43400727725E+02  0.00000000000E+00 0.  1.
         11    1    3    3    0    0  0.42820348144E+01 -0.71164729396E+01 -0.65518809221E+01  0.10578617733E+02  0.51100000000E-03 0. -1.
        -11    1    3    3    0    0 -0.41208116689E+01 -0.10447277583E+02 -0.14129624739E+02  0.18049182620E+02  0.51100000000E-03 0.  1.
         12    1    3    3    0    0  0.37675119367E+01 -0.18527733876E+02 -0.31006927562E+01  0.19159471923E+02  0.00000000000E+00 0. -1.
</event>
<event>
 7    1  0.4621547E-010  0.4778727E+02  0.7816164E-02  0.1312668E+00
        -11   -1    0    0    0    0  0.00000000000E+00  0.00000000000E+00  0.45593999997E+02  0.45594000000E+02  0.51100000000E-03 0.  1.
         11   -1    0    0    0    0 -0.00000000000E+00 -0.00000000000E+00 -0.45593999997E+02  0.45594000000E+02  0.51100000000E-03 0. -1.
    9900012    2    1    2    0    0 -0.17056019995E+02  0.32779876654E+02 -0.22763896787E+02  0.47787272720E+02  0.20000007638E+02 0.  0.
        -12    1    1    2    0    0  0.17056019995E+02 -0.32779876654E+02  0.22763896787E+02  0.43400727280E+02  0.00000000000E+00 0.  1.
         11    1    3    3    0    0 -0.51115722372E+01  0.14615564463E+02 -0.38732684923E+01  0.15960736336E+02  0.51100000000E-03 0. -1.
        -11    1    3    3    0    0 -0.77520537547E+01  0.12007666277E+02 -0.34798924832E+01  0.14710133881E+02  0.51100000000E-03 0.  1.
         12    1    3    3    0    0 -0.41923940033E+01  0.61566459137E+01 -0.15410735811E+02  0.17116402503E+02  0.00000000000E+00 0. -1.
</event>
<event>
 7    1  0.4621547E-010  0.4778727E+02  0.7816164E-02  0.1312668E+00
        -11   -1    0    0    0    0  0.00000000000E+00  0.00000000000E+00  0.45593999997E+02  0.45594000000E+02  0.51100000000E-03 0.  1.
         11   -1    0    0    0    0 -0.00000000000E+00 -0.00000000000E+00 -0.45593999997E+02  0.45594000000E+02  0.51100000000E-03 0. -1.
    9900012    2    1    2    0    0  0.27783202887E+02  0.21239109814E+02  0.25702478615E+02  0.47787267802E+02  0.19999985217E+02 0.  0.
        -12    1    1    2    0    0 -0.27783202887E+02 -0.21239109814E+02 -0.25702478615E+02  0.43400732198E+02  0.00000000000E+00 0.  1.
         11    1    3    3    0    0  0.83463134630E+01  0.77225728150E+01  0.63347957188E+01  0.13016478647E+02  0.51100000000E-03 0. -1.
        -11    1    3    3    0    0  0.78762674624E+00  0.25167237416E+01 -0.27565465366E+01  0.38148136721E+01  0.51100000000E-03 0.  1.
        -12    1    3    3    0    0  0.18649262678E+02  0.10999813257E+02  0.22124229433E+02  0.30955975483E+02  0.00000000000E+00 0.  1.
</event>
<event>
 7    1  0.4621547E-010  0.4778727E+02  0.7816164E-02  0.1312668E+00
        -11   -1    0    0    0    0  0.00000000000E+00  0.00000000000E+00  0.45593999997E+02  0.45594000000E+02  0.51100000000E-03 0.  1.
         11   -1    0    0    0    0 -0.00000000000E+00 -0.00000000000E+00 -0.45593999997E+02  0.45594000000E+02  0.51100000000E-03 0. -1.
    9900012    2    1    2    0    0  0.21016195549E+02 -0.31975612967E+02 -0.20481775217E+02  0.47787269407E+02  0.19999992534E+02 0.  0.
        -12    1    1    2    0    0 -0.21016195549E+02  0.31975612967E+02  0.20481775217E+02  0.43400730593E+02  0.00000000000E+00 0.  1.
         11    1    3    3    0    0  0.58280894856E+01 -0.73186544900E+01 -0.72052330294E+01  0.11808671130E+02  0.51100000000E-03 0. -1.
        -11    1    3    3    0    0  0.27534789267E+01 -0.10648988975E+02 -0.13285465353E+02  0.17247788331E+02  0.51100000000E-03 0.  1.
         12    1    3    3    0    0  0.12434627137E+02 -0.14007969502E+02  0.89231661593E-02  0.18730809946E+02  0.00000000000E+00 0. -1.
</event>
<event>
 7    1  0.4621547E-010  0.4778727E+02  0.7816164E-02  0.1312668E+00
        -11   -1    0    0    0    0  0.00000000000E+00  0.00000000000E+00  0.45593999997E+02  0.45594000000E+02  0.51100000000E-03 0.  1.
         11   -1    0    0    0    0 -0.00000000000E+00 -0.00000000000E+00 -0.45593999997E+02  0.45594000000E+02  0.51100000000E-03 0. -1.
    9900012    2    1    2    0    0 -0.28400713797E+02 -0.11167995799E+02 -0.30859338775E+02  0.47787268855E+02  0.19999990016E+02 0.  0.
        -12    1    1    2    0    0  0.28400713797E+02  0.11167995799E+02  0.30859338775E+02  0.43400731145E+02  0.00000000000E+00 0.  1.
         11    1    3    3    0    0 -0.32402194426E+01 -0.21802245028E+01 -0.45242592474E+01  0.59767317923E+01  0.51100000000E-03 0. -1.
        -11    1    3    3    0    0 -0.11360544632E+02 -0.13732162653E+02 -0.15731583324E+02  0.23772189205E+02  0.51100000000E-03 0.  1.
         12    1    3    3    0    0 -0.13799949722E+02  0.47443913569E+01 -0.10603496203E+02  0.18038347857E+02  0.00000000000E+00 0. -1.
</event>
<event>
 7    1  0.4621547E-010  0.4778727E+02  0.7816164E-02  0.1312668E+00
        -11   -1    0    0    0    0  0.00000000000E+00  0.00000000000E+00  0.45593999997E+02  0.45594000000E+02  0.51100000000E-03 0. -1.
         11   -1    0    0    0    0 -0.00000000000E+00 -0.00000000000E+00 -0.45593999997E+02  0.45594000000E+02  0.51100000000E-03 0.  1.
    9900012    2    1    2    0    0 -0.10910013794E+02  0.39362181407E+02 -0.14670157459E+02  0.47787271366E+02  0.20000001464E+02 0.  0.
        -12    1    1    2    0    0  0.10910013794E+02 -0.39362181407E+02  0.14670157459E+02  0.43400728634E+02  0.00000000000E+00 0.  1.
         11    1    3    3    0    0 -0.46979891794E+01  0.75198213530E+01  0.33068115877E+01  0.94632879408E+01  0.51100000000E-03 0. -1.
        -11    1    3    3    0    0 -0.71445665121E+01  0.12032659594E+02 -0.67820783181E+01  0.15550765708E+02  0.51100000000E-03 0.  1.
        -12    1    3    3    0    0  0.93254189737E+00  0.19809700461E+02 -0.11194890729E+02  0.22773217716E+02  0.00000000000E+00 0.  1.
</event>
<event>
 7    1  0.4621547E-010  0.4778728E+02  0.7816164E-02  0.1312668E+00
        -11   -1    0    0    0    0  0.00000000000E+00  0.00000000000E+00  0.45593999997E+02  0.45594000000E+02  0.51100000000E-03 0.  1.
         11   -1    0    0    0    0 -0.00000000000E+00 -0.00000000000E+00 -0.45593999997E+02  0.45594000000E+02  0.51100000000E-03 0. -1.
    9900012    2    1    2    0    0  0.41655626532E+02  0.12141170641E+02  0.10114835033E+01  0.47787281743E+02  0.20000048780E+02 0.  0.
        -12    1    1    2    0    0 -0.41655626532E+02 -0.12141170641E+02 -0.10114835033E+01  0.43400718257E+02  0.00000000000E+00 0.  1.
         11    1    3    3    0    0  0.25787891831E+02  0.66847687093E+01 -0.33887112687E+01  0.26854885256E+02  0.51100000000E-03 0. -1.
        -11    1    3    3    0    0  0.14254563566E+02 -0.23344505092E+00  0.46985202006E+01  0.15010768514E+02  0.51100000000E-03 0.  1.
         12    1    3    3    0    0  0.16131711360E+01  0.56898469826E+01 -0.29832542865E+00  0.59216279739E+01  0.00000000000E+00 0. -1.
</event>
<event>
 7    1  0.4621547E-010  0.4778727E+02  0.7816164E-02  0.1312668E+00
        -11   -1    0    0    0    0  0.00000000000E+00  0.00000000000E+00  0.45593999997E+02  0.45594000000E+02  0.51100000000E-03 0. -1.
         11   -1    0    0    0    0 -0.00000000000E+00 -0.00000000000E+00 -0.45593999997E+02  0.45594000000E+02  0.51100000000E-03 0.  1.
    9900012    2    1    2    0    0 -0.14317580794E+01 -0.34805184832E+02  0.25887688994E+02  0.47787271160E+02  0.20000000525E+02 0.  0.
        -12    1    1    2    0    0  0.14317580794E+01  0.34805184832E+02 -0.25887688994E+02  0.43400728840E+02  0.00000000000E+00 0.  1.
         11    1    3    3    0    0 -0.68637633245E+01 -0.35729967698E+01  0.61006614551E+01  0.98537111457E+01  0.51100000000E-03 0. -1.
        -11    1    3    3    0    0 -0.16509134532E+00 -0.37906342236E+01  0.28296898861E+00  0.38047647337E+01  0.51100000000E-03 0.  1.
         12    1    3    3    0    0  0.55970965904E+01 -0.27441553839E+02  0.19504058551E+02  0.34128795280E+02  0.00000000000E+00 0. -1.
</event>
<event>
 7    1  0.4621547E-010  0.4778727E+02  0.7816164E-02  0.1312668E+00
        -11   -1    0    0    0    0  0.00000000000E+00  0.00000000000E+00  0.45593999997E+02  0.45594000000E+02  0.51100000000E-03 0.  1.
         11   -1    0    0    0    0 -0.00000000000E+00 -0.00000000000E+00 -0.45593999997E+02  0.45594000000E+02  0.51100000000E-03 0. -1.
    9900012    2    1    2    0    0 -0.18301484386E+02 -0.23329588228E+01 -0.39284044583E+02  0.47787272052E+02  0.20000004596E+02 0.  0.
        -12    1    1    2    0    0  0.18301484386E+02  0.23329588228E+01  0.39284044583E+02  0.43400727948E+02  0.00000000000E+00 0.  1.
         11    1    3    3    0    0 -0.26139264088E+01  0.62855358830E+01 -0.15439735787E+02  0.16873826301E+02  0.51100000000E-03 0. -1.
        -11    1    3    3    0    0 -0.26738331651E+01 -0.29311396708E+01 -0.11258066164E+02  0.11936708825E+02  0.51100000000E-03 0.  1.
        -12    1    3    3    0    0 -0.13013724812E+02 -0.56873550349E+01 -0.12586242632E+02  0.18976736926E+02  0.00000000000E+00 0.  1.
</event>
<event>
 7    1  0.4621547E-010  0.4778727E+02  0.7816164E-02  0.1312668E+00
        -11   -1    0    0    0    0  0.00000000000E+00  0.00000000000E+00  0.45593999997E+02  0.45594000000E+02  0.51100000000E-03 0.  1.
         11   -1    0    0    0    0 -0.00000000000E+00 -0.00000000000E+00 -0.45593999997E+02  0.45594000000E+02  0.51100000000E-03 0. -1.
    9900012    2    1    2    0    0 -0.11225780491E+02 -0.35450767121E+02 -0.22379639061E+02  0.47787270956E+02  0.19999999595E+02 0.  0.
        -12    1    1    2    0    0  0.11225780491E+02  0.35450767121E+02  0.22379639061E+02  0.43400729044E+02  0.00000000000E+00 0.  1.
         11    1    3    3    0    0 -0.26857038655E+01 -0.11393569432E+02 -0.31693501578E+01  0.12127291962E+02  0.51100000000E-03 0. -1.
        -11    1    3    3    0    0 -0.58036867750E+01 -0.68847652074E+01  0.92883437946E+00  0.90523756942E+01  0.51100000000E-03 0.  1.
         12    1    3    3    0    0 -0.27363898503E+01 -0.17172432481E+02 -0.20139123282E+02  0.26607603299E+02  0.00000000000E+00 0. -1.
</event>
<event>
 7    1  0.4621547E-010  0.4778727E+02  0.7816164E-02  0.1312668E+00
        -11   -1    0    0    0    0  0.00000000000E+00  0.00000000000E+00  0.45593999997E+02  0.45594000000E+02  0.51100000000E-03 0.  1.
         11   -1    0    0    0    0 -0.00000000000E+00 -0.00000000000E+00 -0.45593999997E+02  0.45594000000E+02  0.51100000000E-03 0. -1.
    9900012    2    1    2    0    0 -0.32330583485E+02  0.28540506662E+02 -0.48781117466E+01  0.47787272780E+02  0.20000007913E+02 0.  0.
        -12    1    1    2    0    0  0.32330583485E+02 -0.28540506662E+02  0.48781117466E+01  0.43400727220E+02  0.00000000000E+00 0.  1.
         11    1    3    3    0    0 -0.89192166734E+01  0.12331849990E+02 -0.26026536889E+01  0.15440231757E+02  0.51100000000E-03 0. -1.
        -11    1    3    3    0    0 -0.89596735819E+01  0.49606415455E+01 -0.81783911163E+01  0.13106097693E+02  0.51100000000E-03 0.  1.
         12    1    3    3    0    0 -0.14451693230E+02  0.11248015127E+02  0.59029330587E+01  0.19240943329E+02  0.00000000000E+00 0. -1.
</event>
<event>
 7    1  0.4621547E-010  0.4778726E+02  0.7816164E-02  0.1312668E+00
        -11   -1    0    0    0    0  0.00000000000E+00  0.00000000000E+00  0.45593999997E+02  0.45594000000E+02  0.51100000000E-03 0.  1.
         11   -1    0    0    0    0 -0.00000000000E+00 -0.00000000000E+00 -0.45593999997E+02  0.45594000000E+02  0.51100000000E-03 0. -1.
    9900012    2    1    2    0    0 -0.16146623102E+02 -0.20278549264E+02 -0.34809349601E+02  0.47787264781E+02  0.19999971445E+02 0.  0.
        -12    1    1    2    0    0  0.16146623102E+02  0.20278549264E+02  0.34809349601E+02  0.43400735219E+02  0.00000000000E+00 0.  1.
         11    1    3    3    0    0 -0.63419696461E+01 -0.32360042876E+01 -0.83215190102E+01  0.10951711357E+02  0.51100000000E-03 0. -1.
        -11    1    3    3    0    0 -0.14641265148E+01 -0.26115778038E+01  0.21599066627E+01  0.36917749294E+01  0.51100000000E-03 0.  1.
         12    1    3    3    0    0 -0.83405269409E+01 -0.14430967172E+02 -0.28647737254E+02  0.33143778495E+02  0.00000000000E+00 0. -1.
</event>
<event>
 7    1  0.4621547E-010  0.4778727E+02  0.7816164E-02  0.1312668E+00
        -11   -1    0    0    0    0  0.00000000000E+00  0.00000000000E+00  0.45593999997E+02  0.45594000000E+02  0.51100000000E-03 0.  1.
         11   -1    0    0    0    0 -0.00000000000E+00 -0.00000000000E+00 -0.45593999997E+02  0.45594000000E+02  0.51100000000E-03 0. -1.
    9900012    2    1    2    0    0  0.11090585953E+02 -0.16195551042E+02 -0.38708218637E+02  0.47787272352E+02  0.20000005962E+02 0.  0.
        -12    1    1    2    0    0 -0.11090585953E+02  0.16195551042E+02  0.38708218637E+02  0.43400727648E+02  0.00000000000E+00 0.  1.
         11    1    3    3    0    0 -0.36047489685E+01 -0.30645528974E+01 -0.82075113551E+01  0.94735918475E+01  0.51100000000E-03 0. -1.
        -11    1    3    3    0    0 -0.29455678499E+00 -0.35343410047E+01 -0.71908715853E+00  0.36187589916E+01  0.51100000000E-03 0.  1.
         12    1    3    3    0    0  0.14989891707E+02 -0.95966571401E+01 -0.29781620123E+02  0.34694921513E+02  0.00000000000E+00 0. -1.
</event>
<event>
 7    1  0.4621547E-010  0.4778728E+02  0.7816164E-02  0.1312668E+00
        -11   -1    0    0    0    0  0.00000000000E+00  0.00000000000E+00  0.45593999997E+02  0.45594000000E+02  0.51100000000E-03 0.  1.
         11   -1    0    0    0    0 -0.00000000000E+00 -0.00000000000E+00 -0.45593999997E+02  0.45594000000E+02  0.51100000000E-03 0. -1.
    9900012    2    1    2    0    0 -0.85144937606E+01 -0.38672098586E+02  0.17764995835E+02  0.47787275466E+02  0.20000020159E+02 0.  0.
        -12    1    1    2    0    0  0.85144937606E+01  0.38672098586E+02 -0.17764995835E+02  0.43400724534E+02  0.00000000000E+00 0.  1.
         11    1    3    3    0    0 -0.11480837561E+01 -0.65484372897E+00  0.20169503471E+01  0.24114322683E+01  0.51100000000E-03 0.  1.
        -11    1    3    3    0    0 -0.45819173640E+01 -0.69402544554E+01 -0.31552769935E+01  0.88947665401E+01  0.51100000000E-03 0. -1.
         12    1    3    3    0    0 -0.27844926405E+01 -0.31077000402E+02  0.18903322481E+02  0.36481076657E+02  0.00000000000E+00 0. -1.
</event>
<event>
 7    1  0.4621547E-010  0.4778727E+02  0.7816164E-02  0.1312668E+00
        -11   -1    0    0    0    0  0.00000000000E+00  0.00000000000E+00  0.45593999997E+02  0.45594000000E+02  0.51100000000E-03 0.  1.
         11   -1    0    0    0    0 -0.00000000000E+00 -0.00000000000E+00 -0.45593999997E+02  0.45594000000E+02  0.51100000000E-03 0. -1.
    9900012    2    1    2    0    0 -0.25389966601E+01  0.20882606140E+02 -0.37961738469E+02  0.47787270388E+02  0.19999997007E+02 0.  0.
        -12    1    1    2    0    0  0.25389966601E+01 -0.20882606140E+02  0.37961738469E+02  0.43400729612E+02  0.00000000000E+00 0.  1.
         11    1    3    3    0    0  0.27600925859E+00  0.11768158217E+02 -0.80091896554E+01  0.14237726227E+02  0.51100000000E-03 0. -1.
        -11    1    3    3    0    0  0.11070621981E+01  0.45377212854E+01 -0.22236227413E+01  0.51731034719E+01  0.51100000000E-03 0.  1.
         12    1    3    3    0    0 -0.39220681168E+01  0.45767266382E+01 -0.27728926072E+02  0.28376440689E+02  0.00000000000E+00 0. -1.
</event>
<event>
 7    1  0.4621547E-010  0.4778728E+02  0.7816164E-02  0.1312668E+00
        -11   -1    0    0    0    0  0.00000000000E+00  0.00000000000E+00  0.45593999997E+02  0.45594000000E+02  0.51100000000E-03 0.  1.
         11   -1    0    0    0    0 -0.00000000000E+00 -0.00000000000E+00 -0.45593999997E+02  0.45594000000E+02  0.51100000000E-03 0. -1.
    9900012    2    1    2    0    0  0.12307443951E+02 -0.30373981074E+02 -0.28452960111E+02  0.47787276021E+02  0.20000022688E+02 0.  0.
        -12    1    1    2    0    0 -0.12307443951E+02  0.30373981074E+02  0.28452960111E+02  0.43400723979E+02  0.00000000000E+00 0.  1.
         11    1    3    3    0    0 -0.30273942504E+01 -0.15705567946E+02 -0.11943811598E+02  0.19962079456E+02  0.51100000000E-03 0. -1.
        -11    1    3    3    0    0  0.54819389467E+01 -0.10189822266E+02 -0.88117155613E+01  0.14544086902E+02  0.51100000000E-03 0.  1.
        -12    1    3    3    0    0  0.98528992544E+01 -0.44785908620E+01 -0.76974329517E+01  0.13281109663E+02  0.00000000000E+00 0.  1.
</event>
<event>
 7    1  0.4621547E-010  0.4778727E+02  0.7816164E-02  0.1312668E+00
        -11   -1    0    0    0    0  0.00000000000E+00  0.00000000000E+00  0.45593999997E+02  0.45594000000E+02  0.51100000000E-03 0.  1.
         11   -1    0    0    0    0 -0.00000000000E+00 -0.00000000000E+00 -0.45593999997E+02  0.45594000000E+02  0.51100000000E-03 0. -1.
    9900012    2    1    2    0    0 -0.13255512491E+02  0.23344560632E+02 -0.34101996623E+02  0.47787270788E+02  0.19999998829E+02 0.  0.
        -12    1    1    2    0    0  0.13255512491E+02 -0.23344560632E+02  0.34101996623E+02  0.43400729212E+02  0.00000000000E+00 0.  1.
         11    1    3    3    0    0 -0.80493197133E+01  0.75639061051E+01 -0.52195760311E+01  0.12216717956E+02  0.51100000000E-03 0. -1.
        -11    1    3    3    0    0  0.58709750272E+00  0.17086503455E+01  0.97912092887E+00  0.20549568208E+01  0.51100000000E-03 0.  1.
         12    1    3    3    0    0 -0.57932902803E+01  0.14072004182E+02 -0.29861541520E+02  0.33515596011E+02  0.00000000000E+00 0. -1.
</event>
<event>
 7    1  0.4621547E-010  0.4778727E+02  0.7816164E-02  0.1312668E+00
        -11   -1    0    0    0    0  0.00000000000E+00  0.00000000000E+00  0.45593999997E+02  0.45594000000E+02  0.51100000000E-03 0.  1.
         11   -1    0    0    0    0 -0.00000000000E+00 -0.00000000000E+00 -0.45593999997E+02  0.45594000000E+02  0.51100000000E-03 0. -1.
    9900012    2    1    2    0    0  0.42219059776E+02 -0.27622133153E+01 -0.96718414388E+01  0.47787270195E+02  0.19999996127E+02 0.  0.
        -12    1    1    2    0    0 -0.42219059776E+02  0.27622133153E+01  0.96718414388E+01  0.43400729805E+02  0.00000000000E+00 0.  1.
         11    1    3    3    0    0  0.11374304231E+02 -0.66145843813E+01 -0.72754558653E+01  0.15035284553E+02  0.51100000000E-03 0. -1.
        -11    1    3    3    0    0  0.49237352400E+00 -0.98921369448E+00  0.13986606414E+01  0.17824778460E+01  0.51100000000E-03 0.  1.
        -12    1    3    3    0    0  0.30352382021E+02  0.48415847604E+01 -0.37950462149E+01  0.30969507796E+02  0.00000000000E+00 0.  1.
</event>
<event>
 7    1  0.4621547E-010  0.4778729E+02  0.7816164E-02  0.1312668E+00
        -11   -1    0    0    0    0  0.00000000000E+00  0.00000000000E+00  0.45593999997E+02  0.45594000000E+02  0.51100000000E-03 0.  1.
         11   -1    0    0    0    0 -0.00000000000E+00 -0.00000000000E+00 -0.45593999997E+02  0.45594000000E+02  0.51100000000E-03 0. -1.
    9900012    2    1    2    0    0 -0.19559592742E+02  0.27676497065E+02 -0.27111903012E+02  0.47787292138E+02  0.20000096174E+02 0.  0.
        -12    1    1    2    0    0  0.19559592742E+02 -0.27676497065E+02  0.27111903012E+02  0.43400707862E+02  0.00000000000E+00 0.  1.
         11    1    3    3    0    0 -0.13673527994E+02  0.20049397641E+02 -0.19123616884E+02  0.30897515055E+02  0.51100000000E-03 0. -1.
        -11    1    3    3    0    0 -0.87136558248E+01  0.31961157098E+01 -0.67865448046E+01  0.11497832148E+02  0.51100000000E-03 0.  1.
        -12    1    3    3    0    0  0.28275910772E+01  0.44309837143E+01 -0.12017413228E+01  0.53919449351E+01  0.00000000000E+00 0.  1.
</event>
<event>
 7    1  0.4621547E-010  0.4778728E+02  0.7816164E-02  0.1312668E+00
        -11   -1    0    0    0    0  0.00000000000E+00  0.00000000000E+00  0.45593999997E+02  0.45594000000E+02  0.51100000000E-03 0. -1.
         11   -1    0    0    0    0 -0.00000000000E+00 -0.00000000000E+00 -0.45593999997E+02  0.45594000000E+02  0.51100000000E-03 0.  1.
    9900012    2    1    2    0    0 -0.23146448085E+02  0.31685332174E+02  0.18544659629E+02  0.47787277256E+02  0.20000028321E+02 0.  0.
        -12    1    1    2    0    0  0.23146448085E+02 -0.31685332174E+02 -0.18544659629E+02  0.43400722744E+02  0.00000000000E+00 0.  1.
         11    1    3    3    0    0 -0.17936637472E+02  0.17231365484E+02  0.16111175056E+02  0.29634656776E+02  0.51100000000E-03 0. -1.
        -11    1    3    3    0    0 -0.15056988760E+01  0.75223310473E+01  0.57853109033E+01  0.96084554430E+01  0.51100000000E-03 0.  1.
        -12    1    3    3    0    0 -0.37041117368E+01  0.69316356425E+01 -0.33518263299E+01  0.85441650374E+01  0.00000000000E+00 0.  1.
</event>
<event>
 7    1  0.4621547E-010  0.4778727E+02  0.7816164E-02  0.1312668E+00
        -11   -1    0    0    0    0  0.00000000000E+00  0.00000000000E+00  0.45593999997E+02  0.45594000000E+02  0.51100000000E-03 0.  1.
         11   -1    0    0    0    0 -0.00000000000E+00 -0.00000000000E+00 -0.45593999997E+02  0.45594000000E+02  0.51100000000E-03 0. -1.
    9900012    2    1    2    0    0  0.41028531389E+02  0.12843536168E+02  0.59436081376E+01  0.47787270894E+02  0.19999999315E+02 0.  0.
        -12    1    1    2    0    0 -0.41028531389E+02 -0.12843536168E+02 -0.59436081376E+01  0.43400729106E+02  0.00000000000E+00 0.  1.
         11    1    3    3    0    0  0.15699404765E+02  0.85598173014E+01  0.63568789915E+01  0.18977663001E+02  0.51100000000E-03 0. -1.
        -11    1    3    3    0    0  0.45557807583E+01  0.49806574220E+00  0.52291923384E+01  0.69532482031E+01  0.51100000000E-03 0.  1.
        -12    1    3    3    0    0  0.20773345866E+02  0.37856531245E+01 -0.56424631924E+01  0.21856359690E+02  0.00000000000E+00 0.  1.
</event>
<event>
 7    1  0.4621547E-010  0.4778727E+02  0.7816164E-02  0.1312668E+00
        -11   -1    0    0    0    0  0.00000000000E+00  0.00000000000E+00  0.45593999997E+02  0.45594000000E+02  0.51100000000E-03 0.  1.
         11   -1    0    0    0    0 -0.00000000000E+00 -0.00000000000E+00 -0.45593999997E+02  0.45594000000E+02  0.51100000000E-03 0. -1.
    9900012    2    1    2    0    0 -0.29747017191E+02 -0.26154485194E+02 -0.17739247317E+02  0.47787273936E+02  0.20000013184E+02 0.  0.
        -12    1    1    2    0    0  0.29747017191E+02  0.26154485194E+02  0.17739247317E+02  0.43400726064E+02  0.00000000000E+00 0.  1.
         11    1    3    3    0    0 -0.80430299184E+01 -0.58640461862E+01  0.23462920699E+01  0.10226556345E+02  0.51100000000E-03 0. -1.
        -11    1    3    3    0    0  0.71838606157E+00 -0.38980952342E+01 -0.25409820187E+01  0.47082709001E+01  0.51100000000E-03 0.  1.
         12    1    3    3    0    0 -0.22422373334E+02 -0.16392343773E+02 -0.17544557369E+02  0.32852446691E+02  0.00000000000E+00 0. -1.
</event>
<event>
 7    1  0.4621547E-010  0.4778727E+02  0.7816164E-02  0.1312668E+00
        -11   -1    0    0    0    0  0.00000000000E+00  0.00000000000E+00  0.45593999997E+02  0.45594000000E+02  0.51100000000E-03 0.  1.
         11   -1    0    0    0    0 -0.00000000000E+00 -0.00000000000E+00 -0.45593999997E+02  0.45594000000E+02  0.51100000000E-03 0. -1.
    9900012    2    1    2    0    0  0.16622782773E+02 -0.21132063918E+02 -0.34069664601E+02  0.47787273294E+02  0.20000010257E+02 0.  0.
        -12    1    1    2    0    0 -0.16622782773E+02  0.21132063918E+02  0.34069664601E+02  0.43400726706E+02  0.00000000000E+00 0.  1.
         11    1    3    3    0    0  0.29106169701E+01 -0.59304613082E+01 -0.76373406962E+01  0.10098070887E+02  0.51100000000E-03 0. -1.
        -11    1    3    3    0    0 -0.25589865236E+01 -0.20680411952E+00 -0.94615956045E+01  0.98037223347E+01  0.51100000000E-03 0.  1.
        -12    1    3    3    0    0  0.16271152327E+02 -0.14994798490E+02 -0.16970728301E+02  0.27885480072E+02  0.00000000000E+00 0.  1.
</event>
<event>
 7    1  0.4621547E-010  0.4778726E+02  0.7816164E-02  0.1312668E+00
        -11   -1    0    0    0    0  0.00000000000E+00  0.00000000000E+00  0.45593999997E+02  0.45594000000E+02  0.51100000000E-03 0.  1.
         11   -1    0    0    0    0 -0.00000000000E+00 -0.00000000000E+00 -0.45593999997E+02  0.45594000000E+02  0.51100000000E-03 0. -1.
    9900012    2    1    2    0    0 -0.37153383593E+02  0.20464755299E+02  0.91893257203E+01  0.47787264648E+02  0.19999970837E+02 0.  0.
        -12    1    1    2    0    0  0.37153383593E+02 -0.20464755299E+02 -0.91893257203E+01  0.43400735352E+02  0.00000000000E+00 0.  1.
         11    1    3    3    0    0 -0.32994546268E+02  0.14723284981E+02  0.24093845466E+01  0.36210776548E+02  0.51100000000E-03 0. -1.
        -11    1    3    3    0    0 -0.45903760825E+01  0.24536954251E+01  0.16354363019E+01  0.54558982741E+01  0.51100000000E-03 0.  1.
        -12    1    3    3    0    0  0.43153875683E+00  0.32877748934E+01  0.51445048718E+01  0.61205898265E+01  0.00000000000E+00 0.  1.
</event>
<event>
 7    1  0.4621547E-010  0.4778727E+02  0.7816164E-02  0.1312668E+00
        -11   -1    0    0    0    0  0.00000000000E+00  0.00000000000E+00  0.45593999997E+02  0.45594000000E+02  0.51100000000E-03 0.  1.
         11   -1    0    0    0    0 -0.00000000000E+00 -0.00000000000E+00 -0.45593999997E+02  0.45594000000E+02  0.51100000000E-03 0. -1.
    9900012    2    1    2    0    0 -0.31519732135E+02 -0.29773683222E+02  0.19124675653E+01  0.47787271220E+02  0.20000000800E+02 0.  0.
        -12    1    1    2    0    0  0.31519732135E+02  0.29773683222E+02 -0.19124675653E+01  0.43400728780E+02  0.00000000000E+00 0.  1.
         11    1    3    3    0    0 -0.13835674844E+02 -0.13119009989E+02 -0.10811564373E+01  0.19097204533E+02  0.51100000000E-03 0. -1.
        -11    1    3    3    0    0 -0.10019993143E+02 -0.16576996825E+02 -0.21058949559E+01  0.19484144327E+02  0.51100000000E-03 0.  1.
        -12    1    3    3    0    0 -0.76640641483E+01 -0.77676407839E-01  0.50995189586E+01  0.92059223602E+01  0.00000000000E+00 0.  1.
</event>
<event>
 7    1  0.4621547E-010  0.4778727E+02  0.7816164E-02  0.1312668E+00
        -11   -1    0    0    0    0  0.00000000000E+00  0.00000000000E+00  0.45593999997E+02  0.45594000000E+02  0.51100000000E-03 0.  1.
         11   -1    0    0    0    0 -0.00000000000E+00 -0.00000000000E+00 -0.45593999997E+02  0.45594000000E+02  0.51100000000E-03 0. -1.
    9900012    2    1    2    0    0 -0.10120804068E+02 -0.21999079782E+02 -0.36017119582E+02  0.47787273172E+02  0.20000009699E+02 0.  0.
        -12    1    1    2    0    0  0.10120804068E+02  0.21999079782E+02  0.36017119582E+02  0.43400726828E+02  0.00000000000E+00 0.  1.
         11    1    3    3    0    0  0.21765423519E+01 -0.44937017960E+01 -0.11776237651E+02  0.12791030682E+02  0.51100000000E-03 0.  1.
        -11    1    3    3    0    0 -0.10224138902E+02 -0.66575859237E+01 -0.58186334467E+01  0.13517135868E+02  0.51100000000E-03 0. -1.
         12    1    3    3    0    0 -0.20732075181E+01 -0.10847792062E+02 -0.18422248484E+02  0.21479106621E+02  0.00000000000E+00 0. -1.
</event>
<event>
 7    1  0.4621547E-010  0.4778727E+02  0.7816164E-02  0.1312668E+00
        -11   -1    0    0    0    0  0.00000000000E+00  0.00000000000E+00  0.45593999997E+02  0.45594000000E+02  0.51100000000E-03 0.  1.
         11   -1    0    0    0    0 -0.00000000000E+00 -0.00000000000E+00 -0.45593999997E+02  0.45594000000E+02  0.51100000000E-03 0. -1.
    9900012    2    1    2    0    0 -0.23853732949E+02  0.15018594800E+02 -0.33000975162E+02  0.47787272736E+02  0.20000007714E+02 0.  0.
        -12    1    1    2    0    0  0.23853732949E+02 -0.15018594800E+02  0.33000975162E+02  0.43400727264E+02  0.00000000000E+00 0.  1.
         11    1    3    3    0    0 -0.20399883979E+02  0.11778544299E+02 -0.13633700259E+02  0.27217037957E+02  0.51100000000E-03 0. -1.
        -11    1    3    3    0    0 -0.95382510895E-01  0.18109981858E+01 -0.15581531576E+01  0.23909524830E+01  0.51100000000E-03 0.  1.
        -12    1    3    3    0    0 -0.33584664596E+01  0.14290523157E+01 -0.17809121745E+02  0.18179282296E+02  0.00000000000E+00 0.  1.
</event>
<event>
 7    1  0.4621547E-010  0.4778727E+02  0.7816164E-02  0.1312668E+00
        -11   -1    0    0    0    0  0.00000000000E+00  0.00000000000E+00  0.45593999997E+02  0.45594000000E+02  0.51100000000E-03 0.  1.
         11   -1    0    0    0    0 -0.00000000000E+00 -0.00000000000E+00 -0.45593999997E+02  0.45594000000E+02  0.51100000000E-03 0. -1.
    9900012    2    1    2    0    0 -0.11202773584E+02 -0.25063167723E+02 -0.33614864102E+02  0.47787267278E+02  0.19999982826E+02 0.  0.
        -12    1    1    2    0    0  0.11202773584E+02  0.25063167723E+02  0.33614864102E+02  0.43400732722E+02  0.00000000000E+00 0.  1.
         11    1    3    3    0    0 -0.78249548754E+01 -0.24641515417E+01 -0.56524737565E+01  0.99625509510E+01  0.51100000000E-03 0. -1.
        -11    1    3    3    0    0  0.76605576568E+00 -0.76847448701E+01 -0.26696912997E+01  0.81712543132E+01  0.51100000000E-03 0.  1.
         12    1    3    3    0    0 -0.41438744740E+01 -0.14914271311E+02 -0.25292699045E+02  0.29653462013E+02  0.00000000000E+00 0. -1.
</event>
<event>
 7    1  0.4621547E-010  0.4778727E+02  0.7816164E-02  0.1312668E+00
        -11   -1    0    0    0    0  0.00000000000E+00  0.00000000000E+00  0.45593999997E+02  0.45594000000E+02  0.51100000000E-03 0.  1.
         11   -1    0    0    0    0 -0.00000000000E+00 -0.00000000000E+00 -0.45593999997E+02  0.45594000000E+02  0.51100000000E-03 0. -1.
    9900012    2    1    2    0    0  0.16942567330E+02 -0.20839157257E+02 -0.34092556666E+02  0.47787268636E+02  0.19999989017E+02 0.  0.
        -12    1    1    2    0    0 -0.16942567330E+02  0.20839157257E+02  0.34092556666E+02  0.43400731364E+02  0.00000000000E+00 0.  1.
         11    1    3    3    0    0 -0.94210370768E+00 -0.70863716171E+00  0.91751540259E+00  0.14938409547E+01  0.51100000000E-03 0. -1.
        -11    1    3    3    0    0 -0.20891099451E+01 -0.26696583788E+00 -0.27904594625E+01  0.34960428193E+01  0.51100000000E-03 0.  1.
         12    1    3    3    0    0  0.19973780983E+02 -0.19863554258E+02 -0.32219612606E+02  0.42797384862E+02  0.00000000000E+00 0. -1.
</event>
<event>
 7    1  0.4621547E-010  0.4778727E+02  0.7816164E-02  0.1312668E+00
        -11   -1    0    0    0    0  0.00000000000E+00  0.00000000000E+00  0.45593999997E+02  0.45594000000E+02  0.51100000000E-03 0.  1.
         11   -1    0    0    0    0 -0.00000000000E+00 -0.00000000000E+00 -0.45593999997E+02  0.45594000000E+02  0.51100000000E-03 0. -1.
    9900012    2    1    2    0    0 -0.25118405158E+02  0.23296226974E+02 -0.26645355750E+02  0.47787268993E+02  0.19999990646E+02 0.  0.
        -12    1    1    2    0    0  0.25118405158E+02 -0.23296226974E+02  0.26645355750E+02  0.43400731007E+02  0.00000000000E+00 0.  1.
         11    1    3    3    0    0 -0.21495240498E+01  0.17262043625E+01  0.17101019682E+01  0.32441769595E+01  0.51100000000E-03 0.  1.
        -11    1    3    3    0    0 -0.81843020530E+01  0.41927049814E+00 -0.97107573328E+01  0.12706588688E+02  0.51100000000E-03 0. -1.
        -12    1    3    3    0    0 -0.14784579056E+02  0.21150752113E+02 -0.18644700385E+02  0.31836503345E+02  0.00000000000E+00 0.  1.
</event>
<event>
 7    1  0.4621547E-010  0.4778727E+02  0.7816164E-02  0.1312668E+00
        -11   -1    0    0    0    0  0.00000000000E+00  0.00000000000E+00  0.45593999997E+02  0.45594000000E+02  0.51100000000E-03 0.  1.
         11   -1    0    0    0    0 -0.00000000000E+00 -0.00000000000E+00 -0.45593999997E+02  0.45594000000E+02  0.51100000000E-03 0. -1.
    9900012    2    1    2    0    0 -0.17734572111E+02 -0.58753569261E+01 -0.39173822025E+02  0.47787271907E+02  0.20000003933E+02 0.  0.
        -12    1    1    2    0    0  0.17734572111E+02  0.58753569261E+01  0.39173822025E+02  0.43400728093E+02  0.00000000000E+00 0.  1.
         11    1    3    3    0    0 -0.11694548036E+01  0.55910342016E+00 -0.15811562463E+02  0.15864606171E+02  0.51100000000E-03 0. -1.
        -11    1    3    3    0    0  0.12304972428E+01 -0.34817846919E+01 -0.34363852676E+01  0.50443723172E+01  0.51100000000E-03 0.  1.
        -12    1    3    3    0    0 -0.17795614550E+02 -0.29526756543E+01 -0.19925874294E+02  0.26878293419E+02  0.00000000000E+00 0.  1.
</event>
<event>
 7    1  0.4621547E-010  0.4778726E+02  0.7816164E-02  0.1312668E+00
        -11   -1    0    0    0    0  0.00000000000E+00  0.00000000000E+00  0.45593999997E+02  0.45594000000E+02  0.51100000000E-03 0.  1.
         11   -1    0    0    0    0 -0.00000000000E+00 -0.00000000000E+00 -0.45593999997E+02  0.45594000000E+02  0.51100000000E-03 0. -1.
    9900012    2    1    2    0    0 -0.24333083347E+02 -0.30301543171E+02 -0.19322056757E+02  0.47787258751E+02  0.19999943948E+02 0.  0.
        -12    1    1    2    0    0  0.24333083347E+02  0.30301543171E+02  0.19322056757E+02  0.43400741249E+02  0.00000000000E+00 0.  1.
         11    1    3    3    0    0 -0.10317800549E+02 -0.14883418188E+02 -0.99636004483E+01  0.20669941444E+02  0.51100000000E-03 0. -1.
        -11    1    3    3    0    0 -0.32814295482E+01 -0.36870214228E+01 -0.10055199896E+02  0.11201292428E+02  0.51100000000E-03 0.  1.
         12    1    3    3    0    0 -0.10733853249E+02 -0.11731103559E+02  0.69674358785E+00  0.15916024878E+02  0.00000000000E+00 0. -1.
</event>
<event>
 7    1  0.4621547E-010  0.4778726E+02  0.7816164E-02  0.1312668E+00
        -11   -1    0    0    0    0  0.00000000000E+00  0.00000000000E+00  0.45593999997E+02  0.45594000000E+02  0.51100000000E-03 0. -1.
         11   -1    0    0    0    0 -0.00000000000E+00 -0.00000000000E+00 -0.45593999997E+02  0.45594000000E+02  0.51100000000E-03 0.  1.
    9900012    2    1    2    0    0 -0.31495880716E+02  0.24623963918E+02 -0.16890657386E+02  0.47787257978E+02  0.19999940424E+02 0.  0.
        -12    1    1    2    0    0  0.31495880716E+02 -0.24623963918E+02  0.16890657386E+02  0.43400742022E+02  0.00000000000E+00 0.  1.
         11    1    3    3    0    0 -0.80742302396E+01 -0.37458173772E+00  0.10220536198E+01  0.81472755755E+01  0.51100000000E-03 0. -1.
        -11    1    3    3    0    0 -0.64321284689E+01  0.12367618828E+02 -0.48293289513E+01  0.14753056988E+02  0.51100000000E-03 0.  1.
        -12    1    3    3    0    0 -0.16989522008E+02  0.12630926827E+02 -0.13083382054E+02  0.24886925414E+02  0.00000000000E+00 0.  1.
</event>
<event>
 7    1  0.4621547E-010  0.4778728E+02  0.7816164E-02  0.1312668E+00
        -11   -1    0    0    0    0  0.00000000000E+00  0.00000000000E+00  0.45593999997E+02  0.45594000000E+02  0.51100000000E-03 0.  1.
         11   -1    0    0    0    0 -0.00000000000E+00 -0.00000000000E+00 -0.45593999997E+02  0.45594000000E+02  0.51100000000E-03 0. -1.
    9900012    2    1    2    0    0  0.39155408645E+02 -0.13687044206E+02 -0.12772662314E+02  0.47787284477E+02  0.20000061246E+02 0.  0.
        -12    1    1    2    0    0 -0.39155408645E+02  0.13687044206E+02  0.12772662314E+02  0.43400715523E+02  0.00000000000E+00 0.  1.
         11    1    3    3    0    0  0.94660429218E+00  0.93360248347E-01 -0.19260001184E+01  0.21480811295E+01  0.51100000000E-03 0. -1.
        -11    1    3    3    0    0  0.30815140175E+02 -0.18104719299E+02 -0.81275074177E+01  0.36652559283E+02  0.51100000000E-03 0.  1.
        -12    1    3    3    0    0  0.73936641784E+01  0.43243148439E+01 -0.27191547777E+01  0.89866440654E+01  0.00000000000E+00 0.  1.
</event>
<event>
 7    1  0.4621547E-010  0.4778727E+02  0.7816164E-02  0.1312668E+00
        -11   -1    0    0    0    0  0.00000000000E+00  0.00000000000E+00  0.45593999997E+02  0.45594000000E+02  0.51100000000E-03 0.  1.
         11   -1    0    0    0    0 -0.00000000000E+00 -0.00000000000E+00 -0.45593999997E+02  0.45594000000E+02  0.51100000000E-03 0. -1.
    9900012    2    1    2    0    0  0.29554681347E+02 -0.27088331078E+02 -0.16624273363E+02  0.47787270341E+02  0.19999996791E+02 0.  0.
        -12    1    1    2    0    0 -0.29554681347E+02  0.27088331078E+02  0.16624273363E+02  0.43400729659E+02  0.00000000000E+00 0.  1.
         11    1    3    3    0    0  0.61874698724E+01 -0.85741819781E+01 -0.50645723650E-01  0.10573738472E+02  0.51100000000E-03 0. -1.
        -11    1    3    3    0    0  0.82634555881E+00 -0.49092260378E+01  0.15917559030E+01  0.52265700405E+01  0.51100000000E-03 0.  1.
        -12    1    3    3    0    0  0.22540865915E+02 -0.13604923062E+02 -0.18165383543E+02  0.31986961828E+02  0.00000000000E+00 0.  1.
</event>
<event>
 7    1  0.4621547E-010  0.4778727E+02  0.7816164E-02  0.1312668E+00
        -11   -1    0    0    0    0  0.00000000000E+00  0.00000000000E+00  0.45593999997E+02  0.45594000000E+02  0.51100000000E-03 0.  1.
         11   -1    0    0    0    0 -0.00000000000E+00 -0.00000000000E+00 -0.45593999997E+02  0.45594000000E+02  0.51100000000E-03 0. -1.
    9900012    2    1    2    0    0 -0.23249108810E+02  0.14343177816E+02 -0.33724999776E+02  0.47787269358E+02  0.19999992313E+02 0.  0.
        -12    1    1    2    0    0  0.23249108810E+02 -0.14343177816E+02  0.33724999776E+02  0.43400730642E+02  0.00000000000E+00 0.  1.
         11    1    3    3    0    0 -0.43056443175E+01  0.71259857939E+01 -0.92557811138E+01  0.12449406846E+02  0.51100000000E-03 0. -1.
        -11    1    3    3    0    0 -0.49193441217E+00 -0.19326738002E+01 -0.99277883303E+01  0.10126115192E+02  0.51100000000E-03 0.  1.
        -12    1    3    3    0    0 -0.18451530080E+02  0.91498658222E+01 -0.14541430332E+02  0.25211747321E+02  0.00000000000E+00 0.  1.
</event>
<event>
 7    1  0.4621547E-010  0.4778727E+02  0.7816164E-02  0.1312668E+00
        -11   -1    0    0    0    0  0.00000000000E+00  0.00000000000E+00  0.45593999997E+02  0.45594000000E+02  0.51100000000E-03 0.  1.
         11   -1    0    0    0    0 -0.00000000000E+00 -0.00000000000E+00 -0.45593999997E+02  0.45594000000E+02  0.51100000000E-03 0. -1.
    9900012    2    1    2    0    0  0.61485256748E+01  0.31827555647E+02 -0.28858716090E+02  0.47787272348E+02  0.20000005941E+02 0.  0.
        -12    1    1    2    0    0 -0.61485256748E+01 -0.31827555647E+02  0.28858716090E+02  0.43400727652E+02  0.00000000000E+00 0.  1.
         11    1    3    3    0    0  0.80532231500E+01  0.18849794320E+02 -0.16842635538E+02  0.26530049399E+02  0.51100000000E-03 0. -1.
        -11    1    3    3    0    0  0.72728171763E+00  0.24542073373E+01  0.21999377404E+01  0.33751738731E+01  0.51100000000E-03 0.  1.
         12    1    3    3    0    0 -0.26319791927E+01  0.10523553989E+02 -0.14216018292E+02  0.17882049075E+02  0.00000000000E+00 0. -1.
</event>
<event>
 7    1  0.4621547E-010  0.4778727E+02  0.7816164E-02  0.1312668E+00
        -11   -1    0    0    0    0  0.00000000000E+00  0.00000000000E+00  0.45593999997E+02  0.45594000000E+02  0.51100000000E-03 0.  1.
         11   -1    0    0    0    0 -0.00000000000E+00 -0.00000000000E+00 -0.45593999997E+02  0.45594000000E+02  0.51100000000E-03 0. -1.
    9900012    2    1    2    0    0 -0.28184897935E+02  0.16938454402E+01 -0.32960061991E+02  0.47787271084E+02  0.20000000182E+02 0.  0.
        -12    1    1    2    0    0  0.28184897935E+02 -0.16938454402E+01  0.32960061991E+02  0.43400728916E+02  0.00000000000E+00 0.  1.
         11    1    3    3    0    0  0.37049604781E+00 -0.77869297517E-01 -0.88442560455E+00  0.96204982202E+00  0.51100000000E-03 0.  1.
        -11    1    3    3    0    0 -0.25233785693E+02  0.83363492008E+01 -0.27017715952E+02  0.37897171846E+02  0.51100000000E-03 0. -1.
         12    1    3    3    0    0 -0.33216082901E+01 -0.65646344630E+01 -0.50579204339E+01  0.89280494164E+01  0.00000000000E+00 0. -1.
</event>
<event>
 7    1  0.4621547E-010  0.4778727E+02  0.7816164E-02  0.1312668E+00
        -11   -1    0    0    0    0  0.00000000000E+00  0.00000000000E+00  0.45593999997E+02  0.45594000000E+02  0.51100000000E-03 0. -1.
         11   -1    0    0    0    0 -0.00000000000E+00 -0.00000000000E+00 -0.45593999997E+02  0.45594000000E+02  0.51100000000E-03 0.  1.
    9900012    2    1    2    0    0 -0.34037732516E+02  0.10554243490E+02  0.24772241666E+02  0.47787271347E+02  0.20000001380E+02 0.  0.
        -12    1    1    2    0    0  0.34037732516E+02 -0.10554243490E+02 -0.24772241666E+02  0.43400728653E+02  0.00000000000E+00 0.  1.
         11    1    3    3    0    0 -0.29717700912E+01  0.82315531644E+00  0.43724480951E+01  0.53504490237E+01  0.51100000000E-03 0. -1.
        -11    1    3    3    0    0 -0.26943657261E+02  0.34175372736E+00  0.14297012619E+02  0.30503803571E+02  0.51100000000E-03 0.  1.
        -12    1    3    3    0    0 -0.41223051635E+01  0.93893344458E+01  0.61027809513E+01  0.11933018752E+02  0.00000000000E+00 0.  1.
</event>
<event>
 7    1  0.4621547E-010  0.4778727E+02  0.7816164E-02  0.1312668E+00
        -11   -1    0    0    0    0  0.00000000000E+00  0.00000000000E+00  0.45593999997E+02  0.45594000000E+02  0.51100000000E-03 0.  1.
         11   -1    0    0    0    0 -0.00000000000E+00 -0.00000000000E+00 -0.45593999997E+02  0.45594000000E+02  0.51100000000E-03 0. -1.
    9900012    2    1    2    0    0 -0.19484769661E+02  0.19945873043E+02 -0.33258522446E+02  0.47787269413E+02  0.19999992561E+02 0.  0.
        -12    1    1    2    0    0  0.19484769661E+02 -0.19945873043E+02  0.33258522446E+02  0.43400730587E+02  0.00000000000E+00 0.  1.
         11    1    3    3    0    0  0.88172090213E+00  0.38224772575E+01 -0.22427714777E+01  0.45187153368E+01  0.51100000000E-03 0. -1.
        -11    1    3    3    0    0 -0.13458828284E+02  0.17446953315E+02 -0.17912756918E+02  0.28397237531E+02  0.51100000000E-03 0.  1.
         12    1    3    3    0    0 -0.69076622791E+01 -0.13235575285E+01 -0.13102994051E+02  0.14871316545E+02  0.00000000000E+00 0. -1.
</event>
<event>
 7    1  0.4621547E-010  0.4778727E+02  0.7816164E-02  0.1312668E+00
        -11   -1    0    0    0    0  0.00000000000E+00  0.00000000000E+00  0.45593999997E+02  0.45594000000E+02  0.51100000000E-03 0. -1.
         11   -1    0    0    0    0 -0.00000000000E+00 -0.00000000000E+00 -0.45593999997E+02  0.45594000000E+02  0.51100000000E-03 0.  1.
    9900012    2    1    2    0    0 -0.32721033970E+02 -0.77353932323E+01 -0.27443050950E+02  0.47787269384E+02  0.19999992432E+02 0.  0.
        -12    1    1    2    0    0  0.32721033970E+02  0.77353932323E+01  0.27443050950E+02  0.43400730616E+02  0.00000000000E+00 0.  1.
         11    1    3    3    0    0 -0.71432369470E+01 -0.22381127216E+01 -0.53536600360E+01  0.92030787608E+01  0.51100000000E-03 0. -1.
        -11    1    3    3    0    0 -0.24767340549E+01  0.43990797756E+01  0.11349523641E+00  0.50496530456E+01  0.51100000000E-03 0.  1.
        -12    1    3    3    0    0 -0.23101062968E+02 -0.98963602864E+01 -0.22202886150E+02  0.33534537578E+02  0.00000000000E+00 0.  1.
</event>
<event>
 7    1  0.4621547E-010  0.4778727E+02  0.7816164E-02  0.1312668E+00
        -11   -1    0    0    0    0  0.00000000000E+00  0.00000000000E+00  0.45593999997E+02  0.45594000000E+02  0.51100000000E-03 0.  1.
         11   -1    0    0    0    0 -0.00000000000E+00 -0.00000000000E+00 -0.45593999997E+02  0.45594000000E+02  0.51100000000E-03 0. -1.
    9900012    2    1    2    0    0  0.18236726107E+02 -0.15557775869E+02 -0.36180111284E+02  0.47787273951E+02  0.20000013251E+02 0.  0.
        -12    1    1    2    0    0 -0.18236726107E+02  0.15557775869E+02  0.36180111284E+02  0.43400726049E+02  0.00000000000E+00 0.  1.
         11    1    3    3    0    0  0.72027484944E+00 -0.73653950499E+01 -0.10692480428E+02  0.13003729391E+02  0.51100000000E-03 0. -1.
        -11    1    3    3    0    0  0.10585363463E+02 -0.90418165746E+01 -0.82429881430E+01  0.16178727404E+02  0.51100000000E-03 0.  1.
         12    1    3    3    0    0  0.69310877941E+01  0.84943575581E+00 -0.17244642713E+02  0.18604817156E+02  0.00000000000E+00 0. -1.
</event>
<event>
 7    1  0.4621547E-010  0.4778728E+02  0.7816164E-02  0.1312668E+00
        -11   -1    0    0    0    0  0.00000000000E+00  0.00000000000E+00  0.45593999997E+02  0.45594000000E+02  0.51100000000E-03 0.  1.
         11   -1    0    0    0    0 -0.00000000000E+00 -0.00000000000E+00 -0.45593999997E+02  0.45594000000E+02  0.51100000000E-03 0. -1.
    9900012    2    1    2    0    0 -0.12541666195E+02 -0.24521159343E+02 -0.33541649289E+02  0.47787275542E+02  0.20000020506E+02 0.  0.
        -12    1    1    2    0    0  0.12541666195E+02  0.24521159343E+02  0.33541649289E+02  0.43400724458E+02  0.00000000000E+00 0.  1.
         11    1    3    3    0    0 -0.46914153097E+01 -0.19230154095E+01 -0.13771746578E+02  0.14675434234E+02  0.51100000000E-03 0. -1.
        -11    1    3    3    0    0  0.22611173019E+01 -0.55626917707E+01 -0.82228902325E+01  0.10181950463E+02  0.51100000000E-03 0.  1.
         12    1    3    3    0    0 -0.10111368187E+02 -0.17035452163E+02 -0.11547012478E+02  0.22929890845E+02  0.00000000000E+00 0. -1.
</event>
<event>
 7    1  0.4621547E-010  0.4778727E+02  0.7816164E-02  0.1312668E+00
        -11   -1    0    0    0    0  0.00000000000E+00  0.00000000000E+00  0.45593999997E+02  0.45594000000E+02  0.51100000000E-03 0.  1.
         11   -1    0    0    0    0 -0.00000000000E+00 -0.00000000000E+00 -0.45593999997E+02  0.45594000000E+02  0.51100000000E-03 0. -1.
    9900012    2    1    2    0    0 -0.53295288296E+00  0.26405608365E+02 -0.34439557618E+02  0.47787270504E+02  0.19999997535E+02 0.  0.
        -12    1    1    2    0    0  0.53295288296E+00 -0.26405608365E+02  0.34439557618E+02  0.43400729496E+02  0.00000000000E+00 0.  1.
         11    1    3    3    0    0 -0.18063828875E+01  0.10461770740E+02 -0.48760672167E+01  0.11682794953E+02  0.51100000000E-03 0. -1.
        -11    1    3    3    0    0 -0.41963443961E+01  0.28299940953E+01 -0.27533925806E+01  0.57618871765E+01  0.51100000000E-03 0.  1.
        -12    1    3    3    0    0  0.54697744006E+01  0.13113843529E+02 -0.26810097821E+02  0.30342588375E+02  0.00000000000E+00 0.  1.
</event>
<event>
 7    1  0.4621547E-010  0.4778727E+02  0.7816164E-02  0.1312668E+00
        -11   -1    0    0    0    0  0.00000000000E+00  0.00000000000E+00  0.45593999997E+02  0.45594000000E+02  0.51100000000E-03 0.  1.
         11   -1    0    0    0    0 -0.00000000000E+00 -0.00000000000E+00 -0.45593999997E+02  0.45594000000E+02  0.51100000000E-03 0. -1.
    9900012    2    1    2    0    0 -0.17467423591E+02 -0.14942492301E+02 -0.36813506174E+02  0.47787271896E+02  0.20000003884E+02 0.  0.
        -12    1    1    2    0    0  0.17467423591E+02  0.14942492301E+02  0.36813506174E+02  0.43400728104E+02  0.00000000000E+00 0.  1.
         11    1    3    3    0    0  0.37211165378E+01 -0.67384445018E+00 -0.54096941351E+01  0.66004216174E+01  0.51100000000E-03 0. -1.
        -11    1    3    3    0    0 -0.43052359406E+01 -0.53168154583E+01 -0.45064800034E+01  0.81921880718E+01  0.51100000000E-03 0.  1.
         12    1    3    3    0    0 -0.16883304188E+02 -0.89518323924E+01 -0.26897332036E+02  0.32994662207E+02  0.00000000000E+00 0. -1.
</event>
<event>
 7    1  0.4621547E-010  0.4778727E+02  0.7816164E-02  0.1312668E+00
        -11   -1    0    0    0    0  0.00000000000E+00  0.00000000000E+00  0.45593999997E+02  0.45594000000E+02  0.51100000000E-03 0.  1.
         11   -1    0    0    0    0 -0.00000000000E+00 -0.00000000000E+00 -0.45593999997E+02  0.45594000000E+02  0.51100000000E-03 0. -1.
    9900012    2    1    2    0    0  0.24209760910E+02  0.13229888042E+01 -0.35996676156E+02  0.47787268244E+02  0.19999987232E+02 0.  0.
        -12    1    1    2    0    0 -0.24209760910E+02 -0.13229888042E+01  0.35996676156E+02  0.43400731756E+02  0.00000000000E+00 0.  1.
         11    1    3    3    0    0  0.84897470255E+01  0.66159734185E+01 -0.10939363676E+02  0.15346549668E+02  0.51100000000E-03 0.  1.
        -11    1    3    3    0    0  0.10919332311E+02 -0.14748626736E+01 -0.62702415168E+01  0.12677656209E+02  0.51100000000E-03 0. -1.
         12    1    3    3    0    0  0.48006815733E+01 -0.38181219407E+01 -0.18787070963E+02  0.19763062367E+02  0.00000000000E+00 0. -1.
</event>
<event>
 7    1  0.4621547E-010  0.4778727E+02  0.7816164E-02  0.1312668E+00
        -11   -1    0    0    0    0  0.00000000000E+00  0.00000000000E+00  0.45593999997E+02  0.45594000000E+02  0.51100000000E-03 0.  1.
         11   -1    0    0    0    0 -0.00000000000E+00 -0.00000000000E+00 -0.45593999997E+02  0.45594000000E+02  0.51100000000E-03 0. -1.
    9900012    2    1    2    0    0 -0.19465690568E+02 -0.22266508960E+02 -0.31763385932E+02  0.47787271706E+02  0.20000003018E+02 0.  0.
        -12    1    1    2    0    0  0.19465690568E+02  0.22266508960E+02  0.31763385932E+02  0.43400728294E+02  0.00000000000E+00 0.  1.
         11    1    3    3    0    0 -0.91246456805E+01 -0.18140663872E+02 -0.20218417076E+02  0.28655317723E+02  0.51100000000E-03 0.  1.
        -11    1    3    3    0    0 -0.57492856257E+01 -0.75050281579E+01 -0.82469907604E+01  0.12545620340E+02  0.51100000000E-03 0. -1.
        -12    1    3    3    0    0 -0.45917592619E+01  0.33791830696E+01 -0.32979780958E+01  0.65863336430E+01  0.00000000000E+00 0.  1.
</event>
<event>
 7    1  0.4621547E-010  0.4778727E+02  0.7816164E-02  0.1312668E+00
        -11   -1    0    0    0    0  0.00000000000E+00  0.00000000000E+00  0.45593999997E+02  0.45594000000E+02  0.51100000000E-03 0.  1.
         11   -1    0    0    0    0 -0.00000000000E+00 -0.00000000000E+00 -0.45593999997E+02  0.45594000000E+02  0.51100000000E-03 0. -1.
    9900012    2    1    2    0    0  0.34073986679E+02  0.26856918778E+02 -0.11369843279E+01  0.47787269732E+02  0.19999994016E+02 0.  0.
        -12    1    1    2    0    0 -0.34073986679E+02 -0.26856918778E+02  0.11369843279E+01  0.43400730268E+02  0.00000000000E+00 0.  1.
         11    1    3    3    0    0  0.28112212442E+01  0.42706260659E-01 -0.15878018852E+01  0.32289168147E+01  0.51100000000E-03 0. -1.
        -11    1    3    3    0    0  0.72248255602E+01  0.33164708063E+01 -0.64562403805E+01  0.10241099701E+02  0.51100000000E-03 0.  1.
        -12    1    3    3    0    0  0.24037939874E+02  0.23497741711E+02  0.69070579377E+01  0.34317253216E+02  0.00000000000E+00 0.  1.
</event>
<event>
 7    1  0.4621547E-010  0.4778728E+02  0.7816164E-02  0.1312668E+00
        -11   -1    0    0    0    0  0.00000000000E+00  0.00000000000E+00  0.45593999997E+02  0.45594000000E+02  0.51100000000E-03 0. -1.
         11   -1    0    0    0    0 -0.00000000000E+00 -0.00000000000E+00 -0.45593999997E+02  0.45594000000E+02  0.51100000000E-03 0.  1.
    9900012    2    1    2    0    0  0.26217949365E+02 -0.19837074067E+02  0.28332529091E+02  0.47787279025E+02  0.20000036389E+02 0.  0.
        -12    1    1    2    0    0 -0.26217949365E+02  0.19837074067E+02 -0.28332529091E+02  0.43400720975E+02  0.00000000000E+00 0.  1.
         11    1    3    3    0    0  0.85400970727E+01 -0.82739668064E+01  0.20853842747E+01  0.12072307673E+02  0.51100000000E-03 0. -1.
        -11    1    3    3    0    0  0.40767337932E+01 -0.32171631517E+01  0.23552960447E+00  0.51985932348E+01  0.51100000000E-03 0.  1.
        -12    1    3    3    0    0  0.13601118499E+02 -0.83459441094E+01  0.26011615211E+02  0.30516378117E+02  0.00000000000E+00 0.  1.
</event>
<event>
 7    1  0.4621547E-010  0.4778727E+02  0.7816164E-02  0.1312668E+00
        -11   -1    0    0    0    0  0.00000000000E+00  0.00000000000E+00  0.45593999997E+02  0.45594000000E+02  0.51100000000E-03 0.  1.
         11   -1    0    0    0    0 -0.00000000000E+00 -0.00000000000E+00 -0.45593999997E+02  0.45594000000E+02  0.51100000000E-03 0. -1.
    9900012    2    1    2    0    0 -0.50018140864E+01  0.34879675792E+02 -0.25337981632E+02  0.47787271426E+02  0.20000001742E+02 0.  0.
        -12    1    1    2    0    0  0.50018140864E+01 -0.34879675792E+02  0.25337981632E+02  0.43400728574E+02  0.00000000000E+00 0.  1.
         11    1    3    3    0    0  0.37205925596E+01  0.14173103850E+02 -0.11043573192E+02  0.18348847126E+02  0.51100000000E-03 0. -1.
        -11    1    3    3    0    0 -0.41476125655E+01  0.10043219753E+02 -0.14141712140E+02  0.17834151943E+02  0.51100000000E-03 0.  1.
         12    1    3    3    0    0 -0.45747940804E+01  0.10663352189E+02 -0.15269629966E+00  0.11604272358E+02  0.00000000000E+00 0. -1.
</event>
<event>
 7    1  0.4621547E-010  0.4778727E+02  0.7816164E-02  0.1312668E+00
        -11   -1    0    0    0    0  0.00000000000E+00  0.00000000000E+00  0.45593999997E+02  0.45594000000E+02  0.51100000000E-03 0. -1.
         11   -1    0    0    0    0 -0.00000000000E+00 -0.00000000000E+00 -0.45593999997E+02  0.45594000000E+02  0.51100000000E-03 0.  1.
    9900012    2    1    2    0    0 -0.15804477796E+01 -0.26147840189E+02  0.34603702050E+02  0.47787267779E+02  0.19999985113E+02 0.  0.
        -12    1    1    2    0    0  0.15804477796E+01  0.26147840189E+02 -0.34603702050E+02  0.43400732221E+02  0.00000000000E+00 0.  1.
         11    1    3    3    0    0 -0.28275364323E+00 -0.62204147815E+01  0.14866157485E+02  0.16117572656E+02  0.51100000000E-03 0. -1.
        -11    1    3    3    0    0 -0.77353315357E+01 -0.75334461471E+01  0.88557138850E+01  0.13964663744E+02  0.51100000000E-03 0.  1.
         12    1    3    3    0    0  0.64376373994E+01 -0.12393979261E+02  0.10881830679E+02  0.17705031379E+02  0.00000000000E+00 0. -1.
</event>
<event>
 7    1  0.4621547E-010  0.4778727E+02  0.7816164E-02  0.1312668E+00
        -11   -1    0    0    0    0  0.00000000000E+00  0.00000000000E+00  0.45593999997E+02  0.45594000000E+02  0.51100000000E-03 0.  1.
         11   -1    0    0    0    0 -0.00000000000E+00 -0.00000000000E+00 -0.45593999997E+02  0.45594000000E+02  0.51100000000E-03 0. -1.
    9900012    2    1    2    0    0 -0.23537181300E+02 -0.29578853313E+02 -0.21324067242E+02  0.47787270621E+02  0.19999998071E+02 0.  0.
        -12    1    1    2    0    0  0.23537181300E+02  0.29578853313E+02  0.21324067242E+02  0.43400729379E+02  0.00000000000E+00 0.  1.
         11    1    3    3    0    0 -0.11380352694E+02 -0.72647644153E+01 -0.25502634094E+01  0.13740199167E+02  0.51100000000E-03 0. -1.
        -11    1    3    3    0    0 -0.83836749828E+01 -0.63800596078E+01 -0.12889457676E+02  0.16647200553E+02  0.51100000000E-03 0.  1.
        -12    1    3    3    0    0 -0.37731536237E+01 -0.15934029290E+02 -0.58843461563E+01  0.17399870901E+02  0.00000000000E+00 0.  1.
</event>
<event>
 7    1  0.4621547E-010  0.4778727E+02  0.7816164E-02  0.1312668E+00
        -11   -1    0    0    0    0  0.00000000000E+00  0.00000000000E+00  0.45593999997E+02  0.45594000000E+02  0.51100000000E-03 0. -1.
         11   -1    0    0    0    0 -0.00000000000E+00 -0.00000000000E+00 -0.45593999997E+02  0.45594000000E+02  0.51100000000E-03 0.  1.
    9900012    2    1    2    0    0 -0.93712704724E+01  0.42325368633E+02  0.20894722964E+01  0.47787269192E+02  0.19999991556E+02 0.  0.
        -12    1    1    2    0    0  0.93712704724E+01 -0.42325368633E+02 -0.20894722964E+01  0.43400730808E+02  0.00000000000E+00 0.  1.
         11    1    3    3    0    0 -0.11394598794E+01  0.22293158342E+02  0.10609053962E+01  0.22347456191E+02  0.51100000000E-03 0. -1.
        -11    1    3    3    0    0 -0.10078113906E+02  0.20418664851E+02  0.26866810886E+01  0.22928334212E+02  0.51100000000E-03 0.  1.
        -12    1    3    3    0    0  0.18463033129E+01 -0.38645456021E+00 -0.16581141884E+01  0.25114787899E+01  0.00000000000E+00 0.  1.
</event>
<event>
 7    1  0.4621547E-010  0.4778727E+02  0.7816164E-02  0.1312668E+00
        -11   -1    0    0    0    0  0.00000000000E+00  0.00000000000E+00  0.45593999997E+02  0.45594000000E+02  0.51100000000E-03 0.  1.
         11   -1    0    0    0    0 -0.00000000000E+00 -0.00000000000E+00 -0.45593999997E+02  0.45594000000E+02  0.51100000000E-03 0. -1.
    9900012    2    1    2    0    0 -0.20568161707E+02  0.84800950255E+01 -0.37264750803E+02  0.47787274891E+02  0.20000017536E+02 0.  0.
        -12    1    1    2    0    0  0.20568161707E+02 -0.84800950255E+01  0.37264750803E+02  0.43400725109E+02  0.00000000000E+00 0.  1.
         11    1    3    3    0    0 -0.82521872399E+01  0.64266325734E+01 -0.18198923057E+02  0.20990497879E+02  0.51100000000E-03 0. -1.
        -11    1    3    3    0    0 -0.73150462183E+00  0.51754707435E+01 -0.13462974448E+01  0.53975099351E+01  0.51100000000E-03 0.  1.
        -12    1    3    3    0    0 -0.11584469845E+02 -0.31220082914E+01 -0.17719530300E+02  0.21399267077E+02  0.00000000000E+00 0.  1.
</event>
<event>
 7    1  0.4621547E-010  0.4778727E+02  0.7816164E-02  0.1312668E+00
        -11   -1    0    0    0    0  0.00000000000E+00  0.00000000000E+00  0.45593999997E+02  0.45594000000E+02  0.51100000000E-03 0. -1.
         11   -1    0    0    0    0 -0.00000000000E+00 -0.00000000000E+00 -0.45593999997E+02  0.45594000000E+02  0.51100000000E-03 0.  1.
    9900012    2    1    2    0    0  0.30299159205E+02  0.26040486868E+02  0.16955152986E+02  0.47787271693E+02  0.20000002955E+02 0.  0.
        -12    1    1    2    0    0 -0.30299159205E+02 -0.26040486868E+02 -0.16955152986E+02  0.43400728307E+02  0.00000000000E+00 0.  1.
         11    1    3    3    0    0  0.69822677248E+01  0.12459763372E+01  0.80281291499E+01  0.10712393641E+02  0.51100000000E-03 0. -1.
        -11    1    3    3    0    0  0.13789471875E+02  0.63390500862E+01  0.46093593315E+01  0.15861251032E+02  0.51100000000E-03 0.  1.
        -12    1    3    3    0    0  0.95274196049E+01  0.18455460444E+02  0.43176645046E+01  0.21213627019E+02  0.00000000000E+00 0.  1.
</event>
<event>
 7    1  0.4621547E-010  0.4778727E+02  0.7816164E-02  0.1312668E+00
        -11   -1    0    0    0    0  0.00000000000E+00  0.00000000000E+00  0.45593999997E+02  0.45594000000E+02  0.51100000000E-03 0. -1.
         11   -1    0    0    0    0 -0.00000000000E+00 -0.00000000000E+00 -0.45593999997E+02  0.45594000000E+02  0.51100000000E-03 0.  1.
    9900012    2    1    2    0    0 -0.29662205856E+02  0.30032954276E+02 -0.10089543843E+02  0.47787266207E+02  0.19999977945E+02 0.  0.
        -12    1    1    2    0    0  0.29662205856E+02 -0.30032954276E+02  0.10089543843E+02  0.43400733793E+02  0.00000000000E+00 0.  1.
         11    1    3    3    0    0 -0.39436091095E+01 -0.22721673721E+00  0.31849222029E+00  0.39629683080E+01  0.51100000000E-03 0. -1.
        -11    1    3    3    0    0 -0.61865698933E+01  0.23488786824E+01  0.29331733161E+01  0.72383965125E+01  0.51100000000E-03 0.  1.
         12    1    3    3    0    0 -0.19532026853E+02  0.27911292331E+02 -0.13341209380E+02  0.36585901387E+02  0.00000000000E+00 0. -1.
</event>
<event>
 7    1  0.4621547E-010  0.4778727E+02  0.7816164E-02  0.1312668E+00
        -11   -1    0    0    0    0  0.00000000000E+00  0.00000000000E+00  0.45593999997E+02  0.45594000000E+02  0.51100000000E-03 0.  1.
         11   -1    0    0    0    0 -0.00000000000E+00 -0.00000000000E+00 -0.45593999997E+02  0.45594000000E+02  0.51100000000E-03 0. -1.
    9900012    2    1    2    0    0  0.43177302837E+02  0.37545396849E+01  0.22906874118E+01  0.47787270774E+02  0.19999998767E+02 0.  0.
        -12    1    1    2    0    0 -0.43177302837E+02 -0.37545396849E+01 -0.22906874118E+01  0.43400729226E+02  0.00000000000E+00 0.  1.
         11    1    3    3    0    0  0.13383475526E+02  0.64923133730E+01 -0.31606329380E+01  0.15207141444E+02  0.51100000000E-03 0. -1.
        -11    1    3    3    0    0  0.17157275182E+02  0.27203557492E+01 -0.95414887568E+00  0.17397782256E+02  0.51100000000E-03 0.  1.
        -12    1    3    3    0    0  0.12636552129E+02 -0.54581294373E+01  0.64054692255E+01  0.15182347074E+02  0.00000000000E+00 0.  1.
</event>
<event>
 7    1  0.4621547E-010  0.4778727E+02  0.7816164E-02  0.1312668E+00
        -11   -1    0    0    0    0  0.00000000000E+00  0.00000000000E+00  0.45593999997E+02  0.45594000000E+02  0.51100000000E-03 0.  1.
         11   -1    0    0    0    0 -0.00000000000E+00 -0.00000000000E+00 -0.45593999997E+02  0.45594000000E+02  0.51100000000E-03 0. -1.
    9900012    2    1    2    0    0  0.18993483368E+02 -0.29844981115E+02 -0.25142549387E+02  0.47787273072E+02  0.20000009245E+02 0.  0.
        -12    1    1    2    0    0 -0.18993483368E+02  0.29844981115E+02  0.25142549387E+02  0.43400726928E+02  0.00000000000E+00 0.  1.
         11    1    3    3    0    0  0.31853990602E+01 -0.27792127025E+00 -0.46935441820E+01  0.56792045794E+01  0.51100000000E-03 0. -1.
        -11    1    3    3    0    0 -0.14277517636E+01 -0.15012074950E+01  0.14744752354E+01  0.25428677753E+01  0.51100000000E-03 0.  1.
         12    1    3    3    0    0  0.17235836072E+02 -0.28065852350E+02 -0.21923480440E+02  0.39565200717E+02  0.00000000000E+00 0. -1.
</event>
<event>
 7    1  0.4621547E-010  0.4778727E+02  0.7816164E-02  0.1312668E+00
        -11   -1    0    0    0    0  0.00000000000E+00  0.00000000000E+00  0.45593999997E+02  0.45594000000E+02  0.51100000000E-03 0. -1.
         11   -1    0    0    0    0 -0.00000000000E+00 -0.00000000000E+00 -0.45593999997E+02  0.45594000000E+02  0.51100000000E-03 0.  1.
    9900012    2    1    2    0    0  0.31071685402E+02 -0.28366786548E+02 -0.10653612510E+02  0.47787266454E+02  0.19999979070E+02 0.  0.
        -12    1    1    2    0    0 -0.31071685402E+02  0.28366786548E+02  0.10653612510E+02  0.43400733546E+02  0.00000000000E+00 0.  1.
         11    1    3    3    0    0  0.23143986736E+01 -0.60673788113E+01  0.40281481881E+01  0.76416951619E+01  0.51100000000E-03 0. -1.
        -11    1    3    3    0    0  0.75706455484E+01 -0.10998966679E+02 -0.52176777947E+01  0.14335832862E+02  0.51100000000E-03 0.  1.
         12    1    3    3    0    0  0.21186641180E+02 -0.11300441058E+02 -0.94640829039E+01  0.25809738430E+02  0.00000000000E+00 0. -1.
</event>
<event>
 7    1  0.4621547E-010  0.4778726E+02  0.7816164E-02  0.1312668E+00
        -11   -1    0    0    0    0  0.00000000000E+00  0.00000000000E+00  0.45593999997E+02  0.45594000000E+02  0.51100000000E-03 0.  1.
         11   -1    0    0    0    0 -0.00000000000E+00 -0.00000000000E+00 -0.45593999997E+02  0.45594000000E+02  0.51100000000E-03 0. -1.
    9900012    2    1    2    0    0  0.17969290127E+02 -0.24953530516E+02  0.30627599455E+02  0.47787263586E+02  0.19999965995E+02 0.  0.
        -12    1    1    2    0    0 -0.17969290127E+02  0.24953530516E+02 -0.30627599455E+02  0.43400736414E+02  0.00000000000E+00 0.  1.
         11    1    3    3    0    0 -0.10049473923E+01 -0.10433255005E+01 -0.14483330379E+00  0.14558242711E+01  0.51100000000E-03 0. -1.
        -11    1    3    3    0    0  0.13660369740E+02 -0.43813919309E+01  0.11528764820E+02  0.18404203738E+02  0.51100000000E-03 0.  1.
        -12    1    3    3    0    0  0.53138677795E+01 -0.19528813084E+02  0.19243667939E+02  0.27927235577E+02  0.00000000000E+00 0.  1.
</event>
<event>
 7    1  0.4621547E-010  0.4778727E+02  0.7816164E-02  0.1312668E+00
        -11   -1    0    0    0    0  0.00000000000E+00  0.00000000000E+00  0.45593999997E+02  0.45594000000E+02  0.51100000000E-03 0. -1.
         11   -1    0    0    0    0 -0.00000000000E+00 -0.00000000000E+00 -0.45593999997E+02  0.45594000000E+02  0.51100000000E-03 0.  1.
    9900012    2    1    2    0    0 -0.86983956660E+01 -0.45314607685E+01  0.42277972780E+02  0.47787271824E+02  0.20000003553E+02 0.  0.
        -12    1    1    2    0    0  0.86983956660E+01  0.45314607685E+01 -0.42277972780E+02  0.43400728176E+02  0.00000000000E+00 0.  1.
         11    1    3    3    0    0 -0.73814630873E+00 -0.27363386268E+01  0.99665760070E+01  0.10361710603E+02  0.51100000000E-03 0. -1.
        -11    1    3    3    0    0  0.18921450580E+01  0.31476437777E+01  0.22089342334E+02  0.22392563928E+02  0.51100000000E-03 0.  1.
         12    1    3    3    0    0 -0.98523944152E+01 -0.49427659194E+01  0.10222054439E+02  0.15032997292E+02  0.00000000000E+00 0. -1.
</event>
<event>
 7    1  0.4621547E-010  0.4778727E+02  0.7816164E-02  0.1312668E+00
        -11   -1    0    0    0    0  0.00000000000E+00  0.00000000000E+00  0.45593999997E+02  0.45594000000E+02  0.51100000000E-03 0. -1.
         11   -1    0    0    0    0 -0.00000000000E+00 -0.00000000000E+00 -0.45593999997E+02  0.45594000000E+02  0.51100000000E-03 0.  1.
    9900012    2    1    2    0    0 -0.65272334346E+00 -0.17469510537E+02  0.39724216625E+02  0.47787271520E+02  0.20000002166E+02 0.  0.
        -12    1    1    2    0    0  0.65272334346E+00  0.17469510537E+02 -0.39724216625E+02  0.43400728480E+02  0.00000000000E+00 0.  1.
         11    1    3    3    0    0  0.20961441897E+01  0.13308849144E+01  0.12777325224E+01  0.27924318756E+01  0.51100000000E-03 0. -1.
        -11    1    3    3    0    0 -0.47409527320E+01 -0.29407494394E+00  0.72484935208E+01  0.86662432150E+01  0.51100000000E-03 0.  1.
         12    1    3    3    0    0  0.19920851988E+01 -0.18506320507E+02  0.31197990582E+02  0.36328596429E+02  0.00000000000E+00 0. -1.
</event>
<event>
 7    1  0.4621547E-010  0.4778727E+02  0.7816164E-02  0.1312668E+00
        -11   -1    0    0    0    0  0.00000000000E+00  0.00000000000E+00  0.45593999997E+02  0.45594000000E+02  0.51100000000E-03 0. -1.
         11   -1    0    0    0    0 -0.00000000000E+00 -0.00000000000E+00 -0.45593999997E+02  0.45594000000E+02  0.51100000000E-03 0.  1.
    9900012    2    1    2    0    0  0.92749686256E+01  0.39121731887E+02  0.16342838558E+02  0.47787270501E+02  0.19999997524E+02 0.  0.
        -12    1    1    2    0    0 -0.92749686256E+01 -0.39121731887E+02 -0.16342838558E+02  0.43400729499E+02  0.00000000000E+00 0.  1.
         11    1    3    3    0    0  0.86000327774E+00  0.22953660418E+02  0.10298352650E+02  0.25172727301E+02  0.51100000000E-03 0. -1.
        -11    1    3    3    0    0  0.72592805134E+00  0.13246855959E+02  0.55302422924E+01  0.14373230131E+02  0.51100000000E-03 0.  1.
        -12    1    3    3    0    0  0.76890372965E+01  0.29212155108E+01  0.51424361566E+00  0.82413130692E+01  0.00000000000E+00 0.  1.
</event>
<event>
 7    1  0.4621547E-010  0.4778727E+02  0.7816164E-02  0.1312668E+00
        -11   -1    0    0    0    0  0.00000000000E+00  0.00000000000E+00  0.45593999997E+02  0.45594000000E+02  0.51100000000E-03 0. -1.
         11   -1    0    0    0    0 -0.00000000000E+00 -0.00000000000E+00 -0.45593999997E+02  0.45594000000E+02  0.51100000000E-03 0.  1.
    9900012    2    1    2    0    0  0.38280372692E+02 -0.15658485451E+02 -0.13154781079E+02  0.47787269991E+02  0.19999995197E+02 0.  0.
        -12    1    1    2    0    0 -0.38280372692E+02  0.15658485451E+02  0.13154781079E+02  0.43400730009E+02  0.00000000000E+00 0.  1.
         11    1    3    3    0    0  0.33997146548E+00  0.11510982352E+01 -0.23007434249E+01  0.25950006383E+01  0.51100000000E-03 0. -1.
        -11    1    3    3    0    0  0.14887628469E+02 -0.68101045806E+01  0.27769662840E+01  0.16605136188E+02  0.51100000000E-03 0.  1.
         12    1    3    3    0    0  0.23052772758E+02 -0.99994791061E+01 -0.13631003938E+02  0.28587133165E+02  0.00000000000E+00 0. -1.
</event>
<event>
 7    1  0.4621547E-010  0.4778727E+02  0.7816164E-02  0.1312668E+00
        -11   -1    0    0    0    0  0.00000000000E+00  0.00000000000E+00  0.45593999997E+02  0.45594000000E+02  0.51100000000E-03 0. -1.
         11   -1    0    0    0    0 -0.00000000000E+00 -0.00000000000E+00 -0.45593999997E+02  0.45594000000E+02  0.51100000000E-03 0.  1.
    9900012    2    1    2    0    0 -0.19606168557E+02  0.23109312200E+02  0.31067364857E+02  0.47787270571E+02  0.19999997840E+02 0.  0.
        -12    1    1    2    0    0  0.19606168557E+02 -0.23109312200E+02 -0.31067364857E+02  0.43400729429E+02  0.00000000000E+00 0.  1.
         11    1    3    3    0    0  0.33221350778E+00  0.36290170827E+01  0.32905729424E+01  0.49099899543E+01  0.51100000000E-03 0.  1.
        -11    1    3    3    0    0 -0.20105416171E+02  0.16143757133E+02  0.29448556973E+02  0.39141616750E+02  0.51100000000E-03 0. -1.
         12    1    3    3    0    0  0.16703410617E+00  0.33365379842E+01 -0.16717650582E+01  0.37356638663E+01  0.00000000000E+00 0. -1.
</event>
<event>
 7    1  0.4621547E-010  0.4778727E+02  0.7816164E-02  0.1312668E+00
        -11   -1    0    0    0    0  0.00000000000E+00  0.00000000000E+00  0.45593999997E+02  0.45594000000E+02  0.51100000000E-03 0.  1.
         11   -1    0    0    0    0 -0.00000000000E+00 -0.00000000000E+00 -0.45593999997E+02  0.45594000000E+02  0.51100000000E-03 0. -1.
    9900012    2    1    2    0    0 -0.17657992286E+02 -0.78598557839E+01 -0.38859245559E+02  0.47787274316E+02  0.20000014916E+02 0.  0.
        -12    1    1    2    0    0  0.17657992286E+02  0.78598557839E+01  0.38859245559E+02  0.43400725684E+02  0.00000000000E+00 0.  1.
         11    1    3    3    0    0 -0.33874731100E+01 -0.31531337078E+00 -0.87152299376E+01  0.93557271080E+01  0.51100000000E-03 0. -1.
        -11    1    3    3    0    0 -0.33548584120E+01 -0.11024500718E+02 -0.10001191035E+02  0.15258391575E+02  0.51100000000E-03 0.  1.
         12    1    3    3    0    0 -0.10915660764E+02  0.34799583054E+01 -0.20142824586E+02  0.23173155633E+02  0.00000000000E+00 0. -1.
</event>
<event>
 7    1  0.4621547E-010  0.4778727E+02  0.7816164E-02  0.1312668E+00
        -11   -1    0    0    0    0  0.00000000000E+00  0.00000000000E+00  0.45593999997E+02  0.45594000000E+02  0.51100000000E-03 0.  1.
         11   -1    0    0    0    0 -0.00000000000E+00 -0.00000000000E+00 -0.45593999997E+02  0.45594000000E+02  0.51100000000E-03 0. -1.
    9900012    2    1    2    0    0  0.13358214146E+02  0.24594822303E+02 -0.33170409150E+02  0.47787271751E+02  0.20000003224E+02 0.  0.
        -12    1    1    2    0    0 -0.13358214146E+02 -0.24594822303E+02  0.33170409150E+02  0.43400728249E+02  0.00000000000E+00 0.  1.
         11    1    3    3    0    0  0.57471405064E+01  0.78272831594E+01 -0.68902686432E+01  0.11906795870E+02  0.51100000000E-03 0. -1.
        -11    1    3    3    0    0  0.50320081943E+01  0.15266306272E+02 -0.28108978571E+02  0.32380486256E+02  0.51100000000E-03 0.  1.
        -12    1    3    3    0    0  0.25790654456E+01  0.15012328725E+01  0.18288380640E+01  0.34999896249E+01  0.00000000000E+00 0.  1.
</event>
<event>
 7    1  0.4621547E-010  0.4778727E+02  0.7816164E-02  0.1312668E+00
        -11   -1    0    0    0    0  0.00000000000E+00  0.00000000000E+00  0.45593999997E+02  0.45594000000E+02  0.51100000000E-03 0. -1.
         11   -1    0    0    0    0 -0.00000000000E+00 -0.00000000000E+00 -0.45593999997E+02  0.45594000000E+02  0.51100000000E-03 0.  1.
    9900012    2    1    2    0    0  0.38984781336E+02 -0.15314381433E+02  0.11370121257E+02  0.47787272911E+02  0.20000008508E+02 0.  0.
        -12    1    1    2    0    0 -0.38984781336E+02  0.15314381433E+02 -0.11370121257E+02  0.43400727089E+02  0.00000000000E+00 0.  1.
         11    1    3    3    0    0  0.15560498194E+02 -0.38563835461E+01  0.26059686974E+01  0.16241670825E+02  0.51100000000E-03 0. -1.
        -11    1    3    3    0    0  0.19726643810E+02 -0.15149333283E+02  0.58048084509E+01  0.25540919646E+02  0.51100000000E-03 0.  1.
        -12    1    3    3    0    0  0.36976393319E+01  0.36913353966E+01  0.29593441088E+01  0.60046824390E+01  0.00000000000E+00 0.  1.
</event>
<event>
 7    1  0.4621547E-010  0.4778727E+02  0.7816164E-02  0.1312668E+00
        -11   -1    0    0    0    0  0.00000000000E+00  0.00000000000E+00  0.45593999997E+02  0.45594000000E+02  0.51100000000E-03 0. -1.
         11   -1    0    0    0    0 -0.00000000000E+00 -0.00000000000E+00 -0.45593999997E+02  0.45594000000E+02  0.51100000000E-03 0.  1.
    9900012    2    1    2    0    0  0.23469544385E+02 -0.17719180870E+02  0.31919191279E+02  0.47787266639E+02  0.19999979915E+02 0.  0.
        -12    1    1    2    0    0 -0.23469544385E+02  0.17719180870E+02 -0.31919191279E+02  0.43400733361E+02  0.00000000000E+00 0.  1.
         11    1    3    3    0    0  0.78533761086E+01 -0.73615491452E+01  0.12166949690E+02  0.16245078859E+02  0.51100000000E-03 0. -1.
        -11    1    3    3    0    0  0.12486090334E+01 -0.81120836793E+01  0.17357434056E+01  0.83891436732E+01  0.51100000000E-03 0.  1.
        -12    1    3    3    0    0  0.14367559243E+02 -0.22455480452E+01  0.18016498183E+02  0.23153044107E+02  0.00000000000E+00 0.  1.
</event>
<event>
 7    1  0.4621547E-010  0.4778727E+02  0.7816164E-02  0.1312668E+00
        -11   -1    0    0    0    0  0.00000000000E+00  0.00000000000E+00  0.45593999997E+02  0.45594000000E+02  0.51100000000E-03 0.  1.
         11   -1    0    0    0    0 -0.00000000000E+00 -0.00000000000E+00 -0.45593999997E+02  0.45594000000E+02  0.51100000000E-03 0. -1.
    9900012    2    1    2    0    0  0.18360005670E+02 -0.24832938761E+02 -0.30493583382E+02  0.47787270937E+02  0.19999999512E+02 0.  0.
        -12    1    1    2    0    0 -0.18360005670E+02  0.24832938761E+02  0.30493583382E+02  0.43400729063E+02  0.00000000000E+00 0.  1.
         11    1    3    3    0    0  0.46145151296E+01 -0.73912052022E+01 -0.34863771414E+01  0.93850141212E+01  0.51100000000E-03 0. -1.
        -11    1    3    3    0    0  0.65817761103E+01 -0.16334178741E+02 -0.25513665258E+02  0.31001165898E+02  0.51100000000E-03 0.  1.
        -12    1    3    3    0    0  0.71637144297E+01 -0.11075548176E+01 -0.14935409828E+01  0.74010909177E+01  0.00000000000E+00 0.  1.
</event>
<event>
 7    1  0.4621547E-010  0.4778727E+02  0.7816164E-02  0.1312668E+00
        -11   -1    0    0    0    0  0.00000000000E+00  0.00000000000E+00  0.45593999997E+02  0.45594000000E+02  0.51100000000E-03 0.  1.
         11   -1    0    0    0    0 -0.00000000000E+00 -0.00000000000E+00 -0.45593999997E+02  0.45594000000E+02  0.51100000000E-03 0. -1.
    9900012    2    1    2    0    0 -0.14991582459E+01  0.24240656437E+02 -0.35968963529E+02  0.47787271466E+02  0.20000001920E+02 0.  0.
        -12    1    1    2    0    0  0.14991582459E+01 -0.24240656437E+02  0.35968963529E+02  0.43400728534E+02  0.00000000000E+00 0.  1.
         11    1    3    3    0    0  0.39435842182E+01  0.17796359310E+02 -0.12763945795E+02  0.22252653183E+02  0.51100000000E-03 0. -1.
        -11    1    3    3    0    0 -0.15282034006E+01 -0.55799902605E+00 -0.96401227077E+00  0.18910548554E+01  0.51100000000E-03 0.  1.
         12    1    3    3    0    0 -0.39145390635E+01  0.70022961536E+01 -0.22241005464E+02  0.23643563427E+02  0.00000000000E+00 0. -1.
</event>
<event>
 7    1  0.4621547E-010  0.4778727E+02  0.7816164E-02  0.1312668E+00
        -11   -1    0    0    0    0  0.00000000000E+00  0.00000000000E+00  0.45593999997E+02  0.45594000000E+02  0.51100000000E-03 0.  1.
         11   -1    0    0    0    0 -0.00000000000E+00 -0.00000000000E+00 -0.45593999997E+02  0.45594000000E+02  0.51100000000E-03 0. -1.
    9900012    2    1    2    0    0 -0.32561988574E+02  0.26548115125E+01 -0.28570828690E+02  0.47787269867E+02  0.19999994632E+02 0.  0.
        -12    1    1    2    0    0  0.32561988574E+02 -0.26548115125E+01  0.28570828690E+02  0.43400730133E+02  0.00000000000E+00 0.  1.
         11    1    3    3    0    0 -0.16162657105E+02 -0.13827383417E+01 -0.83955805708E+01  0.18265520069E+02  0.51100000000E-03 0. -1.
        -11    1    3    3    0    0 -0.10300370032E+02 -0.35508851255E+01 -0.63438310391E+01  0.12607561242E+02  0.51100000000E-03 0.  1.
        -12    1    3    3    0    0 -0.60989614370E+01  0.75884349797E+01 -0.13831417080E+02  0.16914188555E+02  0.00000000000E+00 0.  1.
</event>
<event>
 7    1  0.4621547E-010  0.4778727E+02  0.7816164E-02  0.1312668E+00
        -11   -1    0    0    0    0  0.00000000000E+00  0.00000000000E+00  0.45593999997E+02  0.45594000000E+02  0.51100000000E-03 0. -1.
         11   -1    0    0    0    0 -0.00000000000E+00 -0.00000000000E+00 -0.45593999997E+02  0.45594000000E+02  0.51100000000E-03 0.  1.
    9900012    2    1    2    0    0 -0.35295497598E+02  0.73601997447E+01  0.24159438730E+02  0.47787272233E+02  0.20000005417E+02 0.  0.
        -12    1    1    2    0    0  0.35295497598E+02 -0.73601997447E+01 -0.24159438730E+02  0.43400727767E+02  0.00000000000E+00 0.  1.
         11    1    3    3    0    0 -0.91843461801E+01 -0.28347521932E+01  0.16962319507E+01  0.97603912751E+01  0.51100000000E-03 0. -1.
        -11    1    3    3    0    0 -0.90382667003E+01 -0.23570160359E+01  0.51716989933E+01  0.10676715800E+02  0.51100000000E-03 0.  1.
         12    1    3    3    0    0 -0.17072884718E+02  0.12551967974E+02  0.17291507786E+02  0.27350165157E+02  0.00000000000E+00 0. -1.
</event>
<event>
 7    1  0.4621547E-010  0.4778727E+02  0.7816164E-02  0.1312668E+00
        -11   -1    0    0    0    0  0.00000000000E+00  0.00000000000E+00  0.45593999997E+02  0.45594000000E+02  0.51100000000E-03 0.  1.
         11   -1    0    0    0    0 -0.00000000000E+00 -0.00000000000E+00 -0.45593999997E+02  0.45594000000E+02  0.51100000000E-03 0. -1.
    9900012    2    1    2    0    0  0.42962757910E+02  0.61500976907E+01  0.33831292093E-01  0.47787269438E+02  0.19999992673E+02 0.  0.
        -12    1    1    2    0    0 -0.42962757910E+02 -0.61500976907E+01 -0.33831292093E-01  0.43400730562E+02  0.00000000000E+00 0.  1.
         11    1    3    3    0    0  0.25279898018E+02 -0.60592086799E+01 -0.29574113292E+00  0.25997590594E+02  0.51100000000E-03 0. -1.
        -11    1    3    3    0    0  0.14675423023E+02  0.84683077224E+01 -0.31663561428E+00  0.16946401830E+02  0.51100000000E-03 0.  1.
         12    1    3    3    0    0  0.30074368684E+01  0.37409986483E+01  0.64620803930E+00  0.48432770140E+01  0.00000000000E+00 0. -1.
</event>
<event>
 7    1  0.4621547E-010  0.4778727E+02  0.7816164E-02  0.1312668E+00
        -11   -1    0    0    0    0  0.00000000000E+00  0.00000000000E+00  0.45593999997E+02  0.45594000000E+02  0.51100000000E-03 0.  1.
         11   -1    0    0    0    0 -0.00000000000E+00 -0.00000000000E+00 -0.45593999997E+02  0.45594000000E+02  0.51100000000E-03 0. -1.
    9900012    2    1    2    0    0  0.88296335252E+01 -0.24355635669E+02 -0.34820452925E+02  0.47787270064E+02  0.19999995531E+02 0.  0.
        -12    1    1    2    0    0 -0.88296335252E+01  0.24355635669E+02  0.34820452925E+02  0.43400729936E+02  0.00000000000E+00 0.  1.
         11    1    3    3    0    0  0.11576911437E+01 -0.19179136405E+02 -0.15136819433E+02  0.24460229452E+02  0.51100000000E-03 0. -1.
        -11    1    3    3    0    0 -0.12066096038E+01 -0.10866607024E+01 -0.34768919866E+00  0.16606102065E+01  0.51100000000E-03 0.  1.
        -12    1    3    3    0    0  0.88785519852E+01 -0.40898385618E+01 -0.19335944293E+02  0.21666430406E+02  0.00000000000E+00 0.  1.
</event>
<event>
 7    1  0.4621547E-010  0.4778728E+02  0.7816164E-02  0.1312668E+00
        -11   -1    0    0    0    0  0.00000000000E+00  0.00000000000E+00  0.45593999997E+02  0.45594000000E+02  0.51100000000E-03 0. -1.
         11   -1    0    0    0    0 -0.00000000000E+00 -0.00000000000E+00 -0.45593999997E+02  0.45594000000E+02  0.51100000000E-03 0.  1.
    9900012    2    1    2    0    0  0.49373739809E+01 -0.34808988002E+02  0.25447583015E+02  0.47787276632E+02  0.20000025475E+02 0.  0.
        -12    1    1    2    0    0 -0.49373739809E+01  0.34808988002E+02 -0.25447583015E+02  0.43400723368E+02  0.00000000000E+00 0.  1.
         11    1    3    3    0    0  0.50654982528E+00 -0.63938872934E+00  0.65688977151E+01  0.66193525458E+01  0.51100000000E-03 0. -1.
        -11    1    3    3    0    0  0.19186950951E+01 -0.11811281292E+00  0.28773124776E+01  0.34603856518E+01  0.51100000000E-03 0.  1.
         12    1    3    3    0    0  0.25121290605E+01 -0.34051486460E+02  0.16001372822E+02  0.37707538434E+02  0.00000000000E+00 0. -1.
</event>
<event>
 7    1  0.4621547E-010  0.4778727E+02  0.7816164E-02  0.1312668E+00
        -11   -1    0    0    0    0  0.00000000000E+00  0.00000000000E+00  0.45593999997E+02  0.45594000000E+02  0.51100000000E-03 0.  1.
         11   -1    0    0    0    0 -0.00000000000E+00 -0.00000000000E+00 -0.45593999997E+02  0.45594000000E+02  0.51100000000E-03 0. -1.
    9900012    2    1    2    0    0 -0.10253674437E+02 -0.12068854187E+02 -0.40408266756E+02  0.47787273013E+02  0.20000008974E+02 0.  0.
        -12    1    1    2    0    0  0.10253674437E+02  0.12068854187E+02  0.40408266756E+02  0.43400726987E+02  0.00000000000E+00 0.  1.
         11    1    3    3    0    0  0.31463439231E+01  0.23586910411E+01 -0.11994231260E+02  0.12622380413E+02  0.51100000000E-03 0. -1.
        -11    1    3    3    0    0 -0.47785517915E+01 -0.55667252068E+01 -0.16210555657E+02  0.17793400511E+02  0.51100000000E-03 0.  1.
        -12    1    3    3    0    0 -0.86214665684E+01 -0.88608200212E+01 -0.12203479838E+02  0.17371492089E+02  0.00000000000E+00 0.  1.
</event>
<event>
 7    1  0.4621547E-010  0.4778727E+02  0.7816164E-02  0.1312668E+00
        -11   -1    0    0    0    0  0.00000000000E+00  0.00000000000E+00  0.45593999997E+02  0.45594000000E+02  0.51100000000E-03 0.  1.
         11   -1    0    0    0    0 -0.00000000000E+00 -0.00000000000E+00 -0.45593999997E+02  0.45594000000E+02  0.51100000000E-03 0. -1.
    9900012    2    1    2    0    0  0.12614639392E+02 -0.19531408163E+01 -0.41481076122E+02  0.47787267722E+02  0.19999984852E+02 0.  0.
        -12    1    1    2    0    0 -0.12614639392E+02  0.19531408163E+01  0.41481076122E+02  0.43400732278E+02  0.00000000000E+00 0.  1.
         11    1    3    3    0    0 -0.41212621902E+01  0.22413373246E+01 -0.15624567074E+02  0.16313659662E+02  0.51100000000E-03 0. -1.
        -11    1    3    3    0    0  0.25388899632E+01 -0.26401284804E+01 -0.51835264331E+01  0.63470613028E+01  0.51100000000E-03 0.  1.
         12    1    3    3    0    0  0.14197011619E+02 -0.15543496604E+01 -0.20672982614E+02  0.25126546757E+02  0.00000000000E+00 0. -1.
</event>
<event>
 7    1  0.4621547E-010  0.4778727E+02  0.7816164E-02  0.1312668E+00
        -11   -1    0    0    0    0  0.00000000000E+00  0.00000000000E+00  0.45593999997E+02  0.45594000000E+02  0.51100000000E-03 0.  1.
         11   -1    0    0    0    0 -0.00000000000E+00 -0.00000000000E+00 -0.45593999997E+02  0.45594000000E+02  0.51100000000E-03 0. -1.
    9900012    2    1    2    0    0 -0.50690130955E+01  0.40914989388E+02  0.13560677237E+02  0.47787271694E+02  0.20000002962E+02 0.  0.
        -12    1    1    2    0    0  0.50690130955E+01 -0.40914989388E+02 -0.13560677237E+02  0.43400728306E+02  0.00000000000E+00 0.  1.
         11    1    3    3    0    0 -0.17306585589E+01  0.22394318283E+02  0.11261713006E+02  0.25126218388E+02  0.51100000000E-03 0. -1.
        -11    1    3    3    0    0  0.31447668280E+01  0.53174211658E+01  0.46933799842E+01  0.77583723934E+01  0.51100000000E-03 0.  1.
        -12    1    3    3    0    0 -0.64831213646E+01  0.13203249939E+02 -0.23944157533E+01  0.14902680912E+02  0.00000000000E+00 0.  1.
</event>
<event>
 7    1  0.4621547E-010  0.4778727E+02  0.7816164E-02  0.1312668E+00
        -11   -1    0    0    0    0  0.00000000000E+00  0.00000000000E+00  0.45593999997E+02  0.45594000000E+02  0.51100000000E-03 0. -1.
         11   -1    0    0    0    0 -0.00000000000E+00 -0.00000000000E+00 -0.45593999997E+02  0.45594000000E+02  0.51100000000E-03 0.  1.
    9900012    2    1    2    0    0  0.28531996258E+02  0.25606524080E+02  0.20343406633E+02  0.47787273285E+02  0.20000010217E+02 0.  0.
        -12    1    1    2    0    0 -0.28531996258E+02 -0.25606524080E+02 -0.20343406633E+02  0.43400726715E+02  0.00000000000E+00 0.  1.
         11    1    3    3    0    0  0.16873058786E+02  0.18721121327E+02  0.10093870724E+02  0.27148972779E+02  0.51100000000E-03 0. -1.
        -11    1    3    3    0    0  0.36470725113E+01  0.70980019662E+01  0.97621354270E+01  0.12608808753E+02  0.51100000000E-03 0.  1.
         12    1    3    3    0    0  0.80118649611E+01 -0.21259921320E+00  0.48740048191E+00  0.80294917529E+01  0.00000000000E+00 0. -1.
</event>
<event>
 7    1  0.4621547E-010  0.4778727E+02  0.7816164E-02  0.1312668E+00
        -11   -1    0    0    0    0  0.00000000000E+00  0.00000000000E+00  0.45593999997E+02  0.45594000000E+02  0.51100000000E-03 0.  1.
         11   -1    0    0    0    0 -0.00000000000E+00 -0.00000000000E+00 -0.45593999997E+02  0.45594000000E+02  0.51100000000E-03 0. -1.
    9900012    2    1    2    0    0  0.19943137975E+02 -0.27543370513E+02 -0.26967702779E+02  0.47787274145E+02  0.20000014138E+02 0.  0.
        -12    1    1    2    0    0 -0.19943137975E+02  0.27543370513E+02  0.26967702779E+02  0.43400725855E+02  0.00000000000E+00 0.  1.
         11    1    3    3    0    0  0.86183899675E+01 -0.70944950710E+01 -0.64442709100E+01  0.12889419450E+02  0.51100000000E-03 0. -1.
        -11    1    3    3    0    0  0.13255237598E+01 -0.10648703534E+02 -0.86840197077E+00  0.10765965931E+02  0.51100000000E-03 0.  1.
        -12    1    3    3    0    0  0.99992242478E+01 -0.98001719083E+01 -0.19655029899E+02  0.24131888764E+02  0.00000000000E+00 0.  1.
</event>
<event>
 7    1  0.4621547E-010  0.4778729E+02  0.7816164E-02  0.1312668E+00
        -11   -1    0    0    0    0  0.00000000000E+00  0.00000000000E+00  0.45593999997E+02  0.45594000000E+02  0.51100000000E-03 0.  1.
         11   -1    0    0    0    0 -0.00000000000E+00 -0.00000000000E+00 -0.45593999997E+02  0.45594000000E+02  0.51100000000E-03 0. -1.
    9900012    2    1    2    0    0  0.25367943021E+02 -0.20329246007E+02 -0.28754324901E+02  0.47787285986E+02  0.20000068126E+02 0.  0.
        -12    1    1    2    0    0 -0.25367943021E+02  0.20329246007E+02  0.28754324901E+02  0.43400714014E+02  0.00000000000E+00 0.  1.
         11    1    3    3    0    0  0.59417229958E-01  0.35759880923E+00 -0.37629260548E+01  0.37803465543E+01  0.51100000000E-03 0.  1.
        -11    1    3    3    0    0  0.16076910485E+02 -0.51704048837E+01 -0.17900268396E+02  0.24609342663E+02  0.51100000000E-03 0. -1.
         12    1    3    3    0    0  0.92316153067E+01 -0.15516439933E+02 -0.70911304509E+01  0.19397596769E+02  0.00000000000E+00 0. -1.
</event>
<event>
 7    1  0.4621547E-010  0.4778728E+02  0.7816164E-02  0.1312668E+00
        -11   -1    0    0    0    0  0.00000000000E+00  0.00000000000E+00  0.45593999997E+02  0.45594000000E+02  0.51100000000E-03 0.  1.
         11   -1    0    0    0    0 -0.00000000000E+00 -0.00000000000E+00 -0.45593999997E+02  0.45594000000E+02  0.51100000000E-03 0. -1.
    9900012    2    1    2    0    0  0.21130202388E+02 -0.33469498313E+02  0.17802530741E+02  0.47787275685E+02  0.20000021160E+02 0.  0.
        -12    1    1    2    0    0 -0.21130202388E+02  0.33469498313E+02 -0.17802530741E+02  0.43400724315E+02  0.00000000000E+00 0.  1.
         11    1    3    3    0    0  0.15927340065E+02 -0.23838214705E+02  0.72757845724E+01  0.29578331313E+02  0.51100000000E-03 0. -1.
        -11    1    3    3    0    0  0.81192492057E+01 -0.83236834029E+01  0.77377774003E+01  0.13967072435E+02  0.51100000000E-03 0.  1.
        -12    1    3    3    0    0 -0.29163868820E+01 -0.13076002045E+01  0.27889687678E+01  0.42418719368E+01  0.00000000000E+00 0.  1.
</event>
<event>
 7    1  0.4621547E-010  0.4778726E+02  0.7816164E-02  0.1312668E+00
        -11   -1    0    0    0    0  0.00000000000E+00  0.00000000000E+00  0.45593999997E+02  0.45594000000E+02  0.51100000000E-03 0.  1.
         11   -1    0    0    0    0 -0.00000000000E+00 -0.00000000000E+00 -0.45593999997E+02  0.45594000000E+02  0.51100000000E-03 0. -1.
    9900012    2    1    2    0    0 -0.32475222376E+00  0.12293450325E+02 -0.41621988206E+02  0.47787259372E+02  0.19999946779E+02 0.  0.
        -12    1    1    2    0    0  0.32475222376E+00 -0.12293450325E+02  0.41621988206E+02  0.43400740628E+02  0.00000000000E+00 0.  1.
         11    1    3    3    0    0 -0.15293614273E+00  0.50186968381E+01 -0.29291449694E+02  0.29718676499E+02  0.51100000000E-03 0. -1.
        -11    1    3    3    0    0  0.26019251096E+01  0.32909041841E+01 -0.12526433339E+02  0.13210283763E+02  0.51100000000E-03 0.  1.
        -12    1    3    3    0    0 -0.27737411906E+01  0.39838493027E+01  0.19589482771E+00  0.48582991100E+01  0.00000000000E+00 0.  1.
</event>
<event>
 7    1  0.4621547E-010  0.4778727E+02  0.7816164E-02  0.1312668E+00
        -11   -1    0    0    0    0  0.00000000000E+00  0.00000000000E+00  0.45593999997E+02  0.45594000000E+02  0.51100000000E-03 0.  1.
         11   -1    0    0    0    0 -0.00000000000E+00 -0.00000000000E+00 -0.45593999997E+02  0.45594000000E+02  0.51100000000E-03 0. -1.
    9900012    2    1    2    0    0 -0.36296653624E+02 -0.23768880478E+02  0.11028427142E+01  0.47787274136E+02  0.20000014095E+02 0.  0.
        -12    1    1    2    0    0  0.36296653624E+02  0.23768880478E+02 -0.11028427142E+01  0.43400725864E+02  0.00000000000E+00 0.  1.
         11    1    3    3    0    0 -0.19354163684E+02 -0.86190281280E+01 -0.82411514643E+01  0.22732968911E+02  0.51100000000E-03 0. -1.
        -11    1    3    3    0    0 -0.18229579895E+01 -0.16845066168E+01 -0.51520371707E+00  0.25349898431E+01  0.51100000000E-03 0.  1.
        -12    1    3    3    0    0 -0.15119531951E+02 -0.13465345733E+02  0.98591978956E+01  0.22519315382E+02  0.00000000000E+00 0.  1.
</event>
<event>
 7    1  0.4621547E-010  0.4778727E+02  0.7816164E-02  0.1312668E+00
        -11   -1    0    0    0    0  0.00000000000E+00  0.00000000000E+00  0.45593999997E+02  0.45594000000E+02  0.51100000000E-03 0. -1.
         11   -1    0    0    0    0 -0.00000000000E+00 -0.00000000000E+00 -0.45593999997E+02  0.45594000000E+02  0.51100000000E-03 0.  1.
    9900012    2    1    2    0    0  0.30852433461E+02  0.26538962747E+01  0.30409001715E+02  0.47787271881E+02  0.20000003815E+02 0.  0.
        -12    1    1    2    0    0 -0.30852433461E+02 -0.26538962747E+01 -0.30409001715E+02  0.43400728119E+02  0.00000000000E+00 0.  1.
         11    1    3    3    0    0  0.62947128020E+01  0.51380497050E+01  0.10859895324E+02  0.13563196185E+02  0.51100000000E-03 0. -1.
        -11    1    3    3    0    0  0.78611474745E-01 -0.35317582954E+01  0.32189605696E+01  0.47792472034E+01  0.51100000000E-03 0.  1.
         12    1    3    3    0    0  0.24479109185E+02  0.10476048651E+01  0.16330145821E+02  0.29444828493E+02  0.00000000000E+00 0. -1.
</event>
<event>
 7    1  0.4621547E-010  0.4778728E+02  0.7816164E-02  0.1312668E+00
        -11   -1    0    0    0    0  0.00000000000E+00  0.00000000000E+00  0.45593999997E+02  0.45594000000E+02  0.51100000000E-03 0.  1.
         11   -1    0    0    0    0 -0.00000000000E+00 -0.00000000000E+00 -0.45593999997E+02  0.45594000000E+02  0.51100000000E-03 0. -1.
    9900012    2    1    2    0    0 -0.16216030393E+02  0.39577059032E+02 -0.73701580429E+01  0.47787280272E+02  0.20000042071E+02 0.  0.
        -12    1    1    2    0    0  0.16216030393E+02 -0.39577059032E+02  0.73701580429E+01  0.43400719728E+02  0.00000000000E+00 0.  1.
         11    1    3    3    0    0 -0.23647019378E+01  0.10263635301E+02 -0.10450620308E+02  0.14837435423E+02  0.51100000000E-03 0. -1.
        -11    1    3    3    0    0 -0.55974422903E+01  0.69065068789E+01  0.14339351264E+00  0.88911056355E+01  0.51100000000E-03 0.  1.
         12    1    3    3    0    0 -0.82538861646E+01  0.22406916853E+02  0.29370687528E+01  0.24058739213E+02  0.00000000000E+00 0. -1.
</event>
<event>
 7    1  0.4621547E-010  0.4778727E+02  0.7816164E-02  0.1312668E+00
        -11   -1    0    0    0    0  0.00000000000E+00  0.00000000000E+00  0.45593999997E+02  0.45594000000E+02  0.51100000000E-03 0.  1.
         11   -1    0    0    0    0 -0.00000000000E+00 -0.00000000000E+00 -0.45593999997E+02  0.45594000000E+02  0.51100000000E-03 0. -1.
    9900012    2    1    2    0    0 -0.22708354727E+02  0.30301132203E+02 -0.21208385399E+02  0.47787267306E+02  0.19999982955E+02 0.  0.
        -12    1    1    2    0    0  0.22708354727E+02 -0.30301132203E+02  0.21208385399E+02  0.43400732694E+02  0.00000000000E+00 0.  1.
         11    1    3    3    0    0 -0.11155123302E+02  0.21701613067E+01 -0.63768570518E+01  0.13031142778E+02  0.51100000000E-03 0. -1.
        -11    1    3    3    0    0 -0.31579488601E+01  0.57517123082E+01 -0.70218818742E+01  0.96104974270E+01  0.51100000000E-03 0.  1.
        -12    1    3    3    0    0 -0.83952825650E+01  0.22379258588E+02 -0.78096464727E+01  0.25145627101E+02  0.00000000000E+00 0.  1.
</event>
<event>
 7    1  0.4621547E-010  0.4778728E+02  0.7816164E-02  0.1312668E+00
        -11   -1    0    0    0    0  0.00000000000E+00  0.00000000000E+00  0.45593999997E+02  0.45594000000E+02  0.51100000000E-03 0. -1.
         11   -1    0    0    0    0 -0.00000000000E+00 -0.00000000000E+00 -0.45593999997E+02  0.45594000000E+02  0.51100000000E-03 0.  1.
    9900012    2    1    2    0    0  0.15943461551E+02 -0.15156886824E+02  0.37412531858E+02  0.47787277374E+02  0.20000028857E+02 0.  0.
        -12    1    1    2    0    0 -0.15943461551E+02  0.15156886824E+02 -0.37412531858E+02  0.43400722626E+02  0.00000000000E+00 0.  1.
         11    1    3    3    0    0  0.38869094153E+01  0.33525927864E+01  0.44713326513E+01  0.68074047282E+01  0.51100000000E-03 0.  1.
        -11    1    3    3    0    0  0.25331304918E+01  0.72968204429E+00  0.19463746753E+01  0.32768217242E+01  0.51100000000E-03 0. -1.
         12    1    3    3    0    0  0.95234216440E+01 -0.19239161655E+02  0.30994824532E+02  0.37703050921E+02  0.00000000000E+00 0. -1.
</event>
<event>
 7    1  0.4621547E-010  0.4778729E+02  0.7816164E-02  0.1312668E+00
        -11   -1    0    0    0    0  0.00000000000E+00  0.00000000000E+00  0.45593999997E+02  0.45594000000E+02  0.51100000000E-03 0.  1.
         11   -1    0    0    0    0 -0.00000000000E+00 -0.00000000000E+00 -0.45593999997E+02  0.45594000000E+02  0.51100000000E-03 0. -1.
    9900012    2    1    2    0    0  0.54638100737E+01  0.24026145273E+02 -0.35728321801E+02  0.47787287380E+02  0.20000074482E+02 0.  0.
        -12    1    1    2    0    0 -0.54638100737E+01 -0.24026145273E+02  0.35728321801E+02  0.43400712620E+02  0.00000000000E+00 0.  1.
         11    1    3    3    0    0  0.11052163038E+01  0.83358800095E+01 -0.12238832047E+02  0.14849155152E+02  0.51100000000E-03 0. -1.
        -11    1    3    3    0    0  0.14893847372E+01  0.10015133096E+02 -0.24490104076E+02  0.26500685948E+02  0.51100000000E-03 0.  1.
        -12    1    3    3    0    0  0.28692090328E+01  0.56751321668E+01  0.10006143215E+01  0.64374462797E+01  0.00000000000E+00 0.  1.
</event>
<event>
 7    1  0.4621547E-010  0.4778727E+02  0.7816164E-02  0.1312668E+00
        -11   -1    0    0    0    0  0.00000000000E+00  0.00000000000E+00  0.45593999997E+02  0.45594000000E+02  0.51100000000E-03 0.  1.
         11   -1    0    0    0    0 -0.00000000000E+00 -0.00000000000E+00 -0.45593999997E+02  0.45594000000E+02  0.51100000000E-03 0. -1.
    9900012    2    1    2    0    0 -0.33981908413E+02  0.32965034419E+01 -0.26795264531E+02  0.47787271485E+02  0.20000002007E+02 0.  0.
        -12    1    1    2    0    0  0.33981908413E+02 -0.32965034419E+01  0.26795264531E+02  0.43400728515E+02  0.00000000000E+00 0.  1.
         11    1    3    3    0    0 -0.17711386048E+02  0.59366225413E+01 -0.74095071802E+01  0.20095707996E+02  0.51100000000E-03 0. -1.
        -11    1    3    3    0    0  0.56423860218E+00 -0.44618255783E+00  0.95580606216E+00  0.11962481200E+01  0.51100000000E-03 0.  1.
        -12    1    3    3    0    0 -0.16834760967E+02 -0.21939365416E+01 -0.20341563413E+02  0.26495315368E+02  0.00000000000E+00 0.  1.
</event>
<event>
 7    1  0.4621547E-010  0.4778727E+02  0.7816164E-02  0.1312668E+00
        -11   -1    0    0    0    0  0.00000000000E+00  0.00000000000E+00  0.45593999997E+02  0.45594000000E+02  0.51100000000E-03 0.  1.
         11   -1    0    0    0    0 -0.00000000000E+00 -0.00000000000E+00 -0.45593999997E+02  0.45594000000E+02  0.51100000000E-03 0. -1.
    9900012    2    1    2    0    0  0.33584464950E+02  0.26176106369E+02  0.83975272327E+01  0.47787270810E+02  0.19999998931E+02 0.  0.
        -12    1    1    2    0    0 -0.33584464950E+02 -0.26176106369E+02 -0.83975272327E+01  0.43400729190E+02  0.00000000000E+00 0.  1.
         11    1    3    3    0    0  0.16809594405E+02  0.11144756627E+02  0.81582388978E+01  0.21756031957E+02  0.51100000000E-03 0. -1.
        -11    1    3    3    0    0  0.54735257624E+01  0.12665733980E+02  0.30870524561E+01  0.14138960168E+02  0.51100000000E-03 0.  1.
        -12    1    3    3    0    0  0.11301344782E+02  0.23656157621E+01 -0.28477641212E+01  0.11892278685E+02  0.00000000000E+00 0.  1.
</event>
<event>
 7    1  0.4621547E-010  0.4778727E+02  0.7816164E-02  0.1312668E+00
        -11   -1    0    0    0    0  0.00000000000E+00  0.00000000000E+00  0.45593999997E+02  0.45594000000E+02  0.51100000000E-03 0. -1.
         11   -1    0    0    0    0 -0.00000000000E+00 -0.00000000000E+00 -0.45593999997E+02  0.45594000000E+02  0.51100000000E-03 0.  1.
    9900012    2    1    2    0    0  0.18869481811E+02 -0.15093669254E+02  0.36052007166E+02  0.47787269406E+02  0.19999992532E+02 0.  0.
        -12    1    1    2    0    0 -0.18869481811E+02  0.15093669254E+02 -0.36052007166E+02  0.43400730594E+02  0.00000000000E+00 0.  1.
         11    1    3    3    0    0 -0.11819308176E+01 -0.27383798680E+00  0.82192966661E+00  0.14654406636E+01  0.51100000000E-03 0. -1.
        -11    1    3    3    0    0 -0.29346373512E+01 -0.25157400436E+01  0.31718015581E+01  0.50001369716E+01  0.51100000000E-03 0.  1.
         12    1    3    3    0    0  0.22986049980E+02 -0.12304091223E+02  0.32058275941E+02  0.41321691771E+02  0.00000000000E+00 0. -1.
</event>
<event>
 7    1  0.4621547E-010  0.4778727E+02  0.7816164E-02  0.1312668E+00
        -11   -1    0    0    0    0  0.00000000000E+00  0.00000000000E+00  0.45593999997E+02  0.45594000000E+02  0.51100000000E-03 0.  1.
         11   -1    0    0    0    0 -0.00000000000E+00 -0.00000000000E+00 -0.45593999997E+02  0.45594000000E+02  0.51100000000E-03 0. -1.
    9900012    2    1    2    0    0  0.32672570568E+02  0.11734304553E+02 -0.26046738271E+02  0.47787270220E+02  0.19999996243E+02 0.  0.
        -12    1    1    2    0    0 -0.32672570568E+02 -0.11734304553E+02  0.26046738271E+02  0.43400729780E+02  0.00000000000E+00 0.  1.
         11    1    3    3    0    0  0.95366736521E+01  0.16607126239E+01 -0.18004957969E+02  0.20442226456E+02  0.51100000000E-03 0. -1.
        -11    1    3    3    0    0  0.12690571892E+02  0.35394776846E+01 -0.71551562805E+01  0.14992490750E+02  0.51100000000E-03 0.  1.
        -12    1    3    3    0    0  0.10445325024E+02  0.65341142450E+01 -0.88662402154E+00  0.12352553015E+02  0.00000000000E+00 0.  1.
</event>
<event>
 7    1  0.4621547E-010  0.4778724E+02  0.7816164E-02  0.1312668E+00
        -11   -1    0    0    0    0  0.00000000000E+00  0.00000000000E+00  0.45593999997E+02  0.45594000000E+02  0.51100000000E-03 0.  1.
         11   -1    0    0    0    0 -0.00000000000E+00 -0.00000000000E+00 -0.45593999997E+02  0.45594000000E+02  0.51100000000E-03 0. -1.
    9900012    2    1    2    0    0  0.49292786187E+01  0.22511250013E+02 -0.36777330152E+02  0.47787237588E+02  0.19999847457E+02 0.  0.
        -12    1    1    2    0    0 -0.49292786187E+01 -0.22511250013E+02  0.36777330152E+02  0.43400762412E+02  0.00000000000E+00 0.  1.
         11    1    3    3    0    0  0.38930737127E+01  0.22484872268E+01 -0.16959105386E+02  0.17544884539E+02  0.51100000000E-03 0. -1.
        -11    1    3    3    0    0 -0.83711161399E+00 -0.80327150402E+00 -0.30152334190E+01  0.32307327026E+01  0.51100000000E-03 0.  1.
         12    1    3    3    0    0  0.18733165199E+01  0.21066034290E+02 -0.16802991348E+02  0.27011620346E+02  0.00000000000E+00 0. -1.
</event>
<event>
 7    1  0.4621547E-010  0.4778727E+02  0.7816164E-02  0.1312668E+00
        -11   -1    0    0    0    0  0.00000000000E+00  0.00000000000E+00  0.45593999997E+02  0.45594000000E+02  0.51100000000E-03 0. -1.
         11   -1    0    0    0    0 -0.00000000000E+00 -0.00000000000E+00 -0.45593999997E+02  0.45594000000E+02  0.51100000000E-03 0.  1.
    9900012    2    1    2    0    0  0.47808381928E+01  0.43034308363E+02  0.29689975538E+01  0.47787273548E+02  0.20000011413E+02 0.  0.
        -12    1    1    2    0    0 -0.47808381928E+01 -0.43034308363E+02 -0.29689975538E+01  0.43400726452E+02  0.00000000000E+00 0.  1.
         11    1    3    3    0    0  0.23121390051E+01  0.32921228285E+01  0.48923398966E+00  0.40525806167E+01  0.51100000000E-03 0. -1.
        -11    1    3    3    0    0  0.65975461700E+00  0.30686992476E+02 -0.59106511027E+01  0.31258000257E+02  0.51100000000E-03 0.  1.
         12    1    3    3    0    0  0.18089445707E+01  0.90551930591E+01  0.83904146668E+01  0.12476692674E+02  0.00000000000E+00 0. -1.
</event>
<event>
 7    1  0.4621547E-010  0.4778727E+02  0.7816164E-02  0.1312668E+00
        -11   -1    0    0    0    0  0.00000000000E+00  0.00000000000E+00  0.45593999997E+02  0.45594000000E+02  0.51100000000E-03 0. -1.
         11   -1    0    0    0    0 -0.00000000000E+00 -0.00000000000E+00 -0.45593999997E+02  0.45594000000E+02  0.51100000000E-03 0.  1.
    9900012    2    1    2    0    0  0.33319027225E+01  0.43088759604E+02  0.39850493772E+01  0.47787269608E+02  0.19999993453E+02 0.  0.
        -12    1    1    2    0    0 -0.33319027225E+01 -0.43088759604E+02 -0.39850493772E+01  0.43400730392E+02  0.00000000000E+00 0.  1.
         11    1    3    3    0    0 -0.36877068650E+01  0.26681480797E+02 -0.22967997251E+01  0.27032866824E+02  0.51100000000E-03 0. -1.
        -11    1    3    3    0    0 -0.11870455455E+01  0.69211844326E+01  0.80752475937E+00  0.70685194755E+01  0.51100000000E-03 0.  1.
        -12    1    3    3    0    0  0.82066551329E+01  0.94860943742E+01  0.54743243430E+01  0.13685883309E+02  0.00000000000E+00 0.  1.
</event>
<event>
 7    1  0.4621547E-010  0.4778727E+02  0.7816164E-02  0.1312668E+00
        -11   -1    0    0    0    0  0.00000000000E+00  0.00000000000E+00  0.45593999997E+02  0.45594000000E+02  0.51100000000E-03 0. -1.
         11   -1    0    0    0    0 -0.00000000000E+00 -0.00000000000E+00 -0.45593999997E+02  0.45594000000E+02  0.51100000000E-03 0.  1.
    9900012    2    1    2    0    0  0.23755310685E+02 -0.25434588653E+02 -0.25930492908E+02  0.47787267885E+02  0.19999985596E+02 0.  0.
        -12    1    1    2    0    0 -0.23755310685E+02  0.25434588653E+02  0.25930492908E+02  0.43400732115E+02  0.00000000000E+00 0.  1.
         11    1    3    3    0    0  0.13186797114E+02 -0.12281820475E+02 -0.73146147283E+01  0.19448350089E+02  0.51100000000E-03 0. -1.
        -11    1    3    3    0    0  0.49573485015E+01 -0.14703517729E+02 -0.12872215829E+02  0.20160919582E+02  0.51100000000E-03 0.  1.
        -12    1    3    3    0    0  0.56111650694E+01  0.15507495510E+01 -0.57436623498E+01  0.81779982144E+01  0.00000000000E+00 0.  1.
</event>
<event>
 7    1  0.4621547E-010  0.4778727E+02  0.7816164E-02  0.1312668E+00
        -11   -1    0    0    0    0  0.00000000000E+00  0.00000000000E+00  0.45593999997E+02  0.45594000000E+02  0.51100000000E-03 0. -1.
         11   -1    0    0    0    0 -0.00000000000E+00 -0.00000000000E+00 -0.45593999997E+02  0.45594000000E+02  0.51100000000E-03 0.  1.
    9900012    2    1    2    0    0  0.47822440740E+01 -0.20727455842E+02  0.37830224060E+02  0.47787272627E+02  0.20000007214E+02 0.  0.
        -12    1    1    2    0    0 -0.47822440740E+01  0.20727455842E+02 -0.37830224060E+02  0.43400727373E+02  0.00000000000E+00 0.  1.
         11    1    3    3    0    0  0.28030092049E+01 -0.27423609108E+01  0.81427062955E+01  0.90377580208E+01  0.51100000000E-03 0. -1.
        -11    1    3    3    0    0 -0.35368379663E+01  0.15459502795E+01  0.18002885408E+01  0.42591342028E+01  0.51100000000E-03 0.  1.
         12    1    3    3    0    0  0.55160728354E+01 -0.19531045211E+02  0.27887229224E+02  0.34490380403E+02  0.00000000000E+00 0. -1.
</event>
<event>
 7    1  0.4621547E-010  0.4778727E+02  0.7816164E-02  0.1312668E+00
        -11   -1    0    0    0    0  0.00000000000E+00  0.00000000000E+00  0.45593999997E+02  0.45594000000E+02  0.51100000000E-03 0. -1.
         11   -1    0    0    0    0 -0.00000000000E+00 -0.00000000000E+00 -0.45593999997E+02  0.45594000000E+02  0.51100000000E-03 0.  1.
    9900012    2    1    2    0    0 -0.23921853402E+02 -0.34005695982E+02  0.12449148645E+02  0.47787265773E+02  0.19999975967E+02 0.  0.
        -12    1    1    2    0    0  0.23921853402E+02  0.34005695982E+02 -0.12449148645E+02  0.43400734227E+02  0.00000000000E+00 0.  1.
         11    1    3    3    0    0 -0.27507484707E+01 -0.21955415175E+01  0.61630767323E+01  0.70972202145E+01  0.51100000000E-03 0. -1.
        -11    1    3    3    0    0 -0.33636279662E+01 -0.13217055548E+02  0.61097591388E+01  0.14944353698E+02  0.51100000000E-03 0.  1.
         12    1    3    3    0    0 -0.17807476965E+02 -0.18593098916E+02  0.17631277369E+00  0.25745691860E+02  0.00000000000E+00 0. -1.
</event>
<event>
 7    1  0.4621547E-010  0.4778727E+02  0.7816164E-02  0.1312668E+00
        -11   -1    0    0    0    0  0.00000000000E+00  0.00000000000E+00  0.45593999997E+02  0.45594000000E+02  0.51100000000E-03 0. -1.
         11   -1    0    0    0    0 -0.00000000000E+00 -0.00000000000E+00 -0.45593999997E+02  0.45594000000E+02  0.51100000000E-03 0.  1.
    9900012    2    1    2    0    0  0.39639991863E+02  0.45471875090E+01  0.17076809902E+02  0.47787270679E+02  0.19999998334E+02 0.  0.
        -12    1    1    2    0    0 -0.39639991863E+02 -0.45471875090E+01 -0.17076809902E+02  0.43400729321E+02  0.00000000000E+00 0.  1.
         11    1    3    3    0    0  0.69689711574E+01  0.51812535427E+01  0.35921687600E+01  0.93976392742E+01  0.51100000000E-03 0. -1.
        -11    1    3    3    0    0  0.28769350431E+01 -0.39168158407E+01 -0.12082845249E+01  0.50078092342E+01  0.51100000000E-03 0.  1.
         12    1    3    3    0    0  0.29794085663E+02  0.32827498070E+01  0.14692925667E+02  0.33381822171E+02  0.00000000000E+00 0. -1.
</event>
<event>
 7    1  0.4621547E-010  0.4778728E+02  0.7816164E-02  0.1312668E+00
        -11   -1    0    0    0    0  0.00000000000E+00  0.00000000000E+00  0.45593999997E+02  0.45594000000E+02  0.51100000000E-03 0.  1.
         11   -1    0    0    0    0 -0.00000000000E+00 -0.00000000000E+00 -0.45593999997E+02  0.45594000000E+02  0.51100000000E-03 0. -1.
    9900012    2    1    2    0    0  0.33087970455E+02  0.26517781173E+02 -0.92528855488E+01  0.47787281134E+02  0.20000046000E+02 0.  0.
        -12    1    1    2    0    0 -0.33087970455E+02 -0.26517781173E+02  0.92528855488E+01  0.43400718866E+02  0.00000000000E+00 0.  1.
         11    1    3    3    0    0  0.11974141040E+02  0.13927042570E+02 -0.28864651766E+01  0.18592316958E+02  0.51100000000E-03 0. -1.
        -11    1    3    3    0    0  0.16988897199E+02  0.13291020678E+02  0.78583438148E-02  0.21570209102E+02  0.51100000000E-03 0.  1.
         12    1    3    3    0    0  0.41249322163E+01 -0.70028207580E+00 -0.63742787160E+01  0.76247550731E+01  0.00000000000E+00 0. -1.
</event>
<event>
 7    1  0.4621547E-010  0.4778727E+02  0.7816164E-02  0.1312668E+00
        -11   -1    0    0    0    0  0.00000000000E+00  0.00000000000E+00  0.45593999997E+02  0.45594000000E+02  0.51100000000E-03 0. -1.
         11   -1    0    0    0    0 -0.00000000000E+00 -0.00000000000E+00 -0.45593999997E+02  0.45594000000E+02  0.51100000000E-03 0.  1.
    9900012    2    1    2    0    0  0.34695601501E+02 -0.23962303912E+02 -0.10278449726E+02  0.47787270732E+02  0.19999998574E+02 0.  0.
        -12    1    1    2    0    0 -0.34695601501E+02  0.23962303912E+02  0.10278449726E+02  0.43400729268E+02  0.00000000000E+00 0.  1.
         11    1    3    3    0    0  0.15652471150E+02 -0.66559079159E+01  0.11899928426E+01  0.17050426579E+02  0.51100000000E-03 0. -1.
        -11    1    3    3    0    0  0.42204034996E+01 -0.56058530230E+01  0.22799310492E+01  0.73780403676E+01  0.51100000000E-03 0.  1.
         12    1    3    3    0    0  0.14822726851E+02 -0.11700542973E+02 -0.13748373617E+02  0.23358803785E+02  0.00000000000E+00 0. -1.
</event>
<event>
 7    1  0.4621547E-010  0.4778728E+02  0.7816164E-02  0.1312668E+00
        -11   -1    0    0    0    0  0.00000000000E+00  0.00000000000E+00  0.45593999997E+02  0.45594000000E+02  0.51100000000E-03 0. -1.
         11   -1    0    0    0    0 -0.00000000000E+00 -0.00000000000E+00 -0.45593999997E+02  0.45594000000E+02  0.51100000000E-03 0.  1.
    9900012    2    1    2    0    0 -0.35622535349E+01 -0.21023671616E+02  0.37801298221E+02  0.47787279204E+02  0.20000037202E+02 0.  0.
        -12    1    1    2    0    0  0.35622535349E+01  0.21023671616E+02 -0.37801298221E+02  0.43400720796E+02  0.00000000000E+00 0.  1.
         11    1    3    3    0    0  0.59714649896E+00 -0.37570386030E+01  0.17537549081E+02  0.17945404733E+02  0.51100000000E-03 0. -1.
        -11    1    3    3    0    0  0.42668925542E+01 -0.61659314302E+01  0.10163354633E+02  0.12630077598E+02  0.51100000000E-03 0.  1.
         12    1    3    3    0    0 -0.84262925881E+01 -0.11100701582E+02  0.10100394506E+02  0.17211796873E+02  0.00000000000E+00 0. -1.
</event>
<event>
 7    1  0.4621547E-010  0.4778726E+02  0.7816164E-02  0.1312668E+00
        -11   -1    0    0    0    0  0.00000000000E+00  0.00000000000E+00  0.45593999997E+02  0.45594000000E+02  0.51100000000E-03 0. -1.
         11   -1    0    0    0    0 -0.00000000000E+00 -0.00000000000E+00 -0.45593999997E+02  0.45594000000E+02  0.51100000000E-03 0.  1.
    9900012    2    1    2    0    0  0.37810162950E+02 -0.14231793968E+01  0.21260071892E+02  0.47787256703E+02  0.19999934613E+02 0.  0.
        -12    1    1    2    0    0 -0.37810162950E+02  0.14231793968E+01 -0.21260071892E+02  0.43400743297E+02  0.00000000000E+00 0.  1.
         11    1    3    3    0    0  0.10510328360E+02  0.10246454405E+01  0.37580922685E+01  0.11208932076E+02  0.51100000000E-03 0. -1.
        -11    1    3    3    0    0  0.15194136605E+01  0.34635117064E+01  0.73150182961E+01  0.82349270880E+01  0.51100000000E-03 0.  1.
        -12    1    3    3    0    0  0.25780420929E+02 -0.59113365437E+01  0.10186961327E+02  0.28343397540E+02  0.00000000000E+00 0.  1.
</event>
<event>
 7    1  0.4621547E-010  0.4778727E+02  0.7816164E-02  0.1312668E+00
        -11   -1    0    0    0    0  0.00000000000E+00  0.00000000000E+00  0.45593999997E+02  0.45594000000E+02  0.51100000000E-03 0.  1.
         11   -1    0    0    0    0 -0.00000000000E+00 -0.00000000000E+00 -0.45593999997E+02  0.45594000000E+02  0.51100000000E-03 0. -1.
    9900012    2    1    2    0    0 -0.11683380335E+02  0.20046227221E+02 -0.36677929913E+02  0.47787272535E+02  0.20000006795E+02 0.  0.
        -12    1    1    2    0    0  0.11683380335E+02 -0.20046227221E+02  0.36677929913E+02  0.43400727465E+02  0.00000000000E+00 0.  1.
         11    1    3    3    0    0  0.57521081921E-01 -0.74419815156E-02  0.70255235363E+00  0.70494264211E+00  0.51100000000E-03 0. -1.
        -11    1    3    3    0    0  0.78017469116E+00  0.15072828380E+02 -0.21234021033E+02  0.26051535030E+02  0.51100000000E-03 0.  1.
         12    1    3    3    0    0 -0.12521076108E+02  0.49808408222E+01 -0.16146461233E+02  0.21030794863E+02  0.00000000000E+00 0. -1.
</event>
<event>
 7    1  0.4621547E-010  0.4778726E+02  0.7816164E-02  0.1312668E+00
        -11   -1    0    0    0    0  0.00000000000E+00  0.00000000000E+00  0.45593999997E+02  0.45594000000E+02  0.51100000000E-03 0.  1.
         11   -1    0    0    0    0 -0.00000000000E+00 -0.00000000000E+00 -0.45593999997E+02  0.45594000000E+02  0.51100000000E-03 0. -1.
    9900012    2    1    2    0    0  0.13870546567E+02  0.80566499689E+01 -0.40327692055E+02  0.47787257872E+02  0.19999939942E+02 0.  0.
        -12    1    1    2    0    0 -0.13870546567E+02 -0.80566499689E+01  0.40327692055E+02  0.43400742128E+02  0.00000000000E+00 0.  1.
         11    1    3    3    0    0  0.69763021618E+00  0.23585398718E+01 -0.15939676213E+01  0.29308925746E+01  0.51100000000E-03 0. -1.
        -11    1    3    3    0    0  0.15482551802E+02  0.50365733394E+01 -0.19192501832E+02  0.25168007631E+02  0.51100000000E-03 0.  1.
         12    1    3    3    0    0 -0.23096354519E+01  0.66153675770E+00 -0.19541222602E+02  0.19688357666E+02  0.00000000000E+00 0. -1.
</event>
<event>
 7    1  0.4621547E-010  0.4778727E+02  0.7816164E-02  0.1312668E+00
        -11   -1    0    0    0    0  0.00000000000E+00  0.00000000000E+00  0.45593999997E+02  0.45594000000E+02  0.51100000000E-03 0.  1.
         11   -1    0    0    0    0 -0.00000000000E+00 -0.00000000000E+00 -0.45593999997E+02  0.45594000000E+02  0.51100000000E-03 0. -1.
    9900012    2    1    2    0    0  0.17185388560E+02 -0.29822207144E+02 -0.26437125164E+02  0.47787271829E+02  0.20000003575E+02 0.  0.
        -12    1    1    2    0    0 -0.17185388560E+02  0.29822207144E+02  0.26437125164E+02  0.43400728171E+02  0.00000000000E+00 0.  1.
         11    1    3    3    0    0 -0.24713185085E+01 -0.10512609186E+02 -0.51950009900E+01  0.11983755781E+02  0.51100000000E-03 0. -1.
        -11    1    3    3    0    0  0.24564753046E+01 -0.88791027110E-01 -0.42710507209E+01  0.49278828406E+01  0.51100000000E-03 0.  1.
        -12    1    3    3    0    0  0.17200231764E+02 -0.19220806930E+02 -0.16971073453E+02  0.30875633207E+02  0.00000000000E+00 0.  1.
</event>
<event>
 7    1  0.4621547E-010  0.4778727E+02  0.7816164E-02  0.1312668E+00
        -11   -1    0    0    0    0  0.00000000000E+00  0.00000000000E+00  0.45593999997E+02  0.45594000000E+02  0.51100000000E-03 0. -1.
         11   -1    0    0    0    0 -0.00000000000E+00 -0.00000000000E+00 -0.45593999997E+02  0.45594000000E+02  0.51100000000E-03 0.  1.
    9900012    2    1    2    0    0  0.24470658897E+02  0.33416548404E+02  0.12967051625E+02  0.47787270952E+02  0.19999999577E+02 0.  0.
        -12    1    1    2    0    0 -0.24470658897E+02 -0.33416548404E+02 -0.12967051625E+02  0.43400729048E+02  0.00000000000E+00 0.  1.
         11    1    3    3    0    0  0.15661238709E+02  0.12120011902E+02  0.10372337017E+02  0.22355188701E+02  0.51100000000E-03 0. -1.
        -11    1    3    3    0    0  0.29997183589E+01  0.56282907730E+01  0.55591519488E+01  0.84605045895E+01  0.51100000000E-03 0.  1.
        -12    1    3    3    0    0  0.58097018290E+01  0.15668245729E+02 -0.29644373401E+01  0.16971577662E+02  0.00000000000E+00 0.  1.
</event>
<event>
 7    1  0.4621547E-010  0.4778728E+02  0.7816164E-02  0.1312668E+00
        -11   -1    0    0    0    0  0.00000000000E+00  0.00000000000E+00  0.45593999997E+02  0.45594000000E+02  0.51100000000E-03 0.  1.
         11   -1    0    0    0    0 -0.00000000000E+00 -0.00000000000E+00 -0.45593999997E+02  0.45594000000E+02  0.51100000000E-03 0. -1.
    9900012    2    1    2    0    0 -0.35623172483E+01  0.37215569039E+02  0.22043897131E+02  0.47787284755E+02  0.20000062513E+02 0.  0.
        -12    1    1    2    0    0  0.35623172483E+01 -0.37215569039E+02 -0.22043897131E+02  0.43400715245E+02  0.00000000000E+00 0.  1.
         11    1    3    3    0    0 -0.20017960206E+01  0.16111695130E+02  0.19856721034E+02  0.25649235422E+02  0.51100000000E-03 0.  1.
        -11    1    3    3    0    0 -0.30976756210E+01  0.81137450797E+01  0.25522161705E+01  0.90521964801E+01  0.51100000000E-03 0. -1.
        -12    1    3    3    0    0  0.15371543933E+01  0.12990128829E+02 -0.36504007404E+00  0.13085852853E+02  0.00000000000E+00 0.  1.
</event>
<event>
 7    1  0.4621547E-010  0.4778727E+02  0.7816164E-02  0.1312668E+00
        -11   -1    0    0    0    0  0.00000000000E+00  0.00000000000E+00  0.45593999997E+02  0.45594000000E+02  0.51100000000E-03 0.  1.
         11   -1    0    0    0    0 -0.00000000000E+00 -0.00000000000E+00 -0.45593999997E+02  0.45594000000E+02  0.51100000000E-03 0. -1.
    9900012    2    1    2    0    0  0.13371043952E+02  0.21049667857E+02 -0.35521114827E+02  0.47787274985E+02  0.20000017967E+02 0.  0.
        -12    1    1    2    0    0 -0.13371043952E+02 -0.21049667857E+02  0.35521114827E+02  0.43400725015E+02  0.00000000000E+00 0.  1.
         11    1    3    3    0    0 -0.38167376280E-02  0.16560570458E+01 -0.16126378314E+01  0.23115234247E+01  0.51100000000E-03 0. -1.
        -11    1    3    3    0    0  0.12317240696E+02  0.87146529111E+01 -0.30809964749E+02  0.34306173232E+02  0.51100000000E-03 0.  1.
        -12    1    3    3    0    0  0.10576199930E+01  0.10678957900E+02 -0.30985122464E+01  0.11169578328E+02  0.00000000000E+00 0.  1.
</event>
<event>
 7    1  0.4621547E-010  0.4778727E+02  0.7816164E-02  0.1312668E+00
        -11   -1    0    0    0    0  0.00000000000E+00  0.00000000000E+00  0.45593999997E+02  0.45594000000E+02  0.51100000000E-03 0.  1.
         11   -1    0    0    0    0 -0.00000000000E+00 -0.00000000000E+00 -0.45593999997E+02  0.45594000000E+02  0.51100000000E-03 0. -1.
    9900012    2    1    2    0    0 -0.44891634317E+01  0.42501030011E+02 -0.75586494252E+01  0.47787270497E+02  0.19999997502E+02 0.  0.
        -12    1    1    2    0    0  0.44891634317E+01 -0.42501030011E+02  0.75586494252E+01  0.43400729503E+02  0.00000000000E+00 0.  1.
         11    1    3    3    0    0 -0.44348310687E+01  0.28822214482E+02 -0.62051412753E+00  0.29168010084E+02  0.51100000000E-03 0. -1.
        -11    1    3    3    0    0 -0.49098132747E+01  0.43652288113E+01 -0.12954743869E+01  0.66962484359E+01  0.51100000000E-03 0.  1.
         12    1    3    3    0    0  0.48554809117E+01  0.93135867178E+01 -0.56426609108E+01  0.11923011976E+02  0.00000000000E+00 0. -1.
</event>
<event>
 7    1  0.4621547E-010  0.4778728E+02  0.7816164E-02  0.1312668E+00
        -11   -1    0    0    0    0  0.00000000000E+00  0.00000000000E+00  0.45593999997E+02  0.45594000000E+02  0.51100000000E-03 0. -1.
         11   -1    0    0    0    0 -0.00000000000E+00 -0.00000000000E+00 -0.45593999997E+02  0.45594000000E+02  0.51100000000E-03 0.  1.
    9900012    2    1    2    0    0  0.19059337103E+01  0.27260612541E+02  0.33717192399E+02  0.47787278316E+02  0.20000033154E+02 0.  0.
        -12    1    1    2    0    0 -0.19059337103E+01 -0.27260612541E+02 -0.33717192399E+02  0.43400721684E+02  0.00000000000E+00 0.  1.
         11    1    3    3    0    0 -0.13563439062E+01 -0.35318792954E+00  0.11840267716E+01  0.18347561589E+01  0.51100000000E-03 0.  1.
        -11    1    3    3    0    0  0.20503588891E+01  0.12305736096E+02  0.26799715819E+02  0.29561121100E+02  0.51100000000E-03 0. -1.
         12    1    3    3    0    0  0.12119187274E+01  0.15308064375E+02  0.57334498078E+01  0.16391401057E+02  0.00000000000E+00 0. -1.
</event>
<event>
 7    1  0.4621547E-010  0.4778727E+02  0.7816164E-02  0.1312668E+00
        -11   -1    0    0    0    0  0.00000000000E+00  0.00000000000E+00  0.45593999997E+02  0.45594000000E+02  0.51100000000E-03 0.  1.
         11   -1    0    0    0    0 -0.00000000000E+00 -0.00000000000E+00 -0.45593999997E+02  0.45594000000E+02  0.51100000000E-03 0. -1.
    9900012    2    1    2    0    0 -0.10316852915E+02  0.29839522832E+02 -0.29778993880E+02  0.47787273584E+02  0.20000011579E+02 0.  0.
        -12    1    1    2    0    0  0.10316852915E+02 -0.29839522832E+02  0.29778993880E+02  0.43400726416E+02  0.00000000000E+00 0.  1.
         11    1    3    3    0    0 -0.13396557024E+01  0.18503543851E+02 -0.11432357504E+02  0.21791617903E+02  0.51100000000E-03 0. -1.
        -11    1    3    3    0    0 -0.66000720753E+01  0.59170867892E+01 -0.26980690810E+01  0.92656594205E+01  0.51100000000E-03 0.  1.
         12    1    3    3    0    0 -0.23771251373E+01  0.54188921920E+01 -0.15648567295E+02  0.16729996261E+02  0.00000000000E+00 0. -1.
</event>
<event>
 7    1  0.4621547E-010  0.4778727E+02  0.7816164E-02  0.1312668E+00
        -11   -1    0    0    0    0  0.00000000000E+00  0.00000000000E+00  0.45593999997E+02  0.45594000000E+02  0.51100000000E-03 0. -1.
         11   -1    0    0    0    0 -0.00000000000E+00 -0.00000000000E+00 -0.45593999997E+02  0.45594000000E+02  0.51100000000E-03 0.  1.
    9900012    2    1    2    0    0  0.47363294060E+01  0.43081283496E+02 -0.22789341240E+01  0.47787270229E+02  0.19999996283E+02 0.  0.
        -12    1    1    2    0    0 -0.47363294060E+01 -0.43081283496E+02  0.22789341240E+01  0.43400729771E+02  0.00000000000E+00 0.  1.
         11    1    3    3    0    0 -0.36126352709E+01  0.17303490692E+02 -0.37196535985E+01  0.18063713541E+02  0.51100000000E-03 0. -1.
        -11    1    3    3    0    0  0.23553744767E+01  0.11621269329E+02 -0.52373317964E+01  0.12962690089E+02  0.51100000000E-03 0.  1.
        -12    1    3    3    0    0  0.59935902002E+01  0.14156523475E+02  0.66780512709E+01  0.16760866600E+02  0.00000000000E+00 0.  1.
</event>
<event>
 7    1  0.4621547E-010  0.4778725E+02  0.7816164E-02  0.1312668E+00
        -11   -1    0    0    0    0  0.00000000000E+00  0.00000000000E+00  0.45593999997E+02  0.45594000000E+02  0.51100000000E-03 0.  1.
         11   -1    0    0    0    0 -0.00000000000E+00 -0.00000000000E+00 -0.45593999997E+02  0.45594000000E+02  0.51100000000E-03 0. -1.
    9900012    2    1    2    0    0  0.35508434348E+02 -0.13624044854E+02 -0.20908405516E+02  0.47787251973E+02  0.19999913047E+02 0.  0.
        -12    1    1    2    0    0 -0.35508434348E+02  0.13624044854E+02  0.20908405516E+02  0.43400748027E+02  0.00000000000E+00 0.  1.
         11    1    3    3    0    0  0.20293353430E+02 -0.60277526152E+01 -0.15786054531E+02  0.26407451845E+02  0.51100000000E-03 0. -1.
        -11    1    3    3    0    0  0.97783041808E+01 -0.79099840343E+01 -0.83054462879E+01  0.15071944744E+02  0.51100000000E-03 0.  1.
        -12    1    3    3    0    0  0.54367767377E+01  0.31369179507E+00  0.31830953031E+01  0.63078553841E+01  0.00000000000E+00 0.  1.
</event>
<event>
 7    1  0.4621547E-010  0.4778727E+02  0.7816164E-02  0.1312668E+00
        -11   -1    0    0    0    0  0.00000000000E+00  0.00000000000E+00  0.45593999997E+02  0.45594000000E+02  0.51100000000E-03 0.  1.
         11   -1    0    0    0    0 -0.00000000000E+00 -0.00000000000E+00 -0.45593999997E+02  0.45594000000E+02  0.51100000000E-03 0. -1.
    9900012    2    1    2    0    0 -0.79149153042E+01  0.57309346630E+01 -0.42286332058E+02  0.47787269875E+02  0.19999994670E+02 0.  0.
        -12    1    1    2    0    0  0.79149153042E+01 -0.57309346630E+01  0.42286332058E+02  0.43400730125E+02  0.00000000000E+00 0.  1.
         11    1    3    3    0    0  0.39931943626E+01  0.32051418137E+00 -0.11281966314E+02  0.11972096505E+02  0.51100000000E-03 0. -1.
        -11    1    3    3    0    0 -0.26153814046E+01 -0.39465115015E+01 -0.77444538984E+01  0.90769895543E+01  0.51100000000E-03 0.  1.
        -12    1    3    3    0    0 -0.92927282622E+01  0.93569319832E+01 -0.23259911846E+02  0.26738183816E+02  0.00000000000E+00 0.  1.
</event>
<event>
 7    1  0.4621547E-010  0.4778727E+02  0.7816164E-02  0.1312668E+00
        -11   -1    0    0    0    0  0.00000000000E+00  0.00000000000E+00  0.45593999997E+02  0.45594000000E+02  0.51100000000E-03 0.  1.
         11   -1    0    0    0    0 -0.00000000000E+00 -0.00000000000E+00 -0.45593999997E+02  0.45594000000E+02  0.51100000000E-03 0. -1.
    9900012    2    1    2    0    0  0.32539764199E+02  0.59667150454E+01 -0.28092444353E+02  0.47787269911E+02  0.19999994831E+02 0.  0.
        -12    1    1    2    0    0 -0.32539764199E+02 -0.59667150454E+01  0.28092444353E+02  0.43400730089E+02  0.00000000000E+00 0.  1.
         11    1    3    3    0    0  0.11469043389E+02  0.29653618582E+01 -0.16147513660E+02  0.20026845105E+02  0.51100000000E-03 0. -1.
        -11    1    3    3    0    0  0.12564432585E+02  0.50949060761E+01 -0.13186032615E+02  0.18912812866E+02  0.51100000000E-03 0.  1.
        -12    1    3    3    0    0  0.85062882244E+01 -0.20935528889E+01  0.12411019218E+01  0.88476119397E+01  0.00000000000E+00 0.  1.
</event>
<event>
 7    1  0.4621547E-010  0.4778725E+02  0.7816164E-02  0.1312668E+00
        -11   -1    0    0    0    0  0.00000000000E+00  0.00000000000E+00  0.45593999997E+02  0.45594000000E+02  0.51100000000E-03 0.  1.
         11   -1    0    0    0    0 -0.00000000000E+00 -0.00000000000E+00 -0.45593999997E+02  0.45594000000E+02  0.51100000000E-03 0. -1.
    9900012    2    1    2    0    0 -0.22531756892E+02 -0.14128978321E+02 -0.34297478618E+02  0.47787249585E+02  0.19999902157E+02 0.  0.
        -12    1    1    2    0    0  0.22531756892E+02  0.14128978321E+02  0.34297478618E+02  0.43400750415E+02  0.00000000000E+00 0.  1.
         11    1    3    3    0    0 -0.15409584100E+02 -0.91354060657E+01 -0.26621316107E+02  0.32087464806E+02  0.51100000000E-03 0. -1.
        -11    1    3    3    0    0 -0.14506736996E+01 -0.35876879516E+01 -0.89221519064E+01  0.97252636942E+01  0.51100000000E-03 0.  1.
        -12    1    3    3    0    0 -0.56714990919E+01 -0.14058843037E+01  0.12459893950E+01  0.59745210851E+01  0.00000000000E+00 0.  1.
</event>
<event>
 7    1  0.4621547E-010  0.4778727E+02  0.7816164E-02  0.1312668E+00
        -11   -1    0    0    0    0  0.00000000000E+00  0.00000000000E+00  0.45593999997E+02  0.45594000000E+02  0.51100000000E-03 0.  1.
         11   -1    0    0    0    0 -0.00000000000E+00 -0.00000000000E+00 -0.45593999997E+02  0.45594000000E+02  0.51100000000E-03 0. -1.
    9900012    2    1    2    0    0 -0.39331727047E+02  0.16854740585E+02 -0.72495632958E+01  0.47787271888E+02  0.20000003848E+02 0.  0.
        -12    1    1    2    0    0  0.39331727047E+02 -0.16854740585E+02  0.72495632958E+01  0.43400728112E+02  0.00000000000E+00 0.  1.
         11    1    3    3    0    0 -0.11271165564E+02  0.37041153099E+01 -0.54315902611E+01  0.13048441149E+02  0.51100000000E-03 0. -1.
        -11    1    3    3    0    0 -0.75582631805E+01  0.56745587219E+01 -0.76395991357E+01  0.12152836468E+02  0.51100000000E-03 0.  1.
        -12    1    3    3    0    0 -0.20502298302E+02  0.74760665529E+01  0.58216261009E+01  0.22585994271E+02  0.00000000000E+00 0.  1.
</event>
<event>
 7    1  0.4621547E-010  0.4778727E+02  0.7816164E-02  0.1312668E+00
        -11   -1    0    0    0    0  0.00000000000E+00  0.00000000000E+00  0.45593999997E+02  0.45594000000E+02  0.51100000000E-03 0. -1.
         11   -1    0    0    0    0 -0.00000000000E+00 -0.00000000000E+00 -0.45593999997E+02  0.45594000000E+02  0.51100000000E-03 0.  1.
    9900012    2    1    2    0    0 -0.25780251724E+02  0.73710199881E+01  0.34127256397E+02  0.47787274847E+02  0.20000017338E+02 0.  0.
        -12    1    1    2    0    0  0.25780251724E+02 -0.73710199881E+01 -0.34127256397E+02  0.43400725153E+02  0.00000000000E+00 0.  1.
         11    1    3    3    0    0 -0.83477495834E+01 -0.32067643412E+01  0.11018011051E+02  0.14190307552E+02  0.51100000000E-03 0. -1.
        -11    1    3    3    0    0  0.47130889443E-01  0.18303432528E+01  0.97527149037E+01  0.99230955854E+01  0.51100000000E-03 0.  1.
         12    1    3    3    0    0 -0.17479633030E+02  0.87474410765E+01  0.13356530442E+02  0.23673871709E+02  0.00000000000E+00 0. -1.
</event>
<event>
 7    1  0.4621547E-010  0.4778728E+02  0.7816164E-02  0.1312668E+00
        -11   -1    0    0    0    0  0.00000000000E+00  0.00000000000E+00  0.45593999997E+02  0.45594000000E+02  0.51100000000E-03 0.  1.
         11   -1    0    0    0    0 -0.00000000000E+00 -0.00000000000E+00 -0.45593999997E+02  0.45594000000E+02  0.51100000000E-03 0. -1.
    9900012    2    1    2    0    0  0.10790143062E+02 -0.33150896234E+01 -0.41907104319E+02  0.47787281125E+02  0.20000045960E+02 0.  0.
        -12    1    1    2    0    0 -0.10790143062E+02  0.33150896234E+01  0.41907104319E+02  0.43400718875E+02  0.00000000000E+00 0.  1.
         11    1    3    3    0    0 -0.11054441301E+01 -0.57228876358E+01 -0.23599850399E+02  0.24308977534E+02  0.51100000000E-03 0. -1.
        -11    1    3    3    0    0  0.16620321622E+01 -0.25000320569E+01 -0.19888650554E+01  0.36011242221E+01  0.51100000000E-03 0.  1.
        -12    1    3    3    0    0  0.10233555030E+02  0.49078300693E+01 -0.16318388864E+02  0.19877179369E+02  0.00000000000E+00 0.  1.
</event>
<event>
 7    1  0.4621547E-010  0.4778727E+02  0.7816164E-02  0.1312668E+00
        -11   -1    0    0    0    0  0.00000000000E+00  0.00000000000E+00  0.45593999997E+02  0.45594000000E+02  0.51100000000E-03 0. -1.
         11   -1    0    0    0    0 -0.00000000000E+00 -0.00000000000E+00 -0.45593999997E+02  0.45594000000E+02  0.51100000000E-03 0.  1.
    9900012    2    1    2    0    0 -0.14341860665E+02 -0.36719026618E+02  0.18156199514E+02  0.47787268855E+02  0.19999990016E+02 0.  0.
        -12    1    1    2    0    0  0.14341860665E+02  0.36719026618E+02 -0.18156199514E+02  0.43400731145E+02  0.00000000000E+00 0.  1.
         11    1    3    3    0    0 -0.71422986596E+01 -0.18837494561E+02  0.81984686508E+01  0.21750368272E+02  0.51100000000E-03 0. -1.
        -11    1    3    3    0    0  0.54863638990E+00 -0.11595967673E+02 -0.45231601920E+00  0.11617747553E+02  0.51100000000E-03 0.  1.
        -12    1    3    3    0    0 -0.77481983953E+01 -0.62855643845E+01  0.10410046883E+02  0.14419153030E+02  0.00000000000E+00 0.  1.
</event>
<event>
 7    1  0.4621547E-010  0.4778727E+02  0.7816164E-02  0.1312668E+00
        -11   -1    0    0    0    0  0.00000000000E+00  0.00000000000E+00  0.45593999997E+02  0.45594000000E+02  0.51100000000E-03 0.  1.
         11   -1    0    0    0    0 -0.00000000000E+00 -0.00000000000E+00 -0.45593999997E+02  0.45594000000E+02  0.51100000000E-03 0. -1.
    9900012    2    1    2    0    0 -0.22581417768E+02  0.23516426878E+02 -0.28647523351E+02  0.47787270102E+02  0.19999995703E+02 0.  0.
        -12    1    1    2    0    0  0.22581417768E+02 -0.23516426878E+02  0.28647523351E+02  0.43400729898E+02  0.00000000000E+00 0.  1.
         11    1    3    3    0    0 -0.90023280659E+01  0.88601555043E+01 -0.12249821653E+02  0.17595522071E+02  0.51100000000E-03 0. -1.
        -11    1    3    3    0    0 -0.92015420934E+01  0.12580331887E+02 -0.19093492606E+02  0.24647405288E+02  0.51100000000E-03 0.  1.
        -12    1    3    3    0    0 -0.43775476091E+01  0.20759394868E+01  0.26957909086E+01  0.55443427425E+01  0.00000000000E+00 0.  1.
</event>
<event>
 7    1  0.4621547E-010  0.4778727E+02  0.7816164E-02  0.1312668E+00
        -11   -1    0    0    0    0  0.00000000000E+00  0.00000000000E+00  0.45593999997E+02  0.45594000000E+02  0.51100000000E-03 0. -1.
         11   -1    0    0    0    0 -0.00000000000E+00 -0.00000000000E+00 -0.45593999997E+02  0.45594000000E+02  0.51100000000E-03 0.  1.
    9900012    2    1    2    0    0  0.17369532870E+02  0.37104352061E+02  0.14324441993E+02  0.47787271292E+02  0.20000001128E+02 0.  0.
        -12    1    1    2    0    0 -0.17369532870E+02 -0.37104352061E+02 -0.14324441993E+02  0.43400728708E+02  0.00000000000E+00 0.  1.
         11    1    3    3    0    0  0.34844889612E+01  0.13948659585E+02  0.72190117872E+01  0.16087911579E+02  0.51100000000E-03 0. -1.
        -11    1    3    3    0    0  0.10914244303E+02  0.92505624655E+01  0.96461627519E+01  0.17255204743E+02  0.51100000000E-03 0.  1.
         12    1    3    3    0    0  0.29707996057E+01  0.13905130011E+02 -0.25407325457E+01  0.14444154969E+02  0.00000000000E+00 0. -1.
</event>
<event>
 7    1  0.4621547E-010  0.4778727E+02  0.7816164E-02  0.1312668E+00
        -11   -1    0    0    0    0  0.00000000000E+00  0.00000000000E+00  0.45593999997E+02  0.45594000000E+02  0.51100000000E-03 0.  1.
         11   -1    0    0    0    0 -0.00000000000E+00 -0.00000000000E+00 -0.45593999997E+02  0.45594000000E+02  0.51100000000E-03 0. -1.
    9900012    2    1    2    0    0  0.98761774971E+01 -0.46396173400E+01 -0.42006647058E+02  0.47787270420E+02  0.19999997153E+02 0.  0.
        -12    1    1    2    0    0 -0.98761774971E+01  0.46396173400E+01  0.42006647058E+02  0.43400729580E+02  0.00000000000E+00 0.  1.
         11    1    3    3    0    0 -0.27234365100E+01  0.19510107969E+01 -0.86994492875E+00  0.34612647968E+01  0.51100000000E-03 0. -1.
        -11    1    3    3    0    0  0.52124267036E+00 -0.40270548468E+01 -0.12430245911E+02  0.13076692179E+02  0.51100000000E-03 0.  1.
         12    1    3    3    0    0  0.12078371337E+02 -0.25635732901E+01 -0.28706456218E+02  0.31249313445E+02  0.00000000000E+00 0. -1.
</event>
<event>
 7    1  0.4621547E-010  0.4778728E+02  0.7816164E-02  0.1312668E+00
        -11   -1    0    0    0    0  0.00000000000E+00  0.00000000000E+00  0.45593999997E+02  0.45594000000E+02  0.51100000000E-03 0. -1.
         11   -1    0    0    0    0 -0.00000000000E+00 -0.00000000000E+00 -0.45593999997E+02  0.45594000000E+02  0.51100000000E-03 0.  1.
    9900012    2    1    2    0    0 -0.65605875651E+01 -0.39381139073E+02 -0.17020773859E+02  0.47787283800E+02  0.20000058157E+02 0.  0.
        -12    1    1    2    0    0  0.65605875651E+01  0.39381139073E+02  0.17020773859E+02  0.43400716200E+02  0.00000000000E+00 0.  1.
         11    1    3    3    0    0 -0.46456957558E+01 -0.10892723044E+02 -0.73624717415E+01  0.13944170638E+02  0.51100000000E-03 0. -1.
        -11    1    3    3    0    0  0.18204098744E+01 -0.10054996978E+02 -0.10966802191E+02  0.14989583279E+02  0.51100000000E-03 0.  1.
         12    1    3    3    0    0 -0.37353016836E+01 -0.18433419051E+02  0.13085000734E+01  0.18853529882E+02  0.00000000000E+00 0. -1.
</event>
<event>
 7    1  0.4621547E-010  0.4778728E+02  0.7816164E-02  0.1312668E+00
        -11   -1    0    0    0    0  0.00000000000E+00  0.00000000000E+00  0.45593999997E+02  0.45594000000E+02  0.51100000000E-03 0. -1.
         11   -1    0    0    0    0 -0.00000000000E+00 -0.00000000000E+00 -0.45593999997E+02  0.45594000000E+02  0.51100000000E-03 0.  1.
    9900012    2    1    2    0    0 -0.60798211866E+01  0.18798493887E+02  0.38642913250E+02  0.47787281774E+02  0.20000048921E+02 0.  0.
        -12    1    1    2    0    0  0.60798211866E+01 -0.18798493887E+02 -0.38642913250E+02  0.43400718226E+02  0.00000000000E+00 0.  1.
         11    1    3    3    0    0 -0.48297349878E+01  0.25892084912E+01  0.55729280190E+01  0.78158728002E+01  0.51100000000E-03 0.  1.
        -11    1    3    3    0    0 -0.53217884090E+01  0.51131549173E+01  0.23894843550E+02  0.25008585198E+02  0.51100000000E-03 0. -1.
         12    1    3    3    0    0  0.40717022102E+01  0.11096130478E+02  0.91751416816E+01  0.14962823776E+02  0.00000000000E+00 0. -1.
</event>
<event>
 7    1  0.4621547E-010  0.4778727E+02  0.7816164E-02  0.1312668E+00
        -11   -1    0    0    0    0  0.00000000000E+00  0.00000000000E+00  0.45593999997E+02  0.45594000000E+02  0.51100000000E-03 0.  1.
         11   -1    0    0    0    0 -0.00000000000E+00 -0.00000000000E+00 -0.45593999997E+02  0.45594000000E+02  0.51100000000E-03 0. -1.
    9900012    2    1    2    0    0 -0.14662430737E+02  0.35153880121E+02 -0.20804829763E+02  0.47787272999E+02  0.20000008914E+02 0.  0.
        -12    1    1    2    0    0  0.14662430737E+02 -0.35153880121E+02  0.20804829763E+02  0.43400727001E+02  0.00000000000E+00 0.  1.
         11    1    3    3    0    0 -0.58729448518E+01  0.23226618187E+02 -0.12028168542E+02  0.26807538349E+02  0.51100000000E-03 0. -1.
        -11    1    3    3    0    0 -0.11080875693E+02  0.12481643222E+02 -0.78825088144E+01  0.18458363121E+02  0.51100000000E-03 0.  1.
        -12    1    3    3    0    0  0.22913898071E+01 -0.55438128752E+00 -0.89415240730E+00  0.25213715291E+01  0.00000000000E+00 0.  1.
</event>
<event>
 7    1  0.4621547E-010  0.4778727E+02  0.7816164E-02  0.1312668E+00
        -11   -1    0    0    0    0  0.00000000000E+00  0.00000000000E+00  0.45593999997E+02  0.45594000000E+02  0.51100000000E-03 0.  1.
         11   -1    0    0    0    0 -0.00000000000E+00 -0.00000000000E+00 -0.45593999997E+02  0.45594000000E+02  0.51100000000E-03 0. -1.
    9900012    2    1    2    0    0  0.17684890845E+02  0.38857604273E+02 -0.78073461061E+01  0.47787269278E+02  0.19999991944E+02 0.  0.
        -12    1    1    2    0    0 -0.17684890845E+02 -0.38857604273E+02  0.78073461061E+01  0.43400730722E+02  0.00000000000E+00 0.  1.
         11    1    3    3    0    0  0.11809105257E+02  0.15229186302E+02 -0.61178837346E+01  0.20219089595E+02  0.51100000000E-03 0. -1.
        -11    1    3    3    0    0  0.90579040565E+01  0.13241568380E+02  0.18339975077E+01  0.16147702814E+02  0.51100000000E-03 0.  1.
         12    1    3    3    0    0 -0.31821184690E+01  0.10386849591E+02 -0.35234598792E+01  0.11420476868E+02  0.00000000000E+00 0. -1.
</event>
<event>
 7    1  0.4621547E-010  0.4778727E+02  0.7816164E-02  0.1312668E+00
        -11   -1    0    0    0    0  0.00000000000E+00  0.00000000000E+00  0.45593999997E+02  0.45594000000E+02  0.51100000000E-03 0.  1.
         11   -1    0    0    0    0 -0.00000000000E+00 -0.00000000000E+00 -0.45593999997E+02  0.45594000000E+02  0.51100000000E-03 0. -1.
    9900012    2    1    2    0    0 -0.23243129601E+01 -0.35648380044E+02 -0.24645769851E+02  0.47787269568E+02  0.19999993267E+02 0.  0.
        -12    1    1    2    0    0  0.23243129601E+01  0.35648380044E+02  0.24645769851E+02  0.43400730432E+02  0.00000000000E+00 0.  1.
         11    1    3    3    0    0 -0.54225637673E+01 -0.12544364208E+02 -0.16141580869E+02  0.21149844075E+02  0.51100000000E-03 0. -1.
        -11    1    3    3    0    0 -0.24381725910E+01 -0.13814490267E+02 -0.71307560038E+01  0.15736343551E+02  0.51100000000E-03 0.  1.
        -12    1    3    3    0    0  0.55364233983E+01 -0.92895255689E+01 -0.13734329784E+01  0.10901081941E+02  0.00000000000E+00 0.  1.
</event>
<event>
 7    1  0.4621547E-010  0.4778727E+02  0.7816164E-02  0.1312668E+00
        -11   -1    0    0    0    0  0.00000000000E+00  0.00000000000E+00  0.45593999997E+02  0.45594000000E+02  0.51100000000E-03 0. -1.
         11   -1    0    0    0    0 -0.00000000000E+00 -0.00000000000E+00 -0.45593999997E+02  0.45594000000E+02  0.51100000000E-03 0.  1.
    9900012    2    1    2    0    0  0.21434180321E+02 -0.34020270153E+02  0.16334636808E+02  0.47787271584E+02  0.20000002462E+02 0.  0.
        -12    1    1    2    0    0 -0.21434180321E+02  0.34020270153E+02 -0.16334636808E+02  0.43400728416E+02  0.00000000000E+00 0.  1.
         11    1    3    3    0    0  0.48691913511E+00 -0.32146730180E+01  0.51758768824E+01  0.61123575337E+01  0.51100000000E-03 0. -1.
        -11    1    3    3    0    0  0.28129334283E+01 -0.10107114800E+01  0.56101218670E+01  0.63566972392E+01  0.51100000000E-03 0.  1.
         12    1    3    3    0    0  0.18134327758E+02 -0.29794885655E+02  0.55486380589E+01  0.35318216812E+02  0.00000000000E+00 0. -1.
</event>
<event>
 7    1  0.4621547E-010  0.4778728E+02  0.7816164E-02  0.1312668E+00
        -11   -1    0    0    0    0  0.00000000000E+00  0.00000000000E+00  0.45593999997E+02  0.45594000000E+02  0.51100000000E-03 0.  1.
         11   -1    0    0    0    0 -0.00000000000E+00 -0.00000000000E+00 -0.45593999997E+02  0.45594000000E+02  0.51100000000E-03 0. -1.
    9900012    2    1    2    0    0  0.17434402256E+02  0.22111631017E+02 -0.33026356088E+02  0.47787276450E+02  0.20000024644E+02 0.  0.
        -12    1    1    2    0    0 -0.17434402256E+02 -0.22111631017E+02  0.33026356088E+02  0.43400723550E+02  0.00000000000E+00 0.  1.
         11    1    3    3    0    0 -0.11835654374E+01  0.47676750652E+01 -0.58161281253E+01  0.76130742347E+01  0.51100000000E-03 0. -1.
        -11    1    3    3    0    0  0.10100096588E+02  0.12847030320E+02 -0.69842632995E+01  0.17771833705E+02  0.51100000000E-03 0.  1.
        -12    1    3    3    0    0  0.85178711052E+01  0.44969256319E+01 -0.20225964663E+02  0.22402368510E+02  0.00000000000E+00 0.  1.
</event>
<event>
 7    1  0.4621547E-010  0.4778726E+02  0.7816164E-02  0.1312668E+00
        -11   -1    0    0    0    0  0.00000000000E+00  0.00000000000E+00  0.45593999997E+02  0.45594000000E+02  0.51100000000E-03 0. -1.
         11   -1    0    0    0    0 -0.00000000000E+00 -0.00000000000E+00 -0.45593999997E+02  0.45594000000E+02  0.51100000000E-03 0.  1.
    9900012    2    1    2    0    0 -0.24182204256E+01  0.42885103369E+02 -0.62164880887E+01  0.47787255707E+02  0.19999930071E+02 0.  0.
        -12    1    1    2    0    0  0.24182204256E+01 -0.42885103369E+02  0.62164880887E+01  0.43400744293E+02  0.00000000000E+00 0.  1.
         11    1    3    3    0    0  0.13621288111E+01  0.23719831156E+02 -0.67096640064E+01  0.24688162676E+02  0.51100000000E-03 0. -1.
        -11    1    3    3    0    0 -0.27083013969E+01  0.10154445007E+02 -0.58496312561E+01  0.12027711168E+02  0.51100000000E-03 0.  1.
         12    1    3    3    0    0 -0.10720478398E+01  0.90108272064E+01  0.63428071738E+01  0.11071381863E+02  0.00000000000E+00 0. -1.
</event>
<event>
 7    1  0.4621547E-010  0.4778726E+02  0.7816164E-02  0.1312668E+00
        -11   -1    0    0    0    0  0.00000000000E+00  0.00000000000E+00  0.45593999997E+02  0.45594000000E+02  0.51100000000E-03 0. -1.
         11   -1    0    0    0    0 -0.00000000000E+00 -0.00000000000E+00 -0.45593999997E+02  0.45594000000E+02  0.51100000000E-03 0.  1.
    9900012    2    1    2    0    0 -0.64635674540E+01  0.38957221495E+02  0.18005042438E+02  0.47787258485E+02  0.19999942738E+02 0.  0.
        -12    1    1    2    0    0  0.64635674540E+01 -0.38957221495E+02 -0.18005042438E+02  0.43400741515E+02  0.00000000000E+00 0.  1.
         11    1    3    3    0    0 -0.15325547529E+01  0.13162093669E+01 -0.15941437871E+00  0.20264610466E+01  0.51100000000E-03 0. -1.
        -11    1    3    3    0    0 -0.24480777489E+01  0.98384703698E+01 -0.31761992565E+01  0.10624350609E+02  0.51100000000E-03 0.  1.
        -12    1    3    3    0    0 -0.24829349522E+01  0.27802541758E+02  0.21340656073E+02  0.35136446830E+02  0.00000000000E+00 0.  1.
</event>
<event>
 7    1  0.4621547E-010  0.4778727E+02  0.7816164E-02  0.1312668E+00
        -11   -1    0    0    0    0  0.00000000000E+00  0.00000000000E+00  0.45593999997E+02  0.45594000000E+02  0.51100000000E-03 0. -1.
         11   -1    0    0    0    0 -0.00000000000E+00 -0.00000000000E+00 -0.45593999997E+02  0.45594000000E+02  0.51100000000E-03 0.  1.
    9900012    2    1    2    0    0  0.46834973257E+01  0.43116729333E+02 -0.16234728533E+01  0.47787272360E+02  0.20000005996E+02 0.  0.
        -12    1    1    2    0    0 -0.46834973257E+01 -0.43116729333E+02  0.16234728533E+01  0.43400727640E+02  0.00000000000E+00 0.  1.
         11    1    3    3    0    0  0.66452949394E+01  0.96851309805E+01  0.14316617386E+01  0.11832639711E+02  0.51100000000E-03 0. -1.
        -11    1    3    3    0    0 -0.13385809292E+01  0.16544421167E+02  0.48582583334E+01  0.17294864698E+02  0.51100000000E-03 0.  1.
        -12    1    3    3    0    0 -0.62321668448E+00  0.16887177186E+02 -0.79133929252E+01  0.18659767950E+02  0.00000000000E+00 0.  1.
</event>
<event>
 7    1  0.4621547E-010  0.4778727E+02  0.7816164E-02  0.1312668E+00
        -11   -1    0    0    0    0  0.00000000000E+00  0.00000000000E+00  0.45593999997E+02  0.45594000000E+02  0.51100000000E-03 0.  1.
         11   -1    0    0    0    0 -0.00000000000E+00 -0.00000000000E+00 -0.45593999997E+02  0.45594000000E+02  0.51100000000E-03 0. -1.
    9900012    2    1    2    0    0  0.22219138932E+02 -0.79134258972E+01 -0.36432276667E+02  0.47787271579E+02  0.20000002438E+02 0.  0.
        -12    1    1    2    0    0 -0.22219138932E+02  0.79134258972E+01  0.36432276667E+02  0.43400728421E+02  0.00000000000E+00 0.  1.
         11    1    3    3    0    0  0.73317978712E+01 -0.25007768403E+01 -0.36018845528E+01  0.85429922990E+01  0.51100000000E-03 0. -1.
        -11    1    3    3    0    0 -0.66108795377E+00 -0.88077613873E+00  0.11558464066E+01  0.15964914864E+01  0.51100000000E-03 0.  1.
         12    1    3    3    0    0  0.15548429015E+02 -0.45318729182E+01 -0.33986238521E+02  0.37647787794E+02  0.00000000000E+00 0. -1.
</event>
<event>
 7    1  0.4621547E-010  0.4778728E+02  0.7816164E-02  0.1312668E+00
        -11   -1    0    0    0    0  0.00000000000E+00  0.00000000000E+00  0.45593999997E+02  0.45594000000E+02  0.51100000000E-03 0.  1.
         11   -1    0    0    0    0 -0.00000000000E+00 -0.00000000000E+00 -0.45593999997E+02  0.45594000000E+02  0.51100000000E-03 0. -1.
    9900012    2    1    2    0    0 -0.19955926535E+02 -0.26074918051E+02 -0.28381019381E+02  0.47787278620E+02  0.20000034539E+02 0.  0.
        -12    1    1    2    0    0  0.19955926535E+02  0.26074918051E+02  0.28381019381E+02  0.43400721380E+02  0.00000000000E+00 0.  1.
         11    1    3    3    0    0 -0.54420614652E+01 -0.98611847663E+00 -0.13290642709E+01  0.56881345570E+01  0.51100000000E-03 0.  1.
        -11    1    3    3    0    0 -0.13094449929E+02 -0.85636858351E+01 -0.12301466362E+02  0.19902949755E+02  0.51100000000E-03 0. -1.
        -12    1    3    3    0    0 -0.14194151399E+01 -0.16525113739E+02 -0.14750488748E+02  0.22196194307E+02  0.00000000000E+00 0.  1.
</event>
<event>
 7    1  0.4621547E-010  0.4778727E+02  0.7816164E-02  0.1312668E+00
        -11   -1    0    0    0    0  0.00000000000E+00  0.00000000000E+00  0.45593999997E+02  0.45594000000E+02  0.51100000000E-03 0. -1.
         11   -1    0    0    0    0 -0.00000000000E+00 -0.00000000000E+00 -0.45593999997E+02  0.45594000000E+02  0.51100000000E-03 0.  1.
    9900012    2    1    2    0    0 -0.42207436997E+02 -0.40936047147E+01 -0.92410941565E+01  0.47787272372E+02  0.20000006054E+02 0.  0.
        -12    1    1    2    0    0  0.42207436997E+02  0.40936047147E+01  0.92410941565E+01  0.43400727628E+02  0.00000000000E+00 0.  1.
         11    1    3    3    0    0 -0.75026644680E+00  0.19169264084E+01  0.19285962441E+00  0.20675351731E+01  0.51100000000E-03 0. -1.
        -11    1    3    3    0    0 -0.14482894682E+02 -0.74134478004E+01  0.19924308189E+01  0.16391559642E+02  0.51100000000E-03 0.  1.
         12    1    3    3    0    0 -0.26974275868E+02  0.14029166773E+01 -0.11426384600E+02  0.29328177557E+02  0.00000000000E+00 0. -1.
</event>
<event>
 7    1  0.4621547E-010  0.4778728E+02  0.7816164E-02  0.1312668E+00
        -11   -1    0    0    0    0  0.00000000000E+00  0.00000000000E+00  0.45593999997E+02  0.45594000000E+02  0.51100000000E-03 0. -1.
         11   -1    0    0    0    0 -0.00000000000E+00 -0.00000000000E+00 -0.45593999997E+02  0.45594000000E+02  0.51100000000E-03 0.  1.
    9900012    2    1    2    0    0 -0.40809461354E+02  0.14255406699E+02  0.38722283683E+01  0.47787275251E+02  0.20000019182E+02 0.  0.
        -12    1    1    2    0    0  0.40809461354E+02 -0.14255406699E+02 -0.38722283683E+01  0.43400724749E+02  0.00000000000E+00 0.  1.
         11    1    3    3    0    0 -0.97139248974E+01  0.61209477862E+01 -0.12406628255E+01  0.11548401761E+02  0.51100000000E-03 0. -1.
        -11    1    3    3    0    0 -0.20551317710E+01  0.58103446060E+01 -0.15465743505E+01  0.63541768562E+01  0.51100000000E-03 0.  1.
         12    1    3    3    0    0 -0.29040404686E+02  0.23241143066E+01  0.66594655444E+01  0.29884696635E+02  0.00000000000E+00 0. -1.
</event>
<event>
 7    1  0.4621547E-010  0.4778727E+02  0.7816164E-02  0.1312668E+00
        -11   -1    0    0    0    0  0.00000000000E+00  0.00000000000E+00  0.45593999997E+02  0.45594000000E+02  0.51100000000E-03 0.  1.
         11   -1    0    0    0    0 -0.00000000000E+00 -0.00000000000E+00 -0.45593999997E+02  0.45594000000E+02  0.51100000000E-03 0. -1.
    9900012    2    1    2    0    0  0.18463826140E+02  0.31377566852E+02 -0.23625386053E+02  0.47787269091E+02  0.19999991093E+02 0.  0.
        -12    1    1    2    0    0 -0.18463826140E+02 -0.31377566852E+02  0.23625386053E+02  0.43400730909E+02  0.00000000000E+00 0.  1.
         11    1    3    3    0    0  0.65236371049E+01  0.11185127458E+02 -0.59832261384E+01  0.14264077699E+02  0.51100000000E-03 0. -1.
        -11    1    3    3    0    0  0.57097185223E+01  0.14045026461E+02 -0.15959090532E+01  0.15245018199E+02  0.51100000000E-03 0.  1.
        -12    1    3    3    0    0  0.62304705127E+01  0.61474129330E+01 -0.16046250861E+02  0.18278173193E+02  0.00000000000E+00 0.  1.
</event>
<event>
 7    1  0.4621547E-010  0.4778727E+02  0.7816164E-02  0.1312668E+00
        -11   -1    0    0    0    0  0.00000000000E+00  0.00000000000E+00  0.45593999997E+02  0.45594000000E+02  0.51100000000E-03 0. -1.
         11   -1    0    0    0    0 -0.00000000000E+00 -0.00000000000E+00 -0.45593999997E+02  0.45594000000E+02  0.51100000000E-03 0.  1.
    9900012    2    1    2    0    0  0.76525119153E+01  0.37494287697E+02  0.20475371167E+02  0.47787269903E+02  0.19999994796E+02 0.  0.
        -12    1    1    2    0    0 -0.76525119153E+01 -0.37494287697E+02 -0.20475371167E+02  0.43400730097E+02  0.00000000000E+00 0.  1.
         11    1    3    3    0    0  0.12742137677E+01  0.25130701647E+01  0.98722063143E+01  0.10266430741E+02  0.51100000000E-03 0. -1.
        -11    1    3    3    0    0  0.33179497036E+01  0.62313285307E+01  0.25755486854E+01  0.75147652515E+01  0.51100000000E-03 0.  1.
         12    1    3    3    0    0  0.30603484440E+01  0.28749889002E+02  0.80276161670E+01  0.30006073911E+02  0.00000000000E+00 0. -1.
</event>
<event>
 7    1  0.4621547E-010  0.4778727E+02  0.7816164E-02  0.1312668E+00
        -11   -1    0    0    0    0  0.00000000000E+00  0.00000000000E+00  0.45593999997E+02  0.45594000000E+02  0.51100000000E-03 0. -1.
         11   -1    0    0    0    0 -0.00000000000E+00 -0.00000000000E+00 -0.45593999997E+02  0.45594000000E+02  0.51100000000E-03 0.  1.
    9900012    2    1    2    0    0  0.12056094661E+02 -0.18057342169E+02  0.37579335114E+02  0.47787268989E+02  0.19999990628E+02 0.  0.
        -12    1    1    2    0    0 -0.12056094661E+02  0.18057342169E+02 -0.37579335114E+02  0.43400731011E+02  0.00000000000E+00 0.  1.
         11    1    3    3    0    0  0.66171606765E+01 -0.10545206684E+02  0.18216171793E+02  0.22063932434E+02  0.51100000000E-03 0. -1.
        -11    1    3    3    0    0 -0.32775300113E+01 -0.70068544305E+01  0.12123591699E+02  0.14381226927E+02  0.51100000000E-03 0.  1.
        -12    1    3    3    0    0  0.87164639955E+01 -0.50528105461E+00  0.72395716224E+01  0.11342109628E+02  0.00000000000E+00 0.  1.
</event>
<event>
 7    1  0.4621547E-010  0.4778727E+02  0.7816164E-02  0.1312668E+00
        -11   -1    0    0    0    0  0.00000000000E+00  0.00000000000E+00  0.45593999997E+02  0.45594000000E+02  0.51100000000E-03 0. -1.
         11   -1    0    0    0    0 -0.00000000000E+00 -0.00000000000E+00 -0.45593999997E+02  0.45594000000E+02  0.51100000000E-03 0.  1.
    9900012    2    1    2    0    0 -0.51198880485E+01  0.33422564486E+02  0.27209238782E+02  0.47787265610E+02  0.19999975224E+02 0.  0.
        -12    1    1    2    0    0  0.51198880485E+01 -0.33422564486E+02 -0.27209238782E+02  0.43400734390E+02  0.00000000000E+00 0.  1.
         11    1    3    3    0    0 -0.36801038268E+00  0.11524738604E+02  0.74345761915E+01  0.13719619344E+02  0.51100000000E-03 0. -1.
        -11    1    3    3    0    0 -0.40927041019E+00  0.36210191381E+01  0.13922613798E+02  0.14391610649E+02  0.51100000000E-03 0.  1.
        -12    1    3    3    0    0 -0.43426072556E+01  0.18276806743E+02  0.58520487931E+01  0.19676035617E+02  0.00000000000E+00 0.  1.
</event>
<event>
 7    1  0.4621547E-010  0.4778721E+02  0.7816164E-02  0.1312668E+00
        -11   -1    0    0    0    0  0.00000000000E+00  0.00000000000E+00  0.45593999997E+02  0.45594000000E+02  0.51100000000E-03 0.  1.
         11   -1    0    0    0    0 -0.00000000000E+00 -0.00000000000E+00 -0.45593999997E+02  0.45594000000E+02  0.51100000000E-03 0. -1.
    9900012    2    1    2    0    0  0.32591398536E+02  0.23586328352E+02 -0.16282326940E+02  0.47787212977E+02  0.19999735243E+02 0.  0.
        -12    1    1    2    0    0 -0.32591398536E+02 -0.23586328352E+02  0.16282326940E+02  0.43400787023E+02  0.00000000000E+00 0.  1.
         11    1    3    3    0    0  0.43172832601E+01  0.54522197698E+00 -0.44078523522E+01  0.61939780733E+01  0.51100000000E-03 0. -1.
        -11    1    3    3    0    0  0.16420390445E+02  0.13190517460E+02 -0.15012001321E+02  0.25864631394E+02  0.51100000000E-03 0.  1.
        -12    1    3    3    0    0  0.11853724831E+02  0.98505889158E+01  0.31375267332E+01  0.15728603509E+02  0.00000000000E+00 0.  1.
</event>
<event>
 7    1  0.4621547E-010  0.4778727E+02  0.7816164E-02  0.1312668E+00
        -11   -1    0    0    0    0  0.00000000000E+00  0.00000000000E+00  0.45593999997E+02  0.45594000000E+02  0.51100000000E-03 0.  1.
         11   -1    0    0    0    0 -0.00000000000E+00 -0.00000000000E+00 -0.45593999997E+02  0.45594000000E+02  0.51100000000E-03 0. -1.
    9900012    2    1    2    0    0  0.29547449614E+02  0.28258481010E+02 -0.14561244596E+02  0.47787269916E+02  0.19999994853E+02 0.  0.
        -12    1    1    2    0    0 -0.29547449614E+02 -0.28258481010E+02  0.14561244596E+02  0.43400730084E+02  0.00000000000E+00 0.  1.
         11    1    3    3    0    0  0.29680934555E+02  0.19022562928E+02 -0.12298972810E+02  0.37337387547E+02  0.51100000000E-03 0. -1.
        -11    1    3    3    0    0  0.10167965055E+01  0.56726691214E+01 -0.31973048390E+01  0.65905848442E+01  0.51100000000E-03 0.  1.
         12    1    3    3    0    0 -0.11502814474E+01  0.35632489615E+01  0.93503305289E+00  0.38592975241E+01  0.00000000000E+00 0. -1.
</event>
<event>
 7    1  0.4621547E-010  0.4778727E+02  0.7816164E-02  0.1312668E+00
        -11   -1    0    0    0    0  0.00000000000E+00  0.00000000000E+00  0.45593999997E+02  0.45594000000E+02  0.51100000000E-03 0.  1.
         11   -1    0    0    0    0 -0.00000000000E+00 -0.00000000000E+00 -0.45593999997E+02  0.45594000000E+02  0.51100000000E-03 0. -1.
    9900012    2    1    2    0    0  0.48692500018E+01 -0.25916396342E+02 -0.34471066565E+02  0.47787266998E+02  0.19999981551E+02 0.  0.
        -12    1    1    2    0    0 -0.48692500018E+01  0.25916396342E+02  0.34471066565E+02  0.43400733002E+02  0.00000000000E+00 0.  1.
         11    1    3    3    0    0 -0.23796911718E+01 -0.85695612747E+01 -0.70690408545E+01  0.11360970442E+02  0.51100000000E-03 0. -1.
        -11    1    3    3    0    0 -0.52812278802E+00 -0.24697782793E+01  0.15472223131E+01  0.29618601546E+01  0.51100000000E-03 0.  1.
        -12    1    3    3    0    0  0.77770639616E+01 -0.14877056788E+02 -0.28949248024E+02  0.33464436402E+02  0.00000000000E+00 0.  1.
</event>
<event>
 7    1  0.4621547E-010  0.4778727E+02  0.7816164E-02  0.1312668E+00
        -11   -1    0    0    0    0  0.00000000000E+00  0.00000000000E+00  0.45593999997E+02  0.45594000000E+02  0.51100000000E-03 0.  1.
         11   -1    0    0    0    0 -0.00000000000E+00 -0.00000000000E+00 -0.45593999997E+02  0.45594000000E+02  0.51100000000E-03 0. -1.
    9900012    2    1    2    0    0 -0.28402776085E+02 -0.10579126248E+02 -0.31064252263E+02  0.47787269935E+02  0.19999994943E+02 0.  0.
        -12    1    1    2    0    0  0.28402776085E+02  0.10579126248E+02  0.31064252263E+02  0.43400730065E+02  0.00000000000E+00 0.  1.
         11    1    3    3    0    0 -0.12141649635E+02 -0.16606202363E+01 -0.38160174069E+01  0.12835081011E+02  0.51100000000E-03 0. -1.
        -11    1    3    3    0    0 -0.82310453895E+01 -0.19226654771E+01 -0.39394173605E+01  0.93255434234E+01  0.51100000000E-03 0.  1.
        -12    1    3    3    0    0 -0.80300810600E+01 -0.69958405342E+01 -0.23308817495E+02  0.25626645501E+02  0.00000000000E+00 0.  1.
</event>
<event>
 7    1  0.4621547E-010  0.4778728E+02  0.7816164E-02  0.1312668E+00
        -11   -1    0    0    0    0  0.00000000000E+00  0.00000000000E+00  0.45593999997E+02  0.45594000000E+02  0.51100000000E-03 0.  1.
         11   -1    0    0    0    0 -0.00000000000E+00 -0.00000000000E+00 -0.45593999997E+02  0.45594000000E+02  0.51100000000E-03 0. -1.
    9900012    2    1    2    0    0 -0.17151408017E+02  0.37213068422E+02 -0.14305228496E+02  0.47787276266E+02  0.20000023805E+02 0.  0.
        -12    1    1    2    0    0  0.17151408017E+02 -0.37213068422E+02  0.14305228496E+02  0.43400723734E+02  0.00000000000E+00 0.  1.
         11    1    3    3    0    0 -0.13739987443E+02  0.19989430311E+02 -0.10079527819E+02  0.26267117474E+02  0.51100000000E-03 0. -1.
        -11    1    3    3    0    0 -0.74881920804E+00 -0.16461684243E+01  0.51932114691E+00  0.18815672728E+01  0.51100000000E-03 0.  1.
         12    1    3    3    0    0 -0.26626013657E+01  0.18869806536E+02 -0.47450218240E+01  0.19638591519E+02  0.00000000000E+00 0. -1.
</event>
<event>
 7    1  0.4621547E-010  0.4778728E+02  0.7816164E-02  0.1312668E+00
        -11   -1    0    0    0    0  0.00000000000E+00  0.00000000000E+00  0.45593999997E+02  0.45594000000E+02  0.51100000000E-03 0.  1.
         11   -1    0    0    0    0 -0.00000000000E+00 -0.00000000000E+00 -0.45593999997E+02  0.45594000000E+02  0.51100000000E-03 0. -1.
    9900012    2    1    2    0    0 -0.67390257644E+01  0.40070308860E+02 -0.15250516290E+02  0.47787281487E+02  0.20000047610E+02 0.  0.
        -12    1    1    2    0    0  0.67390257644E+01 -0.40070308860E+02  0.15250516290E+02  0.43400718513E+02  0.00000000000E+00 0.  1.
         11    1    3    3    0    0 -0.47688628283E+01  0.12008499988E+02 -0.59195701073E+00  0.12934316294E+02  0.51100000000E-03 0. -1.
        -11    1    3    3    0    0  0.23730418790E+01  0.77903892811E+01  0.18502801996E+01  0.83513489922E+01  0.51100000000E-03 0.  1.
         12    1    3    3    0    0 -0.43432048151E+01  0.20271419591E+02 -0.16508839479E+02  0.26501616200E+02  0.00000000000E+00 0. -1.
</event>
<event>
 7    1  0.4621547E-010  0.4778727E+02  0.7816164E-02  0.1312668E+00
        -11   -1    0    0    0    0  0.00000000000E+00  0.00000000000E+00  0.45593999997E+02  0.45594000000E+02  0.51100000000E-03 0.  1.
         11   -1    0    0    0    0 -0.00000000000E+00 -0.00000000000E+00 -0.45593999997E+02  0.45594000000E+02  0.51100000000E-03 0. -1.
    9900012    2    1    2    0    0 -0.33631830255E+02  0.24825463591E+02 -0.11671310577E+02  0.47787272593E+02  0.20000007063E+02 0.  0.
        -12    1    1    2    0    0  0.33631830255E+02 -0.24825463591E+02  0.11671310577E+02  0.43400727407E+02  0.00000000000E+00 0.  1.
         11    1    3    3    0    0 -0.15055411552E+02  0.62965993975E+01 -0.79866670103E+01  0.18168638671E+02  0.51100000000E-03 0. -1.
        -11    1    3    3    0    0 -0.15105947350E+02  0.10505249300E+02  0.29622586039E+01  0.18636654326E+02  0.51100000000E-03 0.  1.
         12    1    3    3    0    0 -0.34704713537E+01  0.80236148942E+01 -0.66469021702E+01  0.10981979596E+02  0.00000000000E+00 0. -1.
</event>
<event>
 7    1  0.4621547E-010  0.4778722E+02  0.7816164E-02  0.1312668E+00
        -11   -1    0    0    0    0  0.00000000000E+00  0.00000000000E+00  0.45593999997E+02  0.45594000000E+02  0.51100000000E-03 0.  1.
         11   -1    0    0    0    0 -0.00000000000E+00 -0.00000000000E+00 -0.45593999997E+02  0.45594000000E+02  0.51100000000E-03 0. -1.
    9900012    2    1    2    0    0  0.21199342289E+02 -0.10288429799E+02 -0.36446725841E+02  0.47787219757E+02  0.19999766157E+02 0.  0.
        -12    1    1    2    0    0 -0.21199342289E+02  0.10288429799E+02  0.36446725841E+02  0.43400780243E+02  0.00000000000E+00 0.  1.
         11    1    3    3    0    0  0.68606180969E+01 -0.75251556022E+01 -0.29310581269E+02  0.31029118938E+02  0.51100000000E-03 0. -1.
        -11    1    3    3    0    0  0.11824109529E+02 -0.16103805033E+01 -0.72964124251E+01  0.13987155753E+02  0.51100000000E-03 0.  1.
         12    1    3    3    0    0  0.25146146633E+01 -0.11528936934E+01  0.16026785271E+00  0.27709450658E+01  0.00000000000E+00 0. -1.
</event>
<event>
 7    1  0.4621547E-010  0.4778727E+02  0.7816164E-02  0.1312668E+00
        -11   -1    0    0    0    0  0.00000000000E+00  0.00000000000E+00  0.45593999997E+02  0.45594000000E+02  0.51100000000E-03 0.  1.
         11   -1    0    0    0    0 -0.00000000000E+00 -0.00000000000E+00 -0.45593999997E+02  0.45594000000E+02  0.51100000000E-03 0. -1.
    9900012    2    1    2    0    0 -0.30198197893E+02 -0.22010347359E+02 -0.22073437270E+02  0.47787272129E+02  0.20000004945E+02 0.  0.
        -12    1    1    2    0    0  0.30198197893E+02  0.22010347359E+02  0.22073437270E+02  0.43400727871E+02  0.00000000000E+00 0.  1.
         11    1    3    3    0    0 -0.44571219782E+01  0.24162572548E+01 -0.15268648867E+00  0.50722331251E+01  0.51100000000E-03 0. -1.
        -11    1    3    3    0    0 -0.15021036482E+02 -0.84755897060E+01 -0.81744508229E+01  0.19086351259E+02  0.51100000000E-03 0.  1.
        -12    1    3    3    0    0 -0.10720039432E+02 -0.15951014907E+02 -0.13746299958E+02  0.23628687745E+02  0.00000000000E+00 0.  1.
</event>
<event>
 7    1  0.4621547E-010  0.4778727E+02  0.7816164E-02  0.1312668E+00
        -11   -1    0    0    0    0  0.00000000000E+00  0.00000000000E+00  0.45593999997E+02  0.45594000000E+02  0.51100000000E-03 0.  1.
         11   -1    0    0    0    0 -0.00000000000E+00 -0.00000000000E+00 -0.45593999997E+02  0.45594000000E+02  0.51100000000E-03 0. -1.
    9900012    2    1    2    0    0 -0.24133865613E+01 -0.13355286654E+02 -0.41224207116E+02  0.47787269953E+02  0.19999995022E+02 0.  0.
        -12    1    1    2    0    0  0.24133865613E+01  0.13355286654E+02  0.41224207116E+02  0.43400730047E+02  0.00000000000E+00 0.  1.
         11    1    3    3    0    0  0.23274902500E+01 -0.86629597013E+01 -0.15732526791E+02  0.18110120959E+02  0.51100000000E-03 0. -1.
        -11    1    3    3    0    0  0.33005989428E+01 -0.37244942300E+01 -0.30938807072E+01  0.58598556929E+01  0.51100000000E-03 0.  1.
         12    1    3    3    0    0 -0.80414757540E+01 -0.96783272324E+00 -0.22397799617E+02  0.23817293301E+02  0.00000000000E+00 0. -1.
</event>
<event>
 7    1  0.4621547E-010  0.4778727E+02  0.7816164E-02  0.1312668E+00
        -11   -1    0    0    0    0  0.00000000000E+00  0.00000000000E+00  0.45593999997E+02  0.45594000000E+02  0.51100000000E-03 0. -1.
         11   -1    0    0    0    0 -0.00000000000E+00 -0.00000000000E+00 -0.45593999997E+02  0.45594000000E+02  0.51100000000E-03 0.  1.
    9900012    2    1    2    0    0  0.74061830083E+01 -0.32912156219E+01  0.42637305848E+02  0.47787268474E+02  0.19999988282E+02 0.  0.
        -12    1    1    2    0    0 -0.74061830083E+01  0.32912156219E+01 -0.42637305848E+02  0.43400731526E+02  0.00000000000E+00 0.  1.
         11    1    3    3    0    0  0.10757107556E+02 -0.99516031779E+00  0.24073303081E+02  0.26386163581E+02  0.51100000000E-03 0. -1.
        -11    1    3    3    0    0  0.17017253299E+01 -0.44875966729E+01  0.11366361398E+02  0.12338094046E+02  0.51100000000E-03 0.  1.
        -12    1    3    3    0    0 -0.50526498773E+01  0.21915413688E+01  0.71976413684E+01  0.90630108474E+01  0.00000000000E+00 0.  1.
</event>
<event>
 7    1  0.4621547E-010  0.4778727E+02  0.7816164E-02  0.1312668E+00
        -11   -1    0    0    0    0  0.00000000000E+00  0.00000000000E+00  0.45593999997E+02  0.45594000000E+02  0.51100000000E-03 0. -1.
         11   -1    0    0    0    0 -0.00000000000E+00 -0.00000000000E+00 -0.45593999997E+02  0.45594000000E+02  0.51100000000E-03 0.  1.
    9900012    2    1    2    0    0 -0.39064424476E+02  0.22467717803E+01  0.18776203113E+02  0.47787273665E+02  0.20000011946E+02 0.  0.
        -12    1    1    2    0    0  0.39064424476E+02 -0.22467717803E+01 -0.18776203113E+02  0.43400726335E+02  0.00000000000E+00 0.  1.
         11    1    3    3    0    0 -0.27848252809E+02  0.88846681639E+00  0.69319388587E+01  0.28711780411E+02  0.51100000000E-03 0.  1.
        -11    1    3    3    0    0 -0.11614949599E+02  0.39762708904E+01  0.92822726437E+01  0.15390853455E+02  0.51100000000E-03 0. -1.
        -12    1    3    3    0    0  0.39877793139E+00 -0.26179659266E+01  0.25619916104E+01  0.36846397982E+01  0.00000000000E+00 0.  1.
</event>
<event>
 7    1  0.4621547E-010  0.4778728E+02  0.7816164E-02  0.1312668E+00
        -11   -1    0    0    0    0  0.00000000000E+00  0.00000000000E+00  0.45593999997E+02  0.45594000000E+02  0.51100000000E-03 0.  1.
         11   -1    0    0    0    0 -0.00000000000E+00 -0.00000000000E+00 -0.45593999997E+02  0.45594000000E+02  0.51100000000E-03 0. -1.
    9900012    2    1    2    0    0  0.24477245768E+02  0.31269947033E+02 -0.17512204414E+02  0.47787280521E+02  0.20000043209E+02 0.  0.
        -12    1    1    2    0    0 -0.24477245768E+02 -0.31269947033E+02  0.17512204414E+02  0.43400719479E+02  0.00000000000E+00 0.  1.
         11    1    3    3    0    0  0.16932605343E+02  0.15238448385E+02 -0.17092086158E+02  0.28479165058E+02  0.51100000000E-03 0. -1.
        -11    1    3    3    0    0  0.53224356871E+01  0.66451902960E+01 -0.34666945270E+01  0.91926517892E+01  0.51100000000E-03 0.  1.
        -12    1    3    3    0    0  0.22222047372E+01  0.93863083522E+01  0.30465762705E+01  0.10115463674E+02  0.00000000000E+00 0.  1.
</event>
<event>
 7    1  0.4621547E-010  0.4778727E+02  0.7816164E-02  0.1312668E+00
        -11   -1    0    0    0    0  0.00000000000E+00  0.00000000000E+00  0.45593999997E+02  0.45594000000E+02  0.51100000000E-03 0.  1.
         11   -1    0    0    0    0 -0.00000000000E+00 -0.00000000000E+00 -0.45593999997E+02  0.45594000000E+02  0.51100000000E-03 0. -1.
    9900012    2    1    2    0    0 -0.35690415615E+02  0.48721729193E+01 -0.24209077586E+02  0.47787271051E+02  0.20000000030E+02 0.  0.
        -12    1    1    2    0    0  0.35690415615E+02 -0.48721729193E+01  0.24209077586E+02  0.43400728949E+02  0.00000000000E+00 0.  1.
         11    1    3    3    0    0 -0.97178277343E+00  0.46894395229E+01 -0.16061902708E+01  0.50512426436E+01  0.51100000000E-03 0.  1.
        -11    1    3    3    0    0 -0.17696377247E+02  0.51526417460E+01 -0.98915635192E+01  0.20917803750E+02  0.51100000000E-03 0. -1.
        -12    1    3    3    0    0 -0.17022255594E+02 -0.49699083496E+01 -0.12711323796E+02  0.21818224657E+02  0.00000000000E+00 0.  1.
</event>
<event>
 7    1  0.4621547E-010  0.4778729E+02  0.7816164E-02  0.1312668E+00
        -11   -1    0    0    0    0  0.00000000000E+00  0.00000000000E+00  0.45593999997E+02  0.45594000000E+02  0.51100000000E-03 0.  1.
         11   -1    0    0    0    0 -0.00000000000E+00 -0.00000000000E+00 -0.45593999997E+02  0.45594000000E+02  0.51100000000E-03 0. -1.
    9900012    2    1    2    0    0  0.45510732471E+00  0.42773907790E+02 -0.73353498490E+01  0.47787289548E+02  0.20000084365E+02 0.  0.
        -12    1    1    2    0    0 -0.45510732471E+00 -0.42773907790E+02  0.73353498490E+01  0.43400710452E+02  0.00000000000E+00 0.  1.
         11    1    3    3    0    0  0.24529518256E+01  0.52427233352E+01 -0.63855396493E+00  0.58233042214E+01  0.51100000000E-03 0. -1.
        -11    1    3    3    0    0 -0.22319693329E+01  0.32678326114E+02  0.11049636531E+01  0.32773093074E+02  0.51100000000E-03 0.  1.
        -12    1    3    3    0    0  0.23412483204E+00  0.48528583410E+01 -0.78017595372E+01  0.91908922522E+01  0.00000000000E+00 0.  1.
</event>
<event>
 7    1  0.4621547E-010  0.4778727E+02  0.7816164E-02  0.1312668E+00
        -11   -1    0    0    0    0  0.00000000000E+00  0.00000000000E+00  0.45593999997E+02  0.45594000000E+02  0.51100000000E-03 0. -1.
         11   -1    0    0    0    0 -0.00000000000E+00 -0.00000000000E+00 -0.45593999997E+02  0.45594000000E+02  0.51100000000E-03 0.  1.
    9900012    2    1    2    0    0  0.33174456537E+02  0.12044367943E+02  0.25258899188E+02  0.47787270123E+02  0.19999995800E+02 0.  0.
        -12    1    1    2    0    0 -0.33174456537E+02 -0.12044367943E+02 -0.25258899188E+02  0.43400729877E+02  0.00000000000E+00 0.  1.
         11    1    3    3    0    0  0.18567883285E+02  0.11061879727E+02  0.14511611628E+02  0.26033024124E+02  0.51100000000E-03 0. -1.
        -11    1    3    3    0    0  0.11460633004E+02  0.60029030011E+01  0.66130248967E+01  0.14529729930E+02  0.51100000000E-03 0.  1.
        -12    1    3    3    0    0  0.31459402483E+01 -0.50204147853E+01  0.41342626633E+01  0.72245160690E+01  0.00000000000E+00 0.  1.
</event>
<event>
 7    1  0.4621547E-010  0.4778727E+02  0.7816164E-02  0.1312668E+00
        -11   -1    0    0    0    0  0.00000000000E+00  0.00000000000E+00  0.45593999997E+02  0.45594000000E+02  0.51100000000E-03 0.  1.
         11   -1    0    0    0    0 -0.00000000000E+00 -0.00000000000E+00 -0.45593999997E+02  0.45594000000E+02  0.51100000000E-03 0. -1.
    9900012    2    1    2    0    0 -0.43029413363E+02  0.93490338869E+00 -0.55873902139E+01  0.47787269729E+02  0.19999994001E+02 0.  0.
        -12    1    1    2    0    0  0.43029413363E+02 -0.93490338869E+00  0.55873902139E+01  0.43400730271E+02  0.00000000000E+00 0.  1.
         11    1    3    3    0    0 -0.22768353525E+02 -0.12215671227E+00  0.43526949720E+01  0.23181000804E+02  0.51100000000E-03 0. -1.
        -11    1    3    3    0    0 -0.73259334320E+01 -0.27422427569E+01  0.56949358484E-01  0.78225596500E+01  0.51100000000E-03 0.  1.
        -12    1    3    3    0    0 -0.12935126406E+02  0.37993028579E+01 -0.99970345444E+01  0.16783709275E+02  0.00000000000E+00 0.  1.
</event>
<event>
 7    1  0.4621547E-010  0.4778727E+02  0.7816164E-02  0.1312668E+00
        -11   -1    0    0    0    0  0.00000000000E+00  0.00000000000E+00  0.45593999997E+02  0.45594000000E+02  0.51100000000E-03 0. -1.
         11   -1    0    0    0    0 -0.00000000000E+00 -0.00000000000E+00 -0.45593999997E+02  0.45594000000E+02  0.51100000000E-03 0.  1.
    9900012    2    1    2    0    0  0.40744496315E+02 -0.14146809503E+02 -0.48349861412E+01  0.47787270858E+02  0.19999999150E+02 0.  0.
        -12    1    1    2    0    0 -0.40744496315E+02  0.14146809503E+02  0.48349861412E+01  0.43400729142E+02  0.00000000000E+00 0.  1.
         11    1    3    3    0    0  0.15179804682E+02 -0.10459873136E+02  0.23309396840E+01  0.18581407274E+02  0.51100000000E-03 0. -1.
        -11    1    3    3    0    0  0.22126238083E+01 -0.14858295490E+01  0.26689757039E+01  0.37718463827E+01  0.51100000000E-03 0.  1.
        -12    1    3    3    0    0  0.23352067825E+02 -0.22011068181E+01 -0.98349015292E+01  0.25434017202E+02  0.00000000000E+00 0.  1.
</event>
<event>
 7    1  0.4621547E-010  0.4778727E+02  0.7816164E-02  0.1312668E+00
        -11   -1    0    0    0    0  0.00000000000E+00  0.00000000000E+00  0.45593999997E+02  0.45594000000E+02  0.51100000000E-03 0.  1.
         11   -1    0    0    0    0 -0.00000000000E+00 -0.00000000000E+00 -0.45593999997E+02  0.45594000000E+02  0.51100000000E-03 0. -1.
    9900012    2    1    2    0    0  0.91269297164E+01  0.31491918974E+02 -0.28435562249E+02  0.47787274117E+02  0.20000014009E+02 0.  0.
        -12    1    1    2    0    0 -0.91269297164E+01 -0.31491918974E+02  0.28435562249E+02  0.43400725883E+02  0.00000000000E+00 0.  1.
         11    1    3    3    0    0  0.11309263047E+02  0.23017392329E+02 -0.14007962833E+02  0.29221957554E+02  0.51100000000E-03 0. -1.
        -11    1    3    3    0    0  0.27634355564E+01  0.15823183970E+01 -0.43862284124E+01  0.54202682158E+01  0.51100000000E-03 0.  1.
         12    1    3    3    0    0 -0.49457688865E+01  0.68922082485E+01 -0.10041371004E+02  0.13145048348E+02  0.00000000000E+00 0. -1.
</event>
<event>
 7    1  0.4621547E-010  0.4778727E+02  0.7816164E-02  0.1312668E+00
        -11   -1    0    0    0    0  0.00000000000E+00  0.00000000000E+00  0.45593999997E+02  0.45594000000E+02  0.51100000000E-03 0.  1.
         11   -1    0    0    0    0 -0.00000000000E+00 -0.00000000000E+00 -0.45593999997E+02  0.45594000000E+02  0.51100000000E-03 0. -1.
    9900012    2    1    2    0    0 -0.81630463980E+01 -0.16374211788E+02 -0.39355724591E+02  0.47787271939E+02  0.20000004077E+02 0.  0.
        -12    1    1    2    0    0  0.81630463980E+01  0.16374211788E+02  0.39355724591E+02  0.43400728061E+02  0.00000000000E+00 0.  1.
         11    1    3    3    0    0 -0.71807763379E+01 -0.83268668431E+01 -0.13863513589E+02  0.17694554799E+02  0.51100000000E-03 0. -1.
        -11    1    3    3    0    0 -0.45090642139E+01 -0.47126845673E+01 -0.31755199425E+01  0.72543078982E+01  0.51100000000E-03 0.  1.
         12    1    3    3    0    0  0.35267941537E+01 -0.33346603773E+01 -0.22316691060E+02  0.22838409242E+02  0.00000000000E+00 0. -1.
</event>
<event>
 7    1  0.4621547E-010  0.4778727E+02  0.7816164E-02  0.1312668E+00
        -11   -1    0    0    0    0  0.00000000000E+00  0.00000000000E+00  0.45593999997E+02  0.45594000000E+02  0.51100000000E-03 0. -1.
         11   -1    0    0    0    0 -0.00000000000E+00 -0.00000000000E+00 -0.45593999997E+02  0.45594000000E+02  0.51100000000E-03 0.  1.
    9900012    2    1    2    0    0 -0.24459004928E+01  0.75970009411E+01  0.42660600538E+02  0.47787266241E+02  0.19999978099E+02 0.  0.
        -12    1    1    2    0    0  0.24459004928E+01 -0.75970009411E+01 -0.42660600538E+02  0.43400733759E+02  0.00000000000E+00 0.  1.
         11    1    3    3    0    0 -0.90220378268E+00  0.81846497067E+01  0.14964732694E+02  0.17080564609E+02  0.51100000000E-03 0. -1.
        -11    1    3    3    0    0 -0.17800723053E+01  0.39191685506E+01  0.25169011658E+02  0.25534441205E+02  0.51100000000E-03 0.  1.
        -12    1    3    3    0    0  0.23637559512E+00 -0.45068173162E+01  0.25268561863E+01  0.51722604275E+01  0.00000000000E+00 0.  1.
</event>
<event>
 7    1  0.4621547E-010  0.4778727E+02  0.7816164E-02  0.1312668E+00
        -11   -1    0    0    0    0  0.00000000000E+00  0.00000000000E+00  0.45593999997E+02  0.45594000000E+02  0.51100000000E-03 0.  1.
         11   -1    0    0    0    0 -0.00000000000E+00 -0.00000000000E+00 -0.45593999997E+02  0.45594000000E+02  0.51100000000E-03 0. -1.
    9900012    2    1    2    0    0  0.21192726578E+02 -0.35265961235E+02 -0.13813166405E+02  0.47787271345E+02  0.20000001370E+02 0.  0.
        -12    1    1    2    0    0 -0.21192726578E+02  0.35265961235E+02  0.13813166405E+02  0.43400728655E+02  0.00000000000E+00 0.  1.
         11    1    3    3    0    0  0.80405689826E+01 -0.82639269554E+01  0.22955995950E+01  0.11756403194E+02  0.51100000000E-03 0. -1.
        -11    1    3    3    0    0 -0.20666429177E+01 -0.50900845609E+01 -0.19612235127E+01  0.58332128124E+01  0.51100000000E-03 0.  1.
         12    1    3    3    0    0  0.15218800513E+02 -0.21911949719E+02 -0.14147542487E+02  0.30197655339E+02  0.00000000000E+00 0. -1.
</event>
<event>
 7    1  0.4621547E-010  0.4778727E+02  0.7816164E-02  0.1312668E+00
        -11   -1    0    0    0    0  0.00000000000E+00  0.00000000000E+00  0.45593999997E+02  0.45594000000E+02  0.51100000000E-03 0. -1.
         11   -1    0    0    0    0 -0.00000000000E+00 -0.00000000000E+00 -0.45593999997E+02  0.45594000000E+02  0.51100000000E-03 0.  1.
    9900012    2    1    2    0    0  0.26101425358E+02 -0.14779362691E+02  0.31367329402E+02  0.47787270500E+02  0.19999997520E+02 0.  0.
        -12    1    1    2    0    0 -0.26101425358E+02  0.14779362691E+02 -0.31367329402E+02  0.43400729500E+02  0.00000000000E+00 0.  1.
         11    1    3    3    0    0  0.10016865328E+02 -0.37643024529E+01  0.15326286243E+02  0.18692314309E+02  0.51100000000E-03 0. -1.
        -11    1    3    3    0    0  0.12714748654E+02 -0.10987480256E+02  0.49723935314E+01  0.17524675558E+02  0.51100000000E-03 0.  1.
        -12    1    3    3    0    0  0.33698113757E+01 -0.27579982064E-01  0.11068649628E+02  0.11570280634E+02  0.00000000000E+00 0.  1.
</event>
<event>
 7    1  0.4621547E-010  0.4778727E+02  0.7816164E-02  0.1312668E+00
        -11   -1    0    0    0    0  0.00000000000E+00  0.00000000000E+00  0.45593999997E+02  0.45594000000E+02  0.51100000000E-03 0.  1.
         11   -1    0    0    0    0 -0.00000000000E+00 -0.00000000000E+00 -0.45593999997E+02  0.45594000000E+02  0.51100000000E-03 0. -1.
    9900012    2    1    2    0    0  0.13527192008E+02 -0.21781322416E+02 -0.35017317924E+02  0.47787268619E+02  0.19999988943E+02 0.  0.
        -12    1    1    2    0    0 -0.13527192008E+02  0.21781322416E+02  0.35017317924E+02  0.43400731381E+02  0.00000000000E+00 0.  1.
         11    1    3    3    0    0  0.33575757213E+01 -0.40340850666E+01 -0.32520019275E+00  0.52586036622E+01  0.51100000000E-03 0. -1.
        -11    1    3    3    0    0  0.10965644598E+01 -0.12642619504E+02 -0.11577214289E+02  0.17177606716E+02  0.51100000000E-03 0.  1.
        -12    1    3    3    0    0  0.90730518267E+01 -0.51046178446E+01 -0.23114903442E+02  0.25351058241E+02  0.00000000000E+00 0.  1.
</event>
<event>
 7    1  0.4621547E-010  0.4778727E+02  0.7816164E-02  0.1312668E+00
        -11   -1    0    0    0    0  0.00000000000E+00  0.00000000000E+00  0.45593999997E+02  0.45594000000E+02  0.51100000000E-03 0.  1.
         11   -1    0    0    0    0 -0.00000000000E+00 -0.00000000000E+00 -0.45593999997E+02  0.45594000000E+02  0.51100000000E-03 0. -1.
    9900012    2    1    2    0    0 -0.29489178556E+02  0.25382926713E+02  0.19228067311E+02  0.47787271977E+02  0.20000004252E+02 0.  0.
        -12    1    1    2    0    0  0.29489178556E+02 -0.25382926713E+02 -0.19228067311E+02  0.43400728023E+02  0.00000000000E+00 0.  1.
         11    1    3    3    0    0 -0.72849292077E+01  0.20422380482E+01  0.24744712419E+01  0.79601468576E+01  0.51100000000E-03 0. -1.
        -11    1    3    3    0    0 -0.13569206753E+02  0.50686687673E+01  0.16119512468E+01  0.14574400916E+02  0.51100000000E-03 0.  1.
        -12    1    3    3    0    0 -0.86350425948E+01  0.18272019897E+02  0.15141644822E+02  0.25252724203E+02  0.00000000000E+00 0.  1.
</event>
<event>
 7    1  0.4621547E-010  0.4778727E+02  0.7816164E-02  0.1312668E+00
        -11   -1    0    0    0    0  0.00000000000E+00  0.00000000000E+00  0.45593999997E+02  0.45594000000E+02  0.51100000000E-03 0.  1.
         11   -1    0    0    0    0 -0.00000000000E+00 -0.00000000000E+00 -0.45593999997E+02  0.45594000000E+02  0.51100000000E-03 0. -1.
    9900012    2    1    2    0    0 -0.45347607644E+01  0.24901310081E+02 -0.35255980495E+02  0.47787268905E+02  0.19999990245E+02 0.  0.
        -12    1    1    2    0    0  0.45347607644E+01 -0.24901310081E+02  0.35255980495E+02  0.43400731095E+02  0.00000000000E+00 0.  1.
         11    1    3    3    0    0  0.30471566256E+00  0.16267640593E+01 -0.54155625194E+00  0.17414064358E+01  0.51100000000E-03 0. -1.
        -11    1    3    3    0    0  0.49671290025E+00  0.21523174854E+02 -0.16907895100E+02  0.27374636006E+02  0.51100000000E-03 0.  1.
         12    1    3    3    0    0 -0.53361893272E+01  0.17513711674E+01 -0.17806529143E+02  0.18671226463E+02  0.00000000000E+00 0. -1.
</event>
<event>
 7    1  0.4621547E-010  0.4778727E+02  0.7816164E-02  0.1312668E+00
        -11   -1    0    0    0    0  0.00000000000E+00  0.00000000000E+00  0.45593999997E+02  0.45594000000E+02  0.51100000000E-03 0.  1.
         11   -1    0    0    0    0 -0.00000000000E+00 -0.00000000000E+00 -0.45593999997E+02  0.45594000000E+02  0.51100000000E-03 0. -1.
    9900012    2    1    2    0    0 -0.39042652867E+02  0.18953945451E+02 -0.20599552395E+00  0.47787271605E+02  0.20000002557E+02 0.  0.
        -12    1    1    2    0    0  0.39042652867E+02 -0.18953945451E+02  0.20599552395E+00  0.43400728395E+02  0.00000000000E+00 0.  1.
         11    1    3    3    0    0 -0.21355015121E+02  0.17973872704E+02  0.11583501029E+01  0.27936330217E+02  0.51100000000E-03 0. -1.
        -11    1    3    3    0    0 -0.44380567086E+01  0.42561388204E+01 -0.19149262285E+00  0.61520512590E+01  0.51100000000E-03 0.  1.
        -12    1    3    3    0    0 -0.13249581038E+02 -0.32760660737E+01 -0.11728530040E+01  0.13698890129E+02  0.00000000000E+00 0.  1.
</event>
<event>
 7    1  0.4621547E-010  0.4778728E+02  0.7816164E-02  0.1312668E+00
        -11   -1    0    0    0    0  0.00000000000E+00  0.00000000000E+00  0.45593999997E+02  0.45594000000E+02  0.51100000000E-03 0. -1.
         11   -1    0    0    0    0 -0.00000000000E+00 -0.00000000000E+00 -0.45593999997E+02  0.45594000000E+02  0.51100000000E-03 0.  1.
    9900012    2    1    2    0    0 -0.13816052567E+02  0.40354185865E+02 -0.80174282408E+01  0.47787276724E+02  0.20000025893E+02 0.  0.
        -12    1    1    2    0    0  0.13816052567E+02 -0.40354185865E+02  0.80174282408E+01  0.43400723276E+02  0.00000000000E+00 0.  1.
         11    1    3    3    0    0  0.10214710489E+01  0.10658461743E+02 -0.18628670268E+01  0.10868140764E+02  0.51100000000E-03 0. -1.
        -11    1    3    3    0    0  0.20036412910E+01  0.12216812532E+00  0.83851733760E+00  0.21754574371E+01  0.51100000000E-03 0.  1.
        -12    1    3    3    0    0 -0.16841164907E+02  0.29573555996E+02 -0.69930785516E+01  0.34743678523E+02  0.00000000000E+00 0.  1.
</event>
<event>
 7    1  0.4621547E-010  0.4778730E+02  0.7816164E-02  0.1312668E+00
        -11   -1    0    0    0    0  0.00000000000E+00  0.00000000000E+00  0.45593999997E+02  0.45594000000E+02  0.51100000000E-03 0. -1.
         11   -1    0    0    0    0 -0.00000000000E+00 -0.00000000000E+00 -0.45593999997E+02  0.45594000000E+02  0.51100000000E-03 0.  1.
    9900012    2    1    2    0    0  0.42934449524E+02 -0.88966332085E+00 -0.62819320042E+01  0.47787295784E+02  0.20000112796E+02 0.  0.
        -12    1    1    2    0    0 -0.42934449524E+02  0.88966332085E+00  0.62819320042E+01  0.43400704216E+02  0.00000000000E+00 0.  1.
         11    1    3    3    0    0  0.95747216098E+01 -0.20300907937E+01  0.24905344367E+01  0.10099471500E+02  0.51100000000E-03 0. -1.
        -11    1    3    3    0    0  0.16887346361E+02 -0.58763652536E+01 -0.30793586386E+00  0.17883203305E+02  0.51100000000E-03 0.  1.
        -12    1    3    3    0    0  0.16472381554E+02  0.70167927265E+01 -0.84645305770E+01  0.19804620979E+02  0.00000000000E+00 0.  1.
</event>
<event>
 7    1  0.4621547E-010  0.4778729E+02  0.7816164E-02  0.1312668E+00
        -11   -1    0    0    0    0  0.00000000000E+00  0.00000000000E+00  0.45593999997E+02  0.45594000000E+02  0.51100000000E-03 0.  1.
         11   -1    0    0    0    0 -0.00000000000E+00 -0.00000000000E+00 -0.45593999997E+02  0.45594000000E+02  0.51100000000E-03 0. -1.
    9900012    2    1    2    0    0  0.82929431278E+01  0.27652021247E+02 -0.32407018756E+02  0.47787285151E+02  0.20000064316E+02 0.  0.
        -12    1    1    2    0    0 -0.82929431278E+01 -0.27652021247E+02  0.32407018756E+02  0.43400714849E+02  0.00000000000E+00 0.  1.
         11    1    3    3    0    0  0.38384617959E+01  0.16419696786E+02 -0.15049298640E+02  0.22601363262E+02  0.51100000000E-03 0. -1.
        -11    1    3    3    0    0  0.75447144798E+01  0.11416758169E+02 -0.92773274409E+01  0.16532812476E+02  0.51100000000E-03 0.  1.
        -12    1    3    3    0    0 -0.30902331479E+01 -0.18443370825E+00 -0.80803926755E+01  0.86531094118E+01  0.00000000000E+00 0.  1.
</event>
<event>
 7    1  0.4621547E-010  0.4778727E+02  0.7816164E-02  0.1312668E+00
        -11   -1    0    0    0    0  0.00000000000E+00  0.00000000000E+00  0.45593999997E+02  0.45594000000E+02  0.51100000000E-03 0.  1.
         11   -1    0    0    0    0 -0.00000000000E+00 -0.00000000000E+00 -0.45593999997E+02  0.45594000000E+02  0.51100000000E-03 0. -1.
    9900012    2    1    2    0    0 -0.14166308656E+02  0.32701501170E+02 -0.24769959743E+02  0.47787269760E+02  0.19999994143E+02 0.  0.
        -12    1    1    2    0    0  0.14166308656E+02 -0.32701501170E+02  0.24769959743E+02  0.43400730240E+02  0.00000000000E+00 0.  1.
         11    1    3    3    0    0 -0.85542609968E+01  0.18882637949E+02 -0.22995279003E+02  0.30959849060E+02  0.51100000000E-03 0. -1.
        -11    1    3    3    0    0 -0.68017695753E+00  0.74679843899E+01 -0.39798606629E+01  0.84895655188E+01  0.51100000000E-03 0.  1.
        -12    1    3    3    0    0 -0.49318707014E+01  0.63508788306E+01  0.22051799222E+01  0.83378551814E+01  0.00000000000E+00 0.  1.
</event>
<event>
 7    1  0.4621547E-010  0.4778727E+02  0.7816164E-02  0.1312668E+00
        -11   -1    0    0    0    0  0.00000000000E+00  0.00000000000E+00  0.45593999997E+02  0.45594000000E+02  0.51100000000E-03 0. -1.
         11   -1    0    0    0    0 -0.00000000000E+00 -0.00000000000E+00 -0.45593999997E+02  0.45594000000E+02  0.51100000000E-03 0.  1.
    9900012    2    1    2    0    0 -0.15252078023E+02 -0.40312463238E+02  0.50894612292E+01  0.47787271988E+02  0.20000004304E+02 0.  0.
        -12    1    1    2    0    0  0.15252078023E+02  0.40312463238E+02 -0.50894612292E+01  0.43400728012E+02  0.00000000000E+00 0.  1.
         11    1    3    3    0    0  0.10445456342E+01 -0.49762625720E+00  0.59561801918E+00  0.13013333776E+01  0.51100000000E-03 0.  1.
        -11    1    3    3    0    0  0.37038942219E+00 -0.20571851147E+02  0.43404603127E+01  0.21028025202E+02  0.51100000000E-03 0. -1.
         12    1    3    3    0    0 -0.16667013079E+02 -0.19242985834E+02  0.15338289733E+00  0.25457913409E+02  0.00000000000E+00 0. -1.
</event>
<event>
 7    1  0.4621547E-010  0.4778727E+02  0.7816164E-02  0.1312668E+00
        -11   -1    0    0    0    0  0.00000000000E+00  0.00000000000E+00  0.45593999997E+02  0.45594000000E+02  0.51100000000E-03 0.  1.
         11   -1    0    0    0    0 -0.00000000000E+00 -0.00000000000E+00 -0.45593999997E+02  0.45594000000E+02  0.51100000000E-03 0. -1.
    9900012    2    1    2    0    0 -0.13476461371E+02  0.40920864790E+02  0.52432123009E+01  0.47787268884E+02  0.19999990148E+02 0.  0.
        -12    1    1    2    0    0  0.13476461371E+02 -0.40920864790E+02 -0.52432123009E+01  0.43400731116E+02  0.00000000000E+00 0.  1.
         11    1    3    3    0    0 -0.39024336100E+01  0.20338605515E+02  0.85512566517E+01  0.22405621013E+02  0.51100000000E-03 0. -1.
        -11    1    3    3    0    0 -0.31702078707E+01  0.25032755896E+01  0.31729988048E+01  0.51365872228E+01  0.51100000000E-03 0.  1.
         12    1    3    3    0    0 -0.64038198900E+01  0.18078983685E+02 -0.64810431557E+01  0.20245060648E+02  0.00000000000E+00 0. -1.
</event>
<event>
 7    1  0.4621547E-010  0.4778727E+02  0.7816164E-02  0.1312668E+00
        -11   -1    0    0    0    0  0.00000000000E+00  0.00000000000E+00  0.45593999997E+02  0.45594000000E+02  0.51100000000E-03 0. -1.
         11   -1    0    0    0    0 -0.00000000000E+00 -0.00000000000E+00 -0.45593999997E+02  0.45594000000E+02  0.51100000000E-03 0.  1.
    9900012    2    1    2    0    0  0.11681753331E+02  0.16216755025E+02  0.38525012731E+02  0.47787272929E+02  0.20000008591E+02 0.  0.
        -12    1    1    2    0    0 -0.11681753331E+02 -0.16216755025E+02 -0.38525012731E+02  0.43400727071E+02  0.00000000000E+00 0.  1.
         11    1    3    3    0    0  0.57660495176E+01  0.34552557663E+00  0.78376247995E+01  0.97362763787E+01  0.51100000000E-03 0. -1.
        -11    1    3    3    0    0  0.98920631446E+00  0.39979534426E-01  0.15607612977E+02  0.15638980484E+02  0.51100000000E-03 0.  1.
         12    1    3    3    0    0  0.49264974986E+01  0.15831249914E+02  0.15079774955E+02  0.22412016066E+02  0.00000000000E+00 0. -1.
</event>
<event>
 7    1  0.4621547E-010  0.4778727E+02  0.7816164E-02  0.1312668E+00
        -11   -1    0    0    0    0  0.00000000000E+00  0.00000000000E+00  0.45593999997E+02  0.45594000000E+02  0.51100000000E-03 0.  1.
         11   -1    0    0    0    0 -0.00000000000E+00 -0.00000000000E+00 -0.45593999997E+02  0.45594000000E+02  0.51100000000E-03 0. -1.
    9900012    2    1    2    0    0 -0.26295881125E+02 -0.20975949894E+02  0.27425523420E+02  0.47787272207E+02  0.20000005302E+02 0.  0.
        -12    1    1    2    0    0  0.26295881125E+02  0.20975949894E+02 -0.27425523420E+02  0.43400727793E+02  0.00000000000E+00 0.  1.
         11    1    3    3    0    0 -0.64606339489E+00 -0.30926328953E+01 -0.60375946003E+00  0.32165667850E+01  0.51100000000E-03 0. -1.
        -11    1    3    3    0    0 -0.20887658972E+02 -0.96250175489E+01  0.12050798425E+02  0.25964533562E+02  0.51100000000E-03 0.  1.
        -12    1    3    3    0    0 -0.47621587581E+01 -0.82582994496E+01  0.15978484455E+02  0.18606171861E+02  0.00000000000E+00 0.  1.
</event>
<event>
 7    1  0.4621547E-010  0.4778727E+02  0.7816164E-02  0.1312668E+00
        -11   -1    0    0    0    0  0.00000000000E+00  0.00000000000E+00  0.45593999997E+02  0.45594000000E+02  0.51100000000E-03 0.  1.
         11   -1    0    0    0    0 -0.00000000000E+00 -0.00000000000E+00 -0.45593999997E+02  0.45594000000E+02  0.51100000000E-03 0. -1.
    9900012    2    1    2    0    0 -0.64427139257E+01  0.40550114310E+02 -0.14064259226E+02  0.47787265895E+02  0.19999976520E+02 0.  0.
        -12    1    1    2    0    0  0.64427139257E+01 -0.40550114310E+02  0.14064259226E+02  0.43400734105E+02  0.00000000000E+00 0.  1.
         11    1    3    3    0    0 -0.61206683840E+01  0.66837818869E+01 -0.46367267537E+01  0.10180115767E+02  0.51100000000E-03 0. -1.
        -11    1    3    3    0    0 -0.27725751736E+01  0.17501764307E+01 -0.36095885089E+01  0.48764146764E+01  0.51100000000E-03 0.  1.
         12    1    3    3    0    0  0.24505296320E+01  0.32116155993E+02 -0.58179439636E+01  0.32730735451E+02  0.00000000000E+00 0. -1.
</event>
<event>
 7    1  0.4621547E-010  0.4778727E+02  0.7816164E-02  0.1312668E+00
        -11   -1    0    0    0    0  0.00000000000E+00  0.00000000000E+00  0.45593999997E+02  0.45594000000E+02  0.51100000000E-03 0.  1.
         11   -1    0    0    0    0 -0.00000000000E+00 -0.00000000000E+00 -0.45593999997E+02  0.45594000000E+02  0.51100000000E-03 0. -1.
    9900012    2    1    2    0    0  0.43348796368E+02 -0.21151174142E+01 -0.17711333121E+00  0.47787271465E+02  0.20000001920E+02 0.  0.
        -12    1    1    2    0    0 -0.43348796368E+02  0.21151174142E+01  0.17711333121E+00  0.43400728535E+02  0.00000000000E+00 0.  1.
         11    1    3    3    0    0  0.35312458527E+02 -0.61540165101E+01 -0.73994622380E+00  0.35852324431E+02  0.51100000000E-03 0. -1.
        -11    1    3    3    0    0  0.73807661063E+01  0.23072340116E+01 -0.26937900015E+01  0.81887448326E+01  0.51100000000E-03 0.  1.
         12    1    3    3    0    0  0.65557173433E+00  0.17316650843E+01  0.32566228941E+01  0.37462022019E+01  0.00000000000E+00 0. -1.
</event>
<event>
 7    1  0.4621547E-010  0.4778727E+02  0.7816164E-02  0.1312668E+00
        -11   -1    0    0    0    0  0.00000000000E+00  0.00000000000E+00  0.45593999997E+02  0.45594000000E+02  0.51100000000E-03 0.  1.
         11   -1    0    0    0    0 -0.00000000000E+00 -0.00000000000E+00 -0.45593999997E+02  0.45594000000E+02  0.51100000000E-03 0. -1.
    9900012    2    1    2    0    0 -0.19134727768E+01  0.67428717564E+01 -0.42831012286E+02  0.47787270617E+02  0.19999998050E+02 0.  0.
        -12    1    1    2    0    0  0.19134727768E+01 -0.67428717564E+01  0.42831012286E+02  0.43400729383E+02  0.00000000000E+00 0.  1.
         11    1    3    3    0    0 -0.42453074514E+01 -0.35273720264E+01 -0.15118837869E+02  0.16094851585E+02  0.51100000000E-03 0. -1.
        -11    1    3    3    0    0  0.45750530096E+01  0.18532712645E+00 -0.12422267517E+02  0.13239266849E+02  0.51100000000E-03 0.  1.
         12    1    3    3    0    0 -0.22432183350E+01  0.10084916656E+02 -0.15289906900E+02  0.18453152183E+02  0.00000000000E+00 0. -1.
</event>
<event>
 7    1  0.4621547E-010  0.4778728E+02  0.7816164E-02  0.1312668E+00
        -11   -1    0    0    0    0  0.00000000000E+00  0.00000000000E+00  0.45593999997E+02  0.45594000000E+02  0.51100000000E-03 0.  1.
         11   -1    0    0    0    0 -0.00000000000E+00 -0.00000000000E+00 -0.45593999997E+02  0.45594000000E+02  0.51100000000E-03 0. -1.
    9900012    2    1    2    0    0 -0.33273996135E+02  0.22966410972E+02  0.15779988049E+02  0.47787275645E+02  0.20000020976E+02 0.  0.
        -12    1    1    2    0    0  0.33273996135E+02 -0.22966410972E+02 -0.15779988049E+02  0.43400724355E+02  0.00000000000E+00 0.  1.
         11    1    3    3    0    0 -0.10098349944E+02  0.65595550041E+01  0.41793457323E+00  0.12049029131E+02  0.51100000000E-03 0. -1.
        -11    1    3    3    0    0 -0.23034250157E+02  0.18653550395E+02  0.15564303281E+02  0.33478039959E+02  0.51100000000E-03 0.  1.
        -12    1    3    3    0    0 -0.14139603412E+00 -0.22466944269E+01 -0.20224980477E+00  0.22602065547E+01  0.00000000000E+00 0.  1.
</event>
<event>
 7    1  0.4621547E-010  0.4778727E+02  0.7816164E-02  0.1312668E+00
        -11   -1    0    0    0    0  0.00000000000E+00  0.00000000000E+00  0.45593999997E+02  0.45594000000E+02  0.51100000000E-03 0.  1.
         11   -1    0    0    0    0 -0.00000000000E+00 -0.00000000000E+00 -0.45593999997E+02  0.45594000000E+02  0.51100000000E-03 0. -1.
    9900012    2    1    2    0    0  0.29832592264E+02 -0.31365491153E+02 -0.31377866678E+01  0.47787270725E+02  0.19999998544E+02 0.  0.
        -12    1    1    2    0    0 -0.29832592264E+02  0.31365491153E+02  0.31377866678E+01  0.43400729275E+02  0.00000000000E+00 0.  1.
         11    1    3    3    0    0 -0.15595118958E+01  0.45341664053E-01 -0.35800535072E+00  0.16007189985E+01  0.51100000000E-03 0. -1.
        -11    1    3    3    0    0  0.31554340032E+01 -0.95851490843E+01 -0.28936381373E+01  0.10497856383E+02  0.51100000000E-03 0.  1.
         12    1    3    3    0    0  0.28236670157E+02 -0.21825683732E+02  0.11385682016E+00  0.35688695343E+02  0.00000000000E+00 0. -1.
</event>
<event>
 7    1  0.4621547E-010  0.4778727E+02  0.7816164E-02  0.1312668E+00
        -11   -1    0    0    0    0  0.00000000000E+00  0.00000000000E+00  0.45593999997E+02  0.45594000000E+02  0.51100000000E-03 0. -1.
         11   -1    0    0    0    0 -0.00000000000E+00 -0.00000000000E+00 -0.45593999997E+02  0.45594000000E+02  0.51100000000E-03 0.  1.
    9900012    2    1    2    0    0  0.24128943543E+02 -0.24477736356E+02  0.26500141262E+02  0.47787274424E+02  0.20000015409E+02 0.  0.
        -12    1    1    2    0    0 -0.24128943543E+02  0.24477736356E+02 -0.26500141262E+02  0.43400725576E+02  0.00000000000E+00 0.  1.
         11    1    3    3    0    0  0.30607377750E+01  0.12511361469E+01 -0.10533085970E+01  0.34702905710E+01  0.51100000000E-03 0. -1.
        -11    1    3    3    0    0  0.18738374896E+00 -0.59369863387E+01  0.47483402191E+01  0.76045811556E+01  0.51100000000E-03 0.  1.
         12    1    3    3    0    0  0.20880822019E+02 -0.19791886164E+02  0.22805109640E+02  0.36712402697E+02  0.00000000000E+00 0. -1.
</event>
<event>
 7    1  0.4621547E-010  0.4778727E+02  0.7816164E-02  0.1312668E+00
        -11   -1    0    0    0    0  0.00000000000E+00  0.00000000000E+00  0.45593999997E+02  0.45594000000E+02  0.51100000000E-03 0.  1.
         11   -1    0    0    0    0 -0.00000000000E+00 -0.00000000000E+00 -0.45593999997E+02  0.45594000000E+02  0.51100000000E-03 0. -1.
    9900012    2    1    2    0    0 -0.26832278077E+02  0.33713431120E+02 -0.52015859191E+01  0.47787273269E+02  0.20000010144E+02 0.  0.
        -12    1    1    2    0    0  0.26832278077E+02 -0.33713431120E+02  0.52015859191E+01  0.43400726731E+02  0.00000000000E+00 0.  1.
         11    1    3    3    0    0 -0.17059013345E+02  0.24622642380E+02 -0.57100199950E+01  0.30494077830E+02  0.51100000000E-03 0. -1.
        -11    1    3    3    0    0  0.57109139807E+00  0.51314369092E+01  0.29565100876E+01  0.59496842183E+01  0.51100000000E-03 0.  1.
         12    1    3    3    0    0 -0.10344356130E+02  0.39593518305E+01 -0.24480760117E+01  0.11343511221E+02  0.00000000000E+00 0. -1.
</event>
<event>
 7    1  0.4621547E-010  0.4778727E+02  0.7816164E-02  0.1312668E+00
        -11   -1    0    0    0    0  0.00000000000E+00  0.00000000000E+00  0.45593999997E+02  0.45594000000E+02  0.51100000000E-03 0.  1.
         11   -1    0    0    0    0 -0.00000000000E+00 -0.00000000000E+00 -0.45593999997E+02  0.45594000000E+02  0.51100000000E-03 0. -1.
    9900012    2    1    2    0    0 -0.17552602182E+02  0.26210852111E+02 -0.29808065632E+02  0.47787269724E+02  0.19999993978E+02 0.  0.
        -12    1    1    2    0    0  0.17552602182E+02 -0.26210852111E+02  0.29808065632E+02  0.43400730276E+02  0.00000000000E+00 0.  1.
         11    1    3    3    0    0 -0.43904128508E+01  0.35790984386E+00 -0.45831829630E+01  0.63568381126E+01  0.51100000000E-03 0. -1.
        -11    1    3    3    0    0 -0.10554629388E+02  0.10123147552E+02 -0.45389674706E+01  0.15312757552E+02  0.51100000000E-03 0.  1.
         12    1    3    3    0    0 -0.26075599430E+01  0.15729794715E+02 -0.20685915199E+02  0.26117674059E+02  0.00000000000E+00 0. -1.
</event>
<event>
 7    1  0.4621547E-010  0.4778727E+02  0.7816164E-02  0.1312668E+00
        -11   -1    0    0    0    0  0.00000000000E+00  0.00000000000E+00  0.45593999997E+02  0.45594000000E+02  0.51100000000E-03 0. -1.
         11   -1    0    0    0    0 -0.00000000000E+00 -0.00000000000E+00 -0.45593999997E+02  0.45594000000E+02  0.51100000000E-03 0.  1.
    9900012    2    1    2    0    0  0.33714125064E+02 -0.11300526488E+02  0.24885320485E+02  0.47787270704E+02  0.19999998449E+02 0.  0.
        -12    1    1    2    0    0 -0.33714125064E+02  0.11300526488E+02 -0.24885320485E+02  0.43400729296E+02  0.00000000000E+00 0.  1.
         11    1    3    3    0    0  0.83170599241E+01  0.91872637361E-01 -0.39216156483E+00  0.83268071502E+01  0.51100000000E-03 0. -1.
        -11    1    3    3    0    0 -0.75482882215E+00  0.27485842939E+00  0.32064937566E+01  0.33055886282E+01  0.51100000000E-03 0.  1.
         12    1    3    3    0    0  0.26151893962E+02 -0.11667257555E+02  0.22070988294E+02  0.36154874926E+02  0.00000000000E+00 0. -1.
</event>
<event>
 7    1  0.4621547E-010  0.4778727E+02  0.7816164E-02  0.1312668E+00
        -11   -1    0    0    0    0  0.00000000000E+00  0.00000000000E+00  0.45593999997E+02  0.45594000000E+02  0.51100000000E-03 0.  1.
         11   -1    0    0    0    0 -0.00000000000E+00 -0.00000000000E+00 -0.45593999997E+02  0.45594000000E+02  0.51100000000E-03 0. -1.
    9900012    2    1    2    0    0 -0.11658582195E+02 -0.41406401556E+02  0.57628893171E+01  0.47787268187E+02  0.19999986971E+02 0.  0.
        -12    1    1    2    0    0  0.11658582195E+02  0.41406401556E+02 -0.57628893171E+01  0.43400731813E+02  0.00000000000E+00 0.  1.
         11    1    3    3    0    0 -0.28017385155E+01 -0.58554232047E+01  0.13964737124E+01  0.66397182701E+01  0.51100000000E-03 0. -1.
        -11    1    3    3    0    0  0.84581996867E+00 -0.72653583902E+01 -0.60391514238E+01  0.94853673697E+01  0.51100000000E-03 0.  1.
        -12    1    3    3    0    0 -0.97026636480E+01 -0.28285619961E+02  0.10405567028E+02  0.31662182547E+02  0.00000000000E+00 0.  1.
</event>
<event>
 7    1  0.4621547E-010  0.4778727E+02  0.7816164E-02  0.1312668E+00
        -11   -1    0    0    0    0  0.00000000000E+00  0.00000000000E+00  0.45593999997E+02  0.45594000000E+02  0.51100000000E-03 0.  1.
         11   -1    0    0    0    0 -0.00000000000E+00 -0.00000000000E+00 -0.45593999997E+02  0.45594000000E+02  0.51100000000E-03 0. -1.
    9900012    2    1    2    0    0  0.56517766628E+01  0.21434216190E+02 -0.37312936631E+02  0.47787269094E+02  0.19999991109E+02 0.  0.
        -12    1    1    2    0    0 -0.56517766628E+01 -0.21434216190E+02  0.37312936631E+02  0.43400730906E+02  0.00000000000E+00 0.  1.
         11    1    3    3    0    0  0.17975575483E+00  0.15400550716E+02 -0.30707487375E+02  0.34353443141E+02  0.51100000000E-03 0. -1.
        -11    1    3    3    0    0  0.41002200568E+01  0.74418609743E+01 -0.74442286468E+01  0.11296443674E+02  0.51100000000E-03 0.  1.
         12    1    3    3    0    0  0.13718008511E+01 -0.14081955003E+01  0.83877939077E+00  0.21373822794E+01  0.00000000000E+00 0. -1.
</event>
<event>
 7    1  0.4621547E-010  0.4778727E+02  0.7816164E-02  0.1312668E+00
        -11   -1    0    0    0    0  0.00000000000E+00  0.00000000000E+00  0.45593999997E+02  0.45594000000E+02  0.51100000000E-03 0. -1.
         11   -1    0    0    0    0 -0.00000000000E+00 -0.00000000000E+00 -0.45593999997E+02  0.45594000000E+02  0.51100000000E-03 0.  1.
    9900012    2    1    2    0    0 -0.62140563821E+01  0.17773755298E+01  0.42916776813E+02  0.47787270829E+02  0.19999999019E+02 0.  0.
        -12    1    1    2    0    0  0.62140563821E+01 -0.17773755298E+01 -0.42916776813E+02  0.43400729171E+02  0.00000000000E+00 0.  1.
         11    1    3    3    0    0 -0.26245048520E+01  0.43282145109E+01  0.26710778720E+02  0.27186157629E+02  0.51100000000E-03 0. -1.
        -11    1    3    3    0    0 -0.32441544175E+01  0.41485929293E+01  0.37888377108E+01  0.64877309314E+01  0.51100000000E-03 0.  1.
         12    1    3    3    0    0 -0.34539711259E+00 -0.66994319105E+01  0.12417160383E+02  0.14113382269E+02  0.00000000000E+00 0. -1.
</event>
<event>
 7    1  0.4621547E-010  0.4778727E+02  0.7816164E-02  0.1312668E+00
        -11   -1    0    0    0    0  0.00000000000E+00  0.00000000000E+00  0.45593999997E+02  0.45594000000E+02  0.51100000000E-03 0.  1.
         11   -1    0    0    0    0 -0.00000000000E+00 -0.00000000000E+00 -0.45593999997E+02  0.45594000000E+02  0.51100000000E-03 0. -1.
    9900012    2    1    2    0    0  0.24587137940E+02  0.96492780016E+00 -0.35751432145E+02  0.47787270304E+02  0.19999996624E+02 0.  0.
        -12    1    1    2    0    0 -0.24587137940E+02 -0.96492780016E+00  0.35751432145E+02  0.43400729696E+02  0.00000000000E+00 0.  1.
         11    1    3    3    0    0  0.88043580159E+01  0.21705986835E+01 -0.10318798115E+02  0.13737023459E+02  0.51100000000E-03 0. -1.
        -11    1    3    3    0    0  0.14075679414E+02  0.50558836339E+01 -0.12159570748E+02  0.19275421431E+02  0.51100000000E-03 0.  1.
        -12    1    3    3    0    0  0.17071005092E+01 -0.62615545173E+01 -0.13273063282E+02  0.14774825414E+02  0.00000000000E+00 0.  1.
</event>
<event>
 7    1  0.4621547E-010  0.4778727E+02  0.7816164E-02  0.1312668E+00
        -11   -1    0    0    0    0  0.00000000000E+00  0.00000000000E+00  0.45593999997E+02  0.45594000000E+02  0.51100000000E-03 0. -1.
         11   -1    0    0    0    0 -0.00000000000E+00 -0.00000000000E+00 -0.45593999997E+02  0.45594000000E+02  0.51100000000E-03 0.  1.
    9900012    2    1    2    0    0 -0.34702481625E+02 -0.17184047521E+02  0.19597695958E+02  0.47787269510E+02  0.19999993006E+02 0.  0.
        -12    1    1    2    0    0  0.34702481625E+02  0.17184047521E+02 -0.19597695958E+02  0.43400730490E+02  0.00000000000E+00 0.  1.
         11    1    3    3    0    0 -0.25520794744E+02 -0.10205544449E+02  0.11245410038E+02  0.29697194296E+02  0.51100000000E-03 0. -1.
        -11    1    3    3    0    0 -0.80880412417E+01 -0.40792478926E+01  0.10832606129E+02  0.14120978376E+02  0.51100000000E-03 0.  1.
         12    1    3    3    0    0 -0.10936456398E+01 -0.28992551790E+01 -0.24803202082E+01  0.39690968385E+01  0.00000000000E+00 0. -1.
</event>
<event>
 7    1  0.4621547E-010  0.4778727E+02  0.7816164E-02  0.1312668E+00
        -11   -1    0    0    0    0  0.00000000000E+00  0.00000000000E+00  0.45593999997E+02  0.45594000000E+02  0.51100000000E-03 0.  1.
         11   -1    0    0    0    0 -0.00000000000E+00 -0.00000000000E+00 -0.45593999997E+02  0.45594000000E+02  0.51100000000E-03 0. -1.
    9900012    2    1    2    0    0 -0.15569588368E+02 -0.35808974391E+02 -0.18945404222E+02  0.47787273393E+02  0.20000010708E+02 0.  0.
        -12    1    1    2    0    0  0.15569588368E+02  0.35808974391E+02  0.18945404222E+02  0.43400726607E+02  0.00000000000E+00 0.  1.
         11    1    3    3    0    0 -0.48747274753E+01 -0.44066634006E+01 -0.37920471979E+01  0.75869145571E+01  0.51100000000E-03 0. -1.
        -11    1    3    3    0    0 -0.47304072310E+01 -0.33853706769E+01  0.27359761694E+01  0.64283009460E+01  0.51100000000E-03 0.  1.
         12    1    3    3    0    0 -0.59644536614E+01 -0.28016940314E+02 -0.17889333193E+02  0.33772057890E+02  0.00000000000E+00 0. -1.
</event>
<event>
 7    1  0.4621547E-010  0.4778727E+02  0.7816164E-02  0.1312668E+00
        -11   -1    0    0    0    0  0.00000000000E+00  0.00000000000E+00  0.45593999997E+02  0.45594000000E+02  0.51100000000E-03 0. -1.
         11   -1    0    0    0    0 -0.00000000000E+00 -0.00000000000E+00 -0.45593999997E+02  0.45594000000E+02  0.51100000000E-03 0.  1.
    9900012    2    1    2    0    0  0.41118944446E+02 -0.13446572689E+02  0.34706007955E+01  0.47787274438E+02  0.20000015473E+02 0.  0.
        -12    1    1    2    0    0 -0.41118944446E+02  0.13446572689E+02 -0.34706007955E+01  0.43400725562E+02  0.00000000000E+00 0.  1.
         11    1    3    3    0    0  0.16364890379E+02 -0.31459845507E+01 -0.82157994737E+00  0.16684778985E+02  0.51100000000E-03 0. -1.
        -11    1    3    3    0    0  0.87706121210E+01 -0.82376655515E+01 -0.43755372064E+01  0.12803440820E+02  0.51100000000E-03 0.  1.
         12    1    3    3    0    0  0.15983441946E+02 -0.20629225874E+01  0.86677179492E+01  0.18299054633E+02  0.00000000000E+00 0. -1.
</event>
<event>
 7    1  0.4621547E-010  0.4778727E+02  0.7816164E-02  0.1312668E+00
        -11   -1    0    0    0    0  0.00000000000E+00  0.00000000000E+00  0.45593999997E+02  0.45594000000E+02  0.51100000000E-03 0.  1.
         11   -1    0    0    0    0 -0.00000000000E+00 -0.00000000000E+00 -0.45593999997E+02  0.45594000000E+02  0.51100000000E-03 0. -1.
    9900012    2    1    2    0    0 -0.66064349305E+01  0.25601104872E+02 -0.34417462317E+02  0.47787271141E+02  0.20000000441E+02 0.  0.
        -12    1    1    2    0    0  0.66064349305E+01 -0.25601104872E+02  0.34417462317E+02  0.43400728859E+02  0.00000000000E+00 0.  1.
         11    1    3    3    0    0 -0.39163250446E+01  0.23694557788E+01 -0.25545820034E+01  0.52419282726E+01  0.51100000000E-03 0. -1.
        -11    1    3    3    0    0 -0.43771801485E+01 -0.58824265387E-01 -0.82298259940E+01  0.93216523481E+01  0.51100000000E-03 0.  1.
         12    1    3    3    0    0  0.16870702626E+01  0.23290473359E+02 -0.23633054319E+02  0.33223690520E+02  0.00000000000E+00 0. -1.
</event>
<event>
 7    1  0.4621547E-010  0.4778727E+02  0.7816164E-02  0.1312668E+00
        -11   -1    0    0    0    0  0.00000000000E+00  0.00000000000E+00  0.45593999997E+02  0.45594000000E+02  0.51100000000E-03 0.  1.
         11   -1    0    0    0    0 -0.00000000000E+00 -0.00000000000E+00 -0.45593999997E+02  0.45594000000E+02  0.51100000000E-03 0. -1.
    9900012    2    1    2    0    0  0.13277410290E+02  0.23385323077E+02 -0.34065525341E+02  0.47787274474E+02  0.20000015637E+02 0.  0.
        -12    1    1    2    0    0 -0.13277410290E+02 -0.23385323077E+02  0.34065525341E+02  0.43400725526E+02  0.00000000000E+00 0.  1.
         11    1    3    3    0    0  0.57192290623E+01  0.13397629603E+02 -0.12699492387E+02  0.19325712593E+02  0.51100000000E-03 0. -1.
        -11    1    3    3    0    0  0.91773114953E+01  0.50744351831E+01 -0.56415521127E+01  0.11907982584E+02  0.51100000000E-03 0.  1.
         12    1    3    3    0    0 -0.16191302673E+01  0.49132582908E+01 -0.15724480841E+02  0.16553579298E+02  0.00000000000E+00 0. -1.
</event>
<event>
 7    1  0.4621547E-010  0.4778727E+02  0.7816164E-02  0.1312668E+00
        -11   -1    0    0    0    0  0.00000000000E+00  0.00000000000E+00  0.45593999997E+02  0.45594000000E+02  0.51100000000E-03 0.  1.
         11   -1    0    0    0    0 -0.00000000000E+00 -0.00000000000E+00 -0.45593999997E+02  0.45594000000E+02  0.51100000000E-03 0. -1.
    9900012    2    1    2    0    0  0.12312877131E+02  0.25216812184E+02 -0.33107829508E+02  0.47787274952E+02  0.20000017816E+02 0.  0.
        -12    1    1    2    0    0 -0.12312877131E+02 -0.25216812184E+02  0.33107829508E+02  0.43400725048E+02  0.00000000000E+00 0.  1.
         11    1    3    3    0    0  0.10329827716E+02  0.69931605334E+01 -0.10305859766E+02  0.16180864645E+02  0.51100000000E-03 0. -1.
        -11    1    3    3    0    0  0.55874082335E+01  0.17246548202E+02 -0.19441192034E+02  0.26582372047E+02  0.51100000000E-03 0.  1.
         12    1    3    3    0    0 -0.36043588181E+01  0.97710344797E+00 -0.33607777076E+01  0.50240382599E+01  0.00000000000E+00 0. -1.
</event>
<event>
 7    1  0.4621547E-010  0.4778727E+02  0.7816164E-02  0.1312668E+00
        -11   -1    0    0    0    0  0.00000000000E+00  0.00000000000E+00  0.45593999997E+02  0.45594000000E+02  0.51100000000E-03 0. -1.
         11   -1    0    0    0    0 -0.00000000000E+00 -0.00000000000E+00 -0.45593999997E+02  0.45594000000E+02  0.51100000000E-03 0.  1.
    9900012    2    1    2    0    0 -0.37294837122E+02 -0.81104979606E+01  0.20662476666E+02  0.47787274256E+02  0.20000014644E+02 0.  0.
        -12    1    1    2    0    0  0.37294837122E+02  0.81104979606E+01 -0.20662476666E+02  0.43400725744E+02  0.00000000000E+00 0.  1.
         11    1    3    3    0    0 -0.50234051126E+01 -0.27110811107E+01  0.78510207540E+01  0.97068577230E+01  0.51100000000E-03 0. -1.
        -11    1    3    3    0    0  0.10533160873E+00  0.24774466102E+01  0.14664754151E+01  0.28808656440E+01  0.51100000000E-03 0.  1.
        -12    1    3    3    0    0 -0.32376763618E+02 -0.78768634601E+01  0.11344980497E+02  0.35199550889E+02  0.00000000000E+00 0.  1.
</event>
<event>
 7    1  0.4621547E-010  0.4778727E+02  0.7816164E-02  0.1312668E+00
        -11   -1    0    0    0    0  0.00000000000E+00  0.00000000000E+00  0.45593999997E+02  0.45594000000E+02  0.51100000000E-03 0.  1.
         11   -1    0    0    0    0 -0.00000000000E+00 -0.00000000000E+00 -0.45593999997E+02  0.45594000000E+02  0.51100000000E-03 0. -1.
    9900012    2    1    2    0    0 -0.23878615366E+02 -0.21140963803E+02 -0.29436280343E+02  0.47787271634E+02  0.20000002687E+02 0.  0.
        -12    1    1    2    0    0  0.23878615366E+02  0.21140963803E+02  0.29436280343E+02  0.43400728366E+02  0.00000000000E+00 0.  1.
         11    1    3    3    0    0 -0.30646360885E+01 -0.63012682534E+01  0.15931096553E+01  0.71858176008E+01  0.51100000000E-03 0.  1.
        -11    1    3    3    0    0 -0.84393638359E+01 -0.38109943463E+01 -0.14409932995E+02  0.17128710081E+02  0.51100000000E-03 0. -1.
        -12    1    3    3    0    0 -0.12374615441E+02 -0.11028701203E+02 -0.16619457003E+02  0.23472743952E+02  0.00000000000E+00 0.  1.
</event>
<event>
 7    1  0.4621547E-010  0.4778727E+02  0.7816164E-02  0.1312668E+00
        -11   -1    0    0    0    0  0.00000000000E+00  0.00000000000E+00  0.45593999997E+02  0.45594000000E+02  0.51100000000E-03 0. -1.
         11   -1    0    0    0    0 -0.00000000000E+00 -0.00000000000E+00 -0.45593999997E+02  0.45594000000E+02  0.51100000000E-03 0.  1.
    9900012    2    1    2    0    0 -0.13113592736E+02 -0.45414803638E+01  0.41122160357E+02  0.47787269237E+02  0.19999991758E+02 0.  0.
        -12    1    1    2    0    0  0.13113592736E+02  0.45414803638E+01 -0.41122160357E+02  0.43400730763E+02  0.00000000000E+00 0.  1.
         11    1    3    3    0    0  0.16519212728E+01 -0.13668802707E+01  0.12256805673E+02  0.12442929363E+02  0.51100000000E-03 0. -1.
        -11    1    3    3    0    0  0.26634683747E+00  0.36895325034E+01  0.72162920319E+01  0.81091591230E+01  0.51100000000E-03 0.  1.
        -12    1    3    3    0    0 -0.15031860846E+02 -0.68641325965E+01  0.21649062653E+02  0.27235180751E+02  0.00000000000E+00 0.  1.
</event>
<event>
 7    1  0.4621547E-010  0.4778727E+02  0.7816164E-02  0.1312668E+00
        -11   -1    0    0    0    0  0.00000000000E+00  0.00000000000E+00  0.45593999997E+02  0.45594000000E+02  0.51100000000E-03 0.  1.
         11   -1    0    0    0    0 -0.00000000000E+00 -0.00000000000E+00 -0.45593999997E+02  0.45594000000E+02  0.51100000000E-03 0. -1.
    9900012    2    1    2    0    0  0.22854990005E+02  0.20295333241E+02 -0.30811879262E+02  0.47787273932E+02  0.20000013168E+02 0.  0.
        -12    1    1    2    0    0 -0.22854990005E+02 -0.20295333241E+02  0.30811879262E+02  0.43400726068E+02  0.00000000000E+00 0.  1.
         11    1    3    3    0    0  0.14920154995E+02  0.12829215111E+02 -0.27104162843E+02  0.33493811803E+02  0.51100000000E-03 0. -1.
        -11    1    3    3    0    0 -0.10743342238E+01  0.34785118301E+01 -0.23863460662E+01  0.43530318613E+01  0.51100000000E-03 0.  1.
        -12    1    3    3    0    0  0.90091692344E+01  0.39876063003E+01 -0.13213703530E+01  0.99404302679E+01  0.00000000000E+00 0.  1.
</event>
<event>
 7    1  0.4621547E-010  0.4778727E+02  0.7816164E-02  0.1312668E+00
        -11   -1    0    0    0    0  0.00000000000E+00  0.00000000000E+00  0.45593999997E+02  0.45594000000E+02  0.51100000000E-03 0.  1.
         11   -1    0    0    0    0 -0.00000000000E+00 -0.00000000000E+00 -0.45593999997E+02  0.45594000000E+02  0.51100000000E-03 0. -1.
    9900012    2    1    2    0    0  0.24111786582E+01 -0.34822256093E+02 -0.25791859007E+02  0.47787270824E+02  0.19999998997E+02 0.  0.
        -12    1    1    2    0    0 -0.24111786582E+01  0.34822256093E+02  0.25791859007E+02  0.43400729176E+02  0.00000000000E+00 0.  1.
         11    1    3    3    0    0 -0.24308565615E+01 -0.27500322243E+02 -0.24630321128E+02  0.36997695959E+02  0.51100000000E-03 0. -1.
        -11    1    3    3    0    0 -0.40409626570E+00 -0.49534189748E+01 -0.46560271929E+00  0.49916369544E+01  0.51100000000E-03 0.  1.
         12    1    3    3    0    0  0.52461314854E+01 -0.23685148746E+01 -0.69593515973E+00  0.57979379110E+01  0.00000000000E+00 0. -1.
</event>
<event>
 7    1  0.4621547E-010  0.4778725E+02  0.7816164E-02  0.1312668E+00
        -11   -1    0    0    0    0  0.00000000000E+00  0.00000000000E+00  0.45593999997E+02  0.45594000000E+02  0.51100000000E-03 0.  1.
         11   -1    0    0    0    0 -0.00000000000E+00 -0.00000000000E+00 -0.45593999997E+02  0.45594000000E+02  0.51100000000E-03 0. -1.
    9900012    2    1    2    0    0 -0.10717702180E+02 -0.24298511166E+02 -0.34326927055E+02  0.47787254546E+02  0.19999924778E+02 0.  0.
        -12    1    1    2    0    0  0.10717702180E+02  0.24298511166E+02  0.34326927055E+02  0.43400745454E+02  0.00000000000E+00 0.  1.
         11    1    3    3    0    0 -0.11789777572E+02 -0.11143983879E+02 -0.18076258548E+02  0.24288646633E+02  0.51100000000E-03 0. -1.
        -11    1    3    3    0    0 -0.24338635079E+01 -0.45442562503E+01 -0.12413216674E+02  0.13441052968E+02  0.51100000000E-03 0.  1.
         12    1    3    3    0    0  0.35059389002E+01 -0.86102710370E+01 -0.38374518327E+01  0.10057554945E+02  0.00000000000E+00 0. -1.
</event>
<event>
 7    1  0.4621547E-010  0.4778727E+02  0.7816164E-02  0.1312668E+00
        -11   -1    0    0    0    0  0.00000000000E+00  0.00000000000E+00  0.45593999997E+02  0.45594000000E+02  0.51100000000E-03 0. -1.
         11   -1    0    0    0    0 -0.00000000000E+00 -0.00000000000E+00 -0.45593999997E+02  0.45594000000E+02  0.51100000000E-03 0.  1.
    9900012    2    1    2    0    0  0.28607243104E-01  0.16455110488E+02  0.40160325096E+02  0.47787271995E+02  0.20000004333E+02 0.  0.
        -12    1    1    2    0    0 -0.28607243104E-01 -0.16455110488E+02 -0.40160325096E+02  0.43400728005E+02  0.00000000000E+00 0.  1.
         11    1    3    3    0    0 -0.61169878657E+01  0.80552955130E+01  0.13872139521E+02  0.17168039536E+02  0.51100000000E-03 0. -1.
        -11    1    3    3    0    0 -0.16069946894E+01  0.10103899594E+01 -0.33042273339E+00  0.19267846910E+01  0.51100000000E-03 0.  1.
         12    1    3    3    0    0  0.77525897982E+01  0.73894250156E+01  0.26618608308E+02  0.28692447768E+02  0.00000000000E+00 0. -1.
</event>
<event>
 7    1  0.4621547E-010  0.4778727E+02  0.7816164E-02  0.1312668E+00
        -11   -1    0    0    0    0  0.00000000000E+00  0.00000000000E+00  0.45593999997E+02  0.45594000000E+02  0.51100000000E-03 0. -1.
         11   -1    0    0    0    0 -0.00000000000E+00 -0.00000000000E+00 -0.45593999997E+02  0.45594000000E+02  0.51100000000E-03 0.  1.
    9900012    2    1    2    0    0  0.99899897141E+01  0.21005479534E+02  0.36641413983E+02  0.47787270933E+02  0.19999999490E+02 0.  0.
        -12    1    1    2    0    0 -0.99899897141E+01 -0.21005479534E+02 -0.36641413983E+02  0.43400729067E+02  0.00000000000E+00 0.  1.
         11    1    3    3    0    0 -0.16363661030E+01  0.10716168079E+02  0.26374333539E+02  0.28515248942E+02  0.51100000000E-03 0. -1.
        -11    1    3    3    0    0  0.54105657653E+00  0.28785613735E+01  0.13095956881E+01  0.32084106544E+01  0.51100000000E-03 0.  1.
         12    1    3    3    0    0  0.11085299241E+02  0.74107500811E+01  0.89574847557E+01  0.16063611336E+02  0.00000000000E+00 0. -1.
</event>
<event>
 7    1  0.4621547E-010  0.4778727E+02  0.7816164E-02  0.1312668E+00
        -11   -1    0    0    0    0  0.00000000000E+00  0.00000000000E+00  0.45593999997E+02  0.45594000000E+02  0.51100000000E-03 0.  1.
         11   -1    0    0    0    0 -0.00000000000E+00 -0.00000000000E+00 -0.45593999997E+02  0.45594000000E+02  0.51100000000E-03 0. -1.
    9900012    2    1    2    0    0 -0.68882282826E+01  0.24926649329E+02 -0.34854526476E+02  0.47787267846E+02  0.19999985418E+02 0.  0.
        -12    1    1    2    0    0  0.68882282826E+01 -0.24926649329E+02  0.34854526476E+02  0.43400732154E+02  0.00000000000E+00 0.  1.
         11    1    3    3    0    0 -0.94795668897E+01  0.49581937874E+01 -0.15850859863E+02  0.19123170048E+02  0.51100000000E-03 0. -1.
        -11    1    3    3    0    0  0.29798601895E+01  0.26638007635E+01 -0.49898988488E+01  0.63933162005E+01  0.51100000000E-03 0.  1.
        -12    1    3    3    0    0 -0.38852158244E+00  0.17304654778E+02 -0.14013767764E+02  0.22270781597E+02  0.00000000000E+00 0.  1.
</event>
<event>
 7    1  0.4621547E-010  0.4778727E+02  0.7816164E-02  0.1312668E+00
        -11   -1    0    0    0    0  0.00000000000E+00  0.00000000000E+00  0.45593999997E+02  0.45594000000E+02  0.51100000000E-03 0. -1.
         11   -1    0    0    0    0 -0.00000000000E+00 -0.00000000000E+00 -0.45593999997E+02  0.45594000000E+02  0.51100000000E-03 0.  1.
    9900012    2    1    2    0    0  0.33804739263E+02 -0.27185261912E+02 -0.13506179174E+01  0.47787273847E+02  0.20000012779E+02 0.  0.
        -12    1    1    2    0    0 -0.33804739263E+02  0.27185261912E+02  0.13506179174E+01  0.43400726153E+02  0.00000000000E+00 0.  1.
         11    1    3    3    0    0  0.69513638411E+01 -0.13622921425E+01 -0.41238961111E+01  0.81965735847E+01  0.51100000000E-03 0. -1.
        -11    1    3    3    0    0  0.44455067999E+00 -0.20496302913E+01  0.34657189189E+01  0.40509032973E+01  0.51100000000E-03 0.  1.
         12    1    3    3    0    0  0.26408824742E+02 -0.23773339478E+02 -0.69244072520E+00  0.35539796965E+02  0.00000000000E+00 0. -1.
</event>
<event>
 7    1  0.4621547E-010  0.4778727E+02  0.7816164E-02  0.1312668E+00
        -11   -1    0    0    0    0  0.00000000000E+00  0.00000000000E+00  0.45593999997E+02  0.45594000000E+02  0.51100000000E-03 0.  1.
         11   -1    0    0    0    0 -0.00000000000E+00 -0.00000000000E+00 -0.45593999997E+02  0.45594000000E+02  0.51100000000E-03 0. -1.
    9900012    2    1    2    0    0 -0.25157451070E+02  0.30204914621E+02 -0.18395358340E+02  0.47787269360E+02  0.19999992322E+02 0.  0.
        -12    1    1    2    0    0  0.25157451070E+02 -0.30204914621E+02  0.18395358340E+02  0.43400730640E+02  0.00000000000E+00 0.  1.
         11    1    3    3    0    0 -0.35761503588E+01  0.12275691193E+01 -0.83006653665E+01  0.91212292548E+01  0.51100000000E-03 0. -1.
        -11    1    3    3    0    0 -0.40879427364E+01  0.54071594730E+01 -0.59554599251E+01  0.90230899676E+01  0.51100000000E-03 0.  1.
        -12    1    3    3    0    0 -0.17493357975E+02  0.23570186028E+02 -0.41392330486E+01  0.29642950138E+02  0.00000000000E+00 0.  1.
</event>
<event>
 7    1  0.4621547E-010  0.4778727E+02  0.7816164E-02  0.1312668E+00
        -11   -1    0    0    0    0  0.00000000000E+00  0.00000000000E+00  0.45593999997E+02  0.45594000000E+02  0.51100000000E-03 0.  1.
         11   -1    0    0    0    0 -0.00000000000E+00 -0.00000000000E+00 -0.45593999997E+02  0.45594000000E+02  0.51100000000E-03 0. -1.
    9900012    2    1    2    0    0  0.25837009942E+01 -0.36582182618E+02 -0.23209732281E+02  0.47787271107E+02  0.20000000285E+02 0.  0.
        -12    1    1    2    0    0 -0.25837009942E+01  0.36582182618E+02  0.23209732281E+02  0.43400728893E+02  0.00000000000E+00 0.  1.
         11    1    3    3    0    0 -0.22372841774E+01 -0.16050888872E+01 -0.56662240543E+01  0.62998290549E+01  0.51100000000E-03 0.  1.
        -11    1    3    3    0    0 -0.22817426024E+01 -0.17862572269E+02 -0.13539577791E+02  0.22529935739E+02  0.51100000000E-03 0. -1.
        -12    1    3    3    0    0  0.71027277740E+01 -0.17114521461E+02 -0.40039304352E+01  0.18957506313E+02  0.00000000000E+00 0.  1.
</event>
<event>
 7    1  0.4621547E-010  0.4778727E+02  0.7816164E-02  0.1312668E+00
        -11   -1    0    0    0    0  0.00000000000E+00  0.00000000000E+00  0.45593999997E+02  0.45594000000E+02  0.51100000000E-03 0. -1.
         11   -1    0    0    0    0 -0.00000000000E+00 -0.00000000000E+00 -0.45593999997E+02  0.45594000000E+02  0.51100000000E-03 0.  1.
    9900012    2    1    2    0    0 -0.22872314676E+02 -0.36219086837E+02 -0.69755523754E+01  0.47787270042E+02  0.19999995429E+02 0.  0.
        -12    1    1    2    0    0  0.22872314676E+02  0.36219086837E+02  0.69755523754E+01  0.43400729958E+02  0.00000000000E+00 0.  1.
         11    1    3    3    0    0 -0.77605800262E+01 -0.24634839334E+02  0.93780273994E+00  0.25845335858E+02  0.51100000000E-03 0. -1.
        -11    1    3    3    0    0 -0.23403462793E+01 -0.54050570148E+01 -0.43253704273E+01  0.73075776859E+01  0.51100000000E-03 0.  1.
        -12    1    3    3    0    0 -0.12771388370E+02 -0.61791904881E+01 -0.35879846880E+01  0.14634356498E+02  0.00000000000E+00 0.  1.
</event>
<event>
 7    1  0.4621547E-010  0.4778727E+02  0.7816164E-02  0.1312668E+00
        -11   -1    0    0    0    0  0.00000000000E+00  0.00000000000E+00  0.45593999997E+02  0.45594000000E+02  0.51100000000E-03 0.  1.
         11   -1    0    0    0    0 -0.00000000000E+00 -0.00000000000E+00 -0.45593999997E+02  0.45594000000E+02  0.51100000000E-03 0. -1.
    9900012    2    1    2    0    0 -0.38526017730E+02 -0.96470951412E+01 -0.17501509574E+02  0.47787270465E+02  0.19999997357E+02 0.  0.
        -12    1    1    2    0    0  0.38526017730E+02  0.96470951412E+01  0.17501509574E+02  0.43400729535E+02  0.00000000000E+00 0.  1.
         11    1    3    3    0    0 -0.19864510793E+02 -0.30252368699E+01 -0.12626284756E+02  0.23731285557E+02  0.51100000000E-03 0. -1.
        -11    1    3    3    0    0 -0.35921645347E+01  0.21479674633E+01 -0.51273708966E+01  0.66187115694E+01  0.51100000000E-03 0.  1.
        -12    1    3    3    0    0 -0.15069342402E+02 -0.87698257346E+01  0.25214607797E+00  0.17437273339E+02  0.00000000000E+00 0.  1.
</event>
<event>
 7    1  0.4621547E-010  0.4778727E+02  0.7816164E-02  0.1312668E+00
        -11   -1    0    0    0    0  0.00000000000E+00  0.00000000000E+00  0.45593999997E+02  0.45594000000E+02  0.51100000000E-03 0.  1.
         11   -1    0    0    0    0 -0.00000000000E+00 -0.00000000000E+00 -0.45593999997E+02  0.45594000000E+02  0.51100000000E-03 0. -1.
    9900012    2    1    2    0    0  0.77758300499E+01  0.12188428688E+01 -0.42681073806E+02  0.47787272217E+02  0.20000005346E+02 0.  0.
        -12    1    1    2    0    0 -0.77758300499E+01 -0.12188428688E+01  0.42681073806E+02  0.43400727783E+02  0.00000000000E+00 0.  1.
         11    1    3    3    0    0  0.21647395187E+01 -0.35366134104E+00 -0.17061979549E+01  0.27789000073E+01  0.51100000000E-03 0. -1.
        -11    1    3    3    0    0  0.72800216414E+01 -0.19374251027E+01 -0.55155226571E+01  0.93366654417E+01  0.51100000000E-03 0.  1.
         12    1    3    3    0    0 -0.16689311102E+01  0.35099293125E+01 -0.35459353194E+02  0.35671706768E+02  0.00000000000E+00 0. -1.
</event>
<event>
 7    1  0.4621547E-010  0.4778726E+02  0.7816164E-02  0.1312668E+00
        -11   -1    0    0    0    0  0.00000000000E+00  0.00000000000E+00  0.45593999997E+02  0.45594000000E+02  0.51100000000E-03 0.  1.
         11   -1    0    0    0    0 -0.00000000000E+00 -0.00000000000E+00 -0.45593999997E+02  0.45594000000E+02  0.51100000000E-03 0. -1.
    9900012    2    1    2    0    0  0.10562185548E+02  0.23748544050E+02 -0.34757311389E+02  0.47787264948E+02  0.19999972203E+02 0.  0.
        -12    1    1    2    0    0 -0.10562185548E+02 -0.23748544050E+02  0.34757311389E+02  0.43400735052E+02  0.00000000000E+00 0.  1.
         11    1    3    3    0    0  0.52730883206E+01  0.21589512988E+02 -0.35185369866E+02  0.41616376396E+02  0.51100000000E-03 0. -1.
        -11    1    3    3    0    0  0.16796449554E+01 -0.63521125872E-01 -0.64163060412E+00  0.17991476323E+01  0.51100000000E-03 0.  1.
         12    1    3    3    0    0  0.36094522723E+01  0.22225521884E+01  0.10696890806E+01  0.43717409193E+01  0.00000000000E+00 0. -1.
</event>
<event>
 7    1  0.4621547E-010  0.4778727E+02  0.7816164E-02  0.1312668E+00
        -11   -1    0    0    0    0  0.00000000000E+00  0.00000000000E+00  0.45593999997E+02  0.45594000000E+02  0.51100000000E-03 0.  1.
         11   -1    0    0    0    0 -0.00000000000E+00 -0.00000000000E+00 -0.45593999997E+02  0.45594000000E+02  0.51100000000E-03 0. -1.
    9900012    2    1    2    0    0 -0.26910178602E+01  0.32213990108E+02 -0.28959290965E+02  0.47787271101E+02  0.20000000257E+02 0.  0.
        -12    1    1    2    0    0  0.26910178602E+01 -0.32213990108E+02  0.28959290965E+02  0.43400728899E+02  0.00000000000E+00 0.  1.
         11    1    3    3    0    0  0.23706706241E+01  0.82168505421E+01 -0.74920605488E+01  0.11369594697E+02  0.51100000000E-03 0. -1.
        -11    1    3    3    0    0  0.51756871601E+00  0.21378247404E+02 -0.10467562922E+02  0.23808973377E+02  0.51100000000E-03 0.  1.
         12    1    3    3    0    0 -0.55792572003E+01  0.26188921616E+01 -0.10999667494E+02  0.12608703027E+02  0.00000000000E+00 0. -1.
</event>
<event>
 7    1  0.4621547E-010  0.4778728E+02  0.7816164E-02  0.1312668E+00
        -11   -1    0    0    0    0  0.00000000000E+00  0.00000000000E+00  0.45593999997E+02  0.45594000000E+02  0.51100000000E-03 0. -1.
         11   -1    0    0    0    0 -0.00000000000E+00 -0.00000000000E+00 -0.45593999997E+02  0.45594000000E+02  0.51100000000E-03 0.  1.
    9900012    2    1    2    0    0 -0.31900654254E+02  0.22273803675E+02  0.19231443528E+02  0.47787280051E+02  0.20000041062E+02 0.  0.
        -12    1    1    2    0    0  0.31900654254E+02 -0.22273803675E+02 -0.19231443528E+02  0.43400719949E+02  0.00000000000E+00 0.  1.
         11    1    3    3    0    0 -0.16371424001E+02  0.17134129323E+02  0.83654303935E+01  0.25131301945E+02  0.51100000000E-03 0. -1.
        -11    1    3    3    0    0  0.61900377618E+00  0.29138361550E+01 -0.14867067246E+00  0.29825676930E+01  0.51100000000E-03 0.  1.
        -12    1    3    3    0    0 -0.16148234028E+02  0.22258381969E+01  0.11014683807E+02  0.19673410413E+02  0.00000000000E+00 0.  1.
</event>
<event>
 7    1  0.4621547E-010  0.4778727E+02  0.7816164E-02  0.1312668E+00
        -11   -1    0    0    0    0  0.00000000000E+00  0.00000000000E+00  0.45593999997E+02  0.45594000000E+02  0.51100000000E-03 0. -1.
         11   -1    0    0    0    0 -0.00000000000E+00 -0.00000000000E+00 -0.45593999997E+02  0.45594000000E+02  0.51100000000E-03 0.  1.
    9900012    2    1    2    0    0  0.37105679275E+02  0.19761779427E+02  0.10782579452E+02  0.47787269820E+02  0.19999994416E+02 0.  0.
        -12    1    1    2    0    0 -0.37105679275E+02 -0.19761779427E+02 -0.10782579452E+02  0.43400730180E+02  0.00000000000E+00 0.  1.
         11    1    3    3    0    0  0.71815126100E+01  0.72411574807E+01 -0.11683318915E+01  0.10265158776E+02  0.51100000000E-03 0. -1.
        -11    1    3    3    0    0  0.37590483668E+01  0.62330006796E+01  0.71196833144E+01  0.10181877668E+02  0.51100000000E-03 0.  1.
         12    1    3    3    0    0  0.26165118298E+02  0.62876212661E+01  0.48312280291E+01  0.27340233375E+02  0.00000000000E+00 0. -1.
</event>
<event>
 7    1  0.4621547E-010  0.4778727E+02  0.7816164E-02  0.1312668E+00
        -11   -1    0    0    0    0  0.00000000000E+00  0.00000000000E+00  0.45593999997E+02  0.45594000000E+02  0.51100000000E-03 0. -1.
         11   -1    0    0    0    0 -0.00000000000E+00 -0.00000000000E+00 -0.45593999997E+02  0.45594000000E+02  0.51100000000E-03 0.  1.
    9900012    2    1    2    0    0 -0.65765545529E+01  0.39384421136E+02 -0.17007046777E+02  0.47787270305E+02  0.19999996628E+02 0.  0.
        -12    1    1    2    0    0  0.65765545529E+01 -0.39384421136E+02  0.17007046777E+02  0.43400729695E+02  0.00000000000E+00 0.  1.
         11    1    3    3    0    0  0.45556935785E+00  0.10048938058E+02  0.10407228463E+00  0.10059797753E+02  0.51100000000E-03 0. -1.
        -11    1    3    3    0    0 -0.52604481486E+01  0.29670205231E+02 -0.12223331115E+02  0.32517736960E+02  0.51100000000E-03 0.  1.
        -12    1    3    3    0    0 -0.17716757621E+01 -0.33472215319E+00 -0.48877879466E+01  0.52097355918E+01  0.00000000000E+00 0.  1.
</event>
<event>
 7    1  0.4621547E-010  0.4778727E+02  0.7816164E-02  0.1312668E+00
        -11   -1    0    0    0    0  0.00000000000E+00  0.00000000000E+00  0.45593999997E+02  0.45594000000E+02  0.51100000000E-03 0.  1.
         11   -1    0    0    0    0 -0.00000000000E+00 -0.00000000000E+00 -0.45593999997E+02  0.45594000000E+02  0.51100000000E-03 0. -1.
    9900012    2    1    2    0    0  0.29264223525E+02 -0.32048138678E+02 -0.38142116878E+00  0.47787268977E+02  0.19999990573E+02 0.  0.
        -12    1    1    2    0    0 -0.29264223525E+02  0.32048138678E+02  0.38142116878E+00  0.43400731023E+02  0.00000000000E+00 0.  1.
         11    1    3    3    0    0  0.22981142877E+01 -0.56042555910E+01 -0.15001273551E+01  0.62401436163E+01  0.51100000000E-03 0. -1.
        -11    1    3    3    0    0  0.19414545865E+02 -0.85932487546E+01 -0.37567066889E+01  0.21561107595E+02  0.51100000000E-03 0.  1.
         12    1    3    3    0    0  0.75515633718E+01 -0.17850634332E+02  0.48754128752E+01  0.19986017766E+02  0.00000000000E+00 0. -1.
</event>
<event>
 7    1  0.4621547E-010  0.4778726E+02  0.7816164E-02  0.1312668E+00
        -11   -1    0    0    0    0  0.00000000000E+00  0.00000000000E+00  0.45593999997E+02  0.45594000000E+02  0.51100000000E-03 0.  1.
         11   -1    0    0    0    0 -0.00000000000E+00 -0.00000000000E+00 -0.45593999997E+02  0.45594000000E+02  0.51100000000E-03 0. -1.
    9900012    2    1    2    0    0  0.31610328279E+02  0.27499022136E+02  0.11323226843E+02  0.47787256476E+02  0.19999933576E+02 0.  0.
        -12    1    1    2    0    0 -0.31610328279E+02 -0.27499022136E+02 -0.11323226843E+02  0.43400743524E+02  0.00000000000E+00 0.  1.
         11    1    3    3    0    0  0.13941627278E+02  0.11754979689E+02 -0.91665537395E+00  0.18258936880E+02  0.51100000000E-03 0. -1.
        -11    1    3    3    0    0  0.15246385848E+02  0.16289131006E+02  0.64441748456E+01  0.23223166452E+02  0.51100000000E-03 0.  1.
        -12    1    3    3    0    0  0.24223151529E+01 -0.54508855921E+00  0.57957073711E+01  0.63051531440E+01  0.00000000000E+00 0.  1.
</event>
<event>
 7    1  0.4621547E-010  0.4778727E+02  0.7816164E-02  0.1312668E+00
        -11   -1    0    0    0    0  0.00000000000E+00  0.00000000000E+00  0.45593999997E+02  0.45594000000E+02  0.51100000000E-03 0.  1.
         11   -1    0    0    0    0 -0.00000000000E+00 -0.00000000000E+00 -0.45593999997E+02  0.45594000000E+02  0.51100000000E-03 0. -1.
    9900012    2    1    2    0    0 -0.15079077304E+02  0.38133895062E+02 -0.14214455611E+02  0.47787271052E+02  0.20000000034E+02 0.  0.
        -12    1    1    2    0    0  0.15079077304E+02 -0.38133895062E+02  0.14214455611E+02  0.43400728948E+02  0.00000000000E+00 0.  1.
         11    1    3    3    0    0 -0.15550043038E+01  0.70969454104E+01  0.82022898709E+00  0.73114600727E+01  0.51100000000E-03 0. -1.
        -11    1    3    3    0    0 -0.11184054617E+02  0.17052276934E+02 -0.83625247321E+00  0.20409863909E+02  0.51100000000E-03 0.  1.
        -12    1    3    3    0    0 -0.23400183830E+01  0.13984672717E+02 -0.14198432124E+02  0.20065947071E+02  0.00000000000E+00 0.  1.
</event>
<event>
 7    1  0.4621547E-010  0.4778727E+02  0.7816164E-02  0.1312668E+00
        -11   -1    0    0    0    0  0.00000000000E+00  0.00000000000E+00  0.45593999997E+02  0.45594000000E+02  0.51100000000E-03 0.  1.
         11   -1    0    0    0    0 -0.00000000000E+00 -0.00000000000E+00 -0.45593999997E+02  0.45594000000E+02  0.51100000000E-03 0. -1.
    9900012    2    1    2    0    0  0.33808375191E+02  0.59320754532E+01 -0.26559888372E+02  0.47787269332E+02  0.19999992191E+02 0.  0.
        -12    1    1    2    0    0 -0.33808375191E+02 -0.59320754532E+01  0.26559888372E+02  0.43400730668E+02  0.00000000000E+00 0.  1.
         11    1    3    3    0    0  0.15313941171E+02  0.20163379827E+01 -0.15185453391E+02  0.21660572661E+02  0.51100000000E-03 0. -1.
        -11    1    3    3    0    0  0.17520158895E+02  0.69451301733E+01 -0.12650052290E+02  0.22698339676E+02  0.51100000000E-03 0.  1.
        -12    1    3    3    0    0  0.97427512482E+00 -0.30293927028E+01  0.12756173094E+01  0.34283569953E+01  0.00000000000E+00 0.  1.
</event>
<event>
 7    1  0.4621547E-010  0.4778727E+02  0.7816164E-02  0.1312668E+00
        -11   -1    0    0    0    0  0.00000000000E+00  0.00000000000E+00  0.45593999997E+02  0.45594000000E+02  0.51100000000E-03 0.  1.
         11   -1    0    0    0    0 -0.00000000000E+00 -0.00000000000E+00 -0.45593999997E+02  0.45594000000E+02  0.51100000000E-03 0. -1.
    9900012    2    1    2    0    0  0.29581274994E+02  0.31466018753E+02 -0.42966567089E+01  0.47787269299E+02  0.19999992044E+02 0.  0.
        -12    1    1    2    0    0 -0.29581274994E+02 -0.31466018753E+02  0.42966567089E+01  0.43400730701E+02  0.00000000000E+00 0.  1.
         11    1    3    3    0    0  0.10663992896E+02  0.56726309081E+01 -0.43329773221E+01  0.12832543732E+02  0.51100000000E-03 0. -1.
        -11    1    3    3    0    0  0.87928053048E+01  0.59633260071E+01 -0.55682892955E+01  0.11995020973E+02  0.51100000000E-03 0.  1.
         12    1    3    3    0    0  0.10124476793E+02  0.19830061838E+02  0.56046099088E+01  0.22959704595E+02  0.00000000000E+00 0. -1.
</event>
<event>
 7    1  0.4621547E-010  0.4778727E+02  0.7816164E-02  0.1312668E+00
        -11   -1    0    0    0    0  0.00000000000E+00  0.00000000000E+00  0.45593999997E+02  0.45594000000E+02  0.51100000000E-03 0. -1.
         11   -1    0    0    0    0 -0.00000000000E+00 -0.00000000000E+00 -0.45593999997E+02  0.45594000000E+02  0.51100000000E-03 0.  1.
    9900012    2    1    2    0    0  0.11423506936E+02 -0.40645886975E+02  0.10051794897E+02  0.47787271673E+02  0.20000002865E+02 0.  0.
        -12    1    1    2    0    0 -0.11423506936E+02  0.40645886975E+02 -0.10051794897E+02  0.43400728327E+02  0.00000000000E+00 0.  1.
         11    1    3    3    0    0  0.76700976127E+01 -0.88322058183E+01  0.44488413665E+01  0.12515208619E+02  0.51100000000E-03 0. -1.
        -11    1    3    3    0    0  0.76670352660E+01 -0.19575112621E+02 -0.54015519002E+00  0.21029984113E+02  0.51100000000E-03 0.  1.
         12    1    3    3    0    0 -0.39136259425E+01 -0.12238568536E+02  0.61431087209E+01  0.14242078942E+02  0.00000000000E+00 0. -1.
</event>
<event>
 7    1  0.4621547E-010  0.4778727E+02  0.7816164E-02  0.1312668E+00
        -11   -1    0    0    0    0  0.00000000000E+00  0.00000000000E+00  0.45593999997E+02  0.45594000000E+02  0.51100000000E-03 0.  1.
         11   -1    0    0    0    0 -0.00000000000E+00 -0.00000000000E+00 -0.45593999997E+02  0.45594000000E+02  0.51100000000E-03 0. -1.
    9900012    2    1    2    0    0  0.31370164869E+02  0.25103384818E+02 -0.16412066359E+02  0.47787273100E+02  0.20000009374E+02 0.  0.
        -12    1    1    2    0    0 -0.31370164869E+02 -0.25103384818E+02  0.16412066359E+02  0.43400726900E+02  0.00000000000E+00 0.  1.
         11    1    3    3    0    0  0.11166723476E+02  0.78563922707E+01  0.70872902282E+00  0.13671902200E+02  0.51100000000E-03 0. -1.
        -11    1    3    3    0    0  0.43337839234E+01  0.37131947729E-01  0.10753127148E+01  0.44653510021E+01  0.51100000000E-03 0.  1.
         12    1    3    3    0    0  0.15869657470E+02  0.17209860600E+02 -0.18196108097E+02  0.29650019898E+02  0.00000000000E+00 0. -1.
</event>
<event>
 7    1  0.4621547E-010  0.4778725E+02  0.7816164E-02  0.1312668E+00
        -11   -1    0    0    0    0  0.00000000000E+00  0.00000000000E+00  0.45593999997E+02  0.45594000000E+02  0.51100000000E-03 0.  1.
         11   -1    0    0    0    0 -0.00000000000E+00 -0.00000000000E+00 -0.45593999997E+02  0.45594000000E+02  0.51100000000E-03 0. -1.
    9900012    2    1    2    0    0  0.27202730434E+02 -0.34663352353E+01 -0.33639580169E+02  0.47787246816E+02  0.19999889530E+02 0.  0.
        -12    1    1    2    0    0 -0.27202730434E+02  0.34663352353E+01  0.33639580169E+02  0.43400753184E+02  0.00000000000E+00 0.  1.
         11    1    3    3    0    0  0.79526359014E+01  0.27495776930E+01 -0.16670102992E+02  0.18673428429E+02  0.51100000000E-03 0. -1.
        -11    1    3    3    0    0  0.12042566274E+02 -0.15920695865E+01 -0.16564304147E+02  0.20541038439E+02  0.51100000000E-03 0.  1.
        -12    1    3    3    0    0  0.72075282584E+01 -0.46238433418E+01 -0.40517303075E+00  0.85727799476E+01  0.00000000000E+00 0.  1.
</event>
<event>
 7    1  0.4621547E-010  0.4778727E+02  0.7816164E-02  0.1312668E+00
        -11   -1    0    0    0    0  0.00000000000E+00  0.00000000000E+00  0.45593999997E+02  0.45594000000E+02  0.51100000000E-03 0. -1.
         11   -1    0    0    0    0 -0.00000000000E+00 -0.00000000000E+00 -0.45593999997E+02  0.45594000000E+02  0.51100000000E-03 0.  1.
    9900012    2    1    2    0    0  0.43834018645E+01  0.28400596109E+02  0.32524079117E+02  0.47787265056E+02  0.19999972697E+02 0.  0.
        -12    1    1    2    0    0 -0.43834018645E+01 -0.28400596109E+02 -0.32524079117E+02  0.43400734944E+02  0.00000000000E+00 0.  1.
         11    1    3    3    0    0  0.10996058978E+01  0.15616065658E+02  0.25802536481E+02  0.30180151240E+02  0.51100000000E-03 0. -1.
        -11    1    3    3    0    0  0.25456359740E+01  0.12025395750E+02  0.89062611678E+01  0.15179324547E+02  0.51100000000E-03 0.  1.
        -12    1    3    3    0    0  0.73815999264E+00  0.75913470108E+00 -0.21847185321E+01  0.24277892688E+01  0.00000000000E+00 0.  1.
</event>
<event>
 7    1  0.4621547E-010  0.4778727E+02  0.7816164E-02  0.1312668E+00
        -11   -1    0    0    0    0  0.00000000000E+00  0.00000000000E+00  0.45593999997E+02  0.45594000000E+02  0.51100000000E-03 0.  1.
         11   -1    0    0    0    0 -0.00000000000E+00 -0.00000000000E+00 -0.45593999997E+02  0.45594000000E+02  0.51100000000E-03 0. -1.
    9900012    2    1    2    0    0  0.78004108509E+01  0.35614190155E+02 -0.23545827912E+02  0.47787274639E+02  0.20000016389E+02 0.  0.
        -12    1    1    2    0    0 -0.78004108509E+01 -0.35614190155E+02  0.23545827912E+02  0.43400725361E+02  0.00000000000E+00 0.  1.
         11    1    3    3    0    0  0.23551402776E+01  0.13304296502E+02 -0.17411126854E+02  0.22038564602E+02  0.51100000000E-03 0. -1.
        -11    1    3    3    0    0 -0.14493516953E+01  0.10645351848E+02 -0.57678330790E+01  0.12193934353E+02  0.51100000000E-03 0.  1.
        -12    1    3    3    0    0  0.68946222686E+01  0.11664541805E+02 -0.36686797910E+00  0.13554775684E+02  0.00000000000E+00 0.  1.
</event>
<event>
 7    1  0.4621547E-010  0.4778728E+02  0.7816164E-02  0.1312668E+00
        -11   -1    0    0    0    0  0.00000000000E+00  0.00000000000E+00  0.45593999997E+02  0.45594000000E+02  0.51100000000E-03 0. -1.
         11   -1    0    0    0    0 -0.00000000000E+00 -0.00000000000E+00 -0.45593999997E+02  0.45594000000E+02  0.51100000000E-03 0.  1.
    9900012    2    1    2    0    0  0.35695926997E+02  0.22801438351E+02  0.94613715059E+01  0.47787281735E+02  0.20000048745E+02 0.  0.
        -12    1    1    2    0    0 -0.35695926997E+02 -0.22801438351E+02 -0.94613715059E+01  0.43400718265E+02  0.00000000000E+00 0.  1.
         11    1    3    3    0    0  0.12227905325E+02  0.78674222353E+01  0.64924685138E+01  0.15923886112E+02  0.51100000000E-03 0. -1.
        -11    1    3    3    0    0  0.18782202663E+02  0.17551350564E+02  0.48809978915E+01  0.26165725370E+02  0.51100000000E-03 0.  1.
        -12    1    3    3    0    0  0.46858190101E+01 -0.26173344475E+01 -0.19120948993E+01  0.56976702528E+01  0.00000000000E+00 0.  1.
</event>
<event>
 7    1  0.4621547E-010  0.4778727E+02  0.7816164E-02  0.1312668E+00
        -11   -1    0    0    0    0  0.00000000000E+00  0.00000000000E+00  0.45593999997E+02  0.45594000000E+02  0.51100000000E-03 0.  1.
         11   -1    0    0    0    0 -0.00000000000E+00 -0.00000000000E+00 -0.45593999997E+02  0.45594000000E+02  0.51100000000E-03 0. -1.
    9900012    2    1    2    0    0 -0.38389361946E+02  0.50391316238E+01 -0.19608352700E+02  0.47787268972E+02  0.19999990550E+02 0.  0.
        -12    1    1    2    0    0  0.38389361946E+02 -0.50391316238E+01  0.19608352700E+02  0.43400731028E+02  0.00000000000E+00 0.  1.
         11    1    3    3    0    0 -0.77770750348E+01  0.10334171347E+01  0.62368161636E+00  0.78701858994E+01  0.51100000000E-03 0. -1.
        -11    1    3    3    0    0 -0.85216055999E+01 -0.57245609757E+01 -0.57182135575E+01  0.11751013868E+02  0.51100000000E-03 0.  1.
         12    1    3    3    0    0 -0.22090681312E+02  0.97302754648E+01 -0.14513820759E+02  0.28166069205E+02  0.00000000000E+00 0. -1.
</event>
<event>
 7    1  0.4621547E-010  0.4778727E+02  0.7816164E-02  0.1312668E+00
        -11   -1    0    0    0    0  0.00000000000E+00  0.00000000000E+00  0.45593999997E+02  0.45594000000E+02  0.51100000000E-03 0.  1.
         11   -1    0    0    0    0 -0.00000000000E+00 -0.00000000000E+00 -0.45593999997E+02  0.45594000000E+02  0.51100000000E-03 0. -1.
    9900012    2    1    2    0    0  0.22885839736E+02 -0.15076490748E+02 -0.33653545992E+02  0.47787269689E+02  0.19999993819E+02 0.  0.
        -12    1    1    2    0    0 -0.22885839736E+02  0.15076490748E+02  0.33653545992E+02  0.43400730311E+02  0.00000000000E+00 0.  1.
         11    1    3    3    0    0  0.49314359882E+01 -0.38751011415E+01 -0.16024586086E+01  0.64732792011E+01  0.51100000000E-03 0. -1.
        -11    1    3    3    0    0  0.78147451325E+00 -0.30839341326E+01  0.87695824689E+00  0.33000618444E+01  0.51100000000E-03 0.  1.
         12    1    3    3    0    0  0.17172929235E+02 -0.81174554743E+01 -0.32928045630E+02  0.38013928643E+02  0.00000000000E+00 0. -1.
</event>
<event>
 7    1  0.4621547E-010  0.4778727E+02  0.7816164E-02  0.1312668E+00
        -11   -1    0    0    0    0  0.00000000000E+00  0.00000000000E+00  0.45593999997E+02  0.45594000000E+02  0.51100000000E-03 0. -1.
         11   -1    0    0    0    0 -0.00000000000E+00 -0.00000000000E+00 -0.45593999997E+02  0.45594000000E+02  0.51100000000E-03 0.  1.
    9900012    2    1    2    0    0  0.13160268481E+02 -0.38022283510E+02  0.16270720462E+02  0.47787273576E+02  0.20000011542E+02 0.  0.
        -12    1    1    2    0    0 -0.13160268481E+02  0.38022283510E+02 -0.16270720462E+02  0.43400726424E+02  0.00000000000E+00 0.  1.
         11    1    3    3    0    0  0.56349681082E+00 -0.21140589390E+01 -0.64165927865E+00  0.22800220930E+01  0.51100000000E-03 0. -1.
        -11    1    3    3    0    0 -0.34995541837E+01 -0.29261891434E+01  0.53455771576E+01  0.70274218456E+01  0.51100000000E-03 0.  1.
         12    1    3    3    0    0  0.16096325854E+02 -0.32982035427E+02  0.11566802583E+02  0.38479829637E+02  0.00000000000E+00 0. -1.
</event>
<event>
 7    1  0.4621547E-010  0.4778727E+02  0.7816164E-02  0.1312668E+00
        -11   -1    0    0    0    0  0.00000000000E+00  0.00000000000E+00  0.45593999997E+02  0.45594000000E+02  0.51100000000E-03 0.  1.
         11   -1    0    0    0    0 -0.00000000000E+00 -0.00000000000E+00 -0.45593999997E+02  0.45594000000E+02  0.51100000000E-03 0. -1.
    9900012    2    1    2    0    0  0.11119808708E+02  0.34812804036E+02 -0.23410303394E+02  0.47787265265E+02  0.19999973650E+02 0.  0.
        -12    1    1    2    0    0 -0.11119808708E+02 -0.34812804036E+02  0.23410303394E+02  0.43400734735E+02  0.00000000000E+00 0.  1.
         11    1    3    3    0    0  0.45072559105E+01  0.98616684747E+01 -0.88002041142E+01  0.13964650145E+02  0.51100000000E-03 0. -1.
        -11    1    3    3    0    0 -0.39055733801E+01  0.12387167664E+01 -0.42107517805E+01  0.58752322059E+01  0.51100000000E-03 0.  1.
         12    1    3    3    0    0  0.10518126177E+02  0.23712418795E+02 -0.10399347499E+02  0.27947382915E+02  0.00000000000E+00 0. -1.
</event>
<event>
 7    1  0.4621547E-010  0.4778727E+02  0.7816164E-02  0.1312668E+00
        -11   -1    0    0    0    0  0.00000000000E+00  0.00000000000E+00  0.45593999997E+02  0.45594000000E+02  0.51100000000E-03 0.  1.
         11   -1    0    0    0    0 -0.00000000000E+00 -0.00000000000E+00 -0.45593999997E+02  0.45594000000E+02  0.51100000000E-03 0. -1.
    9900012    2    1    2    0    0 -0.16718806912E+02  0.33900477427E+02 -0.21327500264E+02  0.47787272565E+02  0.20000006933E+02 0.  0.
        -12    1    1    2    0    0  0.16718806912E+02 -0.33900477427E+02  0.21327500264E+02  0.43400727435E+02  0.00000000000E+00 0.  1.
         11    1    3    3    0    0 -0.93305146792E+01  0.12293787175E+02 -0.10222409049E+02  0.18511978671E+02  0.51100000000E-03 0. -1.
        -11    1    3    3    0    0 -0.10323038567E+02  0.18300870336E+02 -0.12728285262E+02  0.24566160186E+02  0.51100000000E-03 0.  1.
        -12    1    3    3    0    0  0.29347463341E+01  0.33058199165E+01  0.16231940475E+01  0.47091337081E+01  0.00000000000E+00 0.  1.
</event>
<event>
 7    1  0.4621547E-010  0.4778727E+02  0.7816164E-02  0.1312668E+00
        -11   -1    0    0    0    0  0.00000000000E+00  0.00000000000E+00  0.45593999997E+02  0.45594000000E+02  0.51100000000E-03 0. -1.
         11   -1    0    0    0    0 -0.00000000000E+00 -0.00000000000E+00 -0.45593999997E+02  0.45594000000E+02  0.51100000000E-03 0.  1.
    9900012    2    1    2    0    0 -0.33339688864E+02  0.10093856629E+01  0.27768138180E+02  0.47787271770E+02  0.20000003307E+02 0.  0.
        -12    1    1    2    0    0  0.33339688864E+02 -0.10093856629E+01 -0.27768138180E+02  0.43400728230E+02  0.00000000000E+00 0.  1.
         11    1    3    3    0    0 -0.15988105349E+02  0.28627500346E+01  0.20050974158E+02  0.25804193755E+02  0.51100000000E-03 0. -1.
        -11    1    3    3    0    0 -0.18819780513E+02 -0.15069201547E+01  0.78947079296E+01  0.20464148174E+02  0.51100000000E-03 0.  1.
        -12    1    3    3    0    0  0.14681969984E+01 -0.34644421701E+00 -0.17754390811E+00  0.15189298407E+01  0.00000000000E+00 0.  1.
</event>
<event>
 7    1  0.4621547E-010  0.4778728E+02  0.7816164E-02  0.1312668E+00
        -11   -1    0    0    0    0  0.00000000000E+00  0.00000000000E+00  0.45593999997E+02  0.45594000000E+02  0.51100000000E-03 0.  1.
         11   -1    0    0    0    0 -0.00000000000E+00 -0.00000000000E+00 -0.45593999997E+02  0.45594000000E+02  0.51100000000E-03 0. -1.
    9900012    2    1    2    0    0  0.28053255086E+02  0.26722127824E+02 -0.19559286646E+02  0.47787275001E+02  0.20000018039E+02 0.  0.
        -12    1    1    2    0    0 -0.28053255086E+02 -0.26722127824E+02  0.19559286646E+02  0.43400724999E+02  0.00000000000E+00 0.  1.
         11    1    3    3    0    0  0.65676136760E+01  0.26760350022E+01 -0.75001938291E+00  0.71314263696E+01  0.51100000000E-03 0. -1.
        -11    1    3    3    0    0  0.22021321470E+02  0.22660482454E+02 -0.12183399194E+02  0.33865488045E+02  0.51100000000E-03 0.  1.
         12    1    3    3    0    0 -0.53568006069E+00  0.13856103675E+01 -0.66258680695E+01  0.67903605863E+01  0.00000000000E+00 0. -1.
</event>
<event>
 7    1  0.4621547E-010  0.4778727E+02  0.7816164E-02  0.1312668E+00
        -11   -1    0    0    0    0  0.00000000000E+00  0.00000000000E+00  0.45593999997E+02  0.45594000000E+02  0.51100000000E-03 0.  1.
         11   -1    0    0    0    0 -0.00000000000E+00 -0.00000000000E+00 -0.45593999997E+02  0.45594000000E+02  0.51100000000E-03 0. -1.
    9900012    2    1    2    0    0 -0.62982668102E+01  0.42935156766E+02 -0.72631644572E+00  0.47787269742E+02  0.19999994063E+02 0.  0.
        -12    1    1    2    0    0  0.62982668102E+01 -0.42935156766E+02  0.72631644572E+00  0.43400730258E+02  0.00000000000E+00 0.  1.
         11    1    3    3    0    0 -0.31886262920E+00 -0.52376996359E-01  0.57261675691E+00  0.65750052279E+00  0.51100000000E-03 0.  1.
        -11    1    3    3    0    0 -0.12088381409E+02  0.21161203781E+02  0.66543189298E+00  0.24379670023E+02  0.51100000000E-03 0. -1.
         12    1    3    3    0    0  0.61089772285E+01  0.21826329981E+02 -0.19643650956E+01  0.22750099196E+02  0.00000000000E+00 0. -1.
</event>
<event>
 7    1  0.4621547E-010  0.4778727E+02  0.7816164E-02  0.1312668E+00
        -11   -1    0    0    0    0  0.00000000000E+00  0.00000000000E+00  0.45593999997E+02  0.45594000000E+02  0.51100000000E-03 0.  1.
         11   -1    0    0    0    0 -0.00000000000E+00 -0.00000000000E+00 -0.45593999997E+02  0.45594000000E+02  0.51100000000E-03 0. -1.
    9900012    2    1    2    0    0  0.99194381102E+01  0.26575824130E+02 -0.32847428466E+02  0.47787271464E+02  0.20000001914E+02 0.  0.
        -12    1    1    2    0    0 -0.99194381102E+01 -0.26575824130E+02  0.32847428466E+02  0.43400728536E+02  0.00000000000E+00 0.  1.
         11    1    3    3    0    0  0.55394548689E+01  0.12282722475E+01 -0.13543721521E+02  0.14684229835E+02  0.51100000000E-03 0. -1.
        -11    1    3    3    0    0 -0.72727972849E+00  0.73579675789E+00  0.45551030953E+00  0.11304081456E+01  0.51100000000E-03 0.  1.
        -12    1    3    3    0    0  0.51072629698E+01  0.24611755124E+02 -0.19759217255E+02  0.31972633484E+02  0.00000000000E+00 0.  1.
</event>
<event>
 7    1  0.4621547E-010  0.4778727E+02  0.7816164E-02  0.1312668E+00
        -11   -1    0    0    0    0  0.00000000000E+00  0.00000000000E+00  0.45593999997E+02  0.45594000000E+02  0.51100000000E-03 0.  1.
         11   -1    0    0    0    0 -0.00000000000E+00 -0.00000000000E+00 -0.45593999997E+02  0.45594000000E+02  0.51100000000E-03 0. -1.
    9900012    2    1    2    0    0 -0.52492514285E+01 -0.13343565457E+02 -0.40963616402E+02  0.47787271338E+02  0.20000001340E+02 0.  0.
        -12    1    1    2    0    0  0.52492514285E+01  0.13343565457E+02  0.40963616402E+02  0.43400728662E+02  0.00000000000E+00 0.  1.
         11    1    3    3    0    0 -0.71087120775E+01 -0.11701177663E+02 -0.26299525512E+02  0.29649896939E+02  0.51100000000E-03 0. -1.
        -11    1    3    3    0    0 -0.30806421685E+01 -0.44305856653E+00 -0.12001905994E+02  0.12398887241E+02  0.51100000000E-03 0.  1.
        -12    1    3    3    0    0  0.49401028175E+01 -0.11993292271E+01 -0.26621848961E+01  0.57384871581E+01  0.00000000000E+00 0.  1.
</event>
<event>
 7    1  0.4621547E-010  0.4778728E+02  0.7816164E-02  0.1312668E+00
        -11   -1    0    0    0    0  0.00000000000E+00  0.00000000000E+00  0.45593999997E+02  0.45594000000E+02  0.51100000000E-03 0.  1.
         11   -1    0    0    0    0 -0.00000000000E+00 -0.00000000000E+00 -0.45593999997E+02  0.45594000000E+02  0.51100000000E-03 0. -1.
    9900012    2    1    2    0    0 -0.40404403353E+01 -0.42985921870E+02 -0.44167820442E+01  0.47787278799E+02  0.20000035356E+02 0.  0.
        -12    1    1    2    0    0  0.40404403353E+01  0.42985921870E+02  0.44167820442E+01  0.43400721201E+02  0.00000000000E+00 0.  1.
         11    1    3    3    0    0 -0.99783506302E+01 -0.31102736785E+02 -0.78501675441E+01  0.33594238309E+02  0.51100000000E-03 0. -1.
        -11    1    3    3    0    0  0.35018740508E+01 -0.74741418028E+01  0.29703439236E+00  0.82591856286E+01  0.51100000000E-03 0.  1.
         12    1    3    3    0    0  0.24360362441E+01 -0.44090432822E+01  0.31363511075E+01  0.59338548614E+01  0.00000000000E+00 0. -1.
</event>
<event>
 7    1  0.4621547E-010  0.4778727E+02  0.7816164E-02  0.1312668E+00
        -11   -1    0    0    0    0  0.00000000000E+00  0.00000000000E+00  0.45593999997E+02  0.45594000000E+02  0.51100000000E-03 0.  1.
         11   -1    0    0    0    0 -0.00000000000E+00 -0.00000000000E+00 -0.45593999997E+02  0.45594000000E+02  0.51100000000E-03 0. -1.
    9900012    2    1    2    0    0 -0.32519314448E+02  0.34765398289E+01 -0.28531226242E+02  0.47787274059E+02  0.20000013746E+02 0.  0.
        -12    1    1    2    0    0  0.32519314448E+02 -0.34765398289E+01  0.28531226242E+02  0.43400725941E+02  0.00000000000E+00 0.  1.
         11    1    3    3    0    0 -0.16561544004E+01 -0.70362089899E+00 -0.60757836164E+01  0.63366455307E+01  0.51100000000E-03 0. -1.
        -11    1    3    3    0    0 -0.92199217998E+01 -0.53133605451E+01 -0.10561064834E+02  0.14992493087E+02  0.51100000000E-03 0.  1.
        -12    1    3    3    0    0 -0.21643238247E+02  0.94935212729E+01 -0.11894377791E+02  0.26458135441E+02  0.00000000000E+00 0.  1.
</event>
<event>
 7    1  0.4621547E-010  0.4778727E+02  0.7816164E-02  0.1312668E+00
        -11   -1    0    0    0    0  0.00000000000E+00  0.00000000000E+00  0.45593999997E+02  0.45594000000E+02  0.51100000000E-03 0.  1.
         11   -1    0    0    0    0 -0.00000000000E+00 -0.00000000000E+00 -0.45593999997E+02  0.45594000000E+02  0.51100000000E-03 0. -1.
    9900012    2    1    2    0    0 -0.24639124505E+00  0.34985296703E+01 -0.43258786143E+02  0.47787274234E+02  0.20000014541E+02 0.  0.
        -12    1    1    2    0    0  0.24639124505E+00 -0.34985296703E+01  0.43258786143E+02  0.43400725766E+02  0.00000000000E+00 0.  1.
         11    1    3    3    0    0 -0.41440923992E+00 -0.11181138142E+00  0.20938840719E+01  0.21374254539E+01  0.51100000000E-03 0. -1.
        -11    1    3    3    0    0  0.13907325171E+00  0.13936526889E+01 -0.40057621010E+01  0.42435526929E+01  0.51100000000E-03 0.  1.
         12    1    3    3    0    0  0.28944743170E-01  0.22166883629E+01 -0.41346908114E+02  0.41406296087E+02  0.00000000000E+00 0. -1.
</event>
<event>
 7    1  0.4621547E-010  0.4778727E+02  0.7816164E-02  0.1312668E+00
        -11   -1    0    0    0    0  0.00000000000E+00  0.00000000000E+00  0.45593999997E+02  0.45594000000E+02  0.51100000000E-03 0. -1.
         11   -1    0    0    0    0 -0.00000000000E+00 -0.00000000000E+00 -0.45593999997E+02  0.45594000000E+02  0.51100000000E-03 0.  1.
    9900012    2    1    2    0    0  0.35007988014E+02 -0.22025237865E+01  0.25558032389E+02  0.47787270105E+02  0.19999995717E+02 0.  0.
        -12    1    1    2    0    0 -0.35007988014E+02  0.22025237865E+01 -0.25558032389E+02  0.43400729895E+02  0.00000000000E+00 0.  1.
         11    1    3    3    0    0  0.23705000960E+02  0.11308911476E+00  0.13545415660E+02  0.27302346884E+02  0.51100000000E-03 0. -1.
        -11    1    3    3    0    0  0.12863053672E+02 -0.28051075727E+01  0.63991254319E+01  0.14638155103E+02  0.51100000000E-03 0.  1.
         12    1    3    3    0    0 -0.15600666187E+01  0.48949467146E+00  0.56134912970E+01  0.58467681184E+01  0.00000000000E+00 0. -1.
</event>
<event>
 7    1  0.4621547E-010  0.4778728E+02  0.7816164E-02  0.1312668E+00
        -11   -1    0    0    0    0  0.00000000000E+00  0.00000000000E+00  0.45593999997E+02  0.45594000000E+02  0.51100000000E-03 0.  1.
         11   -1    0    0    0    0 -0.00000000000E+00 -0.00000000000E+00 -0.45593999997E+02  0.45594000000E+02  0.51100000000E-03 0. -1.
    9900012    2    1    2    0    0  0.22559830646E+02 -0.35964897503E+02 -0.90112596839E+01  0.47787278666E+02  0.20000034752E+02 0.  0.
        -12    1    1    2    0    0 -0.22559830646E+02  0.35964897503E+02  0.90112596839E+01  0.43400721334E+02  0.00000000000E+00 0.  1.
         11    1    3    3    0    0  0.15976367737E+02 -0.26189154825E+02 -0.36351124558E+01  0.30892235260E+02  0.51100000000E-03 0. -1.
        -11    1    3    3    0    0  0.95292763016E+01 -0.62942784376E+01 -0.43478929510E+01  0.12220033603E+02  0.51100000000E-03 0.  1.
         12    1    3    3    0    0 -0.29458133931E+01 -0.34814642407E+01 -0.10282542771E+01  0.46750098036E+01  0.00000000000E+00 0. -1.
</event>
<event>
 7    1  0.4621547E-010  0.4778727E+02  0.7816164E-02  0.1312668E+00
        -11   -1    0    0    0    0  0.00000000000E+00  0.00000000000E+00  0.45593999997E+02  0.45594000000E+02  0.51100000000E-03 0.  1.
         11   -1    0    0    0    0 -0.00000000000E+00 -0.00000000000E+00 -0.45593999997E+02  0.45594000000E+02  0.51100000000E-03 0. -1.
    9900012    2    1    2    0    0 -0.20744489584E+02  0.33970882252E+02 -0.17299379848E+02  0.47787271524E+02  0.20000002188E+02 0.  0.
        -12    1    1    2    0    0  0.20744489584E+02 -0.33970882252E+02  0.17299379848E+02  0.43400728476E+02  0.00000000000E+00 0.  1.
         11    1    3    3    0    0 -0.48975940154E+01  0.24035388457E+02 -0.93605361080E+01  0.26254636960E+02  0.51100000000E-03 0. -1.
        -11    1    3    3    0    0 -0.61533859227E+01  0.72104283737E+01 -0.15433018172E+01  0.96039687841E+01  0.51100000000E-03 0.  1.
        -12    1    3    3    0    0 -0.96935096461E+01  0.27250654217E+01 -0.63955419228E+01  0.11928665780E+02  0.00000000000E+00 0.  1.
</event>
<event>
 7    1  0.4621547E-010  0.4778727E+02  0.7816164E-02  0.1312668E+00
        -11   -1    0    0    0    0  0.00000000000E+00  0.00000000000E+00  0.45593999997E+02  0.45594000000E+02  0.51100000000E-03 0.  1.
         11   -1    0    0    0    0 -0.00000000000E+00 -0.00000000000E+00 -0.45593999997E+02  0.45594000000E+02  0.51100000000E-03 0. -1.
    9900012    2    1    2    0    0  0.18022467362E+02  0.18685148567E+02 -0.34780445563E+02  0.47787268435E+02  0.19999988104E+02 0.  0.
        -12    1    1    2    0    0 -0.18022467362E+02 -0.18685148567E+02  0.34780445563E+02  0.43400731565E+02  0.00000000000E+00 0.  1.
         11    1    3    3    0    0  0.18560186609E+02  0.19581024999E+02 -0.31462334920E+02  0.41446056337E+02  0.51100000000E-03 0. -1.
        -11    1    3    3    0    0 -0.61439943765E+00  0.21990508834E+01 -0.11115894875E+01  0.25394768963E+01  0.51100000000E-03 0.  1.
         12    1    3    3    0    0  0.76680190706E-01 -0.30949273154E+01 -0.22065211554E+01  0.38017352023E+01  0.00000000000E+00 0. -1.
</event>
<event>
 7    1  0.4621547E-010  0.4778727E+02  0.7816164E-02  0.1312668E+00
        -11   -1    0    0    0    0  0.00000000000E+00  0.00000000000E+00  0.45593999997E+02  0.45594000000E+02  0.51100000000E-03 0.  1.
         11   -1    0    0    0    0 -0.00000000000E+00 -0.00000000000E+00 -0.45593999997E+02  0.45594000000E+02  0.51100000000E-03 0. -1.
    9900012    2    1    2    0    0  0.16528448339E+02  0.14144200545E+02 -0.37554967212E+02  0.47787267566E+02  0.19999984140E+02 0.  0.
        -12    1    1    2    0    0 -0.16528448339E+02 -0.14144200545E+02  0.37554967212E+02  0.43400732434E+02  0.00000000000E+00 0.  1.
         11    1    3    3    0    0  0.69721012681E+01  0.77165906646E+01 -0.24006144426E+02  0.26162013264E+02  0.51100000000E-03 0. -1.
        -11    1    3    3    0    0  0.52947969898E+01 -0.27569880432E+01 -0.82907122654E+01  0.10216250210E+02  0.51100000000E-03 0.  1.
        -12    1    3    3    0    0  0.42615500812E+01  0.91845979237E+01 -0.52581105205E+01  0.11409004091E+02  0.00000000000E+00 0.  1.
</event>
<event>
 7    1  0.4621547E-010  0.4778727E+02  0.7816164E-02  0.1312668E+00
        -11   -1    0    0    0    0  0.00000000000E+00  0.00000000000E+00  0.45593999997E+02  0.45594000000E+02  0.51100000000E-03 0.  1.
         11   -1    0    0    0    0 -0.00000000000E+00 -0.00000000000E+00 -0.45593999997E+02  0.45594000000E+02  0.51100000000E-03 0. -1.
    9900012    2    1    2    0    0 -0.23088124150E+02 -0.36738273486E+02 -0.92785467046E+00  0.47787272705E+02  0.20000007569E+02 0.  0.
        -12    1    1    2    0    0  0.23088124150E+02  0.36738273486E+02  0.92785467046E+00  0.43400727295E+02  0.00000000000E+00 0.  1.
         11    1    3    3    0    0 -0.24361231013E+02 -0.25247984331E+02  0.64515626040E+00  0.35090547389E+02  0.51100000000E-03 0. -1.
        -11    1    3    3    0    0 -0.76693928835E-01 -0.79446065113E+01 -0.32045028069E+01  0.85668835103E+01  0.51100000000E-03 0.  1.
        -12    1    3    3    0    0  0.13498007922E+01 -0.35456826441E+01  0.16314918761E+01  0.41298418049E+01  0.00000000000E+00 0.  1.
</event>
<event>
 7    1  0.4621547E-010  0.4778727E+02  0.7816164E-02  0.1312668E+00
        -11   -1    0    0    0    0  0.00000000000E+00  0.00000000000E+00  0.45593999997E+02  0.45594000000E+02  0.51100000000E-03 0. -1.
         11   -1    0    0    0    0 -0.00000000000E+00 -0.00000000000E+00 -0.45593999997E+02  0.45594000000E+02  0.51100000000E-03 0.  1.
    9900012    2    1    2    0    0 -0.29665916610E+02  0.27827205247E+01  0.31556508030E+02  0.47787270272E+02  0.19999996480E+02 0.  0.
        -12    1    1    2    0    0  0.29665916610E+02 -0.27827205247E+01 -0.31556508030E+02  0.43400729728E+02  0.00000000000E+00 0.  1.
         11    1    3    3    0    0 -0.54272473839E+00  0.55406234152E+00 -0.59892867555E+00  0.97992399679E+00  0.51100000000E-03 0. -1.
        -11    1    3    3    0    0  0.14028788255E+00 -0.35696322477E+01  0.10847048462E+01  0.37334354070E+01  0.51100000000E-03 0.  1.
         12    1    3    3    0    0 -0.29263479755E+02  0.57982904309E+01  0.31070731859E+02  0.43073910869E+02  0.00000000000E+00 0. -1.
</event>
<event>
 7    1  0.4621547E-010  0.4778727E+02  0.7816164E-02  0.1312668E+00
        -11   -1    0    0    0    0  0.00000000000E+00  0.00000000000E+00  0.45593999997E+02  0.45594000000E+02  0.51100000000E-03 0. -1.
         11   -1    0    0    0    0 -0.00000000000E+00 -0.00000000000E+00 -0.45593999997E+02  0.45594000000E+02  0.51100000000E-03 0.  1.
    9900012    2    1    2    0    0 -0.30857278816E+02  0.88679971917E+01  0.29202913635E+02  0.47787271954E+02  0.20000004149E+02 0.  0.
        -12    1    1    2    0    0  0.30857278816E+02 -0.88679971917E+01 -0.29202913635E+02  0.43400728046E+02  0.00000000000E+00 0.  1.
         11    1    3    3    0    0 -0.32605867410E+01 -0.15443223066E+01  0.11880473178E+01  0.37983962369E+01  0.51100000000E-03 0. -1.
        -11    1    3    3    0    0 -0.40367385702E+01  0.88729539875E+01  0.47555042612E+01  0.10846169452E+02  0.51100000000E-03 0.  1.
         12    1    3    3    0    0 -0.23559953505E+02  0.15393655108E+01  0.23259362056E+02  0.33142706265E+02  0.00000000000E+00 0. -1.
</event>
<event>
 7    1  0.5576997E-010  0.4778728E+02  0.7816164E-02  0.1312668E+00
        -11   -1    0    0    0    0  0.00000000000E+00  0.00000000000E+00  0.45593999997E+02  0.45594000000E+02  0.51100000000E-03 0.  1.
         11   -1    0    0    0    0 -0.00000000000E+00 -0.00000000000E+00 -0.45593999997E+02  0.45594000000E+02  0.51100000000E-03 0. -1.
    9900012    2    1    2    0    0  0.24800665526E+02 -0.24790297848E+02 -0.25573246821E+02  0.47787276148E+02  0.20000023268E+02 0.  0.
        -12    1    1    2    0    0 -0.24800665526E+02  0.24790297848E+02  0.25573246821E+02  0.43400723852E+02  0.00000000000E+00 0.  1.
         11    1    3    3    0    0  0.31811402768E+01  0.19867118493E+01 -0.50607941754E+01  0.62990725809E+01  0.51100000000E-03 0. -1.
        -11    1    3    3    0    0  0.16341350515E+01 -0.50375652789E+01  0.38802643453E+00  0.53101813605E+01  0.51100000000E-03 0.  1.
         12    1    3    3    0    0  0.19985390198E+02 -0.21739444418E+02 -0.20900479081E+02  0.36178022206E+02  0.00000000000E+00 0. -1.
</event>
<event>
 7    1  0.4621547E-010  0.4778727E+02  0.7816164E-02  0.1312668E+00
        -11   -1    0    0    0    0  0.00000000000E+00  0.00000000000E+00  0.45593999997E+02  0.45594000000E+02  0.51100000000E-03 0.  1.
         11   -1    0    0    0    0 -0.00000000000E+00 -0.00000000000E+00 -0.45593999997E+02  0.45594000000E+02  0.51100000000E-03 0. -1.
    9900012    2    1    2    0    0  0.31140686332E+02  0.27127299031E+02 -0.13341308572E+02  0.47787271754E+02  0.20000003233E+02 0.  0.
        -12    1    1    2    0    0 -0.31140686332E+02 -0.27127299031E+02  0.13341308572E+02  0.43400728246E+02  0.00000000000E+00 0.  1.
         11    1    3    3    0    0  0.32396795853E+01  0.85340720163E+01 -0.43174823166E+01  0.10097849415E+02  0.51100000000E-03 0. -1.
        -11    1    3    3    0    0  0.10570141617E+02  0.15458294439E+02 -0.68658436760E+01  0.19945590250E+02  0.51100000000E-03 0.  1.
        -12    1    3    3    0    0  0.17330865129E+02  0.31349325754E+01 -0.21579825798E+01  0.17743832089E+02  0.00000000000E+00 0.  1.
</event>
<event>
 7    1  0.4621547E-010  0.4778727E+02  0.7816164E-02  0.1312668E+00
        -11   -1    0    0    0    0  0.00000000000E+00  0.00000000000E+00  0.45593999997E+02  0.45594000000E+02  0.51100000000E-03 0.  1.
         11   -1    0    0    0    0 -0.00000000000E+00 -0.00000000000E+00 -0.45593999997E+02  0.45594000000E+02  0.51100000000E-03 0. -1.
    9900012    2    1    2    0    0  0.15869280965E+02  0.76558974967E+01 -0.39663289537E+02  0.47787269802E+02  0.19999994336E+02 0.  0.
        -12    1    1    2    0    0 -0.15869280965E+02 -0.76558974967E+01  0.39663289537E+02  0.43400730198E+02  0.00000000000E+00 0.  1.
         11    1    3    3    0    0 -0.12477586400E+01  0.78814404632E-01 -0.11332575141E+02  0.11401332068E+02  0.51100000000E-03 0. -1.
        -11    1    3    3    0    0  0.24017949153E+01  0.12799481815E+00  0.11031006282E+01  0.26460976448E+01  0.51100000000E-03 0.  1.
         12    1    3    3    0    0  0.14715244690E+02  0.74490882739E+01 -0.29433815024E+02  0.33739840089E+02  0.00000000000E+00 0. -1.
</event>
<event>
 7    1  0.4621547E-010  0.4778727E+02  0.7816164E-02  0.1312668E+00
        -11   -1    0    0    0    0  0.00000000000E+00  0.00000000000E+00  0.45593999997E+02  0.45594000000E+02  0.51100000000E-03 0.  1.
         11   -1    0    0    0    0 -0.00000000000E+00 -0.00000000000E+00 -0.45593999997E+02  0.45594000000E+02  0.51100000000E-03 0. -1.
    9900012    2    1    2    0    0 -0.66949632057E+00  0.31271565025E+01 -0.43282741605E+02  0.47787273578E+02  0.20000011552E+02 0.  0.
        -12    1    1    2    0    0  0.66949632057E+00 -0.31271565025E+01  0.43282741605E+02  0.43400726422E+02  0.00000000000E+00 0.  1.
         11    1    3    3    0    0  0.40539133118E+01  0.79752627915E+01 -0.16713197220E+02  0.18957056505E+02  0.51100000000E-03 0. -1.
        -11    1    3    3    0    0  0.13892604019E+01 -0.54668959160E+00 -0.14884101308E+02  0.14958789590E+02  0.51100000000E-03 0.  1.
        -12    1    3    3    0    0 -0.61126700343E+01 -0.43014166974E+01 -0.11685443076E+02  0.13871427484E+02  0.00000000000E+00 0.  1.
</event>
<event>
 7    1  0.4621547E-010  0.4778727E+02  0.7816164E-02  0.1312668E+00
        -11   -1    0    0    0    0  0.00000000000E+00  0.00000000000E+00  0.45593999997E+02  0.45594000000E+02  0.51100000000E-03 0.  1.
         11   -1    0    0    0    0 -0.00000000000E+00 -0.00000000000E+00 -0.45593999997E+02  0.45594000000E+02  0.51100000000E-03 0. -1.
    9900012    2    1    2    0    0  0.32102470618E+02 -0.20981834419E+02 -0.20317898978E+02  0.47787274035E+02  0.20000013637E+02 0.  0.
        -12    1    1    2    0    0 -0.32102470618E+02  0.20981834419E+02  0.20317898978E+02  0.43400725965E+02  0.00000000000E+00 0.  1.
         11    1    3    3    0    0  0.15337427597E+02 -0.14653005069E+02 -0.43408209740E+01  0.21651558139E+02  0.51100000000E-03 0. -1.
        -11    1    3    3    0    0  0.13410404990E+02 -0.53775873173E+01 -0.61400402578E+01  0.15698964997E+02  0.51100000000E-03 0.  1.
        -12    1    3    3    0    0  0.33546380316E+01 -0.95124203198E+00 -0.98370377459E+01  0.10436750900E+02  0.00000000000E+00 0.  1.
</event>
<event>
 7    1  0.4621547E-010  0.4778727E+02  0.7816164E-02  0.1312668E+00
        -11   -1    0    0    0    0  0.00000000000E+00  0.00000000000E+00  0.45593999997E+02  0.45594000000E+02  0.51100000000E-03 0.  1.
         11   -1    0    0    0    0 -0.00000000000E+00 -0.00000000000E+00 -0.45593999997E+02  0.45594000000E+02  0.51100000000E-03 0. -1.
    9900012    2    1    2    0    0 -0.16918940807E+02 -0.19470262325E+02 -0.34903891885E+02  0.47787270263E+02  0.19999996436E+02 0.  0.
        -12    1    1    2    0    0  0.16918940807E+02  0.19470262325E+02  0.34903891885E+02  0.43400729737E+02  0.00000000000E+00 0.  1.
         11    1    3    3    0    0  0.74698384083E+00  0.14425424269E+01 -0.52252829830E+00  0.17064435518E+01  0.51100000000E-03 0. -1.
        -11    1    3    3    0    0 -0.80560539227E+01 -0.36382936388E+01 -0.36996243305E+01  0.95825051973E+01  0.51100000000E-03 0.  1.
         12    1    3    3    0    0 -0.96098707247E+01 -0.17274511113E+02 -0.30681739256E+02  0.36498321514E+02  0.00000000000E+00 0. -1.
</event>
<event>
 7    1  0.4621547E-010  0.4778727E+02  0.7816164E-02  0.1312668E+00
        -11   -1    0    0    0    0  0.00000000000E+00  0.00000000000E+00  0.45593999997E+02  0.45594000000E+02  0.51100000000E-03 0.  1.
         11   -1    0    0    0    0 -0.00000000000E+00 -0.00000000000E+00 -0.45593999997E+02  0.45594000000E+02  0.51100000000E-03 0. -1.
    9900012    2    1    2    0    0  0.25146474057E+02  0.13278994647E+02 -0.32786373874E+02  0.47787272263E+02  0.20000005554E+02 0.  0.
        -12    1    1    2    0    0 -0.25146474057E+02 -0.13278994647E+02  0.32786373874E+02  0.43400727737E+02  0.00000000000E+00 0.  1.
         11    1    3    3    0    0  0.42507369044E+01  0.77801735308E+00 -0.10046647819E+02  0.10936599466E+02  0.51100000000E-03 0. -1.
        -11    1    3    3    0    0  0.95508817785E+01  0.38172944176E+01 -0.19730409186E+02  0.22250396094E+02  0.51100000000E-03 0.  1.
        -12    1    3    3    0    0  0.11344855375E+02  0.86836828766E+01 -0.30093168688E+01  0.14600276702E+02  0.00000000000E+00 0.  1.
</event>
<event>
 7    1  0.4621547E-010  0.4778727E+02  0.7816164E-02  0.1312668E+00
        -11   -1    0    0    0    0  0.00000000000E+00  0.00000000000E+00  0.45593999997E+02  0.45594000000E+02  0.51100000000E-03 0.  1.
         11   -1    0    0    0    0 -0.00000000000E+00 -0.00000000000E+00 -0.45593999997E+02  0.45594000000E+02  0.51100000000E-03 0. -1.
    9900012    2    1    2    0    0 -0.10969789376E+02  0.41231077976E+02 -0.79552050079E+01  0.47787270090E+02  0.19999995649E+02 0.  0.
        -12    1    1    2    0    0  0.10969789376E+02 -0.41231077976E+02  0.79552050079E+01  0.43400729910E+02  0.00000000000E+00 0.  1.
         11    1    3    3    0    0 -0.72450681562E+01  0.13193370584E+02  0.15161491295E+01  0.15127945942E+02  0.51100000000E-03 0. -1.
        -11    1    3    3    0    0 -0.80135255245E+01  0.20811282765E+02 -0.40681124587E+01  0.22668824868E+02  0.51100000000E-03 0.  1.
        -12    1    3    3    0    0  0.42888043045E+01  0.72264246260E+01 -0.54032416787E+01  0.99904992806E+01  0.00000000000E+00 0.  1.
</event>
<event>
 7    1  0.4621547E-010  0.4778727E+02  0.7816164E-02  0.1312668E+00
        -11   -1    0    0    0    0  0.00000000000E+00  0.00000000000E+00  0.45593999997E+02  0.45594000000E+02  0.51100000000E-03 0. -1.
         11   -1    0    0    0    0 -0.00000000000E+00 -0.00000000000E+00 -0.45593999997E+02  0.45594000000E+02  0.51100000000E-03 0.  1.
    9900012    2    1    2    0    0 -0.77182416205E+01 -0.10851607387E+02  0.41307320082E+02  0.47787270410E+02  0.19999997109E+02 0.  0.
        -12    1    1    2    0    0  0.77182416205E+01  0.10851607387E+02 -0.41307320082E+02  0.43400729590E+02  0.00000000000E+00 0.  1.
         11    1    3    3    0    0  0.14142219643E+01  0.23444053515E+00  0.12211919284E+02  0.12295769963E+02  0.51100000000E-03 0. -1.
        -11    1    3    3    0    0 -0.21792555960E+01  0.34707965202E+01  0.45969411844E+01  0.61585267679E+01  0.51100000000E-03 0.  1.
        -12    1    3    3    0    0 -0.69532079889E+01 -0.14556844442E+02  0.24498459613E+02  0.29332973679E+02  0.00000000000E+00 0.  1.
</event>
<event>
 7    1  0.4621547E-010  0.4778727E+02  0.7816164E-02  0.1312668E+00
        -11   -1    0    0    0    0  0.00000000000E+00  0.00000000000E+00  0.45593999997E+02  0.45594000000E+02  0.51100000000E-03 0. -1.
         11   -1    0    0    0    0 -0.00000000000E+00 -0.00000000000E+00 -0.45593999997E+02  0.45594000000E+02  0.51100000000E-03 0.  1.
    9900012    2    1    2    0    0 -0.43361476629E+02  0.46494687348E+00  0.17859072214E+01  0.47787270793E+02  0.19999998855E+02 0.  0.
        -12    1    1    2    0    0  0.43361476629E+02 -0.46494687348E+00 -0.17859072214E+01  0.43400729207E+02  0.00000000000E+00 0.  1.
         11    1    3    3    0    0 -0.20336125246E+02  0.22557892223E+01 -0.40229260462E+01  0.20852589989E+02  0.51100000000E-03 0. -1.
        -11    1    3    3    0    0 -0.20368943726E+02  0.22622735310E+01  0.16706379350E+01  0.20562168694E+02  0.51100000000E-03 0.  1.
        -12    1    3    3    0    0 -0.26564076578E+01 -0.40531158798E+01  0.41381953326E+01  0.63725121098E+01  0.00000000000E+00 0.  1.
</event>
<event>
 7    1  0.4621547E-010  0.4778728E+02  0.7816164E-02  0.1312668E+00
        -11   -1    0    0    0    0  0.00000000000E+00  0.00000000000E+00  0.45593999997E+02  0.45594000000E+02  0.51100000000E-03 0. -1.
         11   -1    0    0    0    0 -0.00000000000E+00 -0.00000000000E+00 -0.45593999997E+02  0.45594000000E+02  0.51100000000E-03 0.  1.
    9900012    2    1    2    0    0 -0.26613746819E+02  0.34070054693E+02 -0.38160190061E+01  0.47787284020E+02  0.20000059159E+02 0.  0.
        -12    1    1    2    0    0  0.26613746819E+02 -0.34070054693E+02  0.38160190061E+01  0.43400715980E+02  0.00000000000E+00 0.  1.
         11    1    3    3    0    0 -0.80212135519E+01  0.14848146540E+02 -0.24462039649E+01  0.17052602048E+02  0.51100000000E-03 0. -1.
        -11    1    3    3    0    0 -0.94700044910E+00  0.75566011345E+01 -0.52217548665E+01  0.92339457819E+01  0.51100000000E-03 0.  1.
         12    1    3    3    0    0 -0.17645532818E+02  0.11665307019E+02  0.38519398252E+01  0.21500736189E+02  0.00000000000E+00 0. -1.
</event>
<event>
 7    1  0.4621547E-010  0.4778727E+02  0.7816164E-02  0.1312668E+00
        -11   -1    0    0    0    0  0.00000000000E+00  0.00000000000E+00  0.45593999997E+02  0.45594000000E+02  0.51100000000E-03 0.  1.
         11   -1    0    0    0    0 -0.00000000000E+00 -0.00000000000E+00 -0.45593999997E+02  0.45594000000E+02  0.51100000000E-03 0. -1.
    9900012    2    1    2    0    0  0.22133084828E+02  0.41548808002E+01 -0.37101035045E+02  0.47787270975E+02  0.19999999684E+02 0.  0.
        -12    1    1    2    0    0 -0.22133084828E+02 -0.41548808002E+01  0.37101035045E+02  0.43400729025E+02  0.00000000000E+00 0.  1.
         11    1    3    3    0    0  0.61055197275E+01  0.28655264144E+01 -0.12097477706E+02  0.13850544390E+02  0.51100000000E-03 0. -1.
        -11    1    3    3    0    0  0.31062230903E+01 -0.67465827376E+01 -0.10896825414E+02  0.13187335018E+02  0.51100000000E-03 0.  1.
        -12    1    3    3    0    0  0.12921342010E+02  0.80359371235E+01 -0.14106731925E+02  0.20749391567E+02  0.00000000000E+00 0.  1.
</event>
<event>
 7    1  0.4621547E-010  0.4778727E+02  0.7816164E-02  0.1312668E+00
        -11   -1    0    0    0    0  0.00000000000E+00  0.00000000000E+00  0.45593999997E+02  0.45594000000E+02  0.51100000000E-03 0.  1.
         11   -1    0    0    0    0 -0.00000000000E+00 -0.00000000000E+00 -0.45593999997E+02  0.45594000000E+02  0.51100000000E-03 0. -1.
    9900012    2    1    2    0    0 -0.17883595665E+02 -0.28841446463E+02  0.27054967806E+02  0.47787270617E+02  0.19999998049E+02 0.  0.
        -12    1    1    2    0    0  0.17883595665E+02  0.28841446463E+02 -0.27054967806E+02  0.43400729383E+02  0.00000000000E+00 0.  1.
         11    1    3    3    0    0 -0.38609439895E+01 -0.12383109765E+02  0.13679000826E+02  0.18851083783E+02  0.51100000000E-03 0. -1.
        -11    1    3    3    0    0  0.26870656952E+01 -0.39863958906E+01  0.24299838906E+01  0.53866962246E+01  0.51100000000E-03 0.  1.
        -12    1    3    3    0    0 -0.16709717371E+02 -0.12471940808E+02  0.10945983090E+02  0.23549490609E+02  0.00000000000E+00 0.  1.
</event>
<event>
 7    1  0.4621547E-010  0.4778727E+02  0.7816164E-02  0.1312668E+00
        -11   -1    0    0    0    0  0.00000000000E+00  0.00000000000E+00  0.45593999997E+02  0.45594000000E+02  0.51100000000E-03 0. -1.
         11   -1    0    0    0    0 -0.00000000000E+00 -0.00000000000E+00 -0.45593999997E+02  0.45594000000E+02  0.51100000000E-03 0.  1.
    9900012    2    1    2    0    0  0.21547461575E+02  0.35978905114E+01  0.37501805474E+02  0.47787270395E+02  0.19999997040E+02 0.  0.
        -12    1    1    2    0    0 -0.21547461575E+02 -0.35978905114E+01 -0.37501805474E+02  0.43400729605E+02  0.00000000000E+00 0.  1.
         11    1    3    3    0    0  0.19358340978E+02  0.59541854100E+01  0.20156044435E+02  0.28573830979E+02  0.51100000000E-03 0. -1.
        -11    1    3    3    0    0  0.28484396233E+01  0.46434379321E+00  0.15527395227E+02  0.15793328535E+02  0.51100000000E-03 0.  1.
        -12    1    3    3    0    0 -0.65931902600E+00 -0.28206386918E+01  0.18183658118E+01  0.34201108803E+01  0.00000000000E+00 0.  1.
</event>
<event>
 7    1  0.4621547E-010  0.4778727E+02  0.7816164E-02  0.1312668E+00
        -11   -1    0    0    0    0  0.00000000000E+00  0.00000000000E+00  0.45593999997E+02  0.45594000000E+02  0.51100000000E-03 0.  1.
         11   -1    0    0    0    0 -0.00000000000E+00 -0.00000000000E+00 -0.45593999997E+02  0.45594000000E+02  0.51100000000E-03 0. -1.
    9900012    2    1    2    0    0  0.82037800293E+01 -0.14512460344E+02 -0.40071308614E+02  0.47787270905E+02  0.19999999363E+02 0.  0.
        -12    1    1    2    0    0 -0.82037800293E+01  0.14512460344E+02  0.40071308614E+02  0.43400729095E+02  0.00000000000E+00 0.  1.
         11    1    3    3    0    0  0.52020440341E+01 -0.17783277438E+01 -0.13446851460E+02  0.14527268365E+02  0.51100000000E-03 0. -1.
        -11    1    3    3    0    0  0.83533536575E+01 -0.47161090311E+01 -0.17654318316E+02  0.20092166563E+02  0.51100000000E-03 0.  1.
        -12    1    3    3    0    0 -0.53516176624E+01 -0.80180235686E+01 -0.89701388377E+01  0.13167835977E+02  0.00000000000E+00 0.  1.
</event>
<event>
 7    1  0.4621547E-010  0.4778727E+02  0.7816164E-02  0.1312668E+00
        -11   -1    0    0    0    0  0.00000000000E+00  0.00000000000E+00  0.45593999997E+02  0.45594000000E+02  0.51100000000E-03 0.  1.
         11   -1    0    0    0    0 -0.00000000000E+00 -0.00000000000E+00 -0.45593999997E+02  0.45594000000E+02  0.51100000000E-03 0. -1.
    9900012    2    1    2    0    0  0.17870598587E+02  0.32630542657E+02 -0.22349783163E+02  0.47787269414E+02  0.19999992566E+02 0.  0.
        -12    1    1    2    0    0 -0.17870598587E+02 -0.32630542657E+02  0.22349783163E+02  0.43400730586E+02  0.00000000000E+00 0.  1.
         11    1    3    3    0    0  0.13081041558E+02  0.16380714938E+02 -0.55937495563E+01  0.21696347722E+02  0.51100000000E-03 0. -1.
        -11    1    3    3    0    0  0.50857224855E+01  0.14971060663E+02 -0.89365349807E+01  0.18162017737E+02  0.51100000000E-03 0.  1.
        -12    1    3    3    0    0 -0.29616545632E+00  0.12787670565E+01 -0.78194986257E+01  0.79289039545E+01  0.00000000000E+00 0.  1.
</event>
<event>
 7    1  0.4621547E-010  0.4778727E+02  0.7816164E-02  0.1312668E+00
        -11   -1    0    0    0    0  0.00000000000E+00  0.00000000000E+00  0.45593999997E+02  0.45594000000E+02  0.51100000000E-03 0.  1.
         11   -1    0    0    0    0 -0.00000000000E+00 -0.00000000000E+00 -0.45593999997E+02  0.45594000000E+02  0.51100000000E-03 0. -1.
    9900012    2    1    2    0    0 -0.10087817210E+02  0.10304626749E+02 -0.40934993616E+02  0.47787273154E+02  0.20000009616E+02 0.  0.
        -12    1    1    2    0    0  0.10087817210E+02 -0.10304626749E+02  0.40934993616E+02  0.43400726846E+02  0.00000000000E+00 0.  1.
         11    1    3    3    0    0 -0.14566346938E+01  0.80958711580E+00 -0.92265828578E+01  0.93758758216E+01  0.51100000000E-03 0. -1.
        -11    1    3    3    0    0  0.13286641470E+01  0.69082673420E+01 -0.25372241432E+01  0.74784365142E+01  0.51100000000E-03 0.  1.
         12    1    3    3    0    0 -0.99598466633E+01  0.25867722911E+01 -0.29171186615E+02  0.30932960818E+02  0.00000000000E+00 0. -1.
</event>
<event>
 7    1  0.4621547E-010  0.4778727E+02  0.7816164E-02  0.1312668E+00
        -11   -1    0    0    0    0  0.00000000000E+00  0.00000000000E+00  0.45593999997E+02  0.45594000000E+02  0.51100000000E-03 0.  1.
         11   -1    0    0    0    0 -0.00000000000E+00 -0.00000000000E+00 -0.45593999997E+02  0.45594000000E+02  0.51100000000E-03 0. -1.
    9900012    2    1    2    0    0 -0.22538530379E+02  0.29053519725E+02 -0.23054953938E+02  0.47787271191E+02  0.20000000668E+02 0.  0.
        -12    1    1    2    0    0  0.22538530379E+02 -0.29053519725E+02  0.23054953938E+02  0.43400728809E+02  0.00000000000E+00 0.  1.
         11    1    3    3    0    0 -0.15658948070E+02  0.21715672907E+02 -0.22236203393E+02  0.34802612632E+02  0.51100000000E-03 0. -1.
        -11    1    3    3    0    0  0.91131197913E+00  0.44752065345E+01  0.44563488712E+00  0.45887420676E+01  0.51100000000E-03 0.  1.
        -12    1    3    3    0    0 -0.77908942882E+01  0.28626402839E+01 -0.12643854327E+01  0.83959164912E+01  0.00000000000E+00 0.  1.
</event>
<event>
 7    1  0.4621547E-010  0.4778727E+02  0.7816164E-02  0.1312668E+00
        -11   -1    0    0    0    0  0.00000000000E+00  0.00000000000E+00  0.45593999997E+02  0.45594000000E+02  0.51100000000E-03 0.  1.
         11   -1    0    0    0    0 -0.00000000000E+00 -0.00000000000E+00 -0.45593999997E+02  0.45594000000E+02  0.51100000000E-03 0. -1.
    9900012    2    1    2    0    0 -0.39484251858E+02  0.44537694295E+01 -0.17457977179E+02  0.47787272194E+02  0.20000005240E+02 0.  0.
        -12    1    1    2    0    0  0.39484251858E+02 -0.44537694295E+01  0.17457977179E+02  0.43400727806E+02  0.00000000000E+00 0.  1.
         11    1    3    3    0    0 -0.17081730611E+02  0.25158664856E+01 -0.40172556476E+01  0.17727195154E+02  0.51100000000E-03 0. -1.
        -11    1    3    3    0    0 -0.21201991799E+02  0.13698463799E+00 -0.56047993518E+01  0.21930731795E+02  0.51100000000E-03 0.  1.
        -12    1    3    3    0    0 -0.12005294484E+01  0.18009183060E+01 -0.78359221792E+01  0.81293452443E+01  0.00000000000E+00 0.  1.
</event>
<event>
 7    1  0.4621547E-010  0.4778725E+02  0.7816164E-02  0.1312668E+00
        -11   -1    0    0    0    0  0.00000000000E+00  0.00000000000E+00  0.45593999997E+02  0.45594000000E+02  0.51100000000E-03 0.  1.
         11   -1    0    0    0    0 -0.00000000000E+00 -0.00000000000E+00 -0.45593999997E+02  0.45594000000E+02  0.51100000000E-03 0. -1.
    9900012    2    1    2    0    0  0.22943264119E+02 -0.19627142266E+02 -0.31177022772E+02  0.47787253107E+02  0.19999918216E+02 0.  0.
        -12    1    1    2    0    0 -0.22943264119E+02  0.19627142266E+02  0.31177022772E+02  0.43400746893E+02  0.00000000000E+00 0.  1.
         11    1    3    3    0    0  0.12362082181E+02 -0.83284598857E+01 -0.10439178648E+02  0.18197823249E+02  0.51100000000E-03 0. -1.
        -11    1    3    3    0    0  0.10236806586E+02 -0.18190213655E+01 -0.15749469989E+02  0.18871853460E+02  0.51100000000E-03 0.  1.
        -12    1    3    3    0    0  0.34437535257E+00 -0.94796610149E+01 -0.49883741340E+01  0.10717576398E+02  0.00000000000E+00 0.  1.
</event>
<event>
 7    1  0.4621547E-010  0.4778727E+02  0.7816164E-02  0.1312668E+00
        -11   -1    0    0    0    0  0.00000000000E+00  0.00000000000E+00  0.45593999997E+02  0.45594000000E+02  0.51100000000E-03 0.  1.
         11   -1    0    0    0    0 -0.00000000000E+00 -0.00000000000E+00 -0.45593999997E+02  0.45594000000E+02  0.51100000000E-03 0. -1.
    9900012    2    1    2    0    0 -0.26765034216E+02 -0.53942123754E+01 -0.33736605530E+02  0.47787272629E+02  0.20000007223E+02 0.  0.
        -12    1    1    2    0    0  0.26765034216E+02  0.53942123754E+01  0.33736605530E+02  0.43400727371E+02  0.00000000000E+00 0.  1.
         11    1    3    3    0    0 -0.84302441087E+01  0.25199896966E+01 -0.27853254211E+01  0.92291604041E+01  0.51100000000E-03 0. -1.
        -11    1    3    3    0    0 -0.47385108849E+01  0.29577896505E+01 -0.75394261740E+01  0.93832271803E+01  0.51100000000E-03 0.  1.
         12    1    3    3    0    0 -0.13596279222E+02 -0.10871991723E+02 -0.23411853934E+02  0.29174885044E+02  0.00000000000E+00 0. -1.
</event>
<event>
 7    1  0.4621547E-010  0.4778726E+02  0.7816164E-02  0.1312668E+00
        -11   -1    0    0    0    0  0.00000000000E+00  0.00000000000E+00  0.45593999997E+02  0.45594000000E+02  0.51100000000E-03 0.  1.
         11   -1    0    0    0    0 -0.00000000000E+00 -0.00000000000E+00 -0.45593999997E+02  0.45594000000E+02  0.51100000000E-03 0. -1.
    9900012    2    1    2    0    0  0.25173872364E+02  0.19696098890E+02 -0.29359218348E+02  0.47787264254E+02  0.19999969040E+02 0.  0.
        -12    1    1    2    0    0 -0.25173872364E+02 -0.19696098890E+02  0.29359218348E+02  0.43400735746E+02  0.00000000000E+00 0.  1.
         11    1    3    3    0    0  0.26183470030E+00  0.68718371652E+01 -0.72213745462E+01  0.99719082443E+01  0.51100000000E-03 0. -1.
        -11    1    3    3    0    0  0.57144739554E+01  0.80470218234E+01 -0.30627120804E+01  0.10333923667E+02  0.51100000000E-03 0.  1.
         12    1    3    3    0    0  0.19197563708E+02  0.47772399010E+01 -0.19075131722E+02  0.27481432343E+02  0.00000000000E+00 0. -1.
</event>
<event>
 7    1  0.4621547E-010  0.4778727E+02  0.7816164E-02  0.1312668E+00
        -11   -1    0    0    0    0  0.00000000000E+00  0.00000000000E+00  0.45593999997E+02  0.45594000000E+02  0.51100000000E-03 0. -1.
         11   -1    0    0    0    0 -0.00000000000E+00 -0.00000000000E+00 -0.45593999997E+02  0.45594000000E+02  0.51100000000E-03 0.  1.
    9900012    2    1    2    0    0  0.12567078270E+02 -0.24627296108E+02  0.33454271718E+02  0.47787268831E+02  0.19999989906E+02 0.  0.
        -12    1    1    2    0    0 -0.12567078270E+02  0.24627296108E+02 -0.33454271718E+02  0.43400731169E+02  0.00000000000E+00 0.  1.
         11    1    3    3    0    0  0.38062881268E+01 -0.58677893741E-01  0.28840271050E+01  0.47758648434E+01  0.51100000000E-03 0. -1.
        -11    1    3    3    0    0  0.52850098570E+01 -0.91656210539E+01  0.26049600960E+01  0.10896134904E+02  0.51100000000E-03 0.  1.
        -12    1    3    3    0    0  0.34757802867E+01 -0.15402997161E+02  0.27965284517E+02  0.32115269083E+02  0.00000000000E+00 0.  1.
</event>
<event>
 7    1  0.4621547E-010  0.4778727E+02  0.7816164E-02  0.1312668E+00
        -11   -1    0    0    0    0  0.00000000000E+00  0.00000000000E+00  0.45593999997E+02  0.45594000000E+02  0.51100000000E-03 0.  1.
         11   -1    0    0    0    0 -0.00000000000E+00 -0.00000000000E+00 -0.45593999997E+02  0.45594000000E+02  0.51100000000E-03 0. -1.
    9900012    2    1    2    0    0 -0.42746711843E+02 -0.64655990392E+01  0.38128584306E+01  0.47787271507E+02  0.20000002108E+02 0.  0.
        -12    1    1    2    0    0  0.42746711843E+02  0.64655990392E+01 -0.38128584306E+01  0.43400728493E+02  0.00000000000E+00 0.  1.
         11    1    3    3    0    0 -0.19309041956E+02 -0.88301090977E+01  0.56300809301E+01  0.21966058807E+02  0.51100000000E-03 0. -1.
        -11    1    3    3    0    0 -0.49368194606E+01  0.97623119485E+00  0.39447013675E+01  0.63942069776E+01  0.51100000000E-03 0.  1.
         12    1    3    3    0    0 -0.18500850426E+02  0.13882788637E+01 -0.57619238670E+01  0.19427005723E+02  0.00000000000E+00 0. -1.
</event>
<event>
 7    1  0.4621547E-010  0.4778721E+02  0.7816164E-02  0.1312668E+00
        -11   -1    0    0    0    0  0.00000000000E+00  0.00000000000E+00  0.45593999997E+02  0.45594000000E+02  0.51100000000E-03 0.  1.
         11   -1    0    0    0    0 -0.00000000000E+00 -0.00000000000E+00 -0.45593999997E+02  0.45594000000E+02  0.51100000000E-03 0. -1.
    9900012    2    1    2    0    0 -0.15369937364E+02  0.13602096097E+01 -0.40565293253E+02  0.47787214737E+02  0.19999743270E+02 0.  0.
        -12    1    1    2    0    0  0.15369937364E+02 -0.13602096097E+01  0.40565293253E+02  0.43400785263E+02  0.00000000000E+00 0.  1.
         11    1    3    3    0    0 -0.10208849413E+02 -0.45435828696E+01 -0.28928987227E+02  0.31012111406E+02  0.51100000000E-03 0.  1.
        -11    1    3    3    0    0  0.13100024784E+01 -0.37604089526E+00 -0.59738457768E+01  0.61273441942E+01  0.51100000000E-03 0. -1.
        -12    1    3    3    0    0 -0.64710904295E+01  0.62798333746E+01 -0.56624602494E+01  0.10647759137E+02  0.00000000000E+00 0.  1.
</event>
<event>
 7    1  0.4621547E-010  0.4778727E+02  0.7816164E-02  0.1312668E+00
        -11   -1    0    0    0    0  0.00000000000E+00  0.00000000000E+00  0.45593999997E+02  0.45594000000E+02  0.51100000000E-03 0.  1.
         11   -1    0    0    0    0 -0.00000000000E+00 -0.00000000000E+00 -0.45593999997E+02  0.45594000000E+02  0.51100000000E-03 0. -1.
    9900012    2    1    2    0    0 -0.28617668976E+02 -0.26896383589E+02 -0.18472595393E+02  0.47787271799E+02  0.20000003442E+02 0.  0.
        -12    1    1    2    0    0  0.28617668976E+02  0.26896383589E+02  0.18472595393E+02  0.43400728201E+02  0.00000000000E+00 0.  1.
         11    1    3    3    0    0 -0.14543556476E+02 -0.15555261598E+02 -0.15523540790E+02  0.26352637767E+02  0.51100000000E-03 0. -1.
        -11    1    3    3    0    0 -0.25843443758E+00  0.81252076786E+00 -0.29116727453E+01  0.30339440987E+01  0.51100000000E-03 0.  1.
         12    1    3    3    0    0 -0.13815678063E+02 -0.12153642758E+02 -0.37381857670E-01  0.18400689934E+02  0.00000000000E+00 0. -1.
</event>
<event>
 7    1  0.4621547E-010  0.4778728E+02  0.7816164E-02  0.1312668E+00
        -11   -1    0    0    0    0  0.00000000000E+00  0.00000000000E+00  0.45593999997E+02  0.45594000000E+02  0.51100000000E-03 0.  1.
         11   -1    0    0    0    0 -0.00000000000E+00 -0.00000000000E+00 -0.45593999997E+02  0.45594000000E+02  0.51100000000E-03 0. -1.
    9900012    2    1    2    0    0  0.39653161238E+02  0.16038878400E+02  0.73487461491E+01  0.47787275508E+02  0.20000020350E+02 0.  0.
        -12    1    1    2    0    0 -0.39653161238E+02 -0.16038878400E+02 -0.73487461491E+01  0.43400724492E+02  0.00000000000E+00 0.  1.
         11    1    3    3    0    0  0.95002885186E+01  0.21585774619E+01  0.25520584908E+01  0.10071143996E+02  0.51100000000E-03 0. -1.
        -11    1    3    3    0    0  0.11977908724E+02  0.23550762369E+00 -0.49819951100E+01  0.12974823189E+02  0.51100000000E-03 0.  1.
        -12    1    3    3    0    0  0.18174963995E+02  0.13644793315E+02  0.97786827683E+01  0.24741308322E+02  0.00000000000E+00 0.  1.
</event>
<event>
 7    1  0.4621547E-010  0.4778727E+02  0.7816164E-02  0.1312668E+00
        -11   -1    0    0    0    0  0.00000000000E+00  0.00000000000E+00  0.45593999997E+02  0.45594000000E+02  0.51100000000E-03 0.  1.
         11   -1    0    0    0    0 -0.00000000000E+00 -0.00000000000E+00 -0.45593999997E+02  0.45594000000E+02  0.51100000000E-03 0. -1.
    9900012    2    1    2    0    0 -0.10966793531E+02  0.25416557637E+02 -0.33426803082E+02  0.47787272740E+02  0.20000007729E+02 0.  0.
        -12    1    1    2    0    0  0.10966793531E+02 -0.25416557637E+02  0.33426803082E+02  0.43400727260E+02  0.00000000000E+00 0.  1.
         11    1    3    3    0    0 -0.66958812748E+01  0.13795631964E+02 -0.10218723418E+02  0.18427604182E+02  0.51100000000E-03 0. -1.
        -11    1    3    3    0    0 -0.62749511254E+01  0.54286632777E+01 -0.42642041859E+01  0.93289246009E+01  0.51100000000E-03 0.  1.
        -12    1    3    3    0    0  0.20040388690E+01  0.61922623954E+01 -0.18943875478E+02  0.20030743957E+02  0.00000000000E+00 0.  1.
</event>
<event>
 7    1  0.4621547E-010  0.4778726E+02  0.7816164E-02  0.1312668E+00
        -11   -1    0    0    0    0  0.00000000000E+00  0.00000000000E+00  0.45593999997E+02  0.45594000000E+02  0.51100000000E-03 0.  1.
         11   -1    0    0    0    0 -0.00000000000E+00 -0.00000000000E+00 -0.45593999997E+02  0.45594000000E+02  0.51100000000E-03 0. -1.
    9900012    2    1    2    0    0 -0.21841760420E+02  0.35914839568E+02 -0.10802122843E+02  0.47787262019E+02  0.19999958848E+02 0.  0.
        -12    1    1    2    0    0  0.21841760420E+02 -0.35914839568E+02  0.10802122843E+02  0.43400737981E+02  0.00000000000E+00 0.  1.
         11    1    3    3    0    0 -0.12057640511E+02  0.81262126756E+01  0.12650964205E+01  0.14595290212E+02  0.51100000000E-03 0. -1.
        -11    1    3    3    0    0 -0.10791396597E+01 -0.24157617155E+00 -0.17704387547E+01  0.20874278663E+01  0.51100000000E-03 0.  1.
        -12    1    3    3    0    0 -0.87049802487E+01  0.28030203064E+02 -0.10296780509E+02  0.31104543941E+02  0.00000000000E+00 0.  1.
</event>
<event>
 7    1  0.4621547E-010  0.4778727E+02  0.7816164E-02  0.1312668E+00
        -11   -1    0    0    0    0  0.00000000000E+00  0.00000000000E+00  0.45593999997E+02  0.45594000000E+02  0.51100000000E-03 0. -1.
         11   -1    0    0    0    0 -0.00000000000E+00 -0.00000000000E+00 -0.45593999997E+02  0.45594000000E+02  0.51100000000E-03 0.  1.
    9900012    2    1    2    0    0  0.13368687561E+01 -0.32358303257E+02  0.28892495011E+02  0.47787271023E+02  0.19999999903E+02 0.  0.
        -12    1    1    2    0    0 -0.13368687561E+01  0.32358303257E+02 -0.28892495011E+02  0.43400728977E+02  0.00000000000E+00 0.  1.
         11    1    3    3    0    0  0.22517417634E+01 -0.17940978909E+02  0.41682437911E+01  0.18555951114E+02  0.51100000000E-03 0.  1.
        -11    1    3    3    0    0  0.17687891142E+01 -0.82804091726E+01  0.10343304285E+02  0.13367039118E+02  0.51100000000E-03 0. -1.
        -12    1    3    3    0    0 -0.26836621215E+01 -0.61369151752E+01  0.14380946936E+02  0.15864280791E+02  0.00000000000E+00 0.  1.
</event>
<event>
 7    1  0.4621547E-010  0.4778727E+02  0.7816164E-02  0.1312668E+00
        -11   -1    0    0    0    0  0.00000000000E+00  0.00000000000E+00  0.45593999997E+02  0.45594000000E+02  0.51100000000E-03 0. -1.
         11   -1    0    0    0    0 -0.00000000000E+00 -0.00000000000E+00 -0.45593999997E+02  0.45594000000E+02  0.51100000000E-03 0.  1.
    9900012    2    1    2    0    0 -0.37464140045E+02 -0.21246012712E+02 -0.53542980529E+01  0.47787270131E+02  0.19999995836E+02 0.  0.
        -12    1    1    2    0    0  0.37464140045E+02  0.21246012712E+02  0.53542980529E+01  0.43400729869E+02  0.00000000000E+00 0.  1.
         11    1    3    3    0    0 -0.54440347133E+01 -0.43919143428E+01 -0.54369068522E+01  0.88592540281E+01  0.51100000000E-03 0. -1.
        -11    1    3    3    0    0  0.12421033498E+01 -0.15356064383E+01 -0.11531887815E+01  0.22870838402E+01  0.51100000000E-03 0.  1.
         12    1    3    3    0    0 -0.33262208682E+02 -0.15318491931E+02  0.12357975809E+01  0.36640932263E+02  0.00000000000E+00 0. -1.
</event>
<event>
 7    1  0.4621547E-010  0.4778727E+02  0.7816164E-02  0.1312668E+00
        -11   -1    0    0    0    0  0.00000000000E+00  0.00000000000E+00  0.45593999997E+02  0.45594000000E+02  0.51100000000E-03 0.  1.
         11   -1    0    0    0    0 -0.00000000000E+00 -0.00000000000E+00 -0.45593999997E+02  0.45594000000E+02  0.51100000000E-03 0. -1.
    9900012    2    1    2    0    0 -0.50260498415E+01 -0.36890691101E+02 -0.22303341096E+02  0.47787270848E+02  0.19999999102E+02 0.  0.
        -12    1    1    2    0    0  0.50260498415E+01  0.36890691101E+02  0.22303341096E+02  0.43400729152E+02  0.00000000000E+00 0.  1.
         11    1    3    3    0    0  0.31751420081E+01 -0.20432153565E+02 -0.17992413618E+02  0.27409512475E+02  0.51100000000E-03 0. -1.
        -11    1    3    3    0    0  0.50343303792E+00 -0.53163365757E+01  0.68051326055E+00  0.53833054872E+01  0.51100000000E-03 0.  1.
        -12    1    3    3    0    0 -0.87046248876E+01 -0.11142200961E+02 -0.49914407382E+01  0.14994452885E+02  0.00000000000E+00 0.  1.
</event>
<event>
 7    1  0.4621547E-010  0.4778727E+02  0.7816164E-02  0.1312668E+00
        -11   -1    0    0    0    0  0.00000000000E+00  0.00000000000E+00  0.45593999997E+02  0.45594000000E+02  0.51100000000E-03 0.  1.
         11   -1    0    0    0    0 -0.00000000000E+00 -0.00000000000E+00 -0.45593999997E+02  0.45594000000E+02  0.51100000000E-03 0. -1.
    9900012    2    1    2    0    0  0.28455501844E+02 -0.32719804069E+02  0.18227329727E+01  0.47787268221E+02  0.19999987127E+02 0.  0.
        -12    1    1    2    0    0 -0.28455501844E+02  0.32719804069E+02 -0.18227329727E+01  0.43400731779E+02  0.00000000000E+00 0.  1.
         11    1    3    3    0    0  0.18441619818E+02 -0.18003611130E+02  0.22310139848E+01  0.25868915301E+02  0.51100000000E-03 0. -1.
        -11    1    3    3    0    0  0.10014271066E+02 -0.83213849083E+01 -0.51035915074E+01  0.13984910379E+02  0.51100000000E-03 0.  1.
         12    1    3    3    0    0 -0.38903991539E-03 -0.63948080306E+01  0.46953104953E+01  0.79334425407E+01  0.00000000000E+00 0. -1.
</event>
<event>
 7    1  0.4621547E-010  0.4778727E+02  0.7816164E-02  0.1312668E+00
        -11   -1    0    0    0    0  0.00000000000E+00  0.00000000000E+00  0.45593999997E+02  0.45594000000E+02  0.51100000000E-03 0.  1.
         11   -1    0    0    0    0 -0.00000000000E+00 -0.00000000000E+00 -0.45593999997E+02  0.45594000000E+02  0.51100000000E-03 0. -1.
    9900012    2    1    2    0    0 -0.67081507517E+01 -0.67684063194E+01 -0.42341617410E+02  0.47787272178E+02  0.20000005166E+02 0.  0.
        -12    1    1    2    0    0  0.67081507517E+01  0.67684063194E+01  0.42341617410E+02  0.43400727822E+02  0.00000000000E+00 0.  1.
         11    1    3    3    0    0 -0.59883060254E+01 -0.10654792507E+02 -0.37470318518E+02  0.39413312250E+02  0.51100000000E-03 0. -1.
        -11    1    3    3    0    0 -0.25125086028E+01  0.23153460952E-03 -0.21079293088E+01  0.32796441521E+01  0.51100000000E-03 0.  1.
        -12    1    3    3    0    0  0.17926638765E+01  0.38861546533E+01 -0.27633695833E+01  0.50943157752E+01  0.00000000000E+00 0.  1.
</event>
<event>
 7    1  0.4621547E-010  0.4778727E+02  0.7816164E-02  0.1312668E+00
        -11   -1    0    0    0    0  0.00000000000E+00  0.00000000000E+00  0.45593999997E+02  0.45594000000E+02  0.51100000000E-03 0.  1.
         11   -1    0    0    0    0 -0.00000000000E+00 -0.00000000000E+00 -0.45593999997E+02  0.45594000000E+02  0.51100000000E-03 0. -1.
    9900012    2    1    2    0    0 -0.34618716322E+02  0.12135190673E+02 -0.23192773658E+02  0.47787272789E+02  0.20000007955E+02 0.  0.
        -12    1    1    2    0    0  0.34618716322E+02 -0.12135190673E+02  0.23192773658E+02  0.43400727211E+02  0.00000000000E+00 0.  1.
         11    1    3    3    0    0 -0.43201017113E+01  0.31204013943E+01 -0.23937713942E+01  0.58421165177E+01  0.51100000000E-03 0. -1.
        -11    1    3    3    0    0 -0.32810540053E+01  0.85006504342E+01 -0.30234321112E+01  0.96003914077E+01  0.51100000000E-03 0.  1.
        -12    1    3    3    0    0 -0.27017560605E+02  0.51413884480E+00 -0.17775570153E+02  0.32344764864E+02  0.00000000000E+00 0.  1.
</event>
<event>
 7    1  0.4621547E-010  0.4778728E+02  0.7816164E-02  0.1312668E+00
        -11   -1    0    0    0    0  0.00000000000E+00  0.00000000000E+00  0.45593999997E+02  0.45594000000E+02  0.51100000000E-03 0.  1.
         11   -1    0    0    0    0 -0.00000000000E+00 -0.00000000000E+00 -0.45593999997E+02  0.45594000000E+02  0.51100000000E-03 0. -1.
    9900012    2    1    2    0    0  0.16407235004E+02  0.59350945640E+00 -0.40175527468E+02  0.47787278563E+02  0.20000034279E+02 0.  0.
        -12    1    1    2    0    0 -0.16407235004E+02 -0.59350945640E+00  0.40175527468E+02  0.43400721437E+02  0.00000000000E+00 0.  1.
         11    1    3    3    0    0  0.50866910705E+01  0.90639960456E+00 -0.66570410125E+01  0.84268725867E+01  0.51100000000E-03 0. -1.
        -11    1    3    3    0    0 -0.52415261562E+00 -0.17607596517E+01 -0.24069432885E+02  0.24139440967E+02  0.51100000000E-03 0.  1.
        -12    1    3    3    0    0  0.11844696549E+02  0.14478695035E+01 -0.94490535700E+01  0.15220965009E+02  0.00000000000E+00 0.  1.
</event>
<event>
 7    1  0.4621547E-010  0.4778727E+02  0.7816164E-02  0.1312668E+00
        -11   -1    0    0    0    0  0.00000000000E+00  0.00000000000E+00  0.45593999997E+02  0.45594000000E+02  0.51100000000E-03 0.  1.
         11   -1    0    0    0    0 -0.00000000000E+00 -0.00000000000E+00 -0.45593999997E+02  0.45594000000E+02  0.51100000000E-03 0. -1.
    9900012    2    1    2    0    0 -0.89798718107E+01  0.36243450254E+02 -0.22122330859E+02  0.47787270666E+02  0.19999998275E+02 0.  0.
        -12    1    1    2    0    0  0.89798718107E+01 -0.36243450254E+02  0.22122330859E+02  0.43400729334E+02  0.00000000000E+00 0.  1.
         11    1    3    3    0    0 -0.51253230917E+01  0.35052713481E+01 -0.68753584091E+01  0.92642548288E+01  0.51100000000E-03 0. -1.
        -11    1    3    3    0    0 -0.25772433816E+01  0.20608870504E+01  0.14138799219E+01  0.35900550939E+01  0.51100000000E-03 0.  1.
         12    1    3    3    0    0 -0.12773053373E+01  0.30677291856E+02 -0.16660852372E+02  0.34932960743E+02  0.00000000000E+00 0. -1.
</event>
<event>
 7    1  0.4621547E-010  0.4778727E+02  0.7816164E-02  0.1312668E+00
        -11   -1    0    0    0    0  0.00000000000E+00  0.00000000000E+00  0.45593999997E+02  0.45594000000E+02  0.51100000000E-03 0.  1.
         11   -1    0    0    0    0 -0.00000000000E+00 -0.00000000000E+00 -0.45593999997E+02  0.45594000000E+02  0.51100000000E-03 0. -1.
    9900012    2    1    2    0    0 -0.41756281558E+02  0.10645564435E+02  0.51679751790E+01  0.47787273518E+02  0.20000011279E+02 0.  0.
        -12    1    1    2    0    0  0.41756281558E+02 -0.10645564435E+02 -0.51679751790E+01  0.43400726482E+02  0.00000000000E+00 0.  1.
         11    1    3    3    0    0 -0.30307781632E+02  0.32931649664E+01  0.47107869343E+01  0.30847983350E+02  0.51100000000E-03 0. -1.
        -11    1    3    3    0    0 -0.86398669108E+01 -0.40153786512E+00 -0.32535133417E+00  0.86553097371E+01  0.51100000000E-03 0.  1.
         12    1    3    3    0    0 -0.28086330154E+01  0.77539373340E+01  0.78253957881E+00  0.82839804314E+01  0.00000000000E+00 0. -1.
</event>
<event>
 7    1  0.4621547E-010  0.4778727E+02  0.7816164E-02  0.1312668E+00
        -11   -1    0    0    0    0  0.00000000000E+00  0.00000000000E+00  0.45593999997E+02  0.45594000000E+02  0.51100000000E-03 0.  1.
         11   -1    0    0    0    0 -0.00000000000E+00 -0.00000000000E+00 -0.45593999997E+02  0.45594000000E+02  0.51100000000E-03 0. -1.
    9900012    2    1    2    0    0 -0.31394934262E+02  0.28319921719E+02 -0.97960877036E+01  0.47787271921E+02  0.20000003998E+02 0.  0.
        -12    1    1    2    0    0  0.31394934262E+02 -0.28319921719E+02  0.97960877036E+01  0.43400728079E+02  0.00000000000E+00 0.  1.
         11    1    3    3    0    0 -0.15307873952E+02  0.15944737898E+02 -0.12226090662E+01  0.22137308887E+02  0.51100000000E-03 0. -1.
        -11    1    3    3    0    0 -0.63525386464E+01  0.61497726710E+00  0.24323034653E+01  0.68300105931E+01  0.51100000000E-03 0.  1.
        -12    1    3    3    0    0 -0.97345216636E+01  0.11760206554E+02 -0.11005782103E+02  0.18819952441E+02  0.00000000000E+00 0.  1.
</event>
<event>
 7    1  0.4621547E-010  0.4778727E+02  0.7816164E-02  0.1312668E+00
        -11   -1    0    0    0    0  0.00000000000E+00  0.00000000000E+00  0.45593999997E+02  0.45594000000E+02  0.51100000000E-03 0.  1.
         11   -1    0    0    0    0 -0.00000000000E+00 -0.00000000000E+00 -0.45593999997E+02  0.45594000000E+02  0.51100000000E-03 0. -1.
    9900012    2    1    2    0    0 -0.78638997132E+01  0.37475820831E+02 -0.20429036214E+02  0.47787267446E+02  0.19999983593E+02 0.  0.
        -12    1    1    2    0    0  0.78638997132E+01 -0.37475820831E+02  0.20429036214E+02  0.43400732554E+02  0.00000000000E+00 0.  1.
         11    1    3    3    0    0 -0.40616484805E+01  0.20307014557E+02 -0.28219991323E+01  0.20900610230E+02  0.51100000000E-03 0. -1.
        -11    1    3    3    0    0 -0.20424658469E+01 -0.32106627509E+00 -0.88420040602E-01  0.20694367962E+01  0.51100000000E-03 0.  1.
         12    1    3    3    0    0 -0.17597853858E+01  0.17489872548E+02 -0.17518617041E+02  0.24817220420E+02  0.00000000000E+00 0. -1.
</event>
<event>
 7    1  0.4621547E-010  0.4778727E+02  0.7816164E-02  0.1312668E+00
        -11   -1    0    0    0    0  0.00000000000E+00  0.00000000000E+00  0.45593999997E+02  0.45594000000E+02  0.51100000000E-03 0.  1.
         11   -1    0    0    0    0 -0.00000000000E+00 -0.00000000000E+00 -0.45593999997E+02  0.45594000000E+02  0.51100000000E-03 0. -1.
    9900012    2    1    2    0    0  0.31210253676E+02  0.20869804646E+02 -0.21771418317E+02  0.47787270329E+02  0.19999996737E+02 0.  0.
        -12    1    1    2    0    0 -0.31210253676E+02 -0.20869804646E+02  0.21771418317E+02  0.43400729671E+02  0.00000000000E+00 0.  1.
         11    1    3    3    0    0  0.46561389179E+01  0.73363577566E+01 -0.88996031556E+01  0.12438034867E+02  0.51100000000E-03 0. -1.
        -11    1    3    3    0    0 -0.12050499076E+01 -0.95661083959E+00 -0.13495902343E+00  0.15444946673E+01  0.51100000000E-03 0.  1.
        -12    1    3    3    0    0  0.27759164666E+02  0.14490057729E+02 -0.12736856138E+02  0.33804740795E+02  0.00000000000E+00 0.  1.
</event>
<event>
 7    1  0.4621547E-010  0.4778727E+02  0.7816164E-02  0.1312668E+00
        -11   -1    0    0    0    0  0.00000000000E+00  0.00000000000E+00  0.45593999997E+02  0.45594000000E+02  0.51100000000E-03 0. -1.
         11   -1    0    0    0    0 -0.00000000000E+00 -0.00000000000E+00 -0.45593999997E+02  0.45594000000E+02  0.51100000000E-03 0.  1.
    9900012    2    1    2    0    0 -0.33731680256E+02 -0.12023686636E+02  0.24519949833E+02  0.47787271515E+02  0.20000002144E+02 0.  0.
        -12    1    1    2    0    0  0.33731680256E+02  0.12023686636E+02 -0.24519949833E+02  0.43400728485E+02  0.00000000000E+00 0.  1.
         11    1    3    3    0    0 -0.17946165972E+02 -0.85071779813E+01  0.12192236757E+02  0.23304239694E+02  0.51100000000E-03 0. -1.
        -11    1    3    3    0    0 -0.15081023314E+02 -0.86618668918E+00  0.38727004850E+01  0.15594401332E+02  0.51100000000E-03 0.  1.
        -12    1    3    3    0    0 -0.70449096944E+00 -0.26503219659E+01  0.84550125915E+01  0.88886304891E+01  0.00000000000E+00 0.  1.
</event>
<event>
 7    1  0.4621547E-010  0.4778727E+02  0.7816164E-02  0.1312668E+00
        -11   -1    0    0    0    0  0.00000000000E+00  0.00000000000E+00  0.45593999997E+02  0.45594000000E+02  0.51100000000E-03 0. -1.
         11   -1    0    0    0    0 -0.00000000000E+00 -0.00000000000E+00 -0.45593999997E+02  0.45594000000E+02  0.51100000000E-03 0.  1.
    9900012    2    1    2    0    0 -0.31033837564E+02  0.27324345095E+02  0.13187282847E+02  0.47787270309E+02  0.19999996649E+02 0.  0.
        -12    1    1    2    0    0  0.31033837564E+02 -0.27324345095E+02 -0.13187282847E+02  0.43400729691E+02  0.00000000000E+00 0.  1.
         11    1    3    3    0    0 -0.95931626272E+01  0.32055332055E+01  0.26349136810E+01  0.10452128142E+02  0.51100000000E-03 0. -1.
        -11    1    3    3    0    0 -0.92048162019E+01  0.40233182461E+01 -0.26057271201E+01  0.10378128208E+02  0.51100000000E-03 0.  1.
        -12    1    3    3    0    0 -0.12235858735E+02  0.20095493643E+02  0.13158096286E+02  0.26957013959E+02  0.00000000000E+00 0.  1.
</event>
<event>
 7    1  0.4621547E-010  0.4778727E+02  0.7816164E-02  0.1312668E+00
        -11   -1    0    0    0    0  0.00000000000E+00  0.00000000000E+00  0.45593999997E+02  0.45594000000E+02  0.51100000000E-03 0.  1.
         11   -1    0    0    0    0 -0.00000000000E+00 -0.00000000000E+00 -0.45593999997E+02  0.45594000000E+02  0.51100000000E-03 0. -1.
    9900012    2    1    2    0    0  0.27983396741E+02 -0.11002785783E+02 -0.31296828256E+02  0.47787271354E+02  0.20000001411E+02 0.  0.
        -12    1    1    2    0    0 -0.27983396741E+02  0.11002785783E+02  0.31296828256E+02  0.43400728646E+02  0.00000000000E+00 0.  1.
         11    1    3    3    0    0  0.53768407075E+01 -0.46368062396E+01 -0.24906016775E+01  0.75241933172E+01  0.51100000000E-03 0.  1.
        -11    1    3    3    0    0  0.24319632617E+02 -0.41852564064E+01 -0.22586371472E+02  0.33453027940E+02  0.51100000000E-03 0. -1.
         12    1    3    3    0    0 -0.17130765835E+01 -0.21807231370E+01 -0.62198551058E+01  0.68100500966E+01  0.00000000000E+00 0. -1.
</event>
<event>
 7    1  0.4621547E-010  0.4778727E+02  0.7816164E-02  0.1312668E+00
        -11   -1    0    0    0    0  0.00000000000E+00  0.00000000000E+00  0.45593999997E+02  0.45594000000E+02  0.51100000000E-03 0. -1.
         11   -1    0    0    0    0 -0.00000000000E+00 -0.00000000000E+00 -0.45593999997E+02  0.45594000000E+02  0.51100000000E-03 0.  1.
    9900012    2    1    2    0    0 -0.26310280219E+02  0.33745201835E+02  0.72562860829E+01  0.47787272128E+02  0.20000004941E+02 0.  0.
        -12    1    1    2    0    0  0.26310280219E+02 -0.33745201835E+02 -0.72562860829E+01  0.43400727872E+02  0.00000000000E+00 0.  1.
         11    1    3    3    0    0 -0.66621979119E+01  0.71321079362E+01 -0.21201569826E+01  0.99873375092E+01  0.51100000000E-03 0. -1.
        -11    1    3    3    0    0 -0.12063886379E+01  0.92505987047E+01 -0.27388584363E+01  0.97226691673E+01  0.51100000000E-03 0.  1.
         12    1    3    3    0    0 -0.18441693670E+02  0.17362495194E+02  0.12115301502E+02  0.28077265452E+02  0.00000000000E+00 0. -1.
</event>
<event>
 7    1  0.4621547E-010  0.4778730E+02  0.7816164E-02  0.1312668E+00
        -11   -1    0    0    0    0  0.00000000000E+00  0.00000000000E+00  0.45593999997E+02  0.45594000000E+02  0.51100000000E-03 0. -1.
         11   -1    0    0    0    0 -0.00000000000E+00 -0.00000000000E+00 -0.45593999997E+02  0.45594000000E+02  0.51100000000E-03 0.  1.
    9900012    2    1    2    0    0 -0.38599113538E+02 -0.19354295141E+02  0.43750113112E+01  0.47787296892E+02  0.20000117847E+02 0.  0.
        -12    1    1    2    0    0  0.38599113538E+02  0.19354295141E+02 -0.43750113112E+01  0.43400703108E+02  0.00000000000E+00 0.  1.
         11    1    3    3    0    0 -0.43420574062E+01 -0.75137434263E+01  0.44003308945E+01  0.97299904953E+01  0.51100000000E-03 0. -1.
        -11    1    3    3    0    0  0.73539550294E+00 -0.54936322626E+00 -0.88936061035E+00  0.12781115196E+01  0.51100000000E-03 0.  1.
        -12    1    3    3    0    0 -0.34992451635E+02 -0.11291188489E+02  0.86404102707E+00  0.36779194877E+02  0.00000000000E+00 0.  1.
</event>
<event>
 7    1  0.4621547E-010  0.4778727E+02  0.7816164E-02  0.1312668E+00
        -11   -1    0    0    0    0  0.00000000000E+00  0.00000000000E+00  0.45593999997E+02  0.45594000000E+02  0.51100000000E-03 0. -1.
         11   -1    0    0    0    0 -0.00000000000E+00 -0.00000000000E+00 -0.45593999997E+02  0.45594000000E+02  0.51100000000E-03 0.  1.
    9900012    2    1    2    0    0 -0.40785241841E+02 -0.54308938891E+01  0.13809152408E+02  0.47787271311E+02  0.20000001217E+02 0.  0.
        -12    1    1    2    0    0  0.40785241841E+02  0.54308938891E+01 -0.13809152408E+02  0.43400728689E+02  0.00000000000E+00 0.  1.
         11    1    3    3    0    0 -0.15482605395E+02 -0.17508494848E+01  0.73008706599E+00  0.15598383606E+02  0.51100000000E-03 0. -1.
        -11    1    3    3    0    0 -0.10498709129E+02 -0.71128931190E+01  0.89856459793E+00  0.12713125520E+02  0.51100000000E-03 0.  1.
        -12    1    3    3    0    0 -0.14803927317E+02  0.34328487146E+01  0.12180500744E+02  0.19475762185E+02  0.00000000000E+00 0.  1.
</event>
<event>
 7    1  0.4621547E-010  0.4778727E+02  0.7816164E-02  0.1312668E+00
        -11   -1    0    0    0    0  0.00000000000E+00  0.00000000000E+00  0.45593999997E+02  0.45594000000E+02  0.51100000000E-03 0.  1.
         11   -1    0    0    0    0 -0.00000000000E+00 -0.00000000000E+00 -0.45593999997E+02  0.45594000000E+02  0.51100000000E-03 0. -1.
    9900012    2    1    2    0    0 -0.21199266987E+02 -0.19282579485E+02 -0.32594421655E+02  0.47787272870E+02  0.20000008324E+02 0.  0.
        -12    1    1    2    0    0  0.21199266987E+02  0.19282579485E+02  0.32594421655E+02  0.43400727130E+02  0.00000000000E+00 0.  1.
         11    1    3    3    0    0 -0.10851303191E+01 -0.46991086992E+01 -0.78210601164E+00  0.48857773640E+01  0.51100000000E-03 0. -1.
        -11    1    3    3    0    0  0.30801861536E+00  0.65047001094E+00  0.10786845583E+01  0.12967449016E+01  0.51100000000E-03 0.  1.
         12    1    3    3    0    0 -0.20422155283E+02 -0.15233940796E+02 -0.32891000202E+02  0.41604750605E+02  0.00000000000E+00 0. -1.
</event>
<event>
 7    1  0.4621547E-010  0.4778727E+02  0.7816164E-02  0.1312668E+00
        -11   -1    0    0    0    0  0.00000000000E+00  0.00000000000E+00  0.45593999997E+02  0.45594000000E+02  0.51100000000E-03 0. -1.
         11   -1    0    0    0    0 -0.00000000000E+00 -0.00000000000E+00 -0.45593999997E+02  0.45594000000E+02  0.51100000000E-03 0.  1.
    9900012    2    1    2    0    0 -0.38614166666E+02 -0.19601232730E+02  0.28915586796E+01  0.47787270704E+02  0.19999998447E+02 0.  0.
        -12    1    1    2    0    0  0.38614166666E+02  0.19601232730E+02 -0.28915586796E+01  0.43400729296E+02  0.00000000000E+00 0.  1.
         11    1    3    3    0    0 -0.26278022752E+02 -0.81899592131E+01 -0.35504813820E+00  0.27527004397E+02  0.51100000000E-03 0. -1.
        -11    1    3    3    0    0 -0.10861854926E+02 -0.81825843272E+01 -0.21833014984E+01  0.13773212566E+02  0.51100000000E-03 0.  1.
         12    1    3    3    0    0 -0.14742889881E+01 -0.32286891899E+01  0.54299083162E+01  0.64870537401E+01  0.00000000000E+00 0. -1.
</event>
<event>
 7    1  0.4621547E-010  0.4778727E+02  0.7816164E-02  0.1312668E+00
        -11   -1    0    0    0    0  0.00000000000E+00  0.00000000000E+00  0.45593999997E+02  0.45594000000E+02  0.51100000000E-03 0.  1.
         11   -1    0    0    0    0 -0.00000000000E+00 -0.00000000000E+00 -0.45593999997E+02  0.45594000000E+02  0.51100000000E-03 0. -1.
    9900012    2    1    2    0    0 -0.10544817110E+02 -0.18058495792E+02 -0.38030526182E+02  0.47787270054E+02  0.19999995485E+02 0.  0.
        -12    1    1    2    0    0  0.10544817110E+02  0.18058495792E+02  0.38030526182E+02  0.43400729946E+02  0.00000000000E+00 0.  1.
         11    1    3    3    0    0 -0.26304576970E+00 -0.71606997086E+01 -0.14038354148E+02  0.15761351491E+02  0.51100000000E-03 0. -1.
        -11    1    3    3    0    0  0.38997768085E+01 -0.14991699610E+01 -0.41551767620E+01  0.58924751941E+01  0.51100000000E-03 0.  1.
         12    1    3    3    0    0 -0.14181548148E+02 -0.93986261225E+01 -0.19836995273E+02  0.26133443369E+02  0.00000000000E+00 0. -1.
</event>
<event>
 7    1  0.4621547E-010  0.4778727E+02  0.7816164E-02  0.1312668E+00
        -11   -1    0    0    0    0  0.00000000000E+00  0.00000000000E+00  0.45593999997E+02  0.45594000000E+02  0.51100000000E-03 0.  1.
         11   -1    0    0    0    0 -0.00000000000E+00 -0.00000000000E+00 -0.45593999997E+02  0.45594000000E+02  0.51100000000E-03 0. -1.
    9900012    2    1    2    0    0  0.22244843815E+02  0.35860389551E+02 -0.10140153460E+02  0.47787270429E+02  0.19999997192E+02 0.  0.
        -12    1    1    2    0    0 -0.22244843815E+02 -0.35860389551E+02  0.10140153460E+02  0.43400729571E+02  0.00000000000E+00 0.  1.
         11    1    3    3    0    0  0.57015762724E+01  0.35305997968E+01  0.27642822370E+01  0.72535759087E+01  0.51100000000E-03 0.  1.
        -11    1    3    3    0    0 -0.39873107354E+00  0.12188447337E+01 -0.37239350479E+01  0.39385608357E+01  0.51100000000E-03 0. -1.
         12    1    3    3    0    0  0.16941998616E+02  0.31110945021E+02 -0.91805006493E+01  0.36595133684E+02  0.00000000000E+00 0. -1.
</event>
<event>
 7    1  0.4621547E-010  0.4778727E+02  0.7816164E-02  0.1312668E+00
        -11   -1    0    0    0    0  0.00000000000E+00  0.00000000000E+00  0.45593999997E+02  0.45594000000E+02  0.51100000000E-03 0.  1.
         11   -1    0    0    0    0 -0.00000000000E+00 -0.00000000000E+00 -0.45593999997E+02  0.45594000000E+02  0.51100000000E-03 0. -1.
    9900012    2    1    2    0    0  0.93599314093E+01 -0.41981944913E+02 -0.57906318181E+01  0.47787269228E+02  0.19999991719E+02 0.  0.
        -12    1    1    2    0    0 -0.93599314093E+01  0.41981944913E+02  0.57906318181E+01  0.43400730772E+02  0.00000000000E+00 0.  1.
         11    1    3    3    0    0  0.33299061822E+01 -0.68167920334E+01  0.43878751853E+01  0.87641529946E+01  0.51100000000E-03 0. -1.
        -11    1    3    3    0    0  0.49159964221E+01 -0.16072424603E+02  0.10590732362E+01  0.16840768683E+02  0.51100000000E-03 0.  1.
        -12    1    3    3    0    0  0.11140288050E+01 -0.19092728276E+02 -0.11237580240E+02  0.22182347551E+02  0.00000000000E+00 0.  1.
</event>
<event>
 7    1  0.4621547E-010  0.4778727E+02  0.7816164E-02  0.1312668E+00
        -11   -1    0    0    0    0  0.00000000000E+00  0.00000000000E+00  0.45593999997E+02  0.45594000000E+02  0.51100000000E-03 0. -1.
         11   -1    0    0    0    0 -0.00000000000E+00 -0.00000000000E+00 -0.45593999997E+02  0.45594000000E+02  0.51100000000E-03 0.  1.
    9900012    2    1    2    0    0 -0.35940243653E+02 -0.20293866401E+02 -0.13419434625E+02  0.47787270133E+02  0.19999995846E+02 0.  0.
        -12    1    1    2    0    0  0.35940243653E+02  0.20293866401E+02  0.13419434625E+02  0.43400729867E+02  0.00000000000E+00 0.  1.
         11    1    3    3    0    0 -0.39988924608E+01 -0.79853547776E+01 -0.55674172203E+01  0.10523933039E+02  0.51100000000E-03 0. -1.
        -11    1    3    3    0    0 -0.57654655118E+01 -0.23142047051E+01 -0.68199004991E+01  0.92253552270E+01  0.51100000000E-03 0.  1.
         12    1    3    3    0    0 -0.26175885680E+02 -0.99943069180E+01 -0.10321169051E+01  0.28037981868E+02  0.00000000000E+00 0. -1.
</event>
<event>
 7    1  0.4621547E-010  0.4778728E+02  0.7816164E-02  0.1312668E+00
        -11   -1    0    0    0    0  0.00000000000E+00  0.00000000000E+00  0.45593999997E+02  0.45594000000E+02  0.51100000000E-03 0.  1.
         11   -1    0    0    0    0 -0.00000000000E+00 -0.00000000000E+00 -0.45593999997E+02  0.45594000000E+02  0.51100000000E-03 0. -1.
    9900012    2    1    2    0    0  0.25116666810E+02  0.61690439592E+01 -0.34852817236E+02  0.47787275072E+02  0.20000018361E+02 0.  0.
        -12    1    1    2    0    0 -0.25116666810E+02 -0.61690439592E+01  0.34852817236E+02  0.43400724928E+02  0.00000000000E+00 0.  1.
         11    1    3    3    0    0  0.58721171276E+01  0.59819122304E+00 -0.44601825792E+00  0.59193348315E+01  0.51100000000E-03 0. -1.
        -11    1    3    3    0    0  0.34158171385E+01  0.45775570652E+01 -0.18675741697E+02  0.19529597119E+02  0.51100000000E-03 0.  1.
         12    1    3    3    0    0  0.15828732544E+02  0.99329567096E+00 -0.15731057281E+02  0.22338343121E+02  0.00000000000E+00 0. -1.
</event>
<event>
 7    1  0.4621547E-010  0.4778727E+02  0.7816164E-02  0.1312668E+00
        -11   -1    0    0    0    0  0.00000000000E+00  0.00000000000E+00  0.45593999997E+02  0.45594000000E+02  0.51100000000E-03 0.  1.
         11   -1    0    0    0    0 -0.00000000000E+00 -0.00000000000E+00 -0.45593999997E+02  0.45594000000E+02  0.51100000000E-03 0. -1.
    9900012    2    1    2    0    0 -0.12194800443E+02  0.48574311620E+01 -0.41368048225E+02  0.47787271789E+02  0.20000003394E+02 0.  0.
        -12    1    1    2    0    0  0.12194800443E+02 -0.48574311620E+01  0.41368048225E+02  0.43400728211E+02  0.00000000000E+00 0.  1.
         11    1    3    3    0    0 -0.40955938922E+01  0.21733944343E+01 -0.19434289195E+02  0.19979717953E+02  0.51100000000E-03 0. -1.
        -11    1    3    3    0    0 -0.11631597233E+02 -0.12560667477E+01 -0.13646928557E+02  0.17975272381E+02  0.51100000000E-03 0.  1.
         12    1    3    3    0    0  0.35323906821E+01  0.39401034754E+01 -0.82868304723E+01  0.98322814546E+01  0.00000000000E+00 0. -1.
</event>
<event>
 7    1  0.4621547E-010  0.4778727E+02  0.7816164E-02  0.1312668E+00
        -11   -1    0    0    0    0  0.00000000000E+00  0.00000000000E+00  0.45593999997E+02  0.45594000000E+02  0.51100000000E-03 0. -1.
         11   -1    0    0    0    0 -0.00000000000E+00 -0.00000000000E+00 -0.45593999997E+02  0.45594000000E+02  0.51100000000E-03 0.  1.
    9900012    2    1    2    0    0 -0.20720636959E+02 -0.28924744235E+02  0.24852313929E+02  0.47787272672E+02  0.20000007419E+02 0.  0.
        -12    1    1    2    0    0  0.20720636959E+02  0.28924744235E+02 -0.24852313929E+02  0.43400727328E+02  0.00000000000E+00 0.  1.
         11    1    3    3    0    0 -0.88446317750E+01 -0.39550499453E+01  0.12413368202E+02  0.15746797823E+02  0.51100000000E-03 0. -1.
        -11    1    3    3    0    0 -0.12625690448E+02 -0.16089949071E+02  0.10187809180E+02  0.22849200786E+02  0.51100000000E-03 0.  1.
        -12    1    3    3    0    0  0.74968526464E+00 -0.88797452183E+01  0.22511365470E+01  0.91912740624E+01  0.00000000000E+00 0.  1.
</event>
<event>
 7    1  0.4621547E-010  0.4778727E+02  0.7816164E-02  0.1312668E+00
        -11   -1    0    0    0    0  0.00000000000E+00  0.00000000000E+00  0.45593999997E+02  0.45594000000E+02  0.51100000000E-03 0.  1.
         11   -1    0    0    0    0 -0.00000000000E+00 -0.00000000000E+00 -0.45593999997E+02  0.45594000000E+02  0.51100000000E-03 0. -1.
    9900012    2    1    2    0    0 -0.32354659933E+01 -0.58189031146E+01 -0.42887007186E+02  0.47787271216E+02  0.20000000781E+02 0.  0.
        -12    1    1    2    0    0  0.32354659933E+01  0.58189031146E+01  0.42887007186E+02  0.43400728784E+02  0.00000000000E+00 0.  1.
         11    1    3    3    0    0 -0.54006835730E+01 -0.28488229841E+01 -0.21205536865E+02  0.22067124177E+02  0.51100000000E-03 0. -1.
        -11    1    3    3    0    0  0.20063480777E+01 -0.82732163039E+01 -0.13982129551E+02  0.16369834686E+02  0.51100000000E-03 0.  1.
        -12    1    3    3    0    0  0.15886950197E+00  0.53031361734E+01 -0.76993407698E+01  0.93503123521E+01  0.00000000000E+00 0.  1.
</event>
<event>
 7    1  0.4621547E-010  0.4778727E+02  0.7816164E-02  0.1312668E+00
        -11   -1    0    0    0    0  0.00000000000E+00  0.00000000000E+00  0.45593999997E+02  0.45594000000E+02  0.51100000000E-03 0. -1.
         11   -1    0    0    0    0 -0.00000000000E+00 -0.00000000000E+00 -0.45593999997E+02  0.45594000000E+02  0.51100000000E-03 0.  1.
    9900012    2    1    2    0    0 -0.24085267021E+02 -0.31704258540E+02 -0.17273187775E+02  0.47787272898E+02  0.20000008452E+02 0.  0.
        -12    1    1    2    0    0  0.24085267021E+02  0.31704258540E+02  0.17273187775E+02  0.43400727102E+02  0.00000000000E+00 0.  1.
         11    1    3    3    0    0 -0.26132668631E+01 -0.18473640386E+01  0.11688798030E+01  0.34070805455E+01  0.51100000000E-03 0. -1.
        -11    1    3    3    0    0 -0.52192765161E+00  0.18578724305E+01 -0.25111504780E+01  0.31670136447E+01  0.51100000000E-03 0.  1.
         12    1    3    3    0    0 -0.20950072506E+02 -0.31714766932E+02 -0.15930917100E+02  0.41213178708E+02  0.00000000000E+00 0. -1.
</event>
<event>
 7    1  0.4621547E-010  0.4778727E+02  0.7816164E-02  0.1312668E+00
        -11   -1    0    0    0    0  0.00000000000E+00  0.00000000000E+00  0.45593999997E+02  0.45594000000E+02  0.51100000000E-03 0. -1.
         11   -1    0    0    0    0 -0.00000000000E+00 -0.00000000000E+00 -0.45593999997E+02  0.45594000000E+02  0.51100000000E-03 0.  1.
    9900012    2    1    2    0    0  0.30699414168E+02  0.20152324476E+02  0.23131213528E+02  0.47787271304E+02  0.20000001182E+02 0.  0.
        -12    1    1    2    0    0 -0.30699414168E+02 -0.20152324476E+02 -0.23131213528E+02  0.43400728696E+02  0.00000000000E+00 0.  1.
         11    1    3    3    0    0  0.27310853965E+02  0.17742491849E+02  0.23061293144E+02  0.39906164976E+02  0.51100000000E-03 0. -1.
        -11    1    3    3    0    0  0.14744565802E+01  0.40458697174E+01  0.19613786460E+01  0.47318168214E+01  0.51100000000E-03 0.  1.
        -12    1    3    3    0    0  0.19141036228E+01 -0.16360370908E+01 -0.18914582614E+01  0.31492895066E+01  0.00000000000E+00 0.  1.
</event>
<event>
 7    1  0.4621547E-010  0.4778727E+02  0.7816164E-02  0.1312668E+00
        -11   -1    0    0    0    0  0.00000000000E+00  0.00000000000E+00  0.45593999997E+02  0.45594000000E+02  0.51100000000E-03 0.  1.
         11   -1    0    0    0    0 -0.00000000000E+00 -0.00000000000E+00 -0.45593999997E+02  0.45594000000E+02  0.51100000000E-03 0. -1.
    9900012    2    1    2    0    0  0.41505097079E+02 -0.12456374817E+02 -0.24060446036E+01  0.47787269502E+02  0.19999992968E+02 0.  0.
        -12    1    1    2    0    0 -0.41505097079E+02  0.12456374817E+02  0.24060446036E+01  0.43400730498E+02  0.00000000000E+00 0.  1.
         11    1    3    3    0    0  0.15651476684E+02 -0.84022634919E+01  0.56207045839E+01  0.18632205303E+02  0.51100000000E-03 0. -1.
        -11    1    3    3    0    0  0.64854062454E+00  0.16329075211E+01  0.68715548835E+00  0.18865775469E+01  0.51100000000E-03 0.  1.
        -12    1    3    3    0    0  0.25205079770E+02 -0.56870188467E+01 -0.87139046759E+01  0.27268486652E+02  0.00000000000E+00 0.  1.
</event>
<event>
 7    1  0.4621547E-010  0.4778727E+02  0.7816164E-02  0.1312668E+00
        -11   -1    0    0    0    0  0.00000000000E+00  0.00000000000E+00  0.45593999997E+02  0.45594000000E+02  0.51100000000E-03 0.  1.
         11   -1    0    0    0    0 -0.00000000000E+00 -0.00000000000E+00 -0.45593999997E+02  0.45594000000E+02  0.51100000000E-03 0. -1.
    9900012    2    1    2    0    0  0.23750981545E+02  0.79422425381E+01 -0.35446227151E+02  0.47787270051E+02  0.19999995469E+02 0.  0.
        -12    1    1    2    0    0 -0.23750981545E+02 -0.79422425381E+01  0.35446227151E+02  0.43400729949E+02  0.00000000000E+00 0.  1.
         11    1    3    3    0    0  0.17513341345E+02  0.24895233206E+01 -0.29331822958E+02  0.34253039131E+02  0.51100000000E-03 0. -1.
        -11    1    3    3    0    0  0.74599416312E+01  0.24532986622E+01 -0.66012402941E+01  0.10258936453E+02  0.51100000000E-03 0.  1.
        -12    1    3    3    0    0 -0.12223014304E+01  0.29994205553E+01  0.48683610100E+00  0.32752944667E+01  0.00000000000E+00 0.  1.
</event>
<event>
 7    1  0.4621547E-010  0.4778727E+02  0.7816164E-02  0.1312668E+00
        -11   -1    0    0    0    0  0.00000000000E+00  0.00000000000E+00  0.45593999997E+02  0.45594000000E+02  0.51100000000E-03 0.  1.
         11   -1    0    0    0    0 -0.00000000000E+00 -0.00000000000E+00 -0.45593999997E+02  0.45594000000E+02  0.51100000000E-03 0. -1.
    9900012    2    1    2    0    0  0.34192932180E+01 -0.14750646859E+02 -0.40673706509E+02  0.47787267863E+02  0.19999985493E+02 0.  0.
        -12    1    1    2    0    0 -0.34192932180E+01  0.14750646859E+02  0.40673706509E+02  0.43400732137E+02  0.00000000000E+00 0.  1.
         11    1    3    3    0    0 -0.17885199157E+01 -0.26362248965E+01 -0.20132162630E+02  0.20382650898E+02  0.51100000000E-03 0. -1.
        -11    1    3    3    0    0  0.28134087710E+00 -0.97005838706E+01 -0.19554848072E+02  0.21830541988E+02  0.51100000000E-03 0.  1.
        -12    1    3    3    0    0  0.49264722566E+01 -0.24138380917E+01 -0.98669580716E+00  0.55740749766E+01  0.00000000000E+00 0.  1.
</event>
<event>
 7    1  0.4621547E-010  0.4778726E+02  0.7816164E-02  0.1312668E+00
        -11   -1    0    0    0    0  0.00000000000E+00  0.00000000000E+00  0.45593999997E+02  0.45594000000E+02  0.51100000000E-03 0.  1.
         11   -1    0    0    0    0 -0.00000000000E+00 -0.00000000000E+00 -0.45593999997E+02  0.45594000000E+02  0.51100000000E-03 0. -1.
    9900012    2    1    2    0    0 -0.86158891732E+01  0.27262142064E+02 -0.32652201720E+02  0.47787260221E+02  0.19999950652E+02 0.  0.
        -12    1    1    2    0    0  0.86158891732E+01 -0.27262142064E+02  0.32652201720E+02  0.43400739779E+02  0.00000000000E+00 0.  1.
         11    1    3    3    0    0 -0.71138180782E+01  0.21549610340E+02 -0.30261268429E+02  0.37825077404E+02  0.51100000000E-03 0. -1.
        -11    1    3    3    0    0 -0.35331681653E+01  0.58399780541E+01 -0.34718646062E+01  0.76578368396E+01  0.51100000000E-03 0.  1.
         12    1    3    3    0    0  0.20310970703E+01 -0.12744633026E+00  0.10809313145E+01  0.23043459772E+01  0.00000000000E+00 0. -1.
</event>
<event>
 7    1  0.4621547E-010  0.4778727E+02  0.7816164E-02  0.1312668E+00
        -11   -1    0    0    0    0  0.00000000000E+00  0.00000000000E+00  0.45593999997E+02  0.45594000000E+02  0.51100000000E-03 0.  1.
         11   -1    0    0    0    0 -0.00000000000E+00 -0.00000000000E+00 -0.45593999997E+02  0.45594000000E+02  0.51100000000E-03 0. -1.
    9900012    2    1    2    0    0  0.25070047403E+02  0.41109676804E+01 -0.35188291807E+02  0.47787271754E+02  0.20000003233E+02 0.  0.
        -12    1    1    2    0    0 -0.25070047403E+02 -0.41109676804E+01  0.35188291807E+02  0.43400728246E+02  0.00000000000E+00 0.  1.
         11    1    3    3    0    0 -0.15281822561E+01 -0.38718558254E+01 -0.69116857961E+01  0.80683337404E+01  0.51100000000E-03 0.  1.
        -11    1    3    3    0    0  0.63589996264E+01  0.90579759006E+00 -0.57700332099E+01  0.86342706135E+01  0.51100000000E-03 0. -1.
        -12    1    3    3    0    0  0.20239230033E+02  0.70770259157E+01 -0.22506572801E+02  0.31084667400E+02  0.00000000000E+00 0.  1.
</event>
<event>
 7    1  0.4621547E-010  0.4778728E+02  0.7816164E-02  0.1312668E+00
        -11   -1    0    0    0    0  0.00000000000E+00  0.00000000000E+00  0.45593999997E+02  0.45594000000E+02  0.51100000000E-03 0.  1.
         11   -1    0    0    0    0 -0.00000000000E+00 -0.00000000000E+00 -0.45593999997E+02  0.45594000000E+02  0.51100000000E-03 0. -1.
    9900012    2    1    2    0    0  0.27100895140E+02 -0.22176266060E+01 -0.33826702081E+02  0.47787283890E+02  0.20000058569E+02 0.  0.
        -12    1    1    2    0    0 -0.27100895140E+02  0.22176266060E+01  0.33826702081E+02  0.43400716110E+02  0.00000000000E+00 0.  1.
         11    1    3    3    0    0  0.17142771634E+02 -0.55863019909E+01 -0.24919015345E+02  0.30757742363E+02  0.51100000000E-03 0. -1.
        -11    1    3    3    0    0  0.35217301855E+01  0.26126720323E+01 -0.95584574410E+01  0.10516308647E+02  0.51100000000E-03 0.  1.
        -12    1    3    3    0    0  0.64363933204E+01  0.75600335256E+00  0.65077070476E+00  0.65132328803E+01  0.00000000000E+00 0.  1.
</event>
<event>
 7    1  0.4621547E-010  0.4778727E+02  0.7816164E-02  0.1312668E+00
        -11   -1    0    0    0    0  0.00000000000E+00  0.00000000000E+00  0.45593999997E+02  0.45594000000E+02  0.51100000000E-03 0.  1.
         11   -1    0    0    0    0 -0.00000000000E+00 -0.00000000000E+00 -0.45593999997E+02  0.45594000000E+02  0.51100000000E-03 0. -1.
    9900012    2    1    2    0    0  0.35236957295E+02 -0.22675474175E+02 -0.11305001319E+02  0.47787270245E+02  0.19999996354E+02 0.  0.
        -12    1    1    2    0    0 -0.35236957295E+02  0.22675474175E+02  0.11305001319E+02  0.43400729755E+02  0.00000000000E+00 0.  1.
         11    1    3    3    0    0  0.37957703225E+01 -0.85412165962E+01 -0.29533386920E+01  0.98021662389E+01  0.51100000000E-03 0. -1.
        -11    1    3    3    0    0  0.49877348396E+01 -0.73093936240E+01  0.14366381059E+01  0.89648571260E+01  0.51100000000E-03 0.  1.
        -12    1    3    3    0    0  0.26453452133E+02 -0.68248639548E+01 -0.97883007326E+01  0.29020246880E+02  0.00000000000E+00 0.  1.
</event>
<event>
 7    1  0.4621547E-010  0.4778726E+02  0.7816164E-02  0.1312668E+00
        -11   -1    0    0    0    0  0.00000000000E+00  0.00000000000E+00  0.45593999997E+02  0.45594000000E+02  0.51100000000E-03 0.  1.
         11   -1    0    0    0    0 -0.00000000000E+00 -0.00000000000E+00 -0.45593999997E+02  0.45594000000E+02  0.51100000000E-03 0. -1.
    9900012    2    1    2    0    0 -0.26648257472E+02  0.19425139866E+02 -0.28216282375E+02  0.47787259498E+02  0.19999947353E+02 0.  0.
        -12    1    1    2    0    0  0.26648257472E+02 -0.19425139866E+02  0.28216282375E+02  0.43400740502E+02  0.00000000000E+00 0.  1.
         11    1    3    3    0    0 -0.18357360947E+02  0.80501542497E+01 -0.11779655762E+02  0.23249902678E+02  0.51100000000E-03 0. -1.
        -11    1    3    3    0    0 -0.10135664444E+02  0.86525443647E+01 -0.81478705507E+01  0.15620051616E+02  0.51100000000E-03 0.  1.
        -12    1    3    3    0    0  0.18447679197E+01  0.27224412520E+01 -0.82887560617E+01  0.89173052038E+01  0.00000000000E+00 0.  1.
</event>
<event>
 7    1  0.4621547E-010  0.4778728E+02  0.7816164E-02  0.1312668E+00
        -11   -1    0    0    0    0  0.00000000000E+00  0.00000000000E+00  0.45593999997E+02  0.45594000000E+02  0.51100000000E-03 0.  1.
         11   -1    0    0    0    0 -0.00000000000E+00 -0.00000000000E+00 -0.45593999997E+02  0.45594000000E+02  0.51100000000E-03 0. -1.
    9900012    2    1    2    0    0 -0.36566120041E+02 -0.10368790451E+02 -0.20953033793E+02  0.47787279091E+02  0.20000036687E+02 0.  0.
        -12    1    1    2    0    0  0.36566120041E+02  0.10368790451E+02  0.20953033793E+02  0.43400720909E+02  0.00000000000E+00 0.  1.
         11    1    3    3    0    0 -0.73197362629E+01 -0.80611588530E+01  0.27208385222E+00  0.10891962674E+02  0.51100000000E-03 0. -1.
        -11    1    3    3    0    0 -0.57412067209E+01  0.11784060768E+01 -0.15966064636E+01  0.60744751177E+01  0.51100000000E-03 0.  1.
         12    1    3    3    0    0 -0.23505177057E+02 -0.34860376749E+01 -0.19628511182E+02  0.30820841299E+02  0.00000000000E+00 0. -1.
</event>
<event>
 7    1  0.4621547E-010  0.4778727E+02  0.7816164E-02  0.1312668E+00
        -11   -1    0    0    0    0  0.00000000000E+00  0.00000000000E+00  0.45593999997E+02  0.45594000000E+02  0.51100000000E-03 0. -1.
         11   -1    0    0    0    0 -0.00000000000E+00 -0.00000000000E+00 -0.45593999997E+02  0.45594000000E+02  0.51100000000E-03 0.  1.
    9900012    2    1    2    0    0  0.15110024841E+02  0.19524740890E+02  0.35694465515E+02  0.47787271596E+02  0.20000002517E+02 0.  0.
        -12    1    1    2    0    0 -0.15110024841E+02 -0.19524740890E+02 -0.35694465515E+02  0.43400728404E+02  0.00000000000E+00 0.  1.
         11    1    3    3    0    0  0.58521487211E+01  0.84124603373E+01  0.23779732130E+02  0.25893875608E+02  0.51100000000E-03 0. -1.
        -11    1    3    3    0    0  0.26215589301E+01  0.11114915444E+02  0.94197537084E+01  0.14803569729E+02  0.51100000000E-03 0.  1.
         12    1    3    3    0    0  0.66363171900E+01 -0.26348907216E-02  0.24949796768E+01  0.70898262586E+01  0.00000000000E+00 0. -1.
</event>
<event>
 7    1  0.4621547E-010  0.4778728E+02  0.7816164E-02  0.1312668E+00
        -11   -1    0    0    0    0  0.00000000000E+00  0.00000000000E+00  0.45593999997E+02  0.45594000000E+02  0.51100000000E-03 0. -1.
         11   -1    0    0    0    0 -0.00000000000E+00 -0.00000000000E+00 -0.45593999997E+02  0.45594000000E+02  0.51100000000E-03 0.  1.
    9900012    2    1    2    0    0  0.37870235319E+02 -0.14938828387E+02  0.15043255164E+02  0.47787276013E+02  0.20000022652E+02 0.  0.
        -12    1    1    2    0    0 -0.37870235319E+02  0.14938828387E+02 -0.15043255164E+02  0.43400723987E+02  0.00000000000E+00 0.  1.
         11    1    3    3    0    0 -0.80125980997E+00 -0.14785135841E+01  0.21571156458E+01  0.27351723660E+01  0.51100000000E-03 0. -1.
        -11    1    3    3    0    0 -0.10411510603E+01  0.29455427508E+00  0.71872573437E+00  0.12989706285E+01  0.51100000000E-03 0.  1.
         12    1    3    3    0    0  0.39712646189E+02 -0.13754869078E+02  0.12167413784E+02  0.43753133018E+02  0.00000000000E+00 0. -1.
</event>
<event>
 7    1  0.4621547E-010  0.4778726E+02  0.7816164E-02  0.1312668E+00
        -11   -1    0    0    0    0  0.00000000000E+00  0.00000000000E+00  0.45593999997E+02  0.45594000000E+02  0.51100000000E-03 0.  1.
         11   -1    0    0    0    0 -0.00000000000E+00 -0.00000000000E+00 -0.45593999997E+02  0.45594000000E+02  0.51100000000E-03 0. -1.
    9900012    2    1    2    0    0  0.21556234613E+02 -0.32153923303E+02 -0.19623406054E+02  0.47787261531E+02  0.19999956625E+02 0.  0.
        -12    1    1    2    0    0 -0.21556234613E+02  0.32153923303E+02  0.19623406054E+02  0.43400738469E+02  0.00000000000E+00 0.  1.
         11    1    3    3    0    0  0.11896026998E+02 -0.95321016643E+01 -0.69226913635E-01  0.15244055008E+02  0.51100000000E-03 0. -1.
        -11    1    3    3    0    0  0.43523489349E+00 -0.30237434268E+00 -0.35078243690E+01  0.35476318468E+01  0.51100000000E-03 0.  1.
         12    1    3    3    0    0  0.92249727219E+01 -0.22319447296E+02 -0.16046354772E+02  0.28995574676E+02  0.00000000000E+00 0. -1.
</event>
<event>
 7    1  0.4621547E-010  0.4778727E+02  0.7816164E-02  0.1312668E+00
        -11   -1    0    0    0    0  0.00000000000E+00  0.00000000000E+00  0.45593999997E+02  0.45594000000E+02  0.51100000000E-03 0. -1.
         11   -1    0    0    0    0 -0.00000000000E+00 -0.00000000000E+00 -0.45593999997E+02  0.45594000000E+02  0.51100000000E-03 0.  1.
    9900012    2    1    2    0    0  0.35432869059E+02 -0.15071515994E+01  0.25017267275E+02  0.47787269850E+02  0.19999994553E+02 0.  0.
        -12    1    1    2    0    0 -0.35432869059E+02  0.15071515994E+01 -0.25017267275E+02  0.43400730150E+02  0.00000000000E+00 0.  1.
         11    1    3    3    0    0 -0.67524777860E+00  0.22702582242E+01  0.16305902395E+01  0.28755619898E+01  0.51100000000E-03 0. -1.
        -11    1    3    3    0    0  0.14435983155E+01  0.27103246144E+01  0.16789858208E+01  0.34998327474E+01  0.51100000000E-03 0.  1.
         12    1    3    3    0    0  0.34664518522E+02 -0.64877344380E+01  0.21707691214E+02  0.41411875113E+02  0.00000000000E+00 0. -1.
</event>
<event>
 7    1  0.4621547E-010  0.4778727E+02  0.7816164E-02  0.1312668E+00
        -11   -1    0    0    0    0  0.00000000000E+00  0.00000000000E+00  0.45593999997E+02  0.45594000000E+02  0.51100000000E-03 0.  1.
         11   -1    0    0    0    0 -0.00000000000E+00 -0.00000000000E+00 -0.45593999997E+02  0.45594000000E+02  0.51100000000E-03 0. -1.
    9900012    2    1    2    0    0  0.44032770096E+01 -0.93219019797E+01 -0.42158465671E+02  0.47787274976E+02  0.20000017924E+02 0.  0.
        -12    1    1    2    0    0 -0.44032770096E+01  0.93219019797E+01  0.42158465671E+02  0.43400725024E+02  0.00000000000E+00 0.  1.
         11    1    3    3    0    0 -0.46740396447E+00 -0.57705114972E+00 -0.17870628399E+02  0.17886050825E+02  0.51100000000E-03 0. -1.
        -11    1    3    3    0    0 -0.18054932931E+01  0.28156441071E+01 -0.90196184669E+01  0.96198323956E+01  0.51100000000E-03 0.  1.
        -12    1    3    3    0    0  0.66761742672E+01 -0.11560494937E+02 -0.15268218805E+02  0.20281391755E+02  0.00000000000E+00 0.  1.
</event>
<event>
 7    1  0.4621547E-010  0.4778727E+02  0.7816164E-02  0.1312668E+00
        -11   -1    0    0    0    0  0.00000000000E+00  0.00000000000E+00  0.45593999997E+02  0.45594000000E+02  0.51100000000E-03 0. -1.
         11   -1    0    0    0    0 -0.00000000000E+00 -0.00000000000E+00 -0.45593999997E+02  0.45594000000E+02  0.51100000000E-03 0.  1.
    9900012    2    1    2    0    0 -0.41431824845E+02 -0.11116625092E+01  0.12876004709E+02  0.47787269582E+02  0.19999993334E+02 0.  0.
        -12    1    1    2    0    0  0.41431824845E+02  0.11116625092E+01 -0.12876004709E+02  0.43400730418E+02  0.00000000000E+00 0.  1.
         11    1    3    3    0    0 -0.24917461343E+02 -0.24753663475E+01  0.39114707763E+01  0.25343774822E+02  0.51100000000E-03 0. -1.
        -11    1    3    3    0    0 -0.17952230477E+02  0.87636222521E-01  0.96755351968E+01  0.20393779464E+02  0.51100000000E-03 0.  1.
        -12    1    3    3    0    0  0.14378669756E+01  0.12760676158E+01 -0.71100126373E+00  0.20497152965E+01  0.00000000000E+00 0.  1.
</event>
<event>
 7    1  0.4621547E-010  0.4778727E+02  0.7816164E-02  0.1312668E+00
        -11   -1    0    0    0    0  0.00000000000E+00  0.00000000000E+00  0.45593999997E+02  0.45594000000E+02  0.51100000000E-03 0.  1.
         11   -1    0    0    0    0 -0.00000000000E+00 -0.00000000000E+00 -0.45593999997E+02  0.45594000000E+02  0.51100000000E-03 0. -1.
    9900012    2    1    2    0    0 -0.26481147737E+02  0.81022106920E+01 -0.33417455031E+02  0.47787270694E+02  0.19999998400E+02 0.  0.
        -12    1    1    2    0    0  0.26481147737E+02 -0.81022106920E+01  0.33417455031E+02  0.43400729306E+02  0.00000000000E+00 0.  1.
         11    1    3    3    0    0 -0.11138353074E+02  0.68429391464E+01 -0.15556044566E+02  0.20319430311E+02  0.51100000000E-03 0. -1.
        -11    1    3    3    0    0 -0.45841961081E+00  0.41613105381E+01 -0.20280028201E+00  0.41913938194E+01  0.51100000000E-03 0.  1.
        -12    1    3    3    0    0 -0.14884375051E+02 -0.29020389925E+01 -0.17658610184E+02  0.23276446563E+02  0.00000000000E+00 0.  1.
</event>
<event>
 7    1  0.4621547E-010  0.4778727E+02  0.7816164E-02  0.1312668E+00
        -11   -1    0    0    0    0  0.00000000000E+00  0.00000000000E+00  0.45593999997E+02  0.45594000000E+02  0.51100000000E-03 0.  1.
         11   -1    0    0    0    0 -0.00000000000E+00 -0.00000000000E+00 -0.45593999997E+02  0.45594000000E+02  0.51100000000E-03 0. -1.
    9900012    2    1    2    0    0 -0.31174847141E+02 -0.11823858831E+02 -0.27783961389E+02  0.47787271407E+02  0.20000001654E+02 0.  0.
        -12    1    1    2    0    0  0.31174847141E+02  0.11823858831E+02  0.27783961389E+02  0.43400728593E+02  0.00000000000E+00 0.  1.
         11    1    3    3    0    0 -0.41266760728E+01 -0.19788150262E+01  0.10269936864E+01  0.46904030329E+01  0.51100000000E-03 0. -1.
        -11    1    3    3    0    0 -0.74294851549E+01 -0.94343939243E+01 -0.76524040703E+01  0.14239533936E+02  0.51100000000E-03 0.  1.
         12    1    3    3    0    0 -0.19618685913E+02 -0.41064988086E+00 -0.21158551005E+02  0.28857334439E+02  0.00000000000E+00 0. -1.
</event>
<event>
 7    1  0.4621547E-010  0.4778727E+02  0.7816164E-02  0.1312668E+00
        -11   -1    0    0    0    0  0.00000000000E+00  0.00000000000E+00  0.45593999997E+02  0.45594000000E+02  0.51100000000E-03 0.  1.
         11   -1    0    0    0    0 -0.00000000000E+00 -0.00000000000E+00 -0.45593999997E+02  0.45594000000E+02  0.51100000000E-03 0. -1.
    9900012    2    1    2    0    0 -0.81582026761E+01  0.40253368508E+02 -0.14026155583E+02  0.47787274343E+02  0.20000015039E+02 0.  0.
        -12    1    1    2    0    0  0.81582026761E+01 -0.40253368508E+02  0.14026155583E+02  0.43400725657E+02  0.00000000000E+00 0.  1.
         11    1    3    3    0    0 -0.21416737356E+01  0.52716282470E+01  0.30780902993E+01  0.64692712817E+01  0.51100000000E-03 0. -1.
        -11    1    3    3    0    0 -0.28908470054E+01  0.21446848412E+02 -0.35879438317E+01  0.21936217642E+02  0.51100000000E-03 0.  1.
         12    1    3    3    0    0 -0.31256819351E+01  0.13534891848E+02 -0.13516302051E+02  0.19381785419E+02  0.00000000000E+00 0. -1.
</event>
<event>
 7    1  0.4621547E-010  0.4778730E+02  0.7816164E-02  0.1312668E+00
        -11   -1    0    0    0    0  0.00000000000E+00  0.00000000000E+00  0.45593999997E+02  0.45594000000E+02  0.51100000000E-03 0. -1.
         11   -1    0    0    0    0 -0.00000000000E+00 -0.00000000000E+00 -0.45593999997E+02  0.45594000000E+02  0.51100000000E-03 0.  1.
    9900012    2    1    2    0    0 -0.58599674321E+00  0.41841013072E+02 -0.11515504117E+02  0.47787301825E+02  0.20000140338E+02 0.  0.
        -12    1    1    2    0    0  0.58599674321E+00 -0.41841013072E+02  0.11515504117E+02  0.43400698175E+02  0.00000000000E+00 0.  1.
         11    1    3    3    0    0  0.88724674826E+01  0.12293951472E+02 -0.23497894071E+01  0.15342210810E+02  0.51100000000E-03 0.  1.
        -11    1    3    3    0    0 -0.18337105852E+01  0.92405243425E+01 -0.23632585774E+01  0.97126091242E+01  0.51100000000E-03 0. -1.
        -12    1    3    3    0    0 -0.76247536405E+01  0.20306537257E+02 -0.68024561323E+01  0.22732481890E+02  0.00000000000E+00 0.  1.
</event>
<event>
 7    1  0.4621547E-010  0.4778727E+02  0.7816164E-02  0.1312668E+00
        -11   -1    0    0    0    0  0.00000000000E+00  0.00000000000E+00  0.45593999997E+02  0.45594000000E+02  0.51100000000E-03 0.  1.
         11   -1    0    0    0    0 -0.00000000000E+00 -0.00000000000E+00 -0.45593999997E+02  0.45594000000E+02  0.51100000000E-03 0. -1.
    9900012    2    1    2    0    0  0.74029526725E+01  0.88972925835E+01 -0.41828909804E+02  0.47787271677E+02  0.20000002883E+02 0.  0.
        -12    1    1    2    0    0 -0.74029526725E+01 -0.88972925835E+01  0.41828909804E+02  0.43400728323E+02  0.00000000000E+00 0.  1.
         11    1    3    3    0    0  0.75399975924E+01  0.18983119396E+01 -0.13061784843E+02  0.15200834696E+02  0.51100000000E-03 0. -1.
        -11    1    3    3    0    0  0.32393436929E+01  0.10144590494E+02 -0.21171068262E+02  0.23698527285E+02  0.51100000000E-03 0.  1.
         12    1    3    3    0    0 -0.33763886128E+01 -0.31456098497E+01 -0.75960566988E+01  0.88879096959E+01  0.00000000000E+00 0. -1.
</event>
<event>
 7    1  0.4621547E-010  0.4778727E+02  0.7816164E-02  0.1312668E+00
        -11   -1    0    0    0    0  0.00000000000E+00  0.00000000000E+00  0.45593999997E+02  0.45594000000E+02  0.51100000000E-03 0. -1.
         11   -1    0    0    0    0 -0.00000000000E+00 -0.00000000000E+00 -0.45593999997E+02  0.45594000000E+02  0.51100000000E-03 0.  1.
    9900012    2    1    2    0    0 -0.36125226920E+02  0.51143428180E+01  0.23503927262E+02  0.47787272826E+02  0.20000008121E+02 0.  0.
        -12    1    1    2    0    0  0.36125226920E+02 -0.51143428180E+01 -0.23503927262E+02  0.43400727174E+02  0.00000000000E+00 0.  1.
         11    1    3    3    0    0 -0.11969050686E+02  0.89877356905E+01  0.54145320450E+01  0.15917120490E+02  0.51100000000E-03 0. -1.
        -11    1    3    3    0    0  0.23203783100E-01  0.12438219101E+01  0.26493833873E-02  0.12440412533E+01  0.51100000000E-03 0.  1.
        -12    1    3    3    0    0 -0.24179380018E+02 -0.51172147826E+01  0.18086745834E+02  0.30626111082E+02  0.00000000000E+00 0.  1.
</event>
<event>
 7    1  0.4621547E-010  0.4778727E+02  0.7816164E-02  0.1312668E+00
        -11   -1    0    0    0    0  0.00000000000E+00  0.00000000000E+00  0.45593999997E+02  0.45594000000E+02  0.51100000000E-03 0.  1.
         11   -1    0    0    0    0 -0.00000000000E+00 -0.00000000000E+00 -0.45593999997E+02  0.45594000000E+02  0.51100000000E-03 0. -1.
    9900012    2    1    2    0    0  0.75385496437E+01  0.23230437420E+02 -0.35876740957E+02  0.47787268495E+02  0.19999988377E+02 0.  0.
        -12    1    1    2    0    0 -0.75385496437E+01 -0.23230437420E+02  0.35876740957E+02  0.43400731505E+02  0.00000000000E+00 0.  1.
         11    1    3    3    0    0  0.79141465042E+01  0.39471162428E+01 -0.89144652688E+01  0.12557114828E+02  0.51100000000E-03 0. -1.
        -11    1    3    3    0    0  0.28024490741E+01  0.18096842455E+00 -0.13357470730E+01  0.31097734464E+01  0.51100000000E-03 0.  1.
        -12    1    3    3    0    0 -0.31780459346E+01  0.19102352753E+02 -0.25626528615E+02  0.32120380220E+02  0.00000000000E+00 0.  1.
</event>
<event>
 7    1  0.4621547E-010  0.4778727E+02  0.7816164E-02  0.1312668E+00
        -11   -1    0    0    0    0  0.00000000000E+00  0.00000000000E+00  0.45593999997E+02  0.45594000000E+02  0.51100000000E-03 0.  1.
         11   -1    0    0    0    0 -0.00000000000E+00 -0.00000000000E+00 -0.45593999997E+02  0.45594000000E+02  0.51100000000E-03 0. -1.
    9900012    2    1    2    0    0 -0.27376669784E+02 -0.50541182823E+01 -0.33295604894E+02  0.47787268839E+02  0.19999989944E+02 0.  0.
        -12    1    1    2    0    0  0.27376669784E+02  0.50541182823E+01  0.33295604894E+02  0.43400731161E+02  0.00000000000E+00 0.  1.
         11    1    3    3    0    0 -0.23388328792E+02 -0.51614622114E+00 -0.18618410123E+02  0.29898587364E+02  0.51100000000E-03 0. -1.
        -11    1    3    3    0    0 -0.68283638416E+00  0.21180236666E+01 -0.12771132892E+01  0.25657958599E+01  0.51100000000E-03 0.  1.
        -12    1    3    3    0    0 -0.33055046075E+01 -0.66559957278E+01 -0.13400081482E+02  0.15322885615E+02  0.00000000000E+00 0.  1.
</event>
<event>
 7    1  0.4621547E-010  0.4778726E+02  0.7816164E-02  0.1312668E+00
        -11   -1    0    0    0    0  0.00000000000E+00  0.00000000000E+00  0.45593999997E+02  0.45594000000E+02  0.51100000000E-03 0. -1.
         11   -1    0    0    0    0 -0.00000000000E+00 -0.00000000000E+00 -0.45593999997E+02  0.45594000000E+02  0.51100000000E-03 0.  1.
    9900012    2    1    2    0    0  0.40868642742E+02 -0.56099659268E+01  0.13487265432E+02  0.47787262608E+02  0.19999961537E+02 0.  0.
        -12    1    1    2    0    0 -0.40868642742E+02  0.56099659268E+01 -0.13487265432E+02  0.43400737392E+02  0.00000000000E+00 0.  1.
         11    1    3    3    0    0  0.25608598243E+02 -0.42130394628E+01  0.10475268496E+01  0.25973973863E+02  0.51100000000E-03 0. -1.
        -11    1    3    3    0    0  0.62592761647E+01 -0.48910481803E+00 -0.18604943674E+00  0.62811126628E+01  0.51100000000E-03 0.  1.
        -12    1    3    3    0    0  0.90007683352E+01 -0.90782164601E+00  0.12625788019E+02  0.15532176083E+02  0.00000000000E+00 0.  1.
</event>
<event>
 7    1  0.4621547E-010  0.4778727E+02  0.7816164E-02  0.1312668E+00
        -11   -1    0    0    0    0  0.00000000000E+00  0.00000000000E+00  0.45593999997E+02  0.45594000000E+02  0.51100000000E-03 0.  1.
         11   -1    0    0    0    0 -0.00000000000E+00 -0.00000000000E+00 -0.45593999997E+02  0.45594000000E+02  0.51100000000E-03 0. -1.
    9900012    2    1    2    0    0 -0.38318318724E+02  0.17427761592E+02  0.10564239129E+02  0.47787267606E+02  0.19999984322E+02 0.  0.
        -12    1    1    2    0    0  0.38318318724E+02 -0.17427761592E+02 -0.10564239129E+02  0.43400732394E+02  0.00000000000E+00 0.  1.
         11    1    3    3    0    0 -0.33957108555E+02  0.13180393728E+02  0.15718038520E+02  0.39671964098E+02  0.51100000000E-03 0. -1.
        -11    1    3    3    0    0 -0.17968939469E+01  0.16194033236E+01 -0.11358738986E+01  0.26723593986E+01  0.51100000000E-03 0.  1.
         12    1    3    3    0    0 -0.25643162226E+01  0.26279645405E+01 -0.40179254918E+01  0.54429441090E+01  0.00000000000E+00 0. -1.
</event>
<event>
 7    1  0.4621547E-010  0.4778727E+02  0.7816164E-02  0.1312668E+00
        -11   -1    0    0    0    0  0.00000000000E+00  0.00000000000E+00  0.45593999997E+02  0.45594000000E+02  0.51100000000E-03 0. -1.
         11   -1    0    0    0    0 -0.00000000000E+00 -0.00000000000E+00 -0.45593999997E+02  0.45594000000E+02  0.51100000000E-03 0.  1.
    9900012    2    1    2    0    0  0.29883993996E+02 -0.29614730533E+02  0.10655427883E+02  0.47787268381E+02  0.19999987855E+02 0.  0.
        -12    1    1    2    0    0 -0.29883993996E+02  0.29614730533E+02 -0.10655427883E+02  0.43400731619E+02  0.00000000000E+00 0.  1.
         11    1    3    3    0    0  0.12679861857E+02 -0.35232986836E+01  0.26845615056E+01  0.13431284416E+02  0.51100000000E-03 0. -1.
        -11    1    3    3    0    0  0.58231322673E+01 -0.21677164995E+01  0.44222088664E+01  0.76265192417E+01  0.51100000000E-03 0.  1.
         12    1    3    3    0    0  0.11380999872E+02 -0.23923715350E+02  0.35486575108E+01  0.26729464723E+02  0.00000000000E+00 0. -1.
</event>
<event>
 7    1  0.4621547E-010  0.4778727E+02  0.7816164E-02  0.1312668E+00
        -11   -1    0    0    0    0  0.00000000000E+00  0.00000000000E+00  0.45593999997E+02  0.45594000000E+02  0.51100000000E-03 0. -1.
         11   -1    0    0    0    0 -0.00000000000E+00 -0.00000000000E+00 -0.45593999997E+02  0.45594000000E+02  0.51100000000E-03 0.  1.
    9900012    2    1    2    0    0  0.20080406760E+02  0.38307351266E+02 -0.35982275669E+01  0.47787272606E+02  0.20000007121E+02 0.  0.
        -12    1    1    2    0    0 -0.20080406760E+02 -0.38307351266E+02  0.35982275669E+01  0.43400727394E+02  0.00000000000E+00 0.  1.
         11    1    3    3    0    0  0.80222440242E+01  0.58066397404E+01 -0.11431468711E+01  0.99689643037E+01  0.51100000000E-03 0. -1.
        -11    1    3    3    0    0  0.61323946584E+01  0.20046970601E+01 -0.19783108269E+01  0.67482433669E+01  0.51100000000E-03 0.  1.
        -12    1    3    3    0    0  0.59257680773E+01  0.30496014466E+02 -0.47676986895E+00  0.31070064936E+02  0.00000000000E+00 0.  1.
</event>
<event>
 7    1  0.4621547E-010  0.4778727E+02  0.7816164E-02  0.1312668E+00
        -11   -1    0    0    0    0  0.00000000000E+00  0.00000000000E+00  0.45593999997E+02  0.45594000000E+02  0.51100000000E-03 0.  1.
         11   -1    0    0    0    0 -0.00000000000E+00 -0.00000000000E+00 -0.45593999997E+02  0.45594000000E+02  0.51100000000E-03 0. -1.
    9900012    2    1    2    0    0  0.27175046378E+02 -0.33693255656E+02 -0.31471811802E+01  0.47787269917E+02  0.19999994861E+02 0.  0.
        -12    1    1    2    0    0 -0.27175046378E+02  0.33693255656E+02  0.31471811802E+01  0.43400730083E+02  0.00000000000E+00 0.  1.
         11    1    3    3    0    0  0.87079818007E+01 -0.10370054768E+02 -0.17413194744E+00  0.13542426117E+02  0.51100000000E-03 0. -1.
        -11    1    3    3    0    0  0.14669233791E+01 -0.11726436588E+02  0.40624037002E+01  0.12496571663E+02  0.51100000000E-03 0.  1.
         12    1    3    3    0    0  0.17000141198E+02 -0.11596764300E+02 -0.70354529330E+01  0.21748272138E+02  0.00000000000E+00 0. -1.
</event>
<event>
 7    1  0.4621547E-010  0.4778727E+02  0.7816164E-02  0.1312668E+00
        -11   -1    0    0    0    0  0.00000000000E+00  0.00000000000E+00  0.45593999997E+02  0.45594000000E+02  0.51100000000E-03 0. -1.
         11   -1    0    0    0    0 -0.00000000000E+00 -0.00000000000E+00 -0.45593999997E+02  0.45594000000E+02  0.51100000000E-03 0.  1.
    9900012    2    1    2    0    0  0.17498597175E+02  0.15437489293E+02  0.36593802990E+02  0.47787269637E+02  0.19999993582E+02 0.  0.
        -12    1    1    2    0    0 -0.17498597175E+02 -0.15437489293E+02 -0.36593802990E+02  0.43400730363E+02  0.00000000000E+00 0.  1.
         11    1    3    3    0    0  0.15044264799E+02  0.14727925931E+02  0.22868963546E+02  0.31084259674E+02  0.51100000000E-03 0. -1.
        -11    1    3    3    0    0  0.56799044567E+01  0.11570032738E+01  0.61153357912E+01  0.84259897527E+01  0.51100000000E-03 0.  1.
        -12    1    3    3    0    0 -0.32255720799E+01 -0.44743991163E+00  0.76095036525E+01  0.82770202099E+01  0.00000000000E+00 0.  1.
</event>
<event>
 7    1  0.4621547E-010  0.4778725E+02  0.7816164E-02  0.1312668E+00
        -11   -1    0    0    0    0  0.00000000000E+00  0.00000000000E+00  0.45593999997E+02  0.45594000000E+02  0.51100000000E-03 0.  1.
         11   -1    0    0    0    0 -0.00000000000E+00 -0.00000000000E+00 -0.45593999997E+02  0.45594000000E+02  0.51100000000E-03 0. -1.
    9900012    2    1    2    0    0 -0.27478420853E+02  0.56866468335E+01 -0.33109263149E+02  0.47787252644E+02  0.19999916105E+02 0.  0.
        -12    1    1    2    0    0  0.27478420853E+02 -0.56866468335E+01  0.33109263149E+02  0.43400747356E+02  0.00000000000E+00 0.  1.
         11    1    3    3    0    0 -0.18190831590E+02 -0.18359597354E+01 -0.25091183815E+02  0.31045846865E+02  0.51100000000E-03 0. -1.
        -11    1    3    3    0    0 -0.19719680224E+01 -0.16473929310E+01 -0.67658579657E-01  0.25704356236E+01  0.51100000000E-03 0.  1.
        -12    1    3    3    0    0 -0.73156212411E+01  0.91699994999E+01 -0.79504207547E+01  0.14170970156E+02  0.00000000000E+00 0.  1.
</event>
<event>
 7    1  0.4621547E-010  0.4778727E+02  0.7816164E-02  0.1312668E+00
        -11   -1    0    0    0    0  0.00000000000E+00  0.00000000000E+00  0.45593999997E+02  0.45594000000E+02  0.51100000000E-03 0. -1.
         11   -1    0    0    0    0 -0.00000000000E+00 -0.00000000000E+00 -0.45593999997E+02  0.45594000000E+02  0.51100000000E-03 0.  1.
    9900012    2    1    2    0    0 -0.34444777639E+02 -0.12620433993E+02 -0.23192778821E+02  0.47787273621E+02  0.20000011749E+02 0.  0.
        -12    1    1    2    0    0  0.34444777639E+02  0.12620433993E+02  0.23192778821E+02  0.43400726379E+02  0.00000000000E+00 0.  1.
         11    1    3    3    0    0 -0.50420087775E+01 -0.40402208794E+00  0.14162171153E+01  0.52526905048E+01  0.51100000000E-03 0. -1.
        -11    1    3    3    0    0 -0.15781888471E+01 -0.38105137645E+01  0.46097480227E+00  0.41500835191E+01  0.51100000000E-03 0.  1.
         12    1    3    3    0    0 -0.27824580014E+02 -0.84058981411E+01 -0.25069970738E+02  0.38384499597E+02  0.00000000000E+00 0. -1.
</event>
<event>
 7    1  0.4621547E-010  0.4778727E+02  0.7816164E-02  0.1312668E+00
        -11   -1    0    0    0    0  0.00000000000E+00  0.00000000000E+00  0.45593999997E+02  0.45594000000E+02  0.51100000000E-03 0.  1.
         11   -1    0    0    0    0 -0.00000000000E+00 -0.00000000000E+00 -0.45593999997E+02  0.45594000000E+02  0.51100000000E-03 0. -1.
    9900012    2    1    2    0    0  0.37360089418E+02 -0.19513965851E+02 -0.10346607697E+02  0.47787269184E+02  0.19999991516E+02 0.  0.
        -12    1    1    2    0    0 -0.37360089418E+02  0.19513965851E+02  0.10346607697E+02  0.43400730816E+02  0.00000000000E+00 0.  1.
         11    1    3    3    0    0  0.22787794027E+02 -0.90211253502E+01 -0.11679964995E+02  0.27149324886E+02  0.51100000000E-03 0. -1.
        -11    1    3    3    0    0  0.11170404781E+02 -0.24001240306E+01 -0.12334152982E+01  0.11491729717E+02  0.51100000000E-03 0.  1.
        -12    1    3    3    0    0  0.34018906092E+01 -0.80927164706E+01  0.25667725958E+01  0.91462145803E+01  0.00000000000E+00 0.  1.
</event>
<event>
 7    1  0.4621547E-010  0.4778729E+02  0.7816164E-02  0.1312668E+00
        -11   -1    0    0    0    0  0.00000000000E+00  0.00000000000E+00  0.45593999997E+02  0.45594000000E+02  0.51100000000E-03 0.  1.
         11   -1    0    0    0    0 -0.00000000000E+00 -0.00000000000E+00 -0.45593999997E+02  0.45594000000E+02  0.51100000000E-03 0. -1.
    9900012    2    1    2    0    0  0.10433589469E+00 -0.42776331318E+02  0.73346041155E+01  0.47787287741E+02  0.20000076127E+02 0.  0.
        -12    1    1    2    0    0 -0.10433589469E+00  0.42776331318E+02 -0.73346041155E+01  0.43400712259E+02  0.00000000000E+00 0.  1.
         11    1    3    3    0    0 -0.25013103938E+01 -0.49152842892E+01 -0.10233590050E+01  0.56092635206E+01  0.51100000000E-03 0. -1.
        -11    1    3    3    0    0 -0.28158721463E+01 -0.26309998073E+02  0.11784568452E+02  0.28965862466E+02  0.51100000000E-03 0.  1.
         12    1    3    3    0    0  0.54215184349E+01 -0.11551048956E+02 -0.34266053312E+01  0.13212161754E+02  0.00000000000E+00 0. -1.
</event>
<event>
 7    1  0.4621547E-010  0.4778727E+02  0.7816164E-02  0.1312668E+00
        -11   -1    0    0    0    0  0.00000000000E+00  0.00000000000E+00  0.45593999997E+02  0.45594000000E+02  0.51100000000E-03 0.  1.
         11   -1    0    0    0    0 -0.00000000000E+00 -0.00000000000E+00 -0.45593999997E+02  0.45594000000E+02  0.51100000000E-03 0. -1.
    9900012    2    1    2    0    0 -0.13608114900E+02 -0.14508808102E+02 -0.38573787183E+02  0.47787270037E+02  0.19999995408E+02 0.  0.
        -12    1    1    2    0    0  0.13608114900E+02  0.14508808102E+02  0.38573787183E+02  0.43400729963E+02  0.00000000000E+00 0.  1.
         11    1    3    3    0    0 -0.97571444531E+00 -0.17827472246E+01 -0.16816486063E+00  0.20392366285E+01  0.51100000000E-03 0. -1.
        -11    1    3    3    0    0 -0.10013028203E+02  0.16011328152E+01 -0.13316322065E+02  0.16737646002E+02  0.51100000000E-03 0.  1.
         12    1    3    3    0    0 -0.26193722513E+01 -0.14327193693E+02 -0.25089300257E+02  0.29010387407E+02  0.00000000000E+00 0. -1.
</event>
<event>
 7    1  0.4621547E-010  0.4778727E+02  0.7816164E-02  0.1312668E+00
        -11   -1    0    0    0    0  0.00000000000E+00  0.00000000000E+00  0.45593999997E+02  0.45594000000E+02  0.51100000000E-03 0. -1.
         11   -1    0    0    0    0 -0.00000000000E+00 -0.00000000000E+00 -0.45593999997E+02  0.45594000000E+02  0.51100000000E-03 0.  1.
    9900012    2    1    2    0    0  0.20412953371E+02 -0.38298436801E+02 -0.40568927690E+00  0.47787268318E+02  0.19999987569E+02 0.  0.
        -12    1    1    2    0    0 -0.20412953371E+02  0.38298436801E+02  0.40568927690E+00  0.43400731682E+02  0.00000000000E+00 0.  1.
         11    1    3    3    0    0  0.15084321693E+02 -0.17966167779E+02  0.15588401873E+01  0.23510634372E+02  0.51100000000E-03 0. -1.
        -11    1    3    3    0    0  0.72378016974E+01 -0.18127157501E+02 -0.49147914329E+01  0.20127960343E+02  0.51100000000E-03 0.  1.
         12    1    3    3    0    0 -0.19091700187E+01 -0.22051115214E+01  0.29502619687E+01  0.41486736032E+01  0.00000000000E+00 0. -1.
</event>
<event>
 7    1  0.4621547E-010  0.4778726E+02  0.7816164E-02  0.1312668E+00
        -11   -1    0    0    0    0  0.00000000000E+00  0.00000000000E+00  0.45593999997E+02  0.45594000000E+02  0.51100000000E-03 0. -1.
         11   -1    0    0    0    0 -0.00000000000E+00 -0.00000000000E+00 -0.45593999997E+02  0.45594000000E+02  0.51100000000E-03 0.  1.
    9900012    2    1    2    0    0  0.21247619672E+02  0.13859210438E+02  0.35214838697E+02  0.47787263599E+02  0.19999966052E+02 0.  0.
        -12    1    1    2    0    0 -0.21247619672E+02 -0.13859210438E+02 -0.35214838697E+02  0.43400736401E+02  0.00000000000E+00 0.  1.
         11    1    3    3    0    0  0.13097774665E+02  0.28880249468E+01  0.78305946036E+01  0.15530956228E+02  0.51100000000E-03 0. -1.
        -11    1    3    3    0    0  0.39666257700E+01  0.23091738904E+00  0.21579692217E+01  0.45215345031E+01  0.51100000000E-03 0.  1.
        -12    1    3    3    0    0  0.41832192375E+01  0.10740268102E+02  0.25226274872E+02  0.27734772868E+02  0.00000000000E+00 0.  1.
</event>
<event>
 7    1  0.4621547E-010  0.4778727E+02  0.7816164E-02  0.1312668E+00
        -11   -1    0    0    0    0  0.00000000000E+00  0.00000000000E+00  0.45593999997E+02  0.45594000000E+02  0.51100000000E-03 0. -1.
         11   -1    0    0    0    0 -0.00000000000E+00 -0.00000000000E+00 -0.45593999997E+02  0.45594000000E+02  0.51100000000E-03 0.  1.
    9900012    2    1    2    0    0  0.50284056286E+01 -0.43101254305E+02 -0.78753089314E+00  0.47787272002E+02  0.20000004365E+02 0.  0.
        -12    1    1    2    0    0 -0.50284056286E+01  0.43101254305E+02  0.78753089314E+00  0.43400727998E+02  0.00000000000E+00 0.  1.
         11    1    3    3    0    0  0.20575589516E+01 -0.22668363211E+02 -0.19809392945E+01  0.22847589813E+02  0.51100000000E-03 0. -1.
        -11    1    3    3    0    0  0.50071074812E+01 -0.65287941152E+01 -0.49511443610E+01  0.96026094720E+01  0.51100000000E-03 0.  1.
        -12    1    3    3    0    0 -0.20362608043E+01 -0.13904096979E+02  0.61445527624E+01  0.15337072717E+02  0.00000000000E+00 0.  1.
</event>
<event>
 7    1  0.4621547E-010  0.4778727E+02  0.7816164E-02  0.1312668E+00
        -11   -1    0    0    0    0  0.00000000000E+00  0.00000000000E+00  0.45593999997E+02  0.45594000000E+02  0.51100000000E-03 0.  1.
         11   -1    0    0    0    0 -0.00000000000E+00 -0.00000000000E+00 -0.45593999997E+02  0.45594000000E+02  0.51100000000E-03 0. -1.
    9900012    2    1    2    0    0 -0.34779699605E+02  0.19974754511E+02 -0.16583279805E+02  0.47787268538E+02  0.19999988571E+02 0.  0.
        -12    1    1    2    0    0  0.34779699605E+02 -0.19974754511E+02  0.16583279805E+02  0.43400731462E+02  0.00000000000E+00 0.  1.
         11    1    3    3    0    0 -0.13425348687E+02  0.22714345170E+01 -0.49014660355E+01  0.14471481323E+02  0.51100000000E-03 0. -1.
        -11    1    3    3    0    0 -0.60201313938E+01 -0.17163681101E+01 -0.39066978370E+01  0.73790371824E+01  0.51100000000E-03 0.  1.
         12    1    3    3    0    0 -0.15334219525E+02  0.19419688104E+02 -0.77751159320E+01  0.25936750032E+02  0.00000000000E+00 0. -1.
</event>
<event>
 7    1  0.4621547E-010  0.4778726E+02  0.7816164E-02  0.1312668E+00
        -11   -1    0    0    0    0  0.00000000000E+00  0.00000000000E+00  0.45593999997E+02  0.45594000000E+02  0.51100000000E-03 0.  1.
         11   -1    0    0    0    0 -0.00000000000E+00 -0.00000000000E+00 -0.45593999997E+02  0.45594000000E+02  0.51100000000E-03 0. -1.
    9900012    2    1    2    0    0  0.34990073741E+02 -0.15017715214E+02 -0.20827551087E+02  0.47787263659E+02  0.19999966327E+02 0.  0.
        -12    1    1    2    0    0 -0.34990073741E+02  0.15017715214E+02  0.20827551087E+02  0.43400736341E+02  0.00000000000E+00 0.  1.
         11    1    3    3    0    0  0.20193540508E+02 -0.51641497780E+01 -0.49201618084E+01  0.21416244154E+02  0.51100000000E-03 0. -1.
        -11    1    3    3    0    0  0.52969672121E+01  0.20563476854E+01 -0.31271529633E+01  0.64857931949E+01  0.51100000000E-03 0.  1.
         12    1    3    3    0    0  0.94995660216E+01 -0.11909913122E+02 -0.12780236315E+02  0.19885226311E+02  0.00000000000E+00 0. -1.
</event>
<event>
 7    1  0.4621547E-010  0.4778727E+02  0.7816164E-02  0.1312668E+00
        -11   -1    0    0    0    0  0.00000000000E+00  0.00000000000E+00  0.45593999997E+02  0.45594000000E+02  0.51100000000E-03 0.  1.
         11   -1    0    0    0    0 -0.00000000000E+00 -0.00000000000E+00 -0.45593999997E+02  0.45594000000E+02  0.51100000000E-03 0. -1.
    9900012    2    1    2    0    0 -0.50175906099E+01 -0.22112758914E+02 -0.37006392017E+02  0.47787269909E+02  0.19999994822E+02 0.  0.
        -12    1    1    2    0    0  0.50175906099E+01  0.22112758914E+02  0.37006392017E+02  0.43400730091E+02  0.00000000000E+00 0.  1.
         11    1    3    3    0    0 -0.32313283964E+01 -0.32033676821E+01 -0.90717497258E-02  0.45500692599E+01  0.51100000000E-03 0. -1.
        -11    1    3    3    0    0 -0.48075730674E+01 -0.14473288592E+02 -0.18494021803E+02  0.23971184455E+02  0.51100000000E-03 0.  1.
        -12    1    3    3    0    0  0.30213108539E+01 -0.44361026398E+01 -0.18503298465E+02  0.19266016194E+02  0.00000000000E+00 0.  1.
</event>
<event>
 7    1  0.4621547E-010  0.4778727E+02  0.7816164E-02  0.1312668E+00
        -11   -1    0    0    0    0  0.00000000000E+00  0.00000000000E+00  0.45593999997E+02  0.45594000000E+02  0.51100000000E-03 0. -1.
         11   -1    0    0    0    0 -0.00000000000E+00 -0.00000000000E+00 -0.45593999997E+02  0.45594000000E+02  0.51100000000E-03 0.  1.
    9900012    2    1    2    0    0  0.14664637216E+02  0.26702459078E+02  0.30911974354E+02  0.47787273463E+02  0.20000011027E+02 0.  0.
        -12    1    1    2    0    0 -0.14664637216E+02 -0.26702459078E+02 -0.30911974354E+02  0.43400726537E+02  0.00000000000E+00 0.  1.
         11    1    3    3    0    0  0.17790809245E+01 -0.14051246713E+01  0.16035998534E+01  0.27768754075E+01  0.51100000000E-03 0. -1.
        -11    1    3    3    0    0 -0.11275894966E+01  0.25825811800E+01  0.92037960793E+01  0.96255413435E+01  0.51100000000E-03 0.  1.
        -12    1    3    3    0    0  0.14013145788E+02  0.25525002569E+02  0.20104578422E+02  0.35384856712E+02  0.00000000000E+00 0.  1.
</event>
<event>
 7    1  0.4621547E-010  0.4778727E+02  0.7816164E-02  0.1312668E+00
        -11   -1    0    0    0    0  0.00000000000E+00  0.00000000000E+00  0.45593999997E+02  0.45594000000E+02  0.51100000000E-03 0.  1.
         11   -1    0    0    0    0 -0.00000000000E+00 -0.00000000000E+00 -0.45593999997E+02  0.45594000000E+02  0.51100000000E-03 0. -1.
    9900012    2    1    2    0    0 -0.76013048926E+01 -0.75636336226E+01 -0.42055144674E+02  0.47787267481E+02  0.19999983752E+02 0.  0.
        -12    1    1    2    0    0  0.76013048926E+01  0.75636336226E+01  0.42055144674E+02  0.43400732519E+02  0.00000000000E+00 0.  1.
         11    1    3    3    0    0 -0.81546124665E+00 -0.57381438533E+01 -0.18618865577E+02  0.19500087886E+02  0.51100000000E-03 0. -1.
        -11    1    3    3    0    0 -0.43459486584E+01 -0.57993922042E+01 -0.22354946255E+02  0.23500294509E+02  0.51100000000E-03 0.  1.
        -12    1    3    3    0    0 -0.24398949875E+01  0.39739024349E+01 -0.10813328424E+01  0.47868850862E+01  0.00000000000E+00 0.  1.
</event>
<event>
 7    1  0.4621547E-010  0.4778726E+02  0.7816164E-02  0.1312668E+00
        -11   -1    0    0    0    0  0.00000000000E+00  0.00000000000E+00  0.45593999997E+02  0.45594000000E+02  0.51100000000E-03 0.  1.
         11   -1    0    0    0    0 -0.00000000000E+00 -0.00000000000E+00 -0.45593999997E+02  0.45594000000E+02  0.51100000000E-03 0. -1.
    9900012    2    1    2    0    0  0.21416122480E+02  0.34815631572E+02  0.14589230971E+02  0.47787260788E+02  0.19999953237E+02 0.  0.
        -12    1    1    2    0    0 -0.21416122480E+02 -0.34815631572E+02 -0.14589230971E+02  0.43400739212E+02  0.00000000000E+00 0.  1.
         11    1    3    3    0    0  0.42345584565E+01  0.50427585368E+01  0.49500336577E+01  0.82379446742E+01  0.51100000000E-03 0. -1.
        -11    1    3    3    0    0 -0.41537505549E+00  0.61285609298E+01 -0.37286003584E+01  0.71856980455E+01  0.51100000000E-03 0.  1.
        -12    1    3    3    0    0  0.17596939079E+02  0.23644312105E+02  0.13367797672E+02  0.32363618068E+02  0.00000000000E+00 0.  1.
</event>
<event>
 7    1  0.4621547E-010  0.4778727E+02  0.7816164E-02  0.1312668E+00
        -11   -1    0    0    0    0  0.00000000000E+00  0.00000000000E+00  0.45593999997E+02  0.45594000000E+02  0.51100000000E-03 0.  1.
         11   -1    0    0    0    0 -0.00000000000E+00 -0.00000000000E+00 -0.45593999997E+02  0.45594000000E+02  0.51100000000E-03 0. -1.
    9900012    2    1    2    0    0  0.15993879555E+02  0.30120790548E+02 -0.26843198483E+02  0.47787268310E+02  0.19999987532E+02 0.  0.
        -12    1    1    2    0    0 -0.15993879555E+02 -0.30120790548E+02  0.26843198483E+02  0.43400731690E+02  0.00000000000E+00 0.  1.
         11    1    3    3    0    0  0.22417543166E+01  0.14440709128E+02 -0.14396769150E+02  0.20514056273E+02  0.51100000000E-03 0. -1.
        -11    1    3    3    0    0  0.11452269361E+02  0.11684770591E+02 -0.14831263709E+02  0.22082905623E+02  0.51100000000E-03 0.  1.
        -12    1    3    3    0    0  0.22998558777E+01  0.39953108287E+01  0.23848343760E+01  0.51903064146E+01  0.00000000000E+00 0.  1.
</event>
<event>
 7    1  0.4621547E-010  0.4778727E+02  0.7816164E-02  0.1312668E+00
        -11   -1    0    0    0    0  0.00000000000E+00  0.00000000000E+00  0.45593999997E+02  0.45594000000E+02  0.51100000000E-03 0.  1.
         11   -1    0    0    0    0 -0.00000000000E+00 -0.00000000000E+00 -0.45593999997E+02  0.45594000000E+02  0.51100000000E-03 0. -1.
    9900012    2    1    2    0    0 -0.37162132917E+02 -0.76755733535E+01 -0.21063824337E+02  0.47787271378E+02  0.20000001519E+02 0.  0.
        -12    1    1    2    0    0  0.37162132917E+02  0.76755733535E+01  0.21063824337E+02  0.43400728622E+02  0.00000000000E+00 0.  1.
         11    1    3    3    0    0 -0.15894677065E+02 -0.22456668201E+01 -0.15417223773E+02  0.22257011650E+02  0.51100000000E-03 0. -1.
        -11    1    3    3    0    0 -0.11806962367E+02 -0.49270475437E+00 -0.84131737508E+01  0.14506157697E+02  0.51100000000E-03 0.  1.
        -12    1    3    3    0    0 -0.94604934847E+01 -0.49372017790E+01  0.27665731864E+01  0.11024102030E+02  0.00000000000E+00 0.  1.
</event>
<event>
 7    1  0.4621547E-010  0.4778727E+02  0.7816164E-02  0.1312668E+00
        -11   -1    0    0    0    0  0.00000000000E+00  0.00000000000E+00  0.45593999997E+02  0.45594000000E+02  0.51100000000E-03 0. -1.
         11   -1    0    0    0    0 -0.00000000000E+00 -0.00000000000E+00 -0.45593999997E+02  0.45594000000E+02  0.51100000000E-03 0.  1.
    9900012    2    1    2    0    0 -0.18040839715E+02 -0.37372501376E+02  0.12706211219E+02  0.47787267745E+02  0.19999984958E+02 0.  0.
        -12    1    1    2    0    0  0.18040839715E+02  0.37372501376E+02 -0.12706211219E+02  0.43400732255E+02  0.00000000000E+00 0.  1.
         11    1    3    3    0    0 -0.13444258835E+02 -0.20910278219E+02  0.24972408719E+01  0.24984476041E+02  0.51100000000E-03 0. -1.
        -11    1    3    3    0    0 -0.47913324786E+01 -0.16285788195E+02  0.51541817059E+01  0.17741176776E+02  0.51100000000E-03 0.  1.
        -12    1    3    3    0    0  0.19475159852E+00 -0.17643496141E+00  0.50547886411E+01  0.50616149287E+01  0.00000000000E+00 0.  1.
</event>
<event>
 7    1  0.4621547E-010  0.4778728E+02  0.7816164E-02  0.1312668E+00
        -11   -1    0    0    0    0  0.00000000000E+00  0.00000000000E+00  0.45593999997E+02  0.45594000000E+02  0.51100000000E-03 0.  1.
         11   -1    0    0    0    0 -0.00000000000E+00 -0.00000000000E+00 -0.45593999997E+02  0.45594000000E+02  0.51100000000E-03 0. -1.
    9900012    2    1    2    0    0  0.33294505418E+01  0.48283785957E+01 -0.43002608900E+02  0.47787275894E+02  0.20000022110E+02 0.  0.
        -12    1    1    2    0    0 -0.33294505418E+01 -0.48283785957E+01  0.43002608900E+02  0.43400724106E+02  0.00000000000E+00 0.  1.
         11    1    3    3    0    0 -0.23106146825E+01  0.70730880826E+00 -0.33718674611E+01  0.41483389926E+01  0.51100000000E-03 0. -1.
        -11    1    3    3    0    0 -0.40875233575E+01 -0.37946200760E+01 -0.14907906105E+02  0.15917055425E+02  0.51100000000E-03 0.  1.
         12    1    3    3    0    0  0.97275885817E+01  0.79156898634E+01 -0.24722835334E+02  0.27721881476E+02  0.00000000000E+00 0. -1.
</event>
<event>
 7    1  0.4621547E-010  0.4778727E+02  0.7816164E-02  0.1312668E+00
        -11   -1    0    0    0    0  0.00000000000E+00  0.00000000000E+00  0.45593999997E+02  0.45594000000E+02  0.51100000000E-03 0.  1.
         11   -1    0    0    0    0 -0.00000000000E+00 -0.00000000000E+00 -0.45593999997E+02  0.45594000000E+02  0.51100000000E-03 0. -1.
    9900012    2    1    2    0    0  0.37458402894E+02  0.18144101265E+02  0.12299722221E+02  0.47787268153E+02  0.19999986819E+02 0.  0.
        -12    1    1    2    0    0 -0.37458402894E+02 -0.18144101265E+02 -0.12299722221E+02  0.43400731847E+02  0.00000000000E+00 0.  1.
         11    1    3    3    0    0  0.40463727742E+01  0.27031390716E+01  0.47038085145E+01  0.67680062256E+01  0.51100000000E-03 0. -1.
        -11    1    3    3    0    0  0.42345521846E+01 -0.11814940376E+01 -0.35361402321E+01  0.56419543039E+01  0.51100000000E-03 0.  1.
         12    1    3    3    0    0  0.29177477935E+02  0.16622456231E+02  0.11132053939E+02  0.35377307624E+02  0.00000000000E+00 0. -1.
</event>
<event>
 7    1  0.4621547E-010  0.4778727E+02  0.7816164E-02  0.1312668E+00
        -11   -1    0    0    0    0  0.00000000000E+00  0.00000000000E+00  0.45593999997E+02  0.45594000000E+02  0.51100000000E-03 0. -1.
         11   -1    0    0    0    0 -0.00000000000E+00 -0.00000000000E+00 -0.45593999997E+02  0.45594000000E+02  0.51100000000E-03 0.  1.
    9900012    2    1    2    0    0  0.17253304679E+02 -0.27475719034E+02  0.28827618477E+02  0.47787271367E+02  0.20000001472E+02 0.  0.
        -12    1    1    2    0    0 -0.17253304679E+02  0.27475719034E+02 -0.28827618477E+02  0.43400728633E+02  0.00000000000E+00 0.  1.
         11    1    3    3    0    0  0.10736329990E+02 -0.80127582516E+01  0.99040749833E+01  0.16660245436E+02  0.51100000000E-03 0. -1.
        -11    1    3    3    0    0  0.84647350453E+01 -0.90551877458E+01  0.15810752389E+02  0.20090496656E+02  0.51100000000E-03 0.  1.
         12    1    3    3    0    0 -0.19477603560E+01 -0.10407773037E+02  0.31127911046E+01  0.11036529276E+02  0.00000000000E+00 0. -1.
</event>
<event>
 7    1  0.4621547E-010  0.4778727E+02  0.7816164E-02  0.1312668E+00
        -11   -1    0    0    0    0  0.00000000000E+00  0.00000000000E+00  0.45593999997E+02  0.45594000000E+02  0.51100000000E-03 0.  1.
         11   -1    0    0    0    0 -0.00000000000E+00 -0.00000000000E+00 -0.45593999997E+02  0.45594000000E+02  0.51100000000E-03 0. -1.
    9900012    2    1    2    0    0  0.11406200569E+02 -0.31136376843E+02 -0.28000855664E+02  0.47787270832E+02  0.19999999033E+02 0.  0.
        -12    1    1    2    0    0 -0.11406200569E+02  0.31136376843E+02  0.28000855664E+02  0.43400729168E+02  0.00000000000E+00 0.  1.
         11    1    3    3    0    0  0.71598485031E+01 -0.14265013033E+02 -0.14451528259E+02  0.21531388638E+02  0.51100000000E-03 0. -1.
        -11    1    3    3    0    0  0.54748438913E+01 -0.13251988081E+02 -0.24877843549E+01  0.14552600283E+02  0.51100000000E-03 0.  1.
        -12    1    3    3    0    0 -0.12284918259E+01 -0.36193757296E+01 -0.11061543050E+02  0.11703281911E+02  0.00000000000E+00 0.  1.
</event>
<event>
 7    1  0.4621547E-010  0.4778727E+02  0.7816164E-02  0.1312668E+00
        -11   -1    0    0    0    0  0.00000000000E+00  0.00000000000E+00  0.45593999997E+02  0.45594000000E+02  0.51100000000E-03 0.  1.
         11   -1    0    0    0    0 -0.00000000000E+00 -0.00000000000E+00 -0.45593999997E+02  0.45594000000E+02  0.51100000000E-03 0. -1.
    9900012    2    1    2    0    0 -0.25327299214E+02 -0.15818774502E+01 -0.35208649876E+02  0.47787269041E+02  0.19999990864E+02 0.  0.
        -12    1    1    2    0    0  0.25327299214E+02  0.15818774502E+01  0.35208649876E+02  0.43400730959E+02  0.00000000000E+00 0.  1.
         11    1    3    3    0    0  0.64526994823E+00  0.80985074739E+00 -0.32618112146E+00  0.10856453953E+01  0.51100000000E-03 0. -1.
        -11    1    3    3    0    0 -0.11959428233E+01 -0.50013036852E+01 -0.21677688597E+01  0.55805501412E+01  0.51100000000E-03 0.  1.
         12    1    3    3    0    0 -0.24776626339E+02  0.26095754875E+01 -0.32714699894E+02  0.41121073504E+02  0.00000000000E+00 0. -1.
</event>
<event>
 7    1  0.4621547E-010  0.4778727E+02  0.7816164E-02  0.1312668E+00
        -11   -1    0    0    0    0  0.00000000000E+00  0.00000000000E+00  0.45593999997E+02  0.45594000000E+02  0.51100000000E-03 0.  1.
         11   -1    0    0    0    0 -0.00000000000E+00 -0.00000000000E+00 -0.45593999997E+02  0.45594000000E+02  0.51100000000E-03 0. -1.
    9900012    2    1    2    0    0 -0.39650593146E+02 -0.16515451010E+02 -0.62204337703E+01  0.47787268956E+02  0.19999990476E+02 0.  0.
        -12    1    1    2    0    0  0.39650593146E+02  0.16515451010E+02  0.62204337703E+01  0.43400731044E+02  0.00000000000E+00 0.  1.
         11    1    3    3    0    0 -0.19372464217E+02 -0.11776494844E+02 -0.10081661103E+02  0.24811652334E+02  0.51100000000E-03 0. -1.
        -11    1    3    3    0    0 -0.15438192402E+02 -0.46170828671E+01 -0.96084912100E+00  0.16142443127E+02  0.51100000000E-03 0.  1.
        -12    1    3    3    0    0 -0.48399365269E+01 -0.12187329865E+00  0.48220764532E+01  0.68331734945E+01  0.00000000000E+00 0.  1.
</event>
<event>
 7    1  0.4621547E-010  0.4778727E+02  0.7816164E-02  0.1312668E+00
        -11   -1    0    0    0    0  0.00000000000E+00  0.00000000000E+00  0.45593999997E+02  0.45594000000E+02  0.51100000000E-03 0. -1.
         11   -1    0    0    0    0 -0.00000000000E+00 -0.00000000000E+00 -0.45593999997E+02  0.45594000000E+02  0.51100000000E-03 0.  1.
    9900012    2    1    2    0    0 -0.15072195453E+02  0.40557748187E+02  0.33942886694E+01  0.47787271788E+02  0.20000003388E+02 0.  0.
        -12    1    1    2    0    0  0.15072195453E+02 -0.40557748187E+02 -0.33942886694E+01  0.43400728212E+02  0.00000000000E+00 0.  1.
         11    1    3    3    0    0 -0.30131698902E+01  0.90584084187E+01 -0.14509504103E+01  0.96560454236E+01  0.51100000000E-03 0. -1.
        -11    1    3    3    0    0  0.31435817241E+01  0.11445167846E+02  0.52128058394E+01  0.12963306602E+02  0.51100000000E-03 0.  1.
        -12    1    3    3    0    0 -0.15202607287E+02  0.20054171923E+02 -0.36756675962E+00  0.25167919762E+02  0.00000000000E+00 0.  1.
</event>
<event>
 7    1  0.4621547E-010  0.4778727E+02  0.7816164E-02  0.1312668E+00
        -11   -1    0    0    0    0  0.00000000000E+00  0.00000000000E+00  0.45593999997E+02  0.45594000000E+02  0.51100000000E-03 0.  1.
         11   -1    0    0    0    0 -0.00000000000E+00 -0.00000000000E+00 -0.45593999997E+02  0.45594000000E+02  0.51100000000E-03 0. -1.
    9900012    2    1    2    0    0 -0.23837438308E+02 -0.23701089069E+01 -0.36190918702E+02  0.47787268695E+02  0.19999989288E+02 0.  0.
        -12    1    1    2    0    0  0.23837438308E+02  0.23701089069E+01  0.36190918702E+02  0.43400731305E+02  0.00000000000E+00 0.  1.
         11    1    3    3    0    0 -0.22004717283E+01 -0.13743845834E+01 -0.49446992413E+01  0.55840003276E+01  0.51100000000E-03 0. -1.
        -11    1    3    3    0    0 -0.35638412577E+01 -0.64762893762E+01 -0.24906944053E+01  0.78004389284E+01  0.51100000000E-03 0.  1.
         12    1    3    3    0    0 -0.18073125322E+02  0.54805650528E+01 -0.28755525055E+02  0.34402829439E+02  0.00000000000E+00 0. -1.
</event>
<event>
 7    1  0.4621547E-010  0.4778727E+02  0.7816164E-02  0.1312668E+00
        -11   -1    0    0    0    0  0.00000000000E+00  0.00000000000E+00  0.45593999997E+02  0.45594000000E+02  0.51100000000E-03 0.  1.
         11   -1    0    0    0    0 -0.00000000000E+00 -0.00000000000E+00 -0.45593999997E+02  0.45594000000E+02  0.51100000000E-03 0. -1.
    9900012    2    1    2    0    0 -0.21126661722E+02 -0.38615778259E+01 -0.37714396345E+02  0.47787270623E+02  0.19999998077E+02 0.  0.
        -12    1    1    2    0    0  0.21126661722E+02  0.38615778259E+01  0.37714396345E+02  0.43400729377E+02  0.00000000000E+00 0.  1.
         11    1    3    3    0    0  0.50676943273E+00  0.89684620288E+00 -0.15340161074E+02  0.15374709441E+02  0.51100000000E-03 0. -1.
        -11    1    3    3    0    0 -0.40399690242E+01 -0.31696652910E+01 -0.21696505864E+01  0.55745413894E+01  0.51100000000E-03 0.  1.
         12    1    3    3    0    0 -0.17593462131E+02 -0.15887587378E+01 -0.20204584684E+02  0.26838019792E+02  0.00000000000E+00 0. -1.
</event>
<event>
 7    1  0.4621547E-010  0.4778727E+02  0.7816164E-02  0.1312668E+00
        -11   -1    0    0    0    0  0.00000000000E+00  0.00000000000E+00  0.45593999997E+02  0.45594000000E+02  0.51100000000E-03 0.  1.
         11   -1    0    0    0    0 -0.00000000000E+00 -0.00000000000E+00 -0.45593999997E+02  0.45594000000E+02  0.51100000000E-03 0. -1.
    9900012    2    1    2    0    0  0.14202447993E+02 -0.37827492973E+01 -0.40836314168E+02  0.47787271019E+02  0.19999999886E+02 0.  0.
        -12    1    1    2    0    0 -0.14202447993E+02  0.37827492973E+01  0.40836314168E+02  0.43400728981E+02  0.00000000000E+00 0.  1.
         11    1    3    3    0    0  0.44406403782E+01 -0.11573403235E+01 -0.21364564631E+02  0.21851849939E+02  0.51100000000E-03 0. -1.
        -11    1    3    3    0    0  0.64951699951E+01  0.54111829890E+01 -0.93778039796E+01  0.12625820462E+02  0.51100000000E-03 0.  1.
        -12    1    3    3    0    0  0.32666376194E+01 -0.80365919628E+01 -0.10093945557E+02  0.13309600618E+02  0.00000000000E+00 0.  1.
</event>
<event>
 7    1  0.4621547E-010  0.4778727E+02  0.7816164E-02  0.1312668E+00
        -11   -1    0    0    0    0  0.00000000000E+00  0.00000000000E+00  0.45593999997E+02  0.45594000000E+02  0.51100000000E-03 0.  1.
         11   -1    0    0    0    0 -0.00000000000E+00 -0.00000000000E+00 -0.45593999997E+02  0.45594000000E+02  0.51100000000E-03 0. -1.
    9900012    2    1    2    0    0  0.20333161770E+01  0.29883164906E+02 -0.31408364177E+02  0.47787271207E+02  0.20000000741E+02 0.  0.
        -12    1    1    2    0    0 -0.20333161770E+01 -0.29883164906E+02  0.31408364177E+02  0.43400728793E+02  0.00000000000E+00 0.  1.
         11    1    3    3    0    0 -0.14271611123E+01  0.75271319466E+01 -0.19007211447E+01  0.78934938597E+01  0.51100000000E-03 0. -1.
        -11    1    3    3    0    0  0.17675110724E+01  0.77119365298E+00  0.12365989807E+01  0.22908540638E+01  0.51100000000E-03 0.  1.
         12    1    3    3    0    0  0.16929662168E+01  0.21584839307E+02 -0.30744242013E+02  0.37602923283E+02  0.00000000000E+00 0. -1.
</event>
<event>
 7    1  0.4621547E-010  0.4778727E+02  0.7816164E-02  0.1312668E+00
        -11   -1    0    0    0    0  0.00000000000E+00  0.00000000000E+00  0.45593999997E+02  0.45594000000E+02  0.51100000000E-03 0. -1.
         11   -1    0    0    0    0 -0.00000000000E+00 -0.00000000000E+00 -0.45593999997E+02  0.45594000000E+02  0.51100000000E-03 0.  1.
    9900012    2    1    2    0    0 -0.20552143672E+02 -0.31513735224E+02  0.21636022254E+02  0.47787267561E+02  0.19999984116E+02 0.  0.
        -12    1    1    2    0    0  0.20552143672E+02  0.31513735224E+02 -0.21636022254E+02  0.43400732439E+02  0.00000000000E+00 0.  1.
         11    1    3    3    0    0 -0.76599876905E+01 -0.11341819273E+02  0.96449720147E+01  0.16743290037E+02  0.51100000000E-03 0. -1.
        -11    1    3    3    0    0 -0.15852099970E+02 -0.11822208453E+02  0.81777336507E+01  0.21399276018E+02  0.51100000000E-03 0.  1.
        -12    1    3    3    0    0  0.29599439890E+01 -0.83497074982E+01  0.38133165889E+01  0.96447015055E+01  0.00000000000E+00 0.  1.
</event>
<event>
 7    1  0.4621547E-010  0.4778727E+02  0.7816164E-02  0.1312668E+00
        -11   -1    0    0    0    0  0.00000000000E+00  0.00000000000E+00  0.45593999997E+02  0.45594000000E+02  0.51100000000E-03 0.  1.
         11   -1    0    0    0    0 -0.00000000000E+00 -0.00000000000E+00 -0.45593999997E+02  0.45594000000E+02  0.51100000000E-03 0. -1.
    9900012    2    1    2    0    0 -0.19297203414E+02 -0.15686602353E+02 -0.35569248525E+02  0.47787274273E+02  0.20000014721E+02 0.  0.
        -12    1    1    2    0    0  0.19297203414E+02  0.15686602353E+02  0.35569248525E+02  0.43400725727E+02  0.00000000000E+00 0.  1.
         11    1    3    3    0    0 -0.17188262910E+02 -0.10350521833E+02 -0.34880897105E+02  0.40239864154E+02  0.51100000000E-03 0. -1.
        -11    1    3    3    0    0 -0.19299598874E+01  0.20475479091E+00 -0.48247665908E+00  0.19998634151E+01  0.51100000000E-03 0.  1.
         12    1    3    3    0    0 -0.17898061664E+00 -0.55408353116E+01 -0.20587476099E+00  0.55475467036E+01  0.00000000000E+00 0. -1.
</event>
<event>
 7    1  0.4621547E-010  0.4778727E+02  0.7816164E-02  0.1312668E+00
        -11   -1    0    0    0    0  0.00000000000E+00  0.00000000000E+00  0.45593999997E+02  0.45594000000E+02  0.51100000000E-03 0. -1.
         11   -1    0    0    0    0 -0.00000000000E+00 -0.00000000000E+00 -0.45593999997E+02  0.45594000000E+02  0.51100000000E-03 0.  1.
    9900012    2    1    2    0    0 -0.21160638571E+01  0.32869909586E+02  0.28261541309E+02  0.47787269596E+02  0.19999993398E+02 0.  0.
        -12    1    1    2    0    0  0.21160638571E+01 -0.32869909586E+02 -0.28261541309E+02  0.43400730404E+02  0.00000000000E+00 0.  1.
         11    1    3    3    0    0  0.60431880762E+01  0.87900323009E+01  0.14974485725E+02  0.18385320584E+02  0.51100000000E-03 0. -1.
        -11    1    3    3    0    0 -0.22382898569E+00  0.52357496712E+01  0.45090714220E+00  0.52598946326E+01  0.51100000000E-03 0.  1.
         12    1    3    3    0    0 -0.79354229476E+01  0.18844127614E+02  0.12836148441E+02  0.24142054380E+02  0.00000000000E+00 0. -1.
</event>
<event>
 7    1  0.4621547E-010  0.4778724E+02  0.7816164E-02  0.1312668E+00
        -11   -1    0    0    0    0  0.00000000000E+00  0.00000000000E+00  0.45593999997E+02  0.45594000000E+02  0.51100000000E-03 0. -1.
         11   -1    0    0    0    0 -0.00000000000E+00 -0.00000000000E+00 -0.45593999997E+02  0.45594000000E+02  0.51100000000E-03 0.  1.
    9900012    2    1    2    0    0  0.37002473160E+02 -0.28559024888E+01  0.22500812630E+02  0.47787242311E+02  0.19999868992E+02 0.  0.
        -12    1    1    2    0    0 -0.37002473160E+02  0.28559024888E+01 -0.22500812630E+02  0.43400757689E+02  0.00000000000E+00 0.  1.
         11    1    3    3    0    0  0.18620561373E+02  0.47393286731E+01  0.10740844987E+02  0.22012548544E+02  0.51100000000E-03 0. -1.
        -11    1    3    3    0    0  0.36584184325E+00  0.21288228646E+01  0.25034687145E+01  0.33065212699E+01  0.51100000000E-03 0.  1.
         12    1    3    3    0    0  0.18016069944E+02 -0.97240540265E+01  0.92564989290E+01  0.22468172497E+02  0.00000000000E+00 0. -1.
</event>
<event>
 7    1  0.4621547E-010  0.4778728E+02  0.7816164E-02  0.1312668E+00
        -11   -1    0    0    0    0  0.00000000000E+00  0.00000000000E+00  0.45593999997E+02  0.45594000000E+02  0.51100000000E-03 0.  1.
         11   -1    0    0    0    0 -0.00000000000E+00 -0.00000000000E+00 -0.45593999997E+02  0.45594000000E+02  0.51100000000E-03 0. -1.
    9900012    2    1    2    0    0  0.26813502732E+02 -0.19869495971E+02 -0.27746374695E+02  0.47787284480E+02  0.20000061259E+02 0.  0.
        -12    1    1    2    0    0 -0.26813502732E+02  0.19869495971E+02  0.27746374695E+02  0.43400715520E+02  0.00000000000E+00 0.  1.
         11    1    3    3    0    0  0.18611155402E+02 -0.94672565291E+01 -0.11079503923E+02  0.23638093388E+02  0.51100000000E-03 0. -1.
        -11    1    3    3    0    0  0.70307754008E+01 -0.11916773547E+01 -0.32592767292E+01  0.78405856103E+01  0.51100000000E-03 0.  1.
         12    1    3    3    0    0  0.11715719291E+01 -0.92105620868E+01 -0.13407594043E+02  0.16308605481E+02  0.00000000000E+00 0. -1.
</event>
<event>
 7    1  0.4621547E-010  0.4778725E+02  0.7816164E-02  0.1312668E+00
        -11   -1    0    0    0    0  0.00000000000E+00  0.00000000000E+00  0.45593999997E+02  0.45594000000E+02  0.51100000000E-03 0. -1.
         11   -1    0    0    0    0 -0.00000000000E+00 -0.00000000000E+00 -0.45593999997E+02  0.45594000000E+02  0.51100000000E-03 0.  1.
    9900012    2    1    2    0    0 -0.36224574341E+02 -0.13717237777E+02 -0.19576585804E+02  0.47787249889E+02  0.19999903544E+02 0.  0.
        -12    1    1    2    0    0  0.36224574341E+02  0.13717237777E+02  0.19576585804E+02  0.43400750111E+02  0.00000000000E+00 0.  1.
         11    1    3    3    0    0 -0.25263332017E+02 -0.43864499502E+01 -0.10909115117E+02  0.27865492650E+02  0.51100000000E-03 0. -1.
        -11    1    3    3    0    0 -0.36420499725E+01  0.13668686980E+01 -0.52184505016E+01  0.65088465905E+01  0.51100000000E-03 0.  1.
        -12    1    3    3    0    0 -0.73191923520E+01 -0.10697656525E+02 -0.34490201860E+01  0.13412910648E+02  0.00000000000E+00 0.  1.
</event>
<event>
 7    1  0.4621547E-010  0.4778727E+02  0.7816164E-02  0.1312668E+00
        -11   -1    0    0    0    0  0.00000000000E+00  0.00000000000E+00  0.45593999997E+02  0.45594000000E+02  0.51100000000E-03 0. -1.
         11   -1    0    0    0    0 -0.00000000000E+00 -0.00000000000E+00 -0.45593999997E+02  0.45594000000E+02  0.51100000000E-03 0.  1.
    9900012    2    1    2    0    0  0.38165334237E+02 -0.19001722343E+02  0.81218974247E+01  0.47787269509E+02  0.19999993000E+02 0.  0.
        -12    1    1    2    0    0 -0.38165334237E+02  0.19001722343E+02 -0.81218974247E+01  0.43400730491E+02  0.00000000000E+00 0.  1.
         11    1    3    3    0    0  0.28535867396E+02 -0.44246646041E+01  0.75360280180E+01  0.29844012858E+02  0.51100000000E-03 0. -1.
        -11    1    3    3    0    0 -0.14621336927E+00 -0.16571638890E+01  0.51548297749E+00  0.17416352849E+01  0.51100000000E-03 0.  1.
        -12    1    3    3    0    0  0.97756802093E+01 -0.12919893850E+02  0.70386429169E-01  0.16201621366E+02  0.00000000000E+00 0.  1.
</event>
<event>
 7    1  0.4621547E-010  0.4778727E+02  0.7816164E-02  0.1312668E+00
        -11   -1    0    0    0    0  0.00000000000E+00  0.00000000000E+00  0.45593999997E+02  0.45594000000E+02  0.51100000000E-03 0.  1.
         11   -1    0    0    0    0 -0.00000000000E+00 -0.00000000000E+00 -0.45593999997E+02  0.45594000000E+02  0.51100000000E-03 0. -1.
    9900012    2    1    2    0    0 -0.27274291430E+02  0.33195893593E+01 -0.33596376004E+02  0.47787272735E+02  0.20000007709E+02 0.  0.
        -12    1    1    2    0    0  0.27274291430E+02 -0.33195893593E+01  0.33596376004E+02  0.43400727265E+02  0.00000000000E+00 0.  1.
         11    1    3    3    0    0 -0.94383284142E+01 -0.46605579726E+01 -0.93556955636E+01  0.14083035312E+02  0.51100000000E-03 0. -1.
        -11    1    3    3    0    0 -0.16669660500E+02  0.15329595593E+01 -0.18933318801E+02  0.25272477269E+02  0.51100000000E-03 0.  1.
        -12    1    3    3    0    0 -0.11663025156E+01  0.64471877725E+01 -0.53073616391E+01  0.84317601543E+01  0.00000000000E+00 0.  1.
</event>
<event>
 7    1  0.4621547E-010  0.4778727E+02  0.7816164E-02  0.1312668E+00
        -11   -1    0    0    0    0  0.00000000000E+00  0.00000000000E+00  0.45593999997E+02  0.45594000000E+02  0.51100000000E-03 0. -1.
         11   -1    0    0    0    0 -0.00000000000E+00 -0.00000000000E+00 -0.45593999997E+02  0.45594000000E+02  0.51100000000E-03 0.  1.
    9900012    2    1    2    0    0 -0.34686156265E+02 -0.24959639193E+02 -0.75835666539E+01  0.47787268344E+02  0.19999987688E+02 0.  0.
        -12    1    1    2    0    0  0.34686156265E+02  0.24959639193E+02  0.75835666539E+01  0.43400731656E+02  0.00000000000E+00 0.  1.
         11    1    3    3    0    0 -0.13373951716E+02 -0.70935695337E+01  0.72129766106E+00  0.15155909204E+02  0.51100000000E-03 0. -1.
        -11    1    3    3    0    0 -0.93402228106E+01 -0.13361464326E+02  0.17016452999E+01  0.16390975812E+02  0.51100000000E-03 0.  1.
        -12    1    3    3    0    0 -0.11971981738E+02 -0.45046053333E+01 -0.10006509615E+02  0.16240383328E+02  0.00000000000E+00 0.  1.
</event>
<event>
 7    1  0.4621547E-010  0.4778727E+02  0.7816164E-02  0.1312668E+00
        -11   -1    0    0    0    0  0.00000000000E+00  0.00000000000E+00  0.45593999997E+02  0.45594000000E+02  0.51100000000E-03 0.  1.
         11   -1    0    0    0    0 -0.00000000000E+00 -0.00000000000E+00 -0.45593999997E+02  0.45594000000E+02  0.51100000000E-03 0. -1.
    9900012    2    1    2    0    0 -0.12531251550E+02  0.33592037273E+02 -0.24457428981E+02  0.47787273441E+02  0.20000010925E+02 0.  0.
        -12    1    1    2    0    0  0.12531251550E+02 -0.33592037273E+02  0.24457428981E+02  0.43400726559E+02  0.00000000000E+00 0.  1.
         11    1    3    3    0    0  0.20248377634E+01  0.23357479263E+00  0.16146656112E+00  0.20446507925E+01  0.51100000000E-03 0. -1.
        -11    1    3    3    0    0  0.23623968865E+01  0.46592026833E+01 -0.29254137756E+01  0.59872476742E+01  0.51100000000E-03 0.  1.
         12    1    3    3    0    0 -0.16918486199E+02  0.28699259797E+02 -0.21693481766E+02  0.39755374974E+02  0.00000000000E+00 0. -1.
</event>
<event>
 7    1  0.4621547E-010  0.4778727E+02  0.7816164E-02  0.1312668E+00
        -11   -1    0    0    0    0  0.00000000000E+00  0.00000000000E+00  0.45593999997E+02  0.45594000000E+02  0.51100000000E-03 0.  1.
         11   -1    0    0    0    0 -0.00000000000E+00 -0.00000000000E+00 -0.45593999997E+02  0.45594000000E+02  0.51100000000E-03 0. -1.
    9900012    2    1    2    0    0  0.48992603445E+01  0.41757499689E+02 -0.10767181872E+02  0.47787265701E+02  0.19999975638E+02 0.  0.
        -12    1    1    2    0    0 -0.48992603445E+01 -0.41757499689E+02  0.10767181872E+02  0.43400734299E+02  0.00000000000E+00 0.  1.
         11    1    3    3    0    0  0.27423040468E+01  0.34982134572E+01 -0.52035651712E+01  0.68435969804E+01  0.51100000000E-03 0. -1.
        -11    1    3    3    0    0  0.58955477222E+00 -0.23913649500E+00  0.16280439133E+01  0.17479383105E+01  0.51100000000E-03 0.  1.
        -12    1    3    3    0    0  0.15674015254E+01  0.38498422727E+02 -0.71916606139E+01  0.39195730410E+02  0.00000000000E+00 0.  1.
</event>
<event>
 7    1  0.4621547E-010  0.4778727E+02  0.7816164E-02  0.1312668E+00
        -11   -1    0    0    0    0  0.00000000000E+00  0.00000000000E+00  0.45593999997E+02  0.45594000000E+02  0.51100000000E-03 0.  1.
         11   -1    0    0    0    0 -0.00000000000E+00 -0.00000000000E+00 -0.45593999997E+02  0.45594000000E+02  0.51100000000E-03 0. -1.
    9900012    2    1    2    0    0 -0.17525912638E+01 -0.39647096741E+02 -0.17568707468E+02  0.47787270303E+02  0.19999996618E+02 0.  0.
        -12    1    1    2    0    0  0.17525912638E+01  0.39647096741E+02  0.17568707468E+02  0.43400729697E+02  0.00000000000E+00 0.  1.
         11    1    3    3    0    0  0.22743024440E+01 -0.18024894350E+02 -0.12003560491E+02  0.21775094321E+02  0.51100000000E-03 0. -1.
        -11    1    3    3    0    0 -0.33572454503E+01  0.21973116822E+00 -0.18717845702E+01  0.38500592902E+01  0.51100000000E-03 0.  1.
         12    1    3    3    0    0 -0.66964825740E+00 -0.21841933559E+02 -0.36933624068E+01  0.22162116692E+02  0.00000000000E+00 0. -1.
</event>
<event>
 7    1  0.4621547E-010  0.4778727E+02  0.7816164E-02  0.1312668E+00
        -11   -1    0    0    0    0  0.00000000000E+00  0.00000000000E+00  0.45593999997E+02  0.45594000000E+02  0.51100000000E-03 0. -1.
         11   -1    0    0    0    0 -0.00000000000E+00 -0.00000000000E+00 -0.45593999997E+02  0.45594000000E+02  0.51100000000E-03 0.  1.
    9900012    2    1    2    0    0 -0.24189546625E+02  0.34913056406E+02  0.89200744773E+01  0.47787269566E+02  0.19999993258E+02 0.  0.
        -12    1    1    2    0    0  0.24189546625E+02 -0.34913056406E+02 -0.89200744773E+01  0.43400730434E+02  0.00000000000E+00 0.  1.
         11    1    3    3    0    0 -0.69415762870E+01  0.10847412393E+02  0.86665018610E+01  0.15522889284E+02  0.51100000000E-03 0. -1.
        -11    1    3    3    0    0 -0.12031918939E+02  0.69127101425E+01 -0.25776941682E+01  0.14113721776E+02  0.51100000000E-03 0.  1.
         12    1    3    3    0    0 -0.52160513983E+01  0.17152933871E+02  0.28312667845E+01  0.18150658506E+02  0.00000000000E+00 0. -1.
</event>
<event>
 7    1  0.4621547E-010  0.4778726E+02  0.7816164E-02  0.1312668E+00
        -11   -1    0    0    0    0  0.00000000000E+00  0.00000000000E+00  0.45593999997E+02  0.45594000000E+02  0.51100000000E-03 0. -1.
         11   -1    0    0    0    0 -0.00000000000E+00 -0.00000000000E+00 -0.45593999997E+02  0.45594000000E+02  0.51100000000E-03 0.  1.
    9900012    2    1    2    0    0 -0.37358478674E+02 -0.19246110303E+02 -0.10842298205E+02  0.47787261285E+02  0.19999955504E+02 0.  0.
        -12    1    1    2    0    0  0.37358478674E+02  0.19246110303E+02  0.10842298205E+02  0.43400738715E+02  0.00000000000E+00 0.  1.
         11    1    3    3    0    0 -0.41326330451E+01 -0.83294761828E+01 -0.67859400854E+00  0.93230531187E+01  0.51100000000E-03 0. -1.
        -11    1    3    3    0    0 -0.56645398258E+01 -0.34373155446E+00  0.26745683633E+01  0.62736336369E+01  0.51100000000E-03 0.  1.
         12    1    3    3    0    0 -0.27561305803E+02 -0.10572902566E+02 -0.12838272560E+02  0.32190574530E+02  0.00000000000E+00 0. -1.
</event>
<event>
 7    1  0.4621547E-010  0.4778727E+02  0.7816164E-02  0.1312668E+00
        -11   -1    0    0    0    0  0.00000000000E+00  0.00000000000E+00  0.45593999997E+02  0.45594000000E+02  0.51100000000E-03 0. -1.
         11   -1    0    0    0    0 -0.00000000000E+00 -0.00000000000E+00 -0.45593999997E+02  0.45594000000E+02  0.51100000000E-03 0.  1.
    9900012    2    1    2    0    0 -0.27452934079E+02 -0.33549560629E+02  0.20943655776E+01  0.47787274486E+02  0.20000015692E+02 0.  0.
        -12    1    1    2    0    0  0.27452934079E+02  0.33549560629E+02 -0.20943655776E+01  0.43400725514E+02  0.00000000000E+00 0.  1.
         11    1    3    3    0    0 -0.14772884659E+02 -0.24198598928E+02 -0.10131519852E+01  0.28369645547E+02  0.51100000000E-03 0. -1.
        -11    1    3    3    0    0 -0.14267900850E+02 -0.95268286578E+01  0.16160949062E+01  0.17232098594E+02  0.51100000000E-03 0.  1.
        -12    1    3    3    0    0  0.15878514302E+01  0.17586695699E+00  0.14914226565E+01  0.21855303456E+01  0.00000000000E+00 0.  1.
</event>
<event>
 7    1  0.4621547E-010  0.4778727E+02  0.7816164E-02  0.1312668E+00
        -11   -1    0    0    0    0  0.00000000000E+00  0.00000000000E+00  0.45593999997E+02  0.45594000000E+02  0.51100000000E-03 0.  1.
         11   -1    0    0    0    0 -0.00000000000E+00 -0.00000000000E+00 -0.45593999997E+02  0.45594000000E+02  0.51100000000E-03 0. -1.
    9900012    2    1    2    0    0 -0.26432009359E+01  0.43209878108E+02 -0.30892694762E+01  0.47787266559E+02  0.19999979549E+02 0.  0.
        -12    1    1    2    0    0  0.26432009359E+01 -0.43209878108E+02  0.30892694762E+01  0.43400733441E+02  0.00000000000E+00 0.  1.
         11    1    3    3    0    0  0.39696099051E+01  0.77834378851E+01 -0.25027623407E+01  0.90886482881E+01  0.51100000000E-03 0. -1.
        -11    1    3    3    0    0 -0.56292020214E+01  0.65825350435E+01 -0.41762629049E+01  0.96155527719E+01  0.51100000000E-03 0.  1.
        -12    1    3    3    0    0 -0.98360881954E+00  0.28843905180E+02  0.35897557694E+01  0.29083065499E+02  0.00000000000E+00 0.  1.
</event>
<event>
 7    1  0.4621547E-010  0.4778727E+02  0.7816164E-02  0.1312668E+00
        -11   -1    0    0    0    0  0.00000000000E+00  0.00000000000E+00  0.45593999997E+02  0.45594000000E+02  0.51100000000E-03 0.  1.
         11   -1    0    0    0    0 -0.00000000000E+00 -0.00000000000E+00 -0.45593999997E+02  0.45594000000E+02  0.51100000000E-03 0. -1.
    9900012    2    1    2    0    0  0.16738333176E+02  0.39253165730E+02 -0.79145655704E+01  0.47787272293E+02  0.20000005693E+02 0.  0.
        -12    1    1    2    0    0 -0.16738333176E+02 -0.39253165730E+02  0.79145655704E+01  0.43400727707E+02  0.00000000000E+00 0.  1.
         11    1    3    3    0    0  0.40802120750E+01  0.66571646349E+01 -0.87989729403E+01  0.11763838515E+02  0.51100000000E-03 0. -1.
        -11    1    3    3    0    0  0.66963383524E+01  0.16162469495E+02 -0.38474455117E+01  0.17912822355E+02  0.51100000000E-03 0.  1.
        -12    1    3    3    0    0  0.59617827488E+01  0.16433531600E+02  0.47318528817E+01  0.18110611422E+02  0.00000000000E+00 0.  1.
</event>
<event>
 7    1  0.4621547E-010  0.4778729E+02  0.7816164E-02  0.1312668E+00
        -11   -1    0    0    0    0  0.00000000000E+00  0.00000000000E+00  0.45593999997E+02  0.45594000000E+02  0.51100000000E-03 0.  1.
         11   -1    0    0    0    0 -0.00000000000E+00 -0.00000000000E+00 -0.45593999997E+02  0.45594000000E+02  0.51100000000E-03 0. -1.
    9900012    2    1    2    0    0  0.80546933976E+00  0.43080015476E+02 -0.52043746315E+01  0.47787285380E+02  0.20000065361E+02 0.  0.
        -12    1    1    2    0    0 -0.80546933976E+00 -0.43080015476E+02  0.52043746315E+01  0.43400714620E+02  0.00000000000E+00 0.  1.
         11    1    3    3    0    0  0.38510902670E+01  0.30695145158E+02 -0.34247856104E+01  0.31124780951E+02  0.51100000000E-03 0. -1.
        -11    1    3    3    0    0 -0.41063951292E+01  0.13346986042E+02  0.49665422167E+00  0.13973230945E+02  0.51100000000E-03 0.  1.
         12    1    3    3    0    0  0.10607742020E+01 -0.96211572397E+00 -0.22762432428E+01  0.26892734845E+01  0.00000000000E+00 0. -1.
</event>
<event>
 7    1  0.4621547E-010  0.4778727E+02  0.7816164E-02  0.1312668E+00
        -11   -1    0    0    0    0  0.00000000000E+00  0.00000000000E+00  0.45593999997E+02  0.45594000000E+02  0.51100000000E-03 0.  1.
         11   -1    0    0    0    0 -0.00000000000E+00 -0.00000000000E+00 -0.45593999997E+02  0.45594000000E+02  0.51100000000E-03 0. -1.
    9900012    2    1    2    0    0  0.29004156167E+01  0.15237095792E+02 -0.40534451493E+02  0.47787271242E+02  0.20000000901E+02 0.  0.
        -12    1    1    2    0    0 -0.29004156167E+01 -0.15237095792E+02  0.40534451493E+02  0.43400728758E+02  0.00000000000E+00 0.  1.
         11    1    3    3    0    0 -0.20547480071E+01  0.60893555492E+01 -0.18939452051E+02  0.20000127116E+02  0.51100000000E-03 0.  1.
        -11    1    3    3    0    0  0.62617801241E+01  0.54877473504E+00 -0.16615929308E+02  0.17765138645E+02  0.51100000000E-03 0. -1.
        -12    1    3    3    0    0 -0.13066165003E+01  0.85989655076E+01 -0.49790701330E+01  0.10022005481E+02  0.00000000000E+00 0.  1.
</event>
<event>
 7    1  0.4621547E-010  0.4778727E+02  0.7816164E-02  0.1312668E+00
        -11   -1    0    0    0    0  0.00000000000E+00  0.00000000000E+00  0.45593999997E+02  0.45594000000E+02  0.51100000000E-03 0. -1.
         11   -1    0    0    0    0 -0.00000000000E+00 -0.00000000000E+00 -0.45593999997E+02  0.45594000000E+02  0.51100000000E-03 0.  1.
    9900012    2    1    2    0    0  0.37548965064E-01  0.14683905032E+02  0.40841211342E+02  0.47787273960E+02  0.20000013292E+02 0.  0.
        -12    1    1    2    0    0 -0.37548965064E-01 -0.14683905032E+02 -0.40841211342E+02  0.43400726040E+02  0.00000000000E+00 0.  1.
         11    1    3    3    0    0 -0.41685276970E+01  0.43052832495E+01  0.12926500618E+02  0.14248035146E+02  0.51100000000E-03 0. -1.
        -11    1    3    3    0    0 -0.50360689158E+01  0.64148760948E+01  0.92046847984E+01  0.12297920472E+02  0.51100000000E-03 0.  1.
         12    1    3    3    0    0  0.92421455779E+01  0.39637456877E+01  0.18710025926E+02  0.21241318342E+02  0.00000000000E+00 0. -1.
</event>
<event>
 7    1  0.4621547E-010  0.4778727E+02  0.7816164E-02  0.1312668E+00
        -11   -1    0    0    0    0  0.00000000000E+00  0.00000000000E+00  0.45593999997E+02  0.45594000000E+02  0.51100000000E-03 0.  1.
         11   -1    0    0    0    0 -0.00000000000E+00 -0.00000000000E+00 -0.45593999997E+02  0.45594000000E+02  0.51100000000E-03 0. -1.
    9900012    2    1    2    0    0 -0.15349128390E+02  0.98808631783E+01 -0.39375073414E+02  0.47787267220E+02  0.19999982561E+02 0.  0.
        -12    1    1    2    0    0  0.15349128390E+02 -0.98808631783E+01  0.39375073414E+02  0.43400732780E+02  0.00000000000E+00 0.  1.
         11    1    3    3    0    0 -0.68233840978E+01  0.10671322806E+02 -0.26257562531E+02  0.29152963680E+02  0.51100000000E-03 0.  1.
        -11    1    3    3    0    0  0.65080664663E+00 -0.13517037024E+01 -0.79450419301E+01  0.80854402306E+01  0.51100000000E-03 0. -1.
        -12    1    3    3    0    0 -0.91765509389E+01  0.56124407493E+00 -0.51724689533E+01  0.10548863309E+02  0.00000000000E+00 0.  1.
</event>
<event>
 7    1  0.4621547E-010  0.4778728E+02  0.7816164E-02  0.1312668E+00
        -11   -1    0    0    0    0  0.00000000000E+00  0.00000000000E+00  0.45593999997E+02  0.45594000000E+02  0.51100000000E-03 0.  1.
         11   -1    0    0    0    0 -0.00000000000E+00 -0.00000000000E+00 -0.45593999997E+02  0.45594000000E+02  0.51100000000E-03 0. -1.
    9900012    2    1    2    0    0  0.76551342924E+01 -0.41838860932E+02  0.86331192856E+01  0.47787284410E+02  0.20000060938E+02 0.  0.
        -12    1    1    2    0    0 -0.76551342924E+01  0.41838860932E+02 -0.86331192856E+01  0.43400715590E+02  0.00000000000E+00 0.  1.
         11    1    3    3    0    0  0.66777573244E+00 -0.17768341683E+02  0.53376902826E+01  0.18564773858E+02  0.51100000000E-03 0. -1.
        -11    1    3    3    0    0  0.45296003259E+00 -0.38871827090E+01  0.66775772485E+01  0.77398579041E+01  0.51100000000E-03 0.  1.
         12    1    3    3    0    0  0.65343985273E+01 -0.20183336541E+02 -0.33821482455E+01  0.21482652648E+02  0.00000000000E+00 0. -1.
</event>
<event>
 7    1  0.4621547E-010  0.4778727E+02  0.7816164E-02  0.1312668E+00
        -11   -1    0    0    0    0  0.00000000000E+00  0.00000000000E+00  0.45593999997E+02  0.45594000000E+02  0.51100000000E-03 0. -1.
         11   -1    0    0    0    0 -0.00000000000E+00 -0.00000000000E+00 -0.45593999997E+02  0.45594000000E+02  0.51100000000E-03 0.  1.
    9900012    2    1    2    0    0  0.33668976555E+02  0.27364570794E+02 -0.10969982798E+01  0.47787272791E+02  0.20000007965E+02 0.  0.
        -12    1    1    2    0    0 -0.33668976555E+02 -0.27364570794E+02  0.10969982798E+01  0.43400727209E+02  0.00000000000E+00 0.  1.
         11    1    3    3    0    0  0.24268895601E+01  0.43117434460E+00  0.30549810514E+01  0.39253807124E+01  0.51100000000E-03 0. -1.
        -11    1    3    3    0    0 -0.15633288087E+01  0.12173047481E+01 -0.20629202290E+00  0.19920804386E+01  0.51100000000E-03 0.  1.
         12    1    3    3    0    0  0.32805415804E+02  0.25716091702E+02 -0.39456873083E+01  0.41869811640E+02  0.00000000000E+00 0. -1.
</event>
<event>
 7    1  0.4621547E-010  0.4778727E+02  0.7816164E-02  0.1312668E+00
        -11   -1    0    0    0    0  0.00000000000E+00  0.00000000000E+00  0.45593999997E+02  0.45594000000E+02  0.51100000000E-03 0.  1.
         11   -1    0    0    0    0 -0.00000000000E+00 -0.00000000000E+00 -0.45593999997E+02  0.45594000000E+02  0.51100000000E-03 0. -1.
    9900012    2    1    2    0    0 -0.54752337175E+01 -0.98410394125E+01 -0.41914188836E+02  0.47787268822E+02  0.19999989869E+02 0.  0.
        -12    1    1    2    0    0  0.54752337175E+01  0.98410394125E+01  0.41914188836E+02  0.43400731178E+02  0.00000000000E+00 0.  1.
         11    1    3    3    0    0 -0.80511114339E+01 -0.12307109641E+02 -0.39331731062E+02  0.41991313526E+02  0.51100000000E-03 0. -1.
        -11    1    3    3    0    0  0.12322826527E+00 -0.93731327555E+00 -0.18224314256E+00  0.96278461040E+00  0.51100000000E-03 0.  1.
        -12    1    3    3    0    0  0.24526494512E+01  0.34033835037E+01 -0.24002146311E+01  0.48331706858E+01  0.00000000000E+00 0.  1.
</event>
<event>
 7    1  0.4621547E-010  0.4778727E+02  0.7816164E-02  0.1312668E+00
        -11   -1    0    0    0    0  0.00000000000E+00  0.00000000000E+00  0.45593999997E+02  0.45594000000E+02  0.51100000000E-03 0.  1.
         11   -1    0    0    0    0 -0.00000000000E+00 -0.00000000000E+00 -0.45593999997E+02  0.45594000000E+02  0.51100000000E-03 0. -1.
    9900012    2    1    2    0    0 -0.38206439400E+02  0.11040405961E+02 -0.17378164763E+02  0.47787272057E+02  0.20000004618E+02 0.  0.
        -12    1    1    2    0    0  0.38206439400E+02 -0.11040405961E+02  0.17378164763E+02  0.43400727943E+02  0.00000000000E+00 0.  1.
         11    1    3    3    0    0 -0.10618905003E+02 -0.56272323549E+01 -0.38899732350E+01  0.12631657827E+02  0.51100000000E-03 0. -1.
        -11    1    3    3    0    0 -0.46116385710E+01  0.34170482218E+01 -0.94770796851E+00  0.58173515894E+01  0.51100000000E-03 0.  1.
         12    1    3    3    0    0 -0.22975895826E+02  0.13250590094E+02 -0.12540483559E+02  0.29338262641E+02  0.00000000000E+00 0. -1.
</event>
<event>
 7    1  0.4621547E-010  0.4778726E+02  0.7816164E-02  0.1312668E+00
        -11   -1    0    0    0    0  0.00000000000E+00  0.00000000000E+00  0.45593999997E+02  0.45594000000E+02  0.51100000000E-03 0. -1.
         11   -1    0    0    0    0 -0.00000000000E+00 -0.00000000000E+00 -0.45593999997E+02  0.45594000000E+02  0.51100000000E-03 0.  1.
    9900012    2    1    2    0    0  0.32749502853E+02 -0.16300766994E+02  0.23353355522E+02  0.47787260884E+02  0.19999953674E+02 0.  0.
        -12    1    1    2    0    0 -0.32749502853E+02  0.16300766994E+02 -0.23353355522E+02  0.43400739116E+02  0.00000000000E+00 0.  1.
         11    1    3    3    0    0  0.11242902725E+02 -0.91506058989E+01  0.36859408244E+01  0.14957359728E+02  0.51100000000E-03 0.  1.
        -11    1    3    3    0    0  0.16702632129E+02 -0.52360393659E+01  0.21146565882E+02  0.27451252743E+02  0.51100000000E-03 0. -1.
         12    1    3    3    0    0  0.48039679986E+01 -0.19141217292E+01 -0.14791511850E+01  0.53786484133E+01  0.00000000000E+00 0. -1.
</event>
<event>
 7    1  0.4621547E-010  0.4778728E+02  0.7816164E-02  0.1312668E+00
        -11   -1    0    0    0    0  0.00000000000E+00  0.00000000000E+00  0.45593999997E+02  0.45594000000E+02  0.51100000000E-03 0. -1.
         11   -1    0    0    0    0 -0.00000000000E+00 -0.00000000000E+00 -0.45593999997E+02  0.45594000000E+02  0.51100000000E-03 0.  1.
    9900012    2    1    2    0    0  0.28628531071E+02  0.28745170194E+02 -0.15418987667E+02  0.47787276718E+02  0.20000025866E+02 0.  0.
        -12    1    1    2    0    0 -0.28628531071E+02 -0.28745170194E+02  0.15418987667E+02  0.43400723282E+02  0.00000000000E+00 0.  1.
         11    1    3    3    0    0  0.11095316670E+02  0.71317913298E+01 -0.44291355373E+01  0.13913509314E+02  0.51100000000E-03 0. -1.
        -11    1    3    3    0    0  0.48716719922E+01  0.51234753134E+00  0.28231017596E+01  0.56538121474E+01  0.51100000000E-03 0.  1.
         12    1    3    3    0    0  0.12661542409E+02  0.21101031333E+02 -0.13812953890E+02  0.28219955256E+02  0.00000000000E+00 0. -1.
</event>
<event>
 7    1  0.4621547E-010  0.4778727E+02  0.7816164E-02  0.1312668E+00
        -11   -1    0    0    0    0  0.00000000000E+00  0.00000000000E+00  0.45593999997E+02  0.45594000000E+02  0.51100000000E-03 0. -1.
         11   -1    0    0    0    0 -0.00000000000E+00 -0.00000000000E+00 -0.45593999997E+02  0.45594000000E+02  0.51100000000E-03 0.  1.
    9900012    2    1    2    0    0  0.64660037195E+01 -0.42841093017E+02  0.25406568942E+01  0.47787269678E+02  0.19999993771E+02 0.  0.
        -12    1    1    2    0    0 -0.64660037195E+01  0.42841093017E+02 -0.25406568942E+01  0.43400730322E+02  0.00000000000E+00 0.  1.
         11    1    3    3    0    0  0.24514652291E+01 -0.20127152180E+01 -0.27775316802E+00  0.31839992779E+01  0.51100000000E-03 0. -1.
        -11    1    3    3    0    0  0.99424208037E+01 -0.16521092539E+02 -0.92940333916E+00  0.19304455987E+02  0.51100000000E-03 0.  1.
         12    1    3    3    0    0 -0.59278823133E+01 -0.24307285260E+02  0.37478134014E+01  0.25298814413E+02  0.00000000000E+00 0. -1.
</event>
<event>
 7    1  0.4621547E-010  0.4778724E+02  0.7816164E-02  0.1312668E+00
        -11   -1    0    0    0    0  0.00000000000E+00  0.00000000000E+00  0.45593999997E+02  0.45594000000E+02  0.51100000000E-03 0.  1.
         11   -1    0    0    0    0 -0.00000000000E+00 -0.00000000000E+00 -0.45593999997E+02  0.45594000000E+02  0.51100000000E-03 0. -1.
    9900012    2    1    2    0    0  0.47420064123E+01  0.19059746450E+02 -0.38702262130E+02  0.47787243630E+02  0.19999875005E+02 0.  0.
        -12    1    1    2    0    0 -0.47420064123E+01 -0.19059746450E+02  0.38702262130E+02  0.43400756370E+02  0.00000000000E+00 0.  1.
         11    1    3    3    0    0 -0.21747480517E+01  0.92582708459E+01 -0.10235546252E+02  0.13971811460E+02  0.51100000000E-03 0. -1.
        -11    1    3    3    0    0 -0.37341496821E+01  0.57500662888E+01 -0.10777198214E+02  0.12773219554E+02  0.51100000000E-03 0.  1.
        -12    1    3    3    0    0  0.10650904146E+02  0.40514093148E+01 -0.17689517665E+02  0.21042212616E+02  0.00000000000E+00 0.  1.
</event>
<event>
 7    1  0.4621547E-010  0.4778727E+02  0.7816164E-02  0.1312668E+00
        -11   -1    0    0    0    0  0.00000000000E+00  0.00000000000E+00  0.45593999997E+02  0.45594000000E+02  0.51100000000E-03 0.  1.
         11   -1    0    0    0    0 -0.00000000000E+00 -0.00000000000E+00 -0.45593999997E+02  0.45594000000E+02  0.51100000000E-03 0. -1.
    9900012    2    1    2    0    0 -0.32511922142E+02  0.72002949671E+01 -0.27834400814E+02  0.47787271922E+02  0.20000004002E+02 0.  0.
        -12    1    1    2    0    0  0.32511922142E+02 -0.72002949671E+01  0.27834400814E+02  0.43400728078E+02  0.00000000000E+00 0.  1.
         11    1    3    3    0    0 -0.15558240983E+02 -0.20704728771E+00 -0.11788947547E+02  0.19521296462E+02  0.51100000000E-03 0. -1.
        -11    1    3    3    0    0 -0.12099104555E+02 -0.22439403234E+01 -0.10195573101E+02  0.15980403948E+02  0.51100000000E-03 0.  1.
        -12    1    3    3    0    0 -0.48545766046E+01  0.96512825782E+01 -0.58498801669E+01  0.12285571512E+02  0.00000000000E+00 0.  1.
</event>
<event>
 7    1  0.4621547E-010  0.4778727E+02  0.7816164E-02  0.1312668E+00
        -11   -1    0    0    0    0  0.00000000000E+00  0.00000000000E+00  0.45593999997E+02  0.45594000000E+02  0.51100000000E-03 0.  1.
         11   -1    0    0    0    0 -0.00000000000E+00 -0.00000000000E+00 -0.45593999997E+02  0.45594000000E+02  0.51100000000E-03 0. -1.
    9900012    2    1    2    0    0  0.10861196910E+02  0.16785949400E+02 -0.38521289745E+02  0.47787268910E+02  0.19999990267E+02 0.  0.
        -12    1    1    2    0    0 -0.10861196910E+02 -0.16785949400E+02  0.38521289745E+02  0.43400731090E+02  0.00000000000E+00 0.  1.
         11    1    3    3    0    0  0.45854313277E+01  0.13754125687E+02 -0.17230018073E+02  0.22518340901E+02  0.51100000000E-03 0. -1.
        -11    1    3    3    0    0  0.53479602265E+01  0.54144744220E+01 -0.58013040337E+01  0.95693437917E+01  0.51100000000E-03 0.  1.
         12    1    3    3    0    0  0.92780535550E+00 -0.23826507085E+01 -0.15489967638E+02  0.15699584217E+02  0.00000000000E+00 0. -1.
</event>
<event>
 7    1  0.4621547E-010  0.4778727E+02  0.7816164E-02  0.1312668E+00
        -11   -1    0    0    0    0  0.00000000000E+00  0.00000000000E+00  0.45593999997E+02  0.45594000000E+02  0.51100000000E-03 0. -1.
         11   -1    0    0    0    0 -0.00000000000E+00 -0.00000000000E+00 -0.45593999997E+02  0.45594000000E+02  0.51100000000E-03 0.  1.
    9900012    2    1    2    0    0  0.30914810943E+02 -0.24996059699E+02  0.17409609102E+02  0.47787273909E+02  0.20000013062E+02 0.  0.
        -12    1    1    2    0    0 -0.30914810943E+02  0.24996059699E+02 -0.17409609102E+02  0.43400726091E+02  0.00000000000E+00 0.  1.
         11    1    3    3    0    0 -0.86409182764E+00  0.22824286196E+00  0.20561574371E+01  0.22419931218E+01  0.51100000000E-03 0. -1.
        -11    1    3    3    0    0  0.34115203922E+01 -0.97681264619E+01  0.57802613731E+01  0.11851843222E+02  0.51100000000E-03 0.  1.
         12    1    3    3    0    0  0.28367382379E+02 -0.15456176099E+02  0.95731902914E+01  0.33693437565E+02  0.00000000000E+00 0. -1.
</event>
<event>
 7    1  0.4621547E-010  0.4778727E+02  0.7816164E-02  0.1312668E+00
        -11   -1    0    0    0    0  0.00000000000E+00  0.00000000000E+00  0.45593999997E+02  0.45594000000E+02  0.51100000000E-03 0.  1.
         11   -1    0    0    0    0 -0.00000000000E+00 -0.00000000000E+00 -0.45593999997E+02  0.45594000000E+02  0.51100000000E-03 0. -1.
    9900012    2    1    2    0    0  0.25520502799E+02 -0.26475560069E+02 -0.23051513068E+02  0.47787267301E+02  0.19999982932E+02 0.  0.
        -12    1    1    2    0    0 -0.25520502799E+02  0.26475560069E+02  0.23051513068E+02  0.43400732699E+02  0.00000000000E+00 0.  1.
         11    1    3    3    0    0  0.16979159390E+02 -0.50515852729E+01 -0.57468120577E+01  0.18623539310E+02  0.51100000000E-03 0. -1.
        -11    1    3    3    0    0  0.18103064869E+00 -0.20915863396E+01 -0.35754390292E+00  0.21296345732E+01  0.51100000000E-03 0.  1.
        -12    1    3    3    0    0  0.83603127608E+01 -0.19332388456E+02 -0.16947157107E+02  0.27034093418E+02  0.00000000000E+00 0.  1.
</event>
<event>
 7    1  0.4621547E-010  0.4778727E+02  0.7816164E-02  0.1312668E+00
        -11   -1    0    0    0    0  0.00000000000E+00  0.00000000000E+00  0.45593999997E+02  0.45594000000E+02  0.51100000000E-03 0.  1.
         11   -1    0    0    0    0 -0.00000000000E+00 -0.00000000000E+00 -0.45593999997E+02  0.45594000000E+02  0.51100000000E-03 0. -1.
    9900012    2    1    2    0    0 -0.11257242950E+02  0.27922899070E+02 -0.31260349220E+02  0.47787271380E+02  0.20000001532E+02 0.  0.
        -12    1    1    2    0    0  0.11257242950E+02 -0.27922899070E+02  0.31260349220E+02  0.43400728620E+02  0.00000000000E+00 0.  1.
         11    1    3    3    0    0 -0.16392809497E+01  0.50758432636E+01 -0.11804363516E+02  0.12953548748E+02  0.51100000000E-03 0. -1.
        -11    1    3    3    0    0 -0.10750906027E+02  0.18825878978E+02 -0.21185578613E+02  0.30312117068E+02  0.51100000000E-03 0.  1.
        -12    1    3    3    0    0  0.11329440264E+01  0.40211768283E+01  0.17295929092E+01  0.45216055647E+01  0.00000000000E+00 0.  1.
</event>
<event>
 7    1  0.4621547E-010  0.4778727E+02  0.7816164E-02  0.1312668E+00
        -11   -1    0    0    0    0  0.00000000000E+00  0.00000000000E+00  0.45593999997E+02  0.45594000000E+02  0.51100000000E-03 0.  1.
         11   -1    0    0    0    0 -0.00000000000E+00 -0.00000000000E+00 -0.45593999997E+02  0.45594000000E+02  0.51100000000E-03 0. -1.
    9900012    2    1    2    0    0 -0.56226013337E-01 -0.81699205623E+01 -0.42624790467E+02  0.47787268143E+02  0.19999986773E+02 0.  0.
        -12    1    1    2    0    0  0.56226013337E-01  0.81699205623E+01  0.42624790467E+02  0.43400731857E+02  0.00000000000E+00 0.  1.
         11    1    3    3    0    0  0.53453790264E+01 -0.28582178289E+01 -0.15610728933E+02  0.16746263588E+02  0.51100000000E-03 0. -1.
        -11    1    3    3    0    0  0.10426048232E+01 -0.78929546244E+01 -0.17845004672E+02  0.19540469532E+02  0.51100000000E-03 0.  1.
        -12    1    3    3    0    0 -0.64442098630E+01  0.25812518910E+01 -0.91690568617E+01  0.11500535023E+02  0.00000000000E+00 0.  1.
</event>
<event>
 7    1  0.4621547E-010  0.4778726E+02  0.7816164E-02  0.1312668E+00
        -11   -1    0    0    0    0  0.00000000000E+00  0.00000000000E+00  0.45593999997E+02  0.45594000000E+02  0.51100000000E-03 0. -1.
         11   -1    0    0    0    0 -0.00000000000E+00 -0.00000000000E+00 -0.45593999997E+02  0.45594000000E+02  0.51100000000E-03 0.  1.
    9900012    2    1    2    0    0 -0.18748303055E+02  0.10917936884E+02  0.37588877759E+02  0.47787263320E+02  0.19999964779E+02 0.  0.
        -12    1    1    2    0    0  0.18748303055E+02 -0.10917936884E+02 -0.37588877759E+02  0.43400736680E+02  0.00000000000E+00 0.  1.
         11    1    3    3    0    0 -0.27534530330E+01 -0.16772116409E+01 -0.54641195801E+00  0.32700319237E+01  0.51100000000E-03 0. -1.
        -11    1    3    3    0    0 -0.68935520450E+01 -0.43582876671E+00  0.14111044672E+02  0.15710906674E+02  0.51100000000E-03 0.  1.
         12    1    3    3    0    0 -0.91012979774E+01  0.13030977291E+02  0.24024245044E+02  0.28806324722E+02  0.00000000000E+00 0. -1.
</event>
<event>
 7    1  0.4621547E-010  0.4778727E+02  0.7816164E-02  0.1312668E+00
        -11   -1    0    0    0    0  0.00000000000E+00  0.00000000000E+00  0.45593999997E+02  0.45594000000E+02  0.51100000000E-03 0.  1.
         11   -1    0    0    0    0 -0.00000000000E+00 -0.00000000000E+00 -0.45593999997E+02  0.45594000000E+02  0.51100000000E-03 0. -1.
    9900012    2    1    2    0    0  0.17222114953E+02 -0.46542128829E+01 -0.39564631179E+02  0.47787274414E+02  0.20000015365E+02 0.  0.
        -12    1    1    2    0    0 -0.17222114953E+02  0.46542128829E+01  0.39564631179E+02  0.43400725586E+02  0.00000000000E+00 0.  1.
         11    1    3    3    0    0  0.35351167980E+01 -0.12159474358E+01 -0.87859474442E+01  0.95482171999E+01  0.51100000000E-03 0. -1.
        -11    1    3    3    0    0  0.52457300106E+01  0.22206230892E+01  0.13479909449E+00  0.56979839685E+01  0.51100000000E-03 0.  1.
        -12    1    3    3    0    0  0.84412681447E+01 -0.56588885362E+01 -0.30913482829E+02  0.32541073246E+02  0.00000000000E+00 0.  1.
</event>
<event>
 7    1  0.4621547E-010  0.4778732E+02  0.7816164E-02  0.1312668E+00
        -11   -1    0    0    0    0  0.00000000000E+00  0.00000000000E+00  0.45593999997E+02  0.45594000000E+02  0.51100000000E-03 0.  1.
         11   -1    0    0    0    0 -0.00000000000E+00 -0.00000000000E+00 -0.45593999997E+02  0.45594000000E+02  0.51100000000E-03 0. -1.
    9900012    2    1    2    0    0  0.40964615595E+02 -0.45641111924E+01 -0.13590005162E+02  0.47787319336E+02  0.20000220178E+02 0.  0.
        -12    1    1    2    0    0 -0.40964615595E+02  0.45641111924E+01  0.13590005162E+02  0.43400680664E+02  0.00000000000E+00 0.  1.
         11    1    3    3    0    0  0.29145376440E+02 -0.57562922794E+01 -0.43848709962E+01  0.30030234141E+02  0.51100000000E-03 0. -1.
        -11    1    3    3    0    0  0.13464989921E+02  0.89430184143E+00 -0.79127626079E+01  0.15643450441E+02  0.51100000000E-03 0.  1.
        -12    1    3    3    0    0 -0.16457507660E+01  0.29787924557E+00 -0.12923715582E+01  0.21136347539E+01  0.00000000000E+00 0.  1.
</event>
<event>
 7    1  0.4621547E-010  0.4778728E+02  0.7816164E-02  0.1312668E+00
        -11   -1    0    0    0    0  0.00000000000E+00  0.00000000000E+00  0.45593999997E+02  0.45594000000E+02  0.51100000000E-03 0. -1.
         11   -1    0    0    0    0 -0.00000000000E+00 -0.00000000000E+00 -0.45593999997E+02  0.45594000000E+02  0.51100000000E-03 0.  1.
    9900012    2    1    2    0    0  0.22690779066E+02 -0.15246722403E+02  0.33708884971E+02  0.47787275068E+02  0.20000018346E+02 0.  0.
        -12    1    1    2    0    0 -0.22690779066E+02  0.15246722403E+02 -0.33708884971E+02  0.43400724932E+02  0.00000000000E+00 0.  1.
         11    1    3    3    0    0  0.26398040317E+01 -0.45742228059E+01  0.20326606675E+01  0.56589565517E+01  0.51100000000E-03 0. -1.
        -11    1    3    3    0    0  0.20805301604E+01  0.40431922955E+01  0.51106788779E+01  0.68406906479E+01  0.51100000000E-03 0.  1.
         12    1    3    3    0    0  0.17970444874E+02 -0.14715691892E+02  0.26565545426E+02  0.35287627868E+02  0.00000000000E+00 0. -1.
</event>
<event>
 7    1  0.4621547E-010  0.4778728E+02  0.7816164E-02  0.1312668E+00
        -11   -1    0    0    0    0  0.00000000000E+00  0.00000000000E+00  0.45593999997E+02  0.45594000000E+02  0.51100000000E-03 0. -1.
         11   -1    0    0    0    0 -0.00000000000E+00 -0.00000000000E+00 -0.45593999997E+02  0.45594000000E+02  0.51100000000E-03 0.  1.
    9900012    2    1    2    0    0  0.36436955429E+02  0.20239964241E+02 -0.12096073169E+02  0.47787275819E+02  0.20000021767E+02 0.  0.
        -12    1    1    2    0    0 -0.36436955429E+02 -0.20239964241E+02  0.12096073169E+02  0.43400724181E+02  0.00000000000E+00 0.  1.
         11    1    3    3    0    0 -0.68684324856E+00 -0.10194031675E+01 -0.13732186636E+00  0.12368484232E+01  0.51100000000E-03 0. -1.
        -11    1    3    3    0    0  0.13721644213E+02  0.62667858447E+01 -0.11127786550E+02  0.18745232954E+02  0.51100000000E-03 0.  1.
         12    1    3    3    0    0  0.23402154464E+02  0.14992581564E+02 -0.83096475214E+00  0.27805194441E+02  0.00000000000E+00 0. -1.
</event>
<event>
 7    1  0.4621547E-010  0.4778728E+02  0.7816164E-02  0.1312668E+00
        -11   -1    0    0    0    0  0.00000000000E+00  0.00000000000E+00  0.45593999997E+02  0.45594000000E+02  0.51100000000E-03 0. -1.
         11   -1    0    0    0    0 -0.00000000000E+00 -0.00000000000E+00 -0.45593999997E+02  0.45594000000E+02  0.51100000000E-03 0.  1.
    9900012    2    1    2    0    0 -0.81715139335E+01  0.34104704931E+02  0.25567914903E+02  0.47787276378E+02  0.20000024319E+02 0.  0.
        -12    1    1    2    0    0  0.81715139335E+01 -0.34104704931E+02 -0.25567914903E+02  0.43400723622E+02  0.00000000000E+00 0.  1.
         11    1    3    3    0    0  0.60001067540E-01  0.35253337858E+00  0.38189384860E+01  0.38356448392E+01  0.51100000000E-03 0. -1.
        -11    1    3    3    0    0 -0.73491920793E+01  0.32357964952E+02  0.24148921848E+02  0.41039236673E+02  0.51100000000E-03 0.  1.
        -12    1    3    3    0    0 -0.88232292177E+00  0.13942066004E+01 -0.23999454308E+01  0.29123948657E+01  0.00000000000E+00 0.  1.
</event>
<event>
 7    1  0.4621547E-010  0.4778727E+02  0.7816164E-02  0.1312668E+00
        -11   -1    0    0    0    0  0.00000000000E+00  0.00000000000E+00  0.45593999997E+02  0.45594000000E+02  0.51100000000E-03 0.  1.
         11   -1    0    0    0    0 -0.00000000000E+00 -0.00000000000E+00 -0.45593999997E+02  0.45594000000E+02  0.51100000000E-03 0. -1.
    9900012    2    1    2    0    0  0.14529238939E+02 -0.38387853363E+02 -0.14103094962E+02  0.47787270081E+02  0.19999995607E+02 0.  0.
        -12    1    1    2    0    0 -0.14529238939E+02  0.38387853363E+02  0.14103094962E+02  0.43400729919E+02  0.00000000000E+00 0.  1.
         11    1    3    3    0    0  0.98774104151E+01 -0.16555830967E+02 -0.71883603281E+01  0.20575016403E+02  0.51100000000E-03 0. -1.
        -11    1    3    3    0    0  0.65423887743E+01 -0.33342054826E+01  0.86908675779E-01  0.73435230274E+01  0.51100000000E-03 0.  1.
         12    1    3    3    0    0 -0.18905602504E+01 -0.18497816913E+02 -0.70016433096E+01  0.19868730650E+02  0.00000000000E+00 0. -1.
</event>
<event>
 7    1  0.4621547E-010  0.4778727E+02  0.7816164E-02  0.1312668E+00
        -11   -1    0    0    0    0  0.00000000000E+00  0.00000000000E+00  0.45593999997E+02  0.45594000000E+02  0.51100000000E-03 0.  1.
         11   -1    0    0    0    0 -0.00000000000E+00 -0.00000000000E+00 -0.45593999997E+02  0.45594000000E+02  0.51100000000E-03 0. -1.
    9900012    2    1    2    0    0  0.98856827988E+01 -0.39757212245E+02  0.14326911542E+02  0.47787273690E+02  0.20000012064E+02 0.  0.
        -12    1    1    2    0    0 -0.98856827988E+01  0.39757212245E+02 -0.14326911542E+02  0.43400726310E+02  0.00000000000E+00 0.  1.
         11    1    3    3    0    0 -0.87216248235E+00 -0.13065630367E+02  0.67807331143E+01  0.14746175982E+02  0.51100000000E-03 0. -1.
        -11    1    3    3    0    0 -0.25496666507E+01 -0.62183259662E+01 -0.16976800027E+01  0.69318464715E+01  0.51100000000E-03 0.  1.
         12    1    3    3    0    0  0.13307511932E+02 -0.20473255912E+02  0.92438584307E+01  0.26109251236E+02  0.00000000000E+00 0. -1.
</event>
<event>
 7    1  0.4621547E-010  0.4778727E+02  0.7816164E-02  0.1312668E+00
        -11   -1    0    0    0    0  0.00000000000E+00  0.00000000000E+00  0.45593999997E+02  0.45594000000E+02  0.51100000000E-03 0.  1.
         11   -1    0    0    0    0 -0.00000000000E+00 -0.00000000000E+00 -0.45593999997E+02  0.45594000000E+02  0.51100000000E-03 0. -1.
    9900012    2    1    2    0    0  0.42588017154E+02  0.77582381318E+01  0.31134976346E+01  0.47787270380E+02  0.19999996969E+02 0.  0.
        -12    1    1    2    0    0 -0.42588017154E+02 -0.77582381318E+01 -0.31134976346E+01  0.43400729620E+02  0.00000000000E+00 0.  1.
         11    1    3    3    0    0  0.10946851789E+02  0.78701599715E+01 -0.17211949728E+01  0.13591743613E+02  0.51100000000E-03 0. -1.
        -11    1    3    3    0    0  0.12685299680E+01  0.18486562315E+01  0.29446701933E+01  0.37010513304E+01  0.51100000000E-03 0.  1.
        -12    1    3    3    0    0  0.30372635398E+02 -0.19605780713E+01  0.18900224141E+01  0.30494475436E+02  0.00000000000E+00 0.  1.
</event>
<event>
 7    1  0.4621547E-010  0.4778728E+02  0.7816164E-02  0.1312668E+00
        -11   -1    0    0    0    0  0.00000000000E+00  0.00000000000E+00  0.45593999997E+02  0.45594000000E+02  0.51100000000E-03 0. -1.
         11   -1    0    0    0    0 -0.00000000000E+00 -0.00000000000E+00 -0.45593999997E+02  0.45594000000E+02  0.51100000000E-03 0.  1.
    9900012    2    1    2    0    0 -0.59793857159E+01  0.42223794501E+02  0.80635589522E+01  0.47787275829E+02  0.20000021815E+02 0.  0.
        -12    1    1    2    0    0  0.59793857159E+01 -0.42223794501E+02 -0.80635589522E+01  0.43400724171E+02  0.00000000000E+00 0.  1.
         11    1    3    3    0    0  0.26685984685E+01  0.13476489394E+01 -0.13873475517E+01  0.32958017144E+01  0.51100000000E-03 0.  1.
        -11    1    3    3    0    0 -0.33685912137E+01  0.77466553083E+01  0.67911125135E+01  0.10838693863E+02  0.51100000000E-03 0. -1.
        -12    1    3    3    0    0 -0.52793929707E+01  0.33129490253E+02  0.26597939904E+01  0.33652780251E+02  0.00000000000E+00 0.  1.
</event>
<event>
 7    1  0.4621547E-010  0.4778728E+02  0.7816164E-02  0.1312668E+00
        -11   -1    0    0    0    0  0.00000000000E+00  0.00000000000E+00  0.45593999997E+02  0.45594000000E+02  0.51100000000E-03 0.  1.
         11   -1    0    0    0    0 -0.00000000000E+00 -0.00000000000E+00 -0.45593999997E+02  0.45594000000E+02  0.51100000000E-03 0. -1.
    9900012    2    1    2    0    0  0.56059757950E+01 -0.41827300599E+02 -0.10132736747E+02  0.47787281181E+02  0.20000046216E+02 0.  0.
        -12    1    1    2    0    0 -0.56059757950E+01  0.41827300599E+02  0.10132736747E+02  0.43400718819E+02  0.00000000000E+00 0.  1.
         11    1    3    3    0    0 -0.15037961570E+01 -0.44067169377E+01  0.11752597675E+01  0.48022695502E+01  0.51100000000E-03 0. -1.
        -11    1    3    3    0    0 -0.10038125906E+01 -0.15345100892E+02  0.26956996973E+01  0.15612384771E+02  0.51100000000E-03 0.  1.
         12    1    3    3    0    0  0.81135845426E+01 -0.22075482769E+02 -0.14003696211E+02  0.27372626860E+02  0.00000000000E+00 0. -1.
</event>
<event>
 7    1  0.4621547E-010  0.4778727E+02  0.7816164E-02  0.1312668E+00
        -11   -1    0    0    0    0  0.00000000000E+00  0.00000000000E+00  0.45593999997E+02  0.45594000000E+02  0.51100000000E-03 0.  1.
         11   -1    0    0    0    0 -0.00000000000E+00 -0.00000000000E+00 -0.45593999997E+02  0.45594000000E+02  0.51100000000E-03 0. -1.
    9900012    2    1    2    0    0 -0.17701508927E+02  0.38036019449E+02 -0.11114890807E+02  0.47787274298E+02  0.20000014835E+02 0.  0.
        -12    1    1    2    0    0  0.17701508927E+02 -0.38036019449E+02  0.11114890807E+02  0.43400725702E+02  0.00000000000E+00 0.  1.
         11    1    3    3    0    0 -0.49169546225E+01  0.13414359245E+02 -0.57610016596E+01  0.15404889389E+02  0.51100000000E-03 0. -1.
        -11    1    3    3    0    0 -0.88791921853E+01  0.24361042041E+02 -0.22387270315E+00  0.25929723146E+02  0.51100000000E-03 0.  1.
         12    1    3    3    0    0 -0.39053621189E+01  0.26061816257E+00 -0.51300164440E+01  0.64526617626E+01  0.00000000000E+00 0. -1.
</event>
<event>
 7    1  0.4621547E-010  0.4778727E+02  0.7816164E-02  0.1312668E+00
        -11   -1    0    0    0    0  0.00000000000E+00  0.00000000000E+00  0.45593999997E+02  0.45594000000E+02  0.51100000000E-03 0. -1.
         11   -1    0    0    0    0 -0.00000000000E+00 -0.00000000000E+00 -0.45593999997E+02  0.45594000000E+02  0.51100000000E-03 0.  1.
    9900012    2    1    2    0    0 -0.19822270753E+02  0.38437598199E+02  0.36403398388E+01  0.47787269047E+02  0.19999990894E+02 0.  0.
        -12    1    1    2    0    0  0.19822270753E+02 -0.38437598199E+02 -0.36403398388E+01  0.43400730953E+02  0.00000000000E+00 0.  1.
         11    1    3    3    0    0  0.35617657615E+00  0.10989189695E+02  0.67686785260E+01  0.12911396561E+02  0.51100000000E-03 0. -1.
        -11    1    3    3    0    0 -0.11282931747E+02  0.12702407785E+02  0.14637171505E+01  0.17052805649E+02  0.51100000000E-03 0.  1.
        -12    1    3    3    0    0 -0.88955155827E+01  0.14746000718E+02 -0.45920558377E+01  0.17823066837E+02  0.00000000000E+00 0.  1.
</event>
<event>
 7    1  0.4621547E-010  0.4778727E+02  0.7816164E-02  0.1312668E+00
        -11   -1    0    0    0    0  0.00000000000E+00  0.00000000000E+00  0.45593999997E+02  0.45594000000E+02  0.51100000000E-03 0. -1.
         11   -1    0    0    0    0 -0.00000000000E+00 -0.00000000000E+00 -0.45593999997E+02  0.45594000000E+02  0.51100000000E-03 0.  1.
    9900012    2    1    2    0    0 -0.14543912794E+02 -0.39858114960E+02 -0.91339323723E+01  0.47787269037E+02  0.19999990849E+02 0.  0.
        -12    1    1    2    0    0  0.14543912794E+02  0.39858114960E+02  0.91339323723E+01  0.43400730963E+02  0.00000000000E+00 0.  1.
         11    1    3    3    0    0 -0.88428617342E+01 -0.33012489442E+02 -0.23109845628E+01  0.34254361952E+02  0.51100000000E-03 0. -1.
        -11    1    3    3    0    0  0.14479488746E+01 -0.25417368603E+01 -0.29844017926E+00  0.29404164692E+01  0.51100000000E-03 0.  1.
        -12    1    3    3    0    0 -0.71489999346E+01 -0.43038886569E+01 -0.65245076302E+01  0.10592490616E+02  0.00000000000E+00 0.  1.
</event>
<event>
 7    1  0.4621547E-010  0.4778727E+02  0.7816164E-02  0.1312668E+00
        -11   -1    0    0    0    0  0.00000000000E+00  0.00000000000E+00  0.45593999997E+02  0.45594000000E+02  0.51100000000E-03 0. -1.
         11   -1    0    0    0    0 -0.00000000000E+00 -0.00000000000E+00 -0.45593999997E+02  0.45594000000E+02  0.51100000000E-03 0.  1.
    9900012    2    1    2    0    0 -0.41735193972E+02  0.10351444678E+02 -0.58859514705E+01  0.47787271348E+02  0.20000001383E+02 0.  0.
        -12    1    1    2    0    0  0.41735193972E+02 -0.10351444678E+02  0.58859514705E+01  0.43400728652E+02  0.00000000000E+00 0.  1.
         11    1    3    3    0    0 -0.28231979554E+02  0.77390107928E+01 -0.57394001973E+01  0.29830817496E+02  0.51100000000E-03 0. -1.
        -11    1    3    3    0    0 -0.12395732105E+02 -0.21044173754E+01 -0.20721562565E+01  0.12742706884E+02  0.51100000000E-03 0.  1.
        -12    1    3    3    0    0 -0.11074823127E+01  0.47168512610E+01  0.19256049834E+01  0.52137469678E+01  0.00000000000E+00 0.  1.
</event>
<event>
 7    1  0.4621547E-010  0.4778727E+02  0.7816164E-02  0.1312668E+00
        -11   -1    0    0    0    0  0.00000000000E+00  0.00000000000E+00  0.45593999997E+02  0.45594000000E+02  0.51100000000E-03 0.  1.
         11   -1    0    0    0    0 -0.00000000000E+00 -0.00000000000E+00 -0.45593999997E+02  0.45594000000E+02  0.51100000000E-03 0. -1.
    9900012    2    1    2    0    0  0.16974994910E+02  0.26896154449E+02 -0.29530827788E+02  0.47787269981E+02  0.19999995151E+02 0.  0.
        -12    1    1    2    0    0 -0.16974994910E+02 -0.26896154449E+02  0.29530827788E+02  0.43400730019E+02  0.00000000000E+00 0.  1.
         11    1    3    3    0    0  0.44707065034E+01  0.25906139221E+01  0.19327545921E+00  0.51706723738E+01  0.51100000000E-03 0. -1.
        -11    1    3    3    0    0 -0.12220988678E+01 -0.78738310553E+00 -0.35895797789E+01  0.38728001559E+01  0.51100000000E-03 0.  1.
         12    1    3    3    0    0  0.13726387274E+02  0.25092923633E+02 -0.26134523468E+02  0.38743797451E+02  0.00000000000E+00 0. -1.
</event>
<event>
 7    1  0.4621547E-010  0.4778727E+02  0.7816164E-02  0.1312668E+00
        -11   -1    0    0    0    0  0.00000000000E+00  0.00000000000E+00  0.45593999997E+02  0.45594000000E+02  0.51100000000E-03 0.  1.
         11   -1    0    0    0    0 -0.00000000000E+00 -0.00000000000E+00 -0.45593999997E+02  0.45594000000E+02  0.51100000000E-03 0. -1.
    9900012    2    1    2    0    0  0.18216810295E+02 -0.10974150782E+02 -0.37833048724E+02  0.47787265692E+02  0.19999975597E+02 0.  0.
        -12    1    1    2    0    0 -0.18216810295E+02  0.10974150782E+02  0.37833048724E+02  0.43400734308E+02  0.00000000000E+00 0.  1.
         11    1    3    3    0    0  0.50686444678E+01  0.91736101152E+00 -0.85797867896E+01  0.10007269837E+02  0.51100000000E-03 0.  1.
        -11    1    3    3    0    0  0.15685672597E+02 -0.12796145808E+02 -0.28545431222E+02  0.34994618390E+02  0.51100000000E-03 0. -1.
         12    1    3    3    0    0 -0.25375067696E+01  0.90463401488E+00 -0.70783071204E+00  0.27853774652E+01  0.00000000000E+00 0. -1.
</event>
<event>
 7    1  0.4621547E-010  0.4778727E+02  0.7816164E-02  0.1312668E+00
        -11   -1    0    0    0    0  0.00000000000E+00  0.00000000000E+00  0.45593999997E+02  0.45594000000E+02  0.51100000000E-03 0. -1.
         11   -1    0    0    0    0 -0.00000000000E+00 -0.00000000000E+00 -0.45593999997E+02  0.45594000000E+02  0.51100000000E-03 0.  1.
    9900012    2    1    2    0    0 -0.57534773962E+01  0.23892022272E+02  0.35772784333E+02  0.47787270405E+02  0.19999997086E+02 0.  0.
        -12    1    1    2    0    0  0.57534773962E+01 -0.23892022272E+02 -0.35772784333E+02  0.43400729595E+02  0.00000000000E+00 0.  1.
         11    1    3    3    0    0 -0.60241699683E+01  0.19426791977E+02  0.13334646018E+02  0.24320848155E+02  0.51100000000E-03 0. -1.
        -11    1    3    3    0    0 -0.17954095058E+01 -0.64940727102E-01  0.43726773392E+01  0.47273692436E+01  0.51100000000E-03 0.  1.
        -12    1    3    3    0    0  0.20661020778E+01  0.45301710228E+01  0.18065460976E+02  0.18739053006E+02  0.00000000000E+00 0.  1.
</event>
<event>
 7    1  0.4621547E-010  0.4778728E+02  0.7816164E-02  0.1312668E+00
        -11   -1    0    0    0    0  0.00000000000E+00  0.00000000000E+00  0.45593999997E+02  0.45594000000E+02  0.51100000000E-03 0. -1.
         11   -1    0    0    0    0 -0.00000000000E+00 -0.00000000000E+00 -0.45593999997E+02  0.45594000000E+02  0.51100000000E-03 0.  1.
    9900012    2    1    2    0    0  0.30101429541E+02  0.27830753972E+02  0.14246962676E+02  0.47787275667E+02  0.20000021078E+02 0.  0.
        -12    1    1    2    0    0 -0.30101429541E+02 -0.27830753972E+02 -0.14246962676E+02  0.43400724333E+02  0.00000000000E+00 0.  1.
         11    1    3    3    0    0  0.82421075469E+01  0.25126521893E+01 -0.32206282264E+00  0.86226146013E+01  0.51100000000E-03 0. -1.
        -11    1    3    3    0    0  0.50854193999E+01 -0.41502158675E+00  0.46009051209E+01  0.68703756508E+01  0.51100000000E-03 0.  1.
        -12    1    3    3    0    0  0.16773902594E+02  0.25733123370E+02  0.99681203782E+01  0.32294285415E+02  0.00000000000E+00 0.  1.
</event>
<event>
 7    1  0.4621547E-010  0.4778727E+02  0.7816164E-02  0.1312668E+00
        -11   -1    0    0    0    0  0.00000000000E+00  0.00000000000E+00  0.45593999997E+02  0.45594000000E+02  0.51100000000E-03 0.  1.
         11   -1    0    0    0    0 -0.00000000000E+00 -0.00000000000E+00 -0.45593999997E+02  0.45594000000E+02  0.51100000000E-03 0. -1.
    9900012    2    1    2    0    0 -0.17507930429E+02 -0.36378265823E+02 -0.15928519547E+02  0.47787267435E+02  0.19999983545E+02 0.  0.
        -12    1    1    2    0    0  0.17507930429E+02  0.36378265823E+02  0.15928519547E+02  0.43400732565E+02  0.00000000000E+00 0.  1.
         11    1    3    3    0    0 -0.13517253673E+02 -0.27047287568E+02 -0.11366742407E+02  0.32302859701E+02  0.51100000000E-03 0. -1.
        -11    1    3    3    0    0  0.14685435526E+01 -0.92166859795E+01 -0.30477367374E+01  0.98179743375E+01  0.51100000000E-03 0.  1.
         12    1    3    3    0    0 -0.54592203081E+01 -0.11429227500E+00 -0.15140404027E+01  0.56664333966E+01  0.00000000000E+00 0. -1.
</event>
<event>
 7    1  0.4621547E-010  0.4778727E+02  0.7816164E-02  0.1312668E+00
        -11   -1    0    0    0    0  0.00000000000E+00  0.00000000000E+00  0.45593999997E+02  0.45594000000E+02  0.51100000000E-03 0.  1.
         11   -1    0    0    0    0 -0.00000000000E+00 -0.00000000000E+00 -0.45593999997E+02  0.45594000000E+02  0.51100000000E-03 0. -1.
    9900012    2    1    2    0    0 -0.16011409886E+02 -0.36455247005E+02 -0.17270582759E+02  0.47787270633E+02  0.19999998125E+02 0.  0.
        -12    1    1    2    0    0  0.16011409886E+02  0.36455247005E+02  0.17270582759E+02  0.43400729367E+02  0.00000000000E+00 0.  1.
         11    1    3    3    0    0 -0.92948429674E+01 -0.93920928172E+01 -0.43138792677E+01  0.13900182296E+02  0.51100000000E-03 0. -1.
        -11    1    3    3    0    0 -0.14663572378E+01 -0.74367733862E-01 -0.50777159840E+01  0.52857292764E+01  0.51100000000E-03 0.  1.
         12    1    3    3    0    0 -0.52502096809E+01 -0.26988786454E+02 -0.78789875071E+01  0.28601359060E+02  0.00000000000E+00 0. -1.
</event>
<event>
 7    1  0.4621547E-010  0.4778727E+02  0.7816164E-02  0.1312668E+00
        -11   -1    0    0    0    0  0.00000000000E+00  0.00000000000E+00  0.45593999997E+02  0.45594000000E+02  0.51100000000E-03 0.  1.
         11   -1    0    0    0    0 -0.00000000000E+00 -0.00000000000E+00 -0.45593999997E+02  0.45594000000E+02  0.51100000000E-03 0. -1.
    9900012    2    1    2    0    0 -0.23775946168E+02  0.40168561238E+01 -0.36085902989E+02  0.47787272542E+02  0.20000006829E+02 0.  0.
        -12    1    1    2    0    0  0.23775946168E+02 -0.40168561238E+01  0.36085902989E+02  0.43400727458E+02  0.00000000000E+00 0.  1.
         11    1    3    3    0    0 -0.15945199100E+02  0.23136207792E+01 -0.29281549506E+02  0.33421719842E+02  0.51100000000E-03 0. -1.
        -11    1    3    3    0    0 -0.95534781060E+01  0.34018370199E+01 -0.61466183805E+01  0.11858429778E+02  0.51100000000E-03 0.  1.
        -12    1    3    3    0    0  0.17227310384E+01 -0.16986016752E+01 -0.65773510332E+00  0.25071229224E+01  0.00000000000E+00 0.  1.
</event>
<event>
 7    1  0.6843869E-010  0.4778729E+02  0.7816164E-02  0.1312668E+00
        -11   -1    0    0    0    0  0.00000000000E+00  0.00000000000E+00  0.45593999997E+02  0.45594000000E+02  0.51100000000E-03 0.  1.
         11   -1    0    0    0    0 -0.00000000000E+00 -0.00000000000E+00 -0.45593999997E+02  0.45594000000E+02  0.51100000000E-03 0. -1.
    9900012    2    1    2    0    0 -0.18632583082E+02 -0.31825715411E+02 -0.22881708707E+02  0.47787286791E+02  0.20000071793E+02 0.  0.
        -12    1    1    2    0    0  0.18632583082E+02  0.31825715411E+02  0.22881708707E+02  0.43400713209E+02  0.00000000000E+00 0.  1.
         11    1    3    3    0    0 -0.14690145020E+01 -0.11671436803E+02 -0.10637127294E+02  0.15859663237E+02  0.51100000000E-03 0. -1.
        -11    1    3    3    0    0 -0.18771336943E+00  0.77484721587E+00  0.14834859102E+01  0.16841482191E+01  0.51100000000E-03 0.  1.
         12    1    3    3    0    0 -0.16975855211E+02 -0.20929125824E+02 -0.13728067322E+02  0.30243475335E+02  0.00000000000E+00 0. -1.
</event>
<event>
 7    1  0.4621547E-010  0.4778727E+02  0.7816164E-02  0.1312668E+00
        -11   -1    0    0    0    0  0.00000000000E+00  0.00000000000E+00  0.45593999997E+02  0.45594000000E+02  0.51100000000E-03 0. -1.
         11   -1    0    0    0    0 -0.00000000000E+00 -0.00000000000E+00 -0.45593999997E+02  0.45594000000E+02  0.51100000000E-03 0.  1.
    9900012    2    1    2    0    0 -0.10891523432E+01  0.39822169282E+00  0.43385231159E+02  0.47787272863E+02  0.20000008290E+02 0.  0.
        -12    1    1    2    0    0  0.10891523432E+01 -0.39822169282E+00 -0.43385231159E+02  0.43400727137E+02  0.00000000000E+00 0.  1.
         11    1    3    3    0    0 -0.74932404057E+00  0.46591402739E+01  0.11059869788E+02  0.12024549663E+02  0.51100000000E-03 0. -1.
        -11    1    3    3    0    0  0.40111079047E+01 -0.96504982064E+00  0.13959056660E+01  0.43553255526E+01  0.51100000000E-03 0.  1.
        -12    1    3    3    0    0 -0.43509362073E+01 -0.32958687604E+01  0.30929455705E+02  0.31407397647E+02  0.00000000000E+00 0.  1.
</event>
<event>
 7    1  0.4621547E-010  0.4778727E+02  0.7816164E-02  0.1312668E+00
        -11   -1    0    0    0    0  0.00000000000E+00  0.00000000000E+00  0.45593999997E+02  0.45594000000E+02  0.51100000000E-03 0.  1.
         11   -1    0    0    0    0 -0.00000000000E+00 -0.00000000000E+00 -0.45593999997E+02  0.45594000000E+02  0.51100000000E-03 0. -1.
    9900012    2    1    2    0    0  0.22964647749E+02  0.31768600672E+02 -0.18628044540E+02  0.47787273298E+02  0.20000010275E+02 0.  0.
        -12    1    1    2    0    0 -0.22964647749E+02 -0.31768600672E+02  0.18628044540E+02  0.43400726702E+02  0.00000000000E+00 0.  1.
         11    1    3    3    0    0  0.60648486610E+01  0.25187114794E+01 -0.46033478808E+01  0.80197948085E+01  0.51100000000E-03 0. -1.
        -11    1    3    3    0    0  0.10129571953E+01 -0.18218227036E+01  0.17442952757E+00  0.20917806204E+01  0.51100000000E-03 0.  1.
         12    1    3    3    0    0  0.15886841892E+02  0.31071711896E+02 -0.14199126187E+02  0.37675697869E+02  0.00000000000E+00 0. -1.
</event>
<event>
 7    1  0.4621547E-010  0.4778727E+02  0.7816164E-02  0.1312668E+00
        -11   -1    0    0    0    0  0.00000000000E+00  0.00000000000E+00  0.45593999997E+02  0.45594000000E+02  0.51100000000E-03 0. -1.
         11   -1    0    0    0    0 -0.00000000000E+00 -0.00000000000E+00 -0.45593999997E+02  0.45594000000E+02  0.51100000000E-03 0.  1.
    9900012    2    1    2    0    0 -0.10013470407E+02 -0.30760896314E+02  0.28933043228E+02  0.47787270489E+02  0.19999997467E+02 0.  0.
        -12    1    1    2    0    0  0.10013470407E+02  0.30760896314E+02 -0.28933043228E+02  0.43400729511E+02  0.00000000000E+00 0.  1.
         11    1    3    3    0    0 -0.13899646083E+02 -0.14647479282E+02  0.18803184784E+02  0.27591820687E+02  0.51100000000E-03 0. -1.
        -11    1    3    3    0    0  0.11071041163E+00 -0.80580062407E+01  0.72627872741E+01  0.10848585190E+02  0.51100000000E-03 0.  1.
        -12    1    3    3    0    0  0.37754652642E+01 -0.80554107916E+01  0.28670711704E+01  0.93468646122E+01  0.00000000000E+00 0.  1.
</event>
<event>
 7    1  0.4621547E-010  0.4778727E+02  0.7816164E-02  0.1312668E+00
        -11   -1    0    0    0    0  0.00000000000E+00  0.00000000000E+00  0.45593999997E+02  0.45594000000E+02  0.51100000000E-03 0.  1.
         11   -1    0    0    0    0 -0.00000000000E+00 -0.00000000000E+00 -0.45593999997E+02  0.45594000000E+02  0.51100000000E-03 0. -1.
    9900012    2    1    2    0    0  0.95626155965E+01 -0.10219034129E+02 -0.41082248298E+02  0.47787269582E+02  0.19999993331E+02 0.  0.
        -12    1    1    2    0    0 -0.95626155965E+01  0.10219034129E+02  0.41082248298E+02  0.43400730418E+02  0.00000000000E+00 0.  1.
         11    1    3    3    0    0  0.78252146776E+01 -0.51352466087E+01 -0.18188450718E+02  0.20455426720E+02  0.51100000000E-03 0. -1.
        -11    1    3    3    0    0  0.37287267220E+01 -0.17639311799E+01 -0.23090037985E+02  0.23455590178E+02  0.51100000000E-03 0.  1.
        -12    1    3    3    0    0 -0.19913258031E+01 -0.33198563408E+01  0.19624040509E+00  0.38762526846E+01  0.00000000000E+00 0.  1.
</event>
<event>
 7    1  0.4621547E-010  0.4778723E+02  0.7816164E-02  0.1312668E+00
        -11   -1    0    0    0    0  0.00000000000E+00  0.00000000000E+00  0.45593999997E+02  0.45594000000E+02  0.51100000000E-03 0. -1.
         11   -1    0    0    0    0 -0.00000000000E+00 -0.00000000000E+00 -0.45593999997E+02  0.45594000000E+02  0.51100000000E-03 0.  1.
    9900012    2    1    2    0    0  0.19223908826E+02  0.26369206913E+02  0.28613507846E+02  0.47787233014E+02  0.19999826601E+02 0.  0.
        -12    1    1    2    0    0 -0.19223908826E+02 -0.26369206913E+02 -0.28613507846E+02  0.43400766986E+02  0.00000000000E+00 0.  1.
         11    1    3    3    0    0  0.99957850613E+01  0.11817488870E+02  0.67700199712E+01  0.16893843045E+02  0.51100000000E-03 0. -1.
        -11    1    3    3    0    0  0.82511071178E-02  0.10421896424E+02  0.57806472253E+01  0.11917712690E+02  0.51100000000E-03 0.  1.
         12    1    3    3    0    0  0.92198726578E+01  0.41298216189E+01  0.16062840649E+02  0.18975677278E+02  0.00000000000E+00 0. -1.
</event>
<event>
 7    1  0.4621547E-010  0.4778727E+02  0.7816164E-02  0.1312668E+00
        -11   -1    0    0    0    0  0.00000000000E+00  0.00000000000E+00  0.45593999997E+02  0.45594000000E+02  0.51100000000E-03 0.  1.
         11   -1    0    0    0    0 -0.00000000000E+00 -0.00000000000E+00 -0.45593999997E+02  0.45594000000E+02  0.51100000000E-03 0. -1.
    9900012    2    1    2    0    0 -0.41232669159E+02 -0.59759959730E+01 -0.12156395893E+02  0.47787268497E+02  0.19999988385E+02 0.  0.
        -12    1    1    2    0    0  0.41232669159E+02  0.59759959730E+01  0.12156395893E+02  0.43400731503E+02  0.00000000000E+00 0.  1.
         11    1    3    3    0    0  0.23321215896E+00 -0.74017224354E+00  0.53773341070E+00  0.94414000196E+00  0.51100000000E-03 0. -1.
        -11    1    3    3    0    0 -0.12019033056E+02 -0.32629845059E+01  0.38166123125E+01  0.13025772656E+02  0.51100000000E-03 0.  1.
         12    1    3    3    0    0 -0.29446848263E+02 -0.19728392236E+01 -0.16510741617E+02  0.33817355839E+02  0.00000000000E+00 0. -1.
</event>
<event>
 7    1  0.4621547E-010  0.4778728E+02  0.7816164E-02  0.1312668E+00
        -11   -1    0    0    0    0  0.00000000000E+00  0.00000000000E+00  0.45593999997E+02  0.45594000000E+02  0.51100000000E-03 0. -1.
         11   -1    0    0    0    0 -0.00000000000E+00 -0.00000000000E+00 -0.45593999997E+02  0.45594000000E+02  0.51100000000E-03 0.  1.
    9900012    2    1    2    0    0  0.18363057910E+02  0.32474953180E+02  0.22176525939E+02  0.47787276704E+02  0.20000025806E+02 0.  0.
        -12    1    1    2    0    0 -0.18363057910E+02 -0.32474953180E+02 -0.22176525939E+02  0.43400723296E+02  0.00000000000E+00 0.  1.
         11    1    3    3    0    0  0.18792220467E+02  0.30004301844E+02  0.24482134043E+02  0.43043937631E+02  0.51100000000E-03 0. -1.
        -11    1    3    3    0    0  0.13838661188E+01  0.13701790682E+01 -0.65090009149E+00  0.20533259127E+01  0.51100000000E-03 0.  1.
        -12    1    3    3    0    0 -0.18130286761E+01  0.11004722681E+01 -0.16547080132E+01  0.26900131602E+01  0.00000000000E+00 0.  1.
</event>
<event>
 7    1  0.4621547E-010  0.4778727E+02  0.7816164E-02  0.1312668E+00
        -11   -1    0    0    0    0  0.00000000000E+00  0.00000000000E+00  0.45593999997E+02  0.45594000000E+02  0.51100000000E-03 0. -1.
         11   -1    0    0    0    0 -0.00000000000E+00 -0.00000000000E+00 -0.45593999997E+02  0.45594000000E+02  0.51100000000E-03 0.  1.
    9900012    2    1    2    0    0 -0.33040932283E+02  0.25316108090E+02 -0.12288803603E+02  0.47787271562E+02  0.20000002360E+02 0.  0.
        -12    1    1    2    0    0  0.33040932283E+02 -0.25316108090E+02  0.12288803603E+02  0.43400728438E+02  0.00000000000E+00 0.  1.
         11    1    3    3    0    0 -0.18834286742E+02  0.61476086114E+01  0.29163981033E-01  0.19812226011E+02  0.51100000000E-03 0. -1.
        -11    1    3    3    0    0 -0.44423117118E+01  0.10961795423E+01 -0.22081876081E+01  0.50805349825E+01  0.51100000000E-03 0.  1.
        -12    1    3    3    0    0 -0.97643338293E+01  0.18072319937E+02 -0.10109779976E+02  0.22894510569E+02  0.00000000000E+00 0.  1.
</event>
<event>
 7    1  0.4621547E-010  0.4778728E+02  0.7816164E-02  0.1312668E+00
        -11   -1    0    0    0    0  0.00000000000E+00  0.00000000000E+00  0.45593999997E+02  0.45594000000E+02  0.51100000000E-03 0.  1.
         11   -1    0    0    0    0 -0.00000000000E+00 -0.00000000000E+00 -0.45593999997E+02  0.45594000000E+02  0.51100000000E-03 0. -1.
    9900012    2    1    2    0    0 -0.48027127143E+01 -0.79171604962E+01 -0.42401352963E+02  0.47787283269E+02  0.20000055735E+02 0.  0.
        -12    1    1    2    0    0  0.48027127143E+01  0.79171604962E+01  0.42401352963E+02  0.43400716731E+02  0.00000000000E+00 0.  1.
         11    1    3    3    0    0 -0.54244645111E+01  0.23619938940E+00 -0.28003866253E+01  0.61092365232E+01  0.51100000000E-03 0. -1.
        -11    1    3    3    0    0 -0.15948385470E+01 -0.39081727137E+01 -0.41999527338E+01  0.59545719559E+01  0.51100000000E-03 0.  1.
        -12    1    3    3    0    0  0.22165903439E+01 -0.42451871720E+01 -0.35401013604E+02  0.35723474789E+02  0.00000000000E+00 0.  1.
</event>
<event>
 7    1  0.4621547E-010  0.4778727E+02  0.7816164E-02  0.1312668E+00
        -11   -1    0    0    0    0  0.00000000000E+00  0.00000000000E+00  0.45593999997E+02  0.45594000000E+02  0.51100000000E-03 0.  1.
         11   -1    0    0    0    0 -0.00000000000E+00 -0.00000000000E+00 -0.45593999997E+02  0.45594000000E+02  0.51100000000E-03 0. -1.
    9900012    2    1    2    0    0 -0.50360234372E+01  0.35484544555E+02 -0.24476698580E+02  0.47787271807E+02  0.20000003476E+02 0.  0.
        -12    1    1    2    0    0  0.50360234372E+01 -0.35484544555E+02  0.24476698580E+02  0.43400728193E+02  0.00000000000E+00 0.  1.
         11    1    3    3    0    0  0.15044538754E+00  0.17908952124E+02 -0.16402830168E+02  0.24285922626E+02  0.51100000000E-03 0. -1.
        -11    1    3    3    0    0  0.40817706042E+00  0.16264740165E+02 -0.52288823008E+01  0.17089458491E+02  0.51100000000E-03 0.  1.
        -12    1    3    3    0    0 -0.55946458852E+01  0.13108522652E+01 -0.28449861113E+01  0.64118906896E+01  0.00000000000E+00 0.  1.
</event>
<event>
 7    1  0.4621547E-010  0.4778726E+02  0.7816164E-02  0.1312668E+00
        -11   -1    0    0    0    0  0.00000000000E+00  0.00000000000E+00  0.45593999997E+02  0.45594000000E+02  0.51100000000E-03 0. -1.
         11   -1    0    0    0    0 -0.00000000000E+00 -0.00000000000E+00 -0.45593999997E+02  0.45594000000E+02  0.51100000000E-03 0.  1.
    9900012    2    1    2    0    0 -0.41055082690E+02 -0.95045474292E+01  0.10381141451E+02  0.47787258827E+02  0.19999944297E+02 0.  0.
        -12    1    1    2    0    0  0.41055082690E+02  0.95045474292E+01 -0.10381141451E+02  0.43400741173E+02  0.00000000000E+00 0.  1.
         11    1    3    3    0    0 -0.46295629808E+01  0.18912041195E+01 -0.29518485799E+01  0.58071435934E+01  0.51100000000E-03 0. -1.
        -11    1    3    3    0    0 -0.17808641701E+02 -0.44935424032E+01  0.56799767918E+00  0.18375588812E+02  0.51100000000E-03 0.  1.
         12    1    3    3    0    0 -0.18616878008E+02 -0.69022091456E+01  0.12764992352E+02  0.23604526422E+02  0.00000000000E+00 0. -1.
</event>
<event>
 7    1  0.4621547E-010  0.4778727E+02  0.7816164E-02  0.1312668E+00
        -11   -1    0    0    0    0  0.00000000000E+00  0.00000000000E+00  0.45593999997E+02  0.45594000000E+02  0.51100000000E-03 0. -1.
         11   -1    0    0    0    0 -0.00000000000E+00 -0.00000000000E+00 -0.45593999997E+02  0.45594000000E+02  0.51100000000E-03 0.  1.
    9900012    2    1    2    0    0  0.29888812667E+02 -0.31288811866E+02  0.33604151902E+01  0.47787271194E+02  0.20000000684E+02 0.  0.
        -12    1    1    2    0    0 -0.29888812667E+02  0.31288811866E+02 -0.33604151902E+01  0.43400728806E+02  0.00000000000E+00 0.  1.
         11    1    3    3    0    0  0.95572526075E+01 -0.19108740006E+01  0.88043643534E+00  0.97860965368E+01  0.51100000000E-03 0. -1.
        -11    1    3    3    0    0 -0.18055581732E+00 -0.10281841769E+01 -0.24502303897E+01  0.26633423228E+01  0.51100000000E-03 0.  1.
        -12    1    3    3    0    0  0.20512115877E+02 -0.28349753688E+02  0.49302091445E+01  0.35337832335E+02  0.00000000000E+00 0.  1.
</event>
<event>
 7    1  0.4621547E-010  0.4778727E+02  0.7816164E-02  0.1312668E+00
        -11   -1    0    0    0    0  0.00000000000E+00  0.00000000000E+00  0.45593999997E+02  0.45594000000E+02  0.51100000000E-03 0.  1.
         11   -1    0    0    0    0 -0.00000000000E+00 -0.00000000000E+00 -0.45593999997E+02  0.45594000000E+02  0.51100000000E-03 0. -1.
    9900012    2    1    2    0    0 -0.37229981115E+02  0.16345423490E+02 -0.15178239997E+02  0.47787270372E+02  0.19999996933E+02 0.  0.
        -12    1    1    2    0    0  0.37229981115E+02 -0.16345423490E+02  0.15178239997E+02  0.43400729628E+02  0.00000000000E+00 0.  1.
         11    1    3    3    0    0 -0.15631099410E+01  0.22302063789E+01 -0.58754169070E+01  0.64759290664E+01  0.51100000000E-03 0. -1.
        -11    1    3    3    0    0 -0.47869791229E+01  0.30402707964E+01  0.28250100945E+01  0.63355424340E+01  0.51100000000E-03 0.  1.
         12    1    3    3    0    0 -0.30879892051E+02  0.11074946315E+02 -0.12127833185E+02  0.34975798871E+02  0.00000000000E+00 0. -1.
</event>
<event>
 7    1  0.4621547E-010  0.4778726E+02  0.7816164E-02  0.1312668E+00
        -11   -1    0    0    0    0  0.00000000000E+00  0.00000000000E+00  0.45593999997E+02  0.45594000000E+02  0.51100000000E-03 0.  1.
         11   -1    0    0    0    0 -0.00000000000E+00 -0.00000000000E+00 -0.45593999997E+02  0.45594000000E+02  0.51100000000E-03 0. -1.
    9900012    2    1    2    0    0  0.66891617811E+01 -0.18223723389E+02 -0.38817201158E+02  0.47787261697E+02  0.19999957383E+02 0.  0.
        -12    1    1    2    0    0 -0.66891617811E+01  0.18223723389E+02  0.38817201158E+02  0.43400738303E+02  0.00000000000E+00 0.  1.
         11    1    3    3    0    0  0.60676559139E+01 -0.13800346110E+01 -0.59042638015E+01  0.85779528511E+01  0.51100000000E-03 0. -1.
        -11    1    3    3    0    0  0.24477604443E+01  0.55506055433E+00 -0.10397847041E+02  0.10696487590E+02  0.51100000000E-03 0.  1.
        -12    1    3    3    0    0 -0.18262545770E+01 -0.17398749332E+02 -0.22515090315E+02  0.28512821256E+02  0.00000000000E+00 0.  1.
</event>
<event>
 7    1  0.4621547E-010  0.4778728E+02  0.7816164E-02  0.1312668E+00
        -11   -1    0    0    0    0  0.00000000000E+00  0.00000000000E+00  0.45593999997E+02  0.45594000000E+02  0.51100000000E-03 0.  1.
         11   -1    0    0    0    0 -0.00000000000E+00 -0.00000000000E+00 -0.45593999997E+02  0.45594000000E+02  0.51100000000E-03 0. -1.
    9900012    2    1    2    0    0  0.43359055514E+02  0.21518354400E+00  0.18891156868E+01  0.47787276998E+02  0.20000027145E+02 0.  0.
        -12    1    1    2    0    0 -0.43359055514E+02 -0.21518354400E+00 -0.18891156868E+01  0.43400723002E+02  0.00000000000E+00 0.  1.
         11    1    3    3    0    0  0.19119138990E+02 -0.27485903007E+01  0.31610678634E+01  0.19572648637E+02  0.51100000000E-03 0. -1.
        -11    1    3    3    0    0  0.67138138707E+01 -0.19693053448E+01  0.53846497404E+01  0.88288115463E+01  0.51100000000E-03 0.  1.
        -12    1    3    3    0    0  0.17526102653E+02  0.49330791895E+01 -0.66566019170E+01  0.19385816815E+02  0.00000000000E+00 0.  1.
</event>
<event>
 7    1  0.4621547E-010  0.4778727E+02  0.7816164E-02  0.1312668E+00
        -11   -1    0    0    0    0  0.00000000000E+00  0.00000000000E+00  0.45593999997E+02  0.45594000000E+02  0.51100000000E-03 0. -1.
         11   -1    0    0    0    0 -0.00000000000E+00 -0.00000000000E+00 -0.45593999997E+02  0.45594000000E+02  0.51100000000E-03 0.  1.
    9900012    2    1    2    0    0 -0.15032307842E+02  0.19188155325E+02  0.35909158437E+02  0.47787271395E+02  0.20000001596E+02 0.  0.
        -12    1    1    2    0    0  0.15032307842E+02 -0.19188155325E+02 -0.35909158437E+02  0.43400728605E+02  0.00000000000E+00 0.  1.
         11    1    3    3    0    0 -0.79377187165E+01  0.74594412751E+01  0.11900618060E+02  0.16133051572E+02  0.51100000000E-03 0. -1.
        -11    1    3    3    0    0 -0.25152190723E+01 -0.37043252763E+01  0.43150415945E+01  0.62183548434E+01  0.51100000000E-03 0.  1.
        -12    1    3    3    0    0 -0.45793700532E+01  0.15433039327E+02  0.19693498782E+02  0.25435864979E+02  0.00000000000E+00 0.  1.
</event>
<event>
 7    1  0.4621547E-010  0.4778727E+02  0.7816164E-02  0.1312668E+00
        -11   -1    0    0    0    0  0.00000000000E+00  0.00000000000E+00  0.45593999997E+02  0.45594000000E+02  0.51100000000E-03 0. -1.
         11   -1    0    0    0    0 -0.00000000000E+00 -0.00000000000E+00 -0.45593999997E+02  0.45594000000E+02  0.51100000000E-03 0.  1.
    9900012    2    1    2    0    0  0.52717819721E+01 -0.42077649714E+02  0.92359649785E+01  0.47787270286E+02  0.19999996541E+02 0.  0.
        -12    1    1    2    0    0 -0.52717819721E+01  0.42077649714E+02 -0.92359649785E+01  0.43400729714E+02  0.00000000000E+00 0.  1.
         11    1    3    3    0    0  0.58547476928E+01 -0.61012843664E+01  0.18360730349E+01  0.86530287135E+01  0.51100000000E-03 0. -1.
        -11    1    3    3    0    0  0.32694890452E+00 -0.10395270545E+02  0.86194930266E+01  0.13507931210E+02  0.51100000000E-03 0.  1.
        -12    1    3    3    0    0 -0.90991462523E+00 -0.25581094804E+02 -0.12196010831E+01  0.25626310362E+02  0.00000000000E+00 0.  1.
</event>
<event>
 7    1  0.4621547E-010  0.4778728E+02  0.7816164E-02  0.1312668E+00
        -11   -1    0    0    0    0  0.00000000000E+00  0.00000000000E+00  0.45593999997E+02  0.45594000000E+02  0.51100000000E-03 0. -1.
         11   -1    0    0    0    0 -0.00000000000E+00 -0.00000000000E+00 -0.45593999997E+02  0.45594000000E+02  0.51100000000E-03 0.  1.
    9900012    2    1    2    0    0 -0.24093385660E+02  0.12986993829E+02  0.33681884722E+02  0.47787278811E+02  0.20000035411E+02 0.  0.
        -12    1    1    2    0    0  0.24093385660E+02 -0.12986993829E+02 -0.33681884722E+02  0.43400721189E+02  0.00000000000E+00 0.  1.
         11    1    3    3    0    0 -0.34018757834E+01  0.43648160088E+01  0.45684212346E+01  0.71759912538E+01  0.51100000000E-03 0. -1.
        -11    1    3    3    0    0 -0.15180909269E+02 -0.29230775411E+01  0.14595461189E+02  0.21261041276E+02  0.51100000000E-03 0.  1.
        -12    1    3    3    0    0 -0.55106006073E+01  0.11545255361E+02  0.14518002299E+02  0.19350246281E+02  0.00000000000E+00 0.  1.
</event>
<event>
 7    1  0.4621547E-010  0.4778728E+02  0.7816164E-02  0.1312668E+00
        -11   -1    0    0    0    0  0.00000000000E+00  0.00000000000E+00  0.45593999997E+02  0.45594000000E+02  0.51100000000E-03 0. -1.
         11   -1    0    0    0    0 -0.00000000000E+00 -0.00000000000E+00 -0.45593999997E+02  0.45594000000E+02  0.51100000000E-03 0.  1.
    9900012    2    1    2    0    0 -0.15043496319E+02 -0.38140915221E+02  0.14233289294E+02  0.47787277431E+02  0.20000029117E+02 0.  0.
        -12    1    1    2    0    0  0.15043496319E+02  0.38140915221E+02 -0.14233289294E+02  0.43400722569E+02  0.00000000000E+00 0.  1.
         11    1    3    3    0    0 -0.62060920180E+01 -0.22932803438E+02  0.46749617060E+01  0.24213308714E+02  0.51100000000E-03 0. -1.
        -11    1    3    3    0    0  0.58045519271E+00 -0.93443177329E+01  0.72067565052E+00  0.93900253342E+01  0.51100000000E-03 0.  1.
        -12    1    3    3    0    0 -0.94178594937E+01 -0.58637940505E+01  0.88376519375E+01  0.14183943382E+02  0.00000000000E+00 0.  1.
</event>
<event>
 7    1  0.4621547E-010  0.4778728E+02  0.7816164E-02  0.1312668E+00
        -11   -1    0    0    0    0  0.00000000000E+00  0.00000000000E+00  0.45593999997E+02  0.45594000000E+02  0.51100000000E-03 0. -1.
         11   -1    0    0    0    0 -0.00000000000E+00 -0.00000000000E+00 -0.45593999997E+02  0.45594000000E+02  0.51100000000E-03 0.  1.
    9900012    2    1    2    0    0 -0.40387530822E+02  0.11091073726E+02 -0.11377962536E+02  0.47787278880E+02  0.20000035725E+02 0.  0.
        -12    1    1    2    0    0  0.40387530822E+02 -0.11091073726E+02  0.11377962536E+02  0.43400721120E+02  0.00000000000E+00 0.  1.
         11    1    3    3    0    0 -0.26340791171E-01  0.13532366747E+01  0.77071999377E-01  0.13556856897E+01  0.51100000000E-03 0. -1.
        -11    1    3    3    0    0 -0.38304822296E+02  0.55496814811E+01 -0.58590819024E+01  0.39145717731E+02  0.51100000000E-03 0.  1.
        -12    1    3    3    0    0 -0.20563677347E+01  0.41881555701E+01 -0.55959526330E+01  0.72858754594E+01  0.00000000000E+00 0.  1.
</event>
<event>
 7    1  0.4621547E-010  0.4778726E+02  0.7816164E-02  0.1312668E+00
        -11   -1    0    0    0    0  0.00000000000E+00  0.00000000000E+00  0.45593999997E+02  0.45594000000E+02  0.51100000000E-03 0.  1.
         11   -1    0    0    0    0 -0.00000000000E+00 -0.00000000000E+00 -0.45593999997E+02  0.45594000000E+02  0.51100000000E-03 0. -1.
    9900012    2    1    2    0    0 -0.23602654419E+02  0.86936541728E+01 -0.35368898107E+02  0.47787264156E+02  0.19999968591E+02 0.  0.
        -12    1    1    2    0    0  0.23602654419E+02 -0.86936541728E+01  0.35368898107E+02  0.43400735844E+02  0.00000000000E+00 0.  1.
         11    1    3    3    0    0  0.75081427394E+00  0.91823645032E+00 -0.22919136921E+01  0.25806489273E+01  0.51100000000E-03 0. -1.
        -11    1    3    3    0    0 -0.29753285961E+00  0.50868528671E+01 -0.12968592559E+01  0.52579884067E+01  0.51100000000E-03 0.  1.
         12    1    3    3    0    0 -0.24055935833E+02  0.26885648554E+01 -0.31780125159E+02  0.39948626822E+02  0.00000000000E+00 0. -1.
</event>
<event>
 7    1  0.4621547E-010  0.4778727E+02  0.7816164E-02  0.1312668E+00
        -11   -1    0    0    0    0  0.00000000000E+00  0.00000000000E+00  0.45593999997E+02  0.45594000000E+02  0.51100000000E-03 0. -1.
         11   -1    0    0    0    0 -0.00000000000E+00 -0.00000000000E+00 -0.45593999997E+02  0.45594000000E+02  0.51100000000E-03 0.  1.
    9900012    2    1    2    0    0  0.14489498512E+02  0.35454784145E+02  0.20411662916E+02  0.47787271102E+02  0.20000000262E+02 0.  0.
        -12    1    1    2    0    0 -0.14489498512E+02 -0.35454784145E+02 -0.20411662916E+02  0.43400728898E+02  0.00000000000E+00 0.  1.
         11    1    3    3    0    0  0.18280332189E+01  0.20708319132E+02  0.11920979451E+02  0.23964263771E+02  0.51100000000E-03 0. -1.
        -11    1    3    3    0    0 -0.97529835399E+00  0.31958127402E+01 -0.11294504654E+01  0.35270504057E+01  0.51100000000E-03 0.  1.
         12    1    3    3    0    0  0.13636763647E+02  0.11550652273E+02  0.96201339298E+01  0.20295956926E+02  0.00000000000E+00 0. -1.
</event>
<event>
 7    1  0.4621547E-010  0.4778727E+02  0.7816164E-02  0.1312668E+00
        -11   -1    0    0    0    0  0.00000000000E+00  0.00000000000E+00  0.45593999997E+02  0.45594000000E+02  0.51100000000E-03 0.  1.
         11   -1    0    0    0    0 -0.00000000000E+00 -0.00000000000E+00 -0.45593999997E+02  0.45594000000E+02  0.51100000000E-03 0. -1.
    9900012    2    1    2    0    0  0.14339155125E+02  0.17548595924E+02 -0.37014302246E+02  0.47787272364E+02  0.20000006014E+02 0.  0.
        -12    1    1    2    0    0 -0.14339155125E+02 -0.17548595924E+02  0.37014302246E+02  0.43400727636E+02  0.00000000000E+00 0.  1.
         11    1    3    3    0    0  0.16652789178E+02  0.19207513888E+02 -0.36646189692E+02  0.44600304891E+02  0.51100000000E-03 0. -1.
        -11    1    3    3    0    0 -0.12445520465E+00 -0.62288449046E+00 -0.42513764417E+00  0.76434054192E+00  0.51100000000E-03 0.  1.
         12    1    3    3    0    0 -0.21891788477E+01 -0.10360334738E+01  0.57025089809E-01  0.24226269310E+01  0.00000000000E+00 0. -1.
</event>
<event>
 7    1  0.4621547E-010  0.4778727E+02  0.7816164E-02  0.1312668E+00
        -11   -1    0    0    0    0  0.00000000000E+00  0.00000000000E+00  0.45593999997E+02  0.45594000000E+02  0.51100000000E-03 0.  1.
         11   -1    0    0    0    0 -0.00000000000E+00 -0.00000000000E+00 -0.45593999997E+02  0.45594000000E+02  0.51100000000E-03 0. -1.
    9900012    2    1    2    0    0 -0.14895134712E+02 -0.32186811538E+02  0.25015339553E+02  0.47787273186E+02  0.20000009762E+02 0.  0.
        -12    1    1    2    0    0  0.14895134712E+02  0.32186811538E+02 -0.25015339553E+02  0.43400726814E+02  0.00000000000E+00 0.  1.
         11    1    3    3    0    0 -0.87061145546E+01 -0.15841463092E+02  0.82693115062E+01  0.19877874549E+02  0.51100000000E-03 0. -1.
        -11    1    3    3    0    0  0.94605656955E+00 -0.59102311032E+01 -0.10537002308E+01  0.60775109349E+01  0.51100000000E-03 0.  1.
        -12    1    3    3    0    0 -0.71350767266E+01 -0.10435117342E+02  0.17799728278E+02  0.21831887702E+02  0.00000000000E+00 0.  1.
</event>
<event>
 7    1  0.4621547E-010  0.4778728E+02  0.7816164E-02  0.1312668E+00
        -11   -1    0    0    0    0  0.00000000000E+00  0.00000000000E+00  0.45593999997E+02  0.45594000000E+02  0.51100000000E-03 0.  1.
         11   -1    0    0    0    0 -0.00000000000E+00 -0.00000000000E+00 -0.45593999997E+02  0.45594000000E+02  0.51100000000E-03 0. -1.
    9900012    2    1    2    0    0 -0.31878112549E+02  0.23095457610E+01 -0.29361105580E+02  0.47787279013E+02  0.20000036332E+02 0.  0.
        -12    1    1    2    0    0  0.31878112549E+02 -0.23095457610E+01  0.29361105580E+02  0.43400720987E+02  0.00000000000E+00 0.  1.
         11    1    3    3    0    0 -0.74205102126E+01  0.14548588787E+01 -0.10985280588E+02  0.13336302937E+02  0.51100000000E-03 0. -1.
        -11    1    3    3    0    0 -0.21117752470E+02  0.58281807157E+01 -0.18161313793E+02  0.28456290671E+02  0.51100000000E-03 0.  1.
        -12    1    3    3    0    0 -0.33398498671E+01 -0.49734938334E+01 -0.21451119871E+00  0.59946854046E+01  0.00000000000E+00 0.  1.
</event>
<event>
 7    1  0.4621547E-010  0.4778727E+02  0.7816164E-02  0.1312668E+00
        -11   -1    0    0    0    0  0.00000000000E+00  0.00000000000E+00  0.45593999997E+02  0.45594000000E+02  0.51100000000E-03 0.  1.
         11   -1    0    0    0    0 -0.00000000000E+00 -0.00000000000E+00 -0.45593999997E+02  0.45594000000E+02  0.51100000000E-03 0. -1.
    9900012    2    1    2    0    0 -0.17802342183E+01 -0.35174205984E+02 -0.25361964498E+02  0.47787271392E+02  0.20000001585E+02 0.  0.
        -12    1    1    2    0    0  0.17802342183E+01  0.35174205984E+02  0.25361964498E+02  0.43400728608E+02  0.00000000000E+00 0.  1.
         11    1    3    3    0    0 -0.10060668364E+01 -0.12726390416E+02 -0.16373066892E+02  0.20761755784E+02  0.51100000000E-03 0.  1.
        -11    1    3    3    0    0 -0.45331209408E+01 -0.13013434760E+02 -0.50031041546E+00  0.13789451783E+02  0.51100000000E-03 0. -1.
         12    1    3    3    0    0  0.37589535589E+01 -0.94343808084E+01 -0.84885871905E+01  0.13236063825E+02  0.00000000000E+00 0. -1.
</event>
<event>
 7    1  0.4621547E-010  0.4778727E+02  0.7816164E-02  0.1312668E+00
        -11   -1    0    0    0    0  0.00000000000E+00  0.00000000000E+00  0.45593999997E+02  0.45594000000E+02  0.51100000000E-03 0.  1.
         11   -1    0    0    0    0 -0.00000000000E+00 -0.00000000000E+00 -0.45593999997E+02  0.45594000000E+02  0.51100000000E-03 0. -1.
    9900012    2    1    2    0    0  0.11645606295E+02 -0.40164318652E+02  0.11611658875E+02  0.47787271198E+02  0.20000000699E+02 0.  0.
        -12    1    1    2    0    0 -0.11645606295E+02  0.40164318652E+02 -0.11611658875E+02  0.43400728802E+02  0.00000000000E+00 0.  1.
         11    1    3    3    0    0 -0.15567594560E+01 -0.27109172829E+01 -0.28688445047E+01  0.42429755564E+01  0.51100000000E-03 0. -1.
        -11    1    3    3    0    0  0.21016993876E+01 -0.27600387192E+01  0.46750625344E+01  0.58216118051E+01  0.51100000000E-03 0.  1.
         12    1    3    3    0    0  0.11100666364E+02 -0.34693362650E+02  0.98054408449E+01  0.37722683836E+02  0.00000000000E+00 0. -1.
</event>
<event>
 7    1  0.4621547E-010  0.4778727E+02  0.7816164E-02  0.1312668E+00
        -11   -1    0    0    0    0  0.00000000000E+00  0.00000000000E+00  0.45593999997E+02  0.45594000000E+02  0.51100000000E-03 0.  1.
         11   -1    0    0    0    0 -0.00000000000E+00 -0.00000000000E+00 -0.45593999997E+02  0.45594000000E+02  0.51100000000E-03 0. -1.
    9900012    2    1    2    0    0  0.29892044363E+00  0.10972085040E+01 -0.43385828049E+02  0.47787270796E+02  0.19999998866E+02 0.  0.
        -12    1    1    2    0    0 -0.29892044363E+00 -0.10972085040E+01  0.43385828049E+02  0.43400729204E+02  0.00000000000E+00 0.  1.
         11    1    3    3    0    0  0.61345328103E+01  0.13466181442E+01 -0.61866980224E+01  0.88159574584E+01  0.51100000000E-03 0. -1.
        -11    1    3    3    0    0  0.79458144734E+00  0.29373447372E+01 -0.43505584142E+01  0.53091159865E+01  0.51100000000E-03 0.  1.
         12    1    3    3    0    0 -0.66301938140E+01 -0.31867543774E+01 -0.32848571613E+02  0.33662197351E+02  0.00000000000E+00 0. -1.
</event>
<event>
 7    1  0.4621547E-010  0.4778727E+02  0.7816164E-02  0.1312668E+00
        -11   -1    0    0    0    0  0.00000000000E+00  0.00000000000E+00  0.45593999997E+02  0.45594000000E+02  0.51100000000E-03 0. -1.
         11   -1    0    0    0    0 -0.00000000000E+00 -0.00000000000E+00 -0.45593999997E+02  0.45594000000E+02  0.51100000000E-03 0.  1.
    9900012    2    1    2    0    0  0.32612016714E+02 -0.27904134300E+02 -0.64372957351E+01  0.47787272799E+02  0.20000007998E+02 0.  0.
        -12    1    1    2    0    0 -0.32612016714E+02  0.27904134300E+02  0.64372957351E+01  0.43400727201E+02  0.00000000000E+00 0.  1.
         11    1    3    3    0    0  0.22783524597E+02 -0.21121795927E+02 -0.54813646148E+01  0.31547814735E+02  0.51100000000E-03 0.  1.
        -11    1    3    3    0    0  0.31301108383E+01 -0.85735212466E+01 -0.16358134403E+01  0.92724725019E+01  0.51100000000E-03 0. -1.
        -12    1    3    3    0    0  0.66983812791E+01  0.17911828738E+01  0.67988232000E+00  0.69669855617E+01  0.00000000000E+00 0.  1.
</event>
<event>
 7    1  0.4621547E-010  0.4778727E+02  0.7816164E-02  0.1312668E+00
        -11   -1    0    0    0    0  0.00000000000E+00  0.00000000000E+00  0.45593999997E+02  0.45594000000E+02  0.51100000000E-03 0.  1.
         11   -1    0    0    0    0 -0.00000000000E+00 -0.00000000000E+00 -0.45593999997E+02  0.45594000000E+02  0.51100000000E-03 0. -1.
    9900012    2    1    2    0    0  0.31900152230E+02 -0.26881236738E+02 -0.11975090317E+02  0.47787269719E+02  0.19999993956E+02 0.  0.
        -12    1    1    2    0    0 -0.31900152230E+02  0.26881236738E+02  0.11975090317E+02  0.43400730281E+02  0.00000000000E+00 0.  1.
         11    1    3    3    0    0  0.10709942717E+02 -0.11068379540E+02  0.22744701600E+01  0.15568722279E+02  0.51100000000E-03 0. -1.
        -11    1    3    3    0    0  0.85276856746E+00  0.52107337480E+00  0.14594997548E+01  0.17688616359E+01  0.51100000000E-03 0.  1.
         12    1    3    3    0    0  0.20337440945E+02 -0.16333930573E+02 -0.15709060232E+02  0.30449685804E+02  0.00000000000E+00 0. -1.
</event>
<event>
 7    1  0.4621547E-010  0.4778727E+02  0.7816164E-02  0.1312668E+00
        -11   -1    0    0    0    0  0.00000000000E+00  0.00000000000E+00  0.45593999997E+02  0.45594000000E+02  0.51100000000E-03 0.  1.
         11   -1    0    0    0    0 -0.00000000000E+00 -0.00000000000E+00 -0.45593999997E+02  0.45594000000E+02  0.51100000000E-03 0. -1.
    9900012    2    1    2    0    0  0.31407329079E+02 -0.28084722084E+02 -0.10413991800E+02  0.47787272360E+02  0.20000006000E+02 0.  0.
        -12    1    1    2    0    0 -0.31407329079E+02  0.28084722084E+02  0.10413991800E+02  0.43400727640E+02  0.00000000000E+00 0.  1.
         11    1    3    3    0    0  0.24684822003E+02 -0.19441410076E+02 -0.15485611300E+00  0.31421852965E+02  0.51100000000E-03 0. -1.
        -11    1    3    3    0    0  0.68148657624E-01  0.69430576403E+00  0.31719757729E+00  0.76636759957E+00  0.51100000000E-03 0.  1.
        -12    1    3    3    0    0  0.66543584190E+01 -0.93376177717E+01 -0.10576333264E+02  0.15599051796E+02  0.00000000000E+00 0.  1.
</event>
<event>
 7    1  0.4621547E-010  0.4778727E+02  0.7816164E-02  0.1312668E+00
        -11   -1    0    0    0    0  0.00000000000E+00  0.00000000000E+00  0.45593999997E+02  0.45594000000E+02  0.51100000000E-03 0.  1.
         11   -1    0    0    0    0 -0.00000000000E+00 -0.00000000000E+00 -0.45593999997E+02  0.45594000000E+02  0.51100000000E-03 0. -1.
    9900012    2    1    2    0    0 -0.35381116446E+02 -0.54069910324E+01 -0.24547184795E+02  0.47787271500E+02  0.20000002076E+02 0.  0.
        -12    1    1    2    0    0  0.35381116446E+02  0.54069910324E+01  0.24547184795E+02  0.43400728500E+02  0.00000000000E+00 0.  1.
         11    1    3    3    0    0 -0.23860674518E+02  0.61270184860E+00 -0.17784088884E+02  0.29765433135E+02  0.51100000000E-03 0. -1.
        -11    1    3    3    0    0 -0.49340876480E+01 -0.10790053534E+01 -0.82324128848E+01  0.96582656641E+01  0.51100000000E-03 0.  1.
        -12    1    3    3    0    0 -0.65863542803E+01 -0.49406875276E+01  0.14693169740E+01  0.83635727008E+01  0.00000000000E+00 0.  1.
</event>
<event>
 7    1  0.4621547E-010  0.4778728E+02  0.7816164E-02  0.1312668E+00
        -11   -1    0    0    0    0  0.00000000000E+00  0.00000000000E+00  0.45593999997E+02  0.45594000000E+02  0.51100000000E-03 0. -1.
         11   -1    0    0    0    0 -0.00000000000E+00 -0.00000000000E+00 -0.45593999997E+02  0.45594000000E+02  0.51100000000E-03 0.  1.
    9900012    2    1    2    0    0  0.29449317445E+02 -0.26671606542E+02 -0.17463834062E+02  0.47787281185E+02  0.20000046233E+02 0.  0.
        -12    1    1    2    0    0 -0.29449317445E+02  0.26671606542E+02  0.17463834062E+02  0.43400718815E+02  0.00000000000E+00 0.  1.
         11    1    3    3    0    0  0.27576742148E+02 -0.26574765328E+02 -0.16060323789E+02  0.41528651076E+02  0.51100000000E-03 0. -1.
        -11    1    3    3    0    0  0.45167958543E+00 -0.16403373419E+01 -0.31161774485E+01  0.35503919776E+01  0.51100000000E-03 0.  1.
        -12    1    3    3    0    0  0.14208957118E+01  0.15434961279E+01  0.17126671751E+01  0.27082381308E+01  0.00000000000E+00 0.  1.
</event>
<event>
 7    1  0.4621547E-010  0.4778727E+02  0.7816164E-02  0.1312668E+00
        -11   -1    0    0    0    0  0.00000000000E+00  0.00000000000E+00  0.45593999997E+02  0.45594000000E+02  0.51100000000E-03 0.  1.
         11   -1    0    0    0    0 -0.00000000000E+00 -0.00000000000E+00 -0.45593999997E+02  0.45594000000E+02  0.51100000000E-03 0. -1.
    9900012    2    1    2    0    0  0.23124499561E+02 -0.35617981610E+02 -0.89576869356E+01  0.47787271330E+02  0.20000001301E+02 0.  0.
        -12    1    1    2    0    0 -0.23124499561E+02  0.35617981610E+02  0.89576869356E+01  0.43400728670E+02  0.00000000000E+00 0.  1.
         11    1    3    3    0    0  0.12832173927E+02 -0.31738199389E+02 -0.61272680148E+01  0.34778174215E+02  0.51100000000E-03 0. -1.
        -11    1    3    3    0    0 -0.76513633654E+00  0.33946011664E+00 -0.39696359174E+00  0.92641628795E+00  0.51100000000E-03 0.  1.
        -12    1    3    3    0    0  0.11057461970E+02 -0.42192423371E+01 -0.24334553291E+01  0.12082680827E+02  0.00000000000E+00 0.  1.
</event>
<event>
 7    1  0.4621547E-010  0.4778727E+02  0.7816164E-02  0.1312668E+00
        -11   -1    0    0    0    0  0.00000000000E+00  0.00000000000E+00  0.45593999997E+02  0.45594000000E+02  0.51100000000E-03 0.  1.
         11   -1    0    0    0    0 -0.00000000000E+00 -0.00000000000E+00 -0.45593999997E+02  0.45594000000E+02  0.51100000000E-03 0. -1.
    9900012    2    1    2    0    0  0.15204929042E+02  0.33168190527E+02 -0.23501164069E+02  0.47787269100E+02  0.19999991135E+02 0.  0.
        -12    1    1    2    0    0 -0.15204929042E+02 -0.33168190527E+02  0.23501164069E+02  0.43400730900E+02  0.00000000000E+00 0.  1.
         11    1    3    3    0    0  0.81044881330E+01  0.11000151103E+02 -0.62719339456E+01  0.15034068241E+02  0.51100000000E-03 0. -1.
        -11    1    3    3    0    0  0.45650657336E+01  0.23058963033E+01 -0.10413567729E+02  0.11601697118E+02  0.51100000000E-03 0.  1.
         12    1    3    3    0    0  0.25353751754E+01  0.19862143121E+02 -0.68156623950E+01  0.21151503742E+02  0.00000000000E+00 0. -1.
</event>
<event>
 7    1  0.4621547E-010  0.4778727E+02  0.7816164E-02  0.1312668E+00
        -11   -1    0    0    0    0  0.00000000000E+00  0.00000000000E+00  0.45593999997E+02  0.45594000000E+02  0.51100000000E-03 0. -1.
         11   -1    0    0    0    0 -0.00000000000E+00 -0.00000000000E+00 -0.45593999997E+02  0.45594000000E+02  0.51100000000E-03 0.  1.
    9900012    2    1    2    0    0 -0.27863309963E+02  0.26892410746E+02 -0.19597380963E+02  0.47787272605E+02  0.20000007117E+02 0.  0.
        -12    1    1    2    0    0  0.27863309963E+02 -0.26892410746E+02  0.19597380963E+02  0.43400727395E+02  0.00000000000E+00 0.  1.
         11    1    3    3    0    0 -0.72705580814E+01  0.64498297289E+01 -0.12104146906E+01  0.97942035067E+01  0.51100000000E-03 0. -1.
        -11    1    3    3    0    0 -0.87229987768E+01  0.12364678010E+02 -0.61282418600E+00  0.15144356167E+02  0.51100000000E-03 0.  1.
        -12    1    3    3    0    0 -0.11869753104E+02  0.80779030066E+01 -0.17774142086E+02  0.22848712932E+02  0.00000000000E+00 0.  1.
</event>
<event>
 7    1  0.4621547E-010  0.4778727E+02  0.7816164E-02  0.1312668E+00
        -11   -1    0    0    0    0  0.00000000000E+00  0.00000000000E+00  0.45593999997E+02  0.45594000000E+02  0.51100000000E-03 0.  1.
         11   -1    0    0    0    0 -0.00000000000E+00 -0.00000000000E+00 -0.45593999997E+02  0.45594000000E+02  0.51100000000E-03 0. -1.
    9900012    2    1    2    0    0  0.23274499860E+02 -0.18963035975E+02 -0.31342050918E+02  0.47787271517E+02  0.20000002154E+02 0.  0.
        -12    1    1    2    0    0 -0.23274499860E+02  0.18963035975E+02  0.31342050918E+02  0.43400728483E+02  0.00000000000E+00 0.  1.
         11    1    3    3    0    0  0.19631962440E+02 -0.10000874652E+02 -0.17143950662E+02  0.27916777887E+02  0.51100000000E-03 0. -1.
        -11    1    3    3    0    0  0.12136344427E+00  0.16862534475E+01 -0.52722576900E+01  0.55366850358E+01  0.51100000000E-03 0.  1.
        -12    1    3    3    0    0  0.35211739756E+01 -0.10648414770E+02 -0.89258425658E+01  0.14333808594E+02  0.00000000000E+00 0.  1.
</event>
<event>
 7    1  0.4621547E-010  0.4778727E+02  0.7816164E-02  0.1312668E+00
        -11   -1    0    0    0    0  0.00000000000E+00  0.00000000000E+00  0.45593999997E+02  0.45594000000E+02  0.51100000000E-03 0.  1.
         11   -1    0    0    0    0 -0.00000000000E+00 -0.00000000000E+00 -0.45593999997E+02  0.45594000000E+02  0.51100000000E-03 0. -1.
    9900012    2    1    2    0    0 -0.26452117506E+02 -0.78035068351E+01 -0.33511405556E+02  0.47787267958E+02  0.19999985926E+02 0.  0.
        -12    1    1    2    0    0  0.26452117506E+02  0.78035068351E+01  0.33511405556E+02  0.43400732042E+02  0.00000000000E+00 0.  1.
         11    1    3    3    0    0 -0.97936461081E+01  0.11587497650E+01 -0.42724780424E+01  0.10747663653E+02  0.51100000000E-03 0. -1.
        -11    1    3    3    0    0 -0.17520349963E+02 -0.68523698027E+01 -0.19730667981E+02  0.27262004585E+02  0.51100000000E-03 0.  1.
        -12    1    3    3    0    0  0.86187856459E+00 -0.21098867974E+01 -0.95082595324E+01  0.97775997205E+01  0.00000000000E+00 0.  1.
</event>
<event>
 7    1  0.4621547E-010  0.4778727E+02  0.7816164E-02  0.1312668E+00
        -11   -1    0    0    0    0  0.00000000000E+00  0.00000000000E+00  0.45593999997E+02  0.45594000000E+02  0.51100000000E-03 0.  1.
         11   -1    0    0    0    0 -0.00000000000E+00 -0.00000000000E+00 -0.45593999997E+02  0.45594000000E+02  0.51100000000E-03 0. -1.
    9900012    2    1    2    0    0 -0.29285184124E+00 -0.26716253975E+02 -0.34202032492E+02  0.47787274024E+02  0.20000013587E+02 0.  0.
        -12    1    1    2    0    0  0.29285184124E+00  0.26716253975E+02  0.34202032492E+02  0.43400725976E+02  0.00000000000E+00 0.  1.
         11    1    3    3    0    0 -0.66880710051E+00 -0.12733466156E+02 -0.96677364741E+01  0.16001674665E+02  0.51100000000E-03 0. -1.
        -11    1    3    3    0    0 -0.42203923707E+01 -0.11287693381E+02 -0.81279481010E+01  0.14535724070E+02  0.51100000000E-03 0.  1.
        -12    1    3    3    0    0  0.45963476299E+01 -0.26950944372E+01 -0.16406347917E+02  0.17249875290E+02  0.00000000000E+00 0.  1.
</event>
<event>
 7    1  0.4621547E-010  0.4778727E+02  0.7816164E-02  0.1312668E+00
        -11   -1    0    0    0    0  0.00000000000E+00  0.00000000000E+00  0.45593999997E+02  0.45594000000E+02  0.51100000000E-03 0.  1.
         11   -1    0    0    0    0 -0.00000000000E+00 -0.00000000000E+00 -0.45593999997E+02  0.45594000000E+02  0.51100000000E-03 0. -1.
    9900012    2    1    2    0    0 -0.23891322125E+02  0.10317304107E+02 -0.34732995809E+02  0.47787273799E+02  0.20000012560E+02 0.  0.
        -12    1    1    2    0    0  0.23891322125E+02 -0.10317304107E+02  0.34732995809E+02  0.43400726201E+02  0.00000000000E+00 0.  1.
         11    1    3    3    0    0 -0.57483302609E+01  0.32936804024E+01 -0.12049270660E+02  0.13750511084E+02  0.51100000000E-03 0. -1.
        -11    1    3    3    0    0 -0.18416255777E+02  0.18850723008E+00 -0.15030860112E+02  0.23772268882E+02  0.51100000000E-03 0.  1.
        -12    1    3    3    0    0  0.27326391298E+00  0.68351164742E+01 -0.76528650367E+01  0.10264493833E+02  0.00000000000E+00 0.  1.
</event>
<event>
 7    1  0.4621547E-010  0.4778727E+02  0.7816164E-02  0.1312668E+00
        -11   -1    0    0    0    0  0.00000000000E+00  0.00000000000E+00  0.45593999997E+02  0.45594000000E+02  0.51100000000E-03 0. -1.
         11   -1    0    0    0    0 -0.00000000000E+00 -0.00000000000E+00 -0.45593999997E+02  0.45594000000E+02  0.51100000000E-03 0.  1.
    9900012    2    1    2    0    0 -0.32898586819E+02 -0.27069816653E+02  0.82783764058E+01  0.47787268391E+02  0.19999987900E+02 0.  0.
        -12    1    1    2    0    0  0.32898586819E+02  0.27069816653E+02 -0.82783764058E+01  0.43400731609E+02  0.00000000000E+00 0.  1.
         11    1    3    3    0    0 -0.27180586365E+01 -0.44540866896E+00 -0.16586775970E+01  0.32151894603E+01  0.51100000000E-03 0. -1.
        -11    1    3    3    0    0 -0.21368216073E+02 -0.26339538492E+02  0.45020945095E+01  0.34214628470E+02  0.51100000000E-03 0.  1.
        -12    1    3    3    0    0 -0.88123121096E+01 -0.28486949220E+00  0.54349594933E+01  0.10357450460E+02  0.00000000000E+00 0.  1.
</event>
<event>
 7    1  0.4621547E-010  0.4778727E+02  0.7816164E-02  0.1312668E+00
        -11   -1    0    0    0    0  0.00000000000E+00  0.00000000000E+00  0.45593999997E+02  0.45594000000E+02  0.51100000000E-03 0. -1.
         11   -1    0    0    0    0 -0.00000000000E+00 -0.00000000000E+00 -0.45593999997E+02  0.45594000000E+02  0.51100000000E-03 0.  1.
    9900012    2    1    2    0    0 -0.40692308606E+02 -0.13065058639E+02  0.75540201307E+01  0.47787274694E+02  0.20000016640E+02 0.  0.
        -12    1    1    2    0    0  0.40692308606E+02  0.13065058639E+02 -0.75540201307E+01  0.43400725306E+02  0.00000000000E+00 0.  1.
         11    1    3    3    0    0 -0.13966572937E+02 -0.34505609069E+01  0.53830145306E+01  0.15360611182E+02  0.51100000000E-03 0. -1.
        -11    1    3    3    0    0 -0.95827627229E+01  0.33703180384E+01 -0.24066181895E+01  0.10439358048E+02  0.51100000000E-03 0.  1.
         12    1    3    3    0    0 -0.17142972946E+02 -0.12984815770E+02  0.45776237896E+01  0.21987305464E+02  0.00000000000E+00 0. -1.
</event>
<event>
 7    1  0.4621547E-010  0.4778727E+02  0.7816164E-02  0.1312668E+00
        -11   -1    0    0    0    0  0.00000000000E+00  0.00000000000E+00  0.45593999997E+02  0.45594000000E+02  0.51100000000E-03 0. -1.
         11   -1    0    0    0    0 -0.00000000000E+00 -0.00000000000E+00 -0.45593999997E+02  0.45594000000E+02  0.51100000000E-03 0.  1.
    9900012    2    1    2    0    0  0.23641543975E+02 -0.18929228153E+02  0.31086741832E+02  0.47787265009E+02  0.19999972483E+02 0.  0.
        -12    1    1    2    0    0 -0.23641543975E+02  0.18929228153E+02 -0.31086741832E+02  0.43400734991E+02  0.00000000000E+00 0.  1.
         11    1    3    3    0    0  0.16339512050E+02 -0.41670205501E+01  0.12792728536E+02  0.21165954218E+02  0.51100000000E-03 0. -1.
        -11    1    3    3    0    0  0.63129704939E+01 -0.10277208378E+02  0.18430754322E+02  0.22026513879E+02  0.51100000000E-03 0.  1.
        -12    1    3    3    0    0  0.98906143108E+00 -0.44849992243E+01 -0.13674102585E+00  0.45947969123E+01  0.00000000000E+00 0.  1.
</event>
<event>
 7    1  0.4863975E-010  0.4778727E+02  0.7816164E-02  0.1312668E+00
        -11   -1    0    0    0    0  0.00000000000E+00  0.00000000000E+00  0.45593999997E+02  0.45594000000E+02  0.51100000000E-03 0.  1.
         11   -1    0    0    0    0 -0.00000000000E+00 -0.00000000000E+00 -0.45593999997E+02  0.45594000000E+02  0.51100000000E-03 0. -1.
    9900012    2    1    2    0    0 -0.11797692550E+00 -0.32908760261E+02 -0.28295278481E+02  0.47787271840E+02  0.20000003627E+02 0.  0.
        -12    1    1    2    0    0  0.11797692550E+00  0.32908760261E+02  0.28295278481E+02  0.43400728160E+02  0.00000000000E+00 0.  1.
         11    1    3    3    0    0 -0.39281750846E+01 -0.13346215718E+02 -0.13538899482E+02  0.19412723480E+02  0.51100000000E-03 0. -1.
        -11    1    3    3    0    0 -0.24186296493E+01 -0.64686070101E+00 -0.62243030292E+01  0.67089601734E+01  0.51100000000E-03 0.  1.
         12    1    3    3    0    0  0.62288278084E+01 -0.18915683843E+02 -0.85320759696E+01  0.21665588186E+02  0.00000000000E+00 0. -1.
</event>
<event>
 7    1  0.4621547E-010  0.4778727E+02  0.7816164E-02  0.1312668E+00
        -11   -1    0    0    0    0  0.00000000000E+00  0.00000000000E+00  0.45593999997E+02  0.45594000000E+02  0.51100000000E-03 0.  1.
         11   -1    0    0    0    0 -0.00000000000E+00 -0.00000000000E+00 -0.45593999997E+02  0.45594000000E+02  0.51100000000E-03 0. -1.
    9900012    2    1    2    0    0 -0.25440500575E+02  0.30909343205E+02 -0.16763556152E+02  0.47787269802E+02  0.19999994336E+02 0.  0.
        -12    1    1    2    0    0  0.25440500575E+02 -0.30909343205E+02  0.16763556152E+02  0.43400730198E+02  0.00000000000E+00 0.  1.
         11    1    3    3    0    0 -0.13053653817E+01  0.70068074183E+01 -0.57977519173E+01  0.91876687213E+01  0.51100000000E-03 0. -1.
        -11    1    3    3    0    0  0.93431546127E+00  0.10459034292E+01  0.18614082399E+01  0.23306008369E+01  0.51100000000E-03 0.  1.
         12    1    3    3    0    0 -0.25069450654E+02  0.22856632357E+02 -0.12827212474E+02  0.36269000244E+02  0.00000000000E+00 0. -1.
</event>
<event>
 7    1  0.4621547E-010  0.4778727E+02  0.7816164E-02  0.1312668E+00
        -11   -1    0    0    0    0  0.00000000000E+00  0.00000000000E+00  0.45593999997E+02  0.45594000000E+02  0.51100000000E-03 0.  1.
         11   -1    0    0    0    0 -0.00000000000E+00 -0.00000000000E+00 -0.45593999997E+02  0.45594000000E+02  0.51100000000E-03 0. -1.
    9900012    2    1    2    0    0 -0.37467443863E+02  0.49906272591E+01 -0.21328563024E+02  0.47787270620E+02  0.19999998066E+02 0.  0.
        -12    1    1    2    0    0  0.37467443863E+02 -0.49906272591E+01  0.21328563024E+02  0.43400729380E+02  0.00000000000E+00 0.  1.
         11    1    3    3    0    0 -0.49195353974E+01 -0.23339865000E-01  0.17605074682E+01  0.52251086192E+01  0.51100000000E-03 0. -1.
        -11    1    3    3    0    0 -0.18952822991E+02  0.10807978596E+01 -0.50687317614E+01  0.19648655559E+02  0.51100000000E-03 0.  1.
         12    1    3    3    0    0 -0.13595085475E+02  0.39331692645E+01 -0.18020338730E+02  0.22913506442E+02  0.00000000000E+00 0. -1.
</event>
<event>
 7    1  0.4621547E-010  0.4778727E+02  0.7816164E-02  0.1312668E+00
        -11   -1    0    0    0    0  0.00000000000E+00  0.00000000000E+00  0.45593999997E+02  0.45594000000E+02  0.51100000000E-03 0.  1.
         11   -1    0    0    0    0 -0.00000000000E+00 -0.00000000000E+00 -0.45593999997E+02  0.45594000000E+02  0.51100000000E-03 0. -1.
    9900012    2    1    2    0    0 -0.31589801430E+01  0.15987805047E+01 -0.43256071143E+02  0.47787274829E+02  0.20000017256E+02 0.  0.
        -12    1    1    2    0    0  0.31589801430E+01 -0.15987805047E+01  0.43256071143E+02  0.43400725171E+02  0.00000000000E+00 0.  1.
         11    1    3    3    0    0 -0.67545044189E+01  0.43386720284E+01 -0.18884557586E+02  0.20520085779E+02  0.51100000000E-03 0. -1.
        -11    1    3    3    0    0 -0.13772487002E+01 -0.24146948334E+01 -0.43045925995E+00  0.28129807245E+01  0.51100000000E-03 0.  1.
        -12    1    3    3    0    0  0.49727729762E+01 -0.32519669023E+00 -0.23941054297E+02  0.24454208325E+02  0.00000000000E+00 0.  1.
</event>
<event>
 7    1  0.4621547E-010  0.4778727E+02  0.7816164E-02  0.1312668E+00
        -11   -1    0    0    0    0  0.00000000000E+00  0.00000000000E+00  0.45593999997E+02  0.45594000000E+02  0.51100000000E-03 0. -1.
         11   -1    0    0    0    0 -0.00000000000E+00 -0.00000000000E+00 -0.45593999997E+02  0.45594000000E+02  0.51100000000E-03 0.  1.
    9900012    2    1    2    0    0  0.25212216375E+02  0.15702190324E+02  0.31645040164E+02  0.47787271867E+02  0.20000003749E+02 0.  0.
        -12    1    1    2    0    0 -0.25212216375E+02 -0.15702190324E+02 -0.31645040164E+02  0.43400728133E+02  0.00000000000E+00 0.  1.
         11    1    3    3    0    0  0.12905046655E+02  0.15194578273E+02  0.22408981594E+02  0.29992964081E+02  0.51100000000E-03 0. -1.
        -11    1    3    3    0    0 -0.35207761676E-01  0.76232095038E+00  0.45123389137E+01  0.45764151419E+01  0.51100000000E-03 0.  1.
        -12    1    3    3    0    0  0.12342377482E+02 -0.25470889973E+00  0.47237196570E+01  0.13217892643E+02  0.00000000000E+00 0.  1.
</event>
<event>
 7    1  0.4621547E-010  0.4778727E+02  0.7816164E-02  0.1312668E+00
        -11   -1    0    0    0    0  0.00000000000E+00  0.00000000000E+00  0.45593999997E+02  0.45594000000E+02  0.51100000000E-03 0. -1.
         11   -1    0    0    0    0 -0.00000000000E+00 -0.00000000000E+00 -0.45593999997E+02  0.45594000000E+02  0.51100000000E-03 0.  1.
    9900012    2    1    2    0    0  0.26979613756E+01 -0.29033909962E+02  0.32146170794E+02  0.47787271665E+02  0.20000002830E+02 0.  0.
        -12    1    1    2    0    0 -0.26979613756E+01  0.29033909962E+02 -0.32146170794E+02  0.43400728335E+02  0.00000000000E+00 0.  1.
         11    1    3    3    0    0 -0.22114179560E+01 -0.98616082733E+00  0.76945505865E+01  0.80665352874E+01  0.51100000000E-03 0. -1.
        -11    1    3    3    0    0 -0.38768186568E+01 -0.56079139922E+01  0.81539363882E+01  0.10628504181E+02  0.51100000000E-03 0.  1.
         12    1    3    3    0    0  0.87861979885E+01 -0.22439835142E+02  0.16297683820E+02  0.29092232197E+02  0.00000000000E+00 0. -1.
</event>
<event>
 7    1  0.4621547E-010  0.4778727E+02  0.7816164E-02  0.1312668E+00
        -11   -1    0    0    0    0  0.00000000000E+00  0.00000000000E+00  0.45593999997E+02  0.45594000000E+02  0.51100000000E-03 0. -1.
         11   -1    0    0    0    0 -0.00000000000E+00 -0.00000000000E+00 -0.45593999997E+02  0.45594000000E+02  0.51100000000E-03 0.  1.
    9900012    2    1    2    0    0  0.38201423473E+02 -0.20242242905E+02 -0.38113378103E+01  0.47787269026E+02  0.19999990797E+02 0.  0.
        -12    1    1    2    0    0 -0.38201423473E+02  0.20242242905E+02  0.38113378103E+01  0.43400730974E+02  0.00000000000E+00 0.  1.
         11    1    3    3    0    0  0.12558316780E+02 -0.26623924773E+01  0.29376012763E+01  0.13169250380E+02  0.51100000000E-03 0.  1.
        -11    1    3    3    0    0  0.49432925933E+01  0.17518691141E+01  0.80237747666E+00  0.53055628290E+01  0.51100000000E-03 0. -1.
         12    1    3    3    0    0  0.20699814100E+02 -0.19331719541E+02 -0.75513165632E+01  0.29312455817E+02  0.00000000000E+00 0. -1.
</event>
<event>
 7    1  0.4621547E-010  0.4778727E+02  0.7816164E-02  0.1312668E+00
        -11   -1    0    0    0    0  0.00000000000E+00  0.00000000000E+00  0.45593999997E+02  0.45594000000E+02  0.51100000000E-03 0.  1.
         11   -1    0    0    0    0 -0.00000000000E+00 -0.00000000000E+00 -0.45593999997E+02  0.45594000000E+02  0.51100000000E-03 0. -1.
    9900012    2    1    2    0    0  0.22990420210E+02 -0.36388586904E+02 -0.55618835265E+01  0.47787271588E+02  0.20000002480E+02 0.  0.
        -12    1    1    2    0    0 -0.22990420210E+02  0.36388586904E+02  0.55618835265E+01  0.43400728412E+02  0.00000000000E+00 0.  1.
         11    1    3    3    0    0  0.54841125539E+01 -0.16004892958E+02 -0.77931812338E+01  0.18627017021E+02  0.51100000000E-03 0. -1.
        -11    1    3    3    0    0  0.32857141496E+01 -0.39543714841E+01 -0.40463615051E+01  0.65426304341E+01  0.51100000000E-03 0.  1.
         12    1    3    3    0    0  0.14220593506E+02 -0.16429322462E+02  0.62776592123E+01  0.22617624133E+02  0.00000000000E+00 0. -1.
</event>
<event>
 7    1  0.4621547E-010  0.4778727E+02  0.7816164E-02  0.1312668E+00
        -11   -1    0    0    0    0  0.00000000000E+00  0.00000000000E+00  0.45593999997E+02  0.45594000000E+02  0.51100000000E-03 0. -1.
         11   -1    0    0    0    0 -0.00000000000E+00 -0.00000000000E+00 -0.45593999997E+02  0.45594000000E+02  0.51100000000E-03 0.  1.
    9900012    2    1    2    0    0  0.39166763434E+02  0.18644340578E+02 -0.14058303259E+01  0.47787272444E+02  0.20000006383E+02 0.  0.
        -12    1    1    2    0    0 -0.39166763434E+02 -0.18644340578E+02  0.14058303259E+01  0.43400727556E+02  0.00000000000E+00 0.  1.
         11    1    3    3    0    0  0.55549916916E+01  0.77353109500E+01  0.39526047631E+01  0.10310967601E+02  0.51100000000E-03 0.  1.
        -11    1    3    3    0    0  0.38226284672E+01  0.39369737775E+01  0.22811809685E+01  0.59427298269E+01  0.51100000000E-03 0. -1.
        -12    1    3    3    0    0  0.29789143275E+02  0.69720558500E+01 -0.76396160576E+01  0.31533575017E+02  0.00000000000E+00 0.  1.
</event>
<event>
 7    1  0.4621547E-010  0.4778727E+02  0.7816164E-02  0.1312668E+00
        -11   -1    0    0    0    0  0.00000000000E+00  0.00000000000E+00  0.45593999997E+02  0.45594000000E+02  0.51100000000E-03 0.  1.
         11   -1    0    0    0    0 -0.00000000000E+00 -0.00000000000E+00 -0.45593999997E+02  0.45594000000E+02  0.51100000000E-03 0. -1.
    9900012    2    1    2    0    0  0.16532842525E+02  0.21712960787E+02 -0.33746640414E+02  0.47787270890E+02  0.19999999294E+02 0.  0.
        -12    1    1    2    0    0 -0.16532842525E+02 -0.21712960787E+02  0.33746640414E+02  0.43400729110E+02  0.00000000000E+00 0.  1.
         11    1    3    3    0    0 -0.14578643492E+01  0.18399148483E+00 -0.33625510948E+01  0.36696009938E+01  0.51100000000E-03 0. -1.
        -11    1    3    3    0    0  0.59676855722E+00 -0.17340045908E+01  0.30843612375E+00  0.18595799890E+01  0.51100000000E-03 0.  1.
         12    1    3    3    0    0  0.17393938317E+02  0.23262973893E+02 -0.30692525443E+02  0.42258089907E+02  0.00000000000E+00 0. -1.
</event>
<event>
 7    1  0.4621547E-010  0.4778727E+02  0.7816164E-02  0.1312668E+00
        -11   -1    0    0    0    0  0.00000000000E+00  0.00000000000E+00  0.45593999997E+02  0.45594000000E+02  0.51100000000E-03 0.  1.
         11   -1    0    0    0    0 -0.00000000000E+00 -0.00000000000E+00 -0.45593999997E+02  0.45594000000E+02  0.51100000000E-03 0. -1.
    9900012    2    1    2    0    0  0.25178703833E+02  0.25486484284E+02 -0.24496844937E+02  0.47787269364E+02  0.19999992340E+02 0.  0.
        -12    1    1    2    0    0 -0.25178703833E+02 -0.25486484284E+02  0.24496844937E+02  0.43400730636E+02  0.00000000000E+00 0.  1.
         11    1    3    3    0    0  0.12606589079E+02  0.11279107589E+02 -0.19237996433E+02  0.25617276656E+02  0.51100000000E-03 0. -1.
        -11    1    3    3    0    0  0.68553913047E+00  0.54668873137E+01 -0.49590097284E+01  0.74127321918E+01  0.51100000000E-03 0.  1.
        -12    1    3    3    0    0  0.11886575623E+02  0.87404893814E+01 -0.29983877476E+00  0.14757260517E+02  0.00000000000E+00 0.  1.
</event>
<event>
 7    1  0.4621547E-010  0.4778727E+02  0.7816164E-02  0.1312668E+00
        -11   -1    0    0    0    0  0.00000000000E+00  0.00000000000E+00  0.45593999997E+02  0.45594000000E+02  0.51100000000E-03 0.  1.
         11   -1    0    0    0    0 -0.00000000000E+00 -0.00000000000E+00 -0.45593999997E+02  0.45594000000E+02  0.51100000000E-03 0. -1.
    9900012    2    1    2    0    0 -0.15427851953E+02 -0.25519000831E+01 -0.40485710578E+02  0.47787267623E+02  0.19999984398E+02 0.  0.
        -12    1    1    2    0    0  0.15427851953E+02  0.25519000831E+01  0.40485710578E+02  0.43400732377E+02  0.00000000000E+00 0.  1.
         11    1    3    3    0    0 -0.98289215689E+01 -0.11940133025E+01 -0.30611086518E+02  0.32172534638E+02  0.51100000000E-03 0. -1.
        -11    1    3    3    0    0 -0.87870935773E+00 -0.27184400845E+01 -0.10295315078E+02  0.10684360507E+02  0.51100000000E-03 0.  1.
        -12    1    3    3    0    0 -0.47202210262E+01  0.13605533039E+01  0.42069101841E+00  0.49303724770E+01  0.00000000000E+00 0.  1.
</event>
<event>
 7    1  0.4621547E-010  0.4778727E+02  0.7816164E-02  0.1312668E+00
        -11   -1    0    0    0    0  0.00000000000E+00  0.00000000000E+00  0.45593999997E+02  0.45594000000E+02  0.51100000000E-03 0.  1.
         11   -1    0    0    0    0 -0.00000000000E+00 -0.00000000000E+00 -0.45593999997E+02  0.45594000000E+02  0.51100000000E-03 0. -1.
    9900012    2    1    2    0    0  0.33422501372E+02  0.30146788295E+01 -0.27522197543E+02  0.47787271389E+02  0.20000001569E+02 0.  0.
        -12    1    1    2    0    0 -0.33422501372E+02 -0.30146788295E+01  0.27522197543E+02  0.43400728611E+02  0.00000000000E+00 0.  1.
         11    1    3    3    0    0  0.34035443244E+01 -0.13953674906E+01 -0.15507916700E+00  0.36817406496E+01  0.51100000000E-03 0. -1.
        -11    1    3    3    0    0  0.19519032968E+01 -0.45417554466E+01 -0.56414863802E+01  0.75009224670E+01  0.51100000000E-03 0.  1.
         12    1    3    3    0    0  0.28067053751E+02  0.89518017668E+01 -0.21725631996E+02  0.36604608272E+02  0.00000000000E+00 0. -1.
</event>
<event>
 7    1  0.4621547E-010  0.4778728E+02  0.7816164E-02  0.1312668E+00
        -11   -1    0    0    0    0  0.00000000000E+00  0.00000000000E+00  0.45593999997E+02  0.45594000000E+02  0.51100000000E-03 0.  1.
         11   -1    0    0    0    0 -0.00000000000E+00 -0.00000000000E+00 -0.45593999997E+02  0.45594000000E+02  0.51100000000E-03 0. -1.
    9900012    2    1    2    0    0 -0.15943994010E+00 -0.39914982451E+02 -0.17040877542E+02  0.47787277050E+02  0.20000027383E+02 0.  0.
        -12    1    1    2    0    0  0.15943994010E+00  0.39914982451E+02  0.17040877542E+02  0.43400722950E+02  0.00000000000E+00 0.  1.
         11    1    3    3    0    0 -0.24619822428E+01 -0.24820415899E+02 -0.10632767585E+02  0.27114021257E+02  0.51100000000E-03 0. -1.
        -11    1    3    3    0    0 -0.10774522794E+01 -0.15153942265E+02 -0.77272862708E+01  0.17044466050E+02  0.51100000000E-03 0.  1.
        -12    1    3    3    0    0  0.33799945821E+01  0.59375712733E-01  0.13191763136E+01  0.36287897427E+01  0.00000000000E+00 0.  1.
</event>
<event>
 7    1  0.4621547E-010  0.4778727E+02  0.7816164E-02  0.1312668E+00
        -11   -1    0    0    0    0  0.00000000000E+00  0.00000000000E+00  0.45593999997E+02  0.45594000000E+02  0.51100000000E-03 0.  1.
         11   -1    0    0    0    0 -0.00000000000E+00 -0.00000000000E+00 -0.45593999997E+02  0.45594000000E+02  0.51100000000E-03 0. -1.
    9900012    2    1    2    0    0  0.38923151024E+02 -0.77085904542E+01 -0.17583778417E+02  0.47787270561E+02  0.19999997796E+02 0.  0.
        -12    1    1    2    0    0 -0.38923151024E+02  0.77085904542E+01  0.17583778417E+02  0.43400729439E+02  0.00000000000E+00 0.  1.
         11    1    3    3    0    0  0.36157732603E+01 -0.32000253066E+01  0.23488693256E+01  0.53694660445E+01  0.51100000000E-03 0. -1.
        -11    1    3    3    0    0  0.14357203117E+02  0.35370054629E+01 -0.57220933084E+01  0.15855032043E+02  0.51100000000E-03 0.  1.
         12    1    3    3    0    0  0.20950174646E+02 -0.80455706105E+01 -0.14210554434E+02  0.26562772473E+02  0.00000000000E+00 0. -1.
</event>
<event>
 7    1  0.4621547E-010  0.4778721E+02  0.7816164E-02  0.1312668E+00
        -11   -1    0    0    0    0  0.00000000000E+00  0.00000000000E+00  0.45593999997E+02  0.45594000000E+02  0.51100000000E-03 0.  1.
         11   -1    0    0    0    0 -0.00000000000E+00 -0.00000000000E+00 -0.45593999997E+02  0.45594000000E+02  0.51100000000E-03 0. -1.
    9900012    2    1    2    0    0  0.19180336222E+02 -0.80106435211E+01 -0.38099508116E+02  0.47787213994E+02  0.19999739884E+02 0.  0.
        -12    1    1    2    0    0 -0.19180336222E+02  0.80106435211E+01  0.38099508116E+02  0.43400786006E+02  0.00000000000E+00 0.  1.
         11    1    3    3    0    0  0.20578726706E+02 -0.78317312886E+01 -0.37972232179E+02  0.43894309708E+02  0.51100000000E-03 0. -1.
        -11    1    3    3    0    0 -0.21154885573E+00  0.12577493255E+01 -0.11928214065E+01  0.17462844709E+01  0.51100000000E-03 0.  1.
         12    1    3    3    0    0 -0.11868416284E+01 -0.14366615580E+01  0.10655454696E+01  0.21466198152E+01  0.00000000000E+00 0. -1.
</event>
<event>
 7    1  0.4621547E-010  0.4778727E+02  0.7816164E-02  0.1312668E+00
        -11   -1    0    0    0    0  0.00000000000E+00  0.00000000000E+00  0.45593999997E+02  0.45594000000E+02  0.51100000000E-03 0.  1.
         11   -1    0    0    0    0 -0.00000000000E+00 -0.00000000000E+00 -0.45593999997E+02  0.45594000000E+02  0.51100000000E-03 0. -1.
    9900012    2    1    2    0    0  0.64047390984E+01  0.42736012074E+02 -0.40293765163E+01  0.47787270905E+02  0.19999999364E+02 0.  0.
        -12    1    1    2    0    0 -0.64047390984E+01 -0.42736012074E+02  0.40293765163E+01  0.43400729095E+02  0.00000000000E+00 0.  1.
         11    1    3    3    0    0  0.43525378992E+01  0.12754049846E+02  0.18701639859E+00  0.13477586914E+02  0.51100000000E-03 0. -1.
        -11    1    3    3    0    0  0.64756829492E+01  0.38289788453E+01 -0.10928563860E+01  0.76019657982E+01  0.51100000000E-03 0.  1.
         12    1    3    3    0    0 -0.44234817501E+01  0.26152983382E+02 -0.31235365289E+01  0.26707718192E+02  0.00000000000E+00 0. -1.
</event>
<event>
 7    1  0.4621547E-010  0.4778728E+02  0.7816164E-02  0.1312668E+00
        -11   -1    0    0    0    0  0.00000000000E+00  0.00000000000E+00  0.45593999997E+02  0.45594000000E+02  0.51100000000E-03 0.  1.
         11   -1    0    0    0    0 -0.00000000000E+00 -0.00000000000E+00 -0.45593999997E+02  0.45594000000E+02  0.51100000000E-03 0. -1.
    9900012    2    1    2    0    0  0.29765869846E+02  0.28637104551E+02 -0.13324111491E+02  0.47787277520E+02  0.20000029524E+02 0.  0.
        -12    1    1    2    0    0 -0.29765869846E+02 -0.28637104551E+02  0.13324111491E+02  0.43400722480E+02  0.00000000000E+00 0.  1.
         11    1    3    3    0    0  0.10697017427E+01 -0.73247429743E+00 -0.19244779776E+01  0.23204301675E+01  0.51100000000E-03 0. -1.
        -11    1    3    3    0    0 -0.10661692452E+01 -0.35202985983E+00 -0.21123512462E+01  0.23922102604E+01  0.51100000000E-03 0.  1.
         12    1    3    3    0    0  0.29762337349E+02  0.29721608708E+02 -0.92872822671E+01  0.43074637092E+02  0.00000000000E+00 0. -1.
</event>
<event>
 7    1  0.4621547E-010  0.4778727E+02  0.7816164E-02  0.1312668E+00
        -11   -1    0    0    0    0  0.00000000000E+00  0.00000000000E+00  0.45593999997E+02  0.45594000000E+02  0.51100000000E-03 0.  1.
         11   -1    0    0    0    0 -0.00000000000E+00 -0.00000000000E+00 -0.45593999997E+02  0.45594000000E+02  0.51100000000E-03 0. -1.
    9900012    2    1    2    0    0 -0.29890271303E+02  0.30035328159E+02 -0.93847681754E+01  0.47787272703E+02  0.20000007563E+02 0.  0.
        -12    1    1    2    0    0  0.29890271303E+02 -0.30035328159E+02  0.93847681754E+01  0.43400727297E+02  0.00000000000E+00 0.  1.
         11    1    3    3    0    0 -0.13173730132E+02  0.16558624145E+02 -0.22233179940E+01  0.21276238914E+02  0.51100000000E-03 0. -1.
        -11    1    3    3    0    0 -0.95740730394E+01  0.97083979463E+01  0.25595776023E+01  0.13873258558E+02  0.51100000000E-03 0.  1.
         12    1    3    3    0    0 -0.71424681306E+01  0.37683060681E+01 -0.97210277837E+01  0.12637775231E+02  0.00000000000E+00 0. -1.
</event>
<event>
 7    1  0.4621547E-010  0.4778725E+02  0.7816164E-02  0.1312668E+00
        -11   -1    0    0    0    0  0.00000000000E+00  0.00000000000E+00  0.45593999997E+02  0.45594000000E+02  0.51100000000E-03 0.  1.
         11   -1    0    0    0    0 -0.00000000000E+00 -0.00000000000E+00 -0.45593999997E+02  0.45594000000E+02  0.51100000000E-03 0. -1.
    9900012    2    1    2    0    0 -0.14218595829E+01 -0.38453418285E+02 -0.20073307389E+02  0.47787254246E+02  0.19999923409E+02 0.  0.
        -12    1    1    2    0    0  0.14218595829E+01  0.38453418285E+02  0.20073307389E+02  0.43400745754E+02  0.00000000000E+00 0.  1.
         11    1    3    3    0    0  0.18662714503E+01 -0.10667112063E+02 -0.14392302086E+01  0.10924359603E+02  0.51100000000E-03 0. -1.
        -11    1    3    3    0    0  0.15945489847E+01 -0.34074123674E+01  0.22578747498E+01  0.43876011844E+01  0.51100000000E-03 0.  1.
        -12    1    3    3    0    0 -0.48826800178E+01 -0.24378893855E+02 -0.20891951931E+02  0.32475293459E+02  0.00000000000E+00 0.  1.
</event>
<event>
 7    1  0.4621547E-010  0.4778727E+02  0.7816164E-02  0.1312668E+00
        -11   -1    0    0    0    0  0.00000000000E+00  0.00000000000E+00  0.45593999997E+02  0.45594000000E+02  0.51100000000E-03 0.  1.
         11   -1    0    0    0    0 -0.00000000000E+00 -0.00000000000E+00 -0.45593999997E+02  0.45594000000E+02  0.51100000000E-03 0. -1.
    9900012    2    1    2    0    0  0.28450335300E+02 -0.24197467631E+02 -0.22106199129E+02  0.47787273528E+02  0.20000011321E+02 0.  0.
        -12    1    1    2    0    0 -0.28450335300E+02  0.24197467631E+02  0.22106199129E+02  0.43400726472E+02  0.00000000000E+00 0.  1.
         11    1    3    3    0    0  0.12399141452E+02 -0.12335268047E+02 -0.12725637287E+02  0.21629595261E+02  0.51100000000E-03 0. -1.
        -11    1    3    3    0    0  0.53587849784E+01 -0.14995253214E+00 -0.87802146706E+01  0.10287430784E+02  0.51100000000E-03 0.  1.
        -12    1    3    3    0    0  0.10692408870E+02 -0.11712247052E+02 -0.60034717101E+00  0.15870247483E+02  0.00000000000E+00 0.  1.
</event>
<event>
 7    1  0.4621547E-010  0.4778727E+02  0.7816164E-02  0.1312668E+00
        -11   -1    0    0    0    0  0.00000000000E+00  0.00000000000E+00  0.45593999997E+02  0.45594000000E+02  0.51100000000E-03 0.  1.
         11   -1    0    0    0    0 -0.00000000000E+00 -0.00000000000E+00 -0.45593999997E+02  0.45594000000E+02  0.51100000000E-03 0. -1.
    9900012    2    1    2    0    0 -0.17719579227E+02  0.15700800504E+02 -0.36374780679E+02  0.47787270814E+02  0.19999998947E+02 0.  0.
        -12    1    1    2    0    0  0.17719579227E+02 -0.15700800504E+02  0.36374780679E+02  0.43400729186E+02  0.00000000000E+00 0.  1.
         11    1    3    3    0    0 -0.11633436421E+01  0.19868191804E+01  0.31396632362E+00  0.23236596133E+01  0.51100000000E-03 0. -1.
        -11    1    3    3    0    0 -0.45724081984E+01 -0.15268728897E+01 -0.11124008843E+01  0.49472915360E+01  0.51100000000E-03 0.  1.
         12    1    3    3    0    0 -0.11983827387E+02  0.15240854214E+02 -0.35576346118E+02  0.40516319664E+02  0.00000000000E+00 0. -1.
</event>
<event>
 7    1  0.4621547E-010  0.4778727E+02  0.7816164E-02  0.1312668E+00
        -11   -1    0    0    0    0  0.00000000000E+00  0.00000000000E+00  0.45593999997E+02  0.45594000000E+02  0.51100000000E-03 0.  1.
         11   -1    0    0    0    0 -0.00000000000E+00 -0.00000000000E+00 -0.45593999997E+02  0.45594000000E+02  0.51100000000E-03 0. -1.
    9900012    2    1    2    0    0 -0.86553108302E+01 -0.42418362766E+02  0.30645673217E+01  0.47787268691E+02  0.19999989267E+02 0.  0.
        -12    1    1    2    0    0  0.86553108302E+01  0.42418362766E+02 -0.30645673217E+01  0.43400731309E+02  0.00000000000E+00 0.  1.
         11    1    3    3    0    0 -0.28987669630E+01 -0.16837702572E+01 -0.27360287087E+01  0.43270989751E+01  0.51100000000E-03 0.  1.
        -11    1    3    3    0    0 -0.67975970176E+01 -0.14567114637E+02  0.63044532011E+01  0.17267144654E+02  0.51100000000E-03 0. -1.
         12    1    3    3    0    0  0.10410531504E+01 -0.26167477872E+02 -0.50385717067E+00  0.26193025062E+02  0.00000000000E+00 0. -1.
</event>
<event>
 7    1  0.4621547E-010  0.4778726E+02  0.7816164E-02  0.1312668E+00
        -11   -1    0    0    0    0  0.00000000000E+00  0.00000000000E+00  0.45593999997E+02  0.45594000000E+02  0.51100000000E-03 0. -1.
         11   -1    0    0    0    0 -0.00000000000E+00 -0.00000000000E+00 -0.45593999997E+02  0.45594000000E+02  0.51100000000E-03 0.  1.
    9900012    2    1    2    0    0 -0.33852510477E+02  0.25835960879E+02 -0.83746703607E+01  0.47787257566E+02  0.19999938548E+02 0.  0.
        -12    1    1    2    0    0  0.33852510477E+02 -0.25835960879E+02  0.83746703607E+01  0.43400742434E+02  0.00000000000E+00 0.  1.
         11    1    3    3    0    0 -0.17979184569E+02  0.18325807892E+02  0.19669540404E+01  0.25747916831E+02  0.51100000000E-03 0. -1.
        -11    1    3    3    0    0 -0.13423616459E+02  0.41291259380E+01 -0.42858098565E+01  0.14683709553E+02  0.51100000000E-03 0.  1.
        -12    1    3    3    0    0 -0.24497094486E+01  0.33810270485E+01 -0.60558145446E+01  0.73556311819E+01  0.00000000000E+00 0.  1.
</event>
<event>
 7    1  0.4621547E-010  0.4778726E+02  0.7816164E-02  0.1312668E+00
        -11   -1    0    0    0    0  0.00000000000E+00  0.00000000000E+00  0.45593999997E+02  0.45594000000E+02  0.51100000000E-03 0.  1.
         11   -1    0    0    0    0 -0.00000000000E+00 -0.00000000000E+00 -0.45593999997E+02  0.45594000000E+02  0.51100000000E-03 0. -1.
    9900012    2    1    2    0    0  0.81643677189E+01  0.42533793041E+02 -0.28007354071E+01  0.47787256118E+02  0.19999931944E+02 0.  0.
        -12    1    1    2    0    0 -0.81643677189E+01 -0.42533793041E+02  0.28007354071E+01  0.43400743882E+02  0.00000000000E+00 0.  1.
         11    1    3    3    0    0  0.87121321587E+00  0.62014511911E+01  0.40458466660E+01  0.74555941982E+01  0.51100000000E-03 0. -1.
        -11    1    3    3    0    0  0.41710523356E+01  0.13077865590E+01  0.52861466406E+00  0.44031144653E+01  0.51100000000E-03 0.  1.
         12    1    3    3    0    0  0.31221021674E+01  0.35024555291E+02 -0.73751967372E+01  0.35928547454E+02  0.00000000000E+00 0. -1.
</event>
<event>
 7    1  0.4621547E-010  0.4778727E+02  0.7816164E-02  0.1312668E+00
        -11   -1    0    0    0    0  0.00000000000E+00  0.00000000000E+00  0.45593999997E+02  0.45594000000E+02  0.51100000000E-03 0.  1.
         11   -1    0    0    0    0 -0.00000000000E+00 -0.00000000000E+00 -0.45593999997E+02  0.45594000000E+02  0.51100000000E-03 0. -1.
    9900012    2    1    2    0    0  0.12789839653E+01 -0.22889222990E+02 -0.36852013661E+02  0.47787271435E+02  0.20000001783E+02 0.  0.
        -12    1    1    2    0    0 -0.12789839653E+01  0.22889222990E+02  0.36852013661E+02  0.43400728565E+02  0.00000000000E+00 0.  1.
         11    1    3    3    0    0  0.61275291411E+01 -0.96385771734E+01 -0.12128581387E+02  0.16659870049E+02  0.51100000000E-03 0. -1.
        -11    1    3    3    0    0  0.17634879808E+01 -0.34455463518E+01 -0.17002412996E+00  0.38743500083E+01  0.51100000000E-03 0.  1.
        -12    1    3    3    0    0 -0.66120331566E+01 -0.98050994652E+01 -0.24553408143E+02  0.27253051379E+02  0.00000000000E+00 0.  1.
</event>
<event>
 7    1  0.4621547E-010  0.4778727E+02  0.7816164E-02  0.1312668E+00
        -11   -1    0    0    0    0  0.00000000000E+00  0.00000000000E+00  0.45593999997E+02  0.45594000000E+02  0.51100000000E-03 0.  1.
         11   -1    0    0    0    0 -0.00000000000E+00 -0.00000000000E+00 -0.45593999997E+02  0.45594000000E+02  0.51100000000E-03 0. -1.
    9900012    2    1    2    0    0 -0.16904357112E+01  0.42814119074E+02 -0.69077412265E+01  0.47787271275E+02  0.20000001052E+02 0.  0.
        -12    1    1    2    0    0  0.16904357112E+01 -0.42814119074E+02  0.69077412265E+01  0.43400728725E+02  0.00000000000E+00 0.  1.
         11    1    3    3    0    0 -0.24253445863E+01  0.90507296169E+01 -0.38981108378E+01  0.10148560062E+02  0.51100000000E-03 0. -1.
        -11    1    3    3    0    0  0.58809622636E+00  0.17665944012E+02 -0.97499512908E+01  0.20186455495E+02  0.51100000000E-03 0.  1.
        -12    1    3    3    0    0  0.14681264874E+00  0.16097445445E+02  0.67403209020E+01  0.17452255719E+02  0.00000000000E+00 0.  1.
</event>
<event>
 7    1  0.4621547E-010  0.4778726E+02  0.7816164E-02  0.1312668E+00
        -11   -1    0    0    0    0  0.00000000000E+00  0.00000000000E+00  0.45593999997E+02  0.45594000000E+02  0.51100000000E-03 0. -1.
         11   -1    0    0    0    0 -0.00000000000E+00 -0.00000000000E+00 -0.45593999997E+02  0.45594000000E+02  0.51100000000E-03 0.  1.
    9900012    2    1    2    0    0  0.39925834079E+02 -0.16998947216E+02 -0.76660120389E+00  0.47787261403E+02  0.19999956043E+02 0.  0.
        -12    1    1    2    0    0 -0.39925834079E+02  0.16998947216E+02  0.76660120389E+00  0.43400738597E+02  0.00000000000E+00 0.  1.
         11    1    3    3    0    0  0.18472896213E+00  0.59337757534E+00 -0.72141122291E+00  0.95218493478E+00  0.51100000000E-03 0. -1.
        -11    1    3    3    0    0  0.24791616399E+02 -0.19135562935E+02 -0.31931512894E+01  0.31479997267E+02  0.51100000000E-03 0.  1.
        -12    1    3    3    0    0  0.14949488717E+02  0.15432381439E+01  0.31479613084E+01  0.15355079201E+02  0.00000000000E+00 0.  1.
</event>
<event>
 7    1  0.4621547E-010  0.4778727E+02  0.7816164E-02  0.1312668E+00
        -11   -1    0    0    0    0  0.00000000000E+00  0.00000000000E+00  0.45593999997E+02  0.45594000000E+02  0.51100000000E-03 0.  1.
         11   -1    0    0    0    0 -0.00000000000E+00 -0.00000000000E+00 -0.45593999997E+02  0.45594000000E+02  0.51100000000E-03 0. -1.
    9900012    2    1    2    0    0  0.23534883563E+02 -0.33442602979E+02 -0.14537013928E+02  0.47787271754E+02  0.20000003234E+02 0.  0.
        -12    1    1    2    0    0 -0.23534883563E+02  0.33442602979E+02  0.14537013928E+02  0.43400728246E+02  0.00000000000E+00 0.  1.
         11    1    3    3    0    0  0.52146883774E+01 -0.32229325147E+01 -0.12494598415E+01  0.62563103363E+01  0.51100000000E-03 0.  1.
        -11    1    3    3    0    0  0.65405560383E+01 -0.20037059139E+02 -0.24958226444E-01  0.21077552880E+02  0.51100000000E-03 0. -1.
         12    1    3    3    0    0  0.11779639148E+02 -0.10182611325E+02 -0.13262595860E+02  0.20453408537E+02  0.00000000000E+00 0. -1.
</event>
<event>
 7    1  0.4621547E-010  0.4778727E+02  0.7816164E-02  0.1312668E+00
        -11   -1    0    0    0    0  0.00000000000E+00  0.00000000000E+00  0.45593999997E+02  0.45594000000E+02  0.51100000000E-03 0.  1.
         11   -1    0    0    0    0 -0.00000000000E+00 -0.00000000000E+00 -0.45593999997E+02  0.45594000000E+02  0.51100000000E-03 0. -1.
    9900012    2    1    2    0    0 -0.29644952895E+02  0.24043540083E+02 -0.20656915536E+02  0.47787271766E+02  0.20000003288E+02 0.  0.
        -12    1    1    2    0    0  0.29644952895E+02 -0.24043540083E+02  0.20656915536E+02  0.43400728234E+02  0.00000000000E+00 0.  1.
         11    1    3    3    0    0 -0.79917110848E+01  0.42665805744E+01 -0.44769651762E+01  0.10105165675E+02  0.51100000000E-03 0. -1.
        -11    1    3    3    0    0 -0.69505508316E+01 -0.15123855858E+01  0.99208697647E-01  0.71138814756E+01  0.51100000000E-03 0.  1.
         12    1    3    3    0    0 -0.14702690978E+02  0.21289345094E+02 -0.16279159057E+02  0.30568224615E+02  0.00000000000E+00 0. -1.
</event>
<event>
 7    1  0.4621547E-010  0.4778727E+02  0.7816164E-02  0.1312668E+00
        -11   -1    0    0    0    0  0.00000000000E+00  0.00000000000E+00  0.45593999997E+02  0.45594000000E+02  0.51100000000E-03 0.  1.
         11   -1    0    0    0    0 -0.00000000000E+00 -0.00000000000E+00 -0.45593999997E+02  0.45594000000E+02  0.51100000000E-03 0. -1.
    9900012    2    1    2    0    0 -0.25070237906E+01  0.12171404247E+02 -0.41583589795E+02  0.47787272013E+02  0.20000004415E+02 0.  0.
        -12    1    1    2    0    0  0.25070237906E+01 -0.12171404247E+02  0.41583589795E+02  0.43400727987E+02  0.00000000000E+00 0.  1.
         11    1    3    3    0    0  0.66197062662E+01  0.44892466931E+01 -0.61670835603E+01  0.10099839940E+02  0.51100000000E-03 0. -1.
        -11    1    3    3    0    0 -0.35540347273E+00  0.73500347057E-01  0.51993054637E-01  0.36662987917E+00  0.51100000000E-03 0.  1.
         12    1    3    3    0    0 -0.87713265841E+01  0.76086572067E+01 -0.35468499289E+02  0.37320802193E+02  0.00000000000E+00 0. -1.
</event>
<event>
 7    1  0.4621547E-010  0.4778728E+02  0.7816164E-02  0.1312668E+00
        -11   -1    0    0    0    0  0.00000000000E+00  0.00000000000E+00  0.45593999997E+02  0.45594000000E+02  0.51100000000E-03 0.  1.
         11   -1    0    0    0    0 -0.00000000000E+00 -0.00000000000E+00 -0.45593999997E+02  0.45594000000E+02  0.51100000000E-03 0. -1.
    9900012    2    1    2    0    0 -0.22035195431E+02  0.93659711309E+01 -0.36198772263E+02  0.47787281501E+02  0.20000047677E+02 0.  0.
        -12    1    1    2    0    0  0.22035195431E+02 -0.93659711309E+01  0.36198772263E+02  0.43400718499E+02  0.00000000000E+00 0.  1.
         11    1    3    3    0    0 -0.81118371697E+01 -0.24880410940E+01 -0.12037540603E+02  0.14727343100E+02  0.51100000000E-03 0. -1.
        -11    1    3    3    0    0 -0.93005278942E+00 -0.17824423761E+01  0.45778488621E+00  0.20619569050E+01  0.51100000000E-03 0.  1.
         12    1    3    3    0    0 -0.12993305472E+02  0.13636454601E+02 -0.24619016546E+02  0.30997981496E+02  0.00000000000E+00 0. -1.
</event>
<event>
 7    1  0.4621547E-010  0.4778728E+02  0.7816164E-02  0.1312668E+00
        -11   -1    0    0    0    0  0.00000000000E+00  0.00000000000E+00  0.45593999997E+02  0.45594000000E+02  0.51100000000E-03 0.  1.
         11   -1    0    0    0    0 -0.00000000000E+00 -0.00000000000E+00 -0.45593999997E+02  0.45594000000E+02  0.51100000000E-03 0. -1.
    9900012    2    1    2    0    0  0.23155149615E+02 -0.22311035716E+02 -0.29149254323E+02  0.47787282310E+02  0.20000051365E+02 0.  0.
        -12    1    1    2    0    0 -0.23155149615E+02  0.22311035716E+02  0.29149254323E+02  0.43400717690E+02  0.00000000000E+00 0.  1.
         11    1    3    3    0    0  0.89480013211E+01  0.93863968343E+00 -0.72034976414E+01  0.11525543398E+02  0.51100000000E-03 0. -1.
        -11    1    3    3    0    0  0.73595193279E+01 -0.39704233751E+01 -0.54583891960E+01  0.99860302118E+01  0.51100000000E-03 0.  1.
        -12    1    3    3    0    0  0.68476289658E+01 -0.19279252024E+02 -0.16487367486E+02  0.26275708700E+02  0.00000000000E+00 0.  1.
</event>
<event>
 7    1  0.4621547E-010  0.4778721E+02  0.7816164E-02  0.1312668E+00
        -11   -1    0    0    0    0  0.00000000000E+00  0.00000000000E+00  0.45593999997E+02  0.45594000000E+02  0.51100000000E-03 0.  1.
         11   -1    0    0    0    0 -0.00000000000E+00 -0.00000000000E+00 -0.45593999997E+02  0.45594000000E+02  0.51100000000E-03 0. -1.
    9900012    2    1    2    0    0 -0.18917305632E+02 -0.13809658110E+02 -0.36538435373E+02  0.47787212346E+02  0.19999732367E+02 0.  0.
        -12    1    1    2    0    0  0.18917305632E+02  0.13809658110E+02  0.36538435373E+02  0.43400787654E+02  0.00000000000E+00 0.  1.
         11    1    3    3    0    0 -0.47602278775E+01 -0.47738021449E+01 -0.10358007563E+02  0.12358692378E+02  0.51100000000E-03 0. -1.
        -11    1    3    3    0    0 -0.15377932796E+02 -0.43408900320E+01 -0.10762435022E+02  0.19265361435E+02  0.51100000000E-03 0.  1.
        -12    1    3    3    0    0  0.12208550413E+01 -0.46949659335E+01 -0.15417992788E+02  0.16163158533E+02  0.00000000000E+00 0.  1.
</event>
<event>
 7    1  0.4621547E-010  0.4778726E+02  0.7816164E-02  0.1312668E+00
        -11   -1    0    0    0    0  0.00000000000E+00  0.00000000000E+00  0.45593999997E+02  0.45594000000E+02  0.51100000000E-03 0.  1.
         11   -1    0    0    0    0 -0.00000000000E+00 -0.00000000000E+00 -0.45593999997E+02  0.45594000000E+02  0.51100000000E-03 0. -1.
    9900012    2    1    2    0    0 -0.24643692170E+02 -0.44701557475E-03 -0.35725517174E+02  0.47787261051E+02  0.19999954436E+02 0.  0.
        -12    1    1    2    0    0  0.24643692170E+02  0.44701557475E-03  0.35725517174E+02  0.43400738949E+02  0.00000000000E+00 0.  1.
         11    1    3    3    0    0 -0.90688860199E+01  0.84051113567E+00 -0.19435986982E+02  0.21464126882E+02  0.51100000000E-03 0. -1.
        -11    1    3    3    0    0 -0.83595728564E+01 -0.68660604848E+01 -0.11443819792E+02  0.15747579389E+02  0.51100000000E-03 0.  1.
        -12    1    3    3    0    0 -0.72152332940E+01  0.60251023336E+01 -0.48457104004E+01  0.10575554780E+02  0.00000000000E+00 0.  1.
</event>
<event>
 7    1  0.4621547E-010  0.4778727E+02  0.7816164E-02  0.1312668E+00
        -11   -1    0    0    0    0  0.00000000000E+00  0.00000000000E+00  0.45593999997E+02  0.45594000000E+02  0.51100000000E-03 0.  1.
         11   -1    0    0    0    0 -0.00000000000E+00 -0.00000000000E+00 -0.45593999997E+02  0.45594000000E+02  0.51100000000E-03 0. -1.
    9900012    2    1    2    0    0  0.27039344543E+02 -0.57818027061E+00 -0.33943524936E+02  0.47787270389E+02  0.19999997011E+02 0.  0.
        -12    1    1    2    0    0 -0.27039344543E+02  0.57818027061E+00  0.33943524936E+02  0.43400729611E+02  0.00000000000E+00 0.  1.
         11    1    3    3    0    0  0.10825617337E+01 -0.18271346645E+01  0.80051631840E+00  0.22696227939E+01  0.51100000000E-03 0. -1.
        -11    1    3    3    0    0  0.57531118215E+00  0.23719179145E+01  0.42621258649E-01  0.24410641905E+01  0.51100000000E-03 0.  1.
         12    1    3    3    0    0  0.25381471627E+02 -0.11229635206E+01 -0.34786662513E+02  0.43076583404E+02  0.00000000000E+00 0. -1.
</event>
<event>
 7    1  0.4621547E-010  0.4778727E+02  0.7816164E-02  0.1312668E+00
        -11   -1    0    0    0    0  0.00000000000E+00  0.00000000000E+00  0.45593999997E+02  0.45594000000E+02  0.51100000000E-03 0.  1.
         11   -1    0    0    0    0 -0.00000000000E+00 -0.00000000000E+00 -0.45593999997E+02  0.45594000000E+02  0.51100000000E-03 0. -1.
    9900012    2    1    2    0    0 -0.41269367679E+02  0.11607274883E+02 -0.67626720638E+01  0.47787271063E+02  0.20000000083E+02 0.  0.
        -12    1    1    2    0    0  0.41269367679E+02 -0.11607274883E+02  0.67626720638E+01  0.43400728937E+02  0.00000000000E+00 0.  1.
         11    1    3    3    0    0 -0.24233154130E+02  0.45302741931E+01 -0.49542968209E+01  0.25145858518E+02  0.51100000000E-03 0. -1.
        -11    1    3    3    0    0 -0.16156584635E+02  0.10236531873E+01 -0.28456087161E+01  0.16437170746E+02  0.51100000000E-03 0.  1.
        -12    1    3    3    0    0 -0.87962891401E+00  0.60533475028E+01  0.10372334732E+01  0.62042417985E+01  0.00000000000E+00 0.  1.
</event>
<event>
 7    1  0.4621547E-010  0.4778727E+02  0.7816164E-02  0.1312668E+00
        -11   -1    0    0    0    0  0.00000000000E+00  0.00000000000E+00  0.45593999997E+02  0.45594000000E+02  0.51100000000E-03 0.  1.
         11   -1    0    0    0    0 -0.00000000000E+00 -0.00000000000E+00 -0.45593999997E+02  0.45594000000E+02  0.51100000000E-03 0. -1.
    9900012    2    1    2    0    0  0.38773757602E+02  0.27168953934E+01 -0.19308993057E+02  0.47787274061E+02  0.20000013755E+02 0.  0.
        -12    1    1    2    0    0 -0.38773757602E+02 -0.27168953934E+01  0.19308993057E+02  0.43400725939E+02  0.00000000000E+00 0.  1.
         11    1    3    3    0    0  0.26227302753E+02  0.86833181499E+01 -0.95488503929E+01  0.29231010381E+02  0.51100000000E-03 0. -1.
        -11    1    3    3    0    0  0.96130690808E+01 -0.15480082204E+01 -0.34888530353E+01  0.10343090562E+02  0.51100000000E-03 0.  1.
        -12    1    3    3    0    0  0.29333857679E+01 -0.44184145361E+01 -0.62712896286E+01  0.82131731190E+01  0.00000000000E+00 0.  1.
</event>
<event>
 7    1  0.4621547E-010  0.4778726E+02  0.7816164E-02  0.1312668E+00
        -11   -1    0    0    0    0  0.00000000000E+00  0.00000000000E+00  0.45593999997E+02  0.45594000000E+02  0.51100000000E-03 0.  1.
         11   -1    0    0    0    0 -0.00000000000E+00 -0.00000000000E+00 -0.45593999997E+02  0.45594000000E+02  0.51100000000E-03 0. -1.
    9900012    2    1    2    0    0 -0.39623151848E+02  0.17386898068E+02 -0.33653433644E+01  0.47787263568E+02  0.19999965914E+02 0.  0.
        -12    1    1    2    0    0  0.39623151848E+02 -0.17386898068E+02  0.33653433644E+01  0.43400736432E+02  0.00000000000E+00 0.  1.
         11    1    3    3    0    0 -0.14829483971E+01 -0.31178834896E+01  0.43738686773E+00  0.34801782909E+01  0.51100000000E-03 0. -1.
        -11    1    3    3    0    0 -0.67960724637E+01  0.31029491173E+01 -0.39608499835E+01  0.84559580775E+01  0.51100000000E-03 0.  1.
        -12    1    3    3    0    0 -0.31344130988E+02  0.17401832441E+02  0.15811975137E+00  0.35851127200E+02  0.00000000000E+00 0.  1.
</event>
<event>
 7    1  0.4621547E-010  0.4778728E+02  0.7816164E-02  0.1312668E+00
        -11   -1    0    0    0    0  0.00000000000E+00  0.00000000000E+00  0.45593999997E+02  0.45594000000E+02  0.51100000000E-03 0. -1.
         11   -1    0    0    0    0 -0.00000000000E+00 -0.00000000000E+00 -0.45593999997E+02  0.45594000000E+02  0.51100000000E-03 0.  1.
    9900012    2    1    2    0    0  0.36175043606E+02 -0.14146860862E+02 -0.19361168779E+02  0.47787282165E+02  0.20000050701E+02 0.  0.
        -12    1    1    2    0    0 -0.36175043606E+02  0.14146860862E+02  0.19361168779E+02  0.43400717835E+02  0.00000000000E+00 0.  1.
         11    1    3    3    0    0  0.68055580881E+01  0.59465566242E-01 -0.12830385598E+00  0.68070271914E+01  0.51100000000E-03 0. -1.
        -11    1    3    3    0    0  0.12072744872E+02  0.23171884670E-01 -0.12979007195E+02  0.17725866233E+02  0.51100000000E-03 0.  1.
         12    1    3    3    0    0  0.17296740646E+02 -0.14229498313E+02 -0.62538577280E+01  0.23254388741E+02  0.00000000000E+00 0. -1.
</event>
<event>
 7    1  0.4621547E-010  0.4778727E+02  0.7816164E-02  0.1312668E+00
        -11   -1    0    0    0    0  0.00000000000E+00  0.00000000000E+00  0.45593999997E+02  0.45594000000E+02  0.51100000000E-03 0. -1.
         11   -1    0    0    0    0 -0.00000000000E+00 -0.00000000000E+00 -0.45593999997E+02  0.45594000000E+02  0.51100000000E-03 0.  1.
    9900012    2    1    2    0    0 -0.28820053240E+02  0.28701678049E+02 -0.15140728141E+02  0.47787269128E+02  0.19999991261E+02 0.  0.
        -12    1    1    2    0    0  0.28820053240E+02 -0.28701678049E+02  0.15140728141E+02  0.43400730872E+02  0.00000000000E+00 0.  1.
         11    1    3    3    0    0 -0.84439141464E+00  0.13327925374E+01 -0.28622547929E+01  0.32683077532E+01  0.51100000000E-03 0. -1.
        -11    1    3    3    0    0 -0.16320624968E+02  0.66111963494E+01  0.26453139184E+00  0.17610811839E+02  0.51100000000E-03 0.  1.
         12    1    3    3    0    0 -0.11655036858E+02  0.20757689162E+02 -0.12543004740E+02  0.26908149536E+02  0.00000000000E+00 0. -1.
</event>
<event>
 7    1  0.4621547E-010  0.4778727E+02  0.7816164E-02  0.1312668E+00
        -11   -1    0    0    0    0  0.00000000000E+00  0.00000000000E+00  0.45593999997E+02  0.45594000000E+02  0.51100000000E-03 0.  1.
         11   -1    0    0    0    0 -0.00000000000E+00 -0.00000000000E+00 -0.45593999997E+02  0.45594000000E+02  0.51100000000E-03 0. -1.
    9900012    2    1    2    0    0 -0.12321424102E+02  0.20042724281E+02 -0.36470469128E+02  0.47787269512E+02  0.19999993011E+02 0.  0.
        -12    1    1    2    0    0  0.12321424102E+02 -0.20042724281E+02  0.36470469128E+02  0.43400730488E+02  0.00000000000E+00 0.  1.
         11    1    3    3    0    0  0.24073126319E+01 -0.17124920848E+01 -0.72723829678E+01  0.78495437791E+01  0.51100000000E-03 0. -1.
        -11    1    3    3    0    0 -0.19585640294E+01 -0.72066108677E-01 -0.21535872587E+01  0.29118902663E+01  0.51100000000E-03 0.  1.
        -12    1    3    3    0    0 -0.12770172705E+02  0.21827282474E+02 -0.27044498902E+02  0.37025835466E+02  0.00000000000E+00 0.  1.
</event>
<event>
 7    1  0.4621547E-010  0.4778727E+02  0.7816164E-02  0.1312668E+00
        -11   -1    0    0    0    0  0.00000000000E+00  0.00000000000E+00  0.45593999997E+02  0.45594000000E+02  0.51100000000E-03 0.  1.
         11   -1    0    0    0    0 -0.00000000000E+00 -0.00000000000E+00 -0.45593999997E+02  0.45594000000E+02  0.51100000000E-03 0. -1.
    9900012    2    1    2    0    0 -0.15783381777E+02 -0.31711293816E+01 -0.40304496203E+02  0.47787267102E+02  0.19999982025E+02 0.  0.
        -12    1    1    2    0    0  0.15783381777E+02  0.31711293816E+01  0.40304496203E+02  0.43400732898E+02  0.00000000000E+00 0.  1.
         11    1    3    3    0    0 -0.95650679311E+00  0.28541745664E+01 -0.15850559281E+02  0.16133860278E+02  0.51100000000E-03 0. -1.
        -11    1    3    3    0    0 -0.34714600491E+01  0.28271542428E+01 -0.11286593009E+02  0.12142117525E+02  0.51100000000E-03 0.  1.
        -12    1    3    3    0    0 -0.11355414935E+02 -0.88524581908E+01 -0.13167343913E+02  0.19511289298E+02  0.00000000000E+00 0.  1.
</event>
<event>
 7    1  0.4621547E-010  0.4778727E+02  0.7816164E-02  0.1312668E+00
        -11   -1    0    0    0    0  0.00000000000E+00  0.00000000000E+00  0.45593999997E+02  0.45594000000E+02  0.51100000000E-03 0.  1.
         11   -1    0    0    0    0 -0.00000000000E+00 -0.00000000000E+00 -0.45593999997E+02  0.45594000000E+02  0.51100000000E-03 0. -1.
    9900012    2    1    2    0    0  0.42422492287E+02 -0.56631485047E+01 -0.72030694162E+01  0.47787270607E+02  0.19999998005E+02 0.  0.
        -12    1    1    2    0    0 -0.42422492287E+02  0.56631485047E+01  0.72030694162E+01  0.43400729393E+02  0.00000000000E+00 0.  1.
         11    1    3    3    0    0  0.94833082883E+01 -0.27106810782E+01 -0.44099465165E+01  0.10804099062E+02  0.51100000000E-03 0. -1.
        -11    1    3    3    0    0  0.61712796765E+01 -0.74037439275E+01 -0.19550257129E+01  0.98347467069E+01  0.51100000000E-03 0.  1.
         12    1    3    3    0    0  0.26767904322E+02  0.44512765010E+01 -0.83809718680E+00  0.27148424838E+02  0.00000000000E+00 0. -1.
</event>
<event>
 7    1  0.4621547E-010  0.4778727E+02  0.7816164E-02  0.1312668E+00
        -11   -1    0    0    0    0  0.00000000000E+00  0.00000000000E+00  0.45593999997E+02  0.45594000000E+02  0.51100000000E-03 0. -1.
         11   -1    0    0    0    0 -0.00000000000E+00 -0.00000000000E+00 -0.45593999997E+02  0.45594000000E+02  0.51100000000E-03 0.  1.
    9900012    2    1    2    0    0  0.26972011548E+02  0.77146871879E+01  0.33115218307E+02  0.47787268568E+02  0.19999988707E+02 0.  0.
        -12    1    1    2    0    0 -0.26972011548E+02 -0.77146871879E+01 -0.33115218307E+02  0.43400731432E+02  0.00000000000E+00 0.  1.
         11    1    3    3    0    0  0.99867232319E+01  0.58944441528E+01  0.13871727725E+02  0.18080485146E+02  0.51100000000E-03 0. -1.
        -11    1    3    3    0    0 -0.22437935119E+01  0.20271296713E+01  0.47318496833E+01  0.56155378829E+01  0.51100000000E-03 0.  1.
         12    1    3    3    0    0  0.19229081828E+02 -0.20688663624E+00  0.14511640899E+02  0.24091245539E+02  0.00000000000E+00 0. -1.
</event>
<event>
 7    1  0.4621547E-010  0.4778727E+02  0.7816164E-02  0.1312668E+00
        -11   -1    0    0    0    0  0.00000000000E+00  0.00000000000E+00  0.45593999997E+02  0.45594000000E+02  0.51100000000E-03 0.  1.
         11   -1    0    0    0    0 -0.00000000000E+00 -0.00000000000E+00 -0.45593999997E+02  0.45594000000E+02  0.51100000000E-03 0. -1.
    9900012    2    1    2    0    0  0.56140965828E+00 -0.16701164275E+02 -0.40054703762E+02  0.47787270024E+02  0.19999995349E+02 0.  0.
        -12    1    1    2    0    0 -0.56140965828E+00  0.16701164275E+02  0.40054703762E+02  0.43400729976E+02  0.00000000000E+00 0.  1.
         11    1    3    3    0    0  0.96315640883E+01 -0.10643142458E+02 -0.26410801956E+02  0.30059507121E+02  0.51100000000E-03 0. -1.
        -11    1    3    3    0    0 -0.25268739097E+01 -0.34467444032E+01 -0.51294310922E+01  0.66765411949E+01  0.51100000000E-03 0.  1.
         12    1    3    3    0    0 -0.65432805203E+01 -0.26112774147E+01 -0.85144707140E+01  0.11051221708E+02  0.00000000000E+00 0. -1.
</event>
<event>
 7    1  0.6625968E-010  0.4778729E+02  0.7816164E-02  0.1312668E+00
        -11   -1    0    0    0    0  0.00000000000E+00  0.00000000000E+00  0.45593999997E+02  0.45594000000E+02  0.51100000000E-03 0.  1.
         11   -1    0    0    0    0 -0.00000000000E+00 -0.00000000000E+00 -0.45593999997E+02  0.45594000000E+02  0.51100000000E-03 0. -1.
    9900012    2    1    2    0    0 -0.18157300288E+02 -0.24223520152E+02 -0.31099117906E+02  0.47787290134E+02  0.20000087039E+02 0.  0.
        -12    1    1    2    0    0  0.18157300288E+02  0.24223520152E+02  0.31099117906E+02  0.43400709866E+02  0.00000000000E+00 0.  1.
         11    1    3    3    0    0 -0.73879109874E+01 -0.76174033017E+01 -0.26137750891E+01  0.10928763988E+02  0.51100000000E-03 0. -1.
        -11    1    3    3    0    0  0.11385351230E+01 -0.45808829411E+01 -0.14048409824E+01  0.49248684443E+01  0.51100000000E-03 0.  1.
         12    1    3    3    0    0 -0.11907924424E+02 -0.12025233909E+02 -0.27080501835E+02  0.31933657703E+02  0.00000000000E+00 0. -1.
</event>
<event>
 7    1  0.4621547E-010  0.4778728E+02  0.7816164E-02  0.1312668E+00
        -11   -1    0    0    0    0  0.00000000000E+00  0.00000000000E+00  0.45593999997E+02  0.45594000000E+02  0.51100000000E-03 0.  1.
         11   -1    0    0    0    0 -0.00000000000E+00 -0.00000000000E+00 -0.45593999997E+02  0.45594000000E+02  0.51100000000E-03 0. -1.
    9900012    2    1    2    0    0 -0.12280725421E+02 -0.12166586804E+02 -0.39809303418E+02  0.47787277772E+02  0.20000030673E+02 0.  0.
        -12    1    1    2    0    0  0.12280725421E+02  0.12166586804E+02  0.39809303418E+02  0.43400722228E+02  0.00000000000E+00 0.  1.
         11    1    3    3    0    0 -0.20780557709E+00 -0.23258238842E+01  0.21186579459E+00  0.23446806337E+01  0.51100000000E-03 0. -1.
        -11    1    3    3    0    0  0.60525704469E+00 -0.21306940565E+01  0.51657897678E+00  0.22744334136E+01  0.51100000000E-03 0.  1.
         12    1    3    3    0    0 -0.12678176889E+02 -0.77100688638E+01 -0.40537748189E+02  0.43168163724E+02  0.00000000000E+00 0. -1.
</event>
<event>
 7    1  0.4621547E-010  0.4778727E+02  0.7816164E-02  0.1312668E+00
        -11   -1    0    0    0    0  0.00000000000E+00  0.00000000000E+00  0.45593999997E+02  0.45594000000E+02  0.51100000000E-03 0. -1.
         11   -1    0    0    0    0 -0.00000000000E+00 -0.00000000000E+00 -0.45593999997E+02  0.45594000000E+02  0.51100000000E-03 0.  1.
    9900012    2    1    2    0    0 -0.94360318558E+01 -0.21503275809E+02  0.36499224740E+02  0.47787274495E+02  0.20000015734E+02 0.  0.
        -12    1    1    2    0    0  0.94360318558E+01  0.21503275809E+02 -0.36499224740E+02  0.43400725505E+02  0.00000000000E+00 0.  1.
         11    1    3    3    0    0  0.19155855017E+01 -0.10134689234E+02  0.24517848520E+02  0.26598990394E+02  0.51100000000E-03 0. -1.
        -11    1    3    3    0    0  0.50880811599E+00 -0.27877577874E+01  0.18096087968E+01  0.33623151903E+01  0.51100000000E-03 0.  1.
        -12    1    3    3    0    0 -0.11860425473E+02 -0.85808287879E+01  0.10171767424E+02  0.17825968911E+02  0.00000000000E+00 0.  1.
</event>
<event>
 7    1  0.4621547E-010  0.4778727E+02  0.7816164E-02  0.1312668E+00
        -11   -1    0    0    0    0  0.00000000000E+00  0.00000000000E+00  0.45593999997E+02  0.45594000000E+02  0.51100000000E-03 0. -1.
         11   -1    0    0    0    0 -0.00000000000E+00 -0.00000000000E+00 -0.45593999997E+02  0.45594000000E+02  0.51100000000E-03 0.  1.
    9900012    2    1    2    0    0  0.27100223457E+02  0.28267924398E+02  0.18711643435E+02  0.47787271190E+02  0.20000000665E+02 0.  0.
        -12    1    1    2    0    0 -0.27100223457E+02 -0.28267924398E+02 -0.18711643435E+02  0.43400728810E+02  0.00000000000E+00 0.  1.
         11    1    3    3    0    0  0.14941371339E+02  0.92006053627E+01  0.12384307111E+02  0.21477122233E+02  0.51100000000E-03 0. -1.
        -11    1    3    3    0    0  0.21494208888E+01 -0.14622542287E+01 -0.38359808275E-01  0.25999364074E+01  0.51100000000E-03 0.  1.
        -12    1    3    3    0    0  0.10009431229E+02  0.20529573264E+02  0.63656961325E+01  0.23710212550E+02  0.00000000000E+00 0.  1.
</event>
<event>
 7    1  0.4621547E-010  0.4778727E+02  0.7816164E-02  0.1312668E+00
        -11   -1    0    0    0    0  0.00000000000E+00  0.00000000000E+00  0.45593999997E+02  0.45594000000E+02  0.51100000000E-03 0.  1.
         11   -1    0    0    0    0 -0.00000000000E+00 -0.00000000000E+00 -0.45593999997E+02  0.45594000000E+02  0.51100000000E-03 0. -1.
    9900012    2    1    2    0    0  0.23863992838E+02  0.19115485001E+02 -0.30801482293E+02  0.47787271522E+02  0.20000002176E+02 0.  0.
        -12    1    1    2    0    0 -0.23863992838E+02 -0.19115485001E+02  0.30801482293E+02  0.43400728478E+02  0.00000000000E+00 0.  1.
         11    1    3    3    0    0  0.69448562525E+01  0.44518157384E+00 -0.10504603888E+02  0.12600631655E+02  0.51100000000E-03 0. -1.
        -11    1    3    3    0    0  0.15077204702E+02  0.13896651905E+02 -0.21726084479E+02  0.29874098863E+02  0.51100000000E-03 0.  1.
        -12    1    3    3    0    0  0.18419318837E+01  0.47736515220E+01  0.14292060740E+01  0.53125410040E+01  0.00000000000E+00 0.  1.
</event>
<event>
 7    1  0.4621547E-010  0.4778727E+02  0.7816164E-02  0.1312668E+00
        -11   -1    0    0    0    0  0.00000000000E+00  0.00000000000E+00  0.45593999997E+02  0.45594000000E+02  0.51100000000E-03 0.  1.
         11   -1    0    0    0    0 -0.00000000000E+00 -0.00000000000E+00 -0.45593999997E+02  0.45594000000E+02  0.51100000000E-03 0. -1.
    9900012    2    1    2    0    0 -0.32480881673E+02 -0.28751968163E+02  0.13928280005E+01  0.47787270544E+02  0.19999997718E+02 0.  0.
        -12    1    1    2    0    0  0.32480881673E+02  0.28751968163E+02 -0.13928280005E+01  0.43400729456E+02  0.00000000000E+00 0.  1.
         11    1    3    3    0    0 -0.36380086262E+01 -0.20971884241E+01 -0.81504341016E+00  0.42775696455E+01  0.51100000000E-03 0. -1.
        -11    1    3    3    0    0 -0.90744984487E+01 -0.14246486521E+02  0.90827827215E+01  0.19178264846E+02  0.51100000000E-03 0.  1.
        -12    1    3    3    0    0 -0.19768374598E+02 -0.12408293218E+02 -0.68749113108E+01  0.24331436052E+02  0.00000000000E+00 0.  1.
</event>
<event>
 7    1  0.4621547E-010  0.4778727E+02  0.7816164E-02  0.1312668E+00
        -11   -1    0    0    0    0  0.00000000000E+00  0.00000000000E+00  0.45593999997E+02  0.45594000000E+02  0.51100000000E-03 0.  1.
         11   -1    0    0    0    0 -0.00000000000E+00 -0.00000000000E+00 -0.45593999997E+02  0.45594000000E+02  0.51100000000E-03 0. -1.
    9900012    2    1    2    0    0 -0.76624685991E+01  0.42446554646E+02 -0.48166107024E+01  0.47787272298E+02  0.20000005718E+02 0.  0.
        -12    1    1    2    0    0  0.76624685991E+01 -0.42446554646E+02  0.48166107024E+01  0.43400727702E+02  0.00000000000E+00 0.  1.
         11    1    3    3    0    0 -0.18517193149E+00 -0.91601716045E+00  0.26981511847E-01  0.93493547668E+00  0.51100000000E-03 0. -1.
        -11    1    3    3    0    0 -0.40806617684E+01  0.17630893651E+01 -0.23787458550E+01  0.50416977975E+01  0.51100000000E-03 0.  1.
         12    1    3    3    0    0 -0.33966348992E+01  0.41599482442E+02 -0.24648463593E+01  0.41810639024E+02  0.00000000000E+00 0. -1.
</event>
<event>
 7    1  0.4621547E-010  0.4778726E+02  0.7816164E-02  0.1312668E+00
        -11   -1    0    0    0    0  0.00000000000E+00  0.00000000000E+00  0.45593999997E+02  0.45594000000E+02  0.51100000000E-03 0. -1.
         11   -1    0    0    0    0 -0.00000000000E+00 -0.00000000000E+00 -0.45593999997E+02  0.45594000000E+02  0.51100000000E-03 0.  1.
    9900012    2    1    2    0    0 -0.14566447714E+02 -0.13825076905E+02  0.38474796220E+02  0.47787261589E+02  0.19999956889E+02 0.  0.
        -12    1    1    2    0    0  0.14566447714E+02  0.13825076905E+02 -0.38474796220E+02  0.43400738411E+02  0.00000000000E+00 0.  1.
         11    1    3    3    0    0  0.40054447263E+01 -0.52798739385E+01  0.96008611812E+01  0.11666070116E+02  0.51100000000E-03 0. -1.
        -11    1    3    3    0    0 -0.36549508522E+01  0.41779368105E+00  0.88952637833E+01  0.96259511389E+01  0.51100000000E-03 0.  1.
        -12    1    3    3    0    0 -0.14916941588E+02 -0.89629966476E+01  0.19978671256E+02  0.26495240335E+02  0.00000000000E+00 0.  1.
</event>
<event>
 7    1  0.4621547E-010  0.4778727E+02  0.7816164E-02  0.1312668E+00
        -11   -1    0    0    0    0  0.00000000000E+00  0.00000000000E+00  0.45593999997E+02  0.45594000000E+02  0.51100000000E-03 0.  1.
         11   -1    0    0    0    0 -0.00000000000E+00 -0.00000000000E+00 -0.45593999997E+02  0.45594000000E+02  0.51100000000E-03 0. -1.
    9900012    2    1    2    0    0  0.61978535070E+01  0.41540435403E+02 -0.10936264506E+02  0.47787273706E+02  0.20000012134E+02 0.  0.
        -12    1    1    2    0    0 -0.61978535070E+01 -0.41540435403E+02  0.10936264506E+02  0.43400726294E+02  0.00000000000E+00 0.  1.
         11    1    3    3    0    0  0.88303980355E+01  0.21977407608E+02 -0.47254044615E+01  0.24151849250E+02  0.51100000000E-03 0. -1.
        -11    1    3    3    0    0  0.29152028471E+01  0.50896951796E+00 -0.77083558459E+00  0.30580460051E+01  0.51100000000E-03 0.  1.
         12    1    3    3    0    0 -0.55477473756E+01  0.19054058277E+02 -0.54400244596E+01  0.20577378450E+02  0.00000000000E+00 0. -1.
</event>
<event>
 7    1  0.4621547E-010  0.4778728E+02  0.7816164E-02  0.1312668E+00
        -11   -1    0    0    0    0  0.00000000000E+00  0.00000000000E+00  0.45593999997E+02  0.45594000000E+02  0.51100000000E-03 0. -1.
         11   -1    0    0    0    0 -0.00000000000E+00 -0.00000000000E+00 -0.45593999997E+02  0.45594000000E+02  0.51100000000E-03 0.  1.
    9900012    2    1    2    0    0 -0.14931567494E+02 -0.47427764603E+01  0.40474397349E+02  0.47787280223E+02  0.20000041849E+02 0.  0.
        -12    1    1    2    0    0  0.14931567494E+02  0.47427764603E+01 -0.40474397349E+02  0.43400719777E+02  0.00000000000E+00 0.  1.
         11    1    3    3    0    0 -0.14006253976E+02 -0.50838254890E+01  0.17241526535E+02  0.22787950096E+02  0.51100000000E-03 0. -1.
        -11    1    3    3    0    0 -0.36570693604E+01 -0.28717880127E+01  0.15608108867E+02  0.16286018094E+02  0.51100000000E-03 0.  1.
        -12    1    3    3    0    0  0.27317558426E+01  0.32128370415E+01  0.76247619470E+01  0.87133120332E+01  0.00000000000E+00 0.  1.
</event>
<event>
 7    1  0.4621547E-010  0.4778727E+02  0.7816164E-02  0.1312668E+00
        -11   -1    0    0    0    0  0.00000000000E+00  0.00000000000E+00  0.45593999997E+02  0.45594000000E+02  0.51100000000E-03 0. -1.
         11   -1    0    0    0    0 -0.00000000000E+00 -0.00000000000E+00 -0.45593999997E+02  0.45594000000E+02  0.51100000000E-03 0.  1.
    9900012    2    1    2    0    0 -0.33200440161E+02  0.27028266974E+02  0.71292868621E+01  0.47787272199E+02  0.20000005264E+02 0.  0.
        -12    1    1    2    0    0  0.33200440161E+02 -0.27028266974E+02 -0.71292868621E+01  0.43400727801E+02  0.00000000000E+00 0.  1.
         11    1    3    3    0    0 -0.28657752685E+02  0.24327094455E+02  0.12123888648E+02  0.39497632712E+02  0.51100000000E-03 0. -1.
        -11    1    3    3    0    0 -0.18022473261E+00  0.84679334613E-01  0.65660565383E+00  0.68613613060E+00  0.51100000000E-03 0.  1.
        -12    1    3    3    0    0 -0.43624627428E+01  0.26164931847E+01 -0.56512074400E+01  0.76035033568E+01  0.00000000000E+00 0.  1.
</event>
<event>
 7    1  0.4745252E-010  0.4778727E+02  0.7816164E-02  0.1312668E+00
        -11   -1    0    0    0    0  0.00000000000E+00  0.00000000000E+00  0.45593999997E+02  0.45594000000E+02  0.51100000000E-03 0.  1.
         11   -1    0    0    0    0 -0.00000000000E+00 -0.00000000000E+00 -0.45593999997E+02  0.45594000000E+02  0.51100000000E-03 0. -1.
    9900012    2    1    2    0    0 -0.27770430563E+02  0.30889451174E+02  0.12580466627E+02  0.47787272494E+02  0.20000006608E+02 0.  0.
        -12    1    1    2    0    0  0.27770430563E+02 -0.30889451174E+02 -0.12580466627E+02  0.43400727506E+02  0.00000000000E+00 0.  1.
         11    1    3    3    0    0 -0.16212672802E+01  0.44807465293E+01  0.64301056672E+01  0.80032403566E+01  0.51100000000E-03 0. -1.
        -11    1    3    3    0    0 -0.35079336708E+01  0.45955353198E+01 -0.36683813181E+01  0.68470114116E+01  0.51100000000E-03 0.  1.
         12    1    3    3    0    0 -0.22641229612E+02  0.21813169325E+02  0.98187422777E+01  0.32937020726E+02  0.00000000000E+00 0. -1.
</event>
<event>
 7    1  0.4621547E-010  0.4778727E+02  0.7816164E-02  0.1312668E+00
        -11   -1    0    0    0    0  0.00000000000E+00  0.00000000000E+00  0.45593999997E+02  0.45594000000E+02  0.51100000000E-03 0.  1.
         11   -1    0    0    0    0 -0.00000000000E+00 -0.00000000000E+00 -0.45593999997E+02  0.45594000000E+02  0.51100000000E-03 0. -1.
    9900012    2    1    2    0    0  0.61744269398E+01  0.40532328085E+02 -0.14234823001E+02  0.47787270123E+02  0.19999995798E+02 0.  0.
        -12    1    1    2    0    0 -0.61744269398E+01 -0.40532328085E+02  0.14234823001E+02  0.43400729877E+02  0.00000000000E+00 0.  1.
         11    1    3    3    0    0  0.33704760077E+01 -0.71629942045E+00 -0.28758780521E+01  0.44881920870E+01  0.51100000000E-03 0. -1.
        -11    1    3    3    0    0 -0.90513444865E+00  0.97471197117E+00 -0.21410333675E+00  0.13472833023E+01  0.51100000000E-03 0.  1.
         12    1    3    3    0    0  0.37090853808E+01  0.40273915534E+02 -0.11144841612E+02  0.41951794734E+02  0.00000000000E+00 0. -1.
</event>
<event>
 7    1  0.4621547E-010  0.4778727E+02  0.7816164E-02  0.1312668E+00
        -11   -1    0    0    0    0  0.00000000000E+00  0.00000000000E+00  0.45593999997E+02  0.45594000000E+02  0.51100000000E-03 0.  1.
         11   -1    0    0    0    0 -0.00000000000E+00 -0.00000000000E+00 -0.45593999997E+02  0.45594000000E+02  0.51100000000E-03 0. -1.
    9900012    2    1    2    0    0 -0.39583112776E+01  0.24518446165E+02 -0.35592145583E+02  0.47787271230E+02  0.20000000846E+02 0.  0.
        -12    1    1    2    0    0  0.39583112776E+01 -0.24518446165E+02  0.35592145583E+02  0.43400728770E+02  0.00000000000E+00 0.  1.
         11    1    3    3    0    0 -0.40691971537E+01  0.94525369068E+00 -0.28360003044E+01  0.50492343977E+01  0.51100000000E-03 0. -1.
        -11    1    3    3    0    0 -0.46255752740E+00 -0.16532974513E+01 -0.47017394740E+01  0.50053677459E+01  0.51100000000E-03 0.  1.
         12    1    3    3    0    0  0.57344340345E+00  0.25226489926E+02 -0.28054405805E+02  0.37732669086E+02  0.00000000000E+00 0. -1.
</event>
<event>
 7    1  0.4621547E-010  0.4778727E+02  0.7816164E-02  0.1312668E+00
        -11   -1    0    0    0    0  0.00000000000E+00  0.00000000000E+00  0.45593999997E+02  0.45594000000E+02  0.51100000000E-03 0.  1.
         11   -1    0    0    0    0 -0.00000000000E+00 -0.00000000000E+00 -0.45593999997E+02  0.45594000000E+02  0.51100000000E-03 0. -1.
    9900012    2    1    2    0    0  0.41692944652E+02  0.11990981352E+02 -0.12401368668E+01  0.47787271815E+02  0.20000003515E+02 0.  0.
        -12    1    1    2    0    0 -0.41692944652E+02 -0.11990981352E+02  0.12401368668E+01  0.43400728185E+02  0.00000000000E+00 0.  1.
         11    1    3    3    0    0  0.83530073281E+01  0.10097971703E+02 -0.47992680113E+01  0.13956172027E+02  0.51100000000E-03 0.  1.
        -11    1    3    3    0    0  0.19709821929E+02  0.30356744271E+01  0.14934724766E+01  0.19998071407E+02  0.51100000000E-03 0. -1.
        -12    1    3    3    0    0  0.13630115395E+02 -0.11426647781E+01  0.20656586679E+01  0.13833028381E+02  0.00000000000E+00 0.  1.
</event>
<event>
 7    1  0.4621547E-010  0.4778728E+02  0.7816164E-02  0.1312668E+00
        -11   -1    0    0    0    0  0.00000000000E+00  0.00000000000E+00  0.45593999997E+02  0.45594000000E+02  0.51100000000E-03 0.  1.
         11   -1    0    0    0    0 -0.00000000000E+00 -0.00000000000E+00 -0.45593999997E+02  0.45594000000E+02  0.51100000000E-03 0. -1.
    9900012    2    1    2    0    0  0.40653045825E+02 -0.14101972890E+02 -0.56645464233E+01  0.47787275808E+02  0.20000021720E+02 0.  0.
        -12    1    1    2    0    0 -0.40653045825E+02  0.14101972890E+02  0.56645464233E+01  0.43400724192E+02  0.00000000000E+00 0.  1.
         11    1    3    3    0    0  0.43914906518E+01 -0.13769796208E+00  0.18534901192E+01  0.47686032291E+01  0.51100000000E-03 0. -1.
        -11    1    3    3    0    0  0.11921469987E+02 -0.47143170931E+01 -0.10814999918E+02  0.16772312178E+02  0.51100000000E-03 0.  1.
        -12    1    3    3    0    0  0.24340085186E+02 -0.92499578345E+01  0.32969633759E+01  0.26246360401E+02  0.00000000000E+00 0.  1.
</event>
<event>
 7    1  0.4621547E-010  0.4778730E+02  0.7816164E-02  0.1312668E+00
        -11   -1    0    0    0    0  0.00000000000E+00  0.00000000000E+00  0.45593999997E+02  0.45594000000E+02  0.51100000000E-03 0.  1.
         11   -1    0    0    0    0 -0.00000000000E+00 -0.00000000000E+00 -0.45593999997E+02  0.45594000000E+02  0.51100000000E-03 0. -1.
    9900012    2    1    2    0    0  0.19953223885E+02  0.35773967326E+02 -0.14342682923E+02  0.47787303749E+02  0.20000149111E+02 0.  0.
        -12    1    1    2    0    0 -0.19953223885E+02 -0.35773967326E+02  0.14342682923E+02  0.43400696251E+02  0.00000000000E+00 0.  1.
         11    1    3    3    0    0  0.11964077291E+02  0.12446457271E+02 -0.88309034523E+01  0.19391706992E+02  0.51100000000E-03 0. -1.
        -11    1    3    3    0    0  0.76034879555E+01  0.14131341489E+02 -0.91800153944E+01  0.18487307113E+02  0.51100000000E-03 0.  1.
        -12    1    3    3    0    0  0.38565863878E+00  0.91961685659E+01  0.36682359237E+01  0.99082896440E+01  0.00000000000E+00 0.  1.
</event>
<event>
 7    1  0.4621547E-010  0.4778727E+02  0.7816164E-02  0.1312668E+00
        -11   -1    0    0    0    0  0.00000000000E+00  0.00000000000E+00  0.45593999997E+02  0.45594000000E+02  0.51100000000E-03 0.  1.
         11   -1    0    0    0    0 -0.00000000000E+00 -0.00000000000E+00 -0.45593999997E+02  0.45594000000E+02  0.51100000000E-03 0. -1.
    9900012    2    1    2    0    0 -0.26153464929E+02  0.10082371191E+02 -0.33135565457E+02  0.47787266886E+02  0.19999981042E+02 0.  0.
        -12    1    1    2    0    0  0.26153464929E+02 -0.10082371191E+02  0.33135565457E+02  0.43400733114E+02  0.00000000000E+00 0.  1.
         11    1    3    3    0    0 -0.11607096950E+02  0.10181898390E+02 -0.20868197535E+02  0.25959149120E+02  0.51100000000E-03 0. -1.
        -11    1    3    3    0    0 -0.27362461169E+01  0.45703695443E+01 -0.30767358615E+01  0.61515546333E+01  0.51100000000E-03 0.  1.
        -12    1    3    3    0    0 -0.11810121862E+02 -0.46698967428E+01 -0.91906320610E+01  0.15676563133E+02  0.00000000000E+00 0.  1.
</event>
<event>
 7    1  0.4621547E-010  0.4778727E+02  0.7816164E-02  0.1312668E+00
        -11   -1    0    0    0    0  0.00000000000E+00  0.00000000000E+00  0.45593999997E+02  0.45594000000E+02  0.51100000000E-03 0.  1.
         11   -1    0    0    0    0 -0.00000000000E+00 -0.00000000000E+00 -0.45593999997E+02  0.45594000000E+02  0.51100000000E-03 0. -1.
    9900012    2    1    2    0    0 -0.94573211669E+01 -0.41891446262E+02 -0.62681295041E+01  0.47787266814E+02  0.19999980713E+02 0.  0.
        -12    1    1    2    0    0  0.94573211669E+01  0.41891446262E+02  0.62681295041E+01  0.43400733186E+02  0.00000000000E+00 0.  1.
         11    1    3    3    0    0 -0.86552198165E+01 -0.17448997917E+02 -0.22648192976E+01  0.19608920549E+02  0.51100000000E-03 0. -1.
        -11    1    3    3    0    0 -0.16313352834E+01 -0.21231087386E+02 -0.82098580065E+01  0.22821527012E+02  0.51100000000E-03 0.  1.
        -12    1    3    3    0    0  0.82923393299E+00 -0.32113609593E+01  0.42065477999E+01  0.53568192539E+01  0.00000000000E+00 0.  1.
</event>
<event>
 7    1  0.4621547E-010  0.4778727E+02  0.7816164E-02  0.1312668E+00
        -11   -1    0    0    0    0  0.00000000000E+00  0.00000000000E+00  0.45593999997E+02  0.45594000000E+02  0.51100000000E-03 0.  1.
         11   -1    0    0    0    0 -0.00000000000E+00 -0.00000000000E+00 -0.45593999997E+02  0.45594000000E+02  0.51100000000E-03 0. -1.
    9900012    2    1    2    0    0 -0.33623896125E+01 -0.12524385627E+01 -0.43252153435E+02  0.47787273704E+02  0.20000012126E+02 0.  0.
        -12    1    1    2    0    0  0.33623896125E+01  0.12524385627E+01  0.43252153435E+02  0.43400726296E+02  0.00000000000E+00 0.  1.
         11    1    3    3    0    0  0.51349066191E+00  0.17722968080E+01  0.17911345972E+00  0.18538582816E+01  0.51100000000E-03 0. -1.
        -11    1    3    3    0    0 -0.65008582082E+01  0.19758111863E+01 -0.10399658337E+02  0.12422474837E+02  0.51100000000E-03 0.  1.
         12    1    3    3    0    0  0.26249779338E+01 -0.50005465571E+01 -0.33031608557E+02  0.33510940585E+02  0.00000000000E+00 0. -1.
</event>
<event>
 7    1  0.4621547E-010  0.4778727E+02  0.7816164E-02  0.1312668E+00
        -11   -1    0    0    0    0  0.00000000000E+00  0.00000000000E+00  0.45593999997E+02  0.45594000000E+02  0.51100000000E-03 0.  1.
         11   -1    0    0    0    0 -0.00000000000E+00 -0.00000000000E+00 -0.45593999997E+02  0.45594000000E+02  0.51100000000E-03 0. -1.
    9900012    2    1    2    0    0  0.22630902353E+02 -0.13948988917E+02 -0.34305855436E+02  0.47787265556E+02  0.19999974975E+02 0.  0.
        -12    1    1    2    0    0 -0.22630902353E+02  0.13948988917E+02  0.34305855436E+02  0.43400734444E+02  0.00000000000E+00 0.  1.
         11    1    3    3    0    0  0.91384760055E+01 -0.33296606917E+01 -0.13239730597E+02  0.16428294208E+02  0.51100000000E-03 0. -1.
        -11    1    3    3    0    0 -0.25535905516E+01 -0.11114487287E+01 -0.83058378322E+01  0.87603130845E+01  0.51100000000E-03 0.  1.
        -12    1    3    3    0    0  0.16046016899E+02 -0.95078794963E+01 -0.12760287007E+02  0.22598658264E+02  0.00000000000E+00 0.  1.
</event>
<event>
 7    1  0.4621547E-010  0.4778727E+02  0.7816164E-02  0.1312668E+00
        -11   -1    0    0    0    0  0.00000000000E+00  0.00000000000E+00  0.45593999997E+02  0.45594000000E+02  0.51100000000E-03 0.  1.
         11   -1    0    0    0    0 -0.00000000000E+00 -0.00000000000E+00 -0.45593999997E+02  0.45594000000E+02  0.51100000000E-03 0. -1.
    9900012    2    1    2    0    0  0.10708551543E+02 -0.37351830224E+02  0.19333671295E+02  0.47787272553E+02  0.20000006877E+02 0.  0.
        -12    1    1    2    0    0 -0.10708551543E+02  0.37351830224E+02 -0.19333671295E+02  0.43400727447E+02  0.00000000000E+00 0.  1.
         11    1    3    3    0    0  0.80704749751E+01 -0.29244424598E+02  0.17116398154E+02  0.34833030624E+02  0.51100000000E-03 0. -1.
        -11    1    3    3    0    0  0.43740438157E+00 -0.96464034676E+01  0.30767540899E+01  0.10134635585E+02  0.51100000000E-03 0.  1.
        -12    1    3    3    0    0  0.22006721866E+01  0.15389978422E+01 -0.85948094942E+00  0.28196063438E+01  0.00000000000E+00 0.  1.
</event>
<event>
 7    1  0.4621547E-010  0.4778727E+02  0.7816164E-02  0.1312668E+00
        -11   -1    0    0    0    0  0.00000000000E+00  0.00000000000E+00  0.45593999997E+02  0.45594000000E+02  0.51100000000E-03 0.  1.
         11   -1    0    0    0    0 -0.00000000000E+00 -0.00000000000E+00 -0.45593999997E+02  0.45594000000E+02  0.51100000000E-03 0. -1.
    9900012    2    1    2    0    0 -0.19476414889E+02  0.17795486365E+02 -0.34461759716E+02  0.47787274722E+02  0.20000016769E+02 0.  0.
        -12    1    1    2    0    0  0.19476414889E+02 -0.17795486365E+02  0.34461759716E+02  0.43400725278E+02  0.00000000000E+00 0.  1.
         11    1    3    3    0    0 -0.20233061309E+01  0.10192134442E+02 -0.13817734968E+02  0.17288816388E+02  0.51100000000E-03 0. -1.
        -11    1    3    3    0    0  0.17741253614E+01  0.26253002298E+00 -0.10302832116E+01  0.20683149103E+01  0.51100000000E-03 0.  1.
        -12    1    3    3    0    0 -0.19227234120E+02  0.73408218998E+01 -0.19613741537E+02  0.28430143424E+02  0.00000000000E+00 0.  1.
</event>
<event>
 7    1  0.4621547E-010  0.4778727E+02  0.7816164E-02  0.1312668E+00
        -11   -1    0    0    0    0  0.00000000000E+00  0.00000000000E+00  0.45593999997E+02  0.45594000000E+02  0.51100000000E-03 0.  1.
         11   -1    0    0    0    0 -0.00000000000E+00 -0.00000000000E+00 -0.45593999997E+02  0.45594000000E+02  0.51100000000E-03 0. -1.
    9900012    2    1    2    0    0  0.87713408856E+01 -0.13843698402E+02 -0.40187547575E+02  0.47787269748E+02  0.19999994087E+02 0.  0.
        -12    1    1    2    0    0 -0.87713408856E+01  0.13843698402E+02  0.40187547575E+02  0.43400730252E+02  0.00000000000E+00 0.  1.
         11    1    3    3    0    0  0.24024550321E+01 -0.11865993608E+01 -0.13530769503E+02  0.13793532246E+02  0.51100000000E-03 0. -1.
        -11    1    3    3    0    0 -0.46295951619E+01 -0.45359417390E+01 -0.13708647603E+02  0.15163605711E+02  0.51100000000E-03 0.  1.
         12    1    3    3    0    0  0.10998481015E+02 -0.81211573021E+01 -0.12948130469E+02  0.18830131790E+02  0.00000000000E+00 0. -1.
</event>
<event>
 7    1  0.4621547E-010  0.4778727E+02  0.7816164E-02  0.1312668E+00
        -11   -1    0    0    0    0  0.00000000000E+00  0.00000000000E+00  0.45593999997E+02  0.45594000000E+02  0.51100000000E-03 0. -1.
         11   -1    0    0    0    0 -0.00000000000E+00 -0.00000000000E+00 -0.45593999997E+02  0.45594000000E+02  0.51100000000E-03 0.  1.
    9900012    2    1    2    0    0  0.12832350277E+02  0.27224720302E+02  0.31269289405E+02  0.47787273404E+02  0.20000010757E+02 0.  0.
        -12    1    1    2    0    0 -0.12832350277E+02 -0.27224720302E+02 -0.31269289405E+02  0.43400726596E+02  0.00000000000E+00 0.  1.
         11    1    3    3    0    0  0.85329484474E+01  0.11674126128E+02  0.14027133622E+02  0.20145890598E+02  0.51100000000E-03 0. -1.
        -11    1    3    3    0    0  0.84509896730E+01  0.40425958069E+01  0.72730869043E+01  0.11860000029E+02  0.51100000000E-03 0.  1.
         12    1    3    3    0    0 -0.41515878431E+01  0.11507998368E+02  0.99690688785E+01  0.15781382777E+02  0.00000000000E+00 0. -1.
</event>
<event>
 7    1  0.4621547E-010  0.4778726E+02  0.7816164E-02  0.1312668E+00
        -11   -1    0    0    0    0  0.00000000000E+00  0.00000000000E+00  0.45593999997E+02  0.45594000000E+02  0.51100000000E-03 0. -1.
         11   -1    0    0    0    0 -0.00000000000E+00 -0.00000000000E+00 -0.45593999997E+02  0.45594000000E+02  0.51100000000E-03 0.  1.
    9900012    2    1    2    0    0 -0.22330525459E+02 -0.37011873251E+02  0.38849563445E+01  0.47787262511E+02  0.19999961091E+02 0.  0.
        -12    1    1    2    0    0  0.22330525459E+02  0.37011873251E+02 -0.38849563445E+01  0.43400737489E+02  0.00000000000E+00 0.  1.
         11    1    3    3    0    0 -0.46226666724E+01 -0.75234081895E+01  0.46141767594E+01  0.99629988145E+01  0.51100000000E-03 0.  1.
        -11    1    3    3    0    0 -0.12191330399E+02 -0.89131806723E+01  0.47452856837E+01  0.15830068322E+02  0.51100000000E-03 0. -1.
        -12    1    3    3    0    0 -0.55165283876E+01 -0.20575284389E+02 -0.54745060986E+01  0.21994195374E+02  0.00000000000E+00 0.  1.
</event>
<event>
 7    1  0.4621547E-010  0.4778727E+02  0.7816164E-02  0.1312668E+00
        -11   -1    0    0    0    0  0.00000000000E+00  0.00000000000E+00  0.45593999997E+02  0.45594000000E+02  0.51100000000E-03 0.  1.
         11   -1    0    0    0    0 -0.00000000000E+00 -0.00000000000E+00 -0.45593999997E+02  0.45594000000E+02  0.51100000000E-03 0. -1.
    9900012    2    1    2    0    0  0.20449855328E+02 -0.10354755577E+01 -0.38266885413E+02  0.47787270608E+02  0.19999998009E+02 0.  0.
        -12    1    1    2    0    0 -0.20449855328E+02  0.10354755577E+01  0.38266885413E+02  0.43400729392E+02  0.00000000000E+00 0.  1.
         11    1    3    3    0    0  0.89509277224E+01 -0.20560438293E+01 -0.19451907037E+02  0.21510999766E+02  0.51100000000E-03 0. -1.
        -11    1    3    3    0    0  0.70439506757E+00 -0.10094897207E+01 -0.14377331102E+02  0.14429930415E+02  0.51100000000E-03 0.  1.
        -12    1    3    3    0    0  0.10794532538E+02  0.20300579923E+01 -0.44376472744E+01  0.11846340426E+02  0.00000000000E+00 0.  1.
</event>
<event>
 7    1  0.4621547E-010  0.4778727E+02  0.7816164E-02  0.1312668E+00
        -11   -1    0    0    0    0  0.00000000000E+00  0.00000000000E+00  0.45593999997E+02  0.45594000000E+02  0.51100000000E-03 0.  1.
         11   -1    0    0    0    0 -0.00000000000E+00 -0.00000000000E+00 -0.45593999997E+02  0.45594000000E+02  0.51100000000E-03 0. -1.
    9900012    2    1    2    0    0  0.14067784004E+02  0.32796494695E+02 -0.24700421520E+02  0.47787269196E+02  0.19999991574E+02 0.  0.
        -12    1    1    2    0    0 -0.14067784004E+02 -0.32796494695E+02  0.24700421520E+02  0.43400730804E+02  0.00000000000E+00 0.  1.
         11    1    3    3    0    0  0.71858259101E+01  0.10038704209E+02 -0.81840376201E+01  0.14811824608E+02  0.51100000000E-03 0. -1.
        -11    1    3    3    0    0  0.40038811440E-01  0.13575948470E+02 -0.16701587388E+02  0.21523266516E+02  0.51100000000E-03 0.  1.
        -12    1    3    3    0    0  0.68419192823E+01  0.91818420158E+01  0.18520348819E+00  0.11452178072E+02  0.00000000000E+00 0.  1.
</event>
<event>
 7    1  0.4621547E-010  0.4778727E+02  0.7816164E-02  0.1312668E+00
        -11   -1    0    0    0    0  0.00000000000E+00  0.00000000000E+00  0.45593999997E+02  0.45594000000E+02  0.51100000000E-03 0.  1.
         11   -1    0    0    0    0 -0.00000000000E+00 -0.00000000000E+00 -0.45593999997E+02  0.45594000000E+02  0.51100000000E-03 0. -1.
    9900012    2    1    2    0    0  0.34771403228E+02  0.25864997031E+02  0.23610973138E+01  0.47787270347E+02  0.19999996822E+02 0.  0.
        -12    1    1    2    0    0 -0.34771403228E+02 -0.25864997031E+02 -0.23610973138E+01  0.43400729653E+02  0.00000000000E+00 0.  1.
         11    1    3    3    0    0  0.90970972735E+00  0.25936456904E+01 -0.16480504115E+01  0.32047839514E+01  0.51100000000E-03 0. -1.
        -11    1    3    3    0    0 -0.10289446438E+01  0.44863629902E+01  0.16374018856E+01  0.48854135092E+01  0.51100000000E-03 0.  1.
         12    1    3    3    0    0  0.34890638145E+02  0.18784988350E+02  0.23717458397E+01  0.39697072887E+02  0.00000000000E+00 0. -1.
</event>
<event>
 7    1  0.4621547E-010  0.4778726E+02  0.7816164E-02  0.1312668E+00
        -11   -1    0    0    0    0  0.00000000000E+00  0.00000000000E+00  0.45593999997E+02  0.45594000000E+02  0.51100000000E-03 0.  1.
         11   -1    0    0    0    0 -0.00000000000E+00 -0.00000000000E+00 -0.45593999997E+02  0.45594000000E+02  0.51100000000E-03 0. -1.
    9900012    2    1    2    0    0  0.34596902715E+02 -0.27452554775E+01 -0.26060362183E+02  0.47787255971E+02  0.19999931276E+02 0.  0.
        -12    1    1    2    0    0 -0.34596902715E+02  0.27452554775E+01  0.26060362183E+02  0.43400744029E+02  0.00000000000E+00 0.  1.
         11    1    3    3    0    0  0.11779729654E+02  0.40477162332E+01 -0.11301974546E+02  0.16819056642E+02  0.51100000000E-03 0. -1.
        -11    1    3    3    0    0  0.51991895998E+01  0.37872967877E+01 -0.18245578987E+01  0.66861200437E+01  0.51100000000E-03 0.  1.
        -12    1    3    3    0    0  0.17617983462E+02 -0.10580268498E+02 -0.12933829738E+02  0.24282079286E+02  0.00000000000E+00 0.  1.
</event>
<event>
 7    1  0.4621547E-010  0.4778727E+02  0.7816164E-02  0.1312668E+00
        -11   -1    0    0    0    0  0.00000000000E+00  0.00000000000E+00  0.45593999997E+02  0.45594000000E+02  0.51100000000E-03 0.  1.
         11   -1    0    0    0    0 -0.00000000000E+00 -0.00000000000E+00 -0.45593999997E+02  0.45594000000E+02  0.51100000000E-03 0. -1.
    9900012    2    1    2    0    0 -0.14365346907E+02 -0.25032086364E+02 -0.32413809463E+02  0.47787267478E+02  0.19999983741E+02 0.  0.
        -12    1    1    2    0    0  0.14365346907E+02  0.25032086364E+02  0.32413809463E+02  0.43400732522E+02  0.00000000000E+00 0.  1.
         11    1    3    3    0    0 -0.19717612704E+01 -0.43179101829E+00 -0.10402451604E+02  0.10596475151E+02  0.51100000000E-03 0. -1.
        -11    1    3    3    0    0 -0.23345257569E+01 -0.15177111188E+02 -0.15928336212E+02  0.22124796254E+02  0.51100000000E-03 0.  1.
         12    1    3    3    0    0 -0.10059059880E+02 -0.94231841573E+01 -0.60830216470E+01  0.15065996074E+02  0.00000000000E+00 0. -1.
</event>
<event>
 7    1  0.4621547E-010  0.4778727E+02  0.7816164E-02  0.1312668E+00
        -11   -1    0    0    0    0  0.00000000000E+00  0.00000000000E+00  0.45593999997E+02  0.45594000000E+02  0.51100000000E-03 0. -1.
         11   -1    0    0    0    0 -0.00000000000E+00 -0.00000000000E+00 -0.45593999997E+02  0.45594000000E+02  0.51100000000E-03 0.  1.
    9900012    2    1    2    0    0  0.13778299282E+02  0.28572637950E+02  0.29620703518E+02  0.47787271350E+02  0.20000001392E+02 0.  0.
        -12    1    1    2    0    0 -0.13778299282E+02 -0.28572637950E+02 -0.29620703518E+02  0.43400728650E+02  0.00000000000E+00 0.  1.
         11    1    3    3    0    0  0.15800840550E+01  0.63523986432E+01  0.70679621421E+01  0.96335727145E+01  0.51100000000E-03 0. -1.
        -11    1    3    3    0    0  0.45638816093E+01  0.13017174013E+02  0.14126548397E+01  0.13866197337E+02  0.51100000000E-03 0.  1.
         12    1    3    3    0    0  0.76343336175E+01  0.92030652937E+01  0.21140086536E+02  0.24287501298E+02  0.00000000000E+00 0. -1.
</event>
<event>
 7    1  0.4621547E-010  0.4778726E+02  0.7816164E-02  0.1312668E+00
        -11   -1    0    0    0    0  0.00000000000E+00  0.00000000000E+00  0.45593999997E+02  0.45594000000E+02  0.51100000000E-03 0. -1.
         11   -1    0    0    0    0 -0.00000000000E+00 -0.00000000000E+00 -0.45593999997E+02  0.45594000000E+02  0.51100000000E-03 0.  1.
    9900012    2    1    2    0    0 -0.14640677146E+02  0.74285720859E+01  0.40175752878E+02  0.47787260031E+02  0.19999949786E+02 0.  0.
        -12    1    1    2    0    0  0.14640677146E+02 -0.74285720859E+01 -0.40175752878E+02  0.43400739969E+02  0.00000000000E+00 0.  1.
         11    1    3    3    0    0 -0.71212353095E+00  0.60609198342E+01  0.12899298063E+02  0.14270030131E+02  0.51100000000E-03 0. -1.
        -11    1    3    3    0    0  0.16300014870E+01 -0.24265390067E+01  0.18233406795E+01  0.34452239250E+01  0.51100000000E-03 0.  1.
         12    1    3    3    0    0 -0.15558555102E+02  0.37941912583E+01  0.25453114135E+02  0.30072005975E+02  0.00000000000E+00 0. -1.
</event>
<event>
 7    1  0.4621547E-010  0.4778726E+02  0.7816164E-02  0.1312668E+00
        -11   -1    0    0    0    0  0.00000000000E+00  0.00000000000E+00  0.45593999997E+02  0.45594000000E+02  0.51100000000E-03 0.  1.
         11   -1    0    0    0    0 -0.00000000000E+00 -0.00000000000E+00 -0.45593999997E+02  0.45594000000E+02  0.51100000000E-03 0. -1.
    9900012    2    1    2    0    0  0.26372065957E+02  0.34454646656E+02  0.10076103937E+01  0.47787264779E+02  0.19999971432E+02 0.  0.
        -12    1    1    2    0    0 -0.26372065957E+02 -0.34454646656E+02 -0.10076103937E+01  0.43400735221E+02  0.00000000000E+00 0.  1.
         11    1    3    3    0    0  0.11805296780E+02  0.14670973823E+02 -0.39207062404E+01  0.19234719719E+02  0.51100000000E-03 0. -1.
        -11    1    3    3    0    0  0.55307018484E+01  0.18073648057E+02  0.38964473537E+01  0.19298386442E+02  0.51100000000E-03 0.  1.
        -12    1    3    3    0    0  0.90360673291E+01  0.17100247755E+01  0.10318692804E+01  0.92541586177E+01  0.00000000000E+00 0.  1.
</event>
<event>
 7    1  0.4621547E-010  0.4778727E+02  0.7816164E-02  0.1312668E+00
        -11   -1    0    0    0    0  0.00000000000E+00  0.00000000000E+00  0.45593999997E+02  0.45594000000E+02  0.51100000000E-03 0. -1.
         11   -1    0    0    0    0 -0.00000000000E+00 -0.00000000000E+00 -0.45593999997E+02  0.45594000000E+02  0.51100000000E-03 0.  1.
    9900012    2    1    2    0    0 -0.42466471581E+02  0.23001198619E+01  0.86562964177E+01  0.47787271577E+02  0.20000002429E+02 0.  0.
        -12    1    1    2    0    0  0.42466471581E+02 -0.23001198619E+01 -0.86562964177E+01  0.43400728423E+02  0.00000000000E+00 0.  1.
         11    1    3    3    0    0 -0.11068882386E+02 -0.13071450707E+01 -0.40449757712E+01  0.11857091328E+02  0.51100000000E-03 0. -1.
        -11    1    3    3    0    0 -0.49147117869E+01 -0.33260916527E+01  0.41814833664E+01  0.72596198961E+01  0.51100000000E-03 0.  1.
         12    1    3    3    0    0 -0.26482877408E+02  0.69333565854E+01  0.85197888225E+01  0.28670560353E+02  0.00000000000E+00 0. -1.
</event>
<event>
 7    1  0.4621547E-010  0.4778729E+02  0.7816164E-02  0.1312668E+00
        -11   -1    0    0    0    0  0.00000000000E+00  0.00000000000E+00  0.45593999997E+02  0.45594000000E+02  0.51100000000E-03 0.  1.
         11   -1    0    0    0    0 -0.00000000000E+00 -0.00000000000E+00 -0.45593999997E+02  0.45594000000E+02  0.51100000000E-03 0. -1.
    9900012    2    1    2    0    0 -0.16198867096E+02  0.18144417406E+02 -0.35944380918E+02  0.47787289203E+02  0.20000082790E+02 0.  0.
        -12    1    1    2    0    0  0.16198867096E+02 -0.18144417406E+02  0.35944380918E+02  0.43400710797E+02  0.00000000000E+00 0.  1.
         11    1    3    3    0    0  0.75853644394E-01  0.47763202113E+01 -0.31364714104E+01  0.57145814987E+01  0.51100000000E-03 0. -1.
        -11    1    3    3    0    0 -0.48937218154E+01  0.13024725988E+02 -0.12092043658E+02  0.18433923086E+02  0.51100000000E-03 0.  1.
        -12    1    3    3    0    0 -0.11380998925E+02  0.34337120664E+00 -0.20715865849E+02  0.23638784618E+02  0.00000000000E+00 0.  1.
</event>
<event>
 7    1  0.4621547E-010  0.4778726E+02  0.7816164E-02  0.1312668E+00
        -11   -1    0    0    0    0  0.00000000000E+00  0.00000000000E+00  0.45593999997E+02  0.45594000000E+02  0.51100000000E-03 0.  1.
         11   -1    0    0    0    0 -0.00000000000E+00 -0.00000000000E+00 -0.45593999997E+02  0.45594000000E+02  0.51100000000E-03 0. -1.
    9900012    2    1    2    0    0  0.26582510792E+02 -0.15267901398E+02 -0.30722716094E+02  0.47787262941E+02  0.19999963052E+02 0.  0.
        -12    1    1    2    0    0 -0.26582510792E+02  0.15267901398E+02  0.30722716094E+02  0.43400737059E+02  0.00000000000E+00 0.  1.
         11    1    3    3    0    0  0.11043383591E+02 -0.43743391697E+01 -0.20096395238E+02  0.23344298364E+02  0.51100000000E-03 0. -1.
        -11    1    3    3    0    0  0.13035443105E+02 -0.93658342641E+01 -0.13011511199E+02  0.20662551932E+02  0.51100000000E-03 0.  1.
        -12    1    3    3    0    0  0.25036840960E+01 -0.15277279645E+01  0.23851903433E+01  0.37804126441E+01  0.00000000000E+00 0.  1.
</event>
<event>
 7    1  0.4621547E-010  0.4778727E+02  0.7816164E-02  0.1312668E+00
        -11   -1    0    0    0    0  0.00000000000E+00  0.00000000000E+00  0.45593999997E+02  0.45594000000E+02  0.51100000000E-03 0.  1.
         11   -1    0    0    0    0 -0.00000000000E+00 -0.00000000000E+00 -0.45593999997E+02  0.45594000000E+02  0.51100000000E-03 0. -1.
    9900012    2    1    2    0    0  0.26941777750E+02  0.59987120140E+01 -0.33492977482E+02  0.47787268730E+02  0.19999989447E+02 0.  0.
        -12    1    1    2    0    0 -0.26941777750E+02 -0.59987120140E+01  0.33492977482E+02  0.43400731270E+02  0.00000000000E+00 0.  1.
         11    1    3    3    0    0  0.14012753331E+02  0.32238255149E+00 -0.19528778913E+02  0.24038186132E+02  0.51100000000E-03 0. -1.
        -11    1    3    3    0    0  0.10090753670E+02 -0.12685399422E+01 -0.32647039812E+01  0.10681329297E+02  0.51100000000E-03 0.  1.
         12    1    3    3    0    0  0.28382707496E+01  0.69448694046E+01 -0.10699494588E+02  0.13067753301E+02  0.00000000000E+00 0. -1.
</event>
<event>
 7    1  0.4621547E-010  0.4778727E+02  0.7816164E-02  0.1312668E+00
        -11   -1    0    0    0    0  0.00000000000E+00  0.00000000000E+00  0.45593999997E+02  0.45594000000E+02  0.51100000000E-03 0. -1.
         11   -1    0    0    0    0 -0.00000000000E+00 -0.00000000000E+00 -0.45593999997E+02  0.45594000000E+02  0.51100000000E-03 0.  1.
    9900012    2    1    2    0    0  0.11346367697E+01  0.30103225713E+02  0.31243101571E+02  0.47787274261E+02  0.20000014666E+02 0.  0.
        -12    1    1    2    0    0 -0.11346367697E+01 -0.30103225713E+02 -0.31243101571E+02  0.43400725739E+02  0.00000000000E+00 0.  1.
         11    1    3    3    0    0  0.15724944599E+01  0.17009512207E+02  0.21333919080E+02  0.27330063079E+02  0.51100000000E-03 0. -1.
        -11    1    3    3    0    0  0.72793656495E+00  0.15203118278E+02  0.96761163901E+01  0.18035851121E+02  0.51100000000E-03 0.  1.
        -12    1    3    3    0    0 -0.11657942551E+01 -0.21094047718E+01  0.23306610048E+00  0.24213600608E+01  0.00000000000E+00 0.  1.
</event>
<event>
 7    1  0.4621547E-010  0.4778727E+02  0.7816164E-02  0.1312668E+00
        -11   -1    0    0    0    0  0.00000000000E+00  0.00000000000E+00  0.45593999997E+02  0.45594000000E+02  0.51100000000E-03 0.  1.
         11   -1    0    0    0    0 -0.00000000000E+00 -0.00000000000E+00 -0.45593999997E+02  0.45594000000E+02  0.51100000000E-03 0. -1.
    9900012    2    1    2    0    0 -0.36642835057E+02  0.23256942596E+02  0.20156711593E+00  0.47787269946E+02  0.19999994990E+02 0.  0.
        -12    1    1    2    0    0  0.36642835057E+02 -0.23256942596E+02 -0.20156711593E+00  0.43400730054E+02  0.00000000000E+00 0.  1.
         11    1    3    3    0    0 -0.12947532459E+02  0.34907677472E+01  0.39349584918E+01  0.13975262245E+02  0.51100000000E-03 0. -1.
        -11    1    3    3    0    0 -0.71975110202E+01  0.85295784134E+01  0.47421264381E+01  0.12126237513E+02  0.51100000000E-03 0.  1.
         12    1    3    3    0    0 -0.16497791578E+02  0.11236596436E+02 -0.84755178139E+01  0.21685770188E+02  0.00000000000E+00 0. -1.
</event>
<event>
 7    1  0.4621547E-010  0.4778727E+02  0.7816164E-02  0.1312668E+00
        -11   -1    0    0    0    0  0.00000000000E+00  0.00000000000E+00  0.45593999997E+02  0.45594000000E+02  0.51100000000E-03 0.  1.
         11   -1    0    0    0    0 -0.00000000000E+00 -0.00000000000E+00 -0.45593999997E+02  0.45594000000E+02  0.51100000000E-03 0. -1.
    9900012    2    1    2    0    0  0.11985352915E+02  0.79068621964E+01 -0.40956755673E+02  0.47787274320E+02  0.20000014934E+02 0.  0.
        -12    1    1    2    0    0 -0.11985352915E+02 -0.79068621964E+01  0.40956755673E+02  0.43400725680E+02  0.00000000000E+00 0.  1.
         11    1    3    3    0    0 -0.63371828633E+00 -0.41100702389E+01 -0.10986108107E+02  0.11746865447E+02  0.51100000000E-03 0. -1.
        -11    1    3    3    0    0  0.61125371259E+01  0.19183578164E+01 -0.17894018536E+02  0.19006291234E+02  0.51100000000E-03 0.  1.
        -12    1    3    3    0    0  0.65065340752E+01  0.10098574619E+02 -0.12076629031E+02  0.17034117639E+02  0.00000000000E+00 0.  1.
</event>
<event>
 7    1  0.4621547E-010  0.4778728E+02  0.7816164E-02  0.1312668E+00
        -11   -1    0    0    0    0  0.00000000000E+00  0.00000000000E+00  0.45593999997E+02  0.45594000000E+02  0.51100000000E-03 0. -1.
         11   -1    0    0    0    0 -0.00000000000E+00 -0.00000000000E+00 -0.45593999997E+02  0.45594000000E+02  0.51100000000E-03 0.  1.
    9900012    2    1    2    0    0  0.37145535267E+02 -0.58788619722E+01  0.21662656703E+02  0.47787279916E+02  0.20000040449E+02 0.  0.
        -12    1    1    2    0    0 -0.37145535267E+02  0.58788619722E+01 -0.21662656703E+02  0.43400720084E+02  0.00000000000E+00 0.  1.
         11    1    3    3    0    0  0.82096595351E+01 -0.65335256070E+00  0.56643995978E+01  0.99955391208E+01  0.51100000000E-03 0. -1.
        -11    1    3    3    0    0  0.24402036152E+02 -0.23974331195E+01  0.42497164017E+01  0.24885078736E+02  0.51100000000E-03 0.  1.
         12    1    3    3    0    0  0.45338395800E+01 -0.28280762921E+01  0.11748540703E+02  0.12906662059E+02  0.00000000000E+00 0. -1.
</event>
<event>
 7    1  0.4621547E-010  0.4778727E+02  0.7816164E-02  0.1312668E+00
        -11   -1    0    0    0    0  0.00000000000E+00  0.00000000000E+00  0.45593999997E+02  0.45594000000E+02  0.51100000000E-03 0. -1.
         11   -1    0    0    0    0 -0.00000000000E+00 -0.00000000000E+00 -0.45593999997E+02  0.45594000000E+02  0.51100000000E-03 0.  1.
    9900012    2    1    2    0    0 -0.75719530739E+01  0.12771714500E+02  0.40782008243E+02  0.47787270041E+02  0.19999995427E+02 0.  0.
        -12    1    1    2    0    0  0.75719530739E+01 -0.12771714500E+02 -0.40782008243E+02  0.43400729959E+02  0.00000000000E+00 0.  1.
         11    1    3    3    0    0 -0.31393417334E+01  0.64296116028E+01  0.11689878118E+02  0.13705787922E+02  0.51100000000E-03 0. -1.
        -11    1    3    3    0    0 -0.36136419851E+01  0.72941303861E+01  0.42039815102E+01  0.91616705511E+01  0.51100000000E-03 0.  1.
         12    1    3    3    0    0 -0.81896935535E+00 -0.95202748905E+00  0.24888148615E+02  0.24919811569E+02  0.00000000000E+00 0. -1.
</event>
<event>
 7    1  0.4621547E-010  0.4778728E+02  0.7816164E-02  0.1312668E+00
        -11   -1    0    0    0    0  0.00000000000E+00  0.00000000000E+00  0.45593999997E+02  0.45594000000E+02  0.51100000000E-03 0.  1.
         11   -1    0    0    0    0 -0.00000000000E+00 -0.00000000000E+00 -0.45593999997E+02  0.45594000000E+02  0.51100000000E-03 0. -1.
    9900012    2    1    2    0    0  0.11880597716E+02 -0.30381246951E+02 -0.28626107887E+02  0.47787276260E+02  0.20000023781E+02 0.  0.
        -12    1    1    2    0    0 -0.11880597716E+02  0.30381246951E+02  0.28626107887E+02  0.43400723740E+02  0.00000000000E+00 0.  1.
         11    1    3    3    0    0 -0.48909418313E+01 -0.53444485238E+01 -0.87294094926E+01  0.11344030693E+02  0.51100000000E-03 0. -1.
        -11    1    3    3    0    0  0.10728043212E+02 -0.12578713815E+02 -0.12637675681E+02  0.20809271955E+02  0.51100000000E-03 0.  1.
        -12    1    3    3    0    0  0.60434963344E+01 -0.12458084613E+02 -0.72590227129E+01  0.15633973612E+02  0.00000000000E+00 0.  1.
</event>
<event>
 7    1  0.4621547E-010  0.4778727E+02  0.7816164E-02  0.1312668E+00
        -11   -1    0    0    0    0  0.00000000000E+00  0.00000000000E+00  0.45593999997E+02  0.45594000000E+02  0.51100000000E-03 0.  1.
         11   -1    0    0    0    0 -0.00000000000E+00 -0.00000000000E+00 -0.45593999997E+02  0.45594000000E+02  0.51100000000E-03 0. -1.
    9900012    2    1    2    0    0  0.37623717499E+02 -0.18926668596E+02 -0.10481428039E+02  0.47787271477E+02  0.20000001973E+02 0.  0.
        -12    1    1    2    0    0 -0.37623717499E+02  0.18926668596E+02  0.10481428039E+02  0.43400728523E+02  0.00000000000E+00 0.  1.
         11    1    3    3    0    0  0.24243353417E+02 -0.15942312404E+02 -0.38940956505E+01  0.29275612562E+02  0.51100000000E-03 0. -1.
        -11    1    3    3    0    0 -0.94682300436E+00 -0.13404017824E+01  0.12825846524E+01  0.20828284595E+01  0.51100000000E-03 0.  1.
         12    1    3    3    0    0  0.14327187086E+02 -0.16439544092E+01 -0.78699170409E+01  0.16428830455E+02  0.00000000000E+00 0. -1.
</event>
<event>
 7    1  0.4621547E-010  0.4778727E+02  0.7816164E-02  0.1312668E+00
        -11   -1    0    0    0    0  0.00000000000E+00  0.00000000000E+00  0.45593999997E+02  0.45594000000E+02  0.51100000000E-03 0. -1.
         11   -1    0    0    0    0 -0.00000000000E+00 -0.00000000000E+00 -0.45593999997E+02  0.45594000000E+02  0.51100000000E-03 0.  1.
    9900012    2    1    2    0    0  0.35962667176E+02 -0.20055336867E+02  0.13714721603E+02  0.47787267795E+02  0.19999985184E+02 0.  0.
        -12    1    1    2    0    0 -0.35962667176E+02  0.20055336867E+02 -0.13714721603E+02  0.43400732205E+02  0.00000000000E+00 0.  1.
         11    1    3    3    0    0  0.20699677874E+02 -0.15619266892E+02  0.93638739875E+01  0.27570279264E+02  0.51100000000E-03 0.  1.
        -11    1    3    3    0    0  0.13723608590E+02 -0.71797189892E+01  0.60660722899E+01  0.16633791834E+02  0.51100000000E-03 0. -1.
        -12    1    3    3    0    0  0.15393807121E+01  0.27436490142E+01 -0.17152246743E+01  0.35831966975E+01  0.00000000000E+00 0.  1.
</event>
<event>
 7    1  0.4621547E-010  0.4778727E+02  0.7816164E-02  0.1312668E+00
        -11   -1    0    0    0    0  0.00000000000E+00  0.00000000000E+00  0.45593999997E+02  0.45594000000E+02  0.51100000000E-03 0. -1.
         11   -1    0    0    0    0 -0.00000000000E+00 -0.00000000000E+00 -0.45593999997E+02  0.45594000000E+02  0.51100000000E-03 0.  1.
    9900012    2    1    2    0    0 -0.49818648344E+00 -0.32535265529E+02  0.28719876007E+02  0.47787274538E+02  0.20000015929E+02 0.  0.
        -12    1    1    2    0    0  0.49818648344E+00  0.32535265529E+02 -0.28719876007E+02  0.43400725462E+02  0.00000000000E+00 0.  1.
         11    1    3    3    0    0 -0.74510198715E+00 -0.19496933379E+02  0.76578846151E+01  0.20960171402E+02  0.51100000000E-03 0. -1.
        -11    1    3    3    0    0 -0.52624646204E+00 -0.14512855258E+02  0.16552672373E+02  0.22020237647E+02  0.51100000000E-03 0.  1.
        -12    1    3    3    0    0  0.77316196575E+00  0.14745231083E+01  0.45093190181E+01  0.48068654890E+01  0.00000000000E+00 0.  1.
</event>
<event>
 7    1  0.4621547E-010  0.4778727E+02  0.7816164E-02  0.1312668E+00
        -11   -1    0    0    0    0  0.00000000000E+00  0.00000000000E+00  0.45593999997E+02  0.45594000000E+02  0.51100000000E-03 0.  1.
         11   -1    0    0    0    0 -0.00000000000E+00 -0.00000000000E+00 -0.45593999997E+02  0.45594000000E+02  0.51100000000E-03 0. -1.
    9900012    2    1    2    0    0  0.14039226855E+02  0.37407445071E+02 -0.16947166837E+02  0.47787270730E+02  0.19999998566E+02 0.  0.
        -12    1    1    2    0    0 -0.14039226855E+02 -0.37407445071E+02  0.16947166837E+02  0.43400729270E+02  0.00000000000E+00 0.  1.
         11    1    3    3    0    0  0.24656580542E+01  0.26333685811E+02 -0.12438711086E+02  0.29227795192E+02  0.51100000000E-03 0. -1.
        -11    1    3    3    0    0  0.43340984255E+01  0.83729279672E+01  0.34549577025E+00  0.94344951902E+01  0.51100000000E-03 0.  1.
         12    1    3    3    0    0  0.72394703750E+01  0.27008312925E+01 -0.48539515208E+01  0.91249803478E+01  0.00000000000E+00 0. -1.
</event>
<event>
 7    1  0.4621547E-010  0.4778727E+02  0.7816164E-02  0.1312668E+00
        -11   -1    0    0    0    0  0.00000000000E+00  0.00000000000E+00  0.45593999997E+02  0.45594000000E+02  0.51100000000E-03 0. -1.
         11   -1    0    0    0    0 -0.00000000000E+00 -0.00000000000E+00 -0.45593999997E+02  0.45594000000E+02  0.51100000000E-03 0.  1.
    9900012    2    1    2    0    0 -0.16083926461E+02  0.36344034531E+02  0.17436800012E+02  0.47787268081E+02  0.19999986489E+02 0.  0.
        -12    1    1    2    0    0  0.16083926461E+02 -0.36344034531E+02 -0.17436800012E+02  0.43400731919E+02  0.00000000000E+00 0.  1.
         11    1    3    3    0    0 -0.13465264036E+02  0.15909905454E+02  0.11453603495E+02  0.23782839620E+02  0.51100000000E-03 0. -1.
        -11    1    3    3    0    0 -0.41810761771E-01  0.18512718837E+01  0.48706762509E+01  0.52108006227E+01  0.51100000000E-03 0.  1.
         12    1    3    3    0    0 -0.25768516634E+01  0.18582857194E+02  0.11125202660E+01  0.18793627838E+02  0.00000000000E+00 0. -1.
</event>
<event>
 7    1  0.4621547E-010  0.4778727E+02  0.7816164E-02  0.1312668E+00
        -11   -1    0    0    0    0  0.00000000000E+00  0.00000000000E+00  0.45593999997E+02  0.45594000000E+02  0.51100000000E-03 0. -1.
         11   -1    0    0    0    0 -0.00000000000E+00 -0.00000000000E+00 -0.45593999997E+02  0.45594000000E+02  0.51100000000E-03 0.  1.
    9900012    2    1    2    0    0 -0.32773592849E+02 -0.14124142543E+02  0.24698649728E+02  0.47787273172E+02  0.20000009701E+02 0.  0.
        -12    1    1    2    0    0  0.32773592849E+02  0.14124142543E+02 -0.24698649728E+02  0.43400726828E+02  0.00000000000E+00 0.  1.
         11    1    3    3    0    0 -0.85460736447E+01  0.22897833859E+00 -0.16682048620E+00  0.85507681033E+01  0.51100000000E-03 0.  1.
        -11    1    3    3    0    0 -0.48695870521E+01 -0.78261913062E+01  0.11854445088E+02  0.15016325017E+02  0.51100000000E-03 0. -1.
         12    1    3    3    0    0 -0.19357932152E+02 -0.65269295757E+01  0.13011025126E+02  0.24220180051E+02  0.00000000000E+00 0. -1.
</event>
<event>
 7    1  0.4621547E-010  0.4778727E+02  0.7816164E-02  0.1312668E+00
        -11   -1    0    0    0    0  0.00000000000E+00  0.00000000000E+00  0.45593999997E+02  0.45594000000E+02  0.51100000000E-03 0.  1.
         11   -1    0    0    0    0 -0.00000000000E+00 -0.00000000000E+00 -0.45593999997E+02  0.45594000000E+02  0.51100000000E-03 0. -1.
    9900012    2    1    2    0    0  0.66442182687E+00  0.13403375874E+02 -0.41273858727E+02  0.47787270105E+02  0.19999995717E+02 0.  0.
        -12    1    1    2    0    0 -0.66442182687E+00 -0.13403375874E+02  0.41273858727E+02  0.43400729895E+02  0.00000000000E+00 0.  1.
         11    1    3    3    0    0  0.25103813893E+01  0.75608224782E+01 -0.15439661791E+02  0.17373865654E+02  0.51100000000E-03 0. -1.
        -11    1    3    3    0    0 -0.21245504013E+01  0.10734156339E+02 -0.19973585553E+02  0.22774546029E+02  0.51100000000E-03 0.  1.
        -12    1    3    3    0    0  0.27859083890E+00 -0.48916029435E+01 -0.58606113836E+01  0.76388584227E+01  0.00000000000E+00 0.  1.
</event>
<event>
 7    1  0.4621547E-010  0.4778727E+02  0.7816164E-02  0.1312668E+00
        -11   -1    0    0    0    0  0.00000000000E+00  0.00000000000E+00  0.45593999997E+02  0.45594000000E+02  0.51100000000E-03 0.  1.
         11   -1    0    0    0    0 -0.00000000000E+00 -0.00000000000E+00 -0.45593999997E+02  0.45594000000E+02  0.51100000000E-03 0. -1.
    9900012    2    1    2    0    0  0.25645556832E+02 -0.20046905752E+02 -0.28706273344E+02  0.47787272532E+02  0.20000006784E+02 0.  0.
        -12    1    1    2    0    0 -0.25645556832E+02  0.20046905752E+02  0.28706273344E+02  0.43400727468E+02  0.00000000000E+00 0.  1.
         11    1    3    3    0    0  0.12298904740E+02 -0.11426831572E+02 -0.96246489804E+01  0.19351211999E+02  0.51100000000E-03 0. -1.
        -11    1    3    3    0    0 -0.14805996309E+01 -0.52598478233E+01 -0.27287697305E+01  0.61077294386E+01  0.51100000000E-03 0.  1.
        -12    1    3    3    0    0  0.14827251723E+02 -0.33602263560E+01 -0.16352854633E+02  0.22328331094E+02  0.00000000000E+00 0.  1.
</event>
<event>
 7    1  0.4621547E-010  0.4778727E+02  0.7816164E-02  0.1312668E+00
        -11   -1    0    0    0    0  0.00000000000E+00  0.00000000000E+00  0.45593999997E+02  0.45594000000E+02  0.51100000000E-03 0.  1.
         11   -1    0    0    0    0 -0.00000000000E+00 -0.00000000000E+00 -0.45593999997E+02  0.45594000000E+02  0.51100000000E-03 0. -1.
    9900012    2    1    2    0    0  0.25799656830E+02 -0.30752699789E+02 -0.16500675867E+02  0.47787272576E+02  0.20000006982E+02 0.  0.
        -12    1    1    2    0    0 -0.25799656830E+02  0.30752699789E+02  0.16500675867E+02  0.43400727424E+02  0.00000000000E+00 0.  1.
         11    1    3    3    0    0  0.12386333837E+01 -0.98337711914E+01 -0.67338395836E+01  0.11982565014E+02  0.51100000000E-03 0. -1.
        -11    1    3    3    0    0  0.17789327121E+02 -0.17997431148E+02 -0.12127024334E+02  0.28061226039E+02  0.51100000000E-03 0.  1.
        -12    1    3    3    0    0  0.67716963254E+01 -0.29214974496E+01  0.23601880502E+01  0.77434815234E+01  0.00000000000E+00 0.  1.
</event>
<event>
 7    1  0.4621547E-010  0.4778726E+02  0.7816164E-02  0.1312668E+00
        -11   -1    0    0    0    0  0.00000000000E+00  0.00000000000E+00  0.45593999997E+02  0.45594000000E+02  0.51100000000E-03 0.  1.
         11   -1    0    0    0    0 -0.00000000000E+00 -0.00000000000E+00 -0.45593999997E+02  0.45594000000E+02  0.51100000000E-03 0. -1.
    9900012    2    1    2    0    0 -0.17374790871E+02  0.15198541013E+01 -0.39742054463E+02  0.47787260291E+02  0.19999950973E+02 0.  0.
        -12    1    1    2    0    0  0.17374790871E+02 -0.15198541013E+01  0.39742054463E+02  0.43400739709E+02  0.00000000000E+00 0.  1.
         11    1    3    3    0    0 -0.14071198643E+02  0.43896668057E+00 -0.21475126585E+02  0.25678247314E+02  0.51100000000E-03 0. -1.
        -11    1    3    3    0    0 -0.54773720320E+01  0.88244780679E+00 -0.23202620781E+01  0.60136457229E+01  0.51100000000E-03 0.  1.
         12    1    3    3    0    0  0.21737798046E+01  0.19843961391E+00 -0.15946665800E+02  0.16095367255E+02  0.00000000000E+00 0. -1.
</event>
<event>
 7    1  0.4621547E-010  0.4778728E+02  0.7816164E-02  0.1312668E+00
        -11   -1    0    0    0    0  0.00000000000E+00  0.00000000000E+00  0.45593999997E+02  0.45594000000E+02  0.51100000000E-03 0. -1.
         11   -1    0    0    0    0 -0.00000000000E+00 -0.00000000000E+00 -0.45593999997E+02  0.45594000000E+02  0.51100000000E-03 0.  1.
    9900012    2    1    2    0    0 -0.13881313863E+02 -0.40105282036E+02 -0.90828198963E+01  0.47787284119E+02  0.20000059612E+02 0.  0.
        -12    1    1    2    0    0  0.13881313863E+02  0.40105282036E+02  0.90828198963E+01  0.43400715881E+02  0.00000000000E+00 0.  1.
         11    1    3    3    0    0 -0.88429680816E+01 -0.16645707614E+02 -0.96199529992E+01  0.21161785426E+02  0.51100000000E-03 0.  1.
        -11    1    3    3    0    0 -0.59517429192E+01 -0.19835837938E+02 -0.36331315604E+01  0.21025778361E+02  0.51100000000E-03 0. -1.
        -12    1    3    3    0    0  0.91339713796E+00 -0.36237364838E+01  0.41702646634E+01  0.55997203321E+01  0.00000000000E+00 0.  1.
</event>
<event>
 7    1  0.4621547E-010  0.4778728E+02  0.7816164E-02  0.1312668E+00
        -11   -1    0    0    0    0  0.00000000000E+00  0.00000000000E+00  0.45593999997E+02  0.45594000000E+02  0.51100000000E-03 0. -1.
         11   -1    0    0    0    0 -0.00000000000E+00 -0.00000000000E+00 -0.45593999997E+02  0.45594000000E+02  0.51100000000E-03 0.  1.
    9900012    2    1    2    0    0 -0.30173563858E+02  0.16010540171E+02  0.26773895406E+02  0.47787276185E+02  0.20000023437E+02 0.  0.
        -12    1    1    2    0    0  0.30173563858E+02 -0.16010540171E+02 -0.26773895406E+02  0.43400723815E+02  0.00000000000E+00 0.  1.
         11    1    3    3    0    0 -0.14698928533E+02  0.67565979589E+01  0.17121198024E+02  0.23555159478E+02  0.51100000000E-03 0. -1.
        -11    1    3    3    0    0 -0.92388934027E+01 -0.55479541547E+00  0.84750126397E+01  0.12549533408E+02  0.51100000000E-03 0.  1.
         12    1    3    3    0    0 -0.62357419230E+01  0.98087376277E+01  0.11776847420E+01  0.11682583299E+02  0.00000000000E+00 0. -1.
</event>
<event>
 7    1  0.4621547E-010  0.4778727E+02  0.7816164E-02  0.1312668E+00
        -11   -1    0    0    0    0  0.00000000000E+00  0.00000000000E+00  0.45593999997E+02  0.45594000000E+02  0.51100000000E-03 0. -1.
         11   -1    0    0    0    0 -0.00000000000E+00 -0.00000000000E+00 -0.45593999997E+02  0.45594000000E+02  0.51100000000E-03 0.  1.
    9900012    2    1    2    0    0 -0.36399036675E+02 -0.23633110162E+02 -0.45745508097E+00  0.47787273832E+02  0.20000012709E+02 0.  0.
        -12    1    1    2    0    0  0.36399036675E+02  0.23633110162E+02  0.45745508097E+00  0.43400726168E+02  0.00000000000E+00 0.  1.
         11    1    3    3    0    0 -0.97788258278E+00  0.80041769050E+00  0.18738650281E+01  0.22601533642E+01  0.51100000000E-03 0. -1.
        -11    1    3    3    0    0 -0.11693392415E+02 -0.15172676785E+02  0.33079845631E+01  0.19439349504E+02  0.51100000000E-03 0.  1.
         12    1    3    3    0    0 -0.23727761677E+02 -0.92608510677E+01 -0.56393046722E+01  0.26087770964E+02  0.00000000000E+00 0. -1.
</event>
<event>
 7    1  0.4621547E-010  0.4778727E+02  0.7816164E-02  0.1312668E+00
        -11   -1    0    0    0    0  0.00000000000E+00  0.00000000000E+00  0.45593999997E+02  0.45594000000E+02  0.51100000000E-03 0. -1.
         11   -1    0    0    0    0 -0.00000000000E+00 -0.00000000000E+00 -0.45593999997E+02  0.45594000000E+02  0.51100000000E-03 0.  1.
    9900012    2    1    2    0    0 -0.41138540128E+02 -0.11987195934E+02  0.68957385147E+01  0.47787267749E+02  0.19999984975E+02 0.  0.
        -12    1    1    2    0    0  0.41138540128E+02  0.11987195934E+02 -0.68957385147E+01  0.43400732251E+02  0.00000000000E+00 0.  1.
         11    1    3    3    0    0 -0.29897403048E+02 -0.99984865736E+01  0.73068272774E+01  0.32360688619E+02  0.51100000000E-03 0. -1.
        -11    1    3    3    0    0 -0.90288328473E+01 -0.53221162896E+01 -0.26925757854E+01  0.10821030866E+02  0.51100000000E-03 0.  1.
        -12    1    3    3    0    0 -0.22123042329E+01  0.33334069292E+01  0.22814870228E+01  0.46055482638E+01  0.00000000000E+00 0.  1.
</event>
<event>
 7    1  0.4621547E-010  0.4778727E+02  0.7816164E-02  0.1312668E+00
        -11   -1    0    0    0    0  0.00000000000E+00  0.00000000000E+00  0.45593999997E+02  0.45594000000E+02  0.51100000000E-03 0.  1.
         11   -1    0    0    0    0 -0.00000000000E+00 -0.00000000000E+00 -0.45593999997E+02  0.45594000000E+02  0.51100000000E-03 0. -1.
    9900012    2    1    2    0    0  0.25989696189E+02  0.27030207929E+02 -0.21852389124E+02  0.47787270063E+02  0.19999995524E+02 0.  0.
        -12    1    1    2    0    0 -0.25989696189E+02 -0.27030207929E+02  0.21852389124E+02  0.43400729937E+02  0.00000000000E+00 0.  1.
         11    1    3    3    0    0  0.10512795603E+02  0.82276495775E+01 -0.47990629003E+01  0.14186052797E+02  0.51100000000E-03 0. -1.
        -11    1    3    3    0    0  0.10139455589E+02  0.42402487293E+01 -0.13992127698E+02  0.17792355288E+02  0.51100000000E-03 0.  1.
        -12    1    3    3    0    0  0.53374449961E+01  0.14562309622E+02 -0.30611985258E+01  0.15808861978E+02  0.00000000000E+00 0.  1.
</event>
<event>
 7    1  0.4621547E-010  0.4778727E+02  0.7816164E-02  0.1312668E+00
        -11   -1    0    0    0    0  0.00000000000E+00  0.00000000000E+00  0.45593999997E+02  0.45594000000E+02  0.51100000000E-03 0. -1.
         11   -1    0    0    0    0 -0.00000000000E+00 -0.00000000000E+00 -0.45593999997E+02  0.45594000000E+02  0.51100000000E-03 0.  1.
    9900012    2    1    2    0    0 -0.75722628107E+00 -0.28922878125E+02  0.32349914760E+02  0.47787271254E+02  0.20000000956E+02 0.  0.
        -12    1    1    2    0    0  0.75722628107E+00  0.28922878125E+02 -0.32349914760E+02  0.43400728746E+02  0.00000000000E+00 0.  1.
         11    1    3    3    0    0 -0.14267461197E+01 -0.12974734422E+02  0.82241165899E+01  0.15427748759E+02  0.51100000000E-03 0. -1.
        -11    1    3    3    0    0 -0.19585978477E+00 -0.18129615692E+02  0.23904246441E+02  0.30002238656E+02  0.51100000000E-03 0.  1.
        -12    1    3    3    0    0  0.86537962338E+00  0.21814719887E+01  0.22155172909E+00  0.23572838393E+01  0.00000000000E+00 0.  1.
</event>
<event>
 7    1  0.4621547E-010  0.4778727E+02  0.7816164E-02  0.1312668E+00
        -11   -1    0    0    0    0  0.00000000000E+00  0.00000000000E+00  0.45593999997E+02  0.45594000000E+02  0.51100000000E-03 0.  1.
         11   -1    0    0    0    0 -0.00000000000E+00 -0.00000000000E+00 -0.45593999997E+02  0.45594000000E+02  0.51100000000E-03 0. -1.
    9900012    2    1    2    0    0 -0.14224476347E+02  0.62133747714E+01 -0.40530009122E+02  0.47787269674E+02  0.19999993750E+02 0.  0.
        -12    1    1    2    0    0  0.14224476347E+02 -0.62133747714E+01  0.40530009122E+02  0.43400730326E+02  0.00000000000E+00 0.  1.
         11    1    3    3    0    0 -0.56114502349E+01  0.10082701003E+02 -0.21305783401E+02  0.24229850182E+02  0.51100000000E-03 0. -1.
        -11    1    3    3    0    0 -0.28680681411E+01  0.15155553115E+01 -0.13336906958E+02  0.13725735326E+02  0.51100000000E-03 0.  1.
        -12    1    3    3    0    0 -0.57449579713E+01 -0.53848815428E+01 -0.58873187634E+01  0.98316841662E+01  0.00000000000E+00 0.  1.
</event>
<event>
 7    1  0.4621547E-010  0.4778727E+02  0.7816164E-02  0.1312668E+00
        -11   -1    0    0    0    0  0.00000000000E+00  0.00000000000E+00  0.45593999997E+02  0.45594000000E+02  0.51100000000E-03 0. -1.
         11   -1    0    0    0    0 -0.00000000000E+00 -0.00000000000E+00 -0.45593999997E+02  0.45594000000E+02  0.51100000000E-03 0.  1.
    9900012    2    1    2    0    0  0.29832945095E+01  0.27396276307E+02  0.33528602556E+02  0.47787272000E+02  0.20000004356E+02 0.  0.
        -12    1    1    2    0    0 -0.29832945095E+01 -0.27396276307E+02 -0.33528602556E+02  0.43400728000E+02  0.00000000000E+00 0.  1.
         11    1    3    3    0    0 -0.41841374338E+01  0.71944219998E+01  0.13325694518E+02  0.15711169549E+02  0.51100000000E-03 0. -1.
        -11    1    3    3    0    0  0.33222694866E+01  0.83012803607E+01  0.16933907159E+02  0.19149567674E+02  0.51100000000E-03 0.  1.
        -12    1    3    3    0    0  0.38451624567E+01  0.11900573947E+02  0.32690008789E+01  0.12926534776E+02  0.00000000000E+00 0.  1.
</event>
<event>
 7    1  0.4621547E-010  0.4778727E+02  0.7816164E-02  0.1312668E+00
        -11   -1    0    0    0    0  0.00000000000E+00  0.00000000000E+00  0.45593999997E+02  0.45594000000E+02  0.51100000000E-03 0.  1.
         11   -1    0    0    0    0 -0.00000000000E+00 -0.00000000000E+00 -0.45593999997E+02  0.45594000000E+02  0.51100000000E-03 0. -1.
    9900012    2    1    2    0    0 -0.13928661691E+02  0.40856638565E+02  0.45111599837E+01  0.47787273097E+02  0.20000009358E+02 0.  0.
        -12    1    1    2    0    0  0.13928661691E+02 -0.40856638565E+02 -0.45111599837E+01  0.43400726903E+02  0.00000000000E+00 0.  1.
         11    1    3    3    0    0 -0.17744736238E+00  0.11065911570E+02  0.88989665087E+01  0.14201320067E+02  0.51100000000E-03 0. -1.
        -11    1    3    3    0    0 -0.10939436904E+01  0.29320800961E+01 -0.21767703400E+01  0.38121038630E+01  0.51100000000E-03 0.  1.
         12    1    3    3    0    0 -0.12657270638E+02  0.26858646898E+02 -0.22110361850E+01  0.29773849167E+02  0.00000000000E+00 0. -1.
</event>
<event>
 7    1  0.4621547E-010  0.4778727E+02  0.7816164E-02  0.1312668E+00
        -11   -1    0    0    0    0  0.00000000000E+00  0.00000000000E+00  0.45593999997E+02  0.45594000000E+02  0.51100000000E-03 0. -1.
         11   -1    0    0    0    0 -0.00000000000E+00 -0.00000000000E+00 -0.45593999997E+02  0.45594000000E+02  0.51100000000E-03 0.  1.
    9900012    2    1    2    0    0  0.24897682389E+02  0.10611960639E+02  0.33928086331E+02  0.47787270294E+02  0.19999996578E+02 0.  0.
        -12    1    1    2    0    0 -0.24897682389E+02 -0.10611960639E+02 -0.33928086331E+02  0.43400729706E+02  0.00000000000E+00 0.  1.
         11    1    3    3    0    0  0.12734844954E+02 -0.23744099997E+01  0.17455236505E+02  0.21737050871E+02  0.51100000000E-03 0. -1.
        -11    1    3    3    0    0  0.22482823004E+01  0.58479792379E+00  0.74155991400E+01  0.77709634397E+01  0.51100000000E-03 0.  1.
        -12    1    3    3    0    0  0.99145551344E+01  0.12401572715E+02  0.90572506857E+01  0.18279255983E+02  0.00000000000E+00 0.  1.
</event>
<event>
 7    1  0.4621547E-010  0.4778727E+02  0.7816164E-02  0.1312668E+00
        -11   -1    0    0    0    0  0.00000000000E+00  0.00000000000E+00  0.45593999997E+02  0.45594000000E+02  0.51100000000E-03 0.  1.
         11   -1    0    0    0    0 -0.00000000000E+00 -0.00000000000E+00 -0.45593999997E+02  0.45594000000E+02  0.51100000000E-03 0. -1.
    9900012    2    1    2    0    0  0.39356651552E+01  0.35011848024E+01 -0.43079874388E+02  0.47787270369E+02  0.19999996919E+02 0.  0.
        -12    1    1    2    0    0 -0.39356651552E+01 -0.35011848024E+01  0.43079874388E+02  0.43400729631E+02  0.00000000000E+00 0.  1.
         11    1    3    3    0    0  0.39850353556E+01 -0.58381208673E+01 -0.25948680978E+02  0.26894203963E+02  0.51100000000E-03 0. -1.
        -11    1    3    3    0    0  0.36976621954E+00 -0.35526269172E+00 -0.64184108159E+01  0.64388614133E+01  0.51100000000E-03 0.  1.
        -12    1    3    3    0    0 -0.41913641990E+00  0.96945683614E+01 -0.10712782594E+02  0.14454204992E+02  0.00000000000E+00 0.  1.
</event>
<event>
 7    1  0.4621547E-010  0.4778727E+02  0.7816164E-02  0.1312668E+00
        -11   -1    0    0    0    0  0.00000000000E+00  0.00000000000E+00  0.45593999997E+02  0.45594000000E+02  0.51100000000E-03 0.  1.
         11   -1    0    0    0    0 -0.00000000000E+00 -0.00000000000E+00 -0.45593999997E+02  0.45594000000E+02  0.51100000000E-03 0. -1.
    9900012    2    1    2    0    0  0.15465382690E+02 -0.19704807268E+02 -0.35442429011E+02  0.47787271142E+02  0.20000000443E+02 0.  0.
        -12    1    1    2    0    0 -0.15465382690E+02  0.19704807268E+02  0.35442429011E+02  0.43400728858E+02  0.00000000000E+00 0.  1.
         11    1    3    3    0    0  0.52467659777E+01 -0.23215413705E+01 -0.16665958092E+02  0.17625897621E+02  0.51100000000E-03 0. -1.
        -11    1    3    3    0    0  0.50133389137E+01 -0.26279010192E+00 -0.74502730062E+01  0.89838295748E+01  0.51100000000E-03 0.  1.
        -12    1    3    3    0    0  0.52052777990E+01 -0.17120475795E+02 -0.11326197913E+02  0.21177543946E+02  0.00000000000E+00 0.  1.
</event>
<event>
 7    1  0.4621547E-010  0.4778726E+02  0.7816164E-02  0.1312668E+00
        -11   -1    0    0    0    0  0.00000000000E+00  0.00000000000E+00  0.45593999997E+02  0.45594000000E+02  0.51100000000E-03 0.  1.
         11   -1    0    0    0    0 -0.00000000000E+00 -0.00000000000E+00 -0.45593999997E+02  0.45594000000E+02  0.51100000000E-03 0. -1.
    9900012    2    1    2    0    0 -0.33961650598E+02 -0.55798904667E+01 -0.26440404091E+02  0.47787264322E+02  0.19999969349E+02 0.  0.
        -12    1    1    2    0    0  0.33961650598E+02  0.55798904667E+01  0.26440404091E+02  0.43400735678E+02  0.00000000000E+00 0.  1.
         11    1    3    3    0    0 -0.62897217954E+01  0.61807322999E+00 -0.20165096532E+01  0.66339223860E+01  0.51100000000E-03 0. -1.
        -11    1    3    3    0    0 -0.80712140919E+01 -0.44501373268E+00  0.14240203645E+01  0.82079454433E+01  0.51100000000E-03 0.  1.
         12    1    3    3    0    0 -0.19600714710E+02 -0.57529499640E+01 -0.25847914802E+02  0.32945396493E+02  0.00000000000E+00 0. -1.
</event>
<event>
 7    1  0.4621547E-010  0.4778726E+02  0.7816164E-02  0.1312668E+00
        -11   -1    0    0    0    0  0.00000000000E+00  0.00000000000E+00  0.45593999997E+02  0.45594000000E+02  0.51100000000E-03 0.  1.
         11   -1    0    0    0    0 -0.00000000000E+00 -0.00000000000E+00 -0.45593999997E+02  0.45594000000E+02  0.51100000000E-03 0. -1.
    9900012    2    1    2    0    0  0.73559288702E-01  0.20061593031E+01 -0.43354282244E+02  0.47787264119E+02  0.19999968424E+02 0.  0.
        -12    1    1    2    0    0 -0.73559288702E-01 -0.20061593031E+01  0.43354282244E+02  0.43400735881E+02  0.00000000000E+00 0.  1.
         11    1    3    3    0    0  0.30536684875E+01  0.13950599531E+01 -0.12252670682E+02  0.12704291503E+02  0.51100000000E-03 0. -1.
        -11    1    3    3    0    0 -0.52508083939E+01 -0.30785125953E+01 -0.30002057695E+02  0.30613260114E+02  0.51100000000E-03 0.  1.
         12    1    3    3    0    0  0.22706991951E+01  0.36896119454E+01 -0.10995538673E+01  0.44697125019E+01  0.00000000000E+00 0. -1.
</event>
<event>
 7    1  0.4621547E-010  0.4778727E+02  0.7816164E-02  0.1312668E+00
        -11   -1    0    0    0    0  0.00000000000E+00  0.00000000000E+00  0.45593999997E+02  0.45594000000E+02  0.51100000000E-03 0.  1.
         11   -1    0    0    0    0 -0.00000000000E+00 -0.00000000000E+00 -0.45593999997E+02  0.45594000000E+02  0.51100000000E-03 0. -1.
    9900012    2    1    2    0    0 -0.91207923981E+01  0.28833851694E+02 -0.31129466746E+02  0.47787267779E+02  0.19999985110E+02 0.  0.
        -12    1    1    2    0    0  0.91207923981E+01 -0.28833851694E+02  0.31129466746E+02  0.43400732221E+02  0.00000000000E+00 0.  1.
         11    1    3    3    0    0  0.34417061204E+01 -0.29430950273E+00 -0.19427929028E+01  0.39631305337E+01  0.51100000000E-03 0. -1.
        -11    1    3    3    0    0 -0.71502556263E+01  0.10007676506E+02 -0.74815392321E+01  0.14396290290E+02  0.51100000000E-03 0.  1.
         12    1    3    3    0    0 -0.54122428922E+01  0.19120484690E+02 -0.21705134611E+02  0.29427846955E+02  0.00000000000E+00 0. -1.
</event>
<event>
 7    1  0.4621547E-010  0.4778728E+02  0.7816164E-02  0.1312668E+00
        -11   -1    0    0    0    0  0.00000000000E+00  0.00000000000E+00  0.45593999997E+02  0.45594000000E+02  0.51100000000E-03 0.  1.
         11   -1    0    0    0    0 -0.00000000000E+00 -0.00000000000E+00 -0.45593999997E+02  0.45594000000E+02  0.51100000000E-03 0. -1.
    9900012    2    1    2    0    0  0.16106399817E+02  0.26779476558E+00 -0.40300557722E+02  0.47787276713E+02  0.20000025845E+02 0.  0.
        -12    1    1    2    0    0 -0.16106399817E+02 -0.26779476558E+00  0.40300557722E+02  0.43400723287E+02  0.00000000000E+00 0.  1.
         11    1    3    3    0    0  0.72463975845E+01 -0.63083398151E+01 -0.61915191627E+01  0.11429800479E+02  0.51100000000E-03 0. -1.
        -11    1    3    3    0    0  0.38457231717E+01  0.34720582523E+01 -0.75846615989E+01  0.91854159978E+01  0.51100000000E-03 0.  1.
        -12    1    3    3    0    0  0.50142790612E+01  0.31040763283E+01 -0.26524376961E+02  0.27172060237E+02  0.00000000000E+00 0.  1.
</event>
<event>
 7    1  0.4621547E-010  0.4778727E+02  0.7816164E-02  0.1312668E+00
        -11   -1    0    0    0    0  0.00000000000E+00  0.00000000000E+00  0.45593999997E+02  0.45594000000E+02  0.51100000000E-03 0. -1.
         11   -1    0    0    0    0 -0.00000000000E+00 -0.00000000000E+00 -0.45593999997E+02  0.45594000000E+02  0.51100000000E-03 0.  1.
    9900012    2    1    2    0    0  0.39226671523E+02  0.23519933205E-01  0.18571236064E+02  0.47787272807E+02  0.20000008037E+02 0.  0.
        -12    1    1    2    0    0 -0.39226671523E+02 -0.23519933205E-01 -0.18571236064E+02  0.43400727193E+02  0.00000000000E+00 0.  1.
         11    1    3    3    0    0  0.23641831399E+02 -0.46308544798E+00  0.16481175381E+02  0.28823250723E+02  0.51100000000E-03 0. -1.
        -11    1    3    3    0    0  0.69505226125E+01  0.38380045331E+00  0.62718362936E+01  0.93697917869E+01  0.51100000000E-03 0.  1.
        -12    1    3    3    0    0  0.86343175109E+01  0.10280492787E+00 -0.41817756109E+01  0.95942302970E+01  0.00000000000E+00 0.  1.
</event>
<event>
 7    1  0.4621547E-010  0.4778727E+02  0.7816164E-02  0.1312668E+00
        -11   -1    0    0    0    0  0.00000000000E+00  0.00000000000E+00  0.45593999997E+02  0.45594000000E+02  0.51100000000E-03 0.  1.
         11   -1    0    0    0    0 -0.00000000000E+00 -0.00000000000E+00 -0.45593999997E+02  0.45594000000E+02  0.51100000000E-03 0. -1.
    9900012    2    1    2    0    0  0.12143116122E+02  0.72504269475E+01 -0.41031684966E+02  0.47787272688E+02  0.20000007492E+02 0.  0.
        -12    1    1    2    0    0 -0.12143116122E+02 -0.72504269475E+01  0.41031684966E+02  0.43400727312E+02  0.00000000000E+00 0.  1.
         11    1    3    3    0    0 -0.18148431019E+01 -0.26675834581E+01 -0.98250824210E+01  0.10341271770E+02  0.51100000000E-03 0. -1.
        -11    1    3    3    0    0  0.80510290907E+00  0.16600718509E+01  0.68973020405E+00  0.19697099431E+01  0.51100000000E-03 0.  1.
         12    1    3    3    0    0  0.13152856315E+02  0.82579385547E+01 -0.31896332749E+02  0.35476290974E+02  0.00000000000E+00 0. -1.
</event>
<event>
 7    1  0.4621547E-010  0.4778727E+02  0.7816164E-02  0.1312668E+00
        -11   -1    0    0    0    0  0.00000000000E+00  0.00000000000E+00  0.45593999997E+02  0.45594000000E+02  0.51100000000E-03 0.  1.
         11   -1    0    0    0    0 -0.00000000000E+00 -0.00000000000E+00 -0.45593999997E+02  0.45594000000E+02  0.51100000000E-03 0. -1.
    9900012    2    1    2    0    0 -0.44965780850E+01  0.38853395091E+02 -0.18810041873E+02  0.47787271898E+02  0.20000003891E+02 0.  0.
        -12    1    1    2    0    0  0.44965780850E+01 -0.38853395091E+02  0.18810041873E+02  0.43400728102E+02  0.00000000000E+00 0.  1.
         11    1    3    3    0    0 -0.25528406531E+01  0.13135582950E+01 -0.27412626985E+00  0.28840208507E+01  0.51100000000E-03 0. -1.
        -11    1    3    3    0    0  0.61972073087E+01  0.10341989968E+02 -0.25552274160E+01  0.12324419756E+02  0.51100000000E-03 0.  1.
         12    1    3    3    0    0 -0.81409447406E+01  0.27197846828E+02 -0.15980688187E+02  0.32578831291E+02  0.00000000000E+00 0. -1.
</event>
<event>
 7    1  0.4621547E-010  0.4778722E+02  0.7816164E-02  0.1312668E+00
        -11   -1    0    0    0    0  0.00000000000E+00  0.00000000000E+00  0.45593999997E+02  0.45594000000E+02  0.51100000000E-03 0.  1.
         11   -1    0    0    0    0 -0.00000000000E+00 -0.00000000000E+00 -0.45593999997E+02  0.45594000000E+02  0.51100000000E-03 0. -1.
    9900012    2    1    2    0    0  0.32482492631E+02  0.20460512448E+02 -0.20245563767E+02  0.47787219484E+02  0.19999764916E+02 0.  0.
        -12    1    1    2    0    0 -0.32482492631E+02 -0.20460512448E+02  0.20245563767E+02  0.43400780516E+02  0.00000000000E+00 0.  1.
         11    1    3    3    0    0  0.79369858168E+01  0.12352668957E+02 -0.11062197586E+02  0.18383590234E+02  0.51100000000E-03 0. -1.
        -11    1    3    3    0    0  0.35627982762E+01 -0.15991481124E+01 -0.42350211463E+01  0.57607474006E+01  0.51100000000E-03 0.  1.
         12    1    3    3    0    0  0.20982708538E+02  0.97069916031E+01 -0.49483450349E+01  0.23642881849E+02  0.00000000000E+00 0. -1.
</event>
<event>
 7    1  0.4621547E-010  0.4778727E+02  0.7816164E-02  0.1312668E+00
        -11   -1    0    0    0    0  0.00000000000E+00  0.00000000000E+00  0.45593999997E+02  0.45594000000E+02  0.51100000000E-03 0. -1.
         11   -1    0    0    0    0 -0.00000000000E+00 -0.00000000000E+00 -0.45593999997E+02  0.45594000000E+02  0.51100000000E-03 0.  1.
    9900012    2    1    2    0    0 -0.30767819998E+02 -0.26257080302E+02 -0.15733092491E+02  0.47787271749E+02  0.20000003212E+02 0.  0.
        -12    1    1    2    0    0  0.30767819998E+02  0.26257080302E+02  0.15733092491E+02  0.43400728251E+02  0.00000000000E+00 0.  1.
         11    1    3    3    0    0 -0.12023893428E+01 -0.53720289242E+01 -0.69659990447E+01  0.88786022462E+01  0.51100000000E-03 0. -1.
        -11    1    3    3    0    0 -0.46113762836E+01 -0.33947071803E+01 -0.60255077024E+01  0.83123745946E+01  0.51100000000E-03 0.  1.
         12    1    3    3    0    0 -0.24954054371E+02 -0.17490344197E+02 -0.27415857440E+01  0.30596294908E+02  0.00000000000E+00 0. -1.
</event>
<event>
 7    1  0.4621547E-010  0.4778727E+02  0.7816164E-02  0.1312668E+00
        -11   -1    0    0    0    0  0.00000000000E+00  0.00000000000E+00  0.45593999997E+02  0.45594000000E+02  0.51100000000E-03 0. -1.
         11   -1    0    0    0    0 -0.00000000000E+00 -0.00000000000E+00 -0.45593999997E+02  0.45594000000E+02  0.51100000000E-03 0.  1.
    9900012    2    1    2    0    0 -0.26368267967E+02 -0.27683032766E+02 -0.20542329470E+02  0.47787272371E+02  0.20000006047E+02 0.  0.
        -12    1    1    2    0    0  0.26368267967E+02  0.27683032766E+02  0.20542329470E+02  0.43400727629E+02  0.00000000000E+00 0.  1.
         11    1    3    3    0    0 -0.44425712936E+01 -0.15685955966E+02 -0.92565214770E+01  0.18747502351E+02  0.51100000000E-03 0. -1.
        -11    1    3    3    0    0 -0.61928196843E+01 -0.48501091837E+01  0.86764112495E+00  0.79137460232E+01  0.51100000000E-03 0.  1.
        -12    1    3    3    0    0 -0.15732876989E+02 -0.71469676159E+01 -0.12153449118E+02  0.21126023997E+02  0.00000000000E+00 0.  1.
</event>
<event>
 7    1  0.5889437E-010  0.4778727E+02  0.7816164E-02  0.1312668E+00
        -11   -1    0    0    0    0  0.00000000000E+00  0.00000000000E+00  0.45593999997E+02  0.45594000000E+02  0.51100000000E-03 0. -1.
         11   -1    0    0    0    0 -0.00000000000E+00 -0.00000000000E+00 -0.45593999997E+02  0.45594000000E+02  0.51100000000E-03 0.  1.
    9900012    2    1    2    0    0 -0.43204460956E+02 -0.39499251163E+01  0.11814262766E+01  0.47787272783E+02  0.20000007926E+02 0.  0.
        -12    1    1    2    0    0  0.43204460956E+02  0.39499251163E+01 -0.11814262766E+01  0.43400727217E+02  0.00000000000E+00 0.  1.
         11    1    3    3    0    0 -0.17566112573E+02  0.15239775736E+00 -0.45644428654E+01  0.18150087464E+02  0.51100000000E-03 0. -1.
        -11    1    3    3    0    0  0.67709856239E+00  0.18354249244E+01 -0.33114143026E+00  0.19841628018E+01  0.51100000000E-03 0.  1.
         12    1    3    3    0    0 -0.26315446945E+02 -0.59377477980E+01  0.60770105723E+01  0.27653022517E+02  0.00000000000E+00 0. -1.
</event>
<event>
 7    1  0.4621547E-010  0.4778727E+02  0.7816164E-02  0.1312668E+00
        -11   -1    0    0    0    0  0.00000000000E+00  0.00000000000E+00  0.45593999997E+02  0.45594000000E+02  0.51100000000E-03 0.  1.
         11   -1    0    0    0    0 -0.00000000000E+00 -0.00000000000E+00 -0.45593999997E+02  0.45594000000E+02  0.51100000000E-03 0. -1.
    9900012    2    1    2    0    0  0.24388324102E+02  0.30068809607E+01 -0.35774174927E+02  0.47787271005E+02  0.19999999819E+02 0.  0.
        -12    1    1    2    0    0 -0.24388324102E+02 -0.30068809607E+01  0.35774174927E+02  0.43400728995E+02  0.00000000000E+00 0.  1.
         11    1    3    3    0    0  0.19406888113E+02 -0.56531499879E+00 -0.13778062596E+02  0.23807181615E+02  0.51100000000E-03 0. -1.
        -11    1    3    3    0    0  0.65255233481E+01  0.42666175276E+01 -0.16940338998E+02  0.18648366301E+02  0.51100000000E-03 0.  1.
        -12    1    3    3    0    0 -0.15440873600E+01 -0.69442156816E+00 -0.50557733335E+01  0.53317230882E+01  0.00000000000E+00 0.  1.
</event>
<event>
 7    1  0.4621547E-010  0.4778727E+02  0.7816164E-02  0.1312668E+00
        -11   -1    0    0    0    0  0.00000000000E+00  0.00000000000E+00  0.45593999997E+02  0.45594000000E+02  0.51100000000E-03 0.  1.
         11   -1    0    0    0    0 -0.00000000000E+00 -0.00000000000E+00 -0.45593999997E+02  0.45594000000E+02  0.51100000000E-03 0. -1.
    9900012    2    1    2    0    0  0.12707277614E+02  0.31057070118E+02 -0.27524662797E+02  0.47787267624E+02  0.19999984406E+02 0.  0.
        -12    1    1    2    0    0 -0.12707277614E+02 -0.31057070118E+02  0.27524662797E+02  0.43400732376E+02  0.00000000000E+00 0.  1.
         11    1    3    3    0    0 -0.23288337519E+01  0.16728300938E+02 -0.84027496253E+01  0.18864403527E+02  0.51100000000E-03 0. -1.
        -11    1    3    3    0    0  0.25758141344E+01  0.69576553058E+00 -0.53745469395E+00  0.27217211352E+01  0.51100000000E-03 0.  1.
         12    1    3    3    0    0  0.12460297231E+02  0.13633003649E+02 -0.18584458478E+02  0.26201142962E+02  0.00000000000E+00 0. -1.
</event>
<event>
 7    1  0.4621547E-010  0.4778723E+02  0.7816164E-02  0.1312668E+00
        -11   -1    0    0    0    0  0.00000000000E+00  0.00000000000E+00  0.45593999997E+02  0.45594000000E+02  0.51100000000E-03 0. -1.
         11   -1    0    0    0    0 -0.00000000000E+00 -0.00000000000E+00 -0.45593999997E+02  0.45594000000E+02  0.51100000000E-03 0.  1.
    9900012    2    1    2    0    0 -0.31189695885E+02  0.13672627917E+02  0.26905191270E+02  0.47787225804E+02  0.19999793728E+02 0.  0.
        -12    1    1    2    0    0  0.31189695885E+02 -0.13672627917E+02 -0.26905191270E+02  0.43400774196E+02  0.00000000000E+00 0.  1.
         11    1    3    3    0    0 -0.16300650064E+02  0.11056437459E+02  0.10443936510E+02  0.22294210277E+02  0.51100000000E-03 0. -1.
        -11    1    3    3    0    0  0.16654408187E+00  0.40555657073E+01  0.54005755009E+01  0.67558542124E+01  0.51100000000E-03 0.  1.
        -12    1    3    3    0    0 -0.15055589903E+02 -0.14393752491E+01  0.11060679260E+02  0.18737161314E+02  0.00000000000E+00 0.  1.
</event>
<event>
 7    1  0.4621547E-010  0.4778727E+02  0.7816164E-02  0.1312668E+00
        -11   -1    0    0    0    0  0.00000000000E+00  0.00000000000E+00  0.45593999997E+02  0.45594000000E+02  0.51100000000E-03 0. -1.
         11   -1    0    0    0    0 -0.00000000000E+00 -0.00000000000E+00 -0.45593999997E+02  0.45594000000E+02  0.51100000000E-03 0.  1.
    9900012    2    1    2    0    0  0.43305011520E+01 -0.43160496617E+02 -0.14288982424E+01  0.47787268916E+02  0.19999990296E+02 0.  0.
        -12    1    1    2    0    0 -0.43305011520E+01  0.43160496617E+02  0.14288982424E+01  0.43400731084E+02  0.00000000000E+00 0.  1.
         11    1    3    3    0    0  0.14174397056E+01 -0.23665290854E+01  0.14411079811E+01  0.31122962110E+01  0.51100000000E-03 0. -1.
        -11    1    3    3    0    0  0.17245519368E+01 -0.41650809103E+02 -0.26632141011E+00  0.41687347069E+02  0.51100000000E-03 0.  1.
        -12    1    3    3    0    0  0.11885095097E+01  0.85684157167E+00 -0.26036848134E+01  0.29876256360E+01  0.00000000000E+00 0.  1.
</event>
<event>
 7    1  0.5596421E-010  0.4778727E+02  0.7816164E-02  0.1312668E+00
        -11   -1    0    0    0    0  0.00000000000E+00  0.00000000000E+00  0.45593999997E+02  0.45594000000E+02  0.51100000000E-03 0. -1.
         11   -1    0    0    0    0 -0.00000000000E+00 -0.00000000000E+00 -0.45593999997E+02  0.45594000000E+02  0.51100000000E-03 0.  1.
    9900012    2    1    2    0    0 -0.22945225407E+02 -0.18658603944E+02  0.31764702882E+02  0.47787271673E+02  0.20000002866E+02 0.  0.
        -12    1    1    2    0    0  0.22945225407E+02  0.18658603944E+02 -0.31764702882E+02  0.43400728327E+02  0.00000000000E+00 0.  1.
         11    1    3    3    0    0 -0.78489074772E+01  0.44686452584E+00  0.59626830505E+01  0.98670474769E+01  0.51100000000E-03 0. -1.
        -11    1    3    3    0    0 -0.29356124907E+01 -0.63647605859E+01  0.41441773272E+00  0.70213773813E+01  0.51100000000E-03 0.  1.
         12    1    3    3    0    0 -0.12160705439E+02 -0.12740707884E+02  0.25387602099E+02  0.30898846815E+02  0.00000000000E+00 0. -1.
</event>
<event>
 7    1  0.4621547E-010  0.4778726E+02  0.7816164E-02  0.1312668E+00
        -11   -1    0    0    0    0  0.00000000000E+00  0.00000000000E+00  0.45593999997E+02  0.45594000000E+02  0.51100000000E-03 0. -1.
         11   -1    0    0    0    0 -0.00000000000E+00 -0.00000000000E+00 -0.45593999997E+02  0.45594000000E+02  0.51100000000E-03 0.  1.
    9900012    2    1    2    0    0 -0.12858672644E+02 -0.40937706235E+02 -0.65102040366E+01  0.47787262557E+02  0.19999961303E+02 0.  0.
        -12    1    1    2    0    0  0.12858672644E+02  0.40937706235E+02  0.65102040366E+01  0.43400737443E+02  0.00000000000E+00 0.  1.
         11    1    3    3    0    0 -0.86455366536E+01 -0.35694160572E+02 -0.10888517602E+02  0.38306373083E+02  0.51100000000E-03 0. -1.
        -11    1    3    3    0    0 -0.11582270015E+01 -0.11750903007E+01 -0.11166315828E+01  0.19922834524E+01  0.51100000000E-03 0.  1.
         12    1    3    3    0    0 -0.30549089891E+01 -0.40684553625E+01  0.54949451478E+01  0.74886060215E+01  0.00000000000E+00 0. -1.
</event>
<event>
 7    1  0.4621547E-010  0.4778727E+02  0.7816164E-02  0.1312668E+00
        -11   -1    0    0    0    0  0.00000000000E+00  0.00000000000E+00  0.45593999997E+02  0.45594000000E+02  0.51100000000E-03 0.  1.
         11   -1    0    0    0    0 -0.00000000000E+00 -0.00000000000E+00 -0.45593999997E+02  0.45594000000E+02  0.51100000000E-03 0. -1.
    9900012    2    1    2    0    0  0.40668701635E+02 -0.67893483770E+01 -0.13549342380E+02  0.47787271631E+02  0.20000002673E+02 0.  0.
        -12    1    1    2    0    0 -0.40668701635E+02  0.67893483770E+01  0.13549342380E+02  0.43400728369E+02  0.00000000000E+00 0.  1.
         11    1    3    3    0    0  0.27619064569E+01 -0.34912799845E+01  0.13502873566E+01  0.46519285693E+01  0.51100000000E-03 0.  1.
        -11    1    3    3    0    0  0.20587743658E+02 -0.83760789918E+01 -0.60545420086E+01  0.23036305419E+02  0.51100000000E-03 0. -1.
        -12    1    3    3    0    0  0.17319051521E+02  0.50780105993E+01 -0.88450877277E+01  0.20099037642E+02  0.00000000000E+00 0.  1.
</event>
<event>
 7    1  0.4621547E-010  0.4778728E+02  0.7816164E-02  0.1312668E+00
        -11   -1    0    0    0    0  0.00000000000E+00  0.00000000000E+00  0.45593999997E+02  0.45594000000E+02  0.51100000000E-03 0. -1.
         11   -1    0    0    0    0 -0.00000000000E+00 -0.00000000000E+00 -0.45593999997E+02  0.45594000000E+02  0.51100000000E-03 0.  1.
    9900012    2    1    2    0    0  0.12313977880E+02 -0.30953320176E+02  0.27818702162E+02  0.47787282597E+02  0.20000052673E+02 0.  0.
        -12    1    1    2    0    0 -0.12313977880E+02  0.30953320176E+02 -0.27818702162E+02  0.43400717403E+02  0.00000000000E+00 0.  1.
         11    1    3    3    0    0  0.46008829716E+01 -0.18437456359E+02  0.91165977742E+01  0.21076533784E+02  0.51100000000E-03 0. -1.
        -11    1    3    3    0    0  0.26568370338E+01 -0.10814944150E+02  0.18220518927E+02  0.21354369816E+02  0.51100000000E-03 0.  1.
        -12    1    3    3    0    0  0.50562578745E+01 -0.17009196668E+01  0.48158546013E+00  0.53563789972E+01  0.00000000000E+00 0.  1.
</event>
<event>
 7    1  0.4621547E-010  0.4778727E+02  0.7816164E-02  0.1312668E+00
        -11   -1    0    0    0    0  0.00000000000E+00  0.00000000000E+00  0.45593999997E+02  0.45594000000E+02  0.51100000000E-03 0. -1.
         11   -1    0    0    0    0 -0.00000000000E+00 -0.00000000000E+00 -0.45593999997E+02  0.45594000000E+02  0.51100000000E-03 0.  1.
    9900012    2    1    2    0    0  0.49472621669E+01 -0.23847475393E+02  0.35922778632E+02  0.47787268322E+02  0.19999987586E+02 0.  0.
        -12    1    1    2    0    0 -0.49472621669E+01  0.23847475393E+02 -0.35922778632E+02  0.43400731678E+02  0.00000000000E+00 0.  1.
         11    1    3    3    0    0  0.89252152085E+01 -0.45712700669E+01  0.12118473703E+02  0.15729379571E+02  0.51100000000E-03 0. -1.
        -11    1    3    3    0    0 -0.25641183305E+01 -0.50981039729E+00  0.35651074094E+01  0.44209275673E+01  0.51100000000E-03 0.  1.
         12    1    3    3    0    0 -0.14138347111E+01 -0.18766394929E+02  0.20239197520E+02  0.27636961183E+02  0.00000000000E+00 0. -1.
</event>
<event>
 7    1  0.4621547E-010  0.4778727E+02  0.7816164E-02  0.1312668E+00
        -11   -1    0    0    0    0  0.00000000000E+00  0.00000000000E+00  0.45593999997E+02  0.45594000000E+02  0.51100000000E-03 0.  1.
         11   -1    0    0    0    0 -0.00000000000E+00 -0.00000000000E+00 -0.45593999997E+02  0.45594000000E+02  0.51100000000E-03 0. -1.
    9900012    2    1    2    0    0 -0.40262971829E+01  0.19897914940E+02 -0.38359945703E+02  0.47787268183E+02  0.19999986951E+02 0.  0.
        -12    1    1    2    0    0  0.40262971829E+01 -0.19897914940E+02  0.38359945703E+02  0.43400731817E+02  0.00000000000E+00 0.  1.
         11    1    3    3    0    0 -0.37858221583E+01  0.17907874046E+01 -0.58553883908E+01  0.71989542582E+01  0.51100000000E-03 0. -1.
        -11    1    3    3    0    0  0.56587044416E+01  0.83479870523E+01 -0.24945234584E+02  0.26906775215E+02  0.51100000000E-03 0.  1.
        -12    1    3    3    0    0 -0.58991794661E+01  0.97591404829E+01 -0.75593227286E+01  0.13681538709E+02  0.00000000000E+00 0.  1.
</event>
<event>
 7    1  0.4621547E-010  0.4778727E+02  0.7816164E-02  0.1312668E+00
        -11   -1    0    0    0    0  0.00000000000E+00  0.00000000000E+00  0.45593999997E+02  0.45594000000E+02  0.51100000000E-03 0. -1.
         11   -1    0    0    0    0 -0.00000000000E+00 -0.00000000000E+00 -0.45593999997E+02  0.45594000000E+02  0.51100000000E-03 0.  1.
    9900012    2    1    2    0    0  0.40898463836E+02  0.17298052002E+01  0.14420357511E+02  0.47787270963E+02  0.19999999630E+02 0.  0.
        -12    1    1    2    0    0 -0.40898463836E+02 -0.17298052002E+01 -0.14420357511E+02  0.43400729037E+02  0.00000000000E+00 0.  1.
         11    1    3    3    0    0  0.12861873616E+02  0.13958291870E+01 -0.20638777820E+01  0.13100981787E+02  0.51100000000E-03 0. -1.
        -11    1    3    3    0    0  0.10938461147E+02  0.59459634848E+01  0.55664188751E+01  0.13637794301E+02  0.51100000000E-03 0.  1.
         12    1    3    3    0    0  0.17098129073E+02 -0.56119874716E+01  0.10917816418E+02  0.21048494875E+02  0.00000000000E+00 0. -1.
</event>
<event>
 7    1  0.4621547E-010  0.4778727E+02  0.7816164E-02  0.1312668E+00
        -11   -1    0    0    0    0  0.00000000000E+00  0.00000000000E+00  0.45593999997E+02  0.45594000000E+02  0.51100000000E-03 0. -1.
         11   -1    0    0    0    0 -0.00000000000E+00 -0.00000000000E+00 -0.45593999997E+02  0.45594000000E+02  0.51100000000E-03 0.  1.
    9900012    2    1    2    0    0 -0.39427766384E+02  0.17533750420E+02 -0.46521005721E+01  0.47787271831E+02  0.20000003587E+02 0.  0.
        -12    1    1    2    0    0  0.39427766384E+02 -0.17533750420E+02  0.46521005721E+01  0.43400728169E+02  0.00000000000E+00 0.  1.
         11    1    3    3    0    0 -0.10846652628E+02  0.94720010183E+01 -0.20449770793E+01  0.14544779409E+02  0.51100000000E-03 0. -1.
        -11    1    3    3    0    0 -0.21654994611E+02  0.88686638440E+01 -0.76697178759E+01  0.24625526645E+02  0.51100000000E-03 0.  1.
         12    1    3    3    0    0 -0.69261191446E+01 -0.80691444213E+00  0.50625943831E+01  0.86169657775E+01  0.00000000000E+00 0. -1.
</event>
<event>
 7    1  0.4621547E-010  0.4778727E+02  0.7816164E-02  0.1312668E+00
        -11   -1    0    0    0    0  0.00000000000E+00  0.00000000000E+00  0.45593999997E+02  0.45594000000E+02  0.51100000000E-03 0.  1.
         11   -1    0    0    0    0 -0.00000000000E+00 -0.00000000000E+00 -0.45593999997E+02  0.45594000000E+02  0.51100000000E-03 0. -1.
    9900012    2    1    2    0    0 -0.14805696855E+02  0.31247314155E+02 -0.26230136976E+02  0.47787269740E+02  0.19999994055E+02 0.  0.
        -12    1    1    2    0    0  0.14805696855E+02 -0.31247314155E+02  0.26230136976E+02  0.43400730260E+02  0.00000000000E+00 0.  1.
         11    1    3    3    0    0 -0.37963592508E+01  0.11277472805E+02 -0.29956618096E+01  0.12270604157E+02  0.51100000000E-03 0. -1.
        -11    1    3    3    0    0 -0.98127411072E+01  0.15415096042E+02 -0.87007755636E+01  0.20239035789E+02  0.51100000000E-03 0.  1.
        -12    1    3    3    0    0 -0.11965964974E+01  0.45547453086E+01 -0.14533699603E+02  0.15277629795E+02  0.00000000000E+00 0.  1.
</event>
<event>
 7    1  0.4621547E-010  0.4778727E+02  0.7816164E-02  0.1312668E+00
        -11   -1    0    0    0    0  0.00000000000E+00  0.00000000000E+00  0.45593999997E+02  0.45594000000E+02  0.51100000000E-03 0.  1.
         11   -1    0    0    0    0 -0.00000000000E+00 -0.00000000000E+00 -0.45593999997E+02  0.45594000000E+02  0.51100000000E-03 0. -1.
    9900012    2    1    2    0    0 -0.14656504076E+02  0.57180947374E+01 -0.40448902159E+02  0.47787269534E+02  0.19999993112E+02 0.  0.
        -12    1    1    2    0    0  0.14656504076E+02 -0.57180947374E+01  0.40448902159E+02  0.43400730466E+02  0.00000000000E+00 0.  1.
         11    1    3    3    0    0 -0.47349289657E+01  0.87038008015E+00 -0.38052411337E+01  0.61365278571E+01  0.51100000000E-03 0. -1.
        -11    1    3    3    0    0 -0.22691867751E+00 -0.51300658618E+01 -0.15606695063E+02  0.16429789983E+02  0.51100000000E-03 0.  1.
        -12    1    3    3    0    0 -0.96946564326E+01  0.99777805190E+01 -0.21036965962E+02  0.25220951693E+02  0.00000000000E+00 0.  1.
</event>
<event>
 7    1  0.4621547E-010  0.4778727E+02  0.7816164E-02  0.1312668E+00
        -11   -1    0    0    0    0  0.00000000000E+00  0.00000000000E+00  0.45593999997E+02  0.45594000000E+02  0.51100000000E-03 0.  1.
         11   -1    0    0    0    0 -0.00000000000E+00 -0.00000000000E+00 -0.45593999997E+02  0.45594000000E+02  0.51100000000E-03 0. -1.
    9900012    2    1    2    0    0 -0.23524412836E+02  0.18208618373E+02 -0.31601764269E+02  0.47787270890E+02  0.19999999297E+02 0.  0.
        -12    1    1    2    0    0  0.23524412836E+02 -0.18208618373E+02  0.31601764269E+02  0.43400729110E+02  0.00000000000E+00 0.  1.
         11    1    3    3    0    0  0.75099353821E+00  0.47041597339E+01 -0.44726499143E+01  0.65343482930E+01  0.51100000000E-03 0. -1.
        -11    1    3    3    0    0 -0.45490900233E+01 -0.12470190109E+01 -0.10563250372E+02  0.11568558041E+02  0.51100000000E-03 0.  1.
         12    1    3    3    0    0 -0.19726316351E+02  0.14751477650E+02 -0.16565863983E+02  0.29684364557E+02  0.00000000000E+00 0. -1.
</event>
<event>
 7    1  0.4645025E-010  0.4778727E+02  0.7816164E-02  0.1312668E+00
        -11   -1    0    0    0    0  0.00000000000E+00  0.00000000000E+00  0.45593999997E+02  0.45594000000E+02  0.51100000000E-03 0. -1.
         11   -1    0    0    0    0 -0.00000000000E+00 -0.00000000000E+00 -0.45593999997E+02  0.45594000000E+02  0.51100000000E-03 0.  1.
    9900012    2    1    2    0    0 -0.56956671326E+01 -0.28718165104E+02  0.32038253465E+02  0.47787270557E+02  0.19999997779E+02 0.  0.
        -12    1    1    2    0    0  0.56956671326E+01  0.28718165104E+02 -0.32038253465E+02  0.43400729443E+02  0.00000000000E+00 0.  1.
         11    1    3    3    0    0 -0.18108372853E+01 -0.86912794204E+01  0.15553351608E+02  0.17908774836E+02  0.51100000000E-03 0. -1.
        -11    1    3    3    0    0  0.23568200676E+01  0.94891478867E+00  0.38366309440E+01  0.46016059554E+01  0.51100000000E-03 0.  1.
         12    1    3    3    0    0 -0.62416499149E+01 -0.20975800473E+02  0.12648270913E+02  0.25276889766E+02  0.00000000000E+00 0. -1.
</event>
<event>
 7    1  0.4621547E-010  0.4778728E+02  0.7816164E-02  0.1312668E+00
        -11   -1    0    0    0    0  0.00000000000E+00  0.00000000000E+00  0.45593999997E+02  0.45594000000E+02  0.51100000000E-03 0.  1.
         11   -1    0    0    0    0 -0.00000000000E+00 -0.00000000000E+00 -0.45593999997E+02  0.45594000000E+02  0.51100000000E-03 0. -1.
    9900012    2    1    2    0    0  0.71055154586E+01  0.42720453899E+02  0.28455268468E+01  0.47787279334E+02  0.20000037795E+02 0.  0.
        -12    1    1    2    0    0 -0.71055154586E+01 -0.42720453899E+02 -0.28455268468E+01  0.43400720666E+02  0.00000000000E+00 0.  1.
         11    1    3    3    0    0  0.12721458040E+01  0.29630483501E+00  0.43281426614E+00  0.13760377728E+01  0.51100000000E-03 0. -1.
        -11    1    3    3    0    0 -0.48575615518E+01  0.18109609322E+02  0.58204646883E+01  0.19632413592E+02  0.51100000000E-03 0.  1.
        -12    1    3    3    0    0  0.10690931206E+02  0.24314539743E+02 -0.34077521076E+01  0.26778827969E+02  0.00000000000E+00 0.  1.
</event>
<event>
 7    1  0.4621547E-010  0.4778726E+02  0.7816164E-02  0.1312668E+00
        -11   -1    0    0    0    0  0.00000000000E+00  0.00000000000E+00  0.45593999997E+02  0.45594000000E+02  0.51100000000E-03 0.  1.
         11   -1    0    0    0    0 -0.00000000000E+00 -0.00000000000E+00 -0.45593999997E+02  0.45594000000E+02  0.51100000000E-03 0. -1.
    9900012    2    1    2    0    0 -0.26033682367E+02  0.31349537384E+02 -0.14935807615E+02  0.47787257369E+02  0.19999937650E+02 0.  0.
        -12    1    1    2    0    0  0.26033682367E+02 -0.31349537384E+02  0.14935807615E+02  0.43400742631E+02  0.00000000000E+00 0.  1.
         11    1    3    3    0    0 -0.33759651852E+01  0.23273586073E+01 -0.29991888237E+01  0.50802433879E+01  0.51100000000E-03 0. -1.
        -11    1    3    3    0    0 -0.10606241775E+02  0.13266618625E+02  0.37781686016E+01  0.17400290014E+02  0.51100000000E-03 0.  1.
        -12    1    3    3    0    0 -0.12051475406E+02  0.15755560152E+02 -0.15714787393E+02  0.25306723967E+02  0.00000000000E+00 0.  1.
</event>
<event>
 7    1  0.4621547E-010  0.4778725E+02  0.7816164E-02  0.1312668E+00
        -11   -1    0    0    0    0  0.00000000000E+00  0.00000000000E+00  0.45593999997E+02  0.45594000000E+02  0.51100000000E-03 0.  1.
         11   -1    0    0    0    0 -0.00000000000E+00 -0.00000000000E+00 -0.45593999997E+02  0.45594000000E+02  0.51100000000E-03 0. -1.
    9900012    2    1    2    0    0  0.11179593345E+02  0.40627086805E+02 -0.10396218849E+02  0.47787252817E+02  0.19999916895E+02 0.  0.
        -12    1    1    2    0    0 -0.11179593345E+02 -0.40627086805E+02  0.10396218849E+02  0.43400747183E+02  0.00000000000E+00 0.  1.
         11    1    3    3    0    0  0.34013875553E+01  0.16977911898E+01 -0.14379324716E+01  0.40644288995E+01  0.51100000000E-03 0. -1.
        -11    1    3    3    0    0 -0.43845900816E+01  0.17381177443E+02 -0.21140426369E+01  0.18049906815E+02  0.51100000000E-03 0.  1.
         12    1    3    3    0    0  0.12162795872E+02  0.21548118172E+02 -0.68442437409E+01  0.25672917103E+02  0.00000000000E+00 0. -1.
</event>
<event>
 7    1  0.4621547E-010  0.4778727E+02  0.7816164E-02  0.1312668E+00
        -11   -1    0    0    0    0  0.00000000000E+00  0.00000000000E+00  0.45593999997E+02  0.45594000000E+02  0.51100000000E-03 0.  1.
         11   -1    0    0    0    0 -0.00000000000E+00 -0.00000000000E+00 -0.45593999997E+02  0.45594000000E+02  0.51100000000E-03 0. -1.
    9900012    2    1    2    0    0  0.39196507912E+01  0.11914920274E+02 -0.41548695785E+02  0.47787272945E+02  0.20000008665E+02 0.  0.
        -12    1    1    2    0    0 -0.39196507912E+01 -0.11914920274E+02  0.41548695785E+02  0.43400727055E+02  0.00000000000E+00 0.  1.
         11    1    3    3    0    0 -0.26183616528E+00 -0.34428190150E-01 -0.47681895233E+01  0.47754973635E+01  0.51100000000E-03 0. -1.
        -11    1    3    3    0    0  0.31616820654E+01  0.16017811870E+02 -0.20540512247E+02  0.26238886680E+02  0.51100000000E-03 0.  1.
        -12    1    3    3    0    0  0.10198048910E+01 -0.40684634055E+01 -0.16239994015E+02  0.16772888902E+02  0.00000000000E+00 0.  1.
</event>
<event>
 7    1  0.4621547E-010  0.4778727E+02  0.7816164E-02  0.1312668E+00
        -11   -1    0    0    0    0  0.00000000000E+00  0.00000000000E+00  0.45593999997E+02  0.45594000000E+02  0.51100000000E-03 0.  1.
         11   -1    0    0    0    0 -0.00000000000E+00 -0.00000000000E+00 -0.45593999997E+02  0.45594000000E+02  0.51100000000E-03 0. -1.
    9900012    2    1    2    0    0 -0.72442246423E+01  0.24763583367E+02 -0.34898554629E+02  0.47787274580E+02  0.20000016118E+02 0.  0.
        -12    1    1    2    0    0  0.72442246423E+01 -0.24763583367E+02  0.34898554629E+02  0.43400725420E+02  0.00000000000E+00 0.  1.
         11    1    3    3    0    0 -0.44022642710E+01  0.69324083682E+00 -0.97246242799E+01  0.10697141264E+02  0.51100000000E-03 0.  1.
        -11    1    3    3    0    0 -0.68786847610E+01  0.12062926676E+02 -0.17263509068E+02  0.22155343591E+02  0.51100000000E-03 0. -1.
        -12    1    3    3    0    0  0.40367243897E+01  0.12007415854E+02 -0.79104212814E+01  0.14934789725E+02  0.00000000000E+00 0.  1.
</event>
<event>
 7    1  0.4621547E-010  0.4778727E+02  0.7816164E-02  0.1312668E+00
        -11   -1    0    0    0    0  0.00000000000E+00  0.00000000000E+00  0.45593999997E+02  0.45594000000E+02  0.51100000000E-03 0.  1.
         11   -1    0    0    0    0 -0.00000000000E+00 -0.00000000000E+00 -0.45593999997E+02  0.45594000000E+02  0.51100000000E-03 0. -1.
    9900012    2    1    2    0    0  0.30801599667E+01  0.75670197295E+01 -0.42624828339E+02  0.47787272311E+02  0.20000005773E+02 0.  0.
        -12    1    1    2    0    0 -0.30801599667E+01 -0.75670197295E+01  0.42624828339E+02  0.43400727689E+02  0.00000000000E+00 0.  1.
         11    1    3    3    0    0 -0.29870959487E+01  0.82499946190E+01 -0.20563024189E+02  0.22356724212E+02  0.51100000000E-03 0. -1.
        -11    1    3    3    0    0 -0.13583838357E+01 -0.21730296709E+01 -0.14512339512E+02  0.14736867475E+02  0.51100000000E-03 0.  1.
        -12    1    3    3    0    0  0.74256397511E+01  0.14900547814E+01 -0.75494646380E+01  0.10693680624E+02  0.00000000000E+00 0.  1.
</event>
<event>
 7    1  0.4621547E-010  0.4778727E+02  0.7816164E-02  0.1312668E+00
        -11   -1    0    0    0    0  0.00000000000E+00  0.00000000000E+00  0.45593999997E+02  0.45594000000E+02  0.51100000000E-03 0.  1.
         11   -1    0    0    0    0 -0.00000000000E+00 -0.00000000000E+00 -0.45593999997E+02  0.45594000000E+02  0.51100000000E-03 0. -1.
    9900012    2    1    2    0    0  0.25323176600E+02  0.24397651863E+02 -0.25438441930E+02  0.47787274000E+02  0.20000013474E+02 0.  0.
        -12    1    1    2    0    0 -0.25323176600E+02 -0.24397651863E+02  0.25438441930E+02  0.43400726000E+02  0.00000000000E+00 0.  1.
         11    1    3    3    0    0  0.36912528069E+00  0.35974254145E+00 -0.87857528386E+01  0.88008591269E+01  0.51100000000E-03 0. -1.
        -11    1    3    3    0    0  0.55354889125E+01  0.22408797989E+01 -0.38834843055E+01  0.71235265414E+01  0.51100000000E-03 0.  1.
        -12    1    3    3    0    0  0.19418562407E+02  0.21797029523E+02 -0.12769204785E+02  0.31862888331E+02  0.00000000000E+00 0.  1.
</event>
<event>
 7    1  0.4621547E-010  0.4778727E+02  0.7816164E-02  0.1312668E+00
        -11   -1    0    0    0    0  0.00000000000E+00  0.00000000000E+00  0.45593999997E+02  0.45594000000E+02  0.51100000000E-03 0.  1.
         11   -1    0    0    0    0 -0.00000000000E+00 -0.00000000000E+00 -0.45593999997E+02  0.45594000000E+02  0.51100000000E-03 0. -1.
    9900012    2    1    2    0    0  0.30984353554E+02 -0.62568671371E+01 -0.29739613568E+02  0.47787272279E+02  0.20000005630E+02 0.  0.
        -12    1    1    2    0    0 -0.30984353554E+02  0.62568671371E+01  0.29739613568E+02  0.43400727721E+02  0.00000000000E+00 0.  1.
         11    1    3    3    0    0  0.95830444129E+01 -0.21131670617E+01 -0.72139210059E+01  0.12179526747E+02  0.51100000000E-03 0. -1.
        -11    1    3    3    0    0  0.84388473192E+01 -0.49694293464E+01 -0.21988103655E+00  0.97958011432E+01  0.51100000000E-03 0.  1.
         12    1    3    3    0    0  0.12962461822E+02  0.82572927101E+00 -0.22305811526E+02  0.25811944389E+02  0.00000000000E+00 0. -1.
</event>
<event>
 7    1  0.4621547E-010  0.4778727E+02  0.7816164E-02  0.1312668E+00
        -11   -1    0    0    0    0  0.00000000000E+00  0.00000000000E+00  0.45593999997E+02  0.45594000000E+02  0.51100000000E-03 0. -1.
         11   -1    0    0    0    0 -0.00000000000E+00 -0.00000000000E+00 -0.45593999997E+02  0.45594000000E+02  0.51100000000E-03 0.  1.
    9900012    2    1    2    0    0 -0.20128970156E+02  0.26965541027E+01  0.38355916375E+02  0.47787272304E+02  0.20000005743E+02 0.  0.
        -12    1    1    2    0    0  0.20128970156E+02 -0.26965541027E+01 -0.38355916375E+02  0.43400727696E+02  0.00000000000E+00 0.  1.
         11    1    3    3    0    0 -0.57517569880E+01  0.23161386582E+01  0.14429001654E+02  0.15704881270E+02  0.51100000000E-03 0. -1.
        -11    1    3    3    0    0 -0.12261116396E+02  0.71750341075E+01  0.14890663476E+02  0.20580280580E+02  0.51100000000E-03 0.  1.
         12    1    3    3    0    0 -0.21160967712E+01 -0.67946186630E+01  0.90362512459E+01  0.11502110454E+02  0.00000000000E+00 0. -1.
</event>
<event>
 7    1  0.4621547E-010  0.4778731E+02  0.7816164E-02  0.1312668E+00
        -11   -1    0    0    0    0  0.00000000000E+00  0.00000000000E+00  0.45593999997E+02  0.45594000000E+02  0.51100000000E-03 0. -1.
         11   -1    0    0    0    0 -0.00000000000E+00 -0.00000000000E+00 -0.45593999997E+02  0.45594000000E+02  0.51100000000E-03 0.  1.
    9900012    2    1    2    0    0  0.43153858729E+02  0.56701760171E+00 -0.45872760697E+01  0.47787307219E+02  0.20000164932E+02 0.  0.
        -12    1    1    2    0    0 -0.43153858729E+02 -0.56701760171E+00  0.45872760697E+01  0.43400692781E+02  0.00000000000E+00 0.  1.
         11    1    3    3    0    0  0.13131313118E+02  0.16347626442E+01  0.52160984600E+01  0.14223625294E+02  0.51100000000E-03 0. -1.
        -11    1    3    3    0    0 -0.76758026255E+00  0.69872832410E+00 -0.11130373898E+01  0.15219241842E+01  0.51100000000E-03 0.  1.
        -12    1    3    3    0    0  0.30790125874E+02 -0.17664733666E+01 -0.86903371398E+01  0.32041757740E+02  0.00000000000E+00 0.  1.
</event>
<event>
 7    1  0.4621547E-010  0.4778728E+02  0.7816164E-02  0.1312668E+00
        -11   -1    0    0    0    0  0.00000000000E+00  0.00000000000E+00  0.45593999997E+02  0.45594000000E+02  0.51100000000E-03 0. -1.
         11   -1    0    0    0    0 -0.00000000000E+00 -0.00000000000E+00 -0.45593999997E+02  0.45594000000E+02  0.51100000000E-03 0.  1.
    9900012    2    1    2    0    0 -0.22560595329E+02  0.32411667938E+02  0.18003503161E+02  0.47787276432E+02  0.20000024565E+02 0.  0.
        -12    1    1    2    0    0  0.22560595329E+02 -0.32411667938E+02 -0.18003503161E+02  0.43400723568E+02  0.00000000000E+00 0.  1.
         11    1    3    3    0    0  0.14051461438E+01  0.26309859179E+01 -0.85470502007E+00  0.31027477368E+01  0.51100000000E-03 0.  1.
        -11    1    3    3    0    0 -0.64861619315E+01  0.16534051123E+02  0.12919899531E+02  0.21962899338E+02  0.51100000000E-03 0. -1.
        -12    1    3    3    0    0 -0.17479579541E+02  0.13246630897E+02  0.59383086500E+01  0.22721629358E+02  0.00000000000E+00 0.  1.
</event>
<event>
 7    1  0.4621547E-010  0.4778725E+02  0.7816164E-02  0.1312668E+00
        -11   -1    0    0    0    0  0.00000000000E+00  0.00000000000E+00  0.45593999997E+02  0.45594000000E+02  0.51100000000E-03 0. -1.
         11   -1    0    0    0    0 -0.00000000000E+00 -0.00000000000E+00 -0.45593999997E+02  0.45594000000E+02  0.51100000000E-03 0.  1.
    9900012    2    1    2    0    0 -0.21874378070E-01 -0.42039599435E+01  0.43196655667E+02  0.47787253250E+02  0.19999918867E+02 0.  0.
        -12    1    1    2    0    0  0.21874378070E-01  0.42039599435E+01 -0.43196655667E+02  0.43400746750E+02  0.00000000000E+00 0.  1.
         11    1    3    3    0    0 -0.70488886214E+01 -0.44907615626E+01  0.33383195359E+02  0.34413536623E+02  0.51100000000E-03 0. -1.
        -11    1    3    3    0    0 -0.27024308319E+00 -0.10299584981E+01  0.34231906958E+01  0.35849798650E+01  0.51100000000E-03 0.  1.
        -12    1    3    3    0    0  0.72972573265E+01  0.13167601172E+01  0.63902696113E+01  0.97887367623E+01  0.00000000000E+00 0.  1.
</event>
<event>
 7    1  0.4621547E-010  0.4778727E+02  0.7816164E-02  0.1312668E+00
        -11   -1    0    0    0    0  0.00000000000E+00  0.00000000000E+00  0.45593999997E+02  0.45594000000E+02  0.51100000000E-03 0.  1.
         11   -1    0    0    0    0 -0.00000000000E+00 -0.00000000000E+00 -0.45593999997E+02  0.45594000000E+02  0.51100000000E-03 0. -1.
    9900012    2    1    2    0    0 -0.33537178015E+02 -0.19208879544E+02 -0.19745883598E+02  0.47787270955E+02  0.19999999594E+02 0.  0.
        -12    1    1    2    0    0  0.33537178015E+02  0.19208879544E+02  0.19745883598E+02  0.43400729045E+02  0.00000000000E+00 0.  1.
         11    1    3    3    0    0 -0.17646982677E+02 -0.19620291481E+02 -0.14048843966E+02  0.29895515591E+02  0.51100000000E-03 0. -1.
        -11    1    3    3    0    0 -0.53304095264E+01 -0.25697698481E+01 -0.12255275918E+01  0.60430870364E+01  0.51100000000E-03 0.  1.
         12    1    3    3    0    0 -0.10559785812E+02  0.29811817852E+01 -0.44715120396E+01  0.11848668328E+02  0.00000000000E+00 0. -1.
</event>
<event>
 7    1  0.4621547E-010  0.4778728E+02  0.7816164E-02  0.1312668E+00
        -11   -1    0    0    0    0  0.00000000000E+00  0.00000000000E+00  0.45593999997E+02  0.45594000000E+02  0.51100000000E-03 0. -1.
         11   -1    0    0    0    0 -0.00000000000E+00 -0.00000000000E+00 -0.45593999997E+02  0.45594000000E+02  0.51100000000E-03 0.  1.
    9900012    2    1    2    0    0 -0.37502658536E+02 -0.96285226233E+01  0.19607776051E+02  0.47787277347E+02  0.20000028735E+02 0.  0.
        -12    1    1    2    0    0  0.37502658536E+02  0.96285226233E+01 -0.19607776051E+02  0.43400722653E+02  0.00000000000E+00 0.  1.
         11    1    3    3    0    0 -0.30687469842E+02 -0.40415468216E+01  0.19726909675E+02  0.36704303176E+02  0.51100000000E-03 0. -1.
        -11    1    3    3    0    0  0.31878190488E+00  0.79213184545E+00  0.11465331132E+01  0.14295569958E+01  0.51100000000E-03 0.  1.
        -12    1    3    3    0    0 -0.71339705985E+01 -0.63791076471E+01 -0.12656667374E+01  0.96534171755E+01  0.00000000000E+00 0.  1.
</event>
<event>
 7    1  0.4621547E-010  0.4778728E+02  0.7816164E-02  0.1312668E+00
        -11   -1    0    0    0    0  0.00000000000E+00  0.00000000000E+00  0.45593999997E+02  0.45594000000E+02  0.51100000000E-03 0. -1.
         11   -1    0    0    0    0 -0.00000000000E+00 -0.00000000000E+00 -0.45593999997E+02  0.45594000000E+02  0.51100000000E-03 0.  1.
    9900012    2    1    2    0    0 -0.24587252933E+01  0.38327220473E+02 -0.20213899916E+02  0.47787275247E+02  0.20000019163E+02 0.  0.
        -12    1    1    2    0    0  0.24587252933E+01 -0.38327220473E+02  0.20213899916E+02  0.43400724753E+02  0.00000000000E+00 0.  1.
         11    1    3    3    0    0  0.31633782745E+01  0.26997585511E+01 -0.82937742372E+01  0.92780574314E+01  0.51100000000E-03 0. -1.
        -11    1    3    3    0    0  0.13569137093E+00  0.72042846070E+01 -0.13851771615E+00  0.72068936627E+01  0.51100000000E-03 0.  1.
         12    1    3    3    0    0 -0.57577949386E+01  0.28423177315E+02 -0.11781607963E+02  0.31302324153E+02  0.00000000000E+00 0. -1.
</event>
<event>
 7    1  0.4621547E-010  0.4778727E+02  0.7816164E-02  0.1312668E+00
        -11   -1    0    0    0    0  0.00000000000E+00  0.00000000000E+00  0.45593999997E+02  0.45594000000E+02  0.51100000000E-03 0.  1.
         11   -1    0    0    0    0 -0.00000000000E+00 -0.00000000000E+00 -0.45593999997E+02  0.45594000000E+02  0.51100000000E-03 0. -1.
    9900012    2    1    2    0    0 -0.13323757059E+02  0.38734666417E+02 -0.14343156121E+02  0.47787274060E+02  0.20000013749E+02 0.  0.
        -12    1    1    2    0    0  0.13323757059E+02 -0.38734666417E+02  0.14343156121E+02  0.43400725940E+02  0.00000000000E+00 0.  1.
         11    1    3    3    0    0 -0.12144050281E+02  0.18915832482E+02 -0.68911538047E+01  0.23511160684E+02  0.51100000000E-03 0. -1.
        -11    1    3    3    0    0 -0.41251684571E+01  0.15297283504E+01 -0.26611465704E+01  0.51418659021E+01  0.51100000000E-03 0.  1.
        -12    1    3    3    0    0  0.29454616786E+01  0.18289105585E+02 -0.47908557455E+01  0.19134247473E+02  0.00000000000E+00 0.  1.
</event>
<event>
 7    1  0.4621547E-010  0.4778727E+02  0.7816164E-02  0.1312668E+00
        -11   -1    0    0    0    0  0.00000000000E+00  0.00000000000E+00  0.45593999997E+02  0.45594000000E+02  0.51100000000E-03 0. -1.
         11   -1    0    0    0    0 -0.00000000000E+00 -0.00000000000E+00 -0.45593999997E+02  0.45594000000E+02  0.51100000000E-03 0.  1.
    9900012    2    1    2    0    0  0.42325555086E+02  0.56660390899E+01  0.77502676063E+01  0.47787271201E+02  0.20000000714E+02 0.  0.
        -12    1    1    2    0    0 -0.42325555086E+02 -0.56660390899E+01 -0.77502676063E+01  0.43400728799E+02  0.00000000000E+00 0.  1.
         11    1    3    3    0    0  0.14269460466E+02  0.16304083964E+01  0.58680083716E+01  0.15514807638E+02  0.51100000000E-03 0. -1.
        -11    1    3    3    0    0  0.26609997064E+02 -0.95304200147E+00  0.34436390864E+01  0.26848815304E+02  0.51100000000E-03 0.  1.
        -12    1    3    3    0    0  0.14460975562E+01  0.49886726949E+01 -0.15613798518E+01  0.54236482593E+01  0.00000000000E+00 0.  1.
</event>
<event>
 7    1  0.4621547E-010  0.4778727E+02  0.7816164E-02  0.1312668E+00
        -11   -1    0    0    0    0  0.00000000000E+00  0.00000000000E+00  0.45593999997E+02  0.45594000000E+02  0.51100000000E-03 0.  1.
         11   -1    0    0    0    0 -0.00000000000E+00 -0.00000000000E+00 -0.45593999997E+02  0.45594000000E+02  0.51100000000E-03 0. -1.
    9900012    2    1    2    0    0 -0.40837368315E+02  0.53642286893E+00 -0.14684853833E+02  0.47787270369E+02  0.19999996919E+02 0.  0.
        -12    1    1    2    0    0  0.40837368315E+02 -0.53642286893E+00  0.14684853833E+02  0.43400729631E+02  0.00000000000E+00 0.  1.
         11    1    3    3    0    0 -0.94401618392E+01  0.11010466283E+01 -0.82737262255E+01  0.12600932709E+02  0.51100000000E-03 0. -1.
        -11    1    3    3    0    0 -0.61646879638E+01  0.58224174655E+01 -0.49463640584E+00  0.84940325093E+01  0.51100000000E-03 0.  1.
         12    1    3    3    0    0 -0.25232518512E+02 -0.63870412249E+01 -0.59164912022E+01  0.26692305150E+02  0.00000000000E+00 0. -1.
</event>
<event>
 7    1  0.4621547E-010  0.4778727E+02  0.7816164E-02  0.1312668E+00
        -11   -1    0    0    0    0  0.00000000000E+00  0.00000000000E+00  0.45593999997E+02  0.45594000000E+02  0.51100000000E-03 0. -1.
         11   -1    0    0    0    0 -0.00000000000E+00 -0.00000000000E+00 -0.45593999997E+02  0.45594000000E+02  0.51100000000E-03 0.  1.
    9900012    2    1    2    0    0 -0.26823950776E+02  0.28242333703E+02  0.19143393135E+02  0.47787271332E+02  0.20000001311E+02 0.  0.
        -12    1    1    2    0    0  0.26823950776E+02 -0.28242333703E+02 -0.19143393135E+02  0.43400728668E+02  0.00000000000E+00 0.  1.
         11    1    3    3    0    0 -0.10883279624E+02  0.17976185159E+02  0.14796929464E+02  0.25700936366E+02  0.51100000000E-03 0. -1.
        -11    1    3    3    0    0 -0.33297289253E+01  0.76761607393E+01 -0.37005839702E+00  0.83754093566E+01  0.51100000000E-03 0.  1.
         12    1    3    3    0    0 -0.12610942226E+02  0.25899878044E+01  0.47165220683E+01  0.13710925610E+02  0.00000000000E+00 0. -1.
</event>
<event>
 7    1  0.4621547E-010  0.4778727E+02  0.7816164E-02  0.1312668E+00
        -11   -1    0    0    0    0  0.00000000000E+00  0.00000000000E+00  0.45593999997E+02  0.45594000000E+02  0.51100000000E-03 0.  1.
         11   -1    0    0    0    0 -0.00000000000E+00 -0.00000000000E+00 -0.45593999997E+02  0.45594000000E+02  0.51100000000E-03 0. -1.
    9900012    2    1    2    0    0 -0.41758216262E+02  0.54292645822E+01  0.10507027427E+02  0.47787272303E+02  0.20000005738E+02 0.  0.
        -12    1    1    2    0    0  0.41758216262E+02 -0.54292645822E+01 -0.10507027427E+02  0.43400727697E+02  0.00000000000E+00 0.  1.
         11    1    3    3    0    0 -0.55333464482E+01 -0.24110150824E+01 -0.43066329185E+01  0.74147153687E+01  0.51100000000E-03 0. -1.
        -11    1    3    3    0    0 -0.12872154718E+02  0.56684162218E+01  0.46763931835E+01  0.14822009412E+02  0.51100000000E-03 0.  1.
         12    1    3    3    0    0 -0.23352715096E+02  0.21718634428E+01  0.10137267162E+02  0.25550547522E+02  0.00000000000E+00 0. -1.
</event>
<event>
 7    1  0.4621547E-010  0.4778727E+02  0.7816164E-02  0.1312668E+00
        -11   -1    0    0    0    0  0.00000000000E+00  0.00000000000E+00  0.45593999997E+02  0.45594000000E+02  0.51100000000E-03 0.  1.
         11   -1    0    0    0    0 -0.00000000000E+00 -0.00000000000E+00 -0.45593999997E+02  0.45594000000E+02  0.51100000000E-03 0. -1.
    9900012    2    1    2    0    0  0.36173308460E+02  0.41826467815E+01 -0.23613988936E+02  0.47787271291E+02  0.20000001122E+02 0.  0.
        -12    1    1    2    0    0 -0.36173308460E+02 -0.41826467815E+01  0.23613988936E+02  0.43400728709E+02  0.00000000000E+00 0.  1.
         11    1    3    3    0    0  0.12713959892E+02  0.75239097531E+01 -0.43492379917E+01  0.15400320305E+02  0.51100000000E-03 0. -1.
        -11    1    3    3    0    0  0.16881912419E+02 -0.10940792526E+01 -0.70386586836E+01  0.18323173651E+02  0.51100000000E-03 0.  1.
         12    1    3    3    0    0  0.65774361492E+01 -0.22471837189E+01 -0.12226092260E+02  0.14063777335E+02  0.00000000000E+00 0. -1.
</event>
<event>
 7    1  0.4621547E-010  0.4778726E+02  0.7816164E-02  0.1312668E+00
        -11   -1    0    0    0    0  0.00000000000E+00  0.00000000000E+00  0.45593999997E+02  0.45594000000E+02  0.51100000000E-03 0. -1.
         11   -1    0    0    0    0 -0.00000000000E+00 -0.00000000000E+00 -0.45593999997E+02  0.45594000000E+02  0.51100000000E-03 0.  1.
    9900012    2    1    2    0    0  0.45807177969E+01  0.15711441943E+02  0.40196913859E+02  0.47787259600E+02  0.19999947820E+02 0.  0.
        -12    1    1    2    0    0 -0.45807177969E+01 -0.15711441943E+02 -0.40196913859E+02  0.43400740400E+02  0.00000000000E+00 0.  1.
         11    1    3    3    0    0  0.10121235989E+01  0.75890396017E+01  0.16391537648E+02  0.18091446127E+02  0.51100000000E-03 0. -1.
        -11    1    3    3    0    0 -0.31805299211E+01 -0.22641221950E+01  0.11866035159E+02  0.12491789726E+02  0.51100000000E-03 0.  1.
        -12    1    3    3    0    0  0.67491241191E+01  0.10386524536E+02  0.11939341052E+02  0.17204023747E+02  0.00000000000E+00 0.  1.
</event>
<event>
 7    1  0.4621547E-010  0.4778726E+02  0.7816164E-02  0.1312668E+00
        -11   -1    0    0    0    0  0.00000000000E+00  0.00000000000E+00  0.45593999997E+02  0.45594000000E+02  0.51100000000E-03 0.  1.
         11   -1    0    0    0    0 -0.00000000000E+00 -0.00000000000E+00 -0.45593999997E+02  0.45594000000E+02  0.51100000000E-03 0. -1.
    9900012    2    1    2    0    0 -0.25286484757E+02  0.18856403241E+02 -0.29810297564E+02  0.47787261580E+02  0.19999956846E+02 0.  0.
        -12    1    1    2    0    0  0.25286484757E+02 -0.18856403241E+02  0.29810297564E+02  0.43400738420E+02  0.00000000000E+00 0.  1.
         11    1    3    3    0    0 -0.12481001085E+02  0.81003149241E+01 -0.17011243548E+02  0.22600285336E+02  0.51100000000E-03 0. -1.
        -11    1    3    3    0    0 -0.12659502833E+02  0.28633499591E+01 -0.11175706929E+02  0.17127703015E+02  0.51100000000E-03 0.  1.
        -12    1    3    3    0    0 -0.14598083881E+00  0.78927383583E+01 -0.16233470871E+01  0.80592732279E+01  0.00000000000E+00 0.  1.
</event>
<event>
 7    1  0.4621547E-010  0.4778727E+02  0.7816164E-02  0.1312668E+00
        -11   -1    0    0    0    0  0.00000000000E+00  0.00000000000E+00  0.45593999997E+02  0.45594000000E+02  0.51100000000E-03 0.  1.
         11   -1    0    0    0    0 -0.00000000000E+00 -0.00000000000E+00 -0.45593999997E+02  0.45594000000E+02  0.51100000000E-03 0. -1.
    9900012    2    1    2    0    0  0.41473447001E+02 -0.94579169154E+01 -0.86095632601E+01  0.47787267540E+02  0.19999984023E+02 0.  0.
        -12    1    1    2    0    0 -0.41473447001E+02  0.94579169154E+01  0.86095632601E+01  0.43400732460E+02  0.00000000000E+00 0.  1.
         11    1    3    3    0    0  0.40611159862E+02 -0.81679446611E+01 -0.11564652432E+02  0.43008403963E+02  0.51100000000E-03 0. -1.
        -11    1    3    3    0    0  0.11318637625E+01  0.58429694257E+00  0.55194602162E-02  0.12737932405E+01  0.51100000000E-03 0.  1.
         12    1    3    3    0    0 -0.26957662370E+00 -0.18742691969E+01  0.29495697118E+01  0.35050703364E+01  0.00000000000E+00 0. -1.
</event>
<event>
 7    1  0.4621547E-010  0.4778727E+02  0.7816164E-02  0.1312668E+00
        -11   -1    0    0    0    0  0.00000000000E+00  0.00000000000E+00  0.45593999997E+02  0.45594000000E+02  0.51100000000E-03 0. -1.
         11   -1    0    0    0    0 -0.00000000000E+00 -0.00000000000E+00 -0.45593999997E+02  0.45594000000E+02  0.51100000000E-03 0.  1.
    9900012    2    1    2    0    0 -0.21438835969E+02 -0.28962717925E+02  0.24190094703E+02  0.47787269602E+02  0.19999993425E+02 0.  0.
        -12    1    1    2    0    0  0.21438835969E+02  0.28962717925E+02 -0.24190094703E+02  0.43400730398E+02  0.00000000000E+00 0.  1.
         11    1    3    3    0    0 -0.62390858920E+01 -0.16736837865E+02  0.16542179618E+02  0.24345259113E+02  0.51100000000E-03 0. -1.
        -11    1    3    3    0    0 -0.12134652616E+02 -0.10491029263E+02  0.10273718766E+02  0.19048905130E+02  0.51100000000E-03 0.  1.
        -12    1    3    3    0    0 -0.30650974613E+01 -0.17348507970E+01 -0.26258036808E+01  0.43931053601E+01  0.00000000000E+00 0.  1.
</event>
<event>
 7    1  0.4621547E-010  0.4778726E+02  0.7816164E-02  0.1312668E+00
        -11   -1    0    0    0    0  0.00000000000E+00  0.00000000000E+00  0.45593999997E+02  0.45594000000E+02  0.51100000000E-03 0.  1.
         11   -1    0    0    0    0 -0.00000000000E+00 -0.00000000000E+00 -0.45593999997E+02  0.45594000000E+02  0.51100000000E-03 0. -1.
    9900012    2    1    2    0    0  0.48215269130E+01  0.41454918958E+02 -0.11910799027E+02  0.47787256216E+02  0.19999932389E+02 0.  0.
        -12    1    1    2    0    0 -0.48215269130E+01 -0.41454918958E+02  0.11910799027E+02  0.43400743784E+02  0.00000000000E+00 0.  1.
         11    1    3    3    0    0 -0.58280016541E+00  0.37249357812E+02 -0.76458088754E+01  0.38030418182E+02  0.51100000000E-03 0. -1.
        -11    1    3    3    0    0  0.36689120946E+01  0.54933713115E+01 -0.30283220910E+01  0.72669649285E+01  0.51100000000E-03 0.  1.
        -12    1    3    3    0    0  0.17354149838E+01 -0.12878101658E+01 -0.12366680602E+01  0.24898731052E+01  0.00000000000E+00 0.  1.
</event>
<event>
 7    1  0.4810994E-010  0.4778729E+02  0.7816164E-02  0.1312668E+00
        -11   -1    0    0    0    0  0.00000000000E+00  0.00000000000E+00  0.45593999997E+02  0.45594000000E+02  0.51100000000E-03 0. -1.
         11   -1    0    0    0    0 -0.00000000000E+00 -0.00000000000E+00 -0.45593999997E+02  0.45594000000E+02  0.51100000000E-03 0.  1.
    9900012    2    1    2    0    0 -0.16592962593E+02  0.31911052560E+02 -0.24289507621E+02  0.47787287292E+02  0.20000074078E+02 0.  0.
        -12    1    1    2    0    0  0.16592962593E+02 -0.31911052560E+02  0.24289507621E+02  0.43400712708E+02  0.00000000000E+00 0.  1.
         11    1    3    3    0    0 -0.46650074087E+01  0.12650975836E+02 -0.13440170887E+02  0.19038058658E+02  0.51100000000E-03 0. -1.
        -11    1    3    3    0    0 -0.21521587665E+01 -0.16172650202E+01 -0.37727519238E+01  0.46347589842E+01  0.51100000000E-03 0.  1.
        -12    1    3    3    0    0 -0.97757964176E+01  0.20877341744E+02 -0.70765848103E+01  0.24114469650E+02  0.00000000000E+00 0.  1.
</event>
<event>
 7    1  0.4621547E-010  0.4778728E+02  0.7816164E-02  0.1312668E+00
        -11   -1    0    0    0    0  0.00000000000E+00  0.00000000000E+00  0.45593999997E+02  0.45594000000E+02  0.51100000000E-03 0. -1.
         11   -1    0    0    0    0 -0.00000000000E+00 -0.00000000000E+00 -0.45593999997E+02  0.45594000000E+02  0.51100000000E-03 0.  1.
    9900012    2    1    2    0    0  0.18056378423E+02  0.36339986720E+02  0.15394637179E+02  0.47787282374E+02  0.20000051658E+02 0.  0.
        -12    1    1    2    0    0 -0.18056378423E+02 -0.36339986720E+02 -0.15394637179E+02  0.43400717626E+02  0.00000000000E+00 0.  1.
         11    1    3    3    0    0 -0.10203034948E+01  0.15281776813E+01 -0.14792666008E+01  0.23589353922E+01  0.51100000000E-03 0. -1.
        -11    1    3    3    0    0 -0.12048403504E+00  0.64347092304E+01  0.75516645527E+01  0.99220782632E+01  0.51100000000E-03 0.  1.
         12    1    3    3    0    0  0.19197165953E+02  0.28377099808E+02  0.93222392269E+01  0.35506268719E+02  0.00000000000E+00 0. -1.
</event>
<event>
 7    1  0.4621547E-010  0.4778727E+02  0.7816164E-02  0.1312668E+00
        -11   -1    0    0    0    0  0.00000000000E+00  0.00000000000E+00  0.45593999997E+02  0.45594000000E+02  0.51100000000E-03 0.  1.
         11   -1    0    0    0    0 -0.00000000000E+00 -0.00000000000E+00 -0.45593999997E+02  0.45594000000E+02  0.51100000000E-03 0. -1.
    9900012    2    1    2    0    0  0.20779264082E+02  0.10205126483E+02 -0.36711045497E+02  0.47787270930E+02  0.19999999479E+02 0.  0.
        -12    1    1    2    0    0 -0.20779264082E+02 -0.10205126483E+02  0.36711045497E+02  0.43400729070E+02  0.00000000000E+00 0.  1.
         11    1    3    3    0    0 -0.80370360584E+00  0.50429311871E+01 -0.84910901083E+01  0.99083654521E+01  0.51100000000E-03 0. -1.
        -11    1    3    3    0    0  0.34545120274E+01 -0.34726050571E+01 -0.80140874986E+01  0.93924564373E+01  0.51100000000E-03 0.  1.
         12    1    3    3    0    0  0.18128455660E+02  0.86348003535E+01 -0.20205867890E+02  0.28486449041E+02  0.00000000000E+00 0. -1.
</event>
<event>
 7    1  0.4621547E-010  0.4778727E+02  0.7816164E-02  0.1312668E+00
        -11   -1    0    0    0    0  0.00000000000E+00  0.00000000000E+00  0.45593999997E+02  0.45594000000E+02  0.51100000000E-03 0. -1.
         11   -1    0    0    0    0 -0.00000000000E+00 -0.00000000000E+00 -0.45593999997E+02  0.45594000000E+02  0.51100000000E-03 0.  1.
    9900012    2    1    2    0    0 -0.23985382179E+02  0.30120836366E+02  0.20026480442E+02  0.47787271198E+02  0.20000000701E+02 0.  0.
        -12    1    1    2    0    0  0.23985382179E+02 -0.30120836366E+02 -0.20026480442E+02  0.43400728802E+02  0.00000000000E+00 0.  1.
         11    1    3    3    0    0 -0.12460494938E+02  0.19291216537E+02  0.56408413462E+01  0.23648130178E+02  0.51100000000E-03 0. -1.
        -11    1    3    3    0    0 -0.10097307782E+01  0.35671141411E+01 -0.12801601727E+01  0.39220746893E+01  0.51100000000E-03 0.  1.
        -12    1    3    3    0    0 -0.10515156463E+02  0.72625056874E+01  0.15665799268E+02  0.20217066331E+02  0.00000000000E+00 0.  1.
</event>
<event>
 7    1  0.4621547E-010  0.4778727E+02  0.7816164E-02  0.1312668E+00
        -11   -1    0    0    0    0  0.00000000000E+00  0.00000000000E+00  0.45593999997E+02  0.45594000000E+02  0.51100000000E-03 0. -1.
         11   -1    0    0    0    0 -0.00000000000E+00 -0.00000000000E+00 -0.45593999997E+02  0.45594000000E+02  0.51100000000E-03 0.  1.
    9900012    2    1    2    0    0 -0.11220997063E+02  0.29043929423E+02  0.30235129040E+02  0.47787266832E+02  0.19999980796E+02 0.  0.
        -12    1    1    2    0    0  0.11220997063E+02 -0.29043929423E+02 -0.30235129040E+02  0.43400733168E+02  0.00000000000E+00 0.  1.
         11    1    3    3    0    0 -0.76169379635E+01  0.38603955438E+01  0.58850450838E+01  0.10370831866E+02  0.51100000000E-03 0. -1.
        -11    1    3    3    0    0  0.10640689182E+00 -0.13934453309E+01  0.41389134096E+00  0.14575042436E+01  0.51100000000E-03 0.  1.
         12    1    3    3    0    0 -0.37104659911E+01  0.26576979210E+02  0.23936192615E+02  0.35958930723E+02  0.00000000000E+00 0. -1.
</event>
<event>
 7    1  0.4621547E-010  0.4778727E+02  0.7816164E-02  0.1312668E+00
        -11   -1    0    0    0    0  0.00000000000E+00  0.00000000000E+00  0.45593999997E+02  0.45594000000E+02  0.51100000000E-03 0. -1.
         11   -1    0    0    0    0 -0.00000000000E+00 -0.00000000000E+00 -0.45593999997E+02  0.45594000000E+02  0.51100000000E-03 0.  1.
    9900012    2    1    2    0    0  0.31677404605E+02  0.57822471597E+01  0.29098641650E+02  0.47787270852E+02  0.19999999120E+02 0.  0.
        -12    1    1    2    0    0 -0.31677404605E+02 -0.57822471597E+01 -0.29098641650E+02  0.43400729148E+02  0.00000000000E+00 0.  1.
         11    1    3    3    0    0  0.21004526716E+02 -0.90700338111E-01  0.14900668158E+02  0.25753218846E+02  0.51100000000E-03 0. -1.
        -11    1    3    3    0    0  0.16714012594E+01 -0.28175530309E+01  0.66722182125E+01  0.74330803431E+01  0.51100000000E-03 0.  1.
        -12    1    3    3    0    0  0.90014766299E+01  0.86905005287E+01  0.75257552795E+01  0.14600971662E+02  0.00000000000E+00 0.  1.
</event>
<event>
 7    1  0.4621547E-010  0.4778726E+02  0.7816164E-02  0.1312668E+00
        -11   -1    0    0    0    0  0.00000000000E+00  0.00000000000E+00  0.45593999997E+02  0.45594000000E+02  0.51100000000E-03 0.  1.
         11   -1    0    0    0    0 -0.00000000000E+00 -0.00000000000E+00 -0.45593999997E+02  0.45594000000E+02  0.51100000000E-03 0. -1.
    9900012    2    1    2    0    0 -0.91004138133E+01 -0.58392062193E+01 -0.42032253886E+02  0.47787260057E+02  0.19999949905E+02 0.  0.
        -12    1    1    2    0    0  0.91004138133E+01  0.58392062193E+01  0.42032253886E+02  0.43400739943E+02  0.00000000000E+00 0.  1.
         11    1    3    3    0    0 -0.40578160614E+01  0.43488495172E+00 -0.20914689414E+02  0.21309134887E+02  0.51100000000E-03 0. -1.
        -11    1    3    3    0    0 -0.52215485114E+01  0.28321901820E+01 -0.42346327324E+01  0.72950657793E+01  0.51100000000E-03 0.  1.
        -12    1    3    3    0    0  0.17895075954E+00 -0.91062813531E+01 -0.16882931740E+02  0.19183059391E+02  0.00000000000E+00 0.  1.
</event>
<event>
 7    1  0.4621547E-010  0.4778727E+02  0.7816164E-02  0.1312668E+00
        -11   -1    0    0    0    0  0.00000000000E+00  0.00000000000E+00  0.45593999997E+02  0.45594000000E+02  0.51100000000E-03 0.  1.
         11   -1    0    0    0    0 -0.00000000000E+00 -0.00000000000E+00 -0.45593999997E+02  0.45594000000E+02  0.51100000000E-03 0. -1.
    9900012    2    1    2    0    0  0.29400325726E+02 -0.27400509269E+02  0.16384634484E+02  0.47787270649E+02  0.19999998198E+02 0.  0.
        -12    1    1    2    0    0 -0.29400325726E+02  0.27400509269E+02 -0.16384634484E+02  0.43400729351E+02  0.00000000000E+00 0.  1.
         11    1    3    3    0    0  0.19504423653E+01 -0.51852464339E-01  0.37963024390E+01  0.42683517390E+01  0.51100000000E-03 0.  1.
        -11    1    3    3    0    0  0.50614105391E+01  0.13587064998E+01  0.19397781769E+01  0.55880855071E+01  0.51100000000E-03 0. -1.
         12    1    3    3    0    0  0.22388472822E+02 -0.28707363304E+02  0.10648553868E+02  0.37930833403E+02  0.00000000000E+00 0. -1.
</event>
<event>
 7    1  0.4621547E-010  0.4778727E+02  0.7816164E-02  0.1312668E+00
        -11   -1    0    0    0    0  0.00000000000E+00  0.00000000000E+00  0.45593999997E+02  0.45594000000E+02  0.51100000000E-03 0. -1.
         11   -1    0    0    0    0 -0.00000000000E+00 -0.00000000000E+00 -0.45593999997E+02  0.45594000000E+02  0.51100000000E-03 0.  1.
    9900012    2    1    2    0    0  0.43106500411E+02  0.30832688973E+01  0.39933470949E+01  0.47787265607E+02  0.19999975210E+02 0.  0.
        -12    1    1    2    0    0 -0.43106500411E+02 -0.30832688973E+01 -0.39933470949E+01  0.43400734393E+02  0.00000000000E+00 0.  1.
         11    1    3    3    0    0  0.12656654240E+02  0.60032915191E+01 -0.17120625693E+01  0.14112461306E+02  0.51100000000E-03 0. -1.
        -11    1    3    3    0    0  0.17274859014E+01 -0.10906392037E+01 -0.29792882941E+01  0.36124590534E+01  0.51100000000E-03 0.  1.
         12    1    3    3    0    0  0.28722360270E+02 -0.18293834181E+01  0.86846979583E+01  0.30062345248E+02  0.00000000000E+00 0. -1.
</event>
<event>
 7    1  0.4621547E-010  0.4778727E+02  0.7816164E-02  0.1312668E+00
        -11   -1    0    0    0    0  0.00000000000E+00  0.00000000000E+00  0.45593999997E+02  0.45594000000E+02  0.51100000000E-03 0. -1.
         11   -1    0    0    0    0 -0.00000000000E+00 -0.00000000000E+00 -0.45593999997E+02  0.45594000000E+02  0.51100000000E-03 0.  1.
    9900012    2    1    2    0    0  0.22918628125E+02  0.93914806542E+00  0.36843967674E+02  0.47787268806E+02  0.19999989793E+02 0.  0.
        -12    1    1    2    0    0 -0.22918628125E+02 -0.93914806542E+00 -0.36843967674E+02  0.43400731194E+02  0.00000000000E+00 0.  1.
         11    1    3    3    0    0  0.81873824293E+01 -0.30649851166E+01  0.62468427643E+01  0.10744785228E+02  0.51100000000E-03 0. -1.
        -11    1    3    3    0    0 -0.27068773517E+01 -0.63160673602E+00  0.32170902122E+01  0.42515622729E+01  0.51100000000E-03 0.  1.
        -12    1    3    3    0    0  0.17438123047E+02  0.46357399180E+01  0.27380034698E+02  0.32790921305E+02  0.00000000000E+00 0.  1.
</event>
<event>
 7    1  0.4621547E-010  0.4778727E+02  0.7816164E-02  0.1312668E+00
        -11   -1    0    0    0    0  0.00000000000E+00  0.00000000000E+00  0.45593999997E+02  0.45594000000E+02  0.51100000000E-03 0.  1.
         11   -1    0    0    0    0 -0.00000000000E+00 -0.00000000000E+00 -0.45593999997E+02  0.45594000000E+02  0.51100000000E-03 0. -1.
    9900012    2    1    2    0    0  0.13528461513E+01 -0.27852186294E+02  0.33257310637E+02  0.47787272070E+02  0.20000004674E+02 0.  0.
        -12    1    1    2    0    0 -0.13528461513E+01  0.27852186294E+02 -0.33257310637E+02  0.43400727930E+02  0.00000000000E+00 0.  1.
         11    1    3    3    0    0  0.82039415128E+00  0.16220426080E+01 -0.60133181170E+00  0.19145936891E+01  0.51100000000E-03 0. -1.
        -11    1    3    3    0    0 -0.10576130842E+01 -0.73365221193E+01  0.15065448371E+02  0.16790200628E+02  0.51100000000E-03 0.  1.
        -12    1    3    3    0    0  0.15900650842E+01 -0.22137706783E+02  0.18793194077E+02  0.29082477752E+02  0.00000000000E+00 0.  1.
</event>
<event>
 7    1  0.4621547E-010  0.4778726E+02  0.7816164E-02  0.1312668E+00
        -11   -1    0    0    0    0  0.00000000000E+00  0.00000000000E+00  0.45593999997E+02  0.45594000000E+02  0.51100000000E-03 0. -1.
         11   -1    0    0    0    0 -0.00000000000E+00 -0.00000000000E+00 -0.45593999997E+02  0.45594000000E+02  0.51100000000E-03 0.  1.
    9900012    2    1    2    0    0  0.14369107421E+02  0.40318970079E+02  0.71786757709E+01  0.47787262885E+02  0.19999962798E+02 0.  0.
        -12    1    1    2    0    0 -0.14369107421E+02 -0.40318970079E+02 -0.71786757709E+01  0.43400737115E+02  0.00000000000E+00 0.  1.
         11    1    3    3    0    0  0.54056577298E+01  0.13906421881E+02 -0.23129442212E+01  0.15098324949E+02  0.51100000000E-03 0. -1.
        -11    1    3    3    0    0 -0.17713236755E+01 -0.55803849704E+00 -0.60743134352E+00  0.19539620329E+01  0.51100000000E-03 0.  1.
        -12    1    3    3    0    0  0.10734773367E+02  0.26970586695E+02  0.10099051336E+02  0.30734975903E+02  0.00000000000E+00 0.  1.
</event>
<event>
 7    1  0.4621547E-010  0.4778731E+02  0.7816164E-02  0.1312668E+00
        -11   -1    0    0    0    0  0.00000000000E+00  0.00000000000E+00  0.45593999997E+02  0.45594000000E+02  0.51100000000E-03 0. -1.
         11   -1    0    0    0    0 -0.00000000000E+00 -0.00000000000E+00 -0.45593999997E+02  0.45594000000E+02  0.51100000000E-03 0.  1.
    9900012    2    1    2    0    0 -0.24670415511E+02 -0.32322344079E+02  0.15174204310E+02  0.47787311011E+02  0.20000182224E+02 0.  0.
        -12    1    1    2    0    0  0.24670415511E+02  0.32322344079E+02 -0.15174204310E+02  0.43400688989E+02  0.00000000000E+00 0.  1.
         11    1    3    3    0    0 -0.36993791260E+01 -0.12282804305E+01  0.24262250770E+00  0.39055018469E+01  0.51100000000E-03 0.  1.
        -11    1    3    3    0    0 -0.99838042965E+01 -0.28167101273E+02  0.11218678841E+02  0.31920537237E+02  0.51100000000E-03 0. -1.
         12    1    3    3    0    0 -0.10987232088E+02 -0.29269623760E+01  0.37129029621E+01  0.11961271927E+02  0.00000000000E+00 0. -1.
</event>
<event>
 7    1  0.4621547E-010  0.4778727E+02  0.7816164E-02  0.1312668E+00
        -11   -1    0    0    0    0  0.00000000000E+00  0.00000000000E+00  0.45593999997E+02  0.45594000000E+02  0.51100000000E-03 0.  1.
         11   -1    0    0    0    0 -0.00000000000E+00 -0.00000000000E+00 -0.45593999997E+02  0.45594000000E+02  0.51100000000E-03 0. -1.
    9900012    2    1    2    0    0  0.31454285779E+02 -0.15122959021E+02 -0.25798203120E+02  0.47787271117E+02  0.20000000329E+02 0.  0.
        -12    1    1    2    0    0 -0.31454285779E+02  0.15122959021E+02  0.25798203120E+02  0.43400728883E+02  0.00000000000E+00 0.  1.
         11    1    3    3    0    0  0.14768466147E+02 -0.59626970494E+01 -0.55193123727E+01  0.16855982847E+02  0.51100000000E-03 0. -1.
        -11    1    3    3    0    0  0.12639722238E+02 -0.17773780555E+01 -0.54494028001E+01  0.13878675806E+02  0.51100000000E-03 0.  1.
        -12    1    3    3    0    0  0.40460973947E+01 -0.73828839159E+01 -0.14829487947E+02  0.17052612463E+02  0.00000000000E+00 0.  1.
</event>
<event>
 7    1  0.4621547E-010  0.4778727E+02  0.7816164E-02  0.1312668E+00
        -11   -1    0    0    0    0  0.00000000000E+00  0.00000000000E+00  0.45593999997E+02  0.45594000000E+02  0.51100000000E-03 0.  1.
         11   -1    0    0    0    0 -0.00000000000E+00 -0.00000000000E+00 -0.45593999997E+02  0.45594000000E+02  0.51100000000E-03 0. -1.
    9900012    2    1    2    0    0 -0.16698250342E+02 -0.18498351680E+02 -0.35533116291E+02  0.47787274975E+02  0.20000017920E+02 0.  0.
        -12    1    1    2    0    0  0.16698250342E+02  0.18498351680E+02  0.35533116291E+02  0.43400725025E+02  0.00000000000E+00 0.  1.
         11    1    3    3    0    0 -0.60365665178E+01 -0.26508195055E+01 -0.15072644090E+01  0.67630485460E+01  0.51100000000E-03 0.  1.
        -11    1    3    3    0    0  0.23875202808E+01 -0.44307588518E+00 -0.60960285636E+01  0.65618696909E+01  0.51100000000E-03 0. -1.
         12    1    3    3    0    0 -0.13049204104E+02 -0.15404456289E+02 -0.27929823319E+02  0.34462356738E+02  0.00000000000E+00 0. -1.
</event>
<event>
 7    1  0.4621547E-010  0.4778727E+02  0.7816164E-02  0.1312668E+00
        -11   -1    0    0    0    0  0.00000000000E+00  0.00000000000E+00  0.45593999997E+02  0.45594000000E+02  0.51100000000E-03 0.  1.
         11   -1    0    0    0    0 -0.00000000000E+00 -0.00000000000E+00 -0.45593999997E+02  0.45594000000E+02  0.51100000000E-03 0. -1.
    9900012    2    1    2    0    0 -0.50767936546E+01  0.11019907359E+02 -0.41670267634E+02  0.47787269629E+02  0.19999993548E+02 0.  0.
        -12    1    1    2    0    0  0.50767936546E+01 -0.11019907359E+02  0.41670267634E+02  0.43400730371E+02  0.00000000000E+00 0.  1.
         11    1    3    3    0    0 -0.11063346799E+01  0.15775751683E+02 -0.26414361615E+02  0.30786633745E+02  0.51100000000E-03 0. -1.
        -11    1    3    3    0    0 -0.16771156166E+01 -0.63598652987E+00 -0.11576705282E+01  0.21348060733E+01  0.51100000000E-03 0.  1.
         12    1    3    3    0    0 -0.22933433581E+01 -0.41198577941E+01 -0.14098235491E+02  0.14865829811E+02  0.00000000000E+00 0. -1.
</event>
<event>
 7    1  0.4621547E-010  0.4778726E+02  0.7816164E-02  0.1312668E+00
        -11   -1    0    0    0    0  0.00000000000E+00  0.00000000000E+00  0.45593999997E+02  0.45594000000E+02  0.51100000000E-03 0.  1.
         11   -1    0    0    0    0 -0.00000000000E+00 -0.00000000000E+00 -0.45593999997E+02  0.45594000000E+02  0.51100000000E-03 0. -1.
    9900012    2    1    2    0    0  0.25015148811E+02 -0.18721572443E+02 -0.30122565286E+02  0.47787264013E+02  0.19999967942E+02 0.  0.
        -12    1    1    2    0    0 -0.25015148811E+02  0.18721572443E+02  0.30122565286E+02  0.43400735987E+02  0.00000000000E+00 0.  1.
         11    1    3    3    0    0 -0.16331012757E+01 -0.32496102094E+01 -0.83577142500E+01  0.91147338982E+01  0.51100000000E-03 0.  1.
        -11    1    3    3    0    0  0.11477223331E+02 -0.80217702866E+01 -0.50056465780E+01  0.14870506106E+02  0.51100000000E-03 0. -1.
        -12    1    3    3    0    0  0.15171026755E+02 -0.74501919472E+01 -0.16759204458E+02  0.23802024009E+02  0.00000000000E+00 0.  1.
</event>
<event>
 7    1  0.4621547E-010  0.4778726E+02  0.7816164E-02  0.1312668E+00
        -11   -1    0    0    0    0  0.00000000000E+00  0.00000000000E+00  0.45593999997E+02  0.45594000000E+02  0.51100000000E-03 0.  1.
         11   -1    0    0    0    0 -0.00000000000E+00 -0.00000000000E+00 -0.45593999997E+02  0.45594000000E+02  0.51100000000E-03 0. -1.
    9900012    2    1    2    0    0 -0.36471357200E+00 -0.43398323817E+02  0.27628406556E+00  0.47787264303E+02  0.19999969265E+02 0.  0.
        -12    1    1    2    0    0  0.36471357200E+00  0.43398323817E+02 -0.27628406556E+00  0.43400735697E+02  0.00000000000E+00 0.  1.
         11    1    3    3    0    0 -0.91433235254E+00 -0.15910728868E+02  0.50600220032E+01  0.16720978432E+02  0.51100000000E-03 0. -1.
        -11    1    3    3    0    0  0.30085438078E+01 -0.27382640557E+02 -0.24194095561E+01  0.27653460589E+02  0.51100000000E-03 0.  1.
         12    1    3    3    0    0 -0.24589250273E+01 -0.10495439189E+00 -0.23643283815E+01  0.34128252826E+01  0.00000000000E+00 0. -1.
</event>
<event>
 7    1  0.4621547E-010  0.4778727E+02  0.7816164E-02  0.1312668E+00
        -11   -1    0    0    0    0  0.00000000000E+00  0.00000000000E+00  0.45593999997E+02  0.45594000000E+02  0.51100000000E-03 0.  1.
         11   -1    0    0    0    0 -0.00000000000E+00 -0.00000000000E+00 -0.45593999997E+02  0.45594000000E+02  0.51100000000E-03 0. -1.
    9900012    2    1    2    0    0  0.61067255048E+01 -0.39461534132E+02 -0.17003486578E+02  0.47787270418E+02  0.19999997142E+02 0.  0.
        -12    1    1    2    0    0 -0.61067255048E+01  0.39461534132E+02  0.17003486578E+02  0.43400729582E+02  0.00000000000E+00 0.  1.
         11    1    3    3    0    0  0.69979319645E+01 -0.10948837661E+02  0.94355347607E+00  0.13028368713E+02  0.51100000000E-03 0. -1.
        -11    1    3    3    0    0 -0.98105262195E+00 -0.57290087527E+01 -0.93414426034E-01  0.58131516453E+01  0.51100000000E-03 0.  1.
        -12    1    3    3    0    0  0.89846162280E-01 -0.22783687718E+02 -0.17853625628E+02  0.28945750059E+02  0.00000000000E+00 0.  1.
</event>
<event>
 7    1  0.4621547E-010  0.4778727E+02  0.7816164E-02  0.1312668E+00
        -11   -1    0    0    0    0  0.00000000000E+00  0.00000000000E+00  0.45593999997E+02  0.45594000000E+02  0.51100000000E-03 0.  1.
         11   -1    0    0    0    0 -0.00000000000E+00 -0.00000000000E+00 -0.45593999997E+02  0.45594000000E+02  0.51100000000E-03 0. -1.
    9900012    2    1    2    0    0  0.26044661928E+02  0.19653869062E+01 -0.34661738689E+02  0.47787270864E+02  0.19999999176E+02 0.  0.
        -12    1    1    2    0    0 -0.26044661928E+02 -0.19653869062E+01  0.34661738689E+02  0.43400729136E+02  0.00000000000E+00 0.  1.
         11    1    3    3    0    0  0.16845178002E+02  0.32592285221E+01 -0.27328779849E+02  0.32268325039E+02  0.51100000000E-03 0. -1.
        -11    1    3    3    0    0  0.21492096890E+01  0.29699291249E+01 -0.61991236488E+01  0.72019938606E+01  0.51100000000E-03 0.  1.
        -12    1    3    3    0    0  0.70502742364E+01 -0.42637707409E+01 -0.11338351908E+01  0.83169519645E+01  0.00000000000E+00 0.  1.
</event>
<event>
 7    1  0.4621547E-010  0.4778731E+02  0.7816164E-02  0.1312668E+00
        -11   -1    0    0    0    0  0.00000000000E+00  0.00000000000E+00  0.45593999997E+02  0.45594000000E+02  0.51100000000E-03 0. -1.
         11   -1    0    0    0    0 -0.00000000000E+00 -0.00000000000E+00 -0.45593999997E+02  0.45594000000E+02  0.51100000000E-03 0.  1.
    9900012    2    1    2    0    0 -0.10009029318E+02  0.34025457860E+02  0.25014136883E+02  0.47787314585E+02  0.20000198519E+02 0.  0.
        -12    1    1    2    0    0  0.10009029318E+02 -0.34025457860E+02 -0.25014136883E+02  0.43400685415E+02  0.00000000000E+00 0.  1.
         11    1    3    3    0    0 -0.26626573113E+01  0.10083593820E+02  0.11108740993E+02  0.15237215461E+02  0.51100000000E-03 0. -1.
        -11    1    3    3    0    0 -0.13714813030E+01  0.22096871479E+02  0.14179396718E+02  0.26290834557E+02  0.51100000000E-03 0.  1.
         12    1    3    3    0    0 -0.59748907041E+01  0.18449925610E+01 -0.27400082874E+00  0.62592645679E+01  0.00000000000E+00 0. -1.
</event>
<event>
 7    1  0.4621547E-010  0.4778727E+02  0.7816164E-02  0.1312668E+00
        -11   -1    0    0    0    0  0.00000000000E+00  0.00000000000E+00  0.45593999997E+02  0.45594000000E+02  0.51100000000E-03 0.  1.
         11   -1    0    0    0    0 -0.00000000000E+00 -0.00000000000E+00 -0.45593999997E+02  0.45594000000E+02  0.51100000000E-03 0. -1.
    9900012    2    1    2    0    0  0.14891576517E+02  0.31139884179E+02 -0.26309162988E+02  0.47787268497E+02  0.19999988386E+02 0.  0.
        -12    1    1    2    0    0 -0.14891576517E+02 -0.31139884179E+02  0.26309162988E+02  0.43400731503E+02  0.00000000000E+00 0.  1.
         11    1    3    3    0    0  0.29048236121E+01  0.18873878201E+01 -0.60653974386E+01  0.69849323082E+01  0.51100000000E-03 0. -1.
        -11    1    3    3    0    0  0.16744869138E+01  0.85567356646E+01  0.17469468687E+01  0.88923256397E+01  0.51100000000E-03 0.  1.
        -12    1    3    3    0    0  0.10312265991E+02  0.20695760695E+02 -0.21990712418E+02  0.31910010549E+02  0.00000000000E+00 0.  1.
</event>
<event>
 7    1  0.4621547E-010  0.4778727E+02  0.7816164E-02  0.1312668E+00
        -11   -1    0    0    0    0  0.00000000000E+00  0.00000000000E+00  0.45593999997E+02  0.45594000000E+02  0.51100000000E-03 0.  1.
         11   -1    0    0    0    0 -0.00000000000E+00 -0.00000000000E+00 -0.45593999997E+02  0.45594000000E+02  0.51100000000E-03 0. -1.
    9900012    2    1    2    0    0  0.14466330203E+02  0.31380440416E+02 -0.26260549200E+02  0.47787271958E+02  0.20000004166E+02 0.  0.
        -12    1    1    2    0    0 -0.14466330203E+02 -0.31380440416E+02  0.26260549200E+02  0.43400728042E+02  0.00000000000E+00 0.  1.
         11    1    3    3    0    0  0.52451704996E+01  0.23330702463E+01 -0.25430563511E+01  0.62787073678E+01  0.51100000000E-03 0. -1.
        -11    1    3    3    0    0  0.11100923046E+02  0.14051751986E+02 -0.17884952209E+02  0.25309163205E+02  0.51100000000E-03 0.  1.
         12    1    3    3    0    0 -0.18797633424E+01  0.14995618184E+02 -0.58325406403E+01  0.16199401386E+02  0.00000000000E+00 0. -1.
</event>
<event>
 7    1  0.4621547E-010  0.4778727E+02  0.7816164E-02  0.1312668E+00
        -11   -1    0    0    0    0  0.00000000000E+00  0.00000000000E+00  0.45593999997E+02  0.45594000000E+02  0.51100000000E-03 0.  1.
         11   -1    0    0    0    0 -0.00000000000E+00 -0.00000000000E+00 -0.45593999997E+02  0.45594000000E+02  0.51100000000E-03 0. -1.
    9900012    2    1    2    0    0 -0.18510035429E+01 -0.49741950144E+01 -0.43074985298E+02  0.47787272027E+02  0.20000004480E+02 0.  0.
        -12    1    1    2    0    0  0.18510035429E+01  0.49741950144E+01  0.43074985298E+02  0.43400727973E+02  0.00000000000E+00 0.  1.
         11    1    3    3    0    0  0.19223425456E+01 -0.55199744988E+01 -0.34519277769E+02  0.35010656339E+02  0.51100000000E-03 0. -1.
        -11    1    3    3    0    0  0.13457774499E+01  0.12661421362E+01 -0.71984982393E+01  0.74318645047E+01  0.51100000000E-03 0.  1.
        -12    1    3    3    0    0 -0.51191235384E+01 -0.72036265179E+00 -0.13572092894E+01  0.53447511828E+01  0.00000000000E+00 0.  1.
</event>
<event>
 7    1  0.4621547E-010  0.4778727E+02  0.7816164E-02  0.1312668E+00
        -11   -1    0    0    0    0  0.00000000000E+00  0.00000000000E+00  0.45593999997E+02  0.45594000000E+02  0.51100000000E-03 0.  1.
         11   -1    0    0    0    0 -0.00000000000E+00 -0.00000000000E+00 -0.45593999997E+02  0.45594000000E+02  0.51100000000E-03 0. -1.
    9900012    2    1    2    0    0 -0.14493492121E+02 -0.42716166803E+01 -0.40685564783E+02  0.47787271842E+02  0.20000003636E+02 0.  0.
        -12    1    1    2    0    0  0.14493492121E+02  0.42716166803E+01  0.40685564783E+02  0.43400728158E+02  0.00000000000E+00 0.  1.
         11    1    3    3    0    0 -0.42625006827E+00  0.10849668541E+01 -0.12691918971E+02  0.12745338349E+02  0.51100000000E-03 0. -1.
        -11    1    3    3    0    0 -0.23753045101E+01 -0.53655766896E+01 -0.20089524578E+02  0.20928938883E+02  0.51100000000E-03 0.  1.
        -12    1    3    3    0    0 -0.11691937543E+02  0.89931551879E-02 -0.79041212337E+01  0.14112994610E+02  0.00000000000E+00 0.  1.
</event>
<event>
 7    1  0.4621547E-010  0.4778727E+02  0.7816164E-02  0.1312668E+00
        -11   -1    0    0    0    0  0.00000000000E+00  0.00000000000E+00  0.45593999997E+02  0.45594000000E+02  0.51100000000E-03 0. -1.
         11   -1    0    0    0    0 -0.00000000000E+00 -0.00000000000E+00 -0.45593999997E+02  0.45594000000E+02  0.51100000000E-03 0.  1.
    9900012    2    1    2    0    0 -0.32007133838E+02  0.22696031092E+02  0.18548764488E+02  0.47787272956E+02  0.20000008717E+02 0.  0.
        -12    1    1    2    0    0  0.32007133838E+02 -0.22696031092E+02 -0.18548764488E+02  0.43400727044E+02  0.00000000000E+00 0.  1.
         11    1    3    3    0    0 -0.13833681114E+02  0.15619615192E+02  0.11373379494E+02  0.23763351474E+02  0.51100000000E-03 0. -1.
        -11    1    3    3    0    0 -0.17761482695E+02  0.28151843630E+01  0.33704442598E+01  0.18296322726E+02  0.51100000000E-03 0.  1.
         12    1    3    3    0    0 -0.41197002908E+00  0.42612315374E+01  0.38049407344E+01  0.57275987562E+01  0.00000000000E+00 0. -1.
</event>
<event>
 7    1  0.4621547E-010  0.4778727E+02  0.7816164E-02  0.1312668E+00
        -11   -1    0    0    0    0  0.00000000000E+00  0.00000000000E+00  0.45593999997E+02  0.45594000000E+02  0.51100000000E-03 0. -1.
         11   -1    0    0    0    0 -0.00000000000E+00 -0.00000000000E+00 -0.45593999997E+02  0.45594000000E+02  0.51100000000E-03 0.  1.
    9900012    2    1    2    0    0 -0.44461737711E+01  0.32581468907E+02  0.28324942893E+02  0.47787274577E+02  0.20000016105E+02 0.  0.
        -12    1    1    2    0    0  0.44461737711E+01 -0.32581468907E+02 -0.28324942893E+02  0.43400725423E+02  0.00000000000E+00 0.  1.
         11    1    3    3    0    0 -0.66708030590E+01  0.23000861840E+02  0.11081266174E+02  0.26388135954E+02  0.51100000000E-03 0.  1.
        -11    1    3    3    0    0 -0.46099384521E+00  0.34340802746E+01  0.68292331170E+00  0.35315445868E+01  0.51100000000E-03 0. -1.
        -12    1    3    3    0    0  0.26856231331E+01  0.61465267927E+01  0.16560753407E+02  0.17867594036E+02  0.00000000000E+00 0.  1.
</event>
<event>
 7    1  0.4621547E-010  0.4778727E+02  0.7816164E-02  0.1312668E+00
        -11   -1    0    0    0    0  0.00000000000E+00  0.00000000000E+00  0.45593999997E+02  0.45594000000E+02  0.51100000000E-03 0.  1.
         11   -1    0    0    0    0 -0.00000000000E+00 -0.00000000000E+00 -0.45593999997E+02  0.45594000000E+02  0.51100000000E-03 0. -1.
    9900012    2    1    2    0    0  0.30440840951E+02 -0.17339841306E+02 -0.25618517866E+02  0.47787270145E+02  0.19999995899E+02 0.  0.
        -12    1    1    2    0    0 -0.30440840951E+02  0.17339841306E+02  0.25618517866E+02  0.43400729855E+02  0.00000000000E+00 0.  1.
         11    1    3    3    0    0  0.35302796326E+01  0.72060848403E+00 -0.11802666824E+01  0.37914615354E+01  0.51100000000E-03 0. -1.
        -11    1    3    3    0    0  0.65727122367E+01  0.21691389798E+01 -0.92034485586E+01  0.11515605746E+02  0.51100000000E-03 0.  1.
         12    1    3    3    0    0  0.20337849082E+02 -0.20229588770E+02 -0.15234802625E+02  0.32480202864E+02  0.00000000000E+00 0. -1.
</event>
<event>
 7    1  0.4621547E-010  0.4778727E+02  0.7816164E-02  0.1312668E+00
        -11   -1    0    0    0    0  0.00000000000E+00  0.00000000000E+00  0.45593999997E+02  0.45594000000E+02  0.51100000000E-03 0.  1.
         11   -1    0    0    0    0 -0.00000000000E+00 -0.00000000000E+00 -0.45593999997E+02  0.45594000000E+02  0.51100000000E-03 0. -1.
    9900012    2    1    2    0    0 -0.15077859538E+02  0.35029730850E+02 -0.20717136014E+02  0.47787267100E+02  0.19999982016E+02 0.  0.
        -12    1    1    2    0    0  0.15077859538E+02 -0.35029730850E+02  0.20717136014E+02  0.43400732900E+02  0.00000000000E+00 0.  1.
         11    1    3    3    0    0 -0.79982254437E+01  0.66131130071E+01 -0.44642333913E+01  0.11297533090E+02  0.51100000000E-03 0. -1.
        -11    1    3    3    0    0  0.26435974570E-01 -0.15374871868E+01  0.25321263265E+00  0.15584231161E+01  0.51100000000E-03 0.  1.
        -12    1    3    3    0    0 -0.71060700685E+01  0.29954105029E+02 -0.16506115255E+02  0.34931310894E+02  0.00000000000E+00 0.  1.
</event>
<event>
 7    1  0.4621547E-010  0.4778728E+02  0.7816164E-02  0.1312668E+00
        -11   -1    0    0    0    0  0.00000000000E+00  0.00000000000E+00  0.45593999997E+02  0.45594000000E+02  0.51100000000E-03 0. -1.
         11   -1    0    0    0    0 -0.00000000000E+00 -0.00000000000E+00 -0.45593999997E+02  0.45594000000E+02  0.51100000000E-03 0.  1.
    9900012    2    1    2    0    0  0.25030509438E+02 -0.98615797881E+01  0.34056508052E+02  0.47787275360E+02  0.20000019674E+02 0.  0.
        -12    1    1    2    0    0 -0.25030509438E+02  0.98615797881E+01 -0.34056508052E+02  0.43400724640E+02  0.00000000000E+00 0.  1.
         11    1    3    3    0    0  0.57785601573E+01 -0.36476750442E+01  0.45321507086E+01  0.81998585979E+01  0.51100000000E-03 0. -1.
        -11    1    3    3    0    0  0.94723121357E+01  0.41997942735E+01  0.57475364367E+01  0.11848930099E+02  0.51100000000E-03 0.  1.
        -12    1    3    3    0    0  0.97796371445E+01 -0.10413699017E+02  0.23776820907E+02  0.27738486663E+02  0.00000000000E+00 0.  1.
</event>
<event>
 7    1  0.4621547E-010  0.4778727E+02  0.7816164E-02  0.1312668E+00
        -11   -1    0    0    0    0  0.00000000000E+00  0.00000000000E+00  0.45593999997E+02  0.45594000000E+02  0.51100000000E-03 0.  1.
         11   -1    0    0    0    0 -0.00000000000E+00 -0.00000000000E+00 -0.45593999997E+02  0.45594000000E+02  0.51100000000E-03 0. -1.
    9900012    2    1    2    0    0  0.22512635641E+02  0.48380231955E+01 -0.36788562183E+02  0.47787267985E+02  0.19999986052E+02 0.  0.
        -12    1    1    2    0    0 -0.22512635641E+02 -0.48380231955E+01  0.36788562183E+02  0.43400732015E+02  0.00000000000E+00 0.  1.
         11    1    3    3    0    0  0.80176288442E+01  0.38879842969E+01 -0.65831284378E+01  0.11078644974E+02  0.51100000000E-03 0. -1.
        -11    1    3    3    0    0  0.10306167105E+01  0.61427502844E+01 -0.11556989834E+02  0.13128578223E+02  0.51100000000E-03 0.  1.
        -12    1    3    3    0    0  0.13464390086E+02 -0.51927113859E+01 -0.18648443911E+02  0.23580044788E+02  0.00000000000E+00 0.  1.
</event>
<event>
 7    1  0.4621547E-010  0.4778726E+02  0.7816164E-02  0.1312668E+00
        -11   -1    0    0    0    0  0.00000000000E+00  0.00000000000E+00  0.45593999997E+02  0.45594000000E+02  0.51100000000E-03 0.  1.
         11   -1    0    0    0    0 -0.00000000000E+00 -0.00000000000E+00 -0.45593999997E+02  0.45594000000E+02  0.51100000000E-03 0. -1.
    9900012    2    1    2    0    0  0.89545222807E+01 -0.31940470853E+02 -0.27986546510E+02  0.47787263449E+02  0.19999965369E+02 0.  0.
        -12    1    1    2    0    0 -0.89545222807E+01  0.31940470853E+02  0.27986546510E+02  0.43400736551E+02  0.00000000000E+00 0.  1.
         11    1    3    3    0    0 -0.33288383129E+01 -0.19359589082E+02 -0.13291688216E+02  0.23718006447E+02  0.51100000000E-03 0. -1.
        -11    1    3    3    0    0  0.38274837930E+01 -0.89321938923E+01 -0.61095271179E+01  0.11478677702E+02  0.51100000000E-03 0.  1.
         12    1    3    3    0    0  0.84558768006E+01 -0.36486878791E+01 -0.85853311764E+01  0.12590579300E+02  0.00000000000E+00 0. -1.
</event>
<event>
 7    1  0.4621547E-010  0.4778727E+02  0.7816164E-02  0.1312668E+00
        -11   -1    0    0    0    0  0.00000000000E+00  0.00000000000E+00  0.45593999997E+02  0.45594000000E+02  0.51100000000E-03 0. -1.
         11   -1    0    0    0    0 -0.00000000000E+00 -0.00000000000E+00 -0.45593999997E+02  0.45594000000E+02  0.51100000000E-03 0.  1.
    9900012    2    1    2    0    0  0.37935548272E+02 -0.47351594659E+01  0.20544961624E+02  0.47787274131E+02  0.20000014071E+02 0.  0.
        -12    1    1    2    0    0 -0.37935548272E+02  0.47351594659E+01 -0.20544961624E+02  0.43400725869E+02  0.00000000000E+00 0.  1.
         11    1    3    3    0    0  0.26726186220E+02 -0.26045607046E+01  0.11289382132E+02  0.29129416669E+02  0.51100000000E-03 0. -1.
        -11    1    3    3    0    0  0.12492017543E+02  0.45810625072E+00  0.95820386732E+01  0.15750423138E+02  0.51100000000E-03 0.  1.
        -12    1    3    3    0    0 -0.12826554907E+01 -0.25887050120E+01 -0.32645918106E+00  0.29074343233E+01  0.00000000000E+00 0.  1.
</event>
<event>
 7    1  0.4621547E-010  0.4778727E+02  0.7816164E-02  0.1312668E+00
        -11   -1    0    0    0    0  0.00000000000E+00  0.00000000000E+00  0.45593999997E+02  0.45594000000E+02  0.51100000000E-03 0. -1.
         11   -1    0    0    0    0 -0.00000000000E+00 -0.00000000000E+00 -0.45593999997E+02  0.45594000000E+02  0.51100000000E-03 0.  1.
    9900012    2    1    2    0    0 -0.39384429018E+02  0.49210480259E+01  0.17557716462E+02  0.47787269936E+02  0.19999994945E+02 0.  0.
        -12    1    1    2    0    0  0.39384429018E+02 -0.49210480259E+01 -0.17557716462E+02  0.43400730064E+02  0.00000000000E+00 0.  1.
         11    1    3    3    0    0 -0.18426699388E+02  0.71508233159E+01 -0.10347503493E+00  0.19765834963E+02  0.51100000000E-03 0. -1.
        -11    1    3    3    0    0 -0.65400309572E+01 -0.25069230521E+01  0.35782655488E+01  0.78651543348E+01  0.51100000000E-03 0.  1.
        -12    1    3    3    0    0 -0.14417698673E+02  0.27714776207E+00  0.14082925948E+02  0.20156280638E+02  0.00000000000E+00 0.  1.
</event>
<event>
 7    1  0.4621547E-010  0.4778727E+02  0.7816164E-02  0.1312668E+00
        -11   -1    0    0    0    0  0.00000000000E+00  0.00000000000E+00  0.45593999997E+02  0.45594000000E+02  0.51100000000E-03 0. -1.
         11   -1    0    0    0    0 -0.00000000000E+00 -0.00000000000E+00 -0.45593999997E+02  0.45594000000E+02  0.51100000000E-03 0.  1.
    9900012    2    1    2    0    0  0.20800733347E+02 -0.17348280772E+02  0.33911499775E+02  0.47787272235E+02  0.20000005428E+02 0.  0.
        -12    1    1    2    0    0 -0.20800733347E+02  0.17348280772E+02 -0.33911499775E+02  0.43400727765E+02  0.00000000000E+00 0.  1.
         11    1    3    3    0    0  0.25618793888E+01 -0.18563896361E+01  0.97202011151E+01  0.10222119079E+02  0.51100000000E-03 0. -1.
        -11    1    3    3    0    0  0.19653292163E+01 -0.43414681716E+01 -0.16602477952E+01  0.50465124409E+01  0.51100000000E-03 0.  1.
        -12    1    3    3    0    0  0.16273524742E+02 -0.11150422964E+02  0.25851546456E+02  0.32518640715E+02  0.00000000000E+00 0.  1.
</event>
<event>
 7    1  0.4621547E-010  0.4778727E+02  0.7816164E-02  0.1312668E+00
        -11   -1    0    0    0    0  0.00000000000E+00  0.00000000000E+00  0.45593999997E+02  0.45594000000E+02  0.51100000000E-03 0.  1.
         11   -1    0    0    0    0 -0.00000000000E+00 -0.00000000000E+00 -0.45593999997E+02  0.45594000000E+02  0.51100000000E-03 0. -1.
    9900012    2    1    2    0    0  0.33359092551E+01  0.41127639640E+02 -0.13454076321E+02  0.47787271866E+02  0.20000003748E+02 0.  0.
        -12    1    1    2    0    0 -0.33359092551E+01 -0.41127639640E+02  0.13454076321E+02  0.43400728134E+02  0.00000000000E+00 0.  1.
         11    1    3    3    0    0  0.60939743412E+00  0.12649784908E+02 -0.36642937858E+01  0.13183909612E+02  0.51100000000E-03 0. -1.
        -11    1    3    3    0    0 -0.29352360938E+01  0.50914142738E+01  0.37714105801E+01  0.69829541212E+01  0.51100000000E-03 0.  1.
        -12    1    3    3    0    0  0.56617479148E+01  0.23386440458E+02 -0.13561193115E+02  0.27620408133E+02  0.00000000000E+00 0.  1.
</event>
<event>
 7    1  0.4621547E-010  0.4778727E+02  0.7816164E-02  0.1312668E+00
        -11   -1    0    0    0    0  0.00000000000E+00  0.00000000000E+00  0.45593999997E+02  0.45594000000E+02  0.51100000000E-03 0.  1.
         11   -1    0    0    0    0 -0.00000000000E+00 -0.00000000000E+00 -0.45593999997E+02  0.45594000000E+02  0.51100000000E-03 0. -1.
    9900012    2    1    2    0    0  0.30459588841E+02  0.19298010636E+02 -0.24154163939E+02  0.47787269563E+02  0.19999993246E+02 0.  0.
        -12    1    1    2    0    0 -0.30459588841E+02 -0.19298010636E+02  0.24154163939E+02  0.43400730437E+02  0.00000000000E+00 0.  1.
         11    1    3    3    0    0  0.64191146574E+01 -0.10708422990E+01 -0.98230398651E+01  0.11783201970E+02  0.51100000000E-03 0. -1.
        -11    1    3    3    0    0  0.13626649548E+02  0.72733378459E+01 -0.10951625835E+02  0.18934759835E+02  0.51100000000E-03 0.  1.
        -12    1    3    3    0    0  0.10413824636E+02  0.13095515089E+02 -0.33794982387E+01  0.17069307758E+02  0.00000000000E+00 0.  1.
</event>
<event>
 7    1  0.4621547E-010  0.4778727E+02  0.7816164E-02  0.1312668E+00
        -11   -1    0    0    0    0  0.00000000000E+00  0.00000000000E+00  0.45593999997E+02  0.45594000000E+02  0.51100000000E-03 0.  1.
         11   -1    0    0    0    0 -0.00000000000E+00 -0.00000000000E+00 -0.45593999997E+02  0.45594000000E+02  0.51100000000E-03 0. -1.
    9900012    2    1    2    0    0 -0.12159720666E+02  0.41585422288E+02  0.25332280398E+01  0.47787269616E+02  0.19999993488E+02 0.  0.
        -12    1    1    2    0    0  0.12159720666E+02 -0.41585422288E+02 -0.25332280398E+01  0.43400730384E+02  0.00000000000E+00 0.  1.
         11    1    3    3    0    0 -0.46681316451E+01  0.17421698548E+02 -0.34878084115E+01  0.18370406668E+02  0.51100000000E-03 0. -1.
        -11    1    3    3    0    0 -0.77322012059E+01  0.25843292758E+02  0.62902641198E+01  0.27698919455E+02  0.51100000000E-03 0.  1.
        -12    1    3    3    0    0  0.24061218500E+00 -0.16795690176E+01 -0.26922766850E+00  0.17179434932E+01  0.00000000000E+00 0.  1.
</event>
<event>
 7    1  0.4621547E-010  0.4778727E+02  0.7816164E-02  0.1312668E+00
        -11   -1    0    0    0    0  0.00000000000E+00  0.00000000000E+00  0.45593999997E+02  0.45594000000E+02  0.51100000000E-03 0. -1.
         11   -1    0    0    0    0 -0.00000000000E+00 -0.00000000000E+00 -0.45593999997E+02  0.45594000000E+02  0.51100000000E-03 0.  1.
    9900012    2    1    2    0    0  0.54779127566E+01  0.39471429121E+02  0.17193664250E+02  0.47787270336E+02  0.19999996768E+02 0.  0.
        -12    1    1    2    0    0 -0.54779127566E+01 -0.39471429121E+02 -0.17193664250E+02  0.43400729664E+02  0.00000000000E+00 0.  1.
         11    1    3    3    0    0 -0.45575548622E+01  0.19912537873E+02  0.81582702516E+01  0.21996314342E+02  0.51100000000E-03 0.  1.
        -11    1    3    3    0    0 -0.93969447006E+00  0.73629372967E+01  0.89831189987E+00  0.74768199031E+01  0.51100000000E-03 0. -1.
        -12    1    3    3    0    0  0.10975162089E+02  0.12195953951E+02  0.81370820990E+01  0.18314136091E+02  0.00000000000E+00 0.  1.
</event>
<event>
 7    1  0.4621547E-010  0.4778727E+02  0.7816164E-02  0.1312668E+00
        -11   -1    0    0    0    0  0.00000000000E+00  0.00000000000E+00  0.45593999997E+02  0.45594000000E+02  0.51100000000E-03 0.  1.
         11   -1    0    0    0    0 -0.00000000000E+00 -0.00000000000E+00 -0.45593999997E+02  0.45594000000E+02  0.51100000000E-03 0. -1.
    9900012    2    1    2    0    0  0.10824008287E+02 -0.38863581330E+02 -0.16002700238E+02  0.47787268161E+02  0.19999986855E+02 0.  0.
        -12    1    1    2    0    0 -0.10824008287E+02  0.38863581330E+02  0.16002700238E+02  0.43400731839E+02  0.00000000000E+00 0.  1.
         11    1    3    3    0    0  0.17032463879E+01 -0.15690572927E+02 -0.71492058207E+01  0.17326461588E+02  0.51100000000E-03 0.  1.
        -11    1    3    3    0    0  0.76679677360E+01 -0.18882387313E+02 -0.13120080500E+02  0.24237961804E+02  0.51100000000E-03 0. -1.
        -12    1    3    3    0    0  0.14527941633E+01 -0.42906210902E+01  0.42665860823E+01  0.62228447689E+01  0.00000000000E+00 0.  1.
</event>
<event>
 7    1  0.4621547E-010  0.4778727E+02  0.7816164E-02  0.1312668E+00
        -11   -1    0    0    0    0  0.00000000000E+00  0.00000000000E+00  0.45593999997E+02  0.45594000000E+02  0.51100000000E-03 0. -1.
         11   -1    0    0    0    0 -0.00000000000E+00 -0.00000000000E+00 -0.45593999997E+02  0.45594000000E+02  0.51100000000E-03 0.  1.
    9900012    2    1    2    0    0 -0.24053462432E+02  0.32670926929E+02 -0.15416375514E+02  0.47787272410E+02  0.20000006226E+02 0.  0.
        -12    1    1    2    0    0  0.24053462432E+02 -0.32670926929E+02  0.15416375514E+02  0.43400727590E+02  0.00000000000E+00 0.  1.
         11    1    3    3    0    0 -0.11170675458E+02  0.21026396713E+02 -0.17033199266E+02  0.29274959034E+02  0.51100000000E-03 0. -1.
        -11    1    3    3    0    0 -0.13362980950E+01  0.29930934755E+01 -0.17224765956E+01  0.37028674072E+01  0.51100000000E-03 0.  1.
        -12    1    3    3    0    0 -0.11546488878E+02  0.86514367408E+01  0.33393003480E+01  0.14809445969E+02  0.00000000000E+00 0.  1.
</event>
<event>
 7    1  0.4621547E-010  0.4778727E+02  0.7816164E-02  0.1312668E+00
        -11   -1    0    0    0    0  0.00000000000E+00  0.00000000000E+00  0.45593999997E+02  0.45594000000E+02  0.51100000000E-03 0. -1.
         11   -1    0    0    0    0 -0.00000000000E+00 -0.00000000000E+00 -0.45593999997E+02  0.45594000000E+02  0.51100000000E-03 0.  1.
    9900012    2    1    2    0    0  0.55254665983E+01 -0.29899714164E+01  0.42943599482E+02  0.47787269054E+02  0.19999990925E+02 0.  0.
        -12    1    1    2    0    0 -0.55254665983E+01  0.29899714164E+01 -0.42943599482E+02  0.43400730946E+02  0.00000000000E+00 0.  1.
         11    1    3    3    0    0 -0.51967652140E+01 -0.34990059898E+01  0.82203053691E+01  0.10335513158E+02  0.51100000000E-03 0. -1.
        -11    1    3    3    0    0  0.15082120371E+01  0.37963606522E+01  0.13013359713E+02  0.13639449733E+02  0.51100000000E-03 0.  1.
        -12    1    3    3    0    0  0.92140197751E+01 -0.32873260788E+01  0.21709934400E+02  0.23812306163E+02  0.00000000000E+00 0.  1.
</event>
<event>
 7    1  0.4621547E-010  0.4778726E+02  0.7816164E-02  0.1312668E+00
        -11   -1    0    0    0    0  0.00000000000E+00  0.00000000000E+00  0.45593999997E+02  0.45594000000E+02  0.51100000000E-03 0. -1.
         11   -1    0    0    0    0 -0.00000000000E+00 -0.00000000000E+00 -0.45593999997E+02  0.45594000000E+02  0.51100000000E-03 0.  1.
    9900012    2    1    2    0    0  0.15478807271E+02  0.67299766166E+01  0.39984220743E+02  0.47787263045E+02  0.19999963528E+02 0.  0.
        -12    1    1    2    0    0 -0.15478807271E+02 -0.67299766166E+01 -0.39984220743E+02  0.43400736955E+02  0.00000000000E+00 0.  1.
         11    1    3    3    0    0 -0.26866757193E+00  0.62048266856E+01  0.49638572538E+01  0.79505934093E+01  0.51100000000E-03 0.  1.
        -11    1    3    3    0    0  0.38513905581E+01  0.49702737768E+01  0.11728768882E+02  0.13307924346E+02  0.51100000000E-03 0. -1.
        -12    1    3    3    0    0  0.11896084285E+02 -0.44451238457E+01  0.23291594607E+02  0.26528745290E+02  0.00000000000E+00 0.  1.
</event>
<event>
 7    1  0.4621547E-010  0.4778726E+02  0.7816164E-02  0.1312668E+00
        -11   -1    0    0    0    0  0.00000000000E+00  0.00000000000E+00  0.45593999997E+02  0.45594000000E+02  0.51100000000E-03 0.  1.
         11   -1    0    0    0    0 -0.00000000000E+00 -0.00000000000E+00 -0.45593999997E+02  0.45594000000E+02  0.51100000000E-03 0. -1.
    9900012    2    1    2    0    0 -0.35526550747E+02 -0.23367867791E+02 -0.86851105340E+01  0.47787260397E+02  0.19999951455E+02 0.  0.
        -12    1    1    2    0    0  0.35526550747E+02  0.23367867791E+02  0.86851105340E+01  0.43400739603E+02  0.00000000000E+00 0.  1.
         11    1    3    3    0    0 -0.21511049679E+02 -0.76529477916E+01 -0.13104477267E+01  0.22869414984E+02  0.51100000000E-03 0. -1.
        -11    1    3    3    0    0 -0.10703483661E+02 -0.37569078769E+01 -0.27191297544E+01  0.11665015481E+02  0.51100000000E-03 0.  1.
        -12    1    3    3    0    0 -0.33120174067E+01 -0.11958012122E+02 -0.46555330529E+01  0.13252829933E+02  0.00000000000E+00 0.  1.
</event>
<event>
 7    1  0.4621547E-010  0.4778728E+02  0.7816164E-02  0.1312668E+00
        -11   -1    0    0    0    0  0.00000000000E+00  0.00000000000E+00  0.45593999997E+02  0.45594000000E+02  0.51100000000E-03 0.  1.
         11   -1    0    0    0    0 -0.00000000000E+00 -0.00000000000E+00 -0.45593999997E+02  0.45594000000E+02  0.51100000000E-03 0. -1.
    9900012    2    1    2    0    0  0.43140524264E+02  0.41366556435E+01  0.23250776076E+01  0.47787277200E+02  0.20000028064E+02 0.  0.
        -12    1    1    2    0    0 -0.43140524264E+02 -0.41366556435E+01 -0.23250776076E+01  0.43400722800E+02  0.00000000000E+00 0.  1.
         11    1    3    3    0    0  0.15687136893E+02  0.34014061616E+01 -0.18386992891E+01  0.16156628457E+02  0.51100000000E-03 0. -1.
        -11    1    3    3    0    0  0.18608069686E+02  0.49457309799E+01  0.83381533184E+01  0.20982023577E+02  0.51100000000E-03 0.  1.
         12    1    3    3    0    0  0.88453176852E+01 -0.42104814980E+01 -0.41743764217E+01  0.10648625165E+02  0.00000000000E+00 0. -1.
</event>
<event>
 7    1  0.4621547E-010  0.4778727E+02  0.7816164E-02  0.1312668E+00
        -11   -1    0    0    0    0  0.00000000000E+00  0.00000000000E+00  0.45593999997E+02  0.45594000000E+02  0.51100000000E-03 0.  1.
         11   -1    0    0    0    0 -0.00000000000E+00 -0.00000000000E+00 -0.45593999997E+02  0.45594000000E+02  0.51100000000E-03 0. -1.
    9900012    2    1    2    0    0  0.76156852216E+01 -0.40591658272E+02  0.13339500510E+02  0.47787266636E+02  0.19999979901E+02 0.  0.
        -12    1    1    2    0    0 -0.76156852216E+01  0.40591658272E+02 -0.13339500510E+02  0.43400733364E+02  0.00000000000E+00 0.  1.
         11    1    3    3    0    0  0.34697577904E+01 -0.12625803151E+01  0.32685957656E+00  0.37067729389E+01  0.51100000000E-03 0. -1.
        -11    1    3    3    0    0 -0.81415887274E+00 -0.10821358641E+02  0.10393331953E+02  0.15026177387E+02  0.51100000000E-03 0.  1.
         12    1    3    3    0    0  0.49600863039E+01 -0.28507719316E+02  0.26193089798E+01  0.29054316311E+02  0.00000000000E+00 0. -1.
</event>
<event>
 7    1  0.4621547E-010  0.4778727E+02  0.7816164E-02  0.1312668E+00
        -11   -1    0    0    0    0  0.00000000000E+00  0.00000000000E+00  0.45593999997E+02  0.45594000000E+02  0.51100000000E-03 0.  1.
         11   -1    0    0    0    0 -0.00000000000E+00 -0.00000000000E+00 -0.45593999997E+02  0.45594000000E+02  0.51100000000E-03 0. -1.
    9900012    2    1    2    0    0  0.91575964172E+01 -0.55597958720E+01 -0.42057699251E+02  0.47787274561E+02  0.20000016035E+02 0.  0.
        -12    1    1    2    0    0 -0.91575964172E+01  0.55597958720E+01  0.42057699251E+02  0.43400725439E+02  0.00000000000E+00 0.  1.
         11    1    3    3    0    0 -0.76039913571E+00 -0.59088495505E+00  0.10678775315E+01  0.14379549921E+01  0.51100000000E-03 0.  1.
        -11    1    3    3    0    0  0.51119298718E+01 -0.90880186547E+01 -0.30358963844E+02  0.32099697756E+02  0.51100000000E-03 0. -1.
         12    1    3    3    0    0  0.48060656811E+01  0.41191077378E+01 -0.12766612939E+02  0.14249621813E+02  0.00000000000E+00 0. -1.
</event>
<event>
 7    1  0.4621547E-010  0.4778728E+02  0.7816164E-02  0.1312668E+00
        -11   -1    0    0    0    0  0.00000000000E+00  0.00000000000E+00  0.45593999997E+02  0.45594000000E+02  0.51100000000E-03 0. -1.
         11   -1    0    0    0    0 -0.00000000000E+00 -0.00000000000E+00 -0.45593999997E+02  0.45594000000E+02  0.51100000000E-03 0.  1.
    9900012    2    1    2    0    0 -0.42581429499E+02  0.83875595523E+01  0.30490949963E+00  0.47787282687E+02  0.20000053085E+02 0.  0.
        -12    1    1    2    0    0  0.42581429499E+02 -0.83875595523E+01 -0.30490949963E+00  0.43400717313E+02  0.00000000000E+00 0.  1.
         11    1    3    3    0    0 -0.26861188994E+02  0.40686570345E+01 -0.25367178255E+01  0.27285754192E+02  0.51100000000E-03 0. -1.
        -11    1    3    3    0    0 -0.34103530942E+01 -0.69963470000E+00 -0.42023154658E+01  0.54570552934E+01  0.51100000000E-03 0.  1.
        -12    1    3    3    0    0 -0.12309887411E+02  0.50185372178E+01  0.70439427910E+01  0.15044473202E+02  0.00000000000E+00 0.  1.
</event>
<event>
 7    1  0.4621547E-010  0.4778727E+02  0.7816164E-02  0.1312668E+00
        -11   -1    0    0    0    0  0.00000000000E+00  0.00000000000E+00  0.45593999997E+02  0.45594000000E+02  0.51100000000E-03 0. -1.
         11   -1    0    0    0    0 -0.00000000000E+00 -0.00000000000E+00 -0.45593999997E+02  0.45594000000E+02  0.51100000000E-03 0.  1.
    9900012    2    1    2    0    0 -0.21921802856E+01  0.42887855922E+02 -0.62808826983E+01  0.47787270427E+02  0.19999997183E+02 0.  0.
        -12    1    1    2    0    0  0.21921802856E+01 -0.42887855922E+02  0.62808826983E+01  0.43400729573E+02  0.00000000000E+00 0.  1.
         11    1    3    3    0    0  0.66374523618E+00  0.48711224211E+01 -0.57500521753E+01  0.75651498108E+01  0.51100000000E-03 0. -1.
        -11    1    3    3    0    0 -0.37122794681E+01  0.34289554777E+01  0.22092888524E+01  0.55154067857E+01  0.51100000000E-03 0.  1.
         12    1    3    3    0    0  0.85635394634E+00  0.34587778024E+02 -0.27401193753E+01  0.34706713830E+02  0.00000000000E+00 0. -1.
</event>
<event>
 7    1  0.4621547E-010  0.4778727E+02  0.7816164E-02  0.1312668E+00
        -11   -1    0    0    0    0  0.00000000000E+00  0.00000000000E+00  0.45593999997E+02  0.45594000000E+02  0.51100000000E-03 0.  1.
         11   -1    0    0    0    0 -0.00000000000E+00 -0.00000000000E+00 -0.45593999997E+02  0.45594000000E+02  0.51100000000E-03 0. -1.
    9900012    2    1    2    0    0  0.73426558194E+01 -0.41223933105E+02 -0.11414735013E+02  0.47787269240E+02  0.19999991772E+02 0.  0.
        -12    1    1    2    0    0 -0.73426558194E+01  0.41223933105E+02  0.11414735013E+02  0.43400730760E+02  0.00000000000E+00 0.  1.
         11    1    3    3    0    0  0.84832043460E+00 -0.18319899667E+02 -0.77390148937E+01  0.19905545036E+02  0.51100000000E-03 0. -1.
        -11    1    3    3    0    0  0.54463935189E+01 -0.74860363940E+01 -0.75544833547E+01  0.11948814262E+02  0.51100000000E-03 0.  1.
        -12    1    3    3    0    0  0.10479418659E+01 -0.15417997043E+02  0.38787632353E+01  0.15932909942E+02  0.00000000000E+00 0.  1.
</event>
<event>
 7    1  0.4621547E-010  0.4778727E+02  0.7816164E-02  0.1312668E+00
        -11   -1    0    0    0    0  0.00000000000E+00  0.00000000000E+00  0.45593999997E+02  0.45594000000E+02  0.51100000000E-03 0.  1.
         11   -1    0    0    0    0 -0.00000000000E+00 -0.00000000000E+00 -0.45593999997E+02  0.45594000000E+02  0.51100000000E-03 0. -1.
    9900012    2    1    2    0    0 -0.24062532004E+02  0.33000948875E+02 -0.14681793884E+02  0.47787272532E+02  0.20000006783E+02 0.  0.
        -12    1    1    2    0    0  0.24062532004E+02 -0.33000948875E+02  0.14681793884E+02  0.43400727468E+02  0.00000000000E+00 0.  1.
         11    1    3    3    0    0 -0.19958319422E+02  0.20170628870E+02 -0.35493044194E+01  0.28596963917E+02  0.51100000000E-03 0.  1.
        -11    1    3    3    0    0 -0.49822391014E+01  0.32219016011E+01 -0.35059851624E+01  0.68916825675E+01  0.51100000000E-03 0. -1.
        -12    1    3    3    0    0  0.87802651880E+00  0.96084184034E+01 -0.76265043019E+01  0.12298626047E+02  0.00000000000E+00 0.  1.
</event>
<event>
 7    1  0.4621547E-010  0.4778727E+02  0.7816164E-02  0.1312668E+00
        -11   -1    0    0    0    0  0.00000000000E+00  0.00000000000E+00  0.45593999997E+02  0.45594000000E+02  0.51100000000E-03 0. -1.
         11   -1    0    0    0    0 -0.00000000000E+00 -0.00000000000E+00 -0.45593999997E+02  0.45594000000E+02  0.51100000000E-03 0.  1.
    9900012    2    1    2    0    0 -0.19896575409E+01 -0.42238314769E+02 -0.97769792436E+01  0.47787270804E+02  0.19999998902E+02 0.  0.
        -12    1    1    2    0    0  0.19896575409E+01  0.42238314769E+02  0.97769792436E+01  0.43400729196E+02  0.00000000000E+00 0.  1.
         11    1    3    3    0    0 -0.92663249565E+00 -0.18404903799E+01  0.99206843582E+00  0.22869745654E+01  0.51100000000E-03 0. -1.
        -11    1    3    3    0    0 -0.17429829554E+01 -0.28838570620E+02  0.11085689648E+01  0.28912455282E+02  0.51100000000E-03 0.  1.
         12    1    3    3    0    0  0.67995791011E+00 -0.11559253769E+02 -0.11877616644E+02  0.16587840956E+02  0.00000000000E+00 0. -1.
</event>
<event>
 7    1  0.4621547E-010  0.4778728E+02  0.7816164E-02  0.1312668E+00
        -11   -1    0    0    0    0  0.00000000000E+00  0.00000000000E+00  0.45593999997E+02  0.45594000000E+02  0.51100000000E-03 0.  1.
         11   -1    0    0    0    0 -0.00000000000E+00 -0.00000000000E+00 -0.45593999997E+02  0.45594000000E+02  0.51100000000E-03 0. -1.
    9900012    2    1    2    0    0 -0.41145710678E+01 -0.30916115367E+02 -0.30180901075E+02  0.47787277954E+02  0.20000031504E+02 0.  0.
        -12    1    1    2    0    0  0.41145710678E+01  0.30916115367E+02  0.30180901075E+02  0.43400722046E+02  0.00000000000E+00 0.  1.
         11    1    3    3    0    0 -0.71824737149E+00 -0.12718806802E+01 -0.65674188744E+01  0.67278934805E+01  0.51100000000E-03 0. -1.
        -11    1    3    3    0    0 -0.11884231971E+01  0.11431179274E+01  0.67582910950E+00  0.17820812377E+01  0.51100000000E-03 0.  1.
        -12    1    3    3    0    0 -0.22079004992E+01 -0.30787352614E+02 -0.24289311310E+02  0.39277303236E+02  0.00000000000E+00 0.  1.
</event>
<event>
 7    1  0.4621547E-010  0.4778728E+02  0.7816164E-02  0.1312668E+00
        -11   -1    0    0    0    0  0.00000000000E+00  0.00000000000E+00  0.45593999997E+02  0.45594000000E+02  0.51100000000E-03 0.  1.
         11   -1    0    0    0    0 -0.00000000000E+00 -0.00000000000E+00 -0.45593999997E+02  0.45594000000E+02  0.51100000000E-03 0. -1.
    9900012    2    1    2    0    0  0.35598975569E+01  0.33976575312E+02 -0.26768305197E+02  0.47787277613E+02  0.20000029950E+02 0.  0.
        -12    1    1    2    0    0 -0.35598975569E+01 -0.33976575312E+02  0.26768305197E+02  0.43400722387E+02  0.00000000000E+00 0.  1.
         11    1    3    3    0    0 -0.14848387265E+00  0.81225772912E+01 -0.10754305859E+02  0.13477885742E+02  0.51100000000E-03 0. -1.
        -11    1    3    3    0    0 -0.51927128211E+01  0.40981039256E+01 -0.53006631341E+01  0.84767772266E+01  0.51100000000E-03 0.  1.
        -12    1    3    3    0    0  0.89010942506E+01  0.21755894095E+02 -0.10713336204E+02  0.25832614644E+02  0.00000000000E+00 0.  1.
</event>
<event>
 7    1  0.4621547E-010  0.4778727E+02  0.7816164E-02  0.1312668E+00
        -11   -1    0    0    0    0  0.00000000000E+00  0.00000000000E+00  0.45593999997E+02  0.45594000000E+02  0.51100000000E-03 0.  1.
         11   -1    0    0    0    0 -0.00000000000E+00 -0.00000000000E+00 -0.45593999997E+02  0.45594000000E+02  0.51100000000E-03 0. -1.
    9900012    2    1    2    0    0 -0.18290610497E+02  0.13118059801E+02 -0.37107858792E+02  0.47787272938E+02  0.20000008636E+02 0.  0.
        -12    1    1    2    0    0  0.18290610497E+02 -0.13118059801E+02  0.37107858792E+02  0.43400727062E+02  0.00000000000E+00 0.  1.
         11    1    3    3    0    0 -0.73186612623E+01  0.44019046899E+00 -0.33835309909E+01  0.80749521701E+01  0.51100000000E-03 0. -1.
        -11    1    3    3    0    0 -0.13047593248E+01  0.33832080473E+01 -0.23039664550E+00  0.36333973719E+01  0.51100000000E-03 0.  1.
         12    1    3    3    0    0 -0.96671899100E+01  0.92946612852E+01 -0.33493931156E+02  0.36078923396E+02  0.00000000000E+00 0. -1.
</event>
<event>
 7    1  0.4621547E-010  0.4778725E+02  0.7816164E-02  0.1312668E+00
        -11   -1    0    0    0    0  0.00000000000E+00  0.00000000000E+00  0.45593999997E+02  0.45594000000E+02  0.51100000000E-03 0.  1.
         11   -1    0    0    0    0 -0.00000000000E+00 -0.00000000000E+00 -0.45593999997E+02  0.45594000000E+02  0.51100000000E-03 0. -1.
    9900012    2    1    2    0    0 -0.78689989446E+01 -0.29852529166E+02 -0.30504600309E+02  0.47787247910E+02  0.19999894520E+02 0.  0.
        -12    1    1    2    0    0  0.78689989446E+01  0.29852529166E+02  0.30504600309E+02  0.43400752090E+02  0.00000000000E+00 0.  1.
         11    1    3    3    0    0 -0.18357323937E+01 -0.21996015358E+02 -0.22360471717E+02  0.31419505100E+02  0.51100000000E-03 0. -1.
        -11    1    3    3    0    0  0.17843984298E+01 -0.18698750863E+01 -0.56455269716E+01  0.62090647962E+01  0.51100000000E-03 0.  1.
         12    1    3    3    0    0 -0.78176649807E+01 -0.59866387209E+01 -0.24986016202E+01  0.10158678013E+02  0.00000000000E+00 0. -1.
</event>
<event>
 7    1  0.4621547E-010  0.4778726E+02  0.7816164E-02  0.1312668E+00
        -11   -1    0    0    0    0  0.00000000000E+00  0.00000000000E+00  0.45593999997E+02  0.45594000000E+02  0.51100000000E-03 0. -1.
         11   -1    0    0    0    0 -0.00000000000E+00 -0.00000000000E+00 -0.45593999997E+02  0.45594000000E+02  0.51100000000E-03 0.  1.
    9900012    2    1    2    0    0 -0.91235155547E+01 -0.41730480616E+02  0.76780569945E+01  0.47787261438E+02  0.19999956201E+02 0.  0.
        -12    1    1    2    0    0  0.91235155547E+01  0.41730480616E+02 -0.76780569945E+01  0.43400738562E+02  0.00000000000E+00 0.  1.
         11    1    3    3    0    0 -0.72181022231E+01 -0.20763576137E+02  0.95249761387E+01  0.23957300858E+02  0.51100000000E-03 0. -1.
        -11    1    3    3    0    0 -0.58429038853E+00 -0.91401484577E+01  0.46500425396E+01  0.10271640812E+02  0.51100000000E-03 0.  1.
         12    1    3    3    0    0 -0.13211229431E+01 -0.11826756021E+02 -0.64969616838E+01  0.13558319768E+02  0.00000000000E+00 0. -1.
</event>
<event>
 7    1  0.4621547E-010  0.4778727E+02  0.7816164E-02  0.1312668E+00
        -11   -1    0    0    0    0  0.00000000000E+00  0.00000000000E+00  0.45593999997E+02  0.45594000000E+02  0.51100000000E-03 0.  1.
         11   -1    0    0    0    0 -0.00000000000E+00 -0.00000000000E+00 -0.45593999997E+02  0.45594000000E+02  0.51100000000E-03 0. -1.
    9900012    2    1    2    0    0 -0.16256460647E+02  0.57534681785E+01 -0.39827732225E+02  0.47787272321E+02  0.20000005822E+02 0.  0.
        -12    1    1    2    0    0  0.16256460647E+02 -0.57534681785E+01  0.39827732225E+02  0.43400727679E+02  0.00000000000E+00 0.  1.
         11    1    3    3    0    0  0.14955218642E+01 -0.26019339104E+01 -0.40531997720E+01  0.50433197770E+01  0.51100000000E-03 0. -1.
        -11    1    3    3    0    0  0.11096581418E+01  0.15747314284E+01 -0.23324516568E+00  0.19404957695E+01  0.51100000000E-03 0.  1.
        -12    1    3    3    0    0 -0.18861640653E+02  0.67806706605E+01 -0.35541287287E+02  0.40803456775E+02  0.00000000000E+00 0.  1.
</event>
<event>
 7    1  0.4621547E-010  0.4778727E+02  0.7816164E-02  0.1312668E+00
        -11   -1    0    0    0    0  0.00000000000E+00  0.00000000000E+00  0.45593999997E+02  0.45594000000E+02  0.51100000000E-03 0. -1.
         11   -1    0    0    0    0 -0.00000000000E+00 -0.00000000000E+00 -0.45593999997E+02  0.45594000000E+02  0.51100000000E-03 0.  1.
    9900012    2    1    2    0    0 -0.19031027601E+02 -0.21981422160E+02  0.32222050223E+02  0.47787268989E+02  0.19999990628E+02 0.  0.
        -12    1    1    2    0    0  0.19031027601E+02  0.21981422160E+02 -0.32222050223E+02  0.43400731011E+02  0.00000000000E+00 0.  1.
         11    1    3    3    0    0 -0.51321326960E+01 -0.65945578319E+01  0.25769113718E+01  0.87445669697E+01  0.51100000000E-03 0.  1.
        -11    1    3    3    0    0  0.26280511574E+01 -0.55049835067E+00  0.61569498503E+01  0.67169735030E+01  0.51100000000E-03 0. -1.
         12    1    3    3    0    0 -0.16526946062E+02 -0.14836365977E+02  0.23488189001E+02  0.32325728516E+02  0.00000000000E+00 0. -1.
</event>
<event>
 7    1  0.4621547E-010  0.4778727E+02  0.7816164E-02  0.1312668E+00
        -11   -1    0    0    0    0  0.00000000000E+00  0.00000000000E+00  0.45593999997E+02  0.45594000000E+02  0.51100000000E-03 0.  1.
         11   -1    0    0    0    0 -0.00000000000E+00 -0.00000000000E+00 -0.45593999997E+02  0.45594000000E+02  0.51100000000E-03 0. -1.
    9900012    2    1    2    0    0  0.33060570671E+02 -0.20414134629E+02 -0.19336114582E+02  0.47787267831E+02  0.19999985347E+02 0.  0.
        -12    1    1    2    0    0 -0.33060570671E+02  0.20414134629E+02  0.19336114582E+02  0.43400732169E+02  0.00000000000E+00 0.  1.
         11    1    3    3    0    0  0.15933181281E+02 -0.17691136061E+02 -0.10860670406E+02  0.26168620957E+02  0.51100000000E-03 0. -1.
        -11    1    3    3    0    0  0.14292908939E+02 -0.48264452964E+01 -0.96387861685E+01  0.17902179175E+02  0.51100000000E-03 0.  1.
        -12    1    3    3    0    0  0.28344804512E+01  0.21034467287E+01  0.11633419923E+01  0.37164676993E+01  0.00000000000E+00 0.  1.
</event>
<event>
 7    1  0.4621547E-010  0.4778726E+02  0.7816164E-02  0.1312668E+00
        -11   -1    0    0    0    0  0.00000000000E+00  0.00000000000E+00  0.45593999997E+02  0.45594000000E+02  0.51100000000E-03 0.  1.
         11   -1    0    0    0    0 -0.00000000000E+00 -0.00000000000E+00 -0.45593999997E+02  0.45594000000E+02  0.51100000000E-03 0. -1.
    9900012    2    1    2    0    0 -0.21132252454E+02 -0.15365322580E+02 -0.34654849668E+02  0.47787264554E+02  0.19999970407E+02 0.  0.
        -12    1    1    2    0    0  0.21132252454E+02  0.15365322580E+02  0.34654849668E+02  0.43400735446E+02  0.00000000000E+00 0.  1.
         11    1    3    3    0    0 -0.17213922884E+02 -0.92152202173E+01 -0.16496444415E+02  0.25561144405E+02  0.51100000000E-03 0. -1.
        -11    1    3    3    0    0 -0.69140042987E+01 -0.52978612568E+01 -0.88797134242E+01  0.12438653468E+02  0.51100000000E-03 0.  1.
        -12    1    3    3    0    0  0.29956747279E+01 -0.85224110557E+00 -0.92786918287E+01  0.97874666809E+01  0.00000000000E+00 0.  1.
</event>
<event>
 7    1  0.4621547E-010  0.4778727E+02  0.7816164E-02  0.1312668E+00
        -11   -1    0    0    0    0  0.00000000000E+00  0.00000000000E+00  0.45593999997E+02  0.45594000000E+02  0.51100000000E-03 0.  1.
         11   -1    0    0    0    0 -0.00000000000E+00 -0.00000000000E+00 -0.45593999997E+02  0.45594000000E+02  0.51100000000E-03 0. -1.
    9900012    2    1    2    0    0 -0.23123135055E+02 -0.20630501994E+02 -0.30386281999E+02  0.47787272805E+02  0.20000008028E+02 0.  0.
        -12    1    1    2    0    0  0.23123135055E+02  0.20630501994E+02  0.30386281999E+02  0.43400727195E+02  0.00000000000E+00 0.  1.
         11    1    3    3    0    0 -0.58362041442E+01 -0.63027816971E+01 -0.14990964231E+01  0.87197262733E+01  0.51100000000E-03 0. -1.
        -11    1    3    3    0    0  0.10781116909E+01 -0.59777886117E+01 -0.77705950306E+01  0.98629827585E+01  0.51100000000E-03 0.  1.
         12    1    3    3    0    0 -0.18365042602E+02 -0.83499316851E+01 -0.21116590546E+02  0.29204563773E+02  0.00000000000E+00 0. -1.
</event>
<event>
 7    1  0.4621547E-010  0.4778726E+02  0.7816164E-02  0.1312668E+00
        -11   -1    0    0    0    0  0.00000000000E+00  0.00000000000E+00  0.45593999997E+02  0.45594000000E+02  0.51100000000E-03 0.  1.
         11   -1    0    0    0    0 -0.00000000000E+00 -0.00000000000E+00 -0.45593999997E+02  0.45594000000E+02  0.51100000000E-03 0. -1.
    9900012    2    1    2    0    0  0.19512368031E+02  0.32211965379E+02 -0.21570364542E+02  0.47787264451E+02  0.19999969936E+02 0.  0.
        -12    1    1    2    0    0 -0.19512368031E+02 -0.32211965379E+02  0.21570364542E+02  0.43400735549E+02  0.00000000000E+00 0.  1.
         11    1    3    3    0    0  0.40926383626E+01  0.14572250000E+02 -0.96527012706E+01  0.17952013840E+02  0.51100000000E-03 0. -1.
        -11    1    3    3    0    0  0.15544284086E+02  0.18012229379E+02 -0.14074202141E+02  0.27643233188E+02  0.51100000000E-03 0.  1.
         12    1    3    3    0    0 -0.12455441751E+00 -0.37251400042E+00  0.21565388693E+01  0.21920174219E+01  0.00000000000E+00 0. -1.
</event>
<event>
 7    1  0.4621547E-010  0.4778727E+02  0.7816164E-02  0.1312668E+00
        -11   -1    0    0    0    0  0.00000000000E+00  0.00000000000E+00  0.45593999997E+02  0.45594000000E+02  0.51100000000E-03 0.  1.
         11   -1    0    0    0    0 -0.00000000000E+00 -0.00000000000E+00 -0.45593999997E+02  0.45594000000E+02  0.51100000000E-03 0. -1.
    9900012    2    1    2    0    0 -0.38492822757E+02 -0.10109350859E+02 -0.17312627357E+02  0.47787269078E+02  0.19999991033E+02 0.  0.
        -12    1    1    2    0    0  0.38492822757E+02  0.10109350859E+02  0.17312627357E+02  0.43400730922E+02  0.00000000000E+00 0.  1.
         11    1    3    3    0    0 -0.13871316605E+02  0.19340284980E+01 -0.39872123437E+01  0.14561996880E+02  0.51100000000E-03 0.  1.
        -11    1    3    3    0    0 -0.26083869364E+02 -0.12464863475E+02 -0.12526303034E+02  0.31506337940E+02  0.51100000000E-03 0. -1.
         12    1    3    3    0    0  0.14623632124E+01  0.42148411786E+00 -0.79911197967E+00  0.17189342578E+01  0.00000000000E+00 0. -1.
</event>
<event>
 7    1  0.4621547E-010  0.4778728E+02  0.7816164E-02  0.1312668E+00
        -11   -1    0    0    0    0  0.00000000000E+00  0.00000000000E+00  0.45593999997E+02  0.45594000000E+02  0.51100000000E-03 0.  1.
         11   -1    0    0    0    0 -0.00000000000E+00 -0.00000000000E+00 -0.45593999997E+02  0.45594000000E+02  0.51100000000E-03 0. -1.
    9900012    2    1    2    0    0 -0.20029221516E+02 -0.36871439693E+02 -0.11088284109E+02  0.47787276227E+02  0.20000023629E+02 0.  0.
        -12    1    1    2    0    0  0.20029221516E+02  0.36871439693E+02  0.11088284109E+02  0.43400723773E+02  0.00000000000E+00 0.  1.
         11    1    3    3    0    0 -0.60607467102E+01 -0.14930229775E+02  0.14194210022E+01  0.16175882296E+02  0.51100000000E-03 0. -1.
        -11    1    3    3    0    0 -0.20612596266E+01 -0.14962434261E+02 -0.50619886410E+01  0.15929436886E+02  0.51100000000E-03 0.  1.
         12    1    3    3    0    0 -0.11907215179E+02 -0.69787756572E+01 -0.74457164697E+01  0.15681957045E+02  0.00000000000E+00 0. -1.
</event>
<event>
 7    1  0.4621547E-010  0.4778726E+02  0.7816164E-02  0.1312668E+00
        -11   -1    0    0    0    0  0.00000000000E+00  0.00000000000E+00  0.45593999997E+02  0.45594000000E+02  0.51100000000E-03 0.  1.
         11   -1    0    0    0    0 -0.00000000000E+00 -0.00000000000E+00 -0.45593999997E+02  0.45594000000E+02  0.51100000000E-03 0. -1.
    9900012    2    1    2    0    0 -0.24950373152E+02 -0.31207841306E+02 -0.16946196830E+02  0.47787261914E+02  0.19999958371E+02 0.  0.
        -12    1    1    2    0    0  0.24950373152E+02  0.31207841306E+02  0.16946196830E+02  0.43400738086E+02  0.00000000000E+00 0.  1.
         11    1    3    3    0    0 -0.98717645073E+01 -0.13373263400E+02 -0.15834332127E+02  0.22956959350E+02  0.51100000000E-03 0. -1.
        -11    1    3    3    0    0  0.47931667918E+00 -0.36999823147E+01  0.42108532006E+00  0.37545874228E+01  0.51100000000E-03 0.  1.
         12    1    3    3    0    0 -0.15557925324E+02 -0.14134595592E+02 -0.15329500225E+01  0.21075715141E+02  0.00000000000E+00 0. -1.
</event>
<event>
 7    1  0.4621547E-010  0.4778727E+02  0.7816164E-02  0.1312668E+00
        -11   -1    0    0    0    0  0.00000000000E+00  0.00000000000E+00  0.45593999997E+02  0.45594000000E+02  0.51100000000E-03 0.  1.
         11   -1    0    0    0    0 -0.00000000000E+00 -0.00000000000E+00 -0.45593999997E+02  0.45594000000E+02  0.51100000000E-03 0. -1.
    9900012    2    1    2    0    0  0.17723685632E+02  0.82108035692E+01 -0.38756637117E+02  0.47787271339E+02  0.20000001345E+02 0.  0.
        -12    1    1    2    0    0 -0.17723685632E+02 -0.82108035692E+01  0.38756637117E+02  0.43400728661E+02  0.00000000000E+00 0.  1.
         11    1    3    3    0    0 -0.15707491047E+01 -0.43288399085E-01  0.85867623819E+00  0.17906568009E+01  0.51100000000E-03 0. -1.
        -11    1    3    3    0    0  0.63324949961E+00  0.27068290565E+01 -0.14100334796E+01  0.31170696406E+01  0.51100000000E-03 0.  1.
         12    1    3    3    0    0  0.18661185238E+02  0.55472629119E+01 -0.38205279876E+02  0.42879544898E+02  0.00000000000E+00 0. -1.
</event>
<event>
 7    1  0.4621547E-010  0.4778727E+02  0.7816164E-02  0.1312668E+00
        -11   -1    0    0    0    0  0.00000000000E+00  0.00000000000E+00  0.45593999997E+02  0.45594000000E+02  0.51100000000E-03 0.  1.
         11   -1    0    0    0    0 -0.00000000000E+00 -0.00000000000E+00 -0.45593999997E+02  0.45594000000E+02  0.51100000000E-03 0. -1.
    9900012    2    1    2    0    0 -0.22603053162E+02  0.27460462399E+00 -0.37049289099E+02  0.47787271404E+02  0.20000001641E+02 0.  0.
        -12    1    1    2    0    0  0.22603053162E+02 -0.27460462399E+00  0.37049289099E+02  0.43400728596E+02  0.00000000000E+00 0.  1.
         11    1    3    3    0    0 -0.26322401074E+01 -0.46393099144E+01 -0.65867674527E+01  0.84756940838E+01  0.51100000000E-03 0. -1.
        -11    1    3    3    0    0  0.31797893274E+00  0.45376221760E+01 -0.59499323365E+01  0.74895140486E+01  0.51100000000E-03 0.  1.
         12    1    3    3    0    0 -0.20288791987E+02  0.37629236242E+00 -0.24512589309E+02  0.31822063272E+02  0.00000000000E+00 0. -1.
</event>
<event>
 7    1  0.4621547E-010  0.4778728E+02  0.7816164E-02  0.1312668E+00
        -11   -1    0    0    0    0  0.00000000000E+00  0.00000000000E+00  0.45593999997E+02  0.45594000000E+02  0.51100000000E-03 0.  1.
         11   -1    0    0    0    0 -0.00000000000E+00 -0.00000000000E+00 -0.45593999997E+02  0.45594000000E+02  0.51100000000E-03 0. -1.
    9900012    2    1    2    0    0  0.40126516744E+02 -0.11544085532E+02 -0.11841436772E+02  0.47787275564E+02  0.20000020606E+02 0.  0.
        -12    1    1    2    0    0 -0.40126516744E+02  0.11544085532E+02  0.11841436772E+02  0.43400724436E+02  0.00000000000E+00 0.  1.
         11    1    3    3    0    0  0.73383911091E+01 -0.18071293079E+01 -0.84136299572E+01  0.11309591934E+02  0.51100000000E-03 0. -1.
        -11    1    3    3    0    0  0.84317674685E+01  0.25112316504E+01  0.10124261969E+01  0.88558451945E+01  0.51100000000E-03 0.  1.
         12    1    3    3    0    0  0.24356358166E+02 -0.12248187875E+02 -0.44402330117E+01  0.27621838435E+02  0.00000000000E+00 0. -1.
</event>
<event>
 7    1  0.4621547E-010  0.4778727E+02  0.7816164E-02  0.1312668E+00
        -11   -1    0    0    0    0  0.00000000000E+00  0.00000000000E+00  0.45593999997E+02  0.45594000000E+02  0.51100000000E-03 0.  1.
         11   -1    0    0    0    0 -0.00000000000E+00 -0.00000000000E+00 -0.45593999997E+02  0.45594000000E+02  0.51100000000E-03 0. -1.
    9900012    2    1    2    0    0 -0.67155955927E+00  0.38130978498E+02 -0.20717165286E+02  0.47787269004E+02  0.19999990699E+02 0.  0.
        -12    1    1    2    0    0  0.67155955927E+00 -0.38130978498E+02  0.20717165286E+02  0.43400730996E+02  0.00000000000E+00 0.  1.
         11    1    3    3    0    0  0.40447333040E+01  0.11429332813E+02 -0.13101486015E+02  0.17850446832E+02  0.51100000000E-03 0. -1.
        -11    1    3    3    0    0  0.22153005565E+01  0.16288189393E+02 -0.45804440012E+01  0.17064382138E+02  0.51100000000E-03 0.  1.
        -12    1    3    3    0    0 -0.69315934198E+01  0.10413456292E+02 -0.30352352705E+01  0.12872440034E+02  0.00000000000E+00 0.  1.
</event>
<event>
 7    1  0.4621547E-010  0.4778727E+02  0.7816164E-02  0.1312668E+00
        -11   -1    0    0    0    0  0.00000000000E+00  0.00000000000E+00  0.45593999997E+02  0.45594000000E+02  0.51100000000E-03 0. -1.
         11   -1    0    0    0    0 -0.00000000000E+00 -0.00000000000E+00 -0.45593999997E+02  0.45594000000E+02  0.51100000000E-03 0.  1.
    9900012    2    1    2    0    0  0.11209316995E+02  0.21475393263E+02  0.36010856915E+02  0.47787272828E+02  0.20000008134E+02 0.  0.
        -12    1    1    2    0    0 -0.11209316995E+02 -0.21475393263E+02 -0.36010856915E+02  0.43400727172E+02  0.00000000000E+00 0.  1.
         11    1    3    3    0    0 -0.49937361173E+00  0.82085341181E+01  0.18029576610E+01  0.84190298111E+01  0.51100000000E-03 0.  1.
        -11    1    3    3    0    0  0.27822571317E+01  0.90525777841E+01  0.14369870591E+02  0.17209976768E+02  0.51100000000E-03 0. -1.
        -12    1    3    3    0    0  0.89264334747E+01  0.42142813607E+01  0.19838028662E+02  0.22158266249E+02  0.00000000000E+00 0.  1.
</event>
<event>
 7    1  0.4621547E-010  0.4778728E+02  0.7816164E-02  0.1312668E+00
        -11   -1    0    0    0    0  0.00000000000E+00  0.00000000000E+00  0.45593999997E+02  0.45594000000E+02  0.51100000000E-03 0.  1.
         11   -1    0    0    0    0 -0.00000000000E+00 -0.00000000000E+00 -0.45593999997E+02  0.45594000000E+02  0.51100000000E-03 0. -1.
    9900012    2    1    2    0    0 -0.98142374991E+01 -0.23024162573E+02 -0.35456892024E+02  0.47787279824E+02  0.20000040028E+02 0.  0.
        -12    1    1    2    0    0  0.98142374991E+01  0.23024162573E+02  0.35456892024E+02  0.43400720176E+02  0.00000000000E+00 0.  1.
         11    1    3    3    0    0  0.53713451380E+01 -0.44384474364E+01 -0.87177200820E+01  0.11160188526E+02  0.51100000000E-03 0. -1.
        -11    1    3    3    0    0 -0.85070451694E+00 -0.69339785952E+00 -0.46962326821E+01  0.48227689591E+01  0.51100000000E-03 0.  1.
        -12    1    3    3    0    0 -0.14334878120E+02 -0.17892317277E+02 -0.22042939259E+02  0.31804322339E+02  0.00000000000E+00 0.  1.
</event>
<event>
 7    1  0.4621547E-010  0.4778727E+02  0.7816164E-02  0.1312668E+00
        -11   -1    0    0    0    0  0.00000000000E+00  0.00000000000E+00  0.45593999997E+02  0.45594000000E+02  0.51100000000E-03 0.  1.
         11   -1    0    0    0    0 -0.00000000000E+00 -0.00000000000E+00 -0.45593999997E+02  0.45594000000E+02  0.51100000000E-03 0. -1.
    9900012    2    1    2    0    0 -0.43917927068E+01  0.12201452464E+02 -0.41418110266E+02  0.47787272548E+02  0.20000006854E+02 0.  0.
        -12    1    1    2    0    0  0.43917927068E+01 -0.12201452464E+02  0.41418110266E+02  0.43400727452E+02  0.00000000000E+00 0.  1.
         11    1    3    3    0    0 -0.37149015693E+01  0.66981896935E+01 -0.15313799221E+02  0.17122461438E+02  0.51100000000E-03 0. -1.
        -11    1    3    3    0    0 -0.77286079368E+00  0.96100781621E+01 -0.94086995780E+01  0.13471248795E+02  0.51100000000E-03 0.  1.
         12    1    3    3    0    0  0.95969656178E-01 -0.41068153913E+01 -0.16695611467E+02  0.17193562315E+02  0.00000000000E+00 0. -1.
</event>
<event>
 7    1  0.4621547E-010  0.4778727E+02  0.7816164E-02  0.1312668E+00
        -11   -1    0    0    0    0  0.00000000000E+00  0.00000000000E+00  0.45593999997E+02  0.45594000000E+02  0.51100000000E-03 0.  1.
         11   -1    0    0    0    0 -0.00000000000E+00 -0.00000000000E+00 -0.45593999997E+02  0.45594000000E+02  0.51100000000E-03 0. -1.
    9900012    2    1    2    0    0  0.38015373248E+02  0.40914325996E+01 -0.20535699092E+02  0.47787270040E+02  0.19999995420E+02 0.  0.
        -12    1    1    2    0    0 -0.38015373248E+02 -0.40914325996E+01  0.20535699092E+02  0.43400729960E+02  0.00000000000E+00 0.  1.
         11    1    3    3    0    0  0.13408020597E+02  0.20408433726E+01 -0.12077907513E+02  0.18160834456E+02  0.51100000000E-03 0. -1.
        -11    1    3    3    0    0  0.11694490253E+02 -0.39528605766E+01 -0.91555681393E+01  0.15369145625E+02  0.51100000000E-03 0.  1.
         12    1    3    3    0    0  0.12912862398E+02  0.60034498036E+01  0.69777656026E+00  0.14257289959E+02  0.00000000000E+00 0. -1.
</event>
<event>
 7    1  0.4621547E-010  0.4778726E+02  0.7816164E-02  0.1312668E+00
        -11   -1    0    0    0    0  0.00000000000E+00  0.00000000000E+00  0.45593999997E+02  0.45594000000E+02  0.51100000000E-03 0. -1.
         11   -1    0    0    0    0 -0.00000000000E+00 -0.00000000000E+00 -0.45593999997E+02  0.45594000000E+02  0.51100000000E-03 0.  1.
    9900012    2    1    2    0    0  0.39955049447E+02 -0.43545193891E+01  0.16378526207E+02  0.47787263415E+02  0.19999965214E+02 0.  0.
        -12    1    1    2    0    0 -0.39955049447E+02  0.43545193891E+01 -0.16378526207E+02  0.43400736585E+02  0.00000000000E+00 0.  1.
         11    1    3    3    0    0  0.69265072104E+01 -0.25929469039E+01 -0.22680545278E+01  0.77358869811E+01  0.51100000000E-03 0. -1.
        -11    1    3    3    0    0  0.32286724584E+01 -0.21556542362E+01 -0.14079989803E+01  0.41296043902E+01  0.51100000000E-03 0.  1.
         12    1    3    3    0    0  0.29799869778E+02  0.39408175101E+00  0.20054579715E+02  0.35921772044E+02  0.00000000000E+00 0. -1.
</event>
<event>
 7    1  0.4621547E-010  0.4778727E+02  0.7816164E-02  0.1312668E+00
        -11   -1    0    0    0    0  0.00000000000E+00  0.00000000000E+00  0.45593999997E+02  0.45594000000E+02  0.51100000000E-03 0.  1.
         11   -1    0    0    0    0 -0.00000000000E+00 -0.00000000000E+00 -0.45593999997E+02  0.45594000000E+02  0.51100000000E-03 0. -1.
    9900012    2    1    2    0    0 -0.31116932608E+02 -0.20985318724E+02 -0.21793948820E+02  0.47787270720E+02  0.19999998519E+02 0.  0.
        -12    1    1    2    0    0  0.31116932608E+02  0.20985318724E+02  0.21793948820E+02  0.43400729280E+02  0.00000000000E+00 0.  1.
         11    1    3    3    0    0 -0.47256333627E+01 -0.26596418428E+01 -0.66802868332E+01  0.86041581718E+01  0.51100000000E-03 0. -1.
        -11    1    3    3    0    0 -0.27076752567E+01 -0.84602837712E+01 -0.93313391806E+01  0.12883392331E+02  0.51100000000E-03 0.  1.
         12    1    3    3    0    0 -0.23683623989E+02 -0.98653931098E+01 -0.57823228062E+01  0.26299720217E+02  0.00000000000E+00 0. -1.
</event>
<event>
 7    1  0.4621547E-010  0.4778727E+02  0.7816164E-02  0.1312668E+00
        -11   -1    0    0    0    0  0.00000000000E+00  0.00000000000E+00  0.45593999997E+02  0.45594000000E+02  0.51100000000E-03 0.  1.
         11   -1    0    0    0    0 -0.00000000000E+00 -0.00000000000E+00 -0.45593999997E+02  0.45594000000E+02  0.51100000000E-03 0. -1.
    9900012    2    1    2    0    0  0.21404945701E+02 -0.24526423913E+02 -0.28703766346E+02  0.47787269903E+02  0.19999994797E+02 0.  0.
        -12    1    1    2    0    0 -0.21404945701E+02  0.24526423913E+02  0.28703766346E+02  0.43400730097E+02  0.00000000000E+00 0.  1.
         11    1    3    3    0    0  0.63027595364E+01 -0.64843804493E+01 -0.40373038944E+01  0.99031202447E+01  0.51100000000E-03 0.  1.
        -11    1    3    3    0    0  0.11884565940E+02 -0.88749134217E+01 -0.45012990925E+01  0.15500602879E+02  0.51100000000E-03 0. -1.
         12    1    3    3    0    0  0.32176202248E+01 -0.91671300424E+01 -0.20165163360E+02  0.22383546780E+02  0.00000000000E+00 0. -1.
</event>
<event>
 7    1  0.4621547E-010  0.4778727E+02  0.7816164E-02  0.1312668E+00
        -11   -1    0    0    0    0  0.00000000000E+00  0.00000000000E+00  0.45593999997E+02  0.45594000000E+02  0.51100000000E-03 0.  1.
         11   -1    0    0    0    0 -0.00000000000E+00 -0.00000000000E+00 -0.45593999997E+02  0.45594000000E+02  0.51100000000E-03 0. -1.
    9900012    2    1    2    0    0  0.11020464868E+02 -0.37873742580E+02 -0.18103923263E+02  0.47787273503E+02  0.20000011211E+02 0.  0.
        -12    1    1    2    0    0 -0.11020464868E+02  0.37873742580E+02  0.18103923263E+02  0.43400726497E+02  0.00000000000E+00 0.  1.
         11    1    3    3    0    0  0.53847729477E+01 -0.21801828395E+02 -0.27333418895E+01  0.22622702297E+02  0.51100000000E-03 0. -1.
        -11    1    3    3    0    0 -0.24968240500E+01 -0.54272338630E+01 -0.21653995986E+01  0.63543649111E+01  0.51100000000E-03 0.  1.
        -12    1    3    3    0    0  0.81325159698E+01 -0.10644680322E+02 -0.13205181775E+02  0.18810206295E+02  0.00000000000E+00 0.  1.
</event>
<event>
 7    1  0.4621547E-010  0.4778728E+02  0.7816164E-02  0.1312668E+00
        -11   -1    0    0    0    0  0.00000000000E+00  0.00000000000E+00  0.45593999997E+02  0.45594000000E+02  0.51100000000E-03 0.  1.
         11   -1    0    0    0    0 -0.00000000000E+00 -0.00000000000E+00 -0.45593999997E+02  0.45594000000E+02  0.51100000000E-03 0. -1.
    9900012    2    1    2    0    0  0.11264051263E+02 -0.35010899049E+02 -0.23043020964E+02  0.47787277446E+02  0.20000029186E+02 0.  0.
        -12    1    1    2    0    0 -0.11264051263E+02  0.35010899049E+02  0.23043020964E+02  0.43400722554E+02  0.00000000000E+00 0.  1.
         11    1    3    3    0    0 -0.79083934175E+00 -0.26215591988E+01 -0.33726993894E+01  0.43443182353E+01  0.51100000000E-03 0. -1.
        -11    1    3    3    0    0  0.63233325527E+01 -0.59047992782E+01  0.18405640671E+01  0.88452736212E+01  0.51100000000E-03 0.  1.
        -12    1    3    3    0    0  0.57315580519E+01 -0.26484540572E+02 -0.21510885642E+02  0.34597685589E+02  0.00000000000E+00 0.  1.
</event>
<event>
 7    1  0.4621547E-010  0.4778727E+02  0.7816164E-02  0.1312668E+00
        -11   -1    0    0    0    0  0.00000000000E+00  0.00000000000E+00  0.45593999997E+02  0.45594000000E+02  0.51100000000E-03 0.  1.
         11   -1    0    0    0    0 -0.00000000000E+00 -0.00000000000E+00 -0.45593999997E+02  0.45594000000E+02  0.51100000000E-03 0. -1.
    9900012    2    1    2    0    0  0.35198286690E+02 -0.72125161320E+01 -0.24345093221E+02  0.47787270296E+02  0.19999996587E+02 0.  0.
        -12    1    1    2    0    0 -0.35198286690E+02  0.72125161320E+01  0.24345093221E+02  0.43400729704E+02  0.00000000000E+00 0.  1.
         11    1    3    3    0    0  0.18307038797E+02 -0.22340799758E+01 -0.49885076734E+01  0.19105601061E+02  0.51100000000E-03 0. -1.
        -11    1    3    3    0    0  0.73196727198E+01 -0.48865039551E+01 -0.22576757581E+01  0.90858477710E+01  0.51100000000E-03 0.  1.
        -12    1    3    3    0    0  0.95715751737E+01 -0.91932201055E-01 -0.17098909790E+02  0.19595821464E+02  0.00000000000E+00 0.  1.
</event>
<event>
 7    1  0.4621547E-010  0.4778727E+02  0.7816164E-02  0.1312668E+00
        -11   -1    0    0    0    0  0.00000000000E+00  0.00000000000E+00  0.45593999997E+02  0.45594000000E+02  0.51100000000E-03 0. -1.
         11   -1    0    0    0    0 -0.00000000000E+00 -0.00000000000E+00 -0.45593999997E+02  0.45594000000E+02  0.51100000000E-03 0.  1.
    9900012    2    1    2    0    0  0.15570078438E+02  0.38239808634E+02  0.13375829607E+02  0.47787272764E+02  0.20000007841E+02 0.  0.
        -12    1    1    2    0    0 -0.15570078438E+02 -0.38239808634E+02 -0.13375829607E+02  0.43400727236E+02  0.00000000000E+00 0.  1.
         11    1    3    3    0    0  0.99461401792E+01  0.18439660544E+02  0.83620870890E+01  0.22558175595E+02  0.51100000000E-03 0. -1.
        -11    1    3    3    0    0  0.90517215358E+01  0.18298697956E+02  0.61446080727E+01  0.21319761215E+02  0.51100000000E-03 0.  1.
        -12    1    3    3    0    0 -0.34277832766E+01  0.15014501340E+01 -0.11308655552E+01  0.39093359538E+01  0.00000000000E+00 0.  1.
</event>
<event>
 7    1  0.4621547E-010  0.4778727E+02  0.7816164E-02  0.1312668E+00
        -11   -1    0    0    0    0  0.00000000000E+00  0.00000000000E+00  0.45593999997E+02  0.45594000000E+02  0.51100000000E-03 0.  1.
         11   -1    0    0    0    0 -0.00000000000E+00 -0.00000000000E+00 -0.45593999997E+02  0.45594000000E+02  0.51100000000E-03 0. -1.
    9900012    2    1    2    0    0  0.73253751011E+01  0.16093046701E+02 -0.39635538998E+02  0.47787271618E+02  0.20000002614E+02 0.  0.
        -12    1    1    2    0    0 -0.73253751011E+01 -0.16093046701E+02  0.39635538998E+02  0.43400728382E+02  0.00000000000E+00 0.  1.
         11    1    3    3    0    0 -0.29459326361E+01  0.40934063197E+01 -0.21365506986E+02  0.21952662332E+02  0.51100000000E-03 0.  1.
        -11    1    3    3    0    0  0.19525515378E+01 -0.14522578136E+01 -0.28146303552E+01  0.37207061913E+01  0.51100000000E-03 0. -1.
        -12    1    3    3    0    0  0.83187561995E+01  0.13451898194E+02 -0.15455401656E+02  0.22113903095E+02  0.00000000000E+00 0.  1.
</event>
<event>
 7    1  0.5192678E-010  0.4778727E+02  0.7816164E-02  0.1312668E+00
        -11   -1    0    0    0    0  0.00000000000E+00  0.00000000000E+00  0.45593999997E+02  0.45594000000E+02  0.51100000000E-03 0. -1.
         11   -1    0    0    0    0 -0.00000000000E+00 -0.00000000000E+00 -0.45593999997E+02  0.45594000000E+02  0.51100000000E-03 0.  1.
    9900012    2    1    2    0    0 -0.31603407465E+02 -0.23046285040E+02  0.18807354010E+02  0.47787272098E+02  0.20000004804E+02 0.  0.
        -12    1    1    2    0    0  0.31603407465E+02  0.23046285040E+02 -0.18807354010E+02  0.43400727902E+02  0.00000000000E+00 0.  1.
         11    1    3    3    0    0 -0.84736226457E+01 -0.38847110617E+01 -0.83206146515E-01  0.93220268343E+01  0.51100000000E-03 0. -1.
        -11    1    3    3    0    0 -0.11891384012E+01 -0.51800368366E+01 -0.13717454874E+01  0.54889450452E+01  0.51100000000E-03 0.  1.
         12    1    3    3    0    0 -0.21940646418E+02 -0.13981537142E+02  0.20262305644E+02  0.32976300219E+02  0.00000000000E+00 0. -1.
</event>
<event>
 7    1  0.4621547E-010  0.4778727E+02  0.7816164E-02  0.1312668E+00
        -11   -1    0    0    0    0  0.00000000000E+00  0.00000000000E+00  0.45593999997E+02  0.45594000000E+02  0.51100000000E-03 0.  1.
         11   -1    0    0    0    0 -0.00000000000E+00 -0.00000000000E+00 -0.45593999997E+02  0.45594000000E+02  0.51100000000E-03 0. -1.
    9900012    2    1    2    0    0  0.41745587739E+01 -0.24057596394E+01 -0.43132456326E+02  0.47787269486E+02  0.19999992894E+02 0.  0.
        -12    1    1    2    0    0 -0.41745587739E+01  0.24057596394E+01  0.43132456326E+02  0.43400730514E+02  0.00000000000E+00 0.  1.
         11    1    3    3    0    0  0.41176583302E+01 -0.39565297562E+01 -0.29229390218E+02  0.29781982651E+02  0.51100000000E-03 0. -1.
        -11    1    3    3    0    0  0.19149880351E+01  0.25710833289E+01 -0.15190537525E+02  0.15525143453E+02  0.51100000000E-03 0.  1.
        -12    1    3    3    0    0 -0.18580875914E+01 -0.10203132121E+01  0.12874714169E+01  0.24801433824E+01  0.00000000000E+00 0.  1.
</event>
<event>
 7    1  0.4621547E-010  0.4778725E+02  0.7816164E-02  0.1312668E+00
        -11   -1    0    0    0    0  0.00000000000E+00  0.00000000000E+00  0.45593999997E+02  0.45594000000E+02  0.51100000000E-03 0.  1.
         11   -1    0    0    0    0 -0.00000000000E+00 -0.00000000000E+00 -0.45593999997E+02  0.45594000000E+02  0.51100000000E-03 0. -1.
    9900012    2    1    2    0    0  0.41806204962E+02 -0.11653045331E+02  0.26964895256E+00  0.47787251742E+02  0.19999911993E+02 0.  0.
        -12    1    1    2    0    0 -0.41806204962E+02  0.11653045331E+02 -0.26964895256E+00  0.43400748258E+02  0.00000000000E+00 0.  1.
         11    1    3    3    0    0  0.42083816218E+01  0.24205671144E+01  0.67442181248E+00  0.49014759076E+01  0.51100000000E-03 0. -1.
        -11    1    3    3    0    0  0.92049388173E+01 -0.44636479026E+00 -0.58627693197E+01  0.10922554853E+02  0.51100000000E-03 0.  1.
         12    1    3    3    0    0  0.28392884523E+02 -0.13627247655E+02  0.54579964598E+01  0.31963220982E+02  0.00000000000E+00 0. -1.
</event>
<event>
 7    1  0.4621547E-010  0.4778727E+02  0.7816164E-02  0.1312668E+00
        -11   -1    0    0    0    0  0.00000000000E+00  0.00000000000E+00  0.45593999997E+02  0.45594000000E+02  0.51100000000E-03 0.  1.
         11   -1    0    0    0    0 -0.00000000000E+00 -0.00000000000E+00 -0.45593999997E+02  0.45594000000E+02  0.51100000000E-03 0. -1.
    9900012    2    1    2    0    0 -0.27294357858E+02 -0.25943590121E+02 -0.21577105085E+02  0.47787270708E+02  0.19999998465E+02 0.  0.
        -12    1    1    2    0    0  0.27294357858E+02  0.25943590121E+02  0.21577105085E+02  0.43400729292E+02  0.00000000000E+00 0.  1.
         11    1    3    3    0    0 -0.16939011696E+01 -0.33143699842E+01 -0.99096988483E+00  0.38518010253E+01  0.51100000000E-03 0. -1.
        -11    1    3    3    0    0 -0.68464069950E+01 -0.15278082334E+02 -0.26232319866E+01  0.16946221846E+02  0.51100000000E-03 0.  1.
         12    1    3    3    0    0 -0.18754049693E+02 -0.73511378030E+01 -0.17962903213E+02  0.26989247836E+02  0.00000000000E+00 0. -1.
</event>
<event>
 7    1  0.4621547E-010  0.4778727E+02  0.7816164E-02  0.1312668E+00
        -11   -1    0    0    0    0  0.00000000000E+00  0.00000000000E+00  0.45593999997E+02  0.45594000000E+02  0.51100000000E-03 0.  1.
         11   -1    0    0    0    0 -0.00000000000E+00 -0.00000000000E+00 -0.45593999997E+02  0.45594000000E+02  0.51100000000E-03 0. -1.
    9900012    2    1    2    0    0  0.41647953024E+02 -0.77979238695E+00  0.12184547303E+02  0.47787271201E+02  0.20000000715E+02 0.  0.
        -12    1    1    2    0    0 -0.41647953024E+02  0.77979238695E+00 -0.12184547303E+02  0.43400728799E+02  0.00000000000E+00 0.  1.
         11    1    3    3    0    0  0.26718792915E+02 -0.34891869030E+01  0.13254109437E+01  0.26978232606E+02  0.51100000000E-03 0. -1.
        -11    1    3    3    0    0 -0.94934661724E+00 -0.97998571354E+00  0.14320939031E+01  0.19780101634E+01  0.51100000000E-03 0.  1.
        -12    1    3    3    0    0  0.15878506726E+02  0.36893802296E+01  0.94270424561E+01  0.18831028432E+02  0.00000000000E+00 0.  1.
</event>
<event>
 7    1  0.4621547E-010  0.4778728E+02  0.7816164E-02  0.1312668E+00
        -11   -1    0    0    0    0  0.00000000000E+00  0.00000000000E+00  0.45593999997E+02  0.45594000000E+02  0.51100000000E-03 0.  1.
         11   -1    0    0    0    0 -0.00000000000E+00 -0.00000000000E+00 -0.45593999997E+02  0.45594000000E+02  0.51100000000E-03 0. -1.
    9900012    2    1    2    0    0 -0.41545246798E+02 -0.33247126220E+01 -0.12106259280E+02  0.47787276973E+02  0.20000027029E+02 0.  0.
        -12    1    1    2    0    0  0.41545246798E+02  0.33247126220E+01  0.12106259280E+02  0.43400723027E+02  0.00000000000E+00 0.  1.
         11    1    3    3    0    0 -0.17794125688E+02  0.17184735608E+01 -0.11645970069E+02  0.21335713710E+02  0.51100000000E-03 0. -1.
        -11    1    3    3    0    0 -0.14119328940E+02  0.72733515574E+00 -0.39749810719E+01  0.14686216018E+02  0.51100000000E-03 0.  1.
        -12    1    3    3    0    0 -0.96317921700E+01 -0.57705213386E+01  0.35146918609E+01  0.11765347245E+02  0.00000000000E+00 0.  1.
</event>
<event>
 7    1  0.4621547E-010  0.4778727E+02  0.7816164E-02  0.1312668E+00
        -11   -1    0    0    0    0  0.00000000000E+00  0.00000000000E+00  0.45593999997E+02  0.45594000000E+02  0.51100000000E-03 0.  1.
         11   -1    0    0    0    0 -0.00000000000E+00 -0.00000000000E+00 -0.45593999997E+02  0.45594000000E+02  0.51100000000E-03 0. -1.
    9900012    2    1    2    0    0  0.19693418666E+02 -0.14179200874E+02 -0.35982540119E+02  0.47787266486E+02  0.19999979215E+02 0.  0.
        -12    1    1    2    0    0 -0.19693418666E+02  0.14179200874E+02  0.35982540119E+02  0.43400733514E+02  0.00000000000E+00 0.  1.
         11    1    3    3    0    0  0.84205839737E+01 -0.11428416642E+02 -0.64037085189E+01  0.15573131492E+02  0.51100000000E-03 0. -1.
        -11    1    3    3    0    0  0.53091660374E+01  0.13029178952E+01 -0.10960446788E+02  0.12248111410E+02  0.51100000000E-03 0.  1.
        -12    1    3    3    0    0  0.59636686553E+01 -0.40537021265E+01 -0.18618384812E+02  0.19966023584E+02  0.00000000000E+00 0.  1.
</event>
<event>
 7    1  0.4621547E-010  0.4778727E+02  0.7816164E-02  0.1312668E+00
        -11   -1    0    0    0    0  0.00000000000E+00  0.00000000000E+00  0.45593999997E+02  0.45594000000E+02  0.51100000000E-03 0. -1.
         11   -1    0    0    0    0 -0.00000000000E+00 -0.00000000000E+00 -0.45593999997E+02  0.45594000000E+02  0.51100000000E-03 0.  1.
    9900012    2    1    2    0    0  0.40799720049E+02  0.13851723396E+02  0.52092186012E+01  0.47787270104E+02  0.19999995710E+02 0.  0.
        -12    1    1    2    0    0 -0.40799720049E+02 -0.13851723396E+02 -0.52092186012E+01  0.43400729896E+02  0.00000000000E+00 0.  1.
         11    1    3    3    0    0  0.23075490975E+02  0.13751730979E+02  0.68933456746E+01  0.27732771292E+02  0.51100000000E-03 0. -1.
        -11    1    3    3    0    0  0.63823264595E+01  0.43912014064E+01  0.36685416992E+00  0.77557284036E+01  0.51100000000E-03 0.  1.
        -12    1    3    3    0    0  0.11341902614E+02 -0.42912089891E+01 -0.20509812433E+01  0.12298770408E+02  0.00000000000E+00 0.  1.
</event>
<event>
 7    1  0.4621547E-010  0.4778727E+02  0.7816164E-02  0.1312668E+00
        -11   -1    0    0    0    0  0.00000000000E+00  0.00000000000E+00  0.45593999997E+02  0.45594000000E+02  0.51100000000E-03 0.  1.
         11   -1    0    0    0    0 -0.00000000000E+00 -0.00000000000E+00 -0.45593999997E+02  0.45594000000E+02  0.51100000000E-03 0. -1.
    9900012    2    1    2    0    0 -0.13368294980E+02 -0.14952104247E+01 -0.41263495940E+02  0.47787273484E+02  0.20000011125E+02 0.  0.
        -12    1    1    2    0    0  0.13368294980E+02  0.14952104247E+01  0.41263495940E+02  0.43400726516E+02  0.00000000000E+00 0.  1.
         11    1    3    3    0    0 -0.15606530555E+00  0.27083716642E+00 -0.17338038441E+02  0.17340855988E+02  0.51100000000E-03 0. -1.
        -11    1    3    3    0    0 -0.14516297756E+02  0.15720035641E+01 -0.21925504073E+02  0.26342395959E+02  0.51100000000E-03 0.  1.
         12    1    3    3    0    0  0.13040680816E+01 -0.33380511552E+01 -0.19999534265E+01  0.41040215380E+01  0.00000000000E+00 0. -1.
</event>
<event>
 7    1  0.4621547E-010  0.4778726E+02  0.7816164E-02  0.1312668E+00
        -11   -1    0    0    0    0  0.00000000000E+00  0.00000000000E+00  0.45593999997E+02  0.45594000000E+02  0.51100000000E-03 0.  1.
         11   -1    0    0    0    0 -0.00000000000E+00 -0.00000000000E+00 -0.45593999997E+02  0.45594000000E+02  0.51100000000E-03 0. -1.
    9900012    2    1    2    0    0 -0.17118463592E+02 -0.12461768506E+02 -0.37885173716E+02  0.47787264320E+02  0.19999969342E+02 0.  0.
        -12    1    1    2    0    0  0.17118463592E+02  0.12461768506E+02  0.37885173716E+02  0.43400735680E+02  0.00000000000E+00 0.  1.
         11    1    3    3    0    0 -0.32213471218E+01 -0.46950210155E+01 -0.16743201441E+02  0.17684883216E+02  0.51100000000E-03 0. -1.
        -11    1    3    3    0    0 -0.11619201450E+02 -0.13024257051E+01 -0.19981556111E+02  0.23150912291E+02  0.51100000000E-03 0.  1.
        -12    1    3    3    0    0 -0.22779150197E+01 -0.64643217850E+01 -0.11604161644E+01  0.69514688126E+01  0.00000000000E+00 0.  1.
</event>
<event>
 7    1  0.4621547E-010  0.4778728E+02  0.7816164E-02  0.1312668E+00
        -11   -1    0    0    0    0  0.00000000000E+00  0.00000000000E+00  0.45593999997E+02  0.45594000000E+02  0.51100000000E-03 0.  1.
         11   -1    0    0    0    0 -0.00000000000E+00 -0.00000000000E+00 -0.45593999997E+02  0.45594000000E+02  0.51100000000E-03 0. -1.
    9900012    2    1    2    0    0 -0.17890400194E+02  0.61451533326E+01 -0.39061407872E+02  0.47787275196E+02  0.20000018927E+02 0.  0.
        -12    1    1    2    0    0  0.17890400194E+02 -0.61451533326E+01  0.39061407872E+02  0.43400724804E+02  0.00000000000E+00 0.  1.
         11    1    3    3    0    0 -0.40018284055E+01  0.52512396635E+01 -0.14872942270E+02  0.16272509352E+02  0.51100000000E-03 0. -1.
        -11    1    3    3    0    0 -0.59697204949E+01 -0.84550953674E-01 -0.22604940171E+02  0.23380077674E+02  0.51100000000E-03 0.  1.
        -12    1    3    3    0    0 -0.79188512933E+01  0.97846462283E+00 -0.15835254318E+01  0.81346881697E+01  0.00000000000E+00 0.  1.
</event>
<event>
 7    1  0.4621547E-010  0.4778727E+02  0.7816164E-02  0.1312668E+00
        -11   -1    0    0    0    0  0.00000000000E+00  0.00000000000E+00  0.45593999997E+02  0.45594000000E+02  0.51100000000E-03 0.  1.
         11   -1    0    0    0    0 -0.00000000000E+00 -0.00000000000E+00 -0.45593999997E+02  0.45594000000E+02  0.51100000000E-03 0. -1.
    9900012    2    1    2    0    0  0.36362184361E+01 -0.35544727595E+02  0.24636834444E+02  0.47787270102E+02  0.19999995703E+02 0.  0.
        -12    1    1    2    0    0 -0.36362184361E+01  0.35544727595E+02 -0.24636834444E+02  0.43400729898E+02  0.00000000000E+00 0.  1.
         11    1    3    3    0    0 -0.24774364240E+01 -0.19032004029E+01  0.14897793729E+01  0.34611133830E+01  0.51100000000E-03 0. -1.
        -11    1    3    3    0    0  0.88309897001E+01 -0.10268847294E+02  0.12751216740E+02  0.18601858306E+02  0.51100000000E-03 0.  1.
         12    1    3    3    0    0 -0.27173348399E+01 -0.23372679898E+02  0.10395838331E+02  0.25724298413E+02  0.00000000000E+00 0. -1.
</event>
<event>
 7    1  0.4621547E-010  0.4778727E+02  0.7816164E-02  0.1312668E+00
        -11   -1    0    0    0    0  0.00000000000E+00  0.00000000000E+00  0.45593999997E+02  0.45594000000E+02  0.51100000000E-03 0.  1.
         11   -1    0    0    0    0 -0.00000000000E+00 -0.00000000000E+00 -0.45593999997E+02  0.45594000000E+02  0.51100000000E-03 0. -1.
    9900012    2    1    2    0    0  0.76772995745E+01 -0.14572876197E+02 -0.40153625906E+02  0.47787270481E+02  0.19999997432E+02 0.  0.
        -12    1    1    2    0    0 -0.76772995745E+01  0.14572876197E+02  0.40153625906E+02  0.43400729519E+02  0.00000000000E+00 0.  1.
         11    1    3    3    0    0  0.20263312778E+01 -0.52593638944E+01 -0.10833367615E+02  0.12211829559E+02  0.51100000000E-03 0. -1.
        -11    1    3    3    0    0  0.24109254038E+01 -0.13491348424E+02 -0.25828806758E+02  0.29239635811E+02  0.51100000000E-03 0.  1.
         12    1    3    3    0    0  0.32400428929E+01  0.41778361211E+01 -0.34914515325E+01  0.63358051112E+01  0.00000000000E+00 0. -1.
</event>
<event>
 7    1  0.4621547E-010  0.4778727E+02  0.7816164E-02  0.1312668E+00
        -11   -1    0    0    0    0  0.00000000000E+00  0.00000000000E+00  0.45593999997E+02  0.45594000000E+02  0.51100000000E-03 0. -1.
         11   -1    0    0    0    0 -0.00000000000E+00 -0.00000000000E+00 -0.45593999997E+02  0.45594000000E+02  0.51100000000E-03 0.  1.
    9900012    2    1    2    0    0 -0.18925699463E+02 -0.39016819508E+02  0.17690268302E+01  0.47787265437E+02  0.19999974435E+02 0.  0.
        -12    1    1    2    0    0  0.18925699463E+02  0.39016819508E+02 -0.17690268302E+01  0.43400734563E+02  0.00000000000E+00 0.  1.
         11    1    3    3    0    0 -0.73386227489E+01 -0.14298137864E+02  0.56727169199E+01  0.17043234662E+02  0.51100000000E-03 0. -1.
        -11    1    3    3    0    0  0.28353585327E+01 -0.16346461401E+01 -0.55882486876E+00  0.33201824510E+01  0.51100000000E-03 0.  1.
        -12    1    3    3    0    0 -0.14422435246E+02 -0.23084035504E+02 -0.33448652209E+01  0.27423848324E+02  0.00000000000E+00 0.  1.
</event>
<event>
 7    1  0.4621547E-010  0.4778729E+02  0.7816164E-02  0.1312668E+00
        -11   -1    0    0    0    0  0.00000000000E+00  0.00000000000E+00  0.45593999997E+02  0.45594000000E+02  0.51100000000E-03 0.  1.
         11   -1    0    0    0    0 -0.00000000000E+00 -0.00000000000E+00 -0.45593999997E+02  0.45594000000E+02  0.51100000000E-03 0. -1.
    9900012    2    1    2    0    0  0.32813673308E+02 -0.27969580334E+02 -0.49585297210E+01  0.47787290363E+02  0.20000088079E+02 0.  0.
        -12    1    1    2    0    0 -0.32813673308E+02  0.27969580334E+02  0.49585297210E+01  0.43400709637E+02  0.00000000000E+00 0.  1.
         11    1    3    3    0    0  0.79604203179E+01 -0.82447356542E+01  0.32659703131E+01  0.11916816689E+02  0.51100000000E-03 0. -1.
        -11    1    3    3    0    0 -0.11633950701E+01  0.25933365219E+00 -0.22196441022E+01  0.25194368883E+01  0.51100000000E-03 0.  1.
        -12    1    3    3    0    0  0.26016648060E+02 -0.19984178332E+02 -0.60048559319E+01  0.33351036786E+02  0.00000000000E+00 0.  1.
</event>
<event>
 7    1  0.4780852E-010  0.4778726E+02  0.7816164E-02  0.1312668E+00
        -11   -1    0    0    0    0  0.00000000000E+00  0.00000000000E+00  0.45593999997E+02  0.45594000000E+02  0.51100000000E-03 0. -1.
         11   -1    0    0    0    0 -0.00000000000E+00 -0.00000000000E+00 -0.45593999997E+02  0.45594000000E+02  0.51100000000E-03 0.  1.
    9900012    2    1    2    0    0  0.35448491871E+02  0.23022320285E+02  0.98489097973E+01  0.47787264621E+02  0.19999970714E+02 0.  0.
        -12    1    1    2    0    0 -0.35448491871E+02 -0.23022320285E+02 -0.98489097973E+01  0.43400735379E+02  0.00000000000E+00 0.  1.
         11    1    3    3    0    0  0.19775050078E+02  0.16788133320E+02  0.91488479639E+01  0.27506280106E+02  0.51100000000E-03 0. -1.
        -11    1    3    3    0    0  0.43191608595E+01 -0.79677026066E-01  0.49892441260E+01  0.65995496944E+01  0.51100000000E-03 0.  1.
         12    1    3    3    0    0  0.11354280934E+02  0.63138639910E+01 -0.42891822926E+01  0.13681434821E+02  0.00000000000E+00 0. -1.
</event>
<event>
 7    1  0.4621547E-010  0.4778727E+02  0.7816164E-02  0.1312668E+00
        -11   -1    0    0    0    0  0.00000000000E+00  0.00000000000E+00  0.45593999997E+02  0.45594000000E+02  0.51100000000E-03 0.  1.
         11   -1    0    0    0    0 -0.00000000000E+00 -0.00000000000E+00 -0.45593999997E+02  0.45594000000E+02  0.51100000000E-03 0. -1.
    9900012    2    1    2    0    0  0.96697152150E+01 -0.10086767648E+02 -0.41089861192E+02  0.47787274583E+02  0.20000016133E+02 0.  0.
        -12    1    1    2    0    0 -0.96697152150E+01  0.10086767648E+02  0.41089861192E+02  0.43400725417E+02  0.00000000000E+00 0.  1.
         11    1    3    3    0    0 -0.39230217103E+01 -0.33682178928E+01 -0.85640147504E+01  0.10003866254E+02  0.51100000000E-03 0. -1.
        -11    1    3    3    0    0  0.91646832224E+01  0.19621310746E+01 -0.13939327947E+02  0.16797209316E+02  0.51100000000E-03 0.  1.
         12    1    3    3    0    0  0.44280537030E+01 -0.86806808300E+01 -0.18586518495E+02  0.20986199013E+02  0.00000000000E+00 0. -1.
</event>
<event>
 7    1  0.4621547E-010  0.4778727E+02  0.7816164E-02  0.1312668E+00
        -11   -1    0    0    0    0  0.00000000000E+00  0.00000000000E+00  0.45593999997E+02  0.45594000000E+02  0.51100000000E-03 0. -1.
         11   -1    0    0    0    0 -0.00000000000E+00 -0.00000000000E+00 -0.45593999997E+02  0.45594000000E+02  0.51100000000E-03 0.  1.
    9900012    2    1    2    0    0  0.34663225770E+02  0.22939015282E+02  0.12485435262E+02  0.47787265714E+02  0.19999975697E+02 0.  0.
        -12    1    1    2    0    0 -0.34663225770E+02 -0.22939015282E+02 -0.12485435262E+02  0.43400734286E+02  0.00000000000E+00 0.  1.
         11    1    3    3    0    0  0.46354049970E+01  0.82520493994E+00 -0.16674930848E+01  0.49948449554E+01  0.51100000000E-03 0.  1.
        -11    1    3    3    0    0  0.93486776016E+01  0.80690643417E-02  0.70257256690E+01  0.11694385809E+02  0.51100000000E-03 0. -1.
         12    1    3    3    0    0  0.20679143171E+02  0.22105741278E+02  0.71272026775E+01  0.31098034950E+02  0.00000000000E+00 0. -1.
</event>
<event>
 7    1  0.4621547E-010  0.4778727E+02  0.7816164E-02  0.1312668E+00
        -11   -1    0    0    0    0  0.00000000000E+00  0.00000000000E+00  0.45593999997E+02  0.45594000000E+02  0.51100000000E-03 0. -1.
         11   -1    0    0    0    0 -0.00000000000E+00 -0.00000000000E+00 -0.45593999997E+02  0.45594000000E+02  0.51100000000E-03 0.  1.
    9900012    2    1    2    0    0  0.42960924921E+02 -0.61491883948E+01 -0.41212178463E+00  0.47787269219E+02  0.19999991676E+02 0.  0.
        -12    1    1    2    0    0 -0.42960924921E+02  0.61491883948E+01  0.41212178463E+00  0.43400730781E+02  0.00000000000E+00 0.  1.
         11    1    3    3    0    0  0.15038797515E+02 -0.55880564057E+00 -0.35830938020E+01  0.15469849899E+02  0.51100000000E-03 0. -1.
        -11    1    3    3    0    0  0.13427914155E+02  0.48517531639E+01  0.19748090746E+01  0.14413474892E+02  0.51100000000E-03 0.  1.
        -12    1    3    3    0    0  0.14494213251E+02 -0.10442135918E+02  0.11961629428E+01  0.17903944428E+02  0.00000000000E+00 0.  1.
</event>
<event>
 7    1  0.4621547E-010  0.4778727E+02  0.7816164E-02  0.1312668E+00
        -11   -1    0    0    0    0  0.00000000000E+00  0.00000000000E+00  0.45593999997E+02  0.45594000000E+02  0.51100000000E-03 0. -1.
         11   -1    0    0    0    0 -0.00000000000E+00 -0.00000000000E+00 -0.45593999997E+02  0.45594000000E+02  0.51100000000E-03 0.  1.
    9900012    2    1    2    0    0  0.27257946194E+02 -0.31126081686E+02  0.13107047358E+02  0.47787270948E+02  0.19999999560E+02 0.  0.
        -12    1    1    2    0    0 -0.27257946194E+02  0.31126081686E+02 -0.13107047358E+02  0.43400729052E+02  0.00000000000E+00 0.  1.
         11    1    3    3    0    0  0.11792358733E+02 -0.11009039542E+02  0.30029694811E+01  0.16409646617E+02  0.51100000000E-03 0. -1.
        -11    1    3    3    0    0  0.70938968988E+01 -0.16108904783E+01 -0.22370620450E+01  0.76107022145E+01  0.51100000000E-03 0.  1.
        -12    1    3    3    0    0  0.83716905621E+01 -0.18506151665E+02  0.12341139922E+02  0.23766922116E+02  0.00000000000E+00 0.  1.
</event>
<event>
 7    1  0.4621547E-010  0.4778727E+02  0.7816164E-02  0.1312668E+00
        -11   -1    0    0    0    0  0.00000000000E+00  0.00000000000E+00  0.45593999997E+02  0.45594000000E+02  0.51100000000E-03 0.  1.
         11   -1    0    0    0    0 -0.00000000000E+00 -0.00000000000E+00 -0.45593999997E+02  0.45594000000E+02  0.51100000000E-03 0. -1.
    9900012    2    1    2    0    0 -0.19309459468E+02 -0.29877487293E+02  0.24861691113E+02  0.47787272392E+02  0.20000006142E+02 0.  0.
        -12    1    1    2    0    0  0.19309459468E+02  0.29877487293E+02 -0.24861691113E+02  0.43400727608E+02  0.00000000000E+00 0.  1.
         11    1    3    3    0    0 -0.18000610254E+01 -0.16359250242E+01 -0.13147541081E+01  0.27649681745E+01  0.51100000000E-03 0. -1.
        -11    1    3    3    0    0 -0.45244977378E+01 -0.21165736500E+02  0.13222663045E+02  0.25363325879E+02  0.51100000000E-03 0.  1.
        -12    1    3    3    0    0 -0.12984900705E+02 -0.70758257689E+01  0.12953782176E+02  0.19658978338E+02  0.00000000000E+00 0.  1.
</event>
<event>
 7    1  0.4621547E-010  0.4778727E+02  0.7816164E-02  0.1312668E+00
        -11   -1    0    0    0    0  0.00000000000E+00  0.00000000000E+00  0.45593999997E+02  0.45594000000E+02  0.51100000000E-03 0.  1.
         11   -1    0    0    0    0 -0.00000000000E+00 -0.00000000000E+00 -0.45593999997E+02  0.45594000000E+02  0.51100000000E-03 0. -1.
    9900012    2    1    2    0    0 -0.22097278093E+02  0.30906602869E+01 -0.37226082624E+02  0.47787272960E+02  0.20000008732E+02 0.  0.
        -12    1    1    2    0    0  0.22097278093E+02 -0.30906602869E+01  0.37226082624E+02  0.43400727040E+02  0.00000000000E+00 0.  1.
         11    1    3    3    0    0 -0.77536810151E+01  0.69204269617E+01 -0.10576169718E+02  0.14827921121E+02  0.51100000000E-03 0. -1.
        -11    1    3    3    0    0 -0.15618290315E+01 -0.13205790445E+01  0.10869579666E+01  0.23161858342E+01  0.51100000000E-03 0.  1.
         12    1    3    3    0    0 -0.12781768046E+02 -0.25091876303E+01 -0.27736870872E+02  0.30643166004E+02  0.00000000000E+00 0. -1.
</event>
<event>
 7    1  0.4621547E-010  0.4778727E+02  0.7816164E-02  0.1312668E+00
        -11   -1    0    0    0    0  0.00000000000E+00  0.00000000000E+00  0.45593999997E+02  0.45594000000E+02  0.51100000000E-03 0.  1.
         11   -1    0    0    0    0 -0.00000000000E+00 -0.00000000000E+00 -0.45593999997E+02  0.45594000000E+02  0.51100000000E-03 0. -1.
    9900012    2    1    2    0    0 -0.35219339550E+02 -0.16292773711E+02 -0.19436234154E+02  0.47787267844E+02  0.19999985408E+02 0.  0.
        -12    1    1    2    0    0  0.35219339550E+02  0.16292773711E+02  0.19436234154E+02  0.43400732156E+02  0.00000000000E+00 0.  1.
         11    1    3    3    0    0 -0.15866073773E+02 -0.49761844537E+01 -0.70963625836E+01  0.18079078264E+02  0.51100000000E-03 0. -1.
        -11    1    3    3    0    0 -0.21467744056E+02 -0.12225297179E+02 -0.10978538283E+02  0.27034241788E+02  0.51100000000E-03 0.  1.
        -12    1    3    3    0    0  0.21144782785E+01  0.90870792116E+00 -0.13613332879E+01  0.26739477925E+01  0.00000000000E+00 0.  1.
</event>
<event>
 7    1  0.4621547E-010  0.4778727E+02  0.7816164E-02  0.1312668E+00
        -11   -1    0    0    0    0  0.00000000000E+00  0.00000000000E+00  0.45593999997E+02  0.45594000000E+02  0.51100000000E-03 0.  1.
         11   -1    0    0    0    0 -0.00000000000E+00 -0.00000000000E+00 -0.45593999997E+02  0.45594000000E+02  0.51100000000E-03 0. -1.
    9900012    2    1    2    0    0  0.29316340139E+02 -0.31621276736E+02  0.49265075571E+01  0.47787269381E+02  0.19999992416E+02 0.  0.
        -12    1    1    2    0    0 -0.29316340139E+02  0.31621276736E+02 -0.49265075571E+01  0.43400730619E+02  0.00000000000E+00 0.  1.
         11    1    3    3    0    0  0.56260674147E+01 -0.47455778399E+01  0.38202142131E+01  0.82925979333E+01  0.51100000000E-03 0. -1.
        -11    1    3    3    0    0  0.13244907192E+02 -0.20974308204E+02  0.74800993929E+01  0.25909478156E+02  0.51100000000E-03 0.  1.
         12    1    3    3    0    0  0.10445365533E+02 -0.59013906917E+01 -0.63738060489E+01  0.13585193291E+02  0.00000000000E+00 0. -1.
</event>
<event>
 7    1  0.4621547E-010  0.4778728E+02  0.7816164E-02  0.1312668E+00
        -11   -1    0    0    0    0  0.00000000000E+00  0.00000000000E+00  0.45593999997E+02  0.45594000000E+02  0.51100000000E-03 0.  1.
         11   -1    0    0    0    0 -0.00000000000E+00 -0.00000000000E+00 -0.45593999997E+02  0.45594000000E+02  0.51100000000E-03 0. -1.
    9900012    2    1    2    0    0 -0.80909035867E+01  0.66378097348E+01 -0.42120057590E+02  0.47787280072E+02  0.20000041159E+02 0.  0.
        -12    1    1    2    0    0  0.80909035867E+01 -0.66378097348E+01  0.42120057590E+02  0.43400719928E+02  0.00000000000E+00 0.  1.
         11    1    3    3    0    0 -0.21069109429E+01  0.16599943457E+01 -0.22785839751E+02  0.22943172151E+02  0.51100000000E-03 0. -1.
        -11    1    3    3    0    0  0.13328253738E+01 -0.36248904913E+01 -0.77878292362E+01  0.86929016459E+01  0.51100000000E-03 0.  1.
        -12    1    3    3    0    0 -0.73168180176E+01  0.86027058804E+01 -0.11546388603E+02  0.16151206275E+02  0.00000000000E+00 0.  1.
</event>
<event>
 7    1  0.4621547E-010  0.4778727E+02  0.7816164E-02  0.1312668E+00
        -11   -1    0    0    0    0  0.00000000000E+00  0.00000000000E+00  0.45593999997E+02  0.45594000000E+02  0.51100000000E-03 0.  1.
         11   -1    0    0    0    0 -0.00000000000E+00 -0.00000000000E+00 -0.45593999997E+02  0.45594000000E+02  0.51100000000E-03 0. -1.
    9900012    2    1    2    0    0  0.10106312237E+02 -0.41787174580E+02  0.59429094594E+01  0.47787266374E+02  0.19999978707E+02 0.  0.
        -12    1    1    2    0    0 -0.10106312237E+02  0.41787174580E+02 -0.59429094594E+01  0.43400733626E+02  0.00000000000E+00 0.  1.
         11    1    3    3    0    0  0.77721582795E+01 -0.21499057663E+02  0.11321189066E+02  0.25510492878E+02  0.51100000000E-03 0. -1.
        -11    1    3    3    0    0  0.21169396072E+01 -0.11619232532E+02  0.46585451660E+00  0.11819687755E+02  0.51100000000E-03 0.  1.
        -12    1    3    3    0    0  0.21721435013E+00 -0.86688843852E+01 -0.58441341237E+01  0.10457085742E+02  0.00000000000E+00 0.  1.
</event>
<event>
 7    1  0.4621547E-010  0.4778726E+02  0.7816164E-02  0.1312668E+00
        -11   -1    0    0    0    0  0.00000000000E+00  0.00000000000E+00  0.45593999997E+02  0.45594000000E+02  0.51100000000E-03 0.  1.
         11   -1    0    0    0    0 -0.00000000000E+00 -0.00000000000E+00 -0.45593999997E+02  0.45594000000E+02  0.51100000000E-03 0. -1.
    9900012    2    1    2    0    0 -0.40709772050E+02  0.12672520142E+02  0.81084097829E+01  0.47787255579E+02  0.19999929487E+02 0.  0.
        -12    1    1    2    0    0  0.40709772050E+02 -0.12672520142E+02 -0.81084097829E+01  0.43400744421E+02  0.00000000000E+00 0.  1.
         11    1    3    3    0    0  0.14130242199E+00 -0.20657662166E+01  0.22031601321E+01  0.30234535328E+01  0.51100000000E-03 0. -1.
        -11    1    3    3    0    0 -0.11466234126E+02  0.19827793157E+01 -0.19055140239E+01  0.11791391894E+02  0.51100000000E-03 0.  1.
         12    1    3    3    0    0 -0.29384840346E+02  0.12755507043E+02  0.78107636747E+01  0.32972410152E+02  0.00000000000E+00 0. -1.
</event>
<event>
 7    1  0.4621547E-010  0.4778727E+02  0.7816164E-02  0.1312668E+00
        -11   -1    0    0    0    0  0.00000000000E+00  0.00000000000E+00  0.45593999997E+02  0.45594000000E+02  0.51100000000E-03 0.  1.
         11   -1    0    0    0    0 -0.00000000000E+00 -0.00000000000E+00 -0.45593999997E+02  0.45594000000E+02  0.51100000000E-03 0. -1.
    9900012    2    1    2    0    0  0.13776342609E+02  0.82064038811E+01 -0.40329771817E+02  0.47787272181E+02  0.20000005184E+02 0.  0.
        -12    1    1    2    0    0 -0.13776342609E+02 -0.82064038811E+01  0.40329771817E+02  0.43400727819E+02  0.00000000000E+00 0.  1.
         11    1    3    3    0    0  0.16646627327E+01 -0.16891194595E-01 -0.33983682156E+01  0.37842164467E+01  0.51100000000E-03 0. -1.
        -11    1    3    3    0    0  0.95507419769E+01 -0.96263812755E+00 -0.52993208938E+01  0.10964768428E+02  0.51100000000E-03 0.  1.
        -12    1    3    3    0    0  0.25609378990E+01  0.91859332032E+01 -0.31632082708E+02  0.33038287307E+02  0.00000000000E+00 0.  1.
</event>
<event>
 7    1  0.4621547E-010  0.4778727E+02  0.7816164E-02  0.1312668E+00
        -11   -1    0    0    0    0  0.00000000000E+00  0.00000000000E+00  0.45593999997E+02  0.45594000000E+02  0.51100000000E-03 0. -1.
         11   -1    0    0    0    0 -0.00000000000E+00 -0.00000000000E+00 -0.45593999997E+02  0.45594000000E+02  0.51100000000E-03 0.  1.
    9900012    2    1    2    0    0 -0.12191301355E+02  0.32817883968E+02  0.25651158604E+02  0.47787271036E+02  0.19999999963E+02 0.  0.
        -12    1    1    2    0    0  0.12191301355E+02 -0.32817883968E+02 -0.25651158604E+02  0.43400728964E+02  0.00000000000E+00 0.  1.
         11    1    3    3    0    0 -0.11482719553E+02  0.33924956722E+02  0.20018943075E+02  0.41030642440E+02  0.51100000000E-03 0. -1.
        -11    1    3    3    0    0  0.31686742462E+00 -0.55925974335E-01 -0.41984116952E+00  0.52896081910E+00  0.51100000000E-03 0.  1.
         12    1    3    3    0    0 -0.10254492262E+01 -0.10511467793E+01  0.60520566985E+01  0.62276677776E+01  0.00000000000E+00 0. -1.
</event>
<event>
 7    1  0.4621547E-010  0.4778727E+02  0.7816164E-02  0.1312668E+00
        -11   -1    0    0    0    0  0.00000000000E+00  0.00000000000E+00  0.45593999997E+02  0.45594000000E+02  0.51100000000E-03 0.  1.
         11   -1    0    0    0    0 -0.00000000000E+00 -0.00000000000E+00 -0.45593999997E+02  0.45594000000E+02  0.51100000000E-03 0. -1.
    9900012    2    1    2    0    0  0.20934711386E+02 -0.26599035049E+02 -0.27163435747E+02  0.47787273647E+02  0.20000011867E+02 0.  0.
        -12    1    1    2    0    0 -0.20934711386E+02  0.26599035049E+02  0.27163435747E+02  0.43400726353E+02  0.00000000000E+00 0.  1.
         11    1    3    3    0    0  0.41244673033E+01 -0.19005285530E+02 -0.14347849657E+02  0.24167600184E+02  0.51100000000E-03 0.  1.
        -11    1    3    3    0    0  0.92989050771E+01 -0.79110226488E+01 -0.91413444529E+01  0.15251822634E+02  0.51100000000E-03 0. -1.
        -12    1    3    3    0    0  0.75113390058E+01  0.31727312947E+00 -0.36742416368E+01  0.83678508295E+01  0.00000000000E+00 0.  1.
</event>
<event>
 7    1  0.4621547E-010  0.4778727E+02  0.7816164E-02  0.1312668E+00
        -11   -1    0    0    0    0  0.00000000000E+00  0.00000000000E+00  0.45593999997E+02  0.45594000000E+02  0.51100000000E-03 0.  1.
         11   -1    0    0    0    0 -0.00000000000E+00 -0.00000000000E+00 -0.45593999997E+02  0.45594000000E+02  0.51100000000E-03 0. -1.
    9900012    2    1    2    0    0 -0.35560027990E+02 -0.99068953152E+01 -0.22824579749E+02  0.47787267217E+02  0.19999982548E+02 0.  0.
        -12    1    1    2    0    0  0.35560027990E+02  0.99068953152E+01  0.22824579749E+02  0.43400732783E+02  0.00000000000E+00 0.  1.
         11    1    3    3    0    0 -0.14215025826E+02 -0.34279273204E+01 -0.75864026061E+01  0.16473346646E+02  0.51100000000E-03 0. -1.
        -11    1    3    3    0    0  0.21674706451E+01  0.86992257494E+00 -0.30154775121E+01  0.38141577275E+01  0.51100000000E-03 0.  1.
        -12    1    3    3    0    0 -0.23512472808E+02 -0.73488905698E+01 -0.12222699631E+02  0.27499762843E+02  0.00000000000E+00 0.  1.
</event>
<event>
 7    1  0.4621547E-010  0.4778728E+02  0.7816164E-02  0.1312668E+00
        -11   -1    0    0    0    0  0.00000000000E+00  0.00000000000E+00  0.45593999997E+02  0.45594000000E+02  0.51100000000E-03 0. -1.
         11   -1    0    0    0    0 -0.00000000000E+00 -0.00000000000E+00 -0.45593999997E+02  0.45594000000E+02  0.51100000000E-03 0.  1.
    9900012    2    1    2    0    0  0.37197490317E+02 -0.12730520525E+02  0.18382148353E+02  0.47787276310E+02  0.20000024006E+02 0.  0.
        -12    1    1    2    0    0 -0.37197490317E+02  0.12730520525E+02 -0.18382148353E+02  0.43400723690E+02  0.00000000000E+00 0.  1.
         11    1    3    3    0    0  0.19612074349E+02 -0.50769325248E+00  0.39156836108E+01  0.20005593996E+02  0.51100000000E-03 0. -1.
        -11    1    3    3    0    0 -0.78857782777E+00  0.76436308665E+00  0.13387748534E+01  0.17315958789E+01  0.51100000000E-03 0.  1.
        -12    1    3    3    0    0  0.18373993796E+02 -0.12987190360E+02  0.13127689889E+02  0.26050086435E+02  0.00000000000E+00 0.  1.
</event>
<event>
 7    1  0.4621547E-010  0.4778727E+02  0.7816164E-02  0.1312668E+00
        -11   -1    0    0    0    0  0.00000000000E+00  0.00000000000E+00  0.45593999997E+02  0.45594000000E+02  0.51100000000E-03 0. -1.
         11   -1    0    0    0    0 -0.00000000000E+00 -0.00000000000E+00 -0.45593999997E+02  0.45594000000E+02  0.51100000000E-03 0.  1.
    9900012    2    1    2    0    0 -0.26922656259E+02  0.33973083226E+02 -0.21502520869E+01  0.47787269730E+02  0.19999994007E+02 0.  0.
        -12    1    1    2    0    0  0.26922656259E+02 -0.33973083226E+02  0.21502520869E+01  0.43400730270E+02  0.00000000000E+00 0.  1.
         11    1    3    3    0    0 -0.52732618556E+01  0.11786986521E+02 -0.18723048370E+01  0.13047829992E+02  0.51100000000E-03 0. -1.
        -11    1    3    3    0    0 -0.54431533321E+01  0.11403699268E+02 -0.66221913814E+01  0.14266243169E+02  0.51100000000E-03 0.  1.
         12    1    3    3    0    0 -0.16206241071E+02  0.10782397437E+02  0.63442441315E+01  0.20473196569E+02  0.00000000000E+00 0. -1.
</event>
<event>
 7    1  0.4621547E-010  0.4778728E+02  0.7816164E-02  0.1312668E+00
        -11   -1    0    0    0    0  0.00000000000E+00  0.00000000000E+00  0.45593999997E+02  0.45594000000E+02  0.51100000000E-03 0.  1.
         11   -1    0    0    0    0 -0.00000000000E+00 -0.00000000000E+00 -0.45593999997E+02  0.45594000000E+02  0.51100000000E-03 0. -1.
    9900012    2    1    2    0    0  0.25478832101E+02 -0.26626290317E+02 -0.22923620344E+02  0.47787278912E+02  0.20000035869E+02 0.  0.
        -12    1    1    2    0    0 -0.25478832101E+02  0.26626290317E+02  0.22923620344E+02  0.43400721088E+02  0.00000000000E+00 0.  1.
         11    1    3    3    0    0  0.50257969392E+01 -0.37077573857E+01 -0.46735494811E+01  0.78005233618E+01  0.51100000000E-03 0. -1.
        -11    1    3    3    0    0  0.10404967107E+02  0.72487739724E-01 -0.41236446482E+01  0.11192543966E+02  0.51100000000E-03 0.  1.
        -12    1    3    3    0    0  0.10048068055E+02 -0.22991020671E+02 -0.14126426215E+02  0.28794211584E+02  0.00000000000E+00 0.  1.
</event>
<event>
 7    1  0.4621547E-010  0.4778727E+02  0.7816164E-02  0.1312668E+00
        -11   -1    0    0    0    0  0.00000000000E+00  0.00000000000E+00  0.45593999997E+02  0.45594000000E+02  0.51100000000E-03 0.  1.
         11   -1    0    0    0    0 -0.00000000000E+00 -0.00000000000E+00 -0.45593999997E+02  0.45594000000E+02  0.51100000000E-03 0. -1.
    9900012    2    1    2    0    0 -0.40899702419E+02 -0.11789601450E+02 -0.84760168086E+01  0.47787271651E+02  0.20000002764E+02 0.  0.
        -12    1    1    2    0    0  0.40899702419E+02  0.11789601450E+02  0.84760168086E+01  0.43400728349E+02  0.00000000000E+00 0.  1.
         11    1    3    3    0    0 -0.10454358205E+02  0.30419563789E+01 -0.29878600732E+01  0.11290456686E+02  0.51100000000E-03 0. -1.
        -11    1    3    3    0    0 -0.49640362208E+01  0.20822494009E+01  0.20765042551E+00  0.53870712943E+01  0.51100000000E-03 0.  1.
         12    1    3    3    0    0 -0.25481307993E+02 -0.16913807230E+02 -0.56958071609E+01  0.31109743671E+02  0.00000000000E+00 0. -1.
</event>
<event>
 7    1  0.4621547E-010  0.4778727E+02  0.7816164E-02  0.1312668E+00
        -11   -1    0    0    0    0  0.00000000000E+00  0.00000000000E+00  0.45593999997E+02  0.45594000000E+02  0.51100000000E-03 0. -1.
         11   -1    0    0    0    0 -0.00000000000E+00 -0.00000000000E+00 -0.45593999997E+02  0.45594000000E+02  0.51100000000E-03 0.  1.
    9900012    2    1    2    0    0 -0.11508058693E+02 -0.39191576441E+02  0.14669974187E+02  0.47787271648E+02  0.20000002752E+02 0.  0.
        -12    1    1    2    0    0  0.11508058693E+02  0.39191576441E+02 -0.14669974187E+02  0.43400728352E+02  0.00000000000E+00 0.  1.
         11    1    3    3    0    0 -0.13983362087E+01 -0.73830746230E+01  0.79022777818E+01  0.10904637979E+02  0.51100000000E-03 0. -1.
        -11    1    3    3    0    0  0.25829815175E+01 -0.39238235936E+01  0.39102007180E+01  0.61121072495E+01  0.51100000000E-03 0.  1.
         12    1    3    3    0    0 -0.12692704002E+02 -0.27884678224E+02  0.28574956876E+01  0.30770526420E+02  0.00000000000E+00 0. -1.
</event>
<event>
 7    1  0.4621547E-010  0.4778727E+02  0.7816164E-02  0.1312668E+00
        -11   -1    0    0    0    0  0.00000000000E+00  0.00000000000E+00  0.45593999997E+02  0.45594000000E+02  0.51100000000E-03 0.  1.
         11   -1    0    0    0    0 -0.00000000000E+00 -0.00000000000E+00 -0.45593999997E+02  0.45594000000E+02  0.51100000000E-03 0. -1.
    9900012    2    1    2    0    0  0.68764708468E+01  0.12774886737E+02 -0.40904035913E+02  0.47787265716E+02  0.19999975703E+02 0.  0.
        -12    1    1    2    0    0 -0.68764708468E+01 -0.12774886737E+02  0.40904035913E+02  0.43400734284E+02  0.00000000000E+00 0.  1.
         11    1    3    3    0    0  0.57446224594E+01  0.43401877066E+01 -0.33378934298E+02  0.34146612887E+02  0.51100000000E-03 0. -1.
        -11    1    3    3    0    0 -0.60998633937E+00 -0.13260391727E+01 -0.86877239253E+00  0.16985961712E+01  0.51100000000E-03 0.  1.
        -12    1    3    3    0    0  0.17418347267E+01  0.97607382033E+01 -0.66563292229E+01  0.11942056658E+02  0.00000000000E+00 0.  1.
</event>
<event>
 7    1  0.4621547E-010  0.4778728E+02  0.7816164E-02  0.1312668E+00
        -11   -1    0    0    0    0  0.00000000000E+00  0.00000000000E+00  0.45593999997E+02  0.45594000000E+02  0.51100000000E-03 0.  1.
         11   -1    0    0    0    0 -0.00000000000E+00 -0.00000000000E+00 -0.45593999997E+02  0.45594000000E+02  0.51100000000E-03 0. -1.
    9900012    2    1    2    0    0 -0.14817227613E+02 -0.40309898012E+02  0.62597673704E+01  0.47787276511E+02  0.20000024924E+02 0.  0.
        -12    1    1    2    0    0  0.14817227613E+02  0.40309898012E+02 -0.62597673704E+01  0.43400723489E+02  0.00000000000E+00 0.  1.
         11    1    3    3    0    0 -0.38790716913E+01 -0.23496779451E+01  0.25281749687E+01  0.51922877968E+01  0.51100000000E-03 0.  1.
        -11    1    3    3    0    0  0.35025379524E+01 -0.89476466729E+01 -0.16320497883E+01  0.97463705995E+01  0.51100000000E-03 0. -1.
         12    1    3    3    0    0 -0.14440693875E+02 -0.29012573394E+02  0.53636421900E+01  0.32848618115E+02  0.00000000000E+00 0. -1.
</event>
<event>
 7    1  0.4621547E-010  0.4778727E+02  0.7816164E-02  0.1312668E+00
        -11   -1    0    0    0    0  0.00000000000E+00  0.00000000000E+00  0.45593999997E+02  0.45594000000E+02  0.51100000000E-03 0. -1.
         11   -1    0    0    0    0 -0.00000000000E+00 -0.00000000000E+00 -0.45593999997E+02  0.45594000000E+02  0.51100000000E-03 0.  1.
    9900012    2    1    2    0    0 -0.39235324130E+02  0.15736024343E+02 -0.98280313238E+01  0.47787270497E+02  0.19999997502E+02 0.  0.
        -12    1    1    2    0    0  0.39235324130E+02 -0.15736024343E+02  0.98280313238E+01  0.43400729503E+02  0.00000000000E+00 0.  1.
         11    1    3    3    0    0 -0.45949176503E+01  0.20926780214E+01 -0.13522440589E+01  0.52269621933E+01  0.51100000000E-03 0. -1.
        -11    1    3    3    0    0  0.18799440966E+01  0.28078810596E+01  0.51944414400E+00  0.34188021778E+01  0.51100000000E-03 0.  1.
         12    1    3    3    0    0 -0.36520350577E+02  0.10835465262E+02 -0.89952314089E+01  0.39141506126E+02  0.00000000000E+00 0. -1.
</event>
<event>
 7    1  0.4621547E-010  0.4778727E+02  0.7816164E-02  0.1312668E+00
        -11   -1    0    0    0    0  0.00000000000E+00  0.00000000000E+00  0.45593999997E+02  0.45594000000E+02  0.51100000000E-03 0. -1.
         11   -1    0    0    0    0 -0.00000000000E+00 -0.00000000000E+00 -0.45593999997E+02  0.45594000000E+02  0.51100000000E-03 0.  1.
    9900012    2    1    2    0    0 -0.23521918482E+01 -0.22463207084E+02  0.37060688655E+02  0.47787272787E+02  0.20000007945E+02 0.  0.
        -12    1    1    2    0    0  0.23521918482E+01  0.22463207084E+02 -0.37060688655E+02  0.43400727213E+02  0.00000000000E+00 0.  1.
         11    1    3    3    0    0 -0.43435761904E+01 -0.17527953910E+01  0.30633129795E+01  0.55966804872E+01  0.51100000000E-03 0. -1.
        -11    1    3    3    0    0  0.44935451007E+01 -0.10107453861E+02  0.70310207021E+01  0.13106785399E+02  0.51100000000E-03 0.  1.
         12    1    3    3    0    0 -0.25021607585E+01 -0.10602957832E+02  0.26966354974E+02  0.29083806900E+02  0.00000000000E+00 0. -1.
</event>
<event>
 7    1  0.4621547E-010  0.4778721E+02  0.7816164E-02  0.1312668E+00
        -11   -1    0    0    0    0  0.00000000000E+00  0.00000000000E+00  0.45593999997E+02  0.45594000000E+02  0.51100000000E-03 0. -1.
         11   -1    0    0    0    0 -0.00000000000E+00 -0.00000000000E+00 -0.45593999997E+02  0.45594000000E+02  0.51100000000E-03 0.  1.
    9900012    2    1    2    0    0 -0.31151883518E+02  0.25737258288E+02  0.15836109771E+02  0.47787208722E+02  0.19999715846E+02 0.  0.
        -12    1    1    2    0    0  0.31151883518E+02 -0.25737258288E+02 -0.15836109771E+02  0.43400791278E+02  0.00000000000E+00 0.  1.
         11    1    3    3    0    0 -0.10638188697E+02  0.10409993631E+02  0.63228440630E+00  0.14897610882E+02  0.51100000000E-03 0. -1.
        -11    1    3    3    0    0 -0.12810972347E+02  0.79568672814E+01  0.97820826465E+00  0.15112565668E+02  0.51100000000E-03 0.  1.
        -12    1    3    3    0    0 -0.77027224736E+01  0.73703973756E+01  0.14225617100E+02  0.17777032172E+02  0.00000000000E+00 0.  1.
</event>
<event>
 7    1  0.4621547E-010  0.4778727E+02  0.7816164E-02  0.1312668E+00
        -11   -1    0    0    0    0  0.00000000000E+00  0.00000000000E+00  0.45593999997E+02  0.45594000000E+02  0.51100000000E-03 0. -1.
         11   -1    0    0    0    0 -0.00000000000E+00 -0.00000000000E+00 -0.45593999997E+02  0.45594000000E+02  0.51100000000E-03 0.  1.
    9900012    2    1    2    0    0 -0.34633803726E+02  0.12467401833E+02  0.22993194043E+02  0.47787269115E+02  0.19999991205E+02 0.  0.
        -12    1    1    2    0    0  0.34633803726E+02 -0.12467401833E+02 -0.22993194043E+02  0.43400730885E+02  0.00000000000E+00 0.  1.
         11    1    3    3    0    0 -0.11756003201E+02  0.26978220877E-01  0.12383085041E+02  0.17074692808E+02  0.51100000000E-03 0. -1.
        -11    1    3    3    0    0 -0.39450271284E-02  0.22742353359E+01  0.43527081336E+01  0.49110314888E+01  0.51100000000E-03 0.  1.
         12    1    3    3    0    0 -0.22873855498E+02  0.10166188276E+02  0.62574008688E+01  0.25801544819E+02  0.00000000000E+00 0. -1.
</event>
<event>
 7    1  0.4621547E-010  0.4778727E+02  0.7816164E-02  0.1312668E+00
        -11   -1    0    0    0    0  0.00000000000E+00  0.00000000000E+00  0.45593999997E+02  0.45594000000E+02  0.51100000000E-03 0. -1.
         11   -1    0    0    0    0 -0.00000000000E+00 -0.00000000000E+00 -0.45593999997E+02  0.45594000000E+02  0.51100000000E-03 0.  1.
    9900012    2    1    2    0    0  0.40202390778E+02  0.39140454139E+01  0.15876764508E+02  0.47787266976E+02  0.19999981449E+02 0.  0.
        -12    1    1    2    0    0 -0.40202390778E+02 -0.39140454139E+01 -0.15876764508E+02  0.43400733024E+02  0.00000000000E+00 0.  1.
         11    1    3    3    0    0  0.19649900311E+02  0.85642188180E+01  0.11049741932E+02  0.24115580507E+02  0.51100000000E-03 0. -1.
        -11    1    3    3    0    0  0.29897208399E+01  0.25747735020E+00  0.45299408569E+01  0.54336994501E+01  0.51100000000E-03 0.  1.
        -12    1    3    3    0    0  0.17562769628E+02 -0.49076507543E+01  0.29708171890E+00  0.18237987018E+02  0.00000000000E+00 0.  1.
</event>
<event>
 7    1  0.4621547E-010  0.4778727E+02  0.7816164E-02  0.1312668E+00
        -11   -1    0    0    0    0  0.00000000000E+00  0.00000000000E+00  0.45593999997E+02  0.45594000000E+02  0.51100000000E-03 0.  1.
         11   -1    0    0    0    0 -0.00000000000E+00 -0.00000000000E+00 -0.45593999997E+02  0.45594000000E+02  0.51100000000E-03 0. -1.
    9900012    2    1    2    0    0  0.80904784706E+01 -0.28304866116E+02 -0.31890470020E+02  0.47787269985E+02  0.19999995170E+02 0.  0.
        -12    1    1    2    0    0 -0.80904784706E+01  0.28304866116E+02  0.31890470020E+02  0.43400730015E+02  0.00000000000E+00 0.  1.
         11    1    3    3    0    0 -0.27681844758E+01 -0.98334510430E+01 -0.16429294942E+02  0.19346352040E+02  0.51100000000E-03 0.  1.
        -11    1    3    3    0    0 -0.46658324857E+00 -0.84222407848E+01 -0.34460718043E+01  0.91119290442E+01  0.51100000000E-03 0. -1.
        -12    1    3    3    0    0  0.11325246195E+02 -0.10049174288E+02 -0.12015103274E+02  0.19328988901E+02  0.00000000000E+00 0.  1.
</event>
<event>
 7    1  0.4621547E-010  0.4778728E+02  0.7816164E-02  0.1312668E+00
        -11   -1    0    0    0    0  0.00000000000E+00  0.00000000000E+00  0.45593999997E+02  0.45594000000E+02  0.51100000000E-03 0. -1.
         11   -1    0    0    0    0 -0.00000000000E+00 -0.00000000000E+00 -0.45593999997E+02  0.45594000000E+02  0.51100000000E-03 0.  1.
    9900012    2    1    2    0    0  0.25293930752E+02  0.28569891175E+02  0.20678522628E+02  0.47787275205E+02  0.20000018971E+02 0.  0.
        -12    1    1    2    0    0 -0.25293930752E+02 -0.28569891175E+02 -0.20678522628E+02  0.43400724795E+02  0.00000000000E+00 0.  1.
         11    1    3    3    0    0  0.44228870098E+01  0.11981583386E+02  0.43933043934E+01  0.13506346422E+02  0.51100000000E-03 0. -1.
        -11    1    3    3    0    0 -0.20453454916E+01  0.17419657829E+01  0.25978627632E+01  0.37372147606E+01  0.51100000000E-03 0.  1.
         12    1    3    3    0    0  0.22916389234E+02  0.14846342007E+02  0.13687355471E+02  0.30543714022E+02  0.00000000000E+00 0. -1.
</event>
<event>
 7    1  0.4621547E-010  0.4778727E+02  0.7816164E-02  0.1312668E+00
        -11   -1    0    0    0    0  0.00000000000E+00  0.00000000000E+00  0.45593999997E+02  0.45594000000E+02  0.51100000000E-03 0.  1.
         11   -1    0    0    0    0 -0.00000000000E+00 -0.00000000000E+00 -0.45593999997E+02  0.45594000000E+02  0.51100000000E-03 0. -1.
    9900012    2    1    2    0    0 -0.37233195527E+02 -0.15165999192E+02 -0.16349465946E+02  0.47787269391E+02  0.19999992463E+02 0.  0.
        -12    1    1    2    0    0  0.37233195527E+02  0.15165999192E+02  0.16349465946E+02  0.43400730609E+02  0.00000000000E+00 0.  1.
         11    1    3    3    0    0  0.12069751389E+01  0.60424076996E+00 -0.23859852052E+01  0.27413174852E+01  0.51100000000E-03 0. -1.
        -11    1    3    3    0    0 -0.64693349232E+00  0.83701957580E+00 -0.16634787364E+01  0.19713666532E+01  0.51100000000E-03 0.  1.
         12    1    3    3    0    0 -0.37793237173E+02 -0.16607259538E+02 -0.12300002005E+02  0.43074585253E+02  0.00000000000E+00 0. -1.
</event>
<event>
 7    1  0.4621547E-010  0.4778727E+02  0.7816164E-02  0.1312668E+00
        -11   -1    0    0    0    0  0.00000000000E+00  0.00000000000E+00  0.45593999997E+02  0.45594000000E+02  0.51100000000E-03 0.  1.
         11   -1    0    0    0    0 -0.00000000000E+00 -0.00000000000E+00 -0.45593999997E+02  0.45594000000E+02  0.51100000000E-03 0. -1.
    9900012    2    1    2    0    0  0.73325407240E+01 -0.37473956543E+01 -0.42612376216E+02  0.47787265738E+02  0.19999975807E+02 0.  0.
        -12    1    1    2    0    0 -0.73325407240E+01  0.37473956543E+01  0.42612376216E+02  0.43400734262E+02  0.00000000000E+00 0.  1.
         11    1    3    3    0    0 -0.36742866419E+01 -0.26422389514E+01 -0.20063792396E+02  0.20567877250E+02  0.51100000000E-03 0. -1.
        -11    1    3    3    0    0 -0.10579479165E+00  0.23828446098E+01 -0.74316261077E+00  0.24982857922E+01  0.51100000000E-03 0.  1.
        -12    1    3    3    0    0  0.11112622158E+02 -0.34880013127E+01 -0.21805421210E+02  0.24721102696E+02  0.00000000000E+00 0.  1.
</event>
<event>
 7    1  0.4621547E-010  0.4778727E+02  0.7816164E-02  0.1312668E+00
        -11   -1    0    0    0    0  0.00000000000E+00  0.00000000000E+00  0.45593999997E+02  0.45594000000E+02  0.51100000000E-03 0.  1.
         11   -1    0    0    0    0 -0.00000000000E+00 -0.00000000000E+00 -0.45593999997E+02  0.45594000000E+02  0.51100000000E-03 0. -1.
    9900012    2    1    2    0    0 -0.24998507862E+01  0.27264072700E+02 -0.33675575005E+02  0.47787271135E+02  0.20000000412E+02 0.  0.
        -12    1    1    2    0    0  0.24998507862E+01 -0.27264072700E+02  0.33675575005E+02  0.43400728865E+02  0.00000000000E+00 0.  1.
         11    1    3    3    0    0 -0.68932291988E+01  0.68016495297E+01 -0.51812949036E+01  0.10982935047E+02  0.51100000000E-03 0.  1.
        -11    1    3    3    0    0 -0.13378741766E+01  0.15617929295E+02 -0.17509644343E+02  0.23501005682E+02  0.51100000000E-03 0. -1.
        -12    1    3    3    0    0  0.57312525892E+01  0.48444938748E+01 -0.10984635759E+02  0.13303330406E+02  0.00000000000E+00 0.  1.
</event>
<event>
 7    1  0.4621547E-010  0.4778727E+02  0.7816164E-02  0.1312668E+00
        -11   -1    0    0    0    0  0.00000000000E+00  0.00000000000E+00  0.45593999997E+02  0.45594000000E+02  0.51100000000E-03 0. -1.
         11   -1    0    0    0    0 -0.00000000000E+00 -0.00000000000E+00 -0.45593999997E+02  0.45594000000E+02  0.51100000000E-03 0.  1.
    9900012    2    1    2    0    0  0.22227731745E+02 -0.90289297727E+01  0.36166691296E+02  0.47787272003E+02  0.20000004369E+02 0.  0.
        -12    1    1    2    0    0 -0.22227731745E+02  0.90289297727E+01 -0.36166691296E+02  0.43400727997E+02  0.00000000000E+00 0.  1.
         11    1    3    3    0    0  0.99838209327E+01 -0.29428352825E+01  0.60422247507E+01  0.12035175118E+02  0.51100000000E-03 0. -1.
        -11    1    3    3    0    0  0.86403916229E+01 -0.32181902688E+01  0.55756540591E+01  0.10775019000E+02  0.51100000000E-03 0.  1.
         12    1    3    3    0    0  0.36035191897E+01 -0.28679042213E+01  0.24548812486E+02  0.24977077885E+02  0.00000000000E+00 0. -1.
</event>
<event>
 7    1  0.4621547E-010  0.4778727E+02  0.7816164E-02  0.1312668E+00
        -11   -1    0    0    0    0  0.00000000000E+00  0.00000000000E+00  0.45593999997E+02  0.45594000000E+02  0.51100000000E-03 0. -1.
         11   -1    0    0    0    0 -0.00000000000E+00 -0.00000000000E+00 -0.45593999997E+02  0.45594000000E+02  0.51100000000E-03 0.  1.
    9900012    2    1    2    0    0  0.36558273550E+02  0.93641797271E+00  0.23371752917E+02  0.47787273301E+02  0.20000010290E+02 0.  0.
        -12    1    1    2    0    0 -0.36558273550E+02 -0.93641797271E+00 -0.23371752917E+02  0.43400726699E+02  0.00000000000E+00 0.  1.
         11    1    3    3    0    0  0.92859276193E+01  0.42206993764E+01  0.22944543112E+00  0.10202715347E+02  0.51100000000E-03 0. -1.
        -11    1    3    3    0    0  0.50522776253E+01 -0.21614196357E+01  0.18021134255E-01  0.54952314844E+01  0.51100000000E-03 0.  1.
         12    1    3    3    0    0  0.22220068305E+02 -0.11228617680E+01  0.23124286352E+02  0.32089326470E+02  0.00000000000E+00 0. -1.
</event>
<event>
 7    1  0.4621547E-010  0.4778727E+02  0.7816164E-02  0.1312668E+00
        -11   -1    0    0    0    0  0.00000000000E+00  0.00000000000E+00  0.45593999997E+02  0.45594000000E+02  0.51100000000E-03 0. -1.
         11   -1    0    0    0    0 -0.00000000000E+00 -0.00000000000E+00 -0.45593999997E+02  0.45594000000E+02  0.51100000000E-03 0.  1.
    9900012    2    1    2    0    0  0.14156284876E+02  0.72845981104E+01  0.40375207889E+02  0.47787272089E+02  0.20000004763E+02 0.  0.
        -12    1    1    2    0    0 -0.14156284876E+02 -0.72845981104E+01 -0.40375207889E+02  0.43400727911E+02  0.00000000000E+00 0.  1.
         11    1    3    3    0    0  0.95772190040E+01  0.69785414391E+01  0.88039218217E+01  0.14762527025E+02  0.51100000000E-03 0. -1.
        -11    1    3    3    0    0 -0.15781784198E+01 -0.83963112635E+00  0.15777529588E+01  0.23843095884E+01  0.51100000000E-03 0.  1.
        -12    1    3    3    0    0  0.61572442914E+01  0.11456877976E+01  0.29993533108E+02  0.30640435475E+02  0.00000000000E+00 0.  1.
</event>
<event>
 7    1  0.4621547E-010  0.4778727E+02  0.7816164E-02  0.1312668E+00
        -11   -1    0    0    0    0  0.00000000000E+00  0.00000000000E+00  0.45593999997E+02  0.45594000000E+02  0.51100000000E-03 0.  1.
         11   -1    0    0    0    0 -0.00000000000E+00 -0.00000000000E+00 -0.45593999997E+02  0.45594000000E+02  0.51100000000E-03 0. -1.
    9900012    2    1    2    0    0 -0.10684206553E+01  0.14084964449E+02 -0.41037733331E+02  0.47787270707E+02  0.19999998463E+02 0.  0.
        -12    1    1    2    0    0  0.10684206553E+01 -0.14084964449E+02  0.41037733331E+02  0.43400729293E+02  0.00000000000E+00 0.  1.
         11    1    3    3    0    0  0.29520408620E+01  0.40667449257E+01 -0.18648167291E+02  0.19313391807E+02  0.51100000000E-03 0. -1.
        -11    1    3    3    0    0  0.40954246937E+01  0.44330912820E+01 -0.14969178428E+02  0.16140046617E+02  0.51100000000E-03 0.  1.
        -12    1    3    3    0    0 -0.81158862109E+01  0.55851282417E+01 -0.74203876115E+01  0.12333832282E+02  0.00000000000E+00 0.  1.
</event>
<event>
 7    1  0.4621547E-010  0.4778727E+02  0.7816164E-02  0.1312668E+00
        -11   -1    0    0    0    0  0.00000000000E+00  0.00000000000E+00  0.45593999997E+02  0.45594000000E+02  0.51100000000E-03 0.  1.
         11   -1    0    0    0    0 -0.00000000000E+00 -0.00000000000E+00 -0.45593999997E+02  0.45594000000E+02  0.51100000000E-03 0. -1.
    9900012    2    1    2    0    0  0.27514189572E+02 -0.15884948689E+02 -0.29567907434E+02  0.47787269907E+02  0.19999994812E+02 0.  0.
        -12    1    1    2    0    0 -0.27514189572E+02  0.15884948689E+02  0.29567907434E+02  0.43400730093E+02  0.00000000000E+00 0.  1.
         11    1    3    3    0    0  0.12711402046E+02 -0.53543787943E+01 -0.14987540525E+02  0.20368492470E+02  0.51100000000E-03 0. -1.
        -11    1    3    3    0    0  0.11712239961E+02 -0.13716898107E+02 -0.14214482778E+02  0.22964785640E+02  0.51100000000E-03 0.  1.
         12    1    3    3    0    0  0.30905475649E+01  0.31863282124E+01 -0.36588413067E+00  0.44539917967E+01  0.00000000000E+00 0. -1.
</event>
<event>
 7    1  0.4621547E-010  0.4778727E+02  0.7816164E-02  0.1312668E+00
        -11   -1    0    0    0    0  0.00000000000E+00  0.00000000000E+00  0.45593999997E+02  0.45594000000E+02  0.51100000000E-03 0. -1.
         11   -1    0    0    0    0 -0.00000000000E+00 -0.00000000000E+00 -0.45593999997E+02  0.45594000000E+02  0.51100000000E-03 0.  1.
    9900012    2    1    2    0    0  0.26656762408E+02 -0.27143038786E+02  0.20887697119E+02  0.47787269274E+02  0.19999991929E+02 0.  0.
        -12    1    1    2    0    0 -0.26656762408E+02  0.27143038786E+02 -0.20887697119E+02  0.43400730726E+02  0.00000000000E+00 0.  1.
         11    1    3    3    0    0  0.92971641027E+01 -0.61569850561E+01  0.83402432737E+01  0.13924991327E+02  0.51100000000E-03 0. -1.
        -11    1    3    3    0    0  0.18992406215E+02 -0.14256620795E+02  0.12710901502E+02  0.26935659405E+02  0.51100000000E-03 0.  1.
        -12    1    3    3    0    0 -0.16328079096E+01 -0.67294329349E+01 -0.16344765689E+00  0.69266185423E+01  0.00000000000E+00 0.  1.
</event>
<event>
 7    1  0.4621547E-010  0.4778726E+02  0.7816164E-02  0.1312668E+00
        -11   -1    0    0    0    0  0.00000000000E+00  0.00000000000E+00  0.45593999997E+02  0.45594000000E+02  0.51100000000E-03 0. -1.
         11   -1    0    0    0    0 -0.00000000000E+00 -0.00000000000E+00 -0.45593999997E+02  0.45594000000E+02  0.51100000000E-03 0.  1.
    9900012    2    1    2    0    0 -0.20980657506E+02  0.37990129578E+02 -0.43145235182E+00  0.47787261689E+02  0.19999957346E+02 0.  0.
        -12    1    1    2    0    0  0.20980657506E+02 -0.37990129578E+02  0.43145235182E+00  0.43400738311E+02  0.00000000000E+00 0.  1.
         11    1    3    3    0    0 -0.29120258111E+01  0.76363156245E+01 -0.10364130228E+01  0.82381650175E+01  0.51100000000E-03 0.  1.
        -11    1    3    3    0    0 -0.17177668133E+02  0.20124165165E+02  0.71055257871E+01  0.27396036265E+02  0.51100000000E-03 0. -1.
        -12    1    3    3    0    0 -0.89096356246E+00  0.10229648789E+02 -0.65005651161E+01  0.12153060406E+02  0.00000000000E+00 0.  1.
</event>
<event>
 7    1  0.4621547E-010  0.4778727E+02  0.7816164E-02  0.1312668E+00
        -11   -1    0    0    0    0  0.00000000000E+00  0.00000000000E+00  0.45593999997E+02  0.45594000000E+02  0.51100000000E-03 0. -1.
         11   -1    0    0    0    0 -0.00000000000E+00 -0.00000000000E+00 -0.45593999997E+02  0.45594000000E+02  0.51100000000E-03 0.  1.
    9900012    2    1    2    0    0  0.41073771806E+02 -0.79373276945E+01 -0.11557126062E+02  0.47787273461E+02  0.20000011016E+02 0.  0.
        -12    1    1    2    0    0 -0.41073771806E+02  0.79373276945E+01  0.11557126062E+02  0.43400726539E+02  0.00000000000E+00 0.  1.
         11    1    3    3    0    0  0.34047011344E+02 -0.68066472094E+01 -0.32180166617E+01  0.34869543432E+02  0.51100000000E-03 0. -1.
        -11    1    3    3    0    0  0.50141407357E+01  0.20770321543E+01 -0.25413446195E+01  0.59928376103E+01  0.51100000000E-03 0.  1.
         12    1    3    3    0    0  0.20126197267E+01 -0.32077126394E+01 -0.57977647811E+01  0.69248924178E+01  0.00000000000E+00 0. -1.
</event>
<event>
 7    1  0.4621547E-010  0.4778727E+02  0.7816164E-02  0.1312668E+00
        -11   -1    0    0    0    0  0.00000000000E+00  0.00000000000E+00  0.45593999997E+02  0.45594000000E+02  0.51100000000E-03 0.  1.
         11   -1    0    0    0    0 -0.00000000000E+00 -0.00000000000E+00 -0.45593999997E+02  0.45594000000E+02  0.51100000000E-03 0. -1.
    9900012    2    1    2    0    0 -0.34174257232E+02 -0.26517609845E+02 -0.35439964378E+01  0.47787269591E+02  0.19999993374E+02 0.  0.
        -12    1    1    2    0    0  0.34174257232E+02  0.26517609845E+02  0.35439964378E+01  0.43400730409E+02  0.00000000000E+00 0.  1.
         11    1    3    3    0    0 -0.10199182347E+02 -0.12100106196E+02  0.39016668076E+01  0.16299045820E+02  0.51100000000E-03 0. -1.
        -11    1    3    3    0    0 -0.20096475210E+00 -0.41937937175E+01  0.90512183066E+00  0.42950597628E+01  0.51100000000E-03 0.  1.
         12    1    3    3    0    0 -0.23774110133E+02 -0.10223709931E+02 -0.83507850761E+01  0.27193164008E+02  0.00000000000E+00 0. -1.
</event>
<event>
 7    1  0.4621547E-010  0.4778727E+02  0.7816164E-02  0.1312668E+00
        -11   -1    0    0    0    0  0.00000000000E+00  0.00000000000E+00  0.45593999997E+02  0.45594000000E+02  0.51100000000E-03 0. -1.
         11   -1    0    0    0    0 -0.00000000000E+00 -0.00000000000E+00 -0.45593999997E+02  0.45594000000E+02  0.51100000000E-03 0.  1.
    9900012    2    1    2    0    0 -0.76986434043E+00 -0.40010456009E+02  0.16798621876E+02  0.47787274452E+02  0.20000015537E+02 0.  0.
        -12    1    1    2    0    0  0.76986434043E+00  0.40010456009E+02 -0.16798621876E+02  0.43400725548E+02  0.00000000000E+00 0.  1.
         11    1    3    3    0    0  0.45524632178E+01 -0.19857405691E+02  0.14681721169E+02  0.25111639111E+02  0.51100000000E-03 0.  1.
        -11    1    3    3    0    0 -0.13495167465E+01 -0.12404916537E+02  0.50877697151E+01  0.13475479608E+02  0.51100000000E-03 0. -1.
        -12    1    3    3    0    0 -0.39728108117E+01 -0.77481337816E+01 -0.29708690080E+01  0.92001557327E+01  0.00000000000E+00 0.  1.
</event>
<event>
 7    1  0.4621547E-010  0.4778726E+02  0.7816164E-02  0.1312668E+00
        -11   -1    0    0    0    0  0.00000000000E+00  0.00000000000E+00  0.45593999997E+02  0.45594000000E+02  0.51100000000E-03 0.  1.
         11   -1    0    0    0    0 -0.00000000000E+00 -0.00000000000E+00 -0.45593999997E+02  0.45594000000E+02  0.51100000000E-03 0. -1.
    9900012    2    1    2    0    0  0.35878460943E+02  0.18397079919E+01 -0.24351089272E+02  0.47787262289E+02  0.19999960081E+02 0.  0.
        -12    1    1    2    0    0 -0.35878460943E+02 -0.18397079919E+01  0.24351089272E+02  0.43400737711E+02  0.00000000000E+00 0.  1.
         11    1    3    3    0    0  0.60499500512E+01 -0.10391531894E+01  0.19280818833E+01  0.64342237281E+01  0.51100000000E-03 0. -1.
        -11    1    3    3    0    0  0.59677921153E+01  0.16257696498E+01 -0.12046556907E+02  0.13541683915E+02  0.51100000000E-03 0.  1.
        -12    1    3    3    0    0  0.23860718776E+02  0.12530915315E+01 -0.14232614248E+02  0.27811354646E+02  0.00000000000E+00 0.  1.
</event>
<event>
 7    1  0.4621547E-010  0.4778727E+02  0.7816164E-02  0.1312668E+00
        -11   -1    0    0    0    0  0.00000000000E+00  0.00000000000E+00  0.45593999997E+02  0.45594000000E+02  0.51100000000E-03 0. -1.
         11   -1    0    0    0    0 -0.00000000000E+00 -0.00000000000E+00 -0.45593999997E+02  0.45594000000E+02  0.51100000000E-03 0.  1.
    9900012    2    1    2    0    0  0.40947523416E+02 -0.11187688209E+02  0.90420908232E+01  0.47787269040E+02  0.19999990862E+02 0.  0.
        -12    1    1    2    0    0 -0.40947523416E+02  0.11187688209E+02 -0.90420908232E+01  0.43400730960E+02  0.00000000000E+00 0.  1.
         11    1    3    3    0    0  0.13582636879E+02 -0.11399616440E+02  0.37846332314E+01  0.18131815367E+02  0.51100000000E-03 0. -1.
        -11    1    3    3    0    0  0.57286671947E+01 -0.26024648582E+01 -0.20945793201E+01  0.66315694941E+01  0.51100000000E-03 0.  1.
        -12    1    3    3    0    0  0.21636219343E+02  0.28143930892E+01  0.73520369119E+01  0.23023884179E+02  0.00000000000E+00 0.  1.
</event>
<event>
 7    1  0.4693408E-010  0.4778728E+02  0.7816164E-02  0.1312668E+00
        -11   -1    0    0    0    0  0.00000000000E+00  0.00000000000E+00  0.45593999997E+02  0.45594000000E+02  0.51100000000E-03 0. -1.
         11   -1    0    0    0    0 -0.00000000000E+00 -0.00000000000E+00 -0.45593999997E+02  0.45594000000E+02  0.51100000000E-03 0.  1.
    9900012    2    1    2    0    0  0.24205379020E+02  0.16881987131E+02  0.31823271333E+02  0.47787280405E+02  0.20000042680E+02 0.  0.
        -12    1    1    2    0    0 -0.24205379020E+02 -0.16881987131E+02 -0.31823271333E+02  0.43400719595E+02  0.00000000000E+00 0.  1.
         11    1    3    3    0    0  0.88715609329E+01  0.12190827962E+02  0.11990819802E+02  0.19263972581E+02  0.51100000000E-03 0. -1.
        -11    1    3    3    0    0 -0.11431060452E+01  0.37533070985E+01  0.48018772527E+01  0.62009701674E+01  0.51100000000E-03 0.  1.
         12    1    3    3    0    0  0.16476924132E+02  0.93785207022E+00  0.15030574278E+02  0.22322337657E+02  0.00000000000E+00 0. -1.
</event>
<event>
 7    1  0.4621547E-010  0.4778727E+02  0.7816164E-02  0.1312668E+00
        -11   -1    0    0    0    0  0.00000000000E+00  0.00000000000E+00  0.45593999997E+02  0.45594000000E+02  0.51100000000E-03 0.  1.
         11   -1    0    0    0    0 -0.00000000000E+00 -0.00000000000E+00 -0.45593999997E+02  0.45594000000E+02  0.51100000000E-03 0. -1.
    9900012    2    1    2    0    0 -0.40396416924E+02  0.90259600462E+01  0.13049320991E+02  0.47787271511E+02  0.20000002126E+02 0.  0.
        -12    1    1    2    0    0  0.40396416924E+02 -0.90259600462E+01 -0.13049320991E+02  0.43400728489E+02  0.00000000000E+00 0.  1.
         11    1    3    3    0    0 -0.34269002098E+01 -0.76691194909E+00 -0.27683356828E+01  0.44716307651E+01  0.51100000000E-03 0. -1.
        -11    1    3    3    0    0 -0.34560375805E+01  0.55459463910E+01  0.22457162442E+01  0.69097727054E+01  0.51100000000E-03 0.  1.
         12    1    3    3    0    0 -0.33513479134E+02  0.42469256043E+01  0.13571940429E+02  0.36405868040E+02  0.00000000000E+00 0. -1.
</event>
<event>
 7    1  0.4621547E-010  0.4778727E+02  0.7816164E-02  0.1312668E+00
        -11   -1    0    0    0    0  0.00000000000E+00  0.00000000000E+00  0.45593999997E+02  0.45594000000E+02  0.51100000000E-03 0.  1.
         11   -1    0    0    0    0 -0.00000000000E+00 -0.00000000000E+00 -0.45593999997E+02  0.45594000000E+02  0.51100000000E-03 0. -1.
    9900012    2    1    2    0    0  0.16355826740E+02 -0.28349693443E+02 -0.28502724021E+02  0.47787268863E+02  0.19999990053E+02 0.  0.
        -12    1    1    2    0    0 -0.16355826740E+02  0.28349693443E+02  0.28502724021E+02  0.43400731137E+02  0.00000000000E+00 0.  1.
         11    1    3    3    0    0  0.12662385860E+02 -0.52074310670E+01 -0.82222587074E+01  0.15970563312E+02  0.51100000000E-03 0. -1.
        -11    1    3    3    0    0  0.97458826276E+00 -0.56700030302E+01 -0.13441326226E+01  0.59080833958E+01  0.51100000000E-03 0.  1.
         12    1    3    3    0    0  0.27188526174E+01 -0.17472259346E+02 -0.18936332691E+02  0.25908622155E+02  0.00000000000E+00 0. -1.
</event>
<event>
 7    1  0.4621547E-010  0.4778727E+02  0.7816164E-02  0.1312668E+00
        -11   -1    0    0    0    0  0.00000000000E+00  0.00000000000E+00  0.45593999997E+02  0.45594000000E+02  0.51100000000E-03 0.  1.
         11   -1    0    0    0    0 -0.00000000000E+00 -0.00000000000E+00 -0.45593999997E+02  0.45594000000E+02  0.51100000000E-03 0. -1.
    9900012    2    1    2    0    0 -0.44551418843E+01 -0.24559666207E+02 -0.35504897597E+02  0.47787271356E+02  0.20000001423E+02 0.  0.
        -12    1    1    2    0    0  0.44551418843E+01  0.24559666207E+02  0.35504897597E+02  0.43400728644E+02  0.00000000000E+00 0.  1.
         11    1    3    3    0    0  0.23862083737E+01 -0.10753257820E+02 -0.14299258680E+02  0.18049801749E+02  0.51100000000E-03 0. -1.
        -11    1    3    3    0    0  0.17972278434E+01 -0.37605517857E+01 -0.14099812371E+02  0.14702941434E+02  0.51100000000E-03 0.  1.
        -12    1    3    3    0    0 -0.86385781014E+01 -0.10045856602E+02 -0.71058265458E+01  0.15034528173E+02  0.00000000000E+00 0.  1.
</event>
<event>
 7    1  0.4621547E-010  0.4778727E+02  0.7816164E-02  0.1312668E+00
        -11   -1    0    0    0    0  0.00000000000E+00  0.00000000000E+00  0.45593999997E+02  0.45594000000E+02  0.51100000000E-03 0.  1.
         11   -1    0    0    0    0 -0.00000000000E+00 -0.00000000000E+00 -0.45593999997E+02  0.45594000000E+02  0.51100000000E-03 0. -1.
    9900012    2    1    2    0    0 -0.28813504849E+02  0.26607742934E+02 -0.18585827019E+02  0.47787274065E+02  0.20000013773E+02 0.  0.
        -12    1    1    2    0    0  0.28813504849E+02 -0.26607742934E+02  0.18585827019E+02  0.43400725935E+02  0.00000000000E+00 0.  1.
         11    1    3    3    0    0 -0.46118705381E+01  0.67311146626E+01 -0.75928614071E+01  0.11145797372E+02  0.51100000000E-03 0. -1.
        -11    1    3    3    0    0 -0.24641572349E+02  0.12913715037E+02 -0.10149371740E+02  0.29613862816E+02  0.51100000000E-03 0.  1.
        -12    1    3    3    0    0  0.43993803827E+00  0.69629132341E+01 -0.84359387149E+00  0.70276138769E+01  0.00000000000E+00 0.  1.
</event>
<event>
 7    1  0.4621547E-010  0.4778727E+02  0.7816164E-02  0.1312668E+00
        -11   -1    0    0    0    0  0.00000000000E+00  0.00000000000E+00  0.45593999997E+02  0.45594000000E+02  0.51100000000E-03 0.  1.
         11   -1    0    0    0    0 -0.00000000000E+00 -0.00000000000E+00 -0.45593999997E+02  0.45594000000E+02  0.51100000000E-03 0. -1.
    9900012    2    1    2    0    0 -0.43351818525E+02 -0.20563795012E+01 -0.11945954709E+00  0.47787272625E+02  0.20000007207E+02 0.  0.
        -12    1    1    2    0    0  0.43351818525E+02  0.20563795012E+01  0.11945954709E+00  0.43400727375E+02  0.00000000000E+00 0.  1.
         11    1    3    3    0    0 -0.11190435695E+02  0.82728642172E+00  0.47685501715E+00  0.11231101675E+02  0.51100000000E-03 0. -1.
        -11    1    3    3    0    0 -0.25182771221E+02 -0.82642999117E+01  0.36850490108E+01  0.26759114444E+02  0.51100000000E-03 0.  1.
         12    1    3    3    0    0 -0.69786116100E+01  0.53806339888E+01 -0.42813635751E+01  0.97970565062E+01  0.00000000000E+00 0. -1.
</event>
<event>
 7    1  0.4621547E-010  0.4778727E+02  0.7816164E-02  0.1312668E+00
        -11   -1    0    0    0    0  0.00000000000E+00  0.00000000000E+00  0.45593999997E+02  0.45594000000E+02  0.51100000000E-03 0.  1.
         11   -1    0    0    0    0 -0.00000000000E+00 -0.00000000000E+00 -0.45593999997E+02  0.45594000000E+02  0.51100000000E-03 0. -1.
    9900012    2    1    2    0    0  0.23354281639E+02  0.17266926883E+02 -0.32249864817E+02  0.47787274020E+02  0.20000013569E+02 0.  0.
        -12    1    1    2    0    0 -0.23354281639E+02 -0.17266926883E+02  0.32249864817E+02  0.43400725980E+02  0.00000000000E+00 0.  1.
         11    1    3    3    0    0  0.98810416845E+01  0.85100605980E+01 -0.17679706077E+02  0.21968798860E+02  0.51100000000E-03 0. -1.
        -11    1    3    3    0    0 -0.10731080178E+01  0.58535386895E+01 -0.69255232109E+01  0.91311745144E+01  0.51100000000E-03 0.  1.
        -12    1    3    3    0    0  0.14546347973E+02  0.29033275952E+01 -0.76446355290E+01  0.16687300646E+02  0.00000000000E+00 0.  1.
</event>
<event>
 7    1  0.4621547E-010  0.4778727E+02  0.7816164E-02  0.1312668E+00
        -11   -1    0    0    0    0  0.00000000000E+00  0.00000000000E+00  0.45593999997E+02  0.45594000000E+02  0.51100000000E-03 0.  1.
         11   -1    0    0    0    0 -0.00000000000E+00 -0.00000000000E+00 -0.45593999997E+02  0.45594000000E+02  0.51100000000E-03 0. -1.
    9900012    2    1    2    0    0 -0.18087187736E+02 -0.36611712065E+02 -0.14698961626E+02  0.47787270820E+02  0.19999998976E+02 0.  0.
        -12    1    1    2    0    0  0.18087187736E+02  0.36611712065E+02  0.14698961626E+02  0.43400729180E+02  0.00000000000E+00 0.  1.
         11    1    3    3    0    0 -0.13158011808E+01  0.54083146931E+00  0.17938099991E+00  0.14338790848E+01  0.51100000000E-03 0. -1.
        -11    1    3    3    0    0  0.29911985077E+01 -0.21073839422E+01 -0.14925261853E+01  0.39517047292E+01  0.51100000000E-03 0.  1.
         12    1    3    3    0    0 -0.19762585063E+02 -0.35045159592E+02 -0.13385816440E+02  0.42401687006E+02  0.00000000000E+00 0. -1.
</event>
<event>
 7    1  0.4621547E-010  0.4778727E+02  0.7816164E-02  0.1312668E+00
        -11   -1    0    0    0    0  0.00000000000E+00  0.00000000000E+00  0.45593999997E+02  0.45594000000E+02  0.51100000000E-03 0.  1.
         11   -1    0    0    0    0 -0.00000000000E+00 -0.00000000000E+00 -0.45593999997E+02  0.45594000000E+02  0.51100000000E-03 0. -1.
    9900012    2    1    2    0    0 -0.20744673927E+02 -0.39877365690E+01 -0.37912794135E+02  0.47787268458E+02  0.19999988207E+02 0.  0.
        -12    1    1    2    0    0  0.20744673927E+02  0.39877365690E+01  0.37912794135E+02  0.43400731542E+02  0.00000000000E+00 0.  1.
         11    1    3    3    0    0 -0.11003079826E+02 -0.70405933804E+01 -0.11199361694E+02  0.17206493641E+02  0.51100000000E-03 0. -1.
        -11    1    3    3    0    0 -0.66300369882E+01 -0.35544740865E+01 -0.14916908663E+02  0.16706461050E+02  0.51100000000E-03 0.  1.
        -12    1    3    3    0    0 -0.31115571134E+01  0.66073308978E+01 -0.11796523777E+02  0.13874313766E+02  0.00000000000E+00 0.  1.
</event>
<event>
 7    1  0.4621547E-010  0.4778728E+02  0.7816164E-02  0.1312668E+00
        -11   -1    0    0    0    0  0.00000000000E+00  0.00000000000E+00  0.45593999997E+02  0.45594000000E+02  0.51100000000E-03 0.  1.
         11   -1    0    0    0    0 -0.00000000000E+00 -0.00000000000E+00 -0.45593999997E+02  0.45594000000E+02  0.51100000000E-03 0. -1.
    9900012    2    1    2    0    0  0.79127199914E+01  0.42655547531E+02  0.12312067081E+01  0.47787277163E+02  0.20000027896E+02 0.  0.
        -12    1    1    2    0    0 -0.79127199914E+01 -0.42655547531E+02 -0.12312067081E+01  0.43400722837E+02  0.00000000000E+00 0.  1.
         11    1    3    3    0    0  0.78176166714E+01  0.21212891284E+02 -0.49682065148E+01  0.23147029254E+02  0.51100000000E-03 0. -1.
        -11    1    3    3    0    0  0.98634633353E+00  0.17464703921E+02  0.33201523468E+00  0.17495685083E+02  0.51100000000E-03 0.  1.
        -12    1    3    3    0    0 -0.89124301353E+00  0.39779523254E+01  0.58673979882E+01  0.71445628252E+01  0.00000000000E+00 0.  1.
</event>
<event>
 7    1  0.4621547E-010  0.4778726E+02  0.7816164E-02  0.1312668E+00
        -11   -1    0    0    0    0  0.00000000000E+00  0.00000000000E+00  0.45593999997E+02  0.45594000000E+02  0.51100000000E-03 0. -1.
         11   -1    0    0    0    0 -0.00000000000E+00 -0.00000000000E+00 -0.45593999997E+02  0.45594000000E+02  0.51100000000E-03 0.  1.
    9900012    2    1    2    0    0  0.17576013012E+02  0.33505675577E+02  0.21262113388E+02  0.47787262737E+02  0.19999962122E+02 0.  0.
        -12    1    1    2    0    0 -0.17576013012E+02 -0.33505675577E+02 -0.21262113388E+02  0.43400737263E+02  0.00000000000E+00 0.  1.
         11    1    3    3    0    0  0.29588829491E+01  0.94894668655E+01  0.93552408402E+01  0.13650109931E+02  0.51100000000E-03 0.  1.
        -11    1    3    3    0    0  0.13528149590E+02  0.23790270182E+02  0.14746331967E+02  0.31087651784E+02  0.51100000000E-03 0. -1.
        -12    1    3    3    0    0  0.10889804722E+01  0.22593852916E+00 -0.28394594193E+01  0.30495010217E+01  0.00000000000E+00 0.  1.
</event>
<event>
 7    1  0.4621547E-010  0.4778727E+02  0.7816164E-02  0.1312668E+00
        -11   -1    0    0    0    0  0.00000000000E+00  0.00000000000E+00  0.45593999997E+02  0.45594000000E+02  0.51100000000E-03 0.  1.
         11   -1    0    0    0    0 -0.00000000000E+00 -0.00000000000E+00 -0.45593999997E+02  0.45594000000E+02  0.51100000000E-03 0. -1.
    9900012    2    1    2    0    0 -0.18813160223E+01  0.31077167065E+02 -0.30237286476E+02  0.47787272400E+02  0.20000006181E+02 0.  0.
        -12    1    1    2    0    0  0.18813160223E+01 -0.31077167065E+02  0.30237286476E+02  0.43400727600E+02  0.00000000000E+00 0.  1.
         11    1    3    3    0    0  0.68605338199E+01  0.20531295209E+02 -0.17819306260E+02  0.28037986431E+02  0.51100000000E-03 0. -1.
        -11    1    3    3    0    0 -0.40440712372E+00  0.31935811271E+01 -0.19134471839E+00  0.32247664410E+01  0.51100000000E-03 0.  1.
        -12    1    3    3    0    0 -0.83374427185E+01  0.73522907289E+01 -0.12226635498E+02  0.16524519529E+02  0.00000000000E+00 0.  1.
</event>
<event>
 7    1  0.4621547E-010  0.4778727E+02  0.7816164E-02  0.1312668E+00
        -11   -1    0    0    0    0  0.00000000000E+00  0.00000000000E+00  0.45593999997E+02  0.45594000000E+02  0.51100000000E-03 0.  1.
         11   -1    0    0    0    0 -0.00000000000E+00 -0.00000000000E+00 -0.45593999997E+02  0.45594000000E+02  0.51100000000E-03 0. -1.
    9900012    2    1    2    0    0 -0.16682884019E+02 -0.24927543744E+02 -0.31367535541E+02  0.47787270257E+02  0.19999996412E+02 0.  0.
        -12    1    1    2    0    0  0.16682884019E+02  0.24927543744E+02  0.31367535541E+02  0.43400729743E+02  0.00000000000E+00 0.  1.
         11    1    3    3    0    0 -0.92762466697E+01 -0.17227976868E+02 -0.98987259936E+01  0.21927989324E+02  0.51100000000E-03 0. -1.
        -11    1    3    3    0    0 -0.40616598813E+01 -0.94731208808E+01 -0.17904893928E+02  0.20659678774E+02  0.51100000000E-03 0.  1.
        -12    1    3    3    0    0 -0.33449774682E+01  0.17735540052E+01 -0.35639156187E+01  0.51996021587E+01  0.00000000000E+00 0.  1.
</event>
<event>
 7    1  0.4621547E-010  0.4778727E+02  0.7816164E-02  0.1312668E+00
        -11   -1    0    0    0    0  0.00000000000E+00  0.00000000000E+00  0.45593999997E+02  0.45594000000E+02  0.51100000000E-03 0.  1.
         11   -1    0    0    0    0 -0.00000000000E+00 -0.00000000000E+00 -0.45593999997E+02  0.45594000000E+02  0.51100000000E-03 0. -1.
    9900012    2    1    2    0    0 -0.43355571554E+02 -0.31383723549E+00 -0.19542503670E+01  0.47787272205E+02  0.20000005292E+02 0.  0.
        -12    1    1    2    0    0  0.43355571554E+02  0.31383723549E+00  0.19542503670E+01  0.43400727795E+02  0.00000000000E+00 0.  1.
         11    1    3    3    0    0 -0.17609066803E+02 -0.21655892410E+01  0.41370915371E+01  0.18217698458E+02  0.51100000000E-03 0. -1.
        -11    1    3    3    0    0 -0.18145747848E+02  0.55681972483E+01  0.27230962996E+00  0.18982811655E+02  0.51100000000E-03 0.  1.
        -12    1    3    3    0    0 -0.76007569034E+01 -0.37164452427E+01 -0.63636515341E+01  0.10586762092E+02  0.00000000000E+00 0.  1.
</event>
<event>
 7    1  0.4621547E-010  0.4778727E+02  0.7816164E-02  0.1312668E+00
        -11   -1    0    0    0    0  0.00000000000E+00  0.00000000000E+00  0.45593999997E+02  0.45594000000E+02  0.51100000000E-03 0. -1.
         11   -1    0    0    0    0 -0.00000000000E+00 -0.00000000000E+00 -0.45593999997E+02  0.45594000000E+02  0.51100000000E-03 0.  1.
    9900012    2    1    2    0    0 -0.13736869663E+02  0.41169303248E+02 -0.10114772292E+00  0.47787270180E+02  0.19999996057E+02 0.  0.
        -12    1    1    2    0    0  0.13736869663E+02 -0.41169303248E+02  0.10114772292E+00  0.43400729820E+02  0.00000000000E+00 0.  1.
         11    1    3    3    0    0 -0.33700386686E+01  0.90035623536E+01 -0.55031403121E+00  0.96293375410E+01  0.51100000000E-03 0. -1.
        -11    1    3    3    0    0 -0.41989824473E+01  0.13059176776E+02  0.89242083868E+01  0.16365055675E+02  0.51100000000E-03 0.  1.
        -12    1    3    3    0    0 -0.61678485475E+01  0.19106564119E+02 -0.84750420785E+01  0.21792876964E+02  0.00000000000E+00 0.  1.
</event>
<event>
 7    1  0.4621547E-010  0.4778728E+02  0.7816164E-02  0.1312668E+00
        -11   -1    0    0    0    0  0.00000000000E+00  0.00000000000E+00  0.45593999997E+02  0.45594000000E+02  0.51100000000E-03 0.  1.
         11   -1    0    0    0    0 -0.00000000000E+00 -0.00000000000E+00 -0.45593999997E+02  0.45594000000E+02  0.51100000000E-03 0. -1.
    9900012    2    1    2    0    0  0.29658288678E+02  0.18633932384E+02 -0.25627808403E+02  0.47787284719E+02  0.20000062346E+02 0.  0.
        -12    1    1    2    0    0 -0.29658288678E+02 -0.18633932384E+02  0.25627808403E+02  0.43400715281E+02  0.00000000000E+00 0.  1.
         11    1    3    3    0    0  0.10336914982E+02  0.11970008851E+02 -0.11657367274E+02  0.19647573266E+02  0.51100000000E-03 0. -1.
        -11    1    3    3    0    0 -0.14530420272E+01  0.24877833736E+01 -0.24193962492E+00  0.28911818154E+01  0.51100000000E-03 0.  1.
        -12    1    3    3    0    0  0.20774415723E+02  0.41761401592E+01 -0.13728501505E+02  0.25248529637E+02  0.00000000000E+00 0.  1.
</event>
<event>
 7    1  0.4621547E-010  0.4778727E+02  0.7816164E-02  0.1312668E+00
        -11   -1    0    0    0    0  0.00000000000E+00  0.00000000000E+00  0.45593999997E+02  0.45594000000E+02  0.51100000000E-03 0.  1.
         11   -1    0    0    0    0 -0.00000000000E+00 -0.00000000000E+00 -0.45593999997E+02  0.45594000000E+02  0.51100000000E-03 0. -1.
    9900012    2    1    2    0    0  0.80721796990E+01 -0.13538934117E+02 -0.40437121282E+02  0.47787267291E+02  0.19999982886E+02 0.  0.
        -12    1    1    2    0    0 -0.80721796990E+01  0.13538934117E+02  0.40437121282E+02  0.43400732709E+02  0.00000000000E+00 0.  1.
         11    1    3    3    0    0  0.35415354795E+01 -0.41276856484E+01 -0.78932384493E+01  0.95855868805E+01  0.51100000000E-03 0. -1.
        -11    1    3    3    0    0  0.53721652936E+01 -0.10750807544E+02 -0.10090438578E+02  0.15692577027E+02  0.51100000000E-03 0.  1.
         12    1    3    3    0    0 -0.84152107410E+00  0.13395590750E+01 -0.22453444255E+02  0.22509103384E+02  0.00000000000E+00 0. -1.
</event>
<event>
 7    1  0.4621547E-010  0.4778727E+02  0.7816164E-02  0.1312668E+00
        -11   -1    0    0    0    0  0.00000000000E+00  0.00000000000E+00  0.45593999997E+02  0.45594000000E+02  0.51100000000E-03 0. -1.
         11   -1    0    0    0    0 -0.00000000000E+00 -0.00000000000E+00 -0.45593999997E+02  0.45594000000E+02  0.51100000000E-03 0.  1.
    9900012    2    1    2    0    0 -0.17828311047E+02 -0.39238798230E+02 -0.51079877630E+01  0.47787268436E+02  0.19999988107E+02 0.  0.
        -12    1    1    2    0    0  0.17828311047E+02  0.39238798230E+02  0.51079877630E+01  0.43400731564E+02  0.00000000000E+00 0.  1.
         11    1    3    3    0    0 -0.19167509615E+02 -0.35684058321E+02  0.37370980291E+00  0.40507840011E+02  0.51100000000E-03 0. -1.
        -11    1    3    3    0    0  0.18888146662E+01 -0.31080674180E+01 -0.30497037585E+01  0.47464088734E+01  0.51100000000E-03 0.  1.
        -12    1    3    3    0    0 -0.54961609864E+00 -0.44667249076E+00 -0.24319938075E+01  0.25330195518E+01  0.00000000000E+00 0.  1.
</event>
<event>
 7    1  0.4621547E-010  0.4778727E+02  0.7816164E-02  0.1312668E+00
        -11   -1    0    0    0    0  0.00000000000E+00  0.00000000000E+00  0.45593999997E+02  0.45594000000E+02  0.51100000000E-03 0.  1.
         11   -1    0    0    0    0 -0.00000000000E+00 -0.00000000000E+00 -0.45593999997E+02  0.45594000000E+02  0.51100000000E-03 0. -1.
    9900012    2    1    2    0    0  0.53824374400E+01 -0.37342152994E+02  0.21452647238E+02  0.47787273088E+02  0.20000009316E+02 0.  0.
        -12    1    1    2    0    0 -0.53824374400E+01  0.37342152994E+02 -0.21452647238E+02  0.43400726912E+02  0.00000000000E+00 0.  1.
         11    1    3    3    0    0 -0.19728034793E+01 -0.37945709155E+01  0.27734210054E+01  0.50973116772E+01  0.51100000000E-03 0. -1.
        -11    1    3    3    0    0  0.12299167432E+02 -0.28041523097E+02  0.17277817448E+02  0.35158491338E+02  0.51100000000E-03 0.  1.
        -12    1    3    3    0    0 -0.49439265132E+01 -0.55060589814E+01  0.14014087845E+01  0.75314700727E+01  0.00000000000E+00 0.  1.
</event>
<event>
 7    1  0.4621547E-010  0.4778727E+02  0.7816164E-02  0.1312668E+00
        -11   -1    0    0    0    0  0.00000000000E+00  0.00000000000E+00  0.45593999997E+02  0.45594000000E+02  0.51100000000E-03 0. -1.
         11   -1    0    0    0    0 -0.00000000000E+00 -0.00000000000E+00 -0.45593999997E+02  0.45594000000E+02  0.51100000000E-03 0.  1.
    9900012    2    1    2    0    0 -0.35159688224E+02  0.19259907332E+02  0.16627551523E+02  0.47787272171E+02  0.20000005137E+02 0.  0.
        -12    1    1    2    0    0  0.35159688224E+02 -0.19259907332E+02 -0.16627551523E+02  0.43400727829E+02  0.00000000000E+00 0.  1.
         11    1    3    3    0    0 -0.80754539303E+01  0.40715878943E+01  0.47715092879E+01  0.10225364801E+02  0.51100000000E-03 0. -1.
        -11    1    3    3    0    0 -0.56979364304E+01  0.35920005055E+01 -0.46306257253E+01  0.81738388818E+01  0.51100000000E-03 0.  1.
        -12    1    3    3    0    0 -0.21386297863E+02  0.11596318933E+02  0.16486667960E+02  0.29388068489E+02  0.00000000000E+00 0.  1.
</event>
<event>
 7    1  0.4621547E-010  0.4778728E+02  0.7816164E-02  0.1312668E+00
        -11   -1    0    0    0    0  0.00000000000E+00  0.00000000000E+00  0.45593999997E+02  0.45594000000E+02  0.51100000000E-03 0.  1.
         11   -1    0    0    0    0 -0.00000000000E+00 -0.00000000000E+00 -0.45593999997E+02  0.45594000000E+02  0.51100000000E-03 0. -1.
    9900012    2    1    2    0    0 -0.76931456986E+01 -0.27910914330E+02 -0.32332933008E+02  0.47787283574E+02  0.20000057125E+02 0.  0.
        -12    1    1    2    0    0  0.76931456986E+01  0.27910914330E+02  0.32332933008E+02  0.43400716426E+02  0.00000000000E+00 0.  1.
         11    1    3    3    0    0 -0.36296520434E+01 -0.35077901597E+01 -0.51825439327E+01  0.72344818499E+01  0.51100000000E-03 0.  1.
        -11    1    3    3    0    0  0.21762191335E+01 -0.18879834588E+01 -0.12830076745E+02  0.13149573407E+02  0.51100000000E-03 0. -1.
         12    1    3    3    0    0 -0.62397127887E+01 -0.22515140711E+02 -0.14320312330E+02  0.27403228316E+02  0.00000000000E+00 0. -1.
</event>
<event>
 7    1  0.4621547E-010  0.4778727E+02  0.7816164E-02  0.1312668E+00
        -11   -1    0    0    0    0  0.00000000000E+00  0.00000000000E+00  0.45593999997E+02  0.45594000000E+02  0.51100000000E-03 0.  1.
         11   -1    0    0    0    0 -0.00000000000E+00 -0.00000000000E+00 -0.45593999997E+02  0.45594000000E+02  0.51100000000E-03 0. -1.
    9900012    2    1    2    0    0  0.55685164700E+01  0.39158010404E+02 -0.17867995323E+02  0.47787269460E+02  0.19999992778E+02 0.  0.
        -12    1    1    2    0    0 -0.55685164700E+01 -0.39158010404E+02  0.17867995323E+02  0.43400730540E+02  0.00000000000E+00 0.  1.
         11    1    3    3    0    0 -0.62980050232E+01  0.16141176033E+02 -0.31578366089E+01  0.17611767751E+02  0.51100000000E-03 0. -1.
        -11    1    3    3    0    0  0.23562209002E+01  0.19813513231E+01 -0.29643165944E+01  0.42737223973E+01  0.51100000000E-03 0.  1.
         12    1    3    3    0    0  0.95103005930E+01  0.21035483048E+02 -0.11745842120E+02  0.25901779312E+02  0.00000000000E+00 0. -1.
</event>
<event>
 7    1  0.4621547E-010  0.4778726E+02  0.7816164E-02  0.1312668E+00
        -11   -1    0    0    0    0  0.00000000000E+00  0.00000000000E+00  0.45593999997E+02  0.45594000000E+02  0.51100000000E-03 0.  1.
         11   -1    0    0    0    0 -0.00000000000E+00 -0.00000000000E+00 -0.45593999997E+02  0.45594000000E+02  0.51100000000E-03 0. -1.
    9900012    2    1    2    0    0 -0.10343633129E+02 -0.55701967718E+01 -0.41780455888E+02  0.47787258848E+02  0.19999944390E+02 0.  0.
        -12    1    1    2    0    0  0.10343633129E+02  0.55701967718E+01  0.41780455888E+02  0.43400741152E+02  0.00000000000E+00 0.  1.
         11    1    3    3    0    0  0.46457090413E+00 -0.70000109158E+01 -0.13230698731E+02  0.14975559026E+02  0.51100000000E-03 0. -1.
        -11    1    3    3    0    0 -0.12592712832E+01  0.47421787729E-02  0.10735538667E+01  0.16547824083E+01  0.51100000000E-03 0.  1.
         12    1    3    3    0    0 -0.95489327498E+01  0.14250719652E+01 -0.29623311023E+02  0.31156917414E+02  0.00000000000E+00 0. -1.
</event>
<event>
 7    1  0.4621547E-010  0.4778726E+02  0.7816164E-02  0.1312668E+00
        -11   -1    0    0    0    0  0.00000000000E+00  0.00000000000E+00  0.45593999997E+02  0.45594000000E+02  0.51100000000E-03 0.  1.
         11   -1    0    0    0    0 -0.00000000000E+00 -0.00000000000E+00 -0.45593999997E+02  0.45594000000E+02  0.51100000000E-03 0. -1.
    9900012    2    1    2    0    0  0.41229609502E+02  0.13125093310E+02 -0.33875608064E+01  0.47787258736E+02  0.19999943882E+02 0.  0.
        -12    1    1    2    0    0 -0.41229609502E+02 -0.13125093310E+02  0.33875608064E+01  0.43400741264E+02  0.00000000000E+00 0.  1.
         11    1    3    3    0    0  0.95659417458E+01  0.26221374458E+01  0.68500953703E+00  0.99424385639E+01  0.51100000000E-03 0. -1.
        -11    1    3    3    0    0  0.21230969257E+02  0.55053360911E+00  0.35542608266E+01  0.21533460315E+02  0.51100000000E-03 0.  1.
         12    1    3    3    0    0  0.10432698498E+02  0.99524222546E+01 -0.76268311701E+01  0.16311359857E+02  0.00000000000E+00 0. -1.
</event>
<event>
 7    1  0.4992408E-010  0.4778728E+02  0.7816164E-02  0.1312668E+00
        -11   -1    0    0    0    0  0.00000000000E+00  0.00000000000E+00  0.45593999997E+02  0.45594000000E+02  0.51100000000E-03 0. -1.
         11   -1    0    0    0    0 -0.00000000000E+00 -0.00000000000E+00 -0.45593999997E+02  0.45594000000E+02  0.51100000000E-03 0.  1.
    9900012    2    1    2    0    0 -0.22488265932E+02 -0.17354066691E+02  0.32813673313E+02  0.47787275448E+02  0.20000020079E+02 0.  0.
        -12    1    1    2    0    0  0.22488265932E+02  0.17354066691E+02 -0.32813673313E+02  0.43400724552E+02  0.00000000000E+00 0.  1.
         11    1    3    3    0    0 -0.38436403524E+01 -0.57290166451E+01  0.25889620771E+01  0.73687127625E+01  0.51100000000E-03 0. -1.
        -11    1    3    3    0    0 -0.82586027772E+01  0.11557772310E+01  0.35362951633E+01  0.90579095040E+01  0.51100000000E-03 0.  1.
         12    1    3    3    0    0 -0.10386022802E+02 -0.12780827277E+02  0.26688416072E+02  0.31360653182E+02  0.00000000000E+00 0. -1.
</event>
<event>
 7    1  0.4621547E-010  0.4778732E+02  0.7816164E-02  0.1312668E+00
        -11   -1    0    0    0    0  0.00000000000E+00  0.00000000000E+00  0.45593999997E+02  0.45594000000E+02  0.51100000000E-03 0.  1.
         11   -1    0    0    0    0 -0.00000000000E+00 -0.00000000000E+00 -0.45593999997E+02  0.45594000000E+02  0.51100000000E-03 0. -1.
    9900012    2    1    2    0    0 -0.30422085102E+02  0.29942525672E+02  0.78460711704E+01  0.47787320992E+02  0.20000227730E+02 0.  0.
        -12    1    1    2    0    0  0.30422085102E+02 -0.29942525672E+02 -0.78460711704E+01  0.43400679008E+02  0.00000000000E+00 0.  1.
         11    1    3    3    0    0 -0.11531657131E+02  0.21042313618E+01  0.26749992169E+01  0.12023415775E+02  0.51100000000E-03 0. -1.
        -11    1    3    3    0    0  0.10539974690E+01  0.95255176120E-02  0.62578328285E+00  0.12258084591E+01  0.51100000000E-03 0.  1.
         12    1    3    3    0    0 -0.19944425439E+02  0.27828768792E+02  0.45452886706E+01  0.34538096758E+02  0.00000000000E+00 0. -1.
</event>
<event>
 7    1  0.4621547E-010  0.4778727E+02  0.7816164E-02  0.1312668E+00
        -11   -1    0    0    0    0  0.00000000000E+00  0.00000000000E+00  0.45593999997E+02  0.45594000000E+02  0.51100000000E-03 0. -1.
         11   -1    0    0    0    0 -0.00000000000E+00 -0.00000000000E+00 -0.45593999997E+02  0.45594000000E+02  0.51100000000E-03 0.  1.
    9900012    2    1    2    0    0  0.29236963481E+02 -0.31885013564E+02  0.34884823798E+01  0.47787266908E+02  0.19999981142E+02 0.  0.
        -12    1    1    2    0    0 -0.29236963481E+02  0.31885013564E+02 -0.34884823798E+01  0.43400733092E+02  0.00000000000E+00 0.  1.
         11    1    3    3    0    0  0.11938396370E+02 -0.11810138911E+02  0.80106902240E+01  0.18605801437E+02  0.51100000000E-03 0. -1.
        -11    1    3    3    0    0  0.13092644745E+02 -0.68410848348E+01 -0.74564461576E+00  0.14791003153E+02  0.51100000000E-03 0.  1.
         12    1    3    3    0    0  0.42059223664E+01 -0.13233789818E+02 -0.37765632285E+01  0.14390462318E+02  0.00000000000E+00 0. -1.
</event>
<event>
 7    1  0.4621547E-010  0.4778727E+02  0.7816164E-02  0.1312668E+00
        -11   -1    0    0    0    0  0.00000000000E+00  0.00000000000E+00  0.45593999997E+02  0.45594000000E+02  0.51100000000E-03 0.  1.
         11   -1    0    0    0    0 -0.00000000000E+00 -0.00000000000E+00 -0.45593999997E+02  0.45594000000E+02  0.51100000000E-03 0. -1.
    9900012    2    1    2    0    0  0.19455480179E+02 -0.30226917425E+01 -0.38677784293E+02  0.47787269912E+02  0.19999994835E+02 0.  0.
        -12    1    1    2    0    0 -0.19455480179E+02  0.30226917425E+01  0.38677784293E+02  0.43400730088E+02  0.00000000000E+00 0.  1.
         11    1    3    3    0    0  0.14338827845E+01  0.36726616519E+01 -0.19580526798E+02  0.19973519805E+02  0.51100000000E-03 0. -1.
        -11    1    3    3    0    0  0.77259962009E+00 -0.87905142073E+00  0.30473475203E+00  0.12093407723E+01  0.51100000000E-03 0.  1.
         12    1    3    3    0    0  0.17248997774E+02 -0.58163019737E+01 -0.19401992247E+02  0.26604409334E+02  0.00000000000E+00 0. -1.
</event>
<event>
 7    1  0.4621547E-010  0.4778726E+02  0.7816164E-02  0.1312668E+00
        -11   -1    0    0    0    0  0.00000000000E+00  0.00000000000E+00  0.45593999997E+02  0.45594000000E+02  0.51100000000E-03 0.  1.
         11   -1    0    0    0    0 -0.00000000000E+00 -0.00000000000E+00 -0.45593999997E+02  0.45594000000E+02  0.51100000000E-03 0. -1.
    9900012    2    1    2    0    0  0.19277779351E+02  0.38793209669E+02 -0.26604640673E+01  0.47787263114E+02  0.19999963843E+02 0.  0.
        -12    1    1    2    0    0 -0.19277779351E+02 -0.38793209669E+02  0.26604640673E+01  0.43400736886E+02  0.00000000000E+00 0.  1.
         11    1    3    3    0    0  0.10646692979E+02  0.26354203547E+02 -0.17437263511E+01  0.28476950291E+02  0.51100000000E-03 0. -1.
        -11    1    3    3    0    0  0.11377381314E+02  0.11421314662E+02  0.33649451936E+00  0.16124653888E+02  0.51100000000E-03 0.  1.
         12    1    3    3    0    0 -0.27462949421E+01  0.10176914599E+01 -0.12532322356E+01  0.31856589355E+01  0.00000000000E+00 0. -1.
</event>
<event>
 7    1  0.4621547E-010  0.4778727E+02  0.7816164E-02  0.1312668E+00
        -11   -1    0    0    0    0  0.00000000000E+00  0.00000000000E+00  0.45593999997E+02  0.45594000000E+02  0.51100000000E-03 0. -1.
         11   -1    0    0    0    0 -0.00000000000E+00 -0.00000000000E+00 -0.45593999997E+02  0.45594000000E+02  0.51100000000E-03 0.  1.
    9900012    2    1    2    0    0  0.27478171616E+02 -0.14263422891E+02  0.30415920953E+02  0.47787269645E+02  0.19999993619E+02 0.  0.
        -12    1    1    2    0    0 -0.27478171616E+02  0.14263422891E+02 -0.30415920953E+02  0.43400730355E+02  0.00000000000E+00 0.  1.
         11    1    3    3    0    0  0.16541338069E+02 -0.12156769509E+02  0.14569775458E+02  0.25173026579E+02  0.51100000000E-03 0. -1.
        -11    1    3    3    0    0  0.84060435568E+01 -0.53661148955E+01  0.53090474982E+01  0.11297908787E+02  0.51100000000E-03 0.  1.
        -12    1    3    3    0    0  0.25307899909E+01  0.32594615130E+01  0.10537097996E+02  0.11316334279E+02  0.00000000000E+00 0.  1.
</event>
<event>
 7    1  0.4621547E-010  0.4778727E+02  0.7816164E-02  0.1312668E+00
        -11   -1    0    0    0    0  0.00000000000E+00  0.00000000000E+00  0.45593999997E+02  0.45594000000E+02  0.51100000000E-03 0. -1.
         11   -1    0    0    0    0 -0.00000000000E+00 -0.00000000000E+00 -0.45593999997E+02  0.45594000000E+02  0.51100000000E-03 0.  1.
    9900012    2    1    2    0    0 -0.40356566558E+02  0.22745333752E+01 -0.15804980300E+02  0.47787269951E+02  0.19999995017E+02 0.  0.
        -12    1    1    2    0    0  0.40356566558E+02 -0.22745333752E+01  0.15804980300E+02  0.43400730049E+02  0.00000000000E+00 0.  1.
         11    1    3    3    0    0 -0.17711896043E+02  0.32808267375E+01 -0.31816693144E+01  0.18292022999E+02  0.51100000000E-03 0. -1.
        -11    1    3    3    0    0 -0.27605922020E+01  0.87163540959E+00  0.29767423793E+01  0.41523021382E+01  0.51100000000E-03 0.  1.
         12    1    3    3    0    0 -0.19884078313E+02 -0.18779287720E+01 -0.15600053365E+02  0.25342944814E+02  0.00000000000E+00 0. -1.
</event>
<event>
 7    1  0.4621547E-010  0.4778727E+02  0.7816164E-02  0.1312668E+00
        -11   -1    0    0    0    0  0.00000000000E+00  0.00000000000E+00  0.45593999997E+02  0.45594000000E+02  0.51100000000E-03 0. -1.
         11   -1    0    0    0    0 -0.00000000000E+00 -0.00000000000E+00 -0.45593999997E+02  0.45594000000E+02  0.51100000000E-03 0.  1.
    9900012    2    1    2    0    0 -0.20645039806E+02  0.30275979499E+02  0.23254478490E+02  0.47787269902E+02  0.19999994791E+02 0.  0.
        -12    1    1    2    0    0  0.20645039806E+02 -0.30275979499E+02 -0.23254478490E+02  0.43400730098E+02  0.00000000000E+00 0.  1.
         11    1    3    3    0    0 -0.89266413718E+01  0.70262789562E+01  0.10647595981E+02  0.15569997514E+02  0.51100000000E-03 0. -1.
        -11    1    3    3    0    0 -0.30277418041E+01 -0.80360673069E-01 -0.17300357489E+01  0.34880800197E+01  0.51100000000E-03 0.  1.
         12    1    3    3    0    0 -0.86906566301E+01  0.23330061216E+02  0.14336918258E+02  0.28729192368E+02  0.00000000000E+00 0. -1.
</event>
<event>
 7    1  0.4621547E-010  0.4778733E+02  0.7816164E-02  0.1312667E+00
        -11   -1    0    0    0    0  0.00000000000E+00  0.00000000000E+00  0.45593999997E+02  0.45594000000E+02  0.51100000000E-03 0.  1.
         11   -1    0    0    0    0 -0.00000000000E+00 -0.00000000000E+00 -0.45593999997E+02  0.45594000000E+02  0.51100000000E-03 0. -1.
    9900012    2    1    2    0    0 -0.39384989196E+02  0.40051061403E+01 -0.17787634388E+02  0.47787329657E+02  0.20000267235E+02 0.  0.
        -12    1    1    2    0    0  0.39384989196E+02 -0.40051061403E+01  0.17787634388E+02  0.43400670343E+02  0.00000000000E+00 0.  1.
         11    1    3    3    0    0 -0.89647545821E+01 -0.10402864564E+01 -0.39379841774E+01  0.98466613769E+01  0.51100000000E-03 0. -1.
        -11    1    3    3    0    0 -0.38314664092E+01  0.32720414197E+01  0.35069321367E+01  0.61388079600E+01  0.51100000000E-03 0.  1.
        -12    1    3    3    0    0 -0.26588768204E+02  0.17733511769E+01 -0.17356582347E+02  0.31801860320E+02  0.00000000000E+00 0.  1.
</event>
<event>
 7    1  0.4621547E-010  0.4778726E+02  0.7816164E-02  0.1312668E+00
        -11   -1    0    0    0    0  0.00000000000E+00  0.00000000000E+00  0.45593999997E+02  0.45594000000E+02  0.51100000000E-03 0.  1.
         11   -1    0    0    0    0 -0.00000000000E+00 -0.00000000000E+00 -0.45593999997E+02  0.45594000000E+02  0.51100000000E-03 0. -1.
    9900012    2    1    2    0    0 -0.15651875582E+02 -0.33975737020E+02 -0.22006638569E+02  0.47787262029E+02  0.19999958896E+02 0.  0.
        -12    1    1    2    0    0  0.15651875582E+02  0.33975737020E+02  0.22006638569E+02  0.43400737971E+02  0.00000000000E+00 0.  1.
         11    1    3    3    0    0 -0.22064232993E+01 -0.15882189923E+02 -0.14318310734E+02  0.21497122669E+02  0.51100000000E-03 0. -1.
        -11    1    3    3    0    0 -0.10858003354E+02 -0.12757912698E+02 -0.10453916172E+02  0.19747023493E+02  0.51100000000E-03 0.  1.
        -12    1    3    3    0    0 -0.25874489294E+01 -0.53356343983E+01  0.27655883369E+01  0.65431158666E+01  0.00000000000E+00 0.  1.
</event>
<event>
 7    1  0.4621547E-010  0.4778727E+02  0.7816164E-02  0.1312668E+00
        -11   -1    0    0    0    0  0.00000000000E+00  0.00000000000E+00  0.45593999997E+02  0.45594000000E+02  0.51100000000E-03 0.  1.
         11   -1    0    0    0    0 -0.00000000000E+00 -0.00000000000E+00 -0.45593999997E+02  0.45594000000E+02  0.51100000000E-03 0. -1.
    9900012    2    1    2    0    0 -0.20863055938E+01 -0.24046458202E+01 -0.43283811422E+02  0.47787270470E+02  0.19999997381E+02 0.  0.
        -12    1    1    2    0    0  0.20863055938E+01  0.24046458202E+01  0.43283811422E+02  0.43400729530E+02  0.00000000000E+00 0.  1.
         11    1    3    3    0    0  0.47121278737E+01  0.15015355675E+01 -0.41060286398E+01  0.64279257627E+01  0.51100000000E-03 0. -1.
        -11    1    3    3    0    0 -0.17883331697E+01  0.58032753193E+00 -0.29971551084E+00  0.19038763664E+01  0.51100000000E-03 0.  1.
         12    1    3    3    0    0 -0.50101002979E+01 -0.44865089196E+01 -0.38878067271E+02  0.39455468341E+02  0.00000000000E+00 0. -1.
</event>
<event>
 7    1  0.4621547E-010  0.4778727E+02  0.7816164E-02  0.1312668E+00
        -11   -1    0    0    0    0  0.00000000000E+00  0.00000000000E+00  0.45593999997E+02  0.45594000000E+02  0.51100000000E-03 0. -1.
         11   -1    0    0    0    0 -0.00000000000E+00 -0.00000000000E+00 -0.45593999997E+02  0.45594000000E+02  0.51100000000E-03 0.  1.
    9900012    2    1    2    0    0  0.24561774026E+02 -0.28356402862E+02  0.21823306992E+02  0.47787273570E+02  0.20000011516E+02 0.  0.
        -12    1    1    2    0    0 -0.24561774026E+02  0.28356402862E+02 -0.21823306992E+02  0.43400726430E+02  0.00000000000E+00 0.  1.
         11    1    3    3    0    0  0.10610941111E+02 -0.97542656448E+01  0.16730856968E+02  0.22083010317E+02  0.51100000000E-03 0. -1.
        -11    1    3    3    0    0  0.18975663718E+01  0.56423898567E+00 -0.10549131344E+01  0.22432043488E+01  0.51100000000E-03 0.  1.
         12    1    3    3    0    0  0.12053266543E+02 -0.19166376202E+02  0.61473631586E+01  0.23461058904E+02  0.00000000000E+00 0. -1.
</event>
<event>
 7    1  0.4621547E-010  0.4778727E+02  0.7816164E-02  0.1312668E+00
        -11   -1    0    0    0    0  0.00000000000E+00  0.00000000000E+00  0.45593999997E+02  0.45594000000E+02  0.51100000000E-03 0.  1.
         11   -1    0    0    0    0 -0.00000000000E+00 -0.00000000000E+00 -0.45593999997E+02  0.45594000000E+02  0.51100000000E-03 0. -1.
    9900012    2    1    2    0    0 -0.35301594163E+02 -0.14347253237E+02 -0.20774435069E+02  0.47787269841E+02  0.19999994514E+02 0.  0.
        -12    1    1    2    0    0  0.35301594163E+02  0.14347253237E+02  0.20774435069E+02  0.43400730159E+02  0.00000000000E+00 0.  1.
         11    1    3    3    0    0 -0.58932815490E+00  0.66167174204E+00 -0.48502038891E+01  0.49304761631E+01  0.51100000000E-03 0.  1.
        -11    1    3    3    0    0 -0.24132524674E+02 -0.16190854933E+02 -0.10418755622E+02  0.30871880403E+02  0.51100000000E-03 0. -1.
         12    1    3    3    0    0 -0.10579741334E+02  0.11819299542E+01 -0.55054755570E+01  0.11984913275E+02  0.00000000000E+00 0. -1.
</event>
<event>
 7    1  0.4621547E-010  0.4778727E+02  0.7816164E-02  0.1312668E+00
        -11   -1    0    0    0    0  0.00000000000E+00  0.00000000000E+00  0.45593999997E+02  0.45594000000E+02  0.51100000000E-03 0.  1.
         11   -1    0    0    0    0 -0.00000000000E+00 -0.00000000000E+00 -0.45593999997E+02  0.45594000000E+02  0.51100000000E-03 0. -1.
    9900012    2    1    2    0    0  0.20618498364E+01 -0.28518344828E+02 -0.32650817267E+02  0.47787273224E+02  0.20000009937E+02 0.  0.
        -12    1    1    2    0    0 -0.20618498364E+01  0.28518344828E+02  0.32650817267E+02  0.43400726776E+02  0.00000000000E+00 0.  1.
         11    1    3    3    0    0  0.34417686128E+00 -0.34065115176E+01  0.10794035273E+01  0.35899708449E+01  0.51100000000E-03 0. -1.
        -11    1    3    3    0    0 -0.41733877514E+01 -0.33360884678E+01 -0.10698130426E+02  0.11958120524E+02  0.51100000000E-03 0.  1.
         12    1    3    3    0    0  0.58910607265E+01 -0.21775744843E+02 -0.23032090369E+02  0.32239181855E+02  0.00000000000E+00 0. -1.
</event>
<event>
 7    1  0.4621547E-010  0.4778727E+02  0.7816164E-02  0.1312668E+00
        -11   -1    0    0    0    0  0.00000000000E+00  0.00000000000E+00  0.45593999997E+02  0.45594000000E+02  0.51100000000E-03 0. -1.
         11   -1    0    0    0    0 -0.00000000000E+00 -0.00000000000E+00 -0.45593999997E+02  0.45594000000E+02  0.51100000000E-03 0.  1.
    9900012    2    1    2    0    0  0.76860998975E+01  0.85823151987E+01  0.41843649622E+02  0.47787270980E+02  0.19999999704E+02 0.  0.
        -12    1    1    2    0    0 -0.76860998975E+01 -0.85823151987E+01 -0.41843649622E+02  0.43400729020E+02  0.00000000000E+00 0.  1.
         11    1    3    3    0    0  0.68570422161E+01  0.93356771938E+01  0.13794146955E+02  0.18012561925E+02  0.51100000000E-03 0. -1.
        -11    1    3    3    0    0 -0.21631867663E+01  0.25149828508E+01  0.34761090228E+01  0.48049817820E+01  0.51100000000E-03 0.  1.
        -12    1    3    3    0    0  0.29922444477E+01 -0.32683448459E+01  0.24573393644E+02  0.24969727273E+02  0.00000000000E+00 0.  1.
</event>
<event>
 7    1  0.4621547E-010  0.4778727E+02  0.7816164E-02  0.1312668E+00
        -11   -1    0    0    0    0  0.00000000000E+00  0.00000000000E+00  0.45593999997E+02  0.45594000000E+02  0.51100000000E-03 0. -1.
         11   -1    0    0    0    0 -0.00000000000E+00 -0.00000000000E+00 -0.45593999997E+02  0.45594000000E+02  0.51100000000E-03 0.  1.
    9900012    2    1    2    0    0  0.38816309737E+02 -0.16765023822E+01  0.19341843806E+02  0.47787268628E+02  0.19999988983E+02 0.  0.
        -12    1    1    2    0    0 -0.38816309737E+02  0.16765023822E+01 -0.19341843806E+02  0.43400731372E+02  0.00000000000E+00 0.  1.
         11    1    3    3    0    0  0.16987990929E+02  0.69818498511E+01  0.10919743614E+02  0.21367706101E+02  0.51100000000E-03 0.  1.
        -11    1    3    3    0    0  0.18423139936E+02 -0.45136223894E+01  0.38134766533E+01  0.19347544460E+02  0.51100000000E-03 0. -1.
        -12    1    3    3    0    0  0.34051788712E+01 -0.41447298439E+01  0.46086235382E+01  0.70720180671E+01  0.00000000000E+00 0.  1.
</event>
<event>
 7    1  0.4621547E-010  0.4778727E+02  0.7816164E-02  0.1312668E+00
        -11   -1    0    0    0    0  0.00000000000E+00  0.00000000000E+00  0.45593999997E+02  0.45594000000E+02  0.51100000000E-03 0.  1.
         11   -1    0    0    0    0 -0.00000000000E+00 -0.00000000000E+00 -0.45593999997E+02  0.45594000000E+02  0.51100000000E-03 0. -1.
    9900012    2    1    2    0    0  0.31047802047E+02  0.29511595112E+02 -0.69801840730E+01  0.47787271577E+02  0.20000002426E+02 0.  0.
        -12    1    1    2    0    0 -0.31047802047E+02 -0.29511595112E+02  0.69801840730E+01  0.43400728423E+02  0.00000000000E+00 0.  1.
         11    1    3    3    0    0  0.48469078386E+00 -0.10165489864E+01 -0.35004017236E+01  0.36771061292E+01  0.51100000000E-03 0. -1.
        -11    1    3    3    0    0  0.87889037937E+01  0.10652111346E+02 -0.47422453197E+01  0.14601410787E+02  0.51100000000E-03 0.  1.
         12    1    3    3    0    0  0.21774207469E+02  0.19876032752E+02  0.12624629703E+01  0.29508754661E+02  0.00000000000E+00 0. -1.
</event>
<event>
 7    1  0.4621547E-010  0.4778727E+02  0.7816164E-02  0.1312668E+00
        -11   -1    0    0    0    0  0.00000000000E+00  0.00000000000E+00  0.45593999997E+02  0.45594000000E+02  0.51100000000E-03 0.  1.
         11   -1    0    0    0    0 -0.00000000000E+00 -0.00000000000E+00 -0.45593999997E+02  0.45594000000E+02  0.51100000000E-03 0. -1.
    9900012    2    1    2    0    0  0.34144191518E+01  0.28750420401E+02 -0.32332311231E+02  0.47787270963E+02  0.19999999629E+02 0.  0.
        -12    1    1    2    0    0 -0.34144191518E+01 -0.28750420401E+02  0.32332311231E+02  0.43400729037E+02  0.00000000000E+00 0.  1.
         11    1    3    3    0    0  0.14959229289E+01  0.20794422298E+02 -0.15686121665E+02  0.26090231836E+02  0.51100000000E-03 0. -1.
        -11    1    3    3    0    0 -0.32653857718E+01  0.70292938110E+01 -0.13488589410E+02  0.15556855732E+02  0.51100000000E-03 0.  1.
        -12    1    3    3    0    0  0.51838819947E+01  0.92670429233E+00 -0.31576001559E+01  0.61401833951E+01  0.00000000000E+00 0.  1.
</event>
<event>
 7    1  0.4621547E-010  0.4778727E+02  0.7816164E-02  0.1312668E+00
        -11   -1    0    0    0    0  0.00000000000E+00  0.00000000000E+00  0.45593999997E+02  0.45594000000E+02  0.51100000000E-03 0.  1.
         11   -1    0    0    0    0 -0.00000000000E+00 -0.00000000000E+00 -0.45593999997E+02  0.45594000000E+02  0.51100000000E-03 0. -1.
    9900012    2    1    2    0    0 -0.37936195298E+00 -0.36510870778E+02 -0.23461362310E+02  0.47787272795E+02  0.20000007983E+02 0.  0.
        -12    1    1    2    0    0  0.37936195298E+00  0.36510870778E+02  0.23461362310E+02  0.43400727205E+02  0.00000000000E+00 0.  1.
         11    1    3    3    0    0 -0.33974250944E+01 -0.30346499606E+01 -0.72497170403E+00  0.46127195761E+01  0.51100000000E-03 0. -1.
        -11    1    3    3    0    0 -0.27586674085E+01 -0.35074856614E+00 -0.40738091202E+00  0.28105568658E+01  0.51100000000E-03 0.  1.
         12    1    3    3    0    0  0.57767305499E+01 -0.33125472251E+02 -0.22329009694E+02  0.40363996353E+02  0.00000000000E+00 0. -1.
</event>
<event>
 7    1  0.4621547E-010  0.4778727E+02  0.7816164E-02  0.1312668E+00
        -11   -1    0    0    0    0  0.00000000000E+00  0.00000000000E+00  0.45593999997E+02  0.45594000000E+02  0.51100000000E-03 0.  1.
         11   -1    0    0    0    0 -0.00000000000E+00 -0.00000000000E+00 -0.45593999997E+02  0.45594000000E+02  0.51100000000E-03 0. -1.
    9900012    2    1    2    0    0 -0.31968936924E+02 -0.16621287289E+02 -0.24193867931E+02  0.47787269999E+02  0.19999995234E+02 0.  0.
        -12    1    1    2    0    0  0.31968936924E+02  0.16621287289E+02  0.24193867931E+02  0.43400730001E+02  0.00000000000E+00 0.  1.
         11    1    3    3    0    0 -0.10451370841E+02 -0.76538753476E+01 -0.17496911504E+02  0.21770504650E+02  0.51100000000E-03 0. -1.
        -11    1    3    3    0    0 -0.12811063377E+02 -0.59760563352E+01 -0.86950146600E+01  0.16596381364E+02  0.51100000000E-03 0.  1.
        -12    1    3    3    0    0 -0.87065027057E+01 -0.29913556058E+01  0.19980582328E+01  0.94203839850E+01  0.00000000000E+00 0.  1.
</event>
<event>
 7    1  0.4621547E-010  0.4778727E+02  0.7816164E-02  0.1312668E+00
        -11   -1    0    0    0    0  0.00000000000E+00  0.00000000000E+00  0.45593999997E+02  0.45594000000E+02  0.51100000000E-03 0.  1.
         11   -1    0    0    0    0 -0.00000000000E+00 -0.00000000000E+00 -0.45593999997E+02  0.45594000000E+02  0.51100000000E-03 0. -1.
    9900012    2    1    2    0    0  0.21829927433E+02 -0.37048540843E+02 -0.58722754361E+01  0.47787265800E+02  0.19999976087E+02 0.  0.
        -12    1    1    2    0    0 -0.21829927433E+02  0.37048540843E+02  0.58722754361E+01  0.43400734200E+02  0.00000000000E+00 0.  1.
         11    1    3    3    0    0  0.11646074987E+02 -0.24613536152E+02 -0.41698366971E+01  0.27547137108E+02  0.51100000000E-03 0. -1.
        -11    1    3    3    0    0 -0.13358224358E+01 -0.75083387600E+01 -0.99949473636E+00  0.76914603622E+01  0.51100000000E-03 0.  1.
         12    1    3    3    0    0  0.11519674881E+02 -0.49266659314E+01 -0.70294400264E+00  0.12548668330E+02  0.00000000000E+00 0. -1.
</event>
<event>
 7    1  0.4621547E-010  0.4778727E+02  0.7816164E-02  0.1312668E+00
        -11   -1    0    0    0    0  0.00000000000E+00  0.00000000000E+00  0.45593999997E+02  0.45594000000E+02  0.51100000000E-03 0.  1.
         11   -1    0    0    0    0 -0.00000000000E+00 -0.00000000000E+00 -0.45593999997E+02  0.45594000000E+02  0.51100000000E-03 0. -1.
    9900012    2    1    2    0    0  0.11790609525E+02 -0.41734400730E+02  0.16864966899E+01  0.47787274795E+02  0.20000017099E+02 0.  0.
        -12    1    1    2    0    0 -0.11790609525E+02  0.41734400730E+02 -0.16864966899E+01  0.43400725205E+02  0.00000000000E+00 0.  1.
         11    1    3    3    0    0  0.31804277212E+01 -0.14099835904E+02 -0.22227408847E+01  0.14623989548E+02  0.51100000000E-03 0. -1.
        -11    1    3    3    0    0  0.37677091135E+01 -0.16396255054E+02  0.99190440644E+01  0.19529983286E+02  0.51100000000E-03 0.  1.
        -12    1    3    3    0    0  0.48424726907E+01 -0.11238309772E+02 -0.60098064898E+01  0.13633301960E+02  0.00000000000E+00 0.  1.
</event>
<event>
 7    1  0.4621547E-010  0.4778727E+02  0.7816164E-02  0.1312668E+00
        -11   -1    0    0    0    0  0.00000000000E+00  0.00000000000E+00  0.45593999997E+02  0.45594000000E+02  0.51100000000E-03 0.  1.
         11   -1    0    0    0    0 -0.00000000000E+00 -0.00000000000E+00 -0.45593999997E+02  0.45594000000E+02  0.51100000000E-03 0. -1.
    9900012    2    1    2    0    0 -0.20945322045E+02 -0.14304933041E+02 -0.35217690147E+02  0.47787270465E+02  0.19999997360E+02 0.  0.
        -12    1    1    2    0    0  0.20945322045E+02  0.14304933041E+02  0.35217690147E+02  0.43400729535E+02  0.00000000000E+00 0.  1.
         11    1    3    3    0    0 -0.35001526299E+01 -0.71383142139E+01 -0.81687681017E+01  0.11398919721E+02  0.51100000000E-03 0. -1.
        -11    1    3    3    0    0 -0.16203771889E+02 -0.56551058772E+01 -0.11367673161E+02  0.20585588145E+02  0.51100000000E-03 0.  1.
        -12    1    3    3    0    0 -0.12413975256E+01 -0.15115129502E+01 -0.15681248884E+02  0.15802762599E+02  0.00000000000E+00 0.  1.
</event>
<event>
 7    1  0.4621547E-010  0.4778727E+02  0.7816164E-02  0.1312668E+00
        -11   -1    0    0    0    0  0.00000000000E+00  0.00000000000E+00  0.45593999997E+02  0.45594000000E+02  0.51100000000E-03 0.  1.
         11   -1    0    0    0    0 -0.00000000000E+00 -0.00000000000E+00 -0.45593999997E+02  0.45594000000E+02  0.51100000000E-03 0. -1.
    9900012    2    1    2    0    0 -0.29063371178E+02 -0.24425614822E+02 -0.21031717320E+02  0.47787270316E+02  0.19999996679E+02 0.  0.
        -12    1    1    2    0    0  0.29063371178E+02  0.24425614822E+02  0.21031717320E+02  0.43400729684E+02  0.00000000000E+00 0.  1.
         11    1    3    3    0    0 -0.14059418753E+01 -0.99544833174E+01 -0.61700314934E+01  0.11795664439E+02  0.51100000000E-03 0. -1.
        -11    1    3    3    0    0 -0.12823075301E+01 -0.25532478533E+01 -0.43392461093E+01  0.51954253204E+01  0.51100000000E-03 0.  1.
        -12    1    3    3    0    0 -0.26375121772E+02 -0.11917883652E+02 -0.10522439718E+02  0.30796180556E+02  0.00000000000E+00 0.  1.
</event>
<event>
 7    1  0.4621547E-010  0.4778728E+02  0.7816164E-02  0.1312668E+00
        -11   -1    0    0    0    0  0.00000000000E+00  0.00000000000E+00  0.45593999997E+02  0.45594000000E+02  0.51100000000E-03 0. -1.
         11   -1    0    0    0    0 -0.00000000000E+00 -0.00000000000E+00 -0.45593999997E+02  0.45594000000E+02  0.51100000000E-03 0.  1.
    9900012    2    1    2    0    0  0.49745208542E+01  0.23427162015E+02  0.36194545127E+02  0.47787275643E+02  0.20000020966E+02 0.  0.
        -12    1    1    2    0    0 -0.49745208542E+01 -0.23427162015E+02 -0.36194545127E+02  0.43400724357E+02  0.00000000000E+00 0.  1.
         11    1    3    3    0    0  0.34823889115E+01 -0.20687415414E-01  0.16878424739E+01  0.38699189885E+01  0.51100000000E-03 0. -1.
        -11    1    3    3    0    0  0.61343662513E+01  0.99093256581E+01  0.22062760324E+02  0.24951765021E+02  0.51100000000E-03 0.  1.
        -12    1    3    3    0    0 -0.46422343085E+01  0.13538523772E+02  0.12443942329E+02  0.18965591633E+02  0.00000000000E+00 0.  1.
</event>
<event>
 7    1  0.4621547E-010  0.4778727E+02  0.7816164E-02  0.1312668E+00
        -11   -1    0    0    0    0  0.00000000000E+00  0.00000000000E+00  0.45593999997E+02  0.45594000000E+02  0.51100000000E-03 0.  1.
         11   -1    0    0    0    0 -0.00000000000E+00 -0.00000000000E+00 -0.45593999997E+02  0.45594000000E+02  0.51100000000E-03 0. -1.
    9900012    2    1    2    0    0 -0.11279280751E+02  0.14035631761E+02 -0.39489265327E+02  0.47787271789E+02  0.20000003393E+02 0.  0.
        -12    1    1    2    0    0  0.11279280751E+02 -0.14035631761E+02  0.39489265327E+02  0.43400728211E+02  0.00000000000E+00 0.  1.
         11    1    3    3    0    0 -0.17500132196E+00  0.11284440451E+01 -0.45074364051E+01  0.46498381297E+01  0.51100000000E-03 0. -1.
        -11    1    3    3    0    0  0.21784389645E+01  0.73630315769E+01 -0.23508574099E+02  0.24730808454E+02  0.51100000000E-03 0.  1.
         12    1    3    3    0    0 -0.13282718394E+02  0.55441561389E+01 -0.11473254823E+02  0.18406625205E+02  0.00000000000E+00 0. -1.
</event>
<event>
 7    1  0.4621547E-010  0.4778728E+02  0.7816164E-02  0.1312668E+00
        -11   -1    0    0    0    0  0.00000000000E+00  0.00000000000E+00  0.45593999997E+02  0.45594000000E+02  0.51100000000E-03 0.  1.
         11   -1    0    0    0    0 -0.00000000000E+00 -0.00000000000E+00 -0.45593999997E+02  0.45594000000E+02  0.51100000000E-03 0. -1.
    9900012    2    1    2    0    0  0.11925877437E+02 -0.17632609588E+02 -0.37821784620E+02  0.47787275751E+02  0.20000021459E+02 0.  0.
        -12    1    1    2    0    0 -0.11925877437E+02  0.17632609588E+02  0.37821784620E+02  0.43400724249E+02  0.00000000000E+00 0.  1.
         11    1    3    3    0    0  0.23245494319E+01 -0.27737805164E+01 -0.19726110449E+02  0.20055343979E+02  0.51100000000E-03 0. -1.
        -11    1    3    3    0    0  0.16081774858E+01 -0.56991890387E+01 -0.13488839243E+02  0.14731455288E+02  0.51100000000E-03 0.  1.
        -12    1    3    3    0    0  0.79931505194E+01 -0.91596400324E+01 -0.46068349276E+01  0.13000476484E+02  0.00000000000E+00 0.  1.
</event>
<event>
 7    1  0.4621547E-010  0.4778727E+02  0.7816164E-02  0.1312668E+00
        -11   -1    0    0    0    0  0.00000000000E+00  0.00000000000E+00  0.45593999997E+02  0.45594000000E+02  0.51100000000E-03 0.  1.
         11   -1    0    0    0    0 -0.00000000000E+00 -0.00000000000E+00 -0.45593999997E+02  0.45594000000E+02  0.51100000000E-03 0. -1.
    9900012    2    1    2    0    0 -0.23714830077E+02  0.33425094992E+02 -0.14282617133E+02  0.47787270824E+02  0.19999998997E+02 0.  0.
        -12    1    1    2    0    0  0.23714830077E+02 -0.33425094992E+02  0.14282617133E+02  0.43400729176E+02  0.00000000000E+00 0.  1.
         11    1    3    3    0    0 -0.68177726169E+01  0.14607653271E+02 -0.77593956889E+01  0.17890605894E+02  0.51100000000E-03 0. -1.
        -11    1    3    3    0    0 -0.10288029467E+02  0.17132596289E+02  0.65492931830E+00  0.19994957829E+02  0.51100000000E-03 0.  1.
        -12    1    3    3    0    0 -0.66090279935E+01  0.16848454314E+01 -0.71781507623E+01  0.99017071009E+01  0.00000000000E+00 0.  1.
</event>
<event>
 7    1  0.4621547E-010  0.4778727E+02  0.7816164E-02  0.1312668E+00
        -11   -1    0    0    0    0  0.00000000000E+00  0.00000000000E+00  0.45593999997E+02  0.45594000000E+02  0.51100000000E-03 0.  1.
         11   -1    0    0    0    0 -0.00000000000E+00 -0.00000000000E+00 -0.45593999997E+02  0.45594000000E+02  0.51100000000E-03 0. -1.
    9900012    2    1    2    0    0 -0.16257644073E+02 -0.94150546271E+01 -0.39123765630E+02  0.47787270956E+02  0.19999999598E+02 0.  0.
        -12    1    1    2    0    0  0.16257644073E+02  0.94150546271E+01  0.39123765630E+02  0.43400729044E+02  0.00000000000E+00 0.  1.
         11    1    3    3    0    0 -0.40496367775E+01 -0.82175915524E+00 -0.11217798825E+02  0.11954658375E+02  0.51100000000E-03 0. -1.
        -11    1    3    3    0    0  0.16289495074E+01 -0.69909190903E+01 -0.15891919964E+02  0.17437876781E+02  0.51100000000E-03 0.  1.
        -12    1    3    3    0    0 -0.13836956803E+02 -0.16023763815E+01 -0.12014046841E+02  0.18394735800E+02  0.00000000000E+00 0.  1.
</event>
<event>
 7    1  0.4621547E-010  0.4778727E+02  0.7816164E-02  0.1312668E+00
        -11   -1    0    0    0    0  0.00000000000E+00  0.00000000000E+00  0.45593999997E+02  0.45594000000E+02  0.51100000000E-03 0. -1.
         11   -1    0    0    0    0 -0.00000000000E+00 -0.00000000000E+00 -0.45593999997E+02  0.45594000000E+02  0.51100000000E-03 0.  1.
    9900012    2    1    2    0    0  0.29440384609E+02 -0.31228234401E+02  0.64563399647E+01  0.47787271948E+02  0.20000004119E+02 0.  0.
        -12    1    1    2    0    0 -0.29440384609E+02  0.31228234401E+02 -0.64563399647E+01  0.43400728052E+02  0.00000000000E+00 0.  1.
         11    1    3    3    0    0  0.14229572502E+02 -0.55662193207E+01  0.53315619268E+01  0.16182987486E+02  0.51100000000E-03 0. -1.
        -11    1    3    3    0    0  0.35677788916E+01 -0.68692358993E+01  0.49226541805E+01  0.91732203997E+01  0.51100000000E-03 0.  1.
         12    1    3    3    0    0  0.11643033216E+02 -0.18792779181E+02 -0.37978761425E+01  0.22431064063E+02  0.00000000000E+00 0. -1.
</event>
<event>
 7    1  0.4621547E-010  0.4778727E+02  0.7816164E-02  0.1312668E+00
        -11   -1    0    0    0    0  0.00000000000E+00  0.00000000000E+00  0.45593999997E+02  0.45594000000E+02  0.51100000000E-03 0. -1.
         11   -1    0    0    0    0 -0.00000000000E+00 -0.00000000000E+00 -0.45593999997E+02  0.45594000000E+02  0.51100000000E-03 0.  1.
    9900012    2    1    2    0    0  0.13212833532E+02 -0.34461577000E+02  0.22835152020E+02  0.47787269280E+02  0.19999991954E+02 0.  0.
        -12    1    1    2    0    0 -0.13212833532E+02  0.34461577000E+02 -0.22835152020E+02  0.43400730720E+02  0.00000000000E+00 0.  1.
         11    1    3    3    0    0  0.30299258329E+01 -0.66810915623E+01  0.10197000436E+02  0.12561697862E+02  0.51100000000E-03 0. -1.
        -11    1    3    3    0    0  0.21590655770E+01 -0.27127681924E+01  0.77016548709E+01  0.84460738478E+01  0.51100000000E-03 0.  1.
         12    1    3    3    0    0  0.80238421217E+01 -0.25067717246E+02  0.49364967123E+01  0.26779497570E+02  0.00000000000E+00 0. -1.
</event>
<event>
 7    1  0.4621547E-010  0.4778727E+02  0.7816164E-02  0.1312668E+00
        -11   -1    0    0    0    0  0.00000000000E+00  0.00000000000E+00  0.45593999997E+02  0.45594000000E+02  0.51100000000E-03 0. -1.
         11   -1    0    0    0    0 -0.00000000000E+00 -0.00000000000E+00 -0.45593999997E+02  0.45594000000E+02  0.51100000000E-03 0.  1.
    9900012    2    1    2    0    0 -0.39935930760E+02 -0.20183731476E+01  0.16872196100E+02  0.47787269626E+02  0.19999993531E+02 0.  0.
        -12    1    1    2    0    0  0.39935930760E+02  0.20183731476E+01 -0.16872196100E+02  0.43400730374E+02  0.00000000000E+00 0.  1.
         11    1    3    3    0    0 -0.93610906388E+01 -0.40981295191E+01  0.42634873648E+01  0.11072579116E+02  0.51100000000E-03 0. -1.
        -11    1    3    3    0    0 -0.87093515365E+01 -0.64192100830E+01  0.21556391181E+01  0.11032037099E+02  0.51100000000E-03 0.  1.
         12    1    3    3    0    0 -0.21865488584E+02  0.84989664545E+01  0.10453069617E+02  0.25682653411E+02  0.00000000000E+00 0. -1.
</event>
<event>
 7    1  0.4621547E-010  0.4778727E+02  0.7816164E-02  0.1312668E+00
        -11   -1    0    0    0    0  0.00000000000E+00  0.00000000000E+00  0.45593999997E+02  0.45594000000E+02  0.51100000000E-03 0. -1.
         11   -1    0    0    0    0 -0.00000000000E+00 -0.00000000000E+00 -0.45593999997E+02  0.45594000000E+02  0.51100000000E-03 0.  1.
    9900012    2    1    2    0    0 -0.28462939534E+02  0.30375440592E+02  0.12280757828E+02  0.47787270388E+02  0.19999997006E+02 0.  0.
        -12    1    1    2    0    0  0.28462939534E+02 -0.30375440592E+02 -0.12280757828E+02  0.43400729612E+02  0.00000000000E+00 0.  1.
         11    1    3    3    0    0 -0.22573242317E+02  0.23536636932E+02  0.13314659570E+02  0.35225057935E+02  0.51100000000E-03 0. -1.
        -11    1    3    3    0    0 -0.64734132966E+01  0.64559733970E+01  0.20757708139E+01  0.93751531691E+01  0.51100000000E-03 0.  1.
        -12    1    3    3    0    0  0.58371607977E+00  0.38283026279E+00 -0.31096725562E+01  0.31870592838E+01  0.00000000000E+00 0.  1.
</event>
<event>
 7    1  0.4621547E-010  0.4778727E+02  0.7816164E-02  0.1312668E+00
        -11   -1    0    0    0    0  0.00000000000E+00  0.00000000000E+00  0.45593999997E+02  0.45594000000E+02  0.51100000000E-03 0. -1.
         11   -1    0    0    0    0 -0.00000000000E+00 -0.00000000000E+00 -0.45593999997E+02  0.45594000000E+02  0.51100000000E-03 0.  1.
    9900012    2    1    2    0    0  0.25435635783E+02  0.33456288565E+02  0.10831834291E+02  0.47787269057E+02  0.19999990940E+02 0.  0.
        -12    1    1    2    0    0 -0.25435635783E+02 -0.33456288565E+02 -0.10831834291E+02  0.43400730943E+02  0.00000000000E+00 0.  1.
         11    1    3    3    0    0  0.12253853486E+02  0.10042564829E+02  0.11101694949E+02  0.19345740218E+02  0.51100000000E-03 0. -1.
        -11    1    3    3    0    0  0.50610267808E+01  0.43494204100E+01  0.32505723616E+01  0.74227805382E+01  0.51100000000E-03 0.  1.
        -12    1    3    3    0    0  0.81207555160E+01  0.19064303327E+02 -0.35204330197E+01  0.21018748301E+02  0.00000000000E+00 0.  1.
</event>
<event>
 7    1  0.4621547E-010  0.4778725E+02  0.7816164E-02  0.1312668E+00
        -11   -1    0    0    0    0  0.00000000000E+00  0.00000000000E+00  0.45593999997E+02  0.45594000000E+02  0.51100000000E-03 0. -1.
         11   -1    0    0    0    0 -0.00000000000E+00 -0.00000000000E+00 -0.45593999997E+02  0.45594000000E+02  0.51100000000E-03 0.  1.
    9900012    2    1    2    0    0 -0.38929699985E+02  0.10748460721E+02  0.15892570474E+02  0.47787254095E+02  0.19999922722E+02 0.  0.
        -12    1    1    2    0    0  0.38929699985E+02 -0.10748460721E+02 -0.15892570474E+02  0.43400745905E+02  0.00000000000E+00 0.  1.
         11    1    3    3    0    0 -0.17120517953E+02  0.62181114956E+01  0.11481347258E+02  0.21531334856E+02  0.51100000000E-03 0. -1.
        -11    1    3    3    0    0  0.69638795276E-01 -0.33774005574E+00  0.38186901542E+01  0.38342290831E+01  0.51100000000E-03 0.  1.
         12    1    3    3    0    0 -0.21878820828E+02  0.48680892808E+01  0.59253306194E+00  0.22421690157E+02  0.00000000000E+00 0. -1.
</event>
<event>
 7    1  0.4621547E-010  0.4778727E+02  0.7816164E-02  0.1312668E+00
        -11   -1    0    0    0    0  0.00000000000E+00  0.00000000000E+00  0.45593999997E+02  0.45594000000E+02  0.51100000000E-03 0.  1.
         11   -1    0    0    0    0 -0.00000000000E+00 -0.00000000000E+00 -0.45593999997E+02  0.45594000000E+02  0.51100000000E-03 0. -1.
    9900012    2    1    2    0    0  0.54876003255E+01  0.40621570467E+02  0.14261759496E+02  0.47787268112E+02  0.19999986630E+02 0.  0.
        -12    1    1    2    0    0 -0.54876003255E+01 -0.40621570467E+02 -0.14261759496E+02  0.43400731888E+02  0.00000000000E+00 0.  1.
         11    1    3    3    0    0  0.43006276912E+01  0.29756760860E+02  0.55577659584E+01  0.30575300132E+02  0.51100000000E-03 0. -1.
        -11    1    3    3    0    0 -0.34203666057E+01  0.70021182500E+01  0.16903958913E+01  0.79740834103E+01  0.51100000000E-03 0.  1.
         12    1    3    3    0    0  0.46073392399E+01  0.38626913562E+01  0.70135976461E+01  0.92378845698E+01  0.00000000000E+00 0. -1.
</event>
<event>
 7    1  0.4621547E-010  0.4778727E+02  0.7816164E-02  0.1312668E+00
        -11   -1    0    0    0    0  0.00000000000E+00  0.00000000000E+00  0.45593999997E+02  0.45594000000E+02  0.51100000000E-03 0.  1.
         11   -1    0    0    0    0 -0.00000000000E+00 -0.00000000000E+00 -0.45593999997E+02  0.45594000000E+02  0.51100000000E-03 0. -1.
    9900012    2    1    2    0    0 -0.31148773890E+02 -0.30222135849E+02 -0.45080949157E-02  0.47787266937E+02  0.19999981271E+02 0.  0.
        -12    1    1    2    0    0  0.31148773890E+02  0.30222135849E+02  0.45080949157E-02  0.43400733063E+02  0.00000000000E+00 0.  1.
         11    1    3    3    0    0 -0.35896793740E+01 -0.18113572701E+01  0.20128073326E+01  0.44964660332E+01  0.51100000000E-03 0. -1.
        -11    1    3    3    0    0 -0.51787387205E+01  0.15376244895E+01 -0.23771603224E+01  0.59020771992E+01  0.51100000000E-03 0.  1.
         12    1    3    3    0    0 -0.22380355795E+02 -0.29948403069E+02  0.35984489493E+00  0.37388723704E+02  0.00000000000E+00 0. -1.
</event>
<event>
 7    1  0.4621547E-010  0.4778727E+02  0.7816164E-02  0.1312668E+00
        -11   -1    0    0    0    0  0.00000000000E+00  0.00000000000E+00  0.45593999997E+02  0.45594000000E+02  0.51100000000E-03 0. -1.
         11   -1    0    0    0    0 -0.00000000000E+00 -0.00000000000E+00 -0.45593999997E+02  0.45594000000E+02  0.51100000000E-03 0.  1.
    9900012    2    1    2    0    0  0.11293471715E+02  0.34906745406E+02  0.23186202419E+02  0.47787270043E+02  0.19999995434E+02 0.  0.
        -12    1    1    2    0    0 -0.11293471715E+02 -0.34906745406E+02 -0.23186202419E+02  0.43400729957E+02  0.00000000000E+00 0.  1.
         11    1    3    3    0    0  0.71396352918E-02  0.13404264203E+02  0.12581418176E+02  0.18383863397E+02  0.51100000000E-03 0. -1.
        -11    1    3    3    0    0  0.97238208086E+01  0.97149522336E+01  0.10847904200E+02  0.17510283088E+02  0.51100000000E-03 0.  1.
         12    1    3    3    0    0  0.15625112712E+01  0.11787528969E+02 -0.24311995736E+00  0.11893123559E+02  0.00000000000E+00 0. -1.
</event>
<event>
 7    1  0.4621547E-010  0.4778726E+02  0.7816164E-02  0.1312668E+00
        -11   -1    0    0    0    0  0.00000000000E+00  0.00000000000E+00  0.45593999997E+02  0.45594000000E+02  0.51100000000E-03 0.  1.
         11   -1    0    0    0    0 -0.00000000000E+00 -0.00000000000E+00 -0.45593999997E+02  0.45594000000E+02  0.51100000000E-03 0. -1.
    9900012    2    1    2    0    0 -0.13927298100E+02  0.15148595040E+02 -0.38212234685E+02  0.47787257567E+02  0.19999938553E+02 0.  0.
        -12    1    1    2    0    0  0.13927298100E+02 -0.15148595040E+02  0.38212234685E+02  0.43400742433E+02  0.00000000000E+00 0.  1.
         11    1    3    3    0    0 -0.12098773700E+02  0.11235217887E+02 -0.35076820687E+02  0.38768463934E+02  0.51100000000E-03 0. -1.
        -11    1    3    3    0    0 -0.33704653753E+01 -0.50306158723E+00 -0.26478501955E+01  0.43155786084E+01  0.51100000000E-03 0.  1.
        -12    1    3    3    0    0  0.15419409755E+01  0.44164387397E+01 -0.48756380330E+00  0.47032150254E+01  0.00000000000E+00 0.  1.
</event>
<event>
 7    1  0.4621547E-010  0.4778726E+02  0.7816164E-02  0.1312668E+00
        -11   -1    0    0    0    0  0.00000000000E+00  0.00000000000E+00  0.45593999997E+02  0.45594000000E+02  0.51100000000E-03 0. -1.
         11   -1    0    0    0    0 -0.00000000000E+00 -0.00000000000E+00 -0.45593999997E+02  0.45594000000E+02  0.51100000000E-03 0.  1.
    9900012    2    1    2    0    0 -0.24116764697E+02 -0.35934898377E+02 -0.32693334199E+01  0.47787264962E+02  0.19999972267E+02 0.  0.
        -12    1    1    2    0    0  0.24116764697E+02  0.35934898377E+02  0.32693334199E+01  0.43400735038E+02  0.00000000000E+00 0.  1.
         11    1    3    3    0    0 -0.15023368545E+01 -0.46183605244E+01  0.43462917932E+01  0.65174015198E+01  0.51100000000E-03 0. -1.
        -11    1    3    3    0    0 -0.59124532773E+01 -0.16565505527E+02  0.38644650232E+00  0.17593249225E+02  0.51100000000E-03 0.  1.
        -12    1    3    3    0    0 -0.16701974566E+02 -0.14751032326E+02 -0.80020717154E+01  0.23676614217E+02  0.00000000000E+00 0.  1.
</event>
<event>
 7    1  0.4621547E-010  0.4778727E+02  0.7816164E-02  0.1312668E+00
        -11   -1    0    0    0    0  0.00000000000E+00  0.00000000000E+00  0.45593999997E+02  0.45594000000E+02  0.51100000000E-03 0. -1.
         11   -1    0    0    0    0 -0.00000000000E+00 -0.00000000000E+00 -0.45593999997E+02  0.45594000000E+02  0.51100000000E-03 0.  1.
    9900012    2    1    2    0    0 -0.98828314220E+01 -0.42242056681E+02  0.12496449233E+01  0.47787270490E+02  0.19999997472E+02 0.  0.
        -12    1    1    2    0    0  0.98828314220E+01  0.42242056681E+02 -0.12496449233E+01  0.43400729510E+02  0.00000000000E+00 0.  1.
         11    1    3    3    0    0 -0.10791784954E+01 -0.11785082158E+02  0.37020304088E+01  0.12399911979E+02  0.51100000000E-03 0. -1.
        -11    1    3    3    0    0 -0.79400782052E+01 -0.67728349819E+01  0.33989511313E+01  0.10975837310E+02  0.51100000000E-03 0.  1.
         12    1    3    3    0    0 -0.86357472141E+00 -0.23684139542E+02 -0.58513366169E+01  0.24411521201E+02  0.00000000000E+00 0. -1.
</event>
<event>
 7    1  0.4621547E-010  0.4778727E+02  0.7816164E-02  0.1312668E+00
        -11   -1    0    0    0    0  0.00000000000E+00  0.00000000000E+00  0.45593999997E+02  0.45594000000E+02  0.51100000000E-03 0.  1.
         11   -1    0    0    0    0 -0.00000000000E+00 -0.00000000000E+00 -0.45593999997E+02  0.45594000000E+02  0.51100000000E-03 0. -1.
    9900012    2    1    2    0    0  0.13804118012E+02 -0.36447166953E+02 -0.19096429168E+02  0.47787271204E+02  0.20000000729E+02 0.  0.
        -12    1    1    2    0    0 -0.13804118012E+02  0.36447166953E+02  0.19096429168E+02  0.43400728796E+02  0.00000000000E+00 0.  1.
         11    1    3    3    0    0  0.58656715239E+01 -0.14372847904E+02 -0.60140402802E+01  0.16647929002E+02  0.51100000000E-03 0. -1.
        -11    1    3    3    0    0 -0.30590904567E+01  0.52295108866E-01  0.23770327363E+00  0.30687574534E+01  0.51100000000E-03 0.  1.
        -12    1    3    3    0    0  0.10997536945E+02 -0.22126614158E+02 -0.13320092162E+02  0.28070584749E+02  0.00000000000E+00 0.  1.
</event>
<event>
 7    1  0.4621547E-010  0.4778727E+02  0.7816164E-02  0.1312668E+00
        -11   -1    0    0    0    0  0.00000000000E+00  0.00000000000E+00  0.45593999997E+02  0.45594000000E+02  0.51100000000E-03 0.  1.
         11   -1    0    0    0    0 -0.00000000000E+00 -0.00000000000E+00 -0.45593999997E+02  0.45594000000E+02  0.51100000000E-03 0. -1.
    9900012    2    1    2    0    0  0.84809432906E+01  0.20081156727E+02 -0.37529243303E+02  0.47787270081E+02  0.19999995608E+02 0.  0.
        -12    1    1    2    0    0 -0.84809432906E+01 -0.20081156727E+02  0.37529243303E+02  0.43400729919E+02  0.00000000000E+00 0.  1.
         11    1    3    3    0    0  0.10571065985E+01  0.11300479226E+02 -0.13499309881E+02  0.17636600370E+02  0.51100000000E-03 0. -1.
        -11    1    3    3    0    0  0.20352631194E+01  0.11461878368E+02 -0.12112967547E+02  0.16800027820E+02  0.51100000000E-03 0.  1.
        -12    1    3    3    0    0  0.53885735727E+01 -0.26812008672E+01 -0.11916965875E+02  0.13350641891E+02  0.00000000000E+00 0.  1.
</event>
<event>
 7    1  0.4621547E-010  0.4778727E+02  0.7816164E-02  0.1312668E+00
        -11   -1    0    0    0    0  0.00000000000E+00  0.00000000000E+00  0.45593999997E+02  0.45594000000E+02  0.51100000000E-03 0.  1.
         11   -1    0    0    0    0 -0.00000000000E+00 -0.00000000000E+00 -0.45593999997E+02  0.45594000000E+02  0.51100000000E-03 0. -1.
    9900012    2    1    2    0    0  0.18781644518E+01  0.38982303810E+02 -0.18986204958E+02  0.47787268546E+02  0.19999988607E+02 0.  0.
        -12    1    1    2    0    0 -0.18781644518E+01 -0.38982303810E+02  0.18986204958E+02  0.43400731454E+02  0.00000000000E+00 0.  1.
         11    1    3    3    0    0  0.25453734673E+01  0.11416323876E+02 -0.74992999669E+01  0.13894274978E+02  0.51100000000E-03 0. -1.
        -11    1    3    3    0    0 -0.52393434909E+01  0.65701080918E+01 -0.89156567940E+01  0.12251774438E+02  0.51100000000E-03 0.  1.
         12    1    3    3    0    0  0.45721344755E+01  0.20995871843E+02 -0.25712481974E+01  0.21641219129E+02  0.00000000000E+00 0. -1.
</event>
<event>
 7    1  0.4621547E-010  0.4778728E+02  0.7816164E-02  0.1312668E+00
        -11   -1    0    0    0    0  0.00000000000E+00  0.00000000000E+00  0.45593999997E+02  0.45594000000E+02  0.51100000000E-03 0.  1.
         11   -1    0    0    0    0 -0.00000000000E+00 -0.00000000000E+00 -0.45593999997E+02  0.45594000000E+02  0.51100000000E-03 0. -1.
    9900012    2    1    2    0    0  0.16676161393E+02  0.29865618614E+02 -0.26712793447E+02  0.47787275724E+02  0.20000021334E+02 0.  0.
        -12    1    1    2    0    0 -0.16676161393E+02 -0.29865618614E+02  0.26712793447E+02  0.43400724276E+02  0.00000000000E+00 0.  1.
         11    1    3    3    0    0  0.39518044287E+01  0.89100230099E+00 -0.34488509286E+01  0.53202646863E+01  0.51100000000E-03 0. -1.
        -11    1    3    3    0    0 -0.36686752146E+01  0.79086808445E+01 -0.42811834386E+01  0.97126176918E+01  0.51100000000E-03 0.  1.
         12    1    3    3    0    0  0.16393032179E+02  0.21065935468E+02 -0.18982759079E+02  0.32754393346E+02  0.00000000000E+00 0. -1.
</event>
<event>
 7    1  0.4621547E-010  0.4778727E+02  0.7816164E-02  0.1312668E+00
        -11   -1    0    0    0    0  0.00000000000E+00  0.00000000000E+00  0.45593999997E+02  0.45594000000E+02  0.51100000000E-03 0.  1.
         11   -1    0    0    0    0 -0.00000000000E+00 -0.00000000000E+00 -0.45593999997E+02  0.45594000000E+02  0.51100000000E-03 0. -1.
    9900012    2    1    2    0    0  0.15271294688E+02  0.55810124691E+01 -0.40240066910E+02  0.47787272741E+02  0.20000007737E+02 0.  0.
        -12    1    1    2    0    0 -0.15271294688E+02 -0.55810124691E+01  0.40240066910E+02  0.43400727259E+02  0.00000000000E+00 0.  1.
         11    1    3    3    0    0 -0.92286532698E+00  0.84703687915E+01 -0.14805789676E+02  0.17082454041E+02  0.51100000000E-03 0. -1.
        -11    1    3    3    0    0  0.31070904286E+01 -0.13651846318E+01 -0.23594649483E+01  0.41333781722E+01  0.51100000000E-03 0.  1.
         12    1    3    3    0    0  0.13087069587E+02 -0.15241716905E+01 -0.23074812286E+02  0.26571440528E+02  0.00000000000E+00 0. -1.
</event>
<event>
 7    1  0.4621547E-010  0.4778727E+02  0.7816164E-02  0.1312668E+00
        -11   -1    0    0    0    0  0.00000000000E+00  0.00000000000E+00  0.45593999997E+02  0.45594000000E+02  0.51100000000E-03 0. -1.
         11   -1    0    0    0    0 -0.00000000000E+00 -0.00000000000E+00 -0.45593999997E+02  0.45594000000E+02  0.51100000000E-03 0.  1.
    9900012    2    1    2    0    0 -0.51083118978E+01 -0.43009189451E+02  0.27818122481E+01  0.47787266054E+02  0.19999977246E+02 0.  0.
        -12    1    1    2    0    0  0.51083118978E+01  0.43009189451E+02 -0.27818122481E+01  0.43400733946E+02  0.00000000000E+00 0.  1.
         11    1    3    3    0    0 -0.29442231330E-01 -0.15634161163E+02 -0.73961365679E+00  0.15651673736E+02  0.51100000000E-03 0. -1.
        -11    1    3    3    0    0 -0.94525695438E+01 -0.23857454573E+02  0.29891695032E+00  0.25663564860E+02  0.51100000000E-03 0.  1.
        -12    1    3    3    0    0  0.43736998773E+01 -0.35175737142E+01  0.32225089546E+01  0.64720274577E+01  0.00000000000E+00 0.  1.
</event>
<event>
 7    1  0.4621547E-010  0.4778727E+02  0.7816164E-02  0.1312668E+00
        -11   -1    0    0    0    0  0.00000000000E+00  0.00000000000E+00  0.45593999997E+02  0.45594000000E+02  0.51100000000E-03 0.  1.
         11   -1    0    0    0    0 -0.00000000000E+00 -0.00000000000E+00 -0.45593999997E+02  0.45594000000E+02  0.51100000000E-03 0. -1.
    9900012    2    1    2    0    0  0.14391859512E+02  0.49978058168E+01 -0.40638893282E+02  0.47787270394E+02  0.19999997033E+02 0.  0.
        -12    1    1    2    0    0 -0.14391859512E+02 -0.49978058168E+01  0.40638893282E+02  0.43400729606E+02  0.00000000000E+00 0.  1.
         11    1    3    3    0    0  0.49224580830E+01  0.11814359956E+02 -0.21286792463E+02  0.24838221120E+02  0.51100000000E-03 0. -1.
        -11    1    3    3    0    0 -0.14045319634E+00  0.12391053675E+00  0.66027690821E-01  0.19859717661E+00  0.51100000000E-03 0.  1.
         12    1    3    3    0    0  0.96098546253E+01 -0.69404646760E+01 -0.19418128509E+02  0.22750452097E+02  0.00000000000E+00 0. -1.
</event>
<event>
 7    1  0.4621547E-010  0.4778727E+02  0.7816164E-02  0.1312668E+00
        -11   -1    0    0    0    0  0.00000000000E+00  0.00000000000E+00  0.45593999997E+02  0.45594000000E+02  0.51100000000E-03 0.  1.
         11   -1    0    0    0    0 -0.00000000000E+00 -0.00000000000E+00 -0.45593999997E+02  0.45594000000E+02  0.51100000000E-03 0. -1.
    9900012    2    1    2    0    0 -0.15182237870E+02 -0.18501635049E+02 -0.36205146951E+02  0.47787268301E+02  0.19999987493E+02 0.  0.
        -12    1    1    2    0    0  0.15182237870E+02  0.18501635049E+02  0.36205146951E+02  0.43400731699E+02  0.00000000000E+00 0.  1.
         11    1    3    3    0    0 -0.86461644985E+01 -0.51179220453E+01 -0.22105980271E+02  0.24282167337E+02  0.51100000000E-03 0. -1.
        -11    1    3    3    0    0 -0.78866110606E+01 -0.32592192593E+01 -0.73503975243E+01  0.11262747810E+02  0.51100000000E-03 0.  1.
         12    1    3    3    0    0  0.13505376889E+01 -0.10124493745E+02 -0.67487691555E+01  0.12242353154E+02  0.00000000000E+00 0. -1.
</event>
<event>
 7    1  0.4621547E-010  0.4778728E+02  0.7816164E-02  0.1312668E+00
        -11   -1    0    0    0    0  0.00000000000E+00  0.00000000000E+00  0.45593999997E+02  0.45594000000E+02  0.51100000000E-03 0. -1.
         11   -1    0    0    0    0 -0.00000000000E+00 -0.00000000000E+00 -0.45593999997E+02  0.45594000000E+02  0.51100000000E-03 0.  1.
    9900012    2    1    2    0    0  0.59262561738E+00 -0.18188790497E+02  0.39401006812E+02  0.47787278316E+02  0.20000033156E+02 0.  0.
        -12    1    1    2    0    0 -0.59262561738E+00  0.18188790497E+02 -0.39401006812E+02  0.43400721684E+02  0.00000000000E+00 0.  1.
         11    1    3    3    0    0 -0.15715526964E+01 -0.59419714964E+01  0.10758278101E+02  0.12390211907E+02  0.51100000000E-03 0. -1.
        -11    1    3    3    0    0  0.37073780373E+01 -0.57851347476E+01  0.97143567380E+00  0.69394613255E+01  0.51100000000E-03 0.  1.
        -12    1    3    3    0    0 -0.15431997236E+01 -0.64616842530E+01  0.27671293037E+02  0.28457605084E+02  0.00000000000E+00 0.  1.
</event>
<event>
 7    1  0.4621547E-010  0.4778727E+02  0.7816164E-02  0.1312668E+00
        -11   -1    0    0    0    0  0.00000000000E+00  0.00000000000E+00  0.45593999997E+02  0.45594000000E+02  0.51100000000E-03 0.  1.
         11   -1    0    0    0    0 -0.00000000000E+00 -0.00000000000E+00 -0.45593999997E+02  0.45594000000E+02  0.51100000000E-03 0. -1.
    9900012    2    1    2    0    0  0.20643388260E+02  0.21069454652E+01 -0.38118691091E+02  0.47787270645E+02  0.19999998179E+02 0.  0.
        -12    1    1    2    0    0 -0.20643388260E+02 -0.21069454652E+01  0.38118691091E+02  0.43400729355E+02  0.00000000000E+00 0.  1.
         11    1    3    3    0    0  0.87297876064E+01 -0.50626625771E+01 -0.26529052596E+02  0.28383628660E+02  0.51100000000E-03 0. -1.
        -11    1    3    3    0    0  0.77550115314E+00  0.33905405967E+01 -0.44371560346E+01  0.56378649782E+01  0.51100000000E-03 0.  1.
         12    1    3    3    0    0  0.11138099501E+02  0.37790674456E+01 -0.71524824605E+01  0.13765777006E+02  0.00000000000E+00 0. -1.
</event>
<event>
 7    1  0.4621547E-010  0.4778727E+02  0.7816164E-02  0.1312668E+00
        -11   -1    0    0    0    0  0.00000000000E+00  0.00000000000E+00  0.45593999997E+02  0.45594000000E+02  0.51100000000E-03 0.  1.
         11   -1    0    0    0    0 -0.00000000000E+00 -0.00000000000E+00 -0.45593999997E+02  0.45594000000E+02  0.51100000000E-03 0. -1.
    9900012    2    1    2    0    0  0.70807661428E+01 -0.88527056922E+01 -0.41894096493E+02  0.47787274565E+02  0.20000016054E+02 0.  0.
        -12    1    1    2    0    0 -0.70807661428E+01  0.88527056922E+01  0.41894096493E+02  0.43400725435E+02  0.00000000000E+00 0.  1.
         11    1    3    3    0    0 -0.36407451786E+01 -0.25759174154E+01 -0.61697412885E+01  0.76128893211E+01  0.51100000000E-03 0. -1.
        -11    1    3    3    0    0 -0.29606104892E+01 -0.26413498112E+01 -0.53282683826E+01  0.66432211699E+01  0.51100000000E-03 0.  1.
         12    1    3    3    0    0  0.13682121811E+02 -0.36354384655E+01 -0.30396086822E+02  0.33531164074E+02  0.00000000000E+00 0. -1.
</event>
<event>
 7    1  0.4621547E-010  0.4778727E+02  0.7816164E-02  0.1312668E+00
        -11   -1    0    0    0    0  0.00000000000E+00  0.00000000000E+00  0.45593999997E+02  0.45594000000E+02  0.51100000000E-03 0.  1.
         11   -1    0    0    0    0 -0.00000000000E+00 -0.00000000000E+00 -0.45593999997E+02  0.45594000000E+02  0.51100000000E-03 0. -1.
    9900012    2    1    2    0    0  0.32547685443E+02  0.17705151456E+02 -0.22600867771E+02  0.47787269133E+02  0.19999991284E+02 0.  0.
        -12    1    1    2    0    0 -0.32547685443E+02 -0.17705151456E+02  0.22600867771E+02  0.43400730867E+02  0.00000000000E+00 0.  1.
         11    1    3    3    0    0  0.98112209833E+01  0.12915814073E+02 -0.82872922324E+01  0.18214212120E+02  0.51100000000E-03 0. -1.
        -11    1    3    3    0    0  0.11145065215E+02  0.19914698325E+01 -0.13502963372E+02  0.17621249979E+02  0.51100000000E-03 0.  1.
        -12    1    3    3    0    0  0.11591399245E+02  0.27978675501E+01 -0.81061216702E+00  0.11951807033E+02  0.00000000000E+00 0.  1.
</event>
<event>
 7    1  0.4621547E-010  0.4778727E+02  0.7816164E-02  0.1312668E+00
        -11   -1    0    0    0    0  0.00000000000E+00  0.00000000000E+00  0.45593999997E+02  0.45594000000E+02  0.51100000000E-03 0.  1.
         11   -1    0    0    0    0 -0.00000000000E+00 -0.00000000000E+00 -0.45593999997E+02  0.45594000000E+02  0.51100000000E-03 0. -1.
    9900012    2    1    2    0    0 -0.18894942894E+02 -0.28308502762E+02 -0.26930156861E+02  0.47787267931E+02  0.19999985804E+02 0.  0.
        -12    1    1    2    0    0  0.18894942894E+02  0.28308502762E+02  0.26930156861E+02  0.43400732069E+02  0.00000000000E+00 0.  1.
         11    1    3    3    0    0 -0.51482529999E+01 -0.15815054848E+01 -0.18763908565E+01  0.57032018601E+01  0.51100000000E-03 0. -1.
        -11    1    3    3    0    0 -0.67079147606E+01 -0.11636209973E+01 -0.24287761205E+01  0.72283530604E+01  0.51100000000E-03 0.  1.
        -12    1    3    3    0    0 -0.70387751335E+01 -0.25563376280E+02 -0.22624989884E+02  0.34855713010E+02  0.00000000000E+00 0.  1.
</event>
<event>
 7    1  0.4621547E-010  0.4778730E+02  0.7816164E-02  0.1312668E+00
        -11   -1    0    0    0    0  0.00000000000E+00  0.00000000000E+00  0.45593999997E+02  0.45594000000E+02  0.51100000000E-03 0.  1.
         11   -1    0    0    0    0 -0.00000000000E+00 -0.00000000000E+00 -0.45593999997E+02  0.45594000000E+02  0.51100000000E-03 0. -1.
    9900012    2    1    2    0    0  0.18856242950E+02  0.44191330169E+01 -0.38839855784E+02  0.47787296871E+02  0.20000117751E+02 0.  0.
        -12    1    1    2    0    0 -0.18856242950E+02 -0.44191330169E+01  0.38839855784E+02  0.43400703129E+02  0.00000000000E+00 0.  1.
         11    1    3    3    0    0  0.86125618779E+01  0.15072031495E+01 -0.71362384581E+01  0.11285999425E+02  0.51100000000E-03 0. -1.
        -11    1    3    3    0    0  0.86909372240E+01 -0.37503860999E+01 -0.10108010643E+02  0.13848092473E+02  0.51100000000E-03 0.  1.
         12    1    3    3    0    0  0.15527438483E+01  0.66623159673E+01 -0.21595606683E+02  0.22653204972E+02  0.00000000000E+00 0. -1.
</event>
<event>
 7    1  0.4621547E-010  0.4778727E+02  0.7816164E-02  0.1312668E+00
        -11   -1    0    0    0    0  0.00000000000E+00  0.00000000000E+00  0.45593999997E+02  0.45594000000E+02  0.51100000000E-03 0.  1.
         11   -1    0    0    0    0 -0.00000000000E+00 -0.00000000000E+00 -0.45593999997E+02  0.45594000000E+02  0.51100000000E-03 0. -1.
    9900012    2    1    2    0    0  0.25347073459E+02  0.80541564236E+01 -0.34296941398E+02  0.47787265468E+02  0.19999974576E+02 0.  0.
        -12    1    1    2    0    0 -0.25347073459E+02 -0.80541564236E+01  0.34296941398E+02  0.43400734532E+02  0.00000000000E+00 0.  1.
         11    1    3    3    0    0  0.16020468715E+02 -0.12094245809E+01 -0.22865480146E+02  0.27945452371E+02  0.51100000000E-03 0. -1.
        -11    1    3    3    0    0  0.61863885193E+01  0.63125042850E+01 -0.12587060533E+02  0.15380286291E+02  0.51100000000E-03 0.  1.
        -12    1    3    3    0    0  0.31402162252E+01  0.29510767195E+01  0.11555992813E+01  0.44615268064E+01  0.00000000000E+00 0.  1.
</event>
<event>
 7    1  0.4621547E-010  0.4778727E+02  0.7816164E-02  0.1312668E+00
        -11   -1    0    0    0    0  0.00000000000E+00  0.00000000000E+00  0.45593999997E+02  0.45594000000E+02  0.51100000000E-03 0.  1.
         11   -1    0    0    0    0 -0.00000000000E+00 -0.00000000000E+00 -0.45593999997E+02  0.45594000000E+02  0.51100000000E-03 0. -1.
    9900012    2    1    2    0    0  0.40168521605E+02 -0.25551372676E+01 -0.16235284991E+02  0.47787270362E+02  0.19999996888E+02 0.  0.
        -12    1    1    2    0    0 -0.40168521605E+02  0.25551372676E+01  0.16235284991E+02  0.43400729638E+02  0.00000000000E+00 0.  1.
         11    1    3    3    0    0  0.21435961566E+02 -0.52288165714E+01 -0.36862671455E+01  0.22370282446E+02  0.51100000000E-03 0. -1.
        -11    1    3    3    0    0  0.51655575310E+00 -0.29563990754E+01 -0.12257889528E+01  0.32418643027E+01  0.51100000000E-03 0.  1.
         12    1    3    3    0    0  0.18216004286E+02  0.56300783792E+01 -0.11323228893E+02  0.22175123613E+02  0.00000000000E+00 0. -1.
</event>
<event>
 7    1  0.4621547E-010  0.4778727E+02  0.7816164E-02  0.1312668E+00
        -11   -1    0    0    0    0  0.00000000000E+00  0.00000000000E+00  0.45593999997E+02  0.45594000000E+02  0.51100000000E-03 0. -1.
         11   -1    0    0    0    0 -0.00000000000E+00 -0.00000000000E+00 -0.45593999997E+02  0.45594000000E+02  0.51100000000E-03 0.  1.
    9900012    2    1    2    0    0 -0.25290761873E+02  0.34462108713E+02 -0.75076003602E+01  0.47787266869E+02  0.19999980965E+02 0.  0.
        -12    1    1    2    0    0  0.25290761873E+02 -0.34462108713E+02  0.75076003602E+01  0.43400733131E+02  0.00000000000E+00 0.  1.
         11    1    3    3    0    0 -0.11054380030E+01  0.16614834154E+01 -0.23012233088E+01  0.30460054656E+01  0.51100000000E-03 0. -1.
        -11    1    3    3    0    0 -0.41307791817E+01  0.10240641947E+02 -0.90963829177E+01  0.14306581233E+02  0.51100000000E-03 0.  1.
         12    1    3    3    0    0 -0.20054544688E+02  0.22559983351E+02  0.38900058662E+01  0.30434680171E+02  0.00000000000E+00 0. -1.
</event>
<event>
 7    1  0.4621547E-010  0.4778727E+02  0.7816164E-02  0.1312668E+00
        -11   -1    0    0    0    0  0.00000000000E+00  0.00000000000E+00  0.45593999997E+02  0.45594000000E+02  0.51100000000E-03 0.  1.
         11   -1    0    0    0    0 -0.00000000000E+00 -0.00000000000E+00 -0.45593999997E+02  0.45594000000E+02  0.51100000000E-03 0. -1.
    9900012    2    1    2    0    0 -0.34762316672E+02 -0.20805726351E+02 -0.15566841805E+02  0.47787268748E+02  0.19999989531E+02 0.  0.
        -12    1    1    2    0    0  0.34762316672E+02  0.20805726351E+02  0.15566841805E+02  0.43400731252E+02  0.00000000000E+00 0.  1.
         11    1    3    3    0    0 -0.14555970058E+02 -0.51864288666E+01 -0.95504047249E+01  0.18165504105E+02  0.51100000000E-03 0. -1.
        -11    1    3    3    0    0 -0.10973676567E+02 -0.18150585044E+01 -0.67280292618E+01  0.12999322781E+02  0.51100000000E-03 0.  1.
        -12    1    3    3    0    0 -0.92326700474E+01 -0.13804238980E+02  0.71159218140E+00  0.16622441862E+02  0.00000000000E+00 0.  1.
</event>
<event>
 7    1  0.4621547E-010  0.4778727E+02  0.7816164E-02  0.1312668E+00
        -11   -1    0    0    0    0  0.00000000000E+00  0.00000000000E+00  0.45593999997E+02  0.45594000000E+02  0.51100000000E-03 0.  1.
         11   -1    0    0    0    0 -0.00000000000E+00 -0.00000000000E+00 -0.45593999997E+02  0.45594000000E+02  0.51100000000E-03 0. -1.
    9900012    2    1    2    0    0 -0.43172331513E+01  0.48780336430E+01 -0.42909089414E+02  0.47787266496E+02  0.19999979264E+02 0.  0.
        -12    1    1    2    0    0  0.43172331513E+01 -0.48780336430E+01  0.42909089414E+02  0.43400733504E+02  0.00000000000E+00 0.  1.
         11    1    3    3    0    0 -0.61517893467E+01  0.31759066820E+01 -0.14377429845E+02  0.15957486789E+02  0.51100000000E-03 0. -1.
        -11    1    3    3    0    0 -0.30961887127E+01  0.13885552572E-01 -0.28833522750E+00  0.31096165066E+01  0.51100000000E-03 0.  1.
        -12    1    3    3    0    0  0.49307449081E+01  0.16882414084E+01 -0.28243324342E+02  0.28720163201E+02  0.00000000000E+00 0.  1.
</event>
<event>
 7    1  0.4621547E-010  0.4778727E+02  0.7816164E-02  0.1312668E+00
        -11   -1    0    0    0    0  0.00000000000E+00  0.00000000000E+00  0.45593999997E+02  0.45594000000E+02  0.51100000000E-03 0.  1.
         11   -1    0    0    0    0 -0.00000000000E+00 -0.00000000000E+00 -0.45593999997E+02  0.45594000000E+02  0.51100000000E-03 0. -1.
    9900012    2    1    2    0    0 -0.47964850714E+01 -0.28528173728E+02 -0.32353674501E+02  0.47787271676E+02  0.20000002881E+02 0.  0.
        -12    1    1    2    0    0  0.47964850714E+01  0.28528173728E+02  0.32353674501E+02  0.43400728324E+02  0.00000000000E+00 0.  1.
         11    1    3    3    0    0 -0.20093573072E+01 -0.23225172815E+02 -0.17976148465E+02  0.29437868180E+02  0.51100000000E-03 0. -1.
        -11    1    3    3    0    0 -0.19921077992E+01 -0.67861573887E+01 -0.46198603976E+01  0.84476941198E+01  0.51100000000E-03 0.  1.
        -12    1    3    3    0    0 -0.79501996508E+00  0.14831564751E+01 -0.97576656381E+01  0.99017093766E+01  0.00000000000E+00 0.  1.
</event>
<event>
 7    1  0.4621547E-010  0.4778728E+02  0.7816164E-02  0.1312668E+00
        -11   -1    0    0    0    0  0.00000000000E+00  0.00000000000E+00  0.45593999997E+02  0.45594000000E+02  0.51100000000E-03 0. -1.
         11   -1    0    0    0    0 -0.00000000000E+00 -0.00000000000E+00 -0.45593999997E+02  0.45594000000E+02  0.51100000000E-03 0.  1.
    9900012    2    1    2    0    0  0.29757344727E+02 -0.23466328208E+02  0.21153116390E+02  0.47787280446E+02  0.20000042866E+02 0.  0.
        -12    1    1    2    0    0 -0.29757344727E+02  0.23466328208E+02 -0.21153116390E+02  0.43400719554E+02  0.00000000000E+00 0.  1.
         11    1    3    3    0    0  0.68227176296E+01 -0.68591107175E+01 -0.23517714308E+00  0.96774058630E+01  0.51100000000E-03 0. -1.
        -11    1    3    3    0    0  0.18290124259E+01 -0.33980129068E+01 -0.16416663009E+01  0.41936674490E+01  0.51100000000E-03 0.  1.
        -12    1    3    3    0    0  0.21105614671E+02 -0.13209204584E+02  0.23029959834E+02  0.33916207134E+02  0.00000000000E+00 0.  1.
</event>
<event>
 7    1  0.4621547E-010  0.4778727E+02  0.7816164E-02  0.1312668E+00
        -11   -1    0    0    0    0  0.00000000000E+00  0.00000000000E+00  0.45593999997E+02  0.45594000000E+02  0.51100000000E-03 0. -1.
         11   -1    0    0    0    0 -0.00000000000E+00 -0.00000000000E+00 -0.45593999997E+02  0.45594000000E+02  0.51100000000E-03 0.  1.
    9900012    2    1    2    0    0 -0.62624446524E+01  0.23909006912E+02  0.35675820269E+02  0.47787274471E+02  0.20000015624E+02 0.  0.
        -12    1    1    2    0    0  0.62624446524E+01 -0.23909006912E+02 -0.35675820269E+02  0.43400725529E+02  0.00000000000E+00 0.  1.
         11    1    3    3    0    0  0.30668357966E+00  0.20119858717E+01  0.12015764853E+02  0.12186908846E+02  0.51100000000E-03 0. -1.
        -11    1    3    3    0    0  0.79403671192E+00  0.14129094788E+02  0.19552055329E+02  0.24135962415E+02  0.51100000000E-03 0.  1.
        -12    1    3    3    0    0 -0.73631649440E+01  0.77679262525E+01  0.41080000870E+01  0.11464403210E+02  0.00000000000E+00 0.  1.
</event>
<event>
 7    1  0.4621547E-010  0.4778727E+02  0.7816164E-02  0.1312668E+00
        -11   -1    0    0    0    0  0.00000000000E+00  0.00000000000E+00  0.45593999997E+02  0.45594000000E+02  0.51100000000E-03 0. -1.
         11   -1    0    0    0    0 -0.00000000000E+00 -0.00000000000E+00 -0.45593999997E+02  0.45594000000E+02  0.51100000000E-03 0.  1.
    9900012    2    1    2    0    0 -0.31716800366E+02 -0.15078928939E+02  0.25500858691E+02  0.47787270543E+02  0.19999997712E+02 0.  0.
        -12    1    1    2    0    0  0.31716800366E+02  0.15078928939E+02 -0.25500858691E+02  0.43400729457E+02  0.00000000000E+00 0.  1.
         11    1    3    3    0    0 -0.47576346606E+00 -0.12735495585E+01 -0.55799786306E+00  0.14695717845E+01  0.51100000000E-03 0. -1.
        -11    1    3    3    0    0 -0.37648471463E+01 -0.39166802890E+01  0.13458557352E+02  0.14513690943E+02  0.51100000000E-03 0.  1.
         12    1    3    3    0    0 -0.27476189754E+02 -0.98886990916E+01  0.12600299202E+02  0.31804007815E+02  0.00000000000E+00 0. -1.
</event>
<event>
 7    1  0.4621547E-010  0.4778727E+02  0.7816164E-02  0.1312668E+00
        -11   -1    0    0    0    0  0.00000000000E+00  0.00000000000E+00  0.45593999997E+02  0.45594000000E+02  0.51100000000E-03 0.  1.
         11   -1    0    0    0    0 -0.00000000000E+00 -0.00000000000E+00 -0.45593999997E+02  0.45594000000E+02  0.51100000000E-03 0. -1.
    9900012    2    1    2    0    0 -0.11062959859E+02 -0.30081274944E+02 -0.29263472543E+02  0.47787274103E+02  0.20000013947E+02 0.  0.
        -12    1    1    2    0    0  0.11062959859E+02  0.30081274944E+02  0.29263472543E+02  0.43400725897E+02  0.00000000000E+00 0.  1.
         11    1    3    3    0    0 -0.18185857078E+01 -0.17827563179E+02 -0.17756915122E+02  0.25227708928E+02  0.51100000000E-03 0. -1.
        -11    1    3    3    0    0 -0.47004500877E+01 -0.13055998636E+02 -0.53640704118E+01  0.14877048870E+02  0.51100000000E-03 0.  1.
        -12    1    3    3    0    0 -0.45439240637E+01  0.80228687170E+00 -0.61424870095E+01  0.76825163054E+01  0.00000000000E+00 0.  1.
</event>
<event>
 7    1  0.4621547E-010  0.4778727E+02  0.7816164E-02  0.1312668E+00
        -11   -1    0    0    0    0  0.00000000000E+00  0.00000000000E+00  0.45593999997E+02  0.45594000000E+02  0.51100000000E-03 0.  1.
         11   -1    0    0    0    0 -0.00000000000E+00 -0.00000000000E+00 -0.45593999997E+02  0.45594000000E+02  0.51100000000E-03 0. -1.
    9900012    2    1    2    0    0 -0.15742890142E+02  0.30948180670E+02 -0.26038327103E+02  0.47787274717E+02  0.20000016743E+02 0.  0.
        -12    1    1    2    0    0  0.15742890142E+02 -0.30948180670E+02  0.26038327103E+02  0.43400725283E+02  0.00000000000E+00 0.  1.
         11    1    3    3    0    0 -0.10029833879E+01  0.12439743962E+02 -0.11080458282E+02  0.16689210931E+02  0.51100000000E-03 0. -1.
        -11    1    3    3    0    0  0.18685741315E+01  0.64063244433E+01 -0.29426329358E+01  0.72932606572E+01  0.51100000000E-03 0.  1.
        -12    1    3    3    0    0 -0.16608480885E+02  0.12102112265E+02 -0.12015235885E+02  0.23804803128E+02  0.00000000000E+00 0.  1.
</event>
<event>
 7    1  0.4621547E-010  0.4778727E+02  0.7816164E-02  0.1312668E+00
        -11   -1    0    0    0    0  0.00000000000E+00  0.00000000000E+00  0.45593999997E+02  0.45594000000E+02  0.51100000000E-03 0.  1.
         11   -1    0    0    0    0 -0.00000000000E+00 -0.00000000000E+00 -0.45593999997E+02  0.45594000000E+02  0.51100000000E-03 0. -1.
    9900012    2    1    2    0    0  0.42108531047E+02  0.56434914206E+01 -0.88682660714E+01  0.47787268146E+02  0.19999986785E+02 0.  0.
        -12    1    1    2    0    0 -0.42108531047E+02 -0.56434914206E+01  0.88682660714E+01  0.43400731854E+02  0.00000000000E+00 0.  1.
         11    1    3    3    0    0  0.17191194021E+02 -0.35478550552E+00  0.21637080312E+01  0.17330454620E+02  0.51100000000E-03 0. -1.
        -11    1    3    3    0    0  0.96114019919E+01  0.14625381177E+01  0.19076104810E+01  0.99074236814E+01  0.51100000000E-03 0.  1.
         12    1    3    3    0    0  0.15305935034E+02  0.45357388084E+01 -0.12939584584E+02  0.20549389845E+02  0.00000000000E+00 0. -1.
</event>
<event>
 7    1  0.4621547E-010  0.4778728E+02  0.7816164E-02  0.1312668E+00
        -11   -1    0    0    0    0  0.00000000000E+00  0.00000000000E+00  0.45593999997E+02  0.45594000000E+02  0.51100000000E-03 0. -1.
         11   -1    0    0    0    0 -0.00000000000E+00 -0.00000000000E+00 -0.45593999997E+02  0.45594000000E+02  0.51100000000E-03 0.  1.
    9900012    2    1    2    0    0 -0.27034265229E+01  0.37618353241E+02  0.21474959124E+02  0.47787275525E+02  0.20000020429E+02 0.  0.
        -12    1    1    2    0    0  0.27034265229E+01 -0.37618353241E+02 -0.21474959124E+02  0.43400724475E+02  0.00000000000E+00 0.  1.
         11    1    3    3    0    0  0.41676064520E+01  0.80014654657E+01  0.60542569386E+01  0.10864916957E+02  0.51100000000E-03 0. -1.
        -11    1    3    3    0    0 -0.27764942080E+00 -0.13239855321E+01 -0.57839246614E+00  0.14712460691E+01  0.51100000000E-03 0.  1.
         12    1    3    3    0    0 -0.65933835541E+01  0.30940873308E+02  0.15999094652E+02  0.35451112499E+02  0.00000000000E+00 0. -1.
</event>
<event>
 7    1  0.4621547E-010  0.4778727E+02  0.7816164E-02  0.1312668E+00
        -11   -1    0    0    0    0  0.00000000000E+00  0.00000000000E+00  0.45593999997E+02  0.45594000000E+02  0.51100000000E-03 0.  1.
         11   -1    0    0    0    0 -0.00000000000E+00 -0.00000000000E+00 -0.45593999997E+02  0.45594000000E+02  0.51100000000E-03 0. -1.
    9900012    2    1    2    0    0 -0.96624523241E+01  0.14308670838E+02 -0.39818614847E+02  0.47787272651E+02  0.20000007326E+02 0.  0.
        -12    1    1    2    0    0  0.96624523241E+01 -0.14308670838E+02  0.39818614847E+02  0.43400727349E+02  0.00000000000E+00 0.  1.
         11    1    3    3    0    0 -0.82624051058E-01  0.16196051536E+01 -0.27184105194E+02  0.27232435128E+02  0.51100000000E-03 0. -1.
        -11    1    3    3    0    0 -0.18654562090E+01  0.25071959792E+01 -0.42478615051E+01  0.52735458824E+01  0.51100000000E-03 0.  1.
        -12    1    3    3    0    0 -0.77143720640E+01  0.10181869705E+02 -0.83866481481E+01  0.15281291640E+02  0.00000000000E+00 0.  1.
</event>
<event>
 7    1  0.4621547E-010  0.4778727E+02  0.7816164E-02  0.1312668E+00
        -11   -1    0    0    0    0  0.00000000000E+00  0.00000000000E+00  0.45593999997E+02  0.45594000000E+02  0.51100000000E-03 0.  1.
         11   -1    0    0    0    0 -0.00000000000E+00 -0.00000000000E+00 -0.45593999997E+02  0.45594000000E+02  0.51100000000E-03 0. -1.
    9900012    2    1    2    0    0 -0.60033649009E+01 -0.12652645658E+02 -0.41079109679E+02  0.47787273228E+02  0.20000009957E+02 0.  0.
        -12    1    1    2    0    0  0.60033649009E+01  0.12652645658E+02  0.41079109679E+02  0.43400726772E+02  0.00000000000E+00 0.  1.
         11    1    3    3    0    0 -0.62838009495E+01 -0.64431882271E+01 -0.16971959026E+02  0.19210627849E+02  0.51100000000E-03 0. -1.
        -11    1    3    3    0    0  0.70385159888E+00 -0.10865765091E+01 -0.23344098297E+02  0.23379969656E+02  0.51100000000E-03 0.  1.
        -12    1    3    3    0    0 -0.42341555029E+00 -0.51228809221E+01 -0.76305235589E+00  0.51966757229E+01  0.00000000000E+00 0.  1.
</event>
<event>
 7    1  0.4621547E-010  0.4778727E+02  0.7816164E-02  0.1312668E+00
        -11   -1    0    0    0    0  0.00000000000E+00  0.00000000000E+00  0.45593999997E+02  0.45594000000E+02  0.51100000000E-03 0.  1.
         11   -1    0    0    0    0 -0.00000000000E+00 -0.00000000000E+00 -0.45593999997E+02  0.45594000000E+02  0.51100000000E-03 0. -1.
    9900012    2    1    2    0    0  0.42389441037E+02  0.91305600280E+01 -0.18415563748E+01  0.47787272268E+02  0.20000005577E+02 0.  0.
        -12    1    1    2    0    0 -0.42389441037E+02 -0.91305600280E+01  0.18415563748E+01  0.43400727732E+02  0.00000000000E+00 0.  1.
         11    1    3    3    0    0  0.94186897813E+01 -0.50025535568E+00  0.29888703461E+01  0.98942063261E+01  0.51100000000E-03 0.  1.
        -11    1    3    3    0    0  0.34294391386E+02  0.75744433168E+01 -0.47995253658E+01  0.35447325937E+02  0.51100000000E-03 0. -1.
         12    1    3    3    0    0 -0.13236401309E+01  0.20563720669E+01 -0.30901355174E-01  0.24457400040E+01  0.00000000000E+00 0. -1.
</event>
<event>
 7    1  0.4621547E-010  0.4778727E+02  0.7816164E-02  0.1312668E+00
        -11   -1    0    0    0    0  0.00000000000E+00  0.00000000000E+00  0.45593999997E+02  0.45594000000E+02  0.51100000000E-03 0. -1.
         11   -1    0    0    0    0 -0.00000000000E+00 -0.00000000000E+00 -0.45593999997E+02  0.45594000000E+02  0.51100000000E-03 0.  1.
    9900012    2    1    2    0    0 -0.34928022266E+02  0.81632487576E+01  0.24433945535E+02  0.47787273461E+02  0.20000011018E+02 0.  0.
        -12    1    1    2    0    0  0.34928022266E+02 -0.81632487576E+01 -0.24433945535E+02  0.43400726539E+02  0.00000000000E+00 0.  1.
         11    1    3    3    0    0 -0.88304436560E+01  0.20946231631E+00  0.13460004713E+02  0.16099451443E+02  0.51100000000E-03 0.  1.
        -11    1    3    3    0    0 -0.21161304831E+02  0.59606569381E+01  0.13496409720E+02  0.25796963559E+02  0.51100000000E-03 0. -1.
         12    1    3    3    0    0 -0.49362737792E+01  0.19931295032E+01 -0.25224688982E+01  0.58908584588E+01  0.00000000000E+00 0. -1.
</event>
<event>
 7    1  0.4621547E-010  0.4778727E+02  0.7816164E-02  0.1312668E+00
        -11   -1    0    0    0    0  0.00000000000E+00  0.00000000000E+00  0.45593999997E+02  0.45594000000E+02  0.51100000000E-03 0.  1.
         11   -1    0    0    0    0 -0.00000000000E+00 -0.00000000000E+00 -0.45593999997E+02  0.45594000000E+02  0.51100000000E-03 0. -1.
    9900012    2    1    2    0    0  0.22048072680E+02  0.16174211644E+02 -0.33703126730E+02  0.47787269792E+02  0.19999994290E+02 0.  0.
        -12    1    1    2    0    0 -0.22048072680E+02 -0.16174211644E+02  0.33703126730E+02  0.43400730208E+02  0.00000000000E+00 0.  1.
         11    1    3    3    0    0  0.12841887476E+01  0.82023118014E+01 -0.15016397891E+02  0.17158649875E+02  0.51100000000E-03 0. -1.
        -11    1    3    3    0    0  0.11405331543E+01  0.74927904108E+00  0.11661089004E+01  0.17950056229E+01  0.51100000000E-03 0.  1.
         12    1    3    3    0    0  0.19623350779E+02  0.72226208016E+01 -0.19852837739E+02  0.28833614295E+02  0.00000000000E+00 0. -1.
</event>
<event>
 7    1  0.4621547E-010  0.4778727E+02  0.7816164E-02  0.1312668E+00
        -11   -1    0    0    0    0  0.00000000000E+00  0.00000000000E+00  0.45593999997E+02  0.45594000000E+02  0.51100000000E-03 0. -1.
         11   -1    0    0    0    0 -0.00000000000E+00 -0.00000000000E+00 -0.45593999997E+02  0.45594000000E+02  0.51100000000E-03 0.  1.
    9900012    2    1    2    0    0 -0.12691375170E+02 -0.35777091979E+02  0.21036925415E+02  0.47787267920E+02  0.19999985756E+02 0.  0.
        -12    1    1    2    0    0  0.12691375170E+02  0.35777091979E+02 -0.21036925415E+02  0.43400732080E+02  0.00000000000E+00 0.  1.
         11    1    3    3    0    0  0.23100939000E+01 -0.53382922238E+01  0.97360437338E+00  0.58976099761E+01  0.51100000000E-03 0. -1.
        -11    1    3    3    0    0 -0.86203941317E+01 -0.43287214771E+01  0.32184767937E+01  0.10168953621E+02  0.51100000000E-03 0.  1.
         12    1    3    3    0    0 -0.63810749382E+01 -0.26110078278E+02  0.16844844248E+02  0.31720704323E+02  0.00000000000E+00 0. -1.
</event>
<event>
 7    1  0.4621547E-010  0.4778726E+02  0.7816164E-02  0.1312668E+00
        -11   -1    0    0    0    0  0.00000000000E+00  0.00000000000E+00  0.45593999997E+02  0.45594000000E+02  0.51100000000E-03 0.  1.
         11   -1    0    0    0    0 -0.00000000000E+00 -0.00000000000E+00 -0.45593999997E+02  0.45594000000E+02  0.51100000000E-03 0. -1.
    9900012    2    1    2    0    0  0.27745046137E+02 -0.31008626262E+02  0.12341060108E+02  0.47787259771E+02  0.19999948601E+02 0.  0.
        -12    1    1    2    0    0 -0.27745046137E+02  0.31008626262E+02 -0.12341060108E+02  0.43400740229E+02  0.00000000000E+00 0.  1.
         11    1    3    3    0    0  0.23486948185E+02 -0.16401716372E+02  0.48633206687E+01  0.29056925563E+02  0.51100000000E-03 0. -1.
        -11    1    3    3    0    0  0.53114478606E+01 -0.64914455522E+01  0.62391834285E+01  0.10453600043E+02  0.51100000000E-03 0.  1.
        -12    1    3    3    0    0 -0.10533499089E+01 -0.81154643380E+01  0.12385560109E+01  0.82767341653E+01  0.00000000000E+00 0.  1.
</event>
<event>
 7    1  0.4621547E-010  0.4778727E+02  0.7816164E-02  0.1312668E+00
        -11   -1    0    0    0    0  0.00000000000E+00  0.00000000000E+00  0.45593999997E+02  0.45594000000E+02  0.51100000000E-03 0.  1.
         11   -1    0    0    0    0 -0.00000000000E+00 -0.00000000000E+00 -0.45593999997E+02  0.45594000000E+02  0.51100000000E-03 0. -1.
    9900012    2    1    2    0    0 -0.37548935632E+02  0.14784405157E+02  0.15972535752E+02  0.47787273033E+02  0.20000009067E+02 0.  0.
        -12    1    1    2    0    0  0.37548935632E+02 -0.14784405157E+02 -0.15972535752E+02  0.43400726967E+02  0.00000000000E+00 0.  1.
         11    1    3    3    0    0 -0.35332460777E+01  0.48695549157E+01 -0.14590786306E+01  0.61907433831E+01  0.51100000000E-03 0. -1.
        -11    1    3    3    0    0 -0.29631919231E+00  0.31752911359E+01  0.37108622630E+00  0.32106049445E+01  0.51100000000E-03 0.  1.
        -12    1    3    3    0    0 -0.33719370361E+02  0.67395591054E+01  0.17060528157E+02  0.38385924705E+02  0.00000000000E+00 0.  1.
</event>
<event>
 7    1  0.4621547E-010  0.4778727E+02  0.7816164E-02  0.1312668E+00
        -11   -1    0    0    0    0  0.00000000000E+00  0.00000000000E+00  0.45593999997E+02  0.45594000000E+02  0.51100000000E-03 0.  1.
         11   -1    0    0    0    0 -0.00000000000E+00 -0.00000000000E+00 -0.45593999997E+02  0.45594000000E+02  0.51100000000E-03 0. -1.
    9900012    2    1    2    0    0  0.31227250798E+02 -0.24286806061E+02 -0.17850297684E+02  0.47787271107E+02  0.20000000284E+02 0.  0.
        -12    1    1    2    0    0 -0.31227250798E+02  0.24286806061E+02  0.17850297684E+02  0.43400728893E+02  0.00000000000E+00 0.  1.
         11    1    3    3    0    0  0.69772314043E+01 -0.48913080462E+01 -0.49459294553E+00  0.85352958305E+01  0.51100000000E-03 0. -1.
        -11    1    3    3    0    0 -0.23383211114E+01 -0.50981431001E+00 -0.23438560001E+01  0.33498234970E+01  0.51100000000E-03 0.  1.
        -12    1    3    3    0    0  0.26588340506E+02 -0.18885683705E+02 -0.15011848738E+02  0.35902151779E+02  0.00000000000E+00 0.  1.
</event>
<event>
 7    1  0.4621547E-010  0.4778727E+02  0.7816164E-02  0.1312668E+00
        -11   -1    0    0    0    0  0.00000000000E+00  0.00000000000E+00  0.45593999997E+02  0.45594000000E+02  0.51100000000E-03 0. -1.
         11   -1    0    0    0    0 -0.00000000000E+00 -0.00000000000E+00 -0.45593999997E+02  0.45594000000E+02  0.51100000000E-03 0.  1.
    9900012    2    1    2    0    0 -0.65285176905E+01 -0.14892029427E+02  0.40239645726E+02  0.47787272220E+02  0.20000005358E+02 0.  0.
        -12    1    1    2    0    0  0.65285176905E+01  0.14892029427E+02 -0.40239645726E+02  0.43400727780E+02  0.00000000000E+00 0.  1.
         11    1    3    3    0    0 -0.10889089492E+02 -0.52200224893E+01  0.18164445116E+02  0.21812106074E+02  0.51100000000E-03 0. -1.
        -11    1    3    3    0    0 -0.50505668457E+00 -0.65900315595E+01  0.61025687266E+01  0.89958292300E+01  0.51100000000E-03 0.  1.
        -12    1    3    3    0    0  0.48656284862E+01 -0.30819753784E+01  0.15972631883E+02  0.16979336915E+02  0.00000000000E+00 0.  1.
</event>
<event>
 7    1  0.4621547E-010  0.4778727E+02  0.7816164E-02  0.1312668E+00
        -11   -1    0    0    0    0  0.00000000000E+00  0.00000000000E+00  0.45593999997E+02  0.45594000000E+02  0.51100000000E-03 0.  1.
         11   -1    0    0    0    0 -0.00000000000E+00 -0.00000000000E+00 -0.45593999997E+02  0.45594000000E+02  0.51100000000E-03 0. -1.
    9900012    2    1    2    0    0 -0.36826397334E+02  0.22847533953E+02 -0.23302577850E+01  0.47787269019E+02  0.19999990765E+02 0.  0.
        -12    1    1    2    0    0  0.36826397334E+02 -0.22847533953E+02  0.23302577850E+01  0.43400730981E+02  0.00000000000E+00 0.  1.
         11    1    3    3    0    0 -0.69518019319E+00  0.61256404313E+01 -0.19278188933E+01  0.64593523004E+01  0.51100000000E-03 0. -1.
        -11    1    3    3    0    0 -0.46904348956E+01 -0.79015567750E+00  0.22090740971E+01  0.52444765356E+01  0.51100000000E-03 0.  1.
         12    1    3    3    0    0 -0.31440782245E+02  0.17512049199E+02 -0.26115129888E+01  0.36083440183E+02  0.00000000000E+00 0. -1.
</event>
<event>
 7    1  0.4621547E-010  0.4778727E+02  0.7816164E-02  0.1312668E+00
        -11   -1    0    0    0    0  0.00000000000E+00  0.00000000000E+00  0.45593999997E+02  0.45594000000E+02  0.51100000000E-03 0. -1.
         11   -1    0    0    0    0 -0.00000000000E+00 -0.00000000000E+00 -0.45593999997E+02  0.45594000000E+02  0.51100000000E-03 0.  1.
    9900012    2    1    2    0    0  0.42114311410E+02  0.21836650242E+01 -0.10258634017E+02  0.47787272007E+02  0.20000004388E+02 0.  0.
        -12    1    1    2    0    0 -0.42114311410E+02 -0.21836650242E+01  0.10258634017E+02  0.43400727993E+02  0.00000000000E+00 0.  1.
         11    1    3    3    0    0  0.37573077885E+02  0.33002337084E+01 -0.12467392609E+02  0.39724848684E+02  0.51100000000E-03 0. -1.
        -11    1    3    3    0    0  0.22431284739E+01 -0.36797222746E+01  0.11388370033E+01  0.44574579471E+01  0.51100000000E-03 0.  1.
         12    1    3    3    0    0  0.22981050507E+01  0.25631535904E+01  0.10699215886E+01  0.36049653754E+01  0.00000000000E+00 0. -1.
</event>
<event>
 7    1  0.4621547E-010  0.4778728E+02  0.7816164E-02  0.1312668E+00
        -11   -1    0    0    0    0  0.00000000000E+00  0.00000000000E+00  0.45593999997E+02  0.45594000000E+02  0.51100000000E-03 0. -1.
         11   -1    0    0    0    0 -0.00000000000E+00 -0.00000000000E+00 -0.45593999997E+02  0.45594000000E+02  0.51100000000E-03 0.  1.
    9900012    2    1    2    0    0 -0.42127747368E+02  0.10346705527E+00  0.10433814214E+02  0.47787282462E+02  0.20000052058E+02 0.  0.
        -12    1    1    2    0    0  0.42127747368E+02 -0.10346705527E+00 -0.10433814214E+02  0.43400717538E+02  0.00000000000E+00 0.  1.
         11    1    3    3    0    0 -0.18053839885E+02 -0.13302230984E+01  0.29012359403E+01  0.18333788434E+02  0.51100000000E-03 0. -1.
        -11    1    3    3    0    0 -0.94997865975E+01 -0.45860258990E+01  0.86552691038E+01  0.13645191917E+02  0.51100000000E-03 0.  1.
         12    1    3    3    0    0 -0.14574120885E+02  0.60197160526E+01 -0.11226908298E+01  0.15808302111E+02  0.00000000000E+00 0. -1.
</event>
<event>
 7    1  0.4621547E-010  0.4778727E+02  0.7816164E-02  0.1312668E+00
        -11   -1    0    0    0    0  0.00000000000E+00  0.00000000000E+00  0.45593999997E+02  0.45594000000E+02  0.51100000000E-03 0.  1.
         11   -1    0    0    0    0 -0.00000000000E+00 -0.00000000000E+00 -0.45593999997E+02  0.45594000000E+02  0.51100000000E-03 0. -1.
    9900012    2    1    2    0    0  0.32011167171E+02 -0.23435618728E+02 -0.17597739075E+02  0.47787268792E+02  0.19999989729E+02 0.  0.
        -12    1    1    2    0    0 -0.32011167171E+02  0.23435618728E+02  0.17597739075E+02  0.43400731208E+02  0.00000000000E+00 0.  1.
         11    1    3    3    0    0  0.24510613408E+02 -0.12714434002E+02 -0.12900060422E+02  0.30476852869E+02  0.51100000000E-03 0. -1.
        -11    1    3    3    0    0  0.96140691021E+01 -0.99885456770E+01 -0.23387947398E+01  0.14059563668E+02  0.51100000000E-03 0.  1.
        -12    1    3    3    0    0 -0.21135153389E+01 -0.73263904944E+00 -0.23588839137E+01  0.32508522549E+01  0.00000000000E+00 0.  1.
</event>
<event>
 7    1  0.4621547E-010  0.4778727E+02  0.7816164E-02  0.1312668E+00
        -11   -1    0    0    0    0  0.00000000000E+00  0.00000000000E+00  0.45593999997E+02  0.45594000000E+02  0.51100000000E-03 0.  1.
         11   -1    0    0    0    0 -0.00000000000E+00 -0.00000000000E+00 -0.45593999997E+02  0.45594000000E+02  0.51100000000E-03 0. -1.
    9900012    2    1    2    0    0  0.14916464312E+02 -0.12740387209E+02 -0.38714407218E+02  0.47787266135E+02  0.19999977616E+02 0.  0.
        -12    1    1    2    0    0 -0.14916464312E+02  0.12740387209E+02  0.38714407218E+02  0.43400733865E+02  0.00000000000E+00 0.  1.
         11    1    3    3    0    0 -0.37356465979E+00  0.26967784893E+01 -0.31139873746E+01  0.41363126581E+01  0.51100000000E-03 0.  1.
        -11    1    3    3    0    0 -0.56462546195E-01  0.20159639809E+01 -0.27113934096E+01  0.33791941752E+01  0.51100000000E-03 0. -1.
         12    1    3    3    0    0  0.15346491518E+02 -0.17453129679E+02 -0.32889026433E+02  0.40271759302E+02  0.00000000000E+00 0. -1.
</event>
<event>
 7    1  0.4621547E-010  0.4778729E+02  0.7816164E-02  0.1312668E+00
        -11   -1    0    0    0    0  0.00000000000E+00  0.00000000000E+00  0.45593999997E+02  0.45594000000E+02  0.51100000000E-03 0. -1.
         11   -1    0    0    0    0 -0.00000000000E+00 -0.00000000000E+00 -0.45593999997E+02  0.45594000000E+02  0.51100000000E-03 0.  1.
    9900012    2    1    2    0    0  0.24163339656E+02 -0.72066623349E+01  0.35324473602E+02  0.47787292626E+02  0.20000098397E+02 0.  0.
        -12    1    1    2    0    0 -0.24163339656E+02  0.72066623349E+01 -0.35324473602E+02  0.43400707374E+02  0.00000000000E+00 0.  1.
         11    1    3    3    0    0  0.16828423599E+02  0.38306405019E+01  0.19068145067E+02  0.25718938626E+02  0.51100000000E-03 0. -1.
        -11    1    3    3    0    0  0.71263931923E+01 -0.46084952257E+01  0.89434289726E+01  0.12329178003E+02  0.51100000000E-03 0.  1.
         12    1    3    3    0    0  0.20852286440E+00 -0.64288076112E+01  0.73128995622E+01  0.97391759966E+01  0.00000000000E+00 0. -1.
</event>
<event>
 7    1  0.4621547E-010  0.4778727E+02  0.7816164E-02  0.1312668E+00
        -11   -1    0    0    0    0  0.00000000000E+00  0.00000000000E+00  0.45593999997E+02  0.45594000000E+02  0.51100000000E-03 0.  1.
         11   -1    0    0    0    0 -0.00000000000E+00 -0.00000000000E+00 -0.45593999997E+02  0.45594000000E+02  0.51100000000E-03 0. -1.
    9900012    2    1    2    0    0 -0.92675693565E+01 -0.20764888298E+02 -0.36966940630E+02  0.47787272733E+02  0.20000007697E+02 0.  0.
        -12    1    1    2    0    0  0.92675693565E+01  0.20764888298E+02  0.36966940630E+02  0.43400727267E+02  0.00000000000E+00 0.  1.
         11    1    3    3    0    0 -0.32159563272E+01 -0.14942164772E+02 -0.14355741174E+02  0.20968976324E+02  0.51100000000E-03 0. -1.
        -11    1    3    3    0    0 -0.56094338297E+00 -0.83248419098E+01 -0.14132525037E+02  0.16411761468E+02  0.51100000000E-03 0.  1.
        -12    1    3    3    0    0 -0.54906696464E+01  0.25021183835E+01 -0.84786744194E+01  0.10406534941E+02  0.00000000000E+00 0.  1.
</event>
<event>
 7    1  0.4621547E-010  0.4778729E+02  0.7816164E-02  0.1312668E+00
        -11   -1    0    0    0    0  0.00000000000E+00  0.00000000000E+00  0.45593999997E+02  0.45594000000E+02  0.51100000000E-03 0.  1.
         11   -1    0    0    0    0 -0.00000000000E+00 -0.00000000000E+00 -0.45593999997E+02  0.45594000000E+02  0.51100000000E-03 0. -1.
    9900012    2    1    2    0    0  0.65620581582E+01  0.13417681821E+02 -0.40749557901E+02  0.47787294224E+02  0.20000105687E+02 0.  0.
        -12    1    1    2    0    0 -0.65620581582E+01 -0.13417681821E+02  0.40749557901E+02  0.43400705776E+02  0.00000000000E+00 0.  1.
         11    1    3    3    0    0 -0.85570210611E+00  0.86079074892E+01 -0.13146004322E+02  0.15736763560E+02  0.51100000000E-03 0. -1.
        -11    1    3    3    0    0  0.37205960620E+01  0.45334946253E+01 -0.27727532481E+02  0.28340985627E+02  0.51100000000E-03 0.  1.
        -12    1    3    3    0    0  0.36971642024E+01  0.27627970618E+00  0.12397890265E+00  0.37095450373E+01  0.00000000000E+00 0.  1.
</event>
<event>
 7    1  0.4621547E-010  0.4778727E+02  0.7816164E-02  0.1312668E+00
        -11   -1    0    0    0    0  0.00000000000E+00  0.00000000000E+00  0.45593999997E+02  0.45594000000E+02  0.51100000000E-03 0.  1.
         11   -1    0    0    0    0 -0.00000000000E+00 -0.00000000000E+00 -0.45593999997E+02  0.45594000000E+02  0.51100000000E-03 0. -1.
    9900012    2    1    2    0    0 -0.36900910851E+02 -0.23139892531E+01 -0.22728659887E+02  0.47787265580E+02  0.19999975088E+02 0.  0.
        -12    1    1    2    0    0  0.36900910851E+02  0.23139892531E+01  0.22728659887E+02  0.43400734420E+02  0.00000000000E+00 0.  1.
         11    1    3    3    0    0 -0.22627989223E+01  0.25670131508E+01 -0.65149957858E+01  0.73590071225E+01  0.51100000000E-03 0. -1.
        -11    1    3    3    0    0 -0.10192378984E+02  0.11239308883E+01 -0.10375543112E+02  0.14587655916E+02  0.51100000000E-03 0.  1.
        -12    1    3    3    0    0 -0.24445732945E+02 -0.60049332923E+01 -0.58381209891E+01  0.25840602542E+02  0.00000000000E+00 0.  1.
</event>
<event>
 7    1  0.4621547E-010  0.4778728E+02  0.7816164E-02  0.1312668E+00
        -11   -1    0    0    0    0  0.00000000000E+00  0.00000000000E+00  0.45593999997E+02  0.45594000000E+02  0.51100000000E-03 0.  1.
         11   -1    0    0    0    0 -0.00000000000E+00 -0.00000000000E+00 -0.45593999997E+02  0.45594000000E+02  0.51100000000E-03 0. -1.
    9900012    2    1    2    0    0  0.36940931535E+02  0.98754131234E+01 -0.20529654592E+02  0.47787275067E+02  0.20000018339E+02 0.  0.
        -12    1    1    2    0    0 -0.36940931535E+02 -0.98754131234E+01  0.20529654592E+02  0.43400724933E+02  0.00000000000E+00 0.  1.
         11    1    3    3    0    0  0.84546765217E+01  0.69568350405E+01 -0.62592357104E+01  0.12611785790E+02  0.51100000000E-03 0. -1.
        -11    1    3    3    0    0  0.82757089689E+01 -0.59724472697E+00 -0.11925316998E+02  0.14527809400E+02  0.51100000000E-03 0.  1.
         12    1    3    3    0    0  0.20210546045E+02  0.35158228099E+01 -0.23451018841E+01  0.20647679877E+02  0.00000000000E+00 0. -1.
</event>
<event>
 7    1  0.4621547E-010  0.4778727E+02  0.7816164E-02  0.1312668E+00
        -11   -1    0    0    0    0  0.00000000000E+00  0.00000000000E+00  0.45593999997E+02  0.45594000000E+02  0.51100000000E-03 0. -1.
         11   -1    0    0    0    0 -0.00000000000E+00 -0.00000000000E+00 -0.45593999997E+02  0.45594000000E+02  0.51100000000E-03 0.  1.
    9900012    2    1    2    0    0  0.81837043383E+01  0.13313405443E+02  0.40489552644E+02  0.47787266659E+02  0.19999980007E+02 0.  0.
        -12    1    1    2    0    0 -0.81837043383E+01 -0.13313405443E+02 -0.40489552644E+02  0.43400733341E+02  0.00000000000E+00 0.  1.
         11    1    3    3    0    0 -0.21599355488E+01  0.26016426978E+01  0.42526624832E+01  0.54331394938E+01  0.51100000000E-03 0. -1.
        -11    1    3    3    0    0  0.35163678428E+01  0.40797723045E+00  0.26182759164E+02  0.26420979654E+02  0.51100000000E-03 0.  1.
        -12    1    3    3    0    0  0.68272720443E+01  0.10303785515E+02  0.10054130997E+02  0.15933147511E+02  0.00000000000E+00 0.  1.
</event>
<event>
 7    1  0.4621547E-010  0.4778729E+02  0.7816164E-02  0.1312668E+00
        -11   -1    0    0    0    0  0.00000000000E+00  0.00000000000E+00  0.45593999997E+02  0.45594000000E+02  0.51100000000E-03 0. -1.
         11   -1    0    0    0    0 -0.00000000000E+00 -0.00000000000E+00 -0.45593999997E+02  0.45594000000E+02  0.51100000000E-03 0.  1.
    9900012    2    1    2    0    0 -0.38055815705E+02 -0.20513579692E+02 -0.38170435144E+01  0.47787287080E+02  0.20000073114E+02 0.  0.
        -12    1    1    2    0    0  0.38055815705E+02  0.20513579692E+02  0.38170435144E+01  0.43400712920E+02  0.00000000000E+00 0.  1.
         11    1    3    3    0    0 -0.15894065899E+02 -0.27930733707E+01 -0.48290866612E+01  0.16844662891E+02  0.51100000000E-03 0. -1.
        -11    1    3    3    0    0 -0.84068986498E+01 -0.13021221027E+02 -0.31644934243E+01  0.15819044245E+02  0.51100000000E-03 0.  1.
         12    1    3    3    0    0 -0.13754851156E+02 -0.46992852944E+01  0.41765365710E+01  0.15123579944E+02  0.00000000000E+00 0. -1.
</event>
<event>
 7    1  0.7312845E-010  0.4778727E+02  0.7816164E-02  0.1312668E+00
        -11   -1    0    0    0    0  0.00000000000E+00  0.00000000000E+00  0.45593999997E+02  0.45594000000E+02  0.51100000000E-03 0.  1.
         11   -1    0    0    0    0 -0.00000000000E+00 -0.00000000000E+00 -0.45593999997E+02  0.45594000000E+02  0.51100000000E-03 0. -1.
    9900012    2    1    2    0    0  0.43026409833E+02 -0.52759485653E+01  0.21250593843E+01  0.47787268972E+02  0.19999990549E+02 0.  0.
        -12    1    1    2    0    0 -0.43026409833E+02  0.52759485653E+01 -0.21250593843E+01  0.43400731028E+02  0.00000000000E+00 0.  1.
         11    1    3    3    0    0  0.18309057311E+02  0.19472519146E+01  0.45453135129E+01  0.18965053251E+02  0.51100000000E-03 0. -1.
        -11    1    3    3    0    0 -0.98489717628E+00 -0.77024147110E+00  0.15876971503E+01  0.20209099124E+01  0.51100000000E-03 0.  1.
         12    1    3    3    0    0  0.25702249699E+02 -0.64529590088E+01 -0.40079512789E+01  0.26801305808E+02  0.00000000000E+00 0. -1.
</event>
<event>
 7    1  0.4621547E-010  0.4778729E+02  0.7816164E-02  0.1312668E+00
        -11   -1    0    0    0    0  0.00000000000E+00  0.00000000000E+00  0.45593999997E+02  0.45594000000E+02  0.51100000000E-03 0.  1.
         11   -1    0    0    0    0 -0.00000000000E+00 -0.00000000000E+00 -0.45593999997E+02  0.45594000000E+02  0.51100000000E-03 0. -1.
    9900012    2    1    2    0    0  0.21941224885E+02  0.76690970985E+01 -0.36652269645E+02  0.47787294131E+02  0.20000105260E+02 0.  0.
        -12    1    1    2    0    0 -0.21941224885E+02 -0.76690970985E+01  0.36652269645E+02  0.43400705869E+02  0.00000000000E+00 0.  1.
         11    1    3    3    0    0  0.97937241327E+00  0.54233870653E+01 -0.11437900495E+02  0.12696372142E+02  0.51100000000E-03 0. -1.
        -11    1    3    3    0    0  0.74635682841E+01  0.68507938633E+01 -0.11012556856E+02  0.14963777493E+02  0.51100000000E-03 0.  1.
         12    1    3    3    0    0  0.13498284188E+02 -0.46050838301E+01 -0.14201812295E+02  0.20127144496E+02  0.00000000000E+00 0. -1.
</event>
<event>
 7    1  0.4621547E-010  0.4778729E+02  0.7816164E-02  0.1312668E+00
        -11   -1    0    0    0    0  0.00000000000E+00  0.00000000000E+00  0.45593999997E+02  0.45594000000E+02  0.51100000000E-03 0.  1.
         11   -1    0    0    0    0 -0.00000000000E+00 -0.00000000000E+00 -0.45593999997E+02  0.45594000000E+02  0.51100000000E-03 0. -1.
    9900012    2    1    2    0    0  0.22399589797E+02 -0.15319516937E+01 -0.37142069639E+02  0.47787287608E+02  0.20000075522E+02 0.  0.
        -12    1    1    2    0    0 -0.22399589797E+02  0.15319516937E+01  0.37142069639E+02  0.43400712392E+02  0.00000000000E+00 0.  1.
         11    1    3    3    0    0  0.69459813097E+01 -0.70981775834E+01 -0.88597646685E+01  0.13308877173E+02  0.51100000000E-03 0. -1.
        -11    1    3    3    0    0  0.12037945143E+02  0.23023816946E+01 -0.10691063449E+02  0.16263822511E+02  0.51100000000E-03 0.  1.
         12    1    3    3    0    0  0.34156633439E+01  0.32638441951E+01 -0.17591241521E+02  0.18214587924E+02  0.00000000000E+00 0. -1.
</event>
<event>
 7    1  0.4621547E-010  0.4778727E+02  0.7816164E-02  0.1312668E+00
        -11   -1    0    0    0    0  0.00000000000E+00  0.00000000000E+00  0.45593999997E+02  0.45594000000E+02  0.51100000000E-03 0.  1.
         11   -1    0    0    0    0 -0.00000000000E+00 -0.00000000000E+00 -0.45593999997E+02  0.45594000000E+02  0.51100000000E-03 0. -1.
    9900012    2    1    2    0    0  0.34836388796E+02  0.21110277686E+02 -0.14980170237E+02  0.47787270644E+02  0.19999998173E+02 0.  0.
        -12    1    1    2    0    0 -0.34836388796E+02 -0.21110277686E+02  0.14980170237E+02  0.43400729356E+02  0.00000000000E+00 0.  1.
         11    1    3    3    0    0  0.14208802808E+02  0.14091846615E+02 -0.45410802356E+01  0.20520517251E+02  0.51100000000E-03 0. -1.
        -11    1    3    3    0    0  0.79980346207E+01  0.70737367847E+01  0.31029812420E+00  0.10681881626E+02  0.51100000000E-03 0.  1.
        -12    1    3    3    0    0  0.12629551367E+02 -0.55305713157E-01 -0.10749388126E+02  0.16584871767E+02  0.00000000000E+00 0.  1.
</event>
<event>
 7    1  0.4621547E-010  0.4778727E+02  0.7816164E-02  0.1312668E+00
        -11   -1    0    0    0    0  0.00000000000E+00  0.00000000000E+00  0.45593999997E+02  0.45594000000E+02  0.51100000000E-03 0.  1.
         11   -1    0    0    0    0 -0.00000000000E+00 -0.00000000000E+00 -0.45593999997E+02  0.45594000000E+02  0.51100000000E-03 0. -1.
    9900012    2    1    2    0    0  0.23013122067E+00  0.25205532168E+02 -0.35330605284E+02  0.47787268647E+02  0.19999989069E+02 0.  0.
        -12    1    1    2    0    0 -0.23013122067E+00 -0.25205532168E+02  0.35330605284E+02  0.43400731353E+02  0.00000000000E+00 0.  1.
         11    1    3    3    0    0 -0.21578256954E+01  0.81492205151E+01 -0.35453579207E+01  0.91452484812E+01  0.51100000000E-03 0. -1.
        -11    1    3    3    0    0  0.11913287936E+01  0.12961768194E+02 -0.99228511546E+01  0.16367335590E+02  0.51100000000E-03 0.  1.
        -12    1    3    3    0    0  0.11966281225E+01  0.40945434595E+01 -0.21862396208E+02  0.22274684576E+02  0.00000000000E+00 0.  1.
</event>
<event>
 7    1  0.4621547E-010  0.4778727E+02  0.7816164E-02  0.1312668E+00
        -11   -1    0    0    0    0  0.00000000000E+00  0.00000000000E+00  0.45593999997E+02  0.45594000000E+02  0.51100000000E-03 0.  1.
         11   -1    0    0    0    0 -0.00000000000E+00 -0.00000000000E+00 -0.45593999997E+02  0.45594000000E+02  0.51100000000E-03 0. -1.
    9900012    2    1    2    0    0  0.32597170606E+01  0.65884540789E+01 -0.42773702270E+02  0.47787273182E+02  0.20000009745E+02 0.  0.
        -12    1    1    2    0    0 -0.32597170606E+01 -0.65884540789E+01  0.42773702270E+02  0.43400726818E+02  0.00000000000E+00 0.  1.
         11    1    3    3    0    0 -0.60631153140E+00  0.20260046659E+01 -0.36532435219E+01  0.42211961658E+01  0.51100000000E-03 0. -1.
        -11    1    3    3    0    0 -0.28015868501E+01 -0.43803168365E+01 -0.35714699337E+01  0.63080474170E+01  0.51100000000E-03 0.  1.
         12    1    3    3    0    0  0.66676154422E+01  0.89427662495E+01 -0.35548988814E+02  0.37258029599E+02  0.00000000000E+00 0. -1.
</event>
<event>
 7    1  0.4621547E-010  0.4778727E+02  0.7816164E-02  0.1312668E+00
        -11   -1    0    0    0    0  0.00000000000E+00  0.00000000000E+00  0.45593999997E+02  0.45594000000E+02  0.51100000000E-03 0. -1.
         11   -1    0    0    0    0 -0.00000000000E+00 -0.00000000000E+00 -0.45593999997E+02  0.45594000000E+02  0.51100000000E-03 0.  1.
    9900012    2    1    2    0    0 -0.42723246000E+02 -0.33869702474E+01 -0.68466182508E+01  0.47787268466E+02  0.19999988245E+02 0.  0.
        -12    1    1    2    0    0  0.42723246000E+02  0.33869702474E+01  0.68466182508E+01  0.43400731534E+02  0.00000000000E+00 0.  1.
         11    1    3    3    0    0 -0.26208265286E+02 -0.25610394000E+01 -0.44514831245E+01  0.26706699429E+02  0.51100000000E-03 0. -1.
        -11    1    3    3    0    0 -0.12503542099E+02 -0.28926743908E+01 -0.70121996372E+01  0.14624536716E+02  0.51100000000E-03 0.  1.
         12    1    3    3    0    0 -0.40114386147E+01  0.20667435434E+01  0.46170645109E+01  0.64560323211E+01  0.00000000000E+00 0. -1.
</event>
<event>
 7    1  0.4621547E-010  0.4778730E+02  0.7816164E-02  0.1312668E+00
        -11   -1    0    0    0    0  0.00000000000E+00  0.00000000000E+00  0.45593999997E+02  0.45594000000E+02  0.51100000000E-03 0. -1.
         11   -1    0    0    0    0 -0.00000000000E+00 -0.00000000000E+00 -0.45593999997E+02  0.45594000000E+02  0.51100000000E-03 0.  1.
    9900012    2    1    2    0    0  0.37173451690E+02  0.16867445008E+02  0.14739220935E+02  0.47787299021E+02  0.20000127557E+02 0.  0.
        -12    1    1    2    0    0 -0.37173451690E+02 -0.16867445008E+02 -0.14739220935E+02  0.43400700979E+02  0.00000000000E+00 0.  1.
         11    1    3    3    0    0  0.95812925950E+00  0.51480514002E+01  0.41727757534E+01  0.66957077778E+01  0.51100000000E-03 0. -1.
        -11    1    3    3    0    0  0.85817990766E+01  0.75812717602E+01  0.74880503625E+00  0.11475350371E+02  0.51100000000E-03 0.  1.
        -12    1    3    3    0    0  0.27633523354E+02  0.41381218478E+01  0.98176401456E+01  0.29616240872E+02  0.00000000000E+00 0.  1.
</event>
<event>
 7    1  0.4621547E-010  0.4778727E+02  0.7816164E-02  0.1312668E+00
        -11   -1    0    0    0    0  0.00000000000E+00  0.00000000000E+00  0.45593999997E+02  0.45594000000E+02  0.51100000000E-03 0.  1.
         11   -1    0    0    0    0 -0.00000000000E+00 -0.00000000000E+00 -0.45593999997E+02  0.45594000000E+02  0.51100000000E-03 0. -1.
    9900012    2    1    2    0    0  0.33216865297E+02 -0.13764124451E+02 -0.24306634718E+02  0.47787265520E+02  0.19999974812E+02 0.  0.
        -12    1    1    2    0    0 -0.33216865297E+02  0.13764124451E+02  0.24306634718E+02  0.43400734480E+02  0.00000000000E+00 0.  1.
         11    1    3    3    0    0  0.16490051708E+02 -0.88238243078E+01 -0.82280566095E+01  0.20432390868E+02  0.51100000000E-03 0.  1.
        -11    1    3    3    0    0  0.16931858695E+02 -0.81768053608E+01 -0.12819100199E+02  0.22756917958E+02  0.51100000000E-03 0. -1.
        -12    1    3    3    0    0 -0.20504510537E+00  0.32365052178E+01 -0.32594779097E+01  0.45979566945E+01  0.00000000000E+00 0.  1.
</event>
<event>
 7    1  0.4621547E-010  0.4778727E+02  0.7816164E-02  0.1312668E+00
        -11   -1    0    0    0    0  0.00000000000E+00  0.00000000000E+00  0.45593999997E+02  0.45594000000E+02  0.51100000000E-03 0.  1.
         11   -1    0    0    0    0 -0.00000000000E+00 -0.00000000000E+00 -0.45593999997E+02  0.45594000000E+02  0.51100000000E-03 0. -1.
    9900012    2    1    2    0    0  0.97069539463E+01 -0.23196400943E+02 -0.35374076609E+02  0.47787271117E+02  0.20000000330E+02 0.  0.
        -12    1    1    2    0    0 -0.97069539463E+01  0.23196400943E+02  0.35374076609E+02  0.43400728883E+02  0.00000000000E+00 0.  1.
         11    1    3    3    0    0  0.57802183185E+01 -0.33155669481E+01 -0.14295524850E+02  0.15772315587E+02  0.51100000000E-03 0. -1.
        -11    1    3    3    0    0  0.69787376108E+01 -0.42821501531E+01 -0.66445612978E+01  0.10544656641E+02  0.51100000000E-03 0.  1.
        -12    1    3    3    0    0 -0.30520019830E+01 -0.15598683842E+02 -0.14433990461E+02  0.21470298888E+02  0.00000000000E+00 0.  1.
</event>
<event>
 7    1  0.4621547E-010  0.4778727E+02  0.7816164E-02  0.1312668E+00
        -11   -1    0    0    0    0  0.00000000000E+00  0.00000000000E+00  0.45593999997E+02  0.45594000000E+02  0.51100000000E-03 0.  1.
         11   -1    0    0    0    0 -0.00000000000E+00 -0.00000000000E+00 -0.45593999997E+02  0.45594000000E+02  0.51100000000E-03 0. -1.
    9900012    2    1    2    0    0  0.68241897172E+01  0.28368875538E+02 -0.32128814488E+02  0.47787269764E+02  0.19999994162E+02 0.  0.
        -12    1    1    2    0    0 -0.68241897172E+01 -0.28368875538E+02  0.32128814488E+02  0.43400730236E+02  0.00000000000E+00 0.  1.
         11    1    3    3    0    0 -0.22247534640E+01  0.16541836311E+01 -0.47645654750E+01  0.55124346606E+01  0.51100000000E-03 0. -1.
        -11    1    3    3    0    0 -0.34643099207E+00 -0.16997494205E+01 -0.17543030387E-01  0.17347825638E+01  0.51100000000E-03 0.  1.
         12    1    3    3    0    0  0.93953741733E+01  0.28414441327E+02 -0.27346705983E+02  0.40540052540E+02  0.00000000000E+00 0. -1.
</event>
<event>
 7    1  0.4621547E-010  0.4778727E+02  0.7816164E-02  0.1312668E+00
        -11   -1    0    0    0    0  0.00000000000E+00  0.00000000000E+00  0.45593999997E+02  0.45594000000E+02  0.51100000000E-03 0. -1.
         11   -1    0    0    0    0 -0.00000000000E+00 -0.00000000000E+00 -0.45593999997E+02  0.45594000000E+02  0.51100000000E-03 0.  1.
    9900012    2    1    2    0    0  0.97393832475E+01  0.25347339960E+02  0.33856765154E+02  0.47787265262E+02  0.19999973635E+02 0.  0.
        -12    1    1    2    0    0 -0.97393832475E+01 -0.25347339960E+02 -0.33856765154E+02  0.43400734738E+02  0.00000000000E+00 0.  1.
         11    1    3    3    0    0  0.39561749839E+01 -0.29699985918E+00  0.10619035943E+02  0.11335936399E+02  0.51100000000E-03 0. -1.
        -11    1    3    3    0    0 -0.15424443186E+01  0.28899720259E+01  0.64708475022E+01  0.72527884599E+01  0.51100000000E-03 0.  1.
        -12    1    3    3    0    0  0.73256525822E+01  0.22754367793E+02  0.16766881709E+02  0.29198540403E+02  0.00000000000E+00 0.  1.
</event>
<event>
 7    1  0.4621547E-010  0.4778727E+02  0.7816164E-02  0.1312668E+00
        -11   -1    0    0    0    0  0.00000000000E+00  0.00000000000E+00  0.45593999997E+02  0.45594000000E+02  0.51100000000E-03 0.  1.
         11   -1    0    0    0    0 -0.00000000000E+00 -0.00000000000E+00 -0.45593999997E+02  0.45594000000E+02  0.51100000000E-03 0. -1.
    9900012    2    1    2    0    0 -0.56098907241E+00 -0.43283723797E+02  0.31349262745E+01  0.47787271697E+02  0.20000002974E+02 0.  0.
        -12    1    1    2    0    0  0.56098907241E+00  0.43283723797E+02 -0.31349262745E+01  0.43400728303E+02  0.00000000000E+00 0.  1.
         11    1    3    3    0    0  0.56053843395E+01 -0.11958665910E+02 -0.13425544055E+00  0.13207878283E+02  0.51100000000E-03 0. -1.
        -11    1    3    3    0    0  0.20738045636E+01 -0.36046932341E+00 -0.85676652650E+00  0.22725872135E+01  0.51100000000E-03 0.  1.
         12    1    3    3    0    0 -0.82401779754E+01 -0.30964588564E+02  0.41259482415E+01  0.32306806200E+02  0.00000000000E+00 0. -1.
</event>
<event>
 7    1  0.4621547E-010  0.4778728E+02  0.7816164E-02  0.1312668E+00
        -11   -1    0    0    0    0  0.00000000000E+00  0.00000000000E+00  0.45593999997E+02  0.45594000000E+02  0.51100000000E-03 0.  1.
         11   -1    0    0    0    0 -0.00000000000E+00 -0.00000000000E+00 -0.45593999997E+02  0.45594000000E+02  0.51100000000E-03 0. -1.
    9900012    2    1    2    0    0  0.34937209994E+02  0.10946087642E+02 -0.23306593128E+02  0.47787276964E+02  0.20000026989E+02 0.  0.
        -12    1    1    2    0    0 -0.34937209994E+02 -0.10946087642E+02  0.23306593128E+02  0.43400723036E+02  0.00000000000E+00 0.  1.
         11    1    3    3    0    0  0.92109563273E+01  0.68891376602E+00 -0.98376773720E+01  0.13494303056E+02  0.51100000000E-03 0. -1.
        -11    1    3    3    0    0  0.17052518802E+02  0.45604071078E+01 -0.46752492815E+00  0.17657980924E+02  0.51100000000E-03 0.  1.
        -12    1    3    3    0    0  0.86737348642E+01  0.56967667677E+01 -0.13001390828E+02  0.16634992984E+02  0.00000000000E+00 0.  1.
</event>
<event>
 7    1  0.4621547E-010  0.4778727E+02  0.7816164E-02  0.1312668E+00
        -11   -1    0    0    0    0  0.00000000000E+00  0.00000000000E+00  0.45593999997E+02  0.45594000000E+02  0.51100000000E-03 0.  1.
         11   -1    0    0    0    0 -0.00000000000E+00 -0.00000000000E+00 -0.45593999997E+02  0.45594000000E+02  0.51100000000E-03 0. -1.
    9900012    2    1    2    0    0 -0.42808628045E+02  0.25825972152E+01 -0.66614615242E+01  0.47787268288E+02  0.19999987434E+02 0.  0.
        -12    1    1    2    0    0  0.42808628045E+02 -0.25825972152E+01  0.66614615242E+01  0.43400731712E+02  0.00000000000E+00 0.  1.
         11    1    3    3    0    0 -0.17644944820E+02 -0.28072089727E+01 -0.61066394659E+01  0.18881619257E+02  0.51100000000E-03 0. -1.
        -11    1    3    3    0    0 -0.18609621403E+02  0.64330057986E+01 -0.57108176732E+01  0.20501585576E+02  0.51100000000E-03 0.  1.
         12    1    3    3    0    0 -0.65540618219E+01 -0.10431996108E+01  0.51559956148E+01  0.84040634561E+01  0.00000000000E+00 0. -1.
</event>
<event>
 7    1  0.4621547E-010  0.4778727E+02  0.7816164E-02  0.1312668E+00
        -11   -1    0    0    0    0  0.00000000000E+00  0.00000000000E+00  0.45593999997E+02  0.45594000000E+02  0.51100000000E-03 0. -1.
         11   -1    0    0    0    0 -0.00000000000E+00 -0.00000000000E+00 -0.45593999997E+02  0.45594000000E+02  0.51100000000E-03 0.  1.
    9900012    2    1    2    0    0 -0.10129843416E+02 -0.42197494709E+02 -0.61711845836E+00  0.47787272788E+02  0.20000007948E+02 0.  0.
        -12    1    1    2    0    0  0.10129843416E+02  0.42197494709E+02  0.61711845836E+00  0.43400727212E+02  0.00000000000E+00 0.  1.
         11    1    3    3    0    0  0.18194071483E+01 -0.16098131835E+01 -0.17525323948E+01  0.29955151331E+01  0.51100000000E-03 0. -1.
        -11    1    3    3    0    0  0.16506502863E+01 -0.15974388643E+02  0.39277994645E+01  0.16532796127E+02  0.51100000000E-03 0.  1.
         12    1    3    3    0    0 -0.13599900851E+02 -0.24613292882E+02 -0.27923855281E+01  0.28258961527E+02  0.00000000000E+00 0. -1.
</event>
<event>
 7    1  0.4621547E-010  0.4778727E+02  0.7816164E-02  0.1312668E+00
        -11   -1    0    0    0    0  0.00000000000E+00  0.00000000000E+00  0.45593999997E+02  0.45594000000E+02  0.51100000000E-03 0.  1.
         11   -1    0    0    0    0 -0.00000000000E+00 -0.00000000000E+00 -0.45593999997E+02  0.45594000000E+02  0.51100000000E-03 0. -1.
    9900012    2    1    2    0    0  0.31093258690E+02 -0.24592565158E+02 -0.17664606627E+02  0.47787270463E+02  0.19999997349E+02 0.  0.
        -12    1    1    2    0    0 -0.31093258690E+02  0.24592565158E+02  0.17664606627E+02  0.43400729537E+02  0.00000000000E+00 0.  1.
         11    1    3    3    0    0  0.26892622060E+02 -0.22159788170E+02 -0.18813165423E+02  0.39600562199E+02  0.51100000000E-03 0. -1.
        -11    1    3    3    0    0 -0.10272848931E+01 -0.19014255080E+01 -0.11534669410E+01  0.24497386512E+01  0.51100000000E-03 0.  1.
         12    1    3    3    0    0  0.52279215236E+01 -0.53135148044E+00  0.23020257361E+01  0.57369696132E+01  0.00000000000E+00 0. -1.
</event>
<event>
 7    1  0.4621547E-010  0.4778727E+02  0.7816164E-02  0.1312668E+00
        -11   -1    0    0    0    0  0.00000000000E+00  0.00000000000E+00  0.45593999997E+02  0.45594000000E+02  0.51100000000E-03 0. -1.
         11   -1    0    0    0    0 -0.00000000000E+00 -0.00000000000E+00 -0.45593999997E+02  0.45594000000E+02  0.51100000000E-03 0.  1.
    9900012    2    1    2    0    0  0.27415146430E+02 -0.32584721165E+02  0.83826511881E+01  0.47787272493E+02  0.20000006604E+02 0.  0.
        -12    1    1    2    0    0 -0.27415146430E+02  0.32584721165E+02 -0.83826511881E+01  0.43400727507E+02  0.00000000000E+00 0.  1.
         11    1    3    3    0    0  0.13641323534E+02 -0.13196161047E+02  0.80102854631E+01  0.20600705027E+02  0.51100000000E-03 0. -1.
        -11    1    3    3    0    0  0.28211053343E+01  0.17897126532E+01  0.84665909740E-01  0.33419867243E+01  0.51100000000E-03 0.  1.
        -12    1    3    3    0    0  0.10952717562E+02 -0.21178272771E+02  0.28769981523E+00  0.23844580742E+02  0.00000000000E+00 0.  1.
</event>
<event>
 7    1  0.4621547E-010  0.4778727E+02  0.7816164E-02  0.1312668E+00
        -11   -1    0    0    0    0  0.00000000000E+00  0.00000000000E+00  0.45593999997E+02  0.45594000000E+02  0.51100000000E-03 0. -1.
         11   -1    0    0    0    0 -0.00000000000E+00 -0.00000000000E+00 -0.45593999997E+02  0.45594000000E+02  0.51100000000E-03 0.  1.
    9900012    2    1    2    0    0 -0.23102885574E+02  0.33488447071E+02 -0.15113040802E+02  0.47787269461E+02  0.19999992779E+02 0.  0.
        -12    1    1    2    0    0  0.23102885574E+02 -0.33488447071E+02  0.15113040802E+02  0.43400730539E+02  0.00000000000E+00 0.  1.
         11    1    3    3    0    0 -0.14368251739E+02  0.16697233287E+02 -0.47753136648E+01  0.22539917443E+02  0.51100000000E-03 0. -1.
        -11    1    3    3    0    0 -0.89887582297E+01  0.86133382541E+01 -0.11542933493E+02  0.16977240184E+02  0.51100000000E-03 0.  1.
         12    1    3    3    0    0  0.25412439440E+00  0.81778755294E+01  0.12052063553E+01  0.82701118336E+01  0.00000000000E+00 0. -1.
</event>
<event>
 7    1  0.4621547E-010  0.4778728E+02  0.7816164E-02  0.1312668E+00
        -11   -1    0    0    0    0  0.00000000000E+00  0.00000000000E+00  0.45593999997E+02  0.45594000000E+02  0.51100000000E-03 0.  1.
         11   -1    0    0    0    0 -0.00000000000E+00 -0.00000000000E+00 -0.45593999997E+02  0.45594000000E+02  0.51100000000E-03 0. -1.
    9900012    2    1    2    0    0  0.12225854999E+02 -0.19184530068E+02 -0.36960856745E+02  0.47787278166E+02  0.20000032469E+02 0.  0.
        -12    1    1    2    0    0 -0.12225854999E+02  0.19184530068E+02  0.36960856745E+02  0.43400721834E+02  0.00000000000E+00 0.  1.
         11    1    3    3    0    0  0.13887388630E+02 -0.12205744332E+02 -0.20581192873E+02  0.27666319922E+02  0.51100000000E-03 0. -1.
        -11    1    3    3    0    0  0.74174170719E-01 -0.84036365127E+01 -0.86030372507E+01  0.12026589651E+02  0.51100000000E-03 0.  1.
        -12    1    3    3    0    0 -0.17357078021E+01  0.14248507760E+01 -0.77766266212E+01  0.80943685927E+01  0.00000000000E+00 0.  1.
</event>
<event>
 7    1  0.4621547E-010  0.4778727E+02  0.7816164E-02  0.1312668E+00
        -11   -1    0    0    0    0  0.00000000000E+00  0.00000000000E+00  0.45593999997E+02  0.45594000000E+02  0.51100000000E-03 0.  1.
         11   -1    0    0    0    0 -0.00000000000E+00 -0.00000000000E+00 -0.45593999997E+02  0.45594000000E+02  0.51100000000E-03 0. -1.
    9900012    2    1    2    0    0 -0.71188483453E+01  0.35188839139E+02 -0.24386287769E+02  0.47787269213E+02  0.19999991650E+02 0.  0.
        -12    1    1    2    0    0  0.71188483453E+01 -0.35188839139E+02  0.24386287769E+02  0.43400730787E+02  0.00000000000E+00 0.  1.
         11    1    3    3    0    0 -0.10407183185E+00  0.98669044564E+01 -0.70588117541E+01  0.12132331109E+02  0.51100000000E-03 0. -1.
        -11    1    3    3    0    0 -0.56422743219E+01  0.36751423165E+01 -0.11280712665E+02  0.13137595254E+02  0.51100000000E-03 0.  1.
        -12    1    3    3    0    0 -0.13725021915E+01  0.21646792366E+02 -0.60467633491E+01  0.22517342850E+02  0.00000000000E+00 0.  1.
</event>
<event>
 7    1  0.4878884E-010  0.4778728E+02  0.7816164E-02  0.1312668E+00
        -11   -1    0    0    0    0  0.00000000000E+00  0.00000000000E+00  0.45593999997E+02  0.45594000000E+02  0.51100000000E-03 0.  1.
         11   -1    0    0    0    0 -0.00000000000E+00 -0.00000000000E+00 -0.45593999997E+02  0.45594000000E+02  0.51100000000E-03 0. -1.
    9900012    2    1    2    0    0  0.41928962077E+02  0.43735150244E+01 -0.10317807217E+02  0.47787278344E+02  0.20000033280E+02 0.  0.
        -12    1    1    2    0    0 -0.41928962077E+02 -0.43735150244E+01  0.10317807217E+02  0.43400721656E+02  0.00000000000E+00 0.  1.
         11    1    3    3    0    0  0.37437255912E+01  0.24440952794E+01 -0.46113488360E+01  0.64228982076E+01  0.51100000000E-03 0.  1.
        -11    1    3    3    0    0  0.19776887761E+01  0.27512136119E+01  0.25228148440E+01  0.42243371352E+01  0.51100000000E-03 0. -1.
         12    1    3    3    0    0  0.36207547710E+02 -0.82179386695E+00 -0.82292732249E+01  0.37140043001E+02  0.00000000000E+00 0. -1.
</event>
<event>
 7    1  0.4621547E-010  0.4778727E+02  0.7816164E-02  0.1312668E+00
        -11   -1    0    0    0    0  0.00000000000E+00  0.00000000000E+00  0.45593999997E+02  0.45594000000E+02  0.51100000000E-03 0.  1.
         11   -1    0    0    0    0 -0.00000000000E+00 -0.00000000000E+00 -0.45593999997E+02  0.45594000000E+02  0.51100000000E-03 0. -1.
    9900012    2    1    2    0    0 -0.43075424506E+02  0.20087765382E+01  0.49087804026E+01  0.47787268387E+02  0.19999987881E+02 0.  0.
        -12    1    1    2    0    0  0.43075424506E+02 -0.20087765382E+01 -0.49087804026E+01  0.43400731613E+02  0.00000000000E+00 0.  1.
         11    1    3    3    0    0 -0.11087110795E+00  0.20078441121E+01 -0.17656478013E+01  0.26760498501E+01  0.51100000000E-03 0. -1.
        -11    1    3    3    0    0 -0.12612900902E+02 -0.53969653474E+01  0.91173256942E+00  0.13749318553E+02  0.51100000000E-03 0.  1.
        -12    1    3    3    0    0 -0.30351652496E+02  0.53978977736E+01  0.57626956345E+01  0.31361899983E+02  0.00000000000E+00 0.  1.
</event>
<event>
 7    1  0.4621547E-010  0.4778727E+02  0.7816164E-02  0.1312668E+00
        -11   -1    0    0    0    0  0.00000000000E+00  0.00000000000E+00  0.45593999997E+02  0.45594000000E+02  0.51100000000E-03 0.  1.
         11   -1    0    0    0    0 -0.00000000000E+00 -0.00000000000E+00 -0.45593999997E+02  0.45594000000E+02  0.51100000000E-03 0. -1.
    9900012    2    1    2    0    0  0.39877946221E+02  0.92492676404E+01 -0.14416094151E+02  0.47787270545E+02  0.19999997721E+02 0.  0.
        -12    1    1    2    0    0 -0.39877946221E+02 -0.92492676404E+01  0.14416094151E+02  0.43400729455E+02  0.00000000000E+00 0.  1.
         11    1    3    3    0    0  0.16163529922E+01  0.31145432923E+01 -0.78623024104E+00  0.35959887609E+01  0.51100000000E-03 0. -1.
        -11    1    3    3    0    0  0.24735827704E+02 -0.27865519328E+00 -0.15366569455E+02  0.29121646210E+02  0.51100000000E-03 0.  1.
        -12    1    3    3    0    0  0.13525765524E+02  0.64133795413E+01  0.17367055443E+01  0.15069635573E+02  0.00000000000E+00 0.  1.
</event>
<event>
 7    1  0.4621547E-010  0.4778726E+02  0.7816164E-02  0.1312668E+00
        -11   -1    0    0    0    0  0.00000000000E+00  0.00000000000E+00  0.45593999997E+02  0.45594000000E+02  0.51100000000E-03 0.  1.
         11   -1    0    0    0    0 -0.00000000000E+00 -0.00000000000E+00 -0.45593999997E+02  0.45594000000E+02  0.51100000000E-03 0. -1.
    9900012    2    1    2    0    0  0.66665742607E+01 -0.27345591165E+02 -0.33036332761E+02  0.47787264398E+02  0.19999969695E+02 0.  0.
        -12    1    1    2    0    0 -0.66665742607E+01  0.27345591165E+02  0.33036332761E+02  0.43400735602E+02  0.00000000000E+00 0.  1.
         11    1    3    3    0    0 -0.22685440752E+01 -0.12211289353E+02 -0.15249300850E+02  0.19667309337E+02  0.51100000000E-03 0. -1.
        -11    1    3    3    0    0  0.60164312970E+01 -0.17058776047E+02 -0.13405513379E+02  0.22514596932E+02  0.51100000000E-03 0.  1.
         12    1    3    3    0    0  0.29186870388E+01  0.19244742349E+01 -0.43815185313E+01  0.56053581287E+01  0.00000000000E+00 0. -1.
</event>
<event>
 7    1  0.4621547E-010  0.4778727E+02  0.7816164E-02  0.1312668E+00
        -11   -1    0    0    0    0  0.00000000000E+00  0.00000000000E+00  0.45593999997E+02  0.45594000000E+02  0.51100000000E-03 0. -1.
         11   -1    0    0    0    0 -0.00000000000E+00 -0.00000000000E+00 -0.45593999997E+02  0.45594000000E+02  0.51100000000E-03 0.  1.
    9900012    2    1    2    0    0 -0.17564755853E+02 -0.11134285509E+02  0.38093704284E+02  0.47787271112E+02  0.20000000308E+02 0.  0.
        -12    1    1    2    0    0  0.17564755853E+02  0.11134285509E+02 -0.38093704284E+02  0.43400728888E+02  0.00000000000E+00 0.  1.
         11    1    3    3    0    0 -0.53634289589E+01 -0.74809233492E+01  0.16591566316E+02  0.18973946807E+02  0.51100000000E-03 0. -1.
        -11    1    3    3    0    0 -0.12754431285E+02 -0.78194191831E+01  0.17272781812E+02  0.22850991785E+02  0.51100000000E-03 0.  1.
         12    1    3    3    0    0  0.55310439160E+00  0.41660570230E+01  0.42293561558E+01  0.59623325201E+01  0.00000000000E+00 0. -1.
</event>
<event>
 7    1  0.4621547E-010  0.4778727E+02  0.7816164E-02  0.1312668E+00
        -11   -1    0    0    0    0  0.00000000000E+00  0.00000000000E+00  0.45593999997E+02  0.45594000000E+02  0.51100000000E-03 0.  1.
         11   -1    0    0    0    0 -0.00000000000E+00 -0.00000000000E+00 -0.45593999997E+02  0.45594000000E+02  0.51100000000E-03 0. -1.
    9900012    2    1    2    0    0  0.40761239871E+02  0.30789945078E+01 -0.14583021430E+02  0.47787269626E+02  0.19999993533E+02 0.  0.
        -12    1    1    2    0    0 -0.40761239871E+02 -0.30789945078E+01  0.14583021430E+02  0.43400730374E+02  0.00000000000E+00 0.  1.
         11    1    3    3    0    0  0.42591710538E+01  0.21510307327E+01 -0.38457185068E+01  0.61283784456E+01  0.51100000000E-03 0. -1.
        -11    1    3    3    0    0 -0.16806560122E+00  0.18707848881E+01  0.20792990873E+01  0.28020647921E+01  0.51100000000E-03 0.  1.
         12    1    3    3    0    0  0.36670134418E+02 -0.94282111301E+00 -0.12816602010E+02  0.38856826388E+02  0.00000000000E+00 0. -1.
</event>
<event>
 7    1  0.4621547E-010  0.4778727E+02  0.7816164E-02  0.1312668E+00
        -11   -1    0    0    0    0  0.00000000000E+00  0.00000000000E+00  0.45593999997E+02  0.45594000000E+02  0.51100000000E-03 0.  1.
         11   -1    0    0    0    0 -0.00000000000E+00 -0.00000000000E+00 -0.45593999997E+02  0.45594000000E+02  0.51100000000E-03 0. -1.
    9900012    2    1    2    0    0  0.16328091215E+02 -0.25289492991E+02 -0.31264328759E+02  0.47787271075E+02  0.20000000141E+02 0.  0.
        -12    1    1    2    0    0 -0.16328091215E+02  0.25289492991E+02  0.31264328759E+02  0.43400728925E+02  0.00000000000E+00 0.  1.
         11    1    3    3    0    0 -0.12085890029E+01  0.53017176321E+00 -0.16553762881E+01  0.21170829915E+01  0.51100000000E-03 0. -1.
        -11    1    3    3    0    0  0.90702778172E+00  0.47194972801E+00  0.14080613940E+01  0.17401359410E+01  0.51100000000E-03 0.  1.
         12    1    3    3    0    0  0.16629652436E+02 -0.26291614482E+02 -0.31017013864E+02  0.43930052143E+02  0.00000000000E+00 0. -1.
</event>
<event>
 7    1  0.4621547E-010  0.4778727E+02  0.7816164E-02  0.1312668E+00
        -11   -1    0    0    0    0  0.00000000000E+00  0.00000000000E+00  0.45593999997E+02  0.45594000000E+02  0.51100000000E-03 0.  1.
         11   -1    0    0    0    0 -0.00000000000E+00 -0.00000000000E+00 -0.45593999997E+02  0.45594000000E+02  0.51100000000E-03 0. -1.
    9900012    2    1    2    0    0  0.34560907227E+02  0.16491022433E+02 -0.20425793646E+02  0.47787272180E+02  0.20000005177E+02 0.  0.
        -12    1    1    2    0    0 -0.34560907227E+02 -0.16491022433E+02  0.20425793646E+02  0.43400727820E+02  0.00000000000E+00 0.  1.
         11    1    3    3    0    0  0.18367142840E+02  0.13163537644E+02 -0.70352883642E+01  0.23666979994E+02  0.51100000000E-03 0. -1.
        -11    1    3    3    0    0  0.15997717360E+02  0.62065285241E+01 -0.11801364170E+02  0.20825949044E+02  0.51100000000E-03 0.  1.
        -12    1    3    3    0    0  0.19604702747E+00 -0.28790437350E+01 -0.15891411119E+01  0.32943431422E+01  0.00000000000E+00 0.  1.
</event>
<event>
 7    1  0.4621547E-010  0.4778727E+02  0.7816164E-02  0.1312668E+00
        -11   -1    0    0    0    0  0.00000000000E+00  0.00000000000E+00  0.45593999997E+02  0.45594000000E+02  0.51100000000E-03 0.  1.
         11   -1    0    0    0    0 -0.00000000000E+00 -0.00000000000E+00 -0.45593999997E+02  0.45594000000E+02  0.51100000000E-03 0. -1.
    9900012    2    1    2    0    0  0.19062587595E+02 -0.30176719165E+02 -0.24690217754E+02  0.47787268691E+02  0.19999989272E+02 0.  0.
        -12    1    1    2    0    0 -0.19062587595E+02  0.30176719165E+02  0.24690217754E+02  0.43400731309E+02  0.00000000000E+00 0.  1.
         11    1    3    3    0    0  0.84010021519E+01 -0.13791677643E+02 -0.34147772517E+01  0.16505996283E+02  0.51100000000E-03 0. -1.
        -11    1    3    3    0    0  0.12636400412E+02 -0.10722150614E+02 -0.17922748371E+02  0.24410408407E+02  0.51100000000E-03 0.  1.
         12    1    3    3    0    0 -0.19748149685E+01 -0.56628909079E+01 -0.33526921306E+01  0.68708640007E+01  0.00000000000E+00 0. -1.
</event>
<event>
 7    1  0.4621547E-010  0.4778727E+02  0.7816164E-02  0.1312668E+00
        -11   -1    0    0    0    0  0.00000000000E+00  0.00000000000E+00  0.45593999997E+02  0.45594000000E+02  0.51100000000E-03 0.  1.
         11   -1    0    0    0    0 -0.00000000000E+00 -0.00000000000E+00 -0.45593999997E+02  0.45594000000E+02  0.51100000000E-03 0. -1.
    9900012    2    1    2    0    0  0.10799733049E+02 -0.37944276202E+02  0.18089245958E+02  0.47787272474E+02  0.20000006518E+02 0.  0.
        -12    1    1    2    0    0 -0.10799733049E+02  0.37944276202E+02 -0.18089245958E+02  0.43400727526E+02  0.00000000000E+00 0.  1.
         11    1    3    3    0    0  0.10616268097E+02 -0.12224486116E+02  0.77797948434E+01  0.17962973506E+02  0.51100000000E-03 0. -1.
        -11    1    3    3    0    0  0.16355558912E+00 -0.11031572179E+01  0.43580233882E+01  0.44984524441E+01  0.51100000000E-03 0.  1.
         12    1    3    3    0    0  0.19909363024E-01 -0.24616632869E+02  0.59514277263E+01  0.25325846524E+02  0.00000000000E+00 0. -1.
</event>
<event>
 7    1  0.4621547E-010  0.4778727E+02  0.7816164E-02  0.1312668E+00
        -11   -1    0    0    0    0  0.00000000000E+00  0.00000000000E+00  0.45593999997E+02  0.45594000000E+02  0.51100000000E-03 0.  1.
         11   -1    0    0    0    0 -0.00000000000E+00 -0.00000000000E+00 -0.45593999997E+02  0.45594000000E+02  0.51100000000E-03 0. -1.
    9900012    2    1    2    0    0 -0.29841342282E+02  0.15908505185E+02 -0.27203625341E+02  0.47787268691E+02  0.19999989271E+02 0.  0.
        -12    1    1    2    0    0  0.29841342282E+02 -0.15908505185E+02  0.27203625341E+02  0.43400731309E+02  0.00000000000E+00 0.  1.
         11    1    3    3    0    0 -0.14866842890E+02  0.12513680608E+02 -0.14689893585E+02  0.24359971135E+02  0.51100000000E-03 0. -1.
        -11    1    3    3    0    0 -0.14302769268E+02  0.62364408122E+01 -0.13188579958E+02  0.20430395109E+02  0.51100000000E-03 0.  1.
        -12    1    3    3    0    0 -0.67173012363E+00 -0.28416162348E+01  0.67484820207E+00  0.29969024476E+01  0.00000000000E+00 0.  1.
</event>
<event>
 7    1  0.4621547E-010  0.4778728E+02  0.7816164E-02  0.1312668E+00
        -11   -1    0    0    0    0  0.00000000000E+00  0.00000000000E+00  0.45593999997E+02  0.45594000000E+02  0.51100000000E-03 0. -1.
         11   -1    0    0    0    0 -0.00000000000E+00 -0.00000000000E+00 -0.45593999997E+02  0.45594000000E+02  0.51100000000E-03 0.  1.
    9900012    2    1    2    0    0 -0.15626930931E+02 -0.10819162250E+02  0.39017529527E+02  0.47787275899E+02  0.20000022134E+02 0.  0.
        -12    1    1    2    0    0  0.15626930931E+02  0.10819162250E+02 -0.39017529527E+02  0.43400724101E+02  0.00000000000E+00 0.  1.
         11    1    3    3    0    0  0.55212466683E+00  0.12143187110E+01 -0.34722751803E+00  0.13783971815E+01  0.51100000000E-03 0. -1.
        -11    1    3    3    0    0 -0.16398672989E+01  0.31542365995E+01  0.57784735963E+01  0.67844771831E+01  0.51100000000E-03 0.  1.
         12    1    3    3    0    0 -0.14539188299E+02 -0.15187717561E+02  0.33586283448E+02  0.39624401535E+02  0.00000000000E+00 0. -1.
</event>
<event>
 7    1  0.4621547E-010  0.4778728E+02  0.7816164E-02  0.1312668E+00
        -11   -1    0    0    0    0  0.00000000000E+00  0.00000000000E+00  0.45593999997E+02  0.45594000000E+02  0.51100000000E-03 0.  1.
         11   -1    0    0    0    0 -0.00000000000E+00 -0.00000000000E+00 -0.45593999997E+02  0.45594000000E+02  0.51100000000E-03 0. -1.
    9900012    2    1    2    0    0 -0.40170050236E+02  0.63257177121E+01  0.15164934012E+02  0.47787275765E+02  0.20000021524E+02 0.  0.
        -12    1    1    2    0    0  0.40170050236E+02 -0.63257177121E+01 -0.15164934012E+02  0.43400724235E+02  0.00000000000E+00 0.  1.
         11    1    3    3    0    0 -0.28065572948E+02  0.58248419072E+01  0.83428323263E+01  0.29853107370E+02  0.51100000000E-03 0. -1.
        -11    1    3    3    0    0 -0.78245000056E+01  0.58250885095E+01  0.40017820931E+01  0.10543657651E+02  0.51100000000E-03 0.  1.
        -12    1    3    3    0    0 -0.42799772821E+01 -0.53242127045E+01  0.28203195928E+01  0.73905107445E+01  0.00000000000E+00 0.  1.
</event>
<event>
 7    1  0.4621547E-010  0.4778727E+02  0.7816164E-02  0.1312668E+00
        -11   -1    0    0    0    0  0.00000000000E+00  0.00000000000E+00  0.45593999997E+02  0.45594000000E+02  0.51100000000E-03 0.  1.
         11   -1    0    0    0    0 -0.00000000000E+00 -0.00000000000E+00 -0.45593999997E+02  0.45594000000E+02  0.51100000000E-03 0. -1.
    9900012    2    1    2    0    0  0.24723351347E+01  0.36254579274E+02  0.23730069937E+02  0.47787272143E+02  0.20000005008E+02 0.  0.
        -12    1    1    2    0    0 -0.24723351347E+01 -0.36254579274E+02 -0.23730069937E+02  0.43400727857E+02  0.00000000000E+00 0.  1.
         11    1    3    3    0    0 -0.33089206098E+01  0.15892083076E+02  0.10218492221E+02  0.19181367095E+02  0.51100000000E-03 0. -1.
        -11    1    3    3    0    0 -0.18294913465E+01  0.15052967387E+02  0.48727300240E+01  0.15927409202E+02  0.51100000000E-03 0.  1.
        -12    1    3    3    0    0  0.76107470910E+01  0.53095288108E+01  0.86388476921E+01  0.12678495846E+02  0.00000000000E+00 0.  1.
</event>
<event>
 7    1  0.4621547E-010  0.4778727E+02  0.7816164E-02  0.1312668E+00
        -11   -1    0    0    0    0  0.00000000000E+00  0.00000000000E+00  0.45593999997E+02  0.45594000000E+02  0.51100000000E-03 0. -1.
         11   -1    0    0    0    0 -0.00000000000E+00 -0.00000000000E+00 -0.45593999997E+02  0.45594000000E+02  0.51100000000E-03 0.  1.
    9900012    2    1    2    0    0 -0.54463434594E+01  0.38874700356E+02  0.18512651765E+02  0.47787271202E+02  0.20000000719E+02 0.  0.
        -12    1    1    2    0    0  0.54463434594E+01 -0.38874700356E+02 -0.18512651765E+02  0.43400728798E+02  0.00000000000E+00 0.  1.
         11    1    3    3    0    0 -0.52860102145E+01  0.13066787768E+02 -0.71626042460E+00  0.14113676907E+02  0.51100000000E-03 0. -1.
        -11    1    3    3    0    0 -0.57509515703E+00  0.63601704388E+01  0.10640608635E+02  0.12409877310E+02  0.51100000000E-03 0.  1.
        -12    1    3    3    0    0  0.41476191212E+00  0.19447742149E+02  0.85883035542E+01  0.21263716986E+02  0.00000000000E+00 0.  1.
</event>
<event>
 7    1  0.4621547E-010  0.4778725E+02  0.7816164E-02  0.1312668E+00
        -11   -1    0    0    0    0  0.00000000000E+00  0.00000000000E+00  0.45593999997E+02  0.45594000000E+02  0.51100000000E-03 0. -1.
         11   -1    0    0    0    0 -0.00000000000E+00 -0.00000000000E+00 -0.45593999997E+02  0.45594000000E+02  0.51100000000E-03 0.  1.
    9900012    2    1    2    0    0  0.36231844956E+02 -0.91972027954E+01  0.22051974752E+02  0.47787254400E+02  0.19999924112E+02 0.  0.
        -12    1    1    2    0    0 -0.36231844956E+02  0.91972027954E+01 -0.22051974752E+02  0.43400745600E+02  0.00000000000E+00 0.  1.
         11    1    3    3    0    0  0.22907948279E+01 -0.18242458111E+01  0.10349773753E+02  0.10756088077E+02  0.51100000000E-03 0. -1.
        -11    1    3    3    0    0  0.64693555311E+01 -0.35115118842E+01  0.18278752446E+01  0.75844844829E+01  0.51100000000E-03 0.  1.
         12    1    3    3    0    0  0.27471694597E+02 -0.38614451001E+01  0.98743257546E+01  0.29446681840E+02  0.00000000000E+00 0. -1.
</event>
<event>
 7    1  0.4621547E-010  0.4778729E+02  0.7816164E-02  0.1312668E+00
        -11   -1    0    0    0    0  0.00000000000E+00  0.00000000000E+00  0.45593999997E+02  0.45594000000E+02  0.51100000000E-03 0.  1.
         11   -1    0    0    0    0 -0.00000000000E+00 -0.00000000000E+00 -0.45593999997E+02  0.45594000000E+02  0.51100000000E-03 0. -1.
    9900012    2    1    2    0    0  0.26343322712E+02 -0.19552017127E+02 -0.28414247221E+02  0.47787291822E+02  0.20000094731E+02 0.  0.
        -12    1    1    2    0    0 -0.26343322712E+02  0.19552017127E+02  0.28414247221E+02  0.43400708178E+02  0.00000000000E+00 0.  1.
         11    1    3    3    0    0  0.15248813085E+02 -0.97363167094E+01 -0.11516973206E+02  0.21446744174E+02  0.51100000000E-03 0. -1.
        -11    1    3    3    0    0  0.58543809668E+01 -0.92451836751E+01 -0.28078490077E+01  0.11297398550E+02  0.51100000000E-03 0.  1.
        -12    1    3    3    0    0  0.52401286595E+01 -0.57051674289E+00 -0.14089425007E+02  0.15043149097E+02  0.00000000000E+00 0.  1.
</event>
<event>
 7    1  0.4621547E-010  0.4778728E+02  0.7816164E-02  0.1312668E+00
        -11   -1    0    0    0    0  0.00000000000E+00  0.00000000000E+00  0.45593999997E+02  0.45594000000E+02  0.51100000000E-03 0. -1.
         11   -1    0    0    0    0 -0.00000000000E+00 -0.00000000000E+00 -0.45593999997E+02  0.45594000000E+02  0.51100000000E-03 0.  1.
    9900012    2    1    2    0    0  0.17132165399E+02  0.39807759049E+02  0.23352972692E+01  0.47787281284E+02  0.20000046686E+02 0.  0.
        -12    1    1    2    0    0 -0.17132165399E+02 -0.39807759049E+02 -0.23352972692E+01  0.43400718716E+02  0.00000000000E+00 0.  1.
         11    1    3    3    0    0  0.74777041594E+01  0.15695151138E+02  0.18659824149E+01  0.17485300094E+02  0.51100000000E-03 0. -1.
        -11    1    3    3    0    0  0.74947780943E+01  0.22294360235E+02  0.58398982598E+01  0.24234574659E+02  0.51100000000E-03 0.  1.
        -12    1    3    3    0    0  0.21596831451E+01  0.18182476761E+01 -0.53705834055E+01  0.60674065311E+01  0.00000000000E+00 0.  1.
</event>
<event>
 7    1  0.4621547E-010  0.4778728E+02  0.7816164E-02  0.1312668E+00
        -11   -1    0    0    0    0  0.00000000000E+00  0.00000000000E+00  0.45593999997E+02  0.45594000000E+02  0.51100000000E-03 0.  1.
         11   -1    0    0    0    0 -0.00000000000E+00 -0.00000000000E+00 -0.45593999997E+02  0.45594000000E+02  0.51100000000E-03 0. -1.
    9900012    2    1    2    0    0 -0.13699122528E+02 -0.25272830433E+02 -0.32515241520E+02  0.47787275959E+02  0.20000022408E+02 0.  0.
        -12    1    1    2    0    0  0.13699122528E+02  0.25272830433E+02  0.32515241520E+02  0.43400724041E+02  0.00000000000E+00 0.  1.
         11    1    3    3    0    0 -0.10628045142E+02 -0.25555096707E+02 -0.29651366664E+02  0.40561334502E+02  0.51100000000E-03 0. -1.
        -11    1    3    3    0    0 -0.35263843096E+01 -0.11516628140E+01 -0.39128635172E+01  0.53918656049E+01  0.51100000000E-03 0.  1.
        -12    1    3    3    0    0  0.45530692381E+00  0.14339290873E+01  0.10489886613E+01  0.18340758528E+01  0.00000000000E+00 0.  1.
</event>
<event>
 7    1  0.4621547E-010  0.4778727E+02  0.7816164E-02  0.1312668E+00
        -11   -1    0    0    0    0  0.00000000000E+00  0.00000000000E+00  0.45593999997E+02  0.45594000000E+02  0.51100000000E-03 0.  1.
         11   -1    0    0    0    0 -0.00000000000E+00 -0.00000000000E+00 -0.45593999997E+02  0.45594000000E+02  0.51100000000E-03 0. -1.
    9900012    2    1    2    0    0  0.32195389819E+02 -0.94770735669E+01 -0.27518456911E+02  0.47787268211E+02  0.19999987083E+02 0.  0.
        -12    1    1    2    0    0 -0.32195389819E+02  0.94770735669E+01  0.27518456911E+02  0.43400731789E+02  0.00000000000E+00 0.  1.
         11    1    3    3    0    0  0.15865876062E+02 -0.56485605764E+01 -0.22556714870E+02  0.28150269018E+02  0.51100000000E-03 0. -1.
        -11    1    3    3    0    0  0.15929327557E+01 -0.23252682551E+01 -0.38647698492E+01  0.47833830571E+01  0.51100000000E-03 0.  1.
        -12    1    3    3    0    0  0.14736581001E+02 -0.15032447354E+01 -0.10969721924E+01  0.14853616136E+02  0.00000000000E+00 0.  1.
</event>
<event>
 7    1  0.4621547E-010  0.4778727E+02  0.7816164E-02  0.1312668E+00
        -11   -1    0    0    0    0  0.00000000000E+00  0.00000000000E+00  0.45593999997E+02  0.45594000000E+02  0.51100000000E-03 0. -1.
         11   -1    0    0    0    0 -0.00000000000E+00 -0.00000000000E+00 -0.45593999997E+02  0.45594000000E+02  0.51100000000E-03 0.  1.
    9900012    2    1    2    0    0 -0.35628387737E+01  0.43239498607E+02 -0.11292228857E+01  0.47787271846E+02  0.20000003656E+02 0.  0.
        -12    1    1    2    0    0  0.35628387737E+01 -0.43239498607E+02  0.11292228857E+01  0.43400728154E+02  0.00000000000E+00 0.  1.
         11    1    3    3    0    0  0.50210700880E+00  0.16473543387E+02  0.88931857622E+01  0.18727479713E+02  0.51100000000E-03 0. -1.
        -11    1    3    3    0    0  0.50345006952E+00  0.54524069505E+01 -0.18256585408E+01  0.57719349351E+01  0.51100000000E-03 0.  1.
         12    1    3    3    0    0 -0.45683958520E+01  0.21313548270E+02 -0.81967501071E+01  0.23287857198E+02  0.00000000000E+00 0. -1.
</event>
<event>
 7    1  0.4621547E-010  0.4778727E+02  0.7816164E-02  0.1312668E+00
        -11   -1    0    0    0    0  0.00000000000E+00  0.00000000000E+00  0.45593999997E+02  0.45594000000E+02  0.51100000000E-03 0.  1.
         11   -1    0    0    0    0 -0.00000000000E+00 -0.00000000000E+00 -0.45593999997E+02  0.45594000000E+02  0.51100000000E-03 0. -1.
    9900012    2    1    2    0    0 -0.30431133410E+02 -0.83728301651E+01 -0.29790352766E+02  0.47787270933E+02  0.19999999492E+02 0.  0.
        -12    1    1    2    0    0  0.30431133410E+02  0.83728301651E+01  0.29790352766E+02  0.43400729067E+02  0.00000000000E+00 0.  1.
         11    1    3    3    0    0 -0.90652775420E+01 -0.40728343282E+01 -0.14982066905E+02  0.17978586301E+02  0.51100000000E-03 0. -1.
        -11    1    3    3    0    0 -0.18185531698E+02  0.14665126291E+01 -0.14341988307E+02  0.23206827686E+02  0.51100000000E-03 0.  1.
         12    1    3    3    0    0 -0.31803241709E+01 -0.57665084659E+01 -0.46629755428E+00  0.66018569455E+01  0.00000000000E+00 0. -1.
</event>
<event>
 7    1  0.4621547E-010  0.4778726E+02  0.7816164E-02  0.1312668E+00
        -11   -1    0    0    0    0  0.00000000000E+00  0.00000000000E+00  0.45593999997E+02  0.45594000000E+02  0.51100000000E-03 0.  1.
         11   -1    0    0    0    0 -0.00000000000E+00 -0.00000000000E+00 -0.45593999997E+02  0.45594000000E+02  0.51100000000E-03 0. -1.
    9900012    2    1    2    0    0  0.28734989978E+02 -0.85929968088E+01 -0.31370132300E+02  0.47787257567E+02  0.19999938549E+02 0.  0.
        -12    1    1    2    0    0 -0.28734989978E+02  0.85929968088E+01  0.31370132300E+02  0.43400742433E+02  0.00000000000E+00 0.  1.
         11    1    3    3    0    0  0.14835851471E+02  0.14760348301E+01 -0.17766476288E+02  0.23193293161E+02  0.51100000000E-03 0. -1.
        -11    1    3    3    0    0  0.12998050072E+01 -0.30935374647E+00 -0.73552791408E+01  0.74756487543E+01  0.51100000000E-03 0.  1.
        -12    1    3    3    0    0  0.12599333501E+02 -0.97596778924E+01 -0.62483768714E+01  0.17118315652E+02  0.00000000000E+00 0.  1.
</event>
<event>
 7    1  0.4621547E-010  0.4778727E+02  0.7816164E-02  0.1312668E+00
        -11   -1    0    0    0    0  0.00000000000E+00  0.00000000000E+00  0.45593999997E+02  0.45594000000E+02  0.51100000000E-03 0.  1.
         11   -1    0    0    0    0 -0.00000000000E+00 -0.00000000000E+00 -0.45593999997E+02  0.45594000000E+02  0.51100000000E-03 0. -1.
    9900012    2    1    2    0    0 -0.22814660828E+02  0.26590093736E+02 -0.25614089026E+02  0.47787269704E+02  0.19999993889E+02 0.  0.
        -12    1    1    2    0    0  0.22814660828E+02 -0.26590093736E+02  0.25614089026E+02  0.43400730296E+02  0.00000000000E+00 0.  1.
         11    1    3    3    0    0 -0.11743027157E+02  0.15493712402E+02 -0.84949236229E+01  0.21215973662E+02  0.51100000000E-03 0. -1.
        -11    1    3    3    0    0 -0.79315486712E+01  0.38747650038E+01 -0.13296237604E+01  0.89269909692E+01  0.51100000000E-03 0.  1.
        -12    1    3    3    0    0 -0.31400849998E+01  0.72216163310E+01 -0.15789541642E+02  0.17644305073E+02  0.00000000000E+00 0.  1.
</event>
<event>
 7    1  0.4621547E-010  0.4778727E+02  0.7816164E-02  0.1312668E+00
        -11   -1    0    0    0    0  0.00000000000E+00  0.00000000000E+00  0.45593999997E+02  0.45594000000E+02  0.51100000000E-03 0.  1.
         11   -1    0    0    0    0 -0.00000000000E+00 -0.00000000000E+00 -0.45593999997E+02  0.45594000000E+02  0.51100000000E-03 0. -1.
    9900012    2    1    2    0    0  0.14457452530E+02  0.13157214065E+02 -0.38749102794E+02  0.47787272092E+02  0.20000004775E+02 0.  0.
        -12    1    1    2    0    0 -0.14457452530E+02 -0.13157214065E+02  0.38749102794E+02  0.43400727908E+02  0.00000000000E+00 0.  1.
         11    1    3    3    0    0  0.69952565042E+00 -0.12713376346E+01 -0.55442741460E+01  0.57310218621E+01  0.51100000000E-03 0.  1.
        -11    1    3    3    0    0  0.74635911047E+01 -0.17973412008E+01 -0.15119767780E+02  0.16957093075E+02  0.51100000000E-03 0. -1.
         12    1    3    3    0    0  0.62943357747E+01  0.16225892901E+02 -0.18085060868E+02  0.25099157155E+02  0.00000000000E+00 0. -1.
</event>
<event>
 7    1  0.4621547E-010  0.4778727E+02  0.7816164E-02  0.1312668E+00
        -11   -1    0    0    0    0  0.00000000000E+00  0.00000000000E+00  0.45593999997E+02  0.45594000000E+02  0.51100000000E-03 0. -1.
         11   -1    0    0    0    0 -0.00000000000E+00 -0.00000000000E+00 -0.45593999997E+02  0.45594000000E+02  0.51100000000E-03 0.  1.
    9900012    2    1    2    0    0 -0.73808263737E+01 -0.29993480543E+02  0.30488323923E+02  0.47787269952E+02  0.19999995019E+02 0.  0.
        -12    1    1    2    0    0  0.73808263737E+01  0.29993480543E+02 -0.30488323923E+02  0.43400730048E+02  0.00000000000E+00 0.  1.
         11    1    3    3    0    0 -0.17809316759E+01 -0.94679185862E+01  0.78817038660E+01  0.12447267013E+02  0.51100000000E-03 0. -1.
        -11    1    3    3    0    0 -0.44826107897E+01 -0.52909830807E+01 -0.12161861039E+01  0.70404126550E+01  0.51100000000E-03 0.  1.
        -12    1    3    3    0    0 -0.11172839081E+01 -0.15234578877E+02  0.23822806161E+02  0.28299590284E+02  0.00000000000E+00 0.  1.
</event>
<event>
 7    1  0.4621547E-010  0.4778727E+02  0.7816164E-02  0.1312668E+00
        -11   -1    0    0    0    0  0.00000000000E+00  0.00000000000E+00  0.45593999997E+02  0.45594000000E+02  0.51100000000E-03 0.  1.
         11   -1    0    0    0    0 -0.00000000000E+00 -0.00000000000E+00 -0.45593999997E+02  0.45594000000E+02  0.51100000000E-03 0. -1.
    9900012    2    1    2    0    0  0.30916405047E+01 -0.42926326369E+02 -0.56031667209E+01  0.47787271735E+02  0.20000003151E+02 0.  0.
        -12    1    1    2    0    0 -0.30916405047E+01  0.42926326369E+02  0.56031667209E+01  0.43400728265E+02  0.00000000000E+00 0.  1.
         11    1    3    3    0    0  0.44026026171E+01 -0.42358530937E+02 -0.59944196086E+01  0.43006524152E+02  0.51100000000E-03 0. -1.
        -11    1    3    3    0    0  0.14651112089E+01 -0.10762748881E+01 -0.37522018705E+00  0.18562620879E+01  0.51100000000E-03 0.  1.
         12    1    3    3    0    0 -0.27760733213E+01  0.50847945514E+00  0.76647307471E+00  0.29244854959E+01  0.00000000000E+00 0. -1.
</event>
<event>
 7    1  0.4621547E-010  0.4778727E+02  0.7816164E-02  0.1312668E+00
        -11   -1    0    0    0    0  0.00000000000E+00  0.00000000000E+00  0.45593999997E+02  0.45594000000E+02  0.51100000000E-03 0.  1.
         11   -1    0    0    0    0 -0.00000000000E+00 -0.00000000000E+00 -0.45593999997E+02  0.45594000000E+02  0.51100000000E-03 0. -1.
    9900012    2    1    2    0    0  0.15171503097E+02  0.39451211255E+02 -0.98514176987E+01  0.47787274126E+02  0.20000014052E+02 0.  0.
        -12    1    1    2    0    0 -0.15171503097E+02 -0.39451211255E+02  0.98514176987E+01  0.43400725874E+02  0.00000000000E+00 0.  1.
         11    1    3    3    0    0  0.92833082015E+01  0.18895011744E+02 -0.52700496866E+01  0.21701951616E+02  0.51100000000E-03 0. -1.
        -11    1    3    3    0    0  0.90045171537E+01  0.20139650673E+02 -0.56352732284E+01  0.22769347005E+02  0.51100000000E-03 0.  1.
        -12    1    3    3    0    0 -0.31163222582E+01  0.41654883773E+00  0.10539052163E+01  0.33159755060E+01  0.00000000000E+00 0.  1.
</event>
<event>
 7    1  0.4621547E-010  0.4778727E+02  0.7816164E-02  0.1312668E+00
        -11   -1    0    0    0    0  0.00000000000E+00  0.00000000000E+00  0.45593999997E+02  0.45594000000E+02  0.51100000000E-03 0.  1.
         11   -1    0    0    0    0 -0.00000000000E+00 -0.00000000000E+00 -0.45593999997E+02  0.45594000000E+02  0.51100000000E-03 0. -1.
    9900012    2    1    2    0    0  0.17779376001E+02  0.35212617592E+02 -0.18099404597E+02  0.47787273101E+02  0.20000009375E+02 0.  0.
        -12    1    1    2    0    0 -0.17779376001E+02 -0.35212617592E+02  0.18099404597E+02  0.43400726899E+02  0.00000000000E+00 0.  1.
         11    1    3    3    0    0  0.27911652065E+01  0.11937415843E+02 -0.61834693053E+01  0.13730542347E+02  0.51100000000E-03 0. -1.
        -11    1    3    3    0    0  0.44928001232E+01  0.33944649926E+01 -0.10022608825E+02  0.11496100793E+02  0.51100000000E-03 0.  1.
        -12    1    3    3    0    0  0.10495410671E+02  0.19880736756E+02 -0.18933264672E+01  0.22560629960E+02  0.00000000000E+00 0.  1.
</event>
<event>
 7    1  0.4621547E-010  0.4778727E+02  0.7816164E-02  0.1312668E+00
        -11   -1    0    0    0    0  0.00000000000E+00  0.00000000000E+00  0.45593999997E+02  0.45594000000E+02  0.51100000000E-03 0.  1.
         11   -1    0    0    0    0 -0.00000000000E+00 -0.00000000000E+00 -0.45593999997E+02  0.45594000000E+02  0.51100000000E-03 0. -1.
    9900012    2    1    2    0    0  0.46039063589E+01  0.17769029235E+02 -0.39327962571E+02  0.47787274272E+02  0.20000014715E+02 0.  0.
        -12    1    1    2    0    0 -0.46039063589E+01 -0.17769029235E+02  0.39327962571E+02  0.43400725728E+02  0.00000000000E+00 0.  1.
         11    1    3    3    0    0 -0.27740195192E+01  0.27025782556E+01 -0.14337114320E+02  0.14850991913E+02  0.51100000000E-03 0. -1.
        -11    1    3    3    0    0  0.25409346486E+01 -0.22986883433E+01 -0.41058130818E+01  0.53477115023E+01  0.51100000000E-03 0.  1.
         12    1    3    3    0    0  0.48369912295E+01  0.17365139323E+02 -0.20885035170E+02  0.27588570856E+02  0.00000000000E+00 0. -1.
</event>
<event>
 7    1  0.4621547E-010  0.4778727E+02  0.7816164E-02  0.1312668E+00
        -11   -1    0    0    0    0  0.00000000000E+00  0.00000000000E+00  0.45593999997E+02  0.45594000000E+02  0.51100000000E-03 0. -1.
         11   -1    0    0    0    0 -0.00000000000E+00 -0.00000000000E+00 -0.45593999997E+02  0.45594000000E+02  0.51100000000E-03 0.  1.
    9900012    2    1    2    0    0  0.30935408688E+02 -0.20177350294E+02  0.22792504480E+02  0.47787271480E+02  0.20000001988E+02 0.  0.
        -12    1    1    2    0    0 -0.30935408688E+02  0.20177350294E+02 -0.22792504480E+02  0.43400728520E+02  0.00000000000E+00 0.  1.
         11    1    3    3    0    0  0.12080082135E+02 -0.45618175173E+01  0.11232829185E+02  0.17114760156E+02  0.51100000000E-03 0. -1.
        -11    1    3    3    0    0  0.52350289946E+01 -0.37805632956E+00  0.85245683258E+01  0.10010830164E+02  0.51100000000E-03 0.  1.
         12    1    3    3    0    0  0.13620297559E+02 -0.15237476447E+02  0.30351069685E+01  0.20661681160E+02  0.00000000000E+00 0. -1.
</event>
<event>
 7    1  0.4621547E-010  0.4778727E+02  0.7816164E-02  0.1312668E+00
        -11   -1    0    0    0    0  0.00000000000E+00  0.00000000000E+00  0.45593999997E+02  0.45594000000E+02  0.51100000000E-03 0.  1.
         11   -1    0    0    0    0 -0.00000000000E+00 -0.00000000000E+00 -0.45593999997E+02  0.45594000000E+02  0.51100000000E-03 0. -1.
    9900012    2    1    2    0    0 -0.10139474608E+02  0.32823218141E+02 -0.26522639945E+02  0.47787273922E+02  0.20000013119E+02 0.  0.
        -12    1    1    2    0    0  0.10139474608E+02 -0.32823218141E+02  0.26522639945E+02  0.43400726078E+02  0.00000000000E+00 0.  1.
         11    1    3    3    0    0 -0.10662659787E+00  0.20307235142E+02 -0.20963302753E+02  0.29186559080E+02  0.51100000000E-03 0. -1.
        -11    1    3    3    0    0 -0.54464187088E+00 -0.10562829641E+01 -0.44447304494E+00  0.12688282061E+01  0.51100000000E-03 0.  1.
         12    1    3    3    0    0 -0.94882061395E+01  0.13572265963E+02 -0.51148641475E+01  0.17331886636E+02  0.00000000000E+00 0. -1.
</event>
<event>
 7    1  0.4621547E-010  0.4778727E+02  0.7816164E-02  0.1312668E+00
        -11   -1    0    0    0    0  0.00000000000E+00  0.00000000000E+00  0.45593999997E+02  0.45594000000E+02  0.51100000000E-03 0.  1.
         11   -1    0    0    0    0 -0.00000000000E+00 -0.00000000000E+00 -0.45593999997E+02  0.45594000000E+02  0.51100000000E-03 0. -1.
    9900012    2    1    2    0    0  0.69720506541E+01  0.39588470014E+02 -0.16363582030E+02  0.47787271144E+02  0.20000000456E+02 0.  0.
        -12    1    1    2    0    0 -0.69720506541E+01 -0.39588470014E+02  0.16363582030E+02  0.43400728856E+02  0.00000000000E+00 0.  1.
         11    1    3    3    0    0 -0.82417739472E+00  0.18864155385E+01  0.12956118606E+01  0.24323738027E+01  0.51100000000E-03 0.  1.
        -11    1    3    3    0    0  0.12547125885E+02  0.22506370003E+02 -0.94830406783E+01  0.27457150607E+02  0.51100000000E-03 0. -1.
         12    1    3    3    0    0 -0.47508978364E+01  0.15195684473E+02 -0.81761532123E+01  0.17897746735E+02  0.00000000000E+00 0. -1.
</event>
<event>
 7    1  0.4621547E-010  0.4778728E+02  0.7816164E-02  0.1312668E+00
        -11   -1    0    0    0    0  0.00000000000E+00  0.00000000000E+00  0.45593999997E+02  0.45594000000E+02  0.51100000000E-03 0.  1.
         11   -1    0    0    0    0 -0.00000000000E+00 -0.00000000000E+00 -0.45593999997E+02  0.45594000000E+02  0.51100000000E-03 0. -1.
    9900012    2    1    2    0    0  0.40128488374E+02 -0.15719815592E+02  0.51200262634E+01  0.47787275924E+02  0.20000022247E+02 0.  0.
        -12    1    1    2    0    0 -0.40128488374E+02  0.15719815592E+02 -0.51200262634E+01  0.43400724076E+02  0.00000000000E+00 0.  1.
         11    1    3    3    0    0  0.16820555039E+02 -0.11987715471E+02 -0.15027281278E+01  0.20709770306E+02  0.51100000000E-03 0. -1.
        -11    1    3    3    0    0 -0.10693121598E+01 -0.67070472307E+00 -0.69657144201E+00  0.14416953061E+01  0.51100000000E-03 0.  1.
        -12    1    3    3    0    0  0.24377245494E+02 -0.30613953974E+01  0.73193258332E+01  0.25635810312E+02  0.00000000000E+00 0.  1.
</event>
<event>
 7    1  0.4621547E-010  0.4778727E+02  0.7816164E-02  0.1312668E+00
        -11   -1    0    0    0    0  0.00000000000E+00  0.00000000000E+00  0.45593999997E+02  0.45594000000E+02  0.51100000000E-03 0.  1.
         11   -1    0    0    0    0 -0.00000000000E+00 -0.00000000000E+00 -0.45593999997E+02  0.45594000000E+02  0.51100000000E-03 0. -1.
    9900012    2    1    2    0    0  0.31614561594E+02 -0.94754800122E+00 -0.29719439881E+02  0.47787268914E+02  0.19999990286E+02 0.  0.
        -12    1    1    2    0    0 -0.31614561594E+02  0.94754800122E+00  0.29719439881E+02  0.43400731086E+02  0.00000000000E+00 0.  1.
         11    1    3    3    0    0  0.81213078911E+01 -0.11255635491E+01 -0.56885089290E+01  0.99790615421E+01  0.51100000000E-03 0. -1.
        -11    1    3    3    0    0  0.10588035504E+02  0.74206025233E+01 -0.17177275787E+02  0.21499549794E+02  0.51100000000E-03 0.  1.
        -12    1    3    3    0    0  0.12905218199E+02 -0.72425869754E+01 -0.68536551650E+01  0.16308657577E+02  0.00000000000E+00 0.  1.
</event>
<event>
 7    1  0.4621547E-010  0.4778727E+02  0.7816164E-02  0.1312668E+00
        -11   -1    0    0    0    0  0.00000000000E+00  0.00000000000E+00  0.45593999997E+02  0.45594000000E+02  0.51100000000E-03 0.  1.
         11   -1    0    0    0    0 -0.00000000000E+00 -0.00000000000E+00 -0.45593999997E+02  0.45594000000E+02  0.51100000000E-03 0. -1.
    9900012    2    1    2    0    0  0.18966174255E+02  0.33788883143E+02 -0.19550419524E+02  0.47787270818E+02  0.19999998969E+02 0.  0.
        -12    1    1    2    0    0 -0.18966174255E+02 -0.33788883143E+02  0.19550419524E+02  0.43400729182E+02  0.00000000000E+00 0.  1.
         11    1    3    3    0    0  0.62233386974E+01  0.14473431755E+02 -0.70057185085E+01  0.17242107278E+02  0.51100000000E-03 0. -1.
        -11    1    3    3    0    0  0.52334514396E+01  0.62519278795E+01  0.31937944707E+01  0.87564798614E+01  0.51100000000E-03 0.  1.
        -12    1    3    3    0    0  0.75093841183E+01  0.13063523509E+02 -0.15738495486E+02  0.21788683679E+02  0.00000000000E+00 0.  1.
</event>
<event>
 7    1  0.4621547E-010  0.4778727E+02  0.7816164E-02  0.1312668E+00
        -11   -1    0    0    0    0  0.00000000000E+00  0.00000000000E+00  0.45593999997E+02  0.45594000000E+02  0.51100000000E-03 0.  1.
         11   -1    0    0    0    0 -0.00000000000E+00 -0.00000000000E+00 -0.45593999997E+02  0.45594000000E+02  0.51100000000E-03 0. -1.
    9900012    2    1    2    0    0 -0.29912236634E+02 -0.14019627161E+02 -0.28148381086E+02  0.47787271850E+02  0.20000003673E+02 0.  0.
        -12    1    1    2    0    0  0.29912236634E+02  0.14019627161E+02  0.28148381086E+02  0.43400728150E+02  0.00000000000E+00 0.  1.
         11    1    3    3    0    0 -0.13540712843E+02 -0.49809874775E+01 -0.56788821590E+01  0.15505187628E+02  0.51100000000E-03 0. -1.
        -11    1    3    3    0    0 -0.42206700790E+01 -0.36874435681E+01  0.62888553267E+00  0.56397511699E+01  0.51100000000E-03 0.  1.
         12    1    3    3    0    0 -0.12150853712E+02 -0.53511961150E+01 -0.23098384460E+02  0.26642333052E+02  0.00000000000E+00 0. -1.
</event>
<event>
 7    1  0.4621547E-010  0.4778727E+02  0.7816164E-02  0.1312668E+00
        -11   -1    0    0    0    0  0.00000000000E+00  0.00000000000E+00  0.45593999997E+02  0.45594000000E+02  0.51100000000E-03 0.  1.
         11   -1    0    0    0    0 -0.00000000000E+00 -0.00000000000E+00 -0.45593999997E+02  0.45594000000E+02  0.51100000000E-03 0. -1.
    9900012    2    1    2    0    0  0.19147843726E+02 -0.19174830662E+02 -0.33901468520E+02  0.47787267079E+02  0.19999981919E+02 0.  0.
        -12    1    1    2    0    0 -0.19147843726E+02  0.19174830662E+02  0.33901468520E+02  0.43400732921E+02  0.00000000000E+00 0.  1.
         11    1    3    3    0    0  0.55506737793E+01 -0.42185238627E+01 -0.15989484599E+02  0.17443323680E+02  0.51100000000E-03 0. -1.
        -11    1    3    3    0    0  0.39760292196E+01  0.21878654342E+01 -0.16448765007E+01  0.48271298384E+01  0.51100000000E-03 0.  1.
         12    1    3    3    0    0  0.96211407273E+01 -0.17144172234E+02 -0.16267107420E+02  0.25516813561E+02  0.00000000000E+00 0. -1.
</event>
<event>
 7    1  0.4621547E-010  0.4778727E+02  0.7816164E-02  0.1312668E+00
        -11   -1    0    0    0    0  0.00000000000E+00  0.00000000000E+00  0.45593999997E+02  0.45594000000E+02  0.51100000000E-03 0.  1.
         11   -1    0    0    0    0 -0.00000000000E+00 -0.00000000000E+00 -0.45593999997E+02  0.45594000000E+02  0.51100000000E-03 0. -1.
    9900012    2    1    2    0    0 -0.10633045265E+02 -0.41170982269E+02 -0.86897515575E+01  0.47787271726E+02  0.20000003108E+02 0.  0.
        -12    1    1    2    0    0  0.10633045265E+02  0.41170982269E+02  0.86897515575E+01  0.43400728274E+02  0.00000000000E+00 0.  1.
         11    1    3    3    0    0 -0.69712560556E+01 -0.30113059608E+02 -0.92599810516E+01  0.32266732392E+02  0.51100000000E-03 0. -1.
        -11    1    3    3    0    0 -0.68195204672E+01 -0.91000970545E+01 -0.11431090339E+01  0.11429099891E+02  0.51100000000E-03 0.  1.
        -12    1    3    3    0    0  0.31577312577E+01 -0.19578256066E+01  0.17133385281E+01  0.40914394428E+01  0.00000000000E+00 0.  1.
</event>
<event>
 7    1  0.4621547E-010  0.4778727E+02  0.7816164E-02  0.1312668E+00
        -11   -1    0    0    0    0  0.00000000000E+00  0.00000000000E+00  0.45593999997E+02  0.45594000000E+02  0.51100000000E-03 0.  1.
         11   -1    0    0    0    0 -0.00000000000E+00 -0.00000000000E+00 -0.45593999997E+02  0.45594000000E+02  0.51100000000E-03 0. -1.
    9900012    2    1    2    0    0  0.15310953985E+01  0.59819293991E+01 -0.42959234788E+02  0.47787267448E+02  0.19999983604E+02 0.  0.
        -12    1    1    2    0    0 -0.15310953985E+01 -0.59819293991E+01  0.42959234788E+02  0.43400732552E+02  0.00000000000E+00 0.  1.
         11    1    3    3    0    0  0.33280696894E+01 -0.38701308177E+01 -0.49020647341E+01  0.70770190986E+01  0.51100000000E-03 0.  1.
        -11    1    3    3    0    0 -0.15424399208E+01 -0.18566498133E+01 -0.10385038124E+02  0.10661861307E+02  0.51100000000E-03 0. -1.
        -12    1    3    3    0    0 -0.25453437012E+00  0.11708710030E+02 -0.27672131930E+02  0.30048387043E+02  0.00000000000E+00 0.  1.
</event>
<event>
 7    1  0.4621547E-010  0.4778727E+02  0.7816164E-02  0.1312668E+00
        -11   -1    0    0    0    0  0.00000000000E+00  0.00000000000E+00  0.45593999997E+02  0.45594000000E+02  0.51100000000E-03 0.  1.
         11   -1    0    0    0    0 -0.00000000000E+00 -0.00000000000E+00 -0.45593999997E+02  0.45594000000E+02  0.51100000000E-03 0. -1.
    9900012    2    1    2    0    0 -0.13028547977E+02 -0.16447562121E+02 -0.37991552323E+02  0.47787269476E+02  0.19999992850E+02 0.  0.
        -12    1    1    2    0    0  0.13028547977E+02  0.16447562121E+02  0.37991552323E+02  0.43400730524E+02  0.00000000000E+00 0.  1.
         11    1    3    3    0    0  0.90029122398E+00  0.50408559184E-01 -0.52332580059E+01  0.53103723907E+01  0.51100000000E-03 0. -1.
        -11    1    3    3    0    0  0.68119272095E+00 -0.27943283947E+01 -0.16299560800E+02  0.16551373877E+02  0.51100000000E-03 0.  1.
         12    1    3    3    0    0 -0.14610031922E+02 -0.13703642285E+02 -0.16458733517E+02  0.25925523208E+02  0.00000000000E+00 0. -1.
</event>
<event>
 7    1  0.4621547E-010  0.4778727E+02  0.7816164E-02  0.1312668E+00
        -11   -1    0    0    0    0  0.00000000000E+00  0.00000000000E+00  0.45593999997E+02  0.45594000000E+02  0.51100000000E-03 0.  1.
         11   -1    0    0    0    0 -0.00000000000E+00 -0.00000000000E+00 -0.45593999997E+02  0.45594000000E+02  0.51100000000E-03 0. -1.
    9900012    2    1    2    0    0 -0.46072860770E+00 -0.25279178645E+02 -0.35275689996E+02  0.47787269032E+02  0.19999990826E+02 0.  0.
        -12    1    1    2    0    0  0.46072860770E+00  0.25279178645E+02  0.35275689996E+02  0.43400730968E+02  0.00000000000E+00 0.  1.
         11    1    3    3    0    0  0.37700431981E+01 -0.45911262468E+01 -0.31765686245E+01  0.67366352445E+01  0.51100000000E-03 0. -1.
        -11    1    3    3    0    0 -0.49987102342E+01 -0.17859452488E+01 -0.23708197387E+01  0.58135609510E+01  0.51100000000E-03 0.  1.
         12    1    3    3    0    0  0.76793842838E+00 -0.18902107149E+02 -0.29728301633E+02  0.35237072837E+02  0.00000000000E+00 0. -1.
</event>
<event>
 7    1  0.4621547E-010  0.4778728E+02  0.7816164E-02  0.1312668E+00
        -11   -1    0    0    0    0  0.00000000000E+00  0.00000000000E+00  0.45593999997E+02  0.45594000000E+02  0.51100000000E-03 0.  1.
         11   -1    0    0    0    0 -0.00000000000E+00 -0.00000000000E+00 -0.45593999997E+02  0.45594000000E+02  0.51100000000E-03 0. -1.
    9900012    2    1    2    0    0  0.89907799402E+01 -0.61240744674E+01 -0.42015286521E+02  0.47787277501E+02  0.20000029439E+02 0.  0.
        -12    1    1    2    0    0 -0.89907799402E+01  0.61240744674E+01  0.42015286521E+02  0.43400722499E+02  0.00000000000E+00 0.  1.
         11    1    3    3    0    0  0.96991160023E+01  0.31021802097E+01 -0.11512274284E+02  0.15369737562E+02  0.51100000000E-03 0.  1.
        -11    1    3    3    0    0  0.15350192153E+01 -0.15114326610E+01 -0.12755489761E+02  0.12936121211E+02  0.51100000000E-03 0. -1.
        -12    1    3    3    0    0 -0.22433552773E+01 -0.77148220160E+01 -0.17747522475E+02  0.19481418728E+02  0.00000000000E+00 0.  1.
</event>
<event>
 7    1  0.4621547E-010  0.4778727E+02  0.7816164E-02  0.1312668E+00
        -11   -1    0    0    0    0  0.00000000000E+00  0.00000000000E+00  0.45593999997E+02  0.45594000000E+02  0.51100000000E-03 0.  1.
         11   -1    0    0    0    0 -0.00000000000E+00 -0.00000000000E+00 -0.45593999997E+02  0.45594000000E+02  0.51100000000E-03 0. -1.
    9900012    2    1    2    0    0 -0.30037417762E+02 -0.12206994844E+02 -0.28850754085E+02  0.47787271893E+02  0.20000003870E+02 0.  0.
        -12    1    1    2    0    0  0.30037417762E+02  0.12206994844E+02  0.28850754085E+02  0.43400728107E+02  0.00000000000E+00 0.  1.
         11    1    3    3    0    0 -0.21257529113E+02 -0.65075107191E+01 -0.11119455947E+02  0.24857042072E+02  0.51100000000E-03 0. -1.
        -11    1    3    3    0    0 -0.14923627497E+01 -0.54164028711E+00  0.12060696337E+01  0.19937715515E+01  0.51100000000E-03 0.  1.
        -12    1    3    3    0    0 -0.72875259000E+01 -0.51578438378E+01 -0.18937367771E+02  0.20936458270E+02  0.00000000000E+00 0.  1.
</event>
<event>
 7    1  0.4621547E-010  0.4778727E+02  0.7816164E-02  0.1312668E+00
        -11   -1    0    0    0    0  0.00000000000E+00  0.00000000000E+00  0.45593999997E+02  0.45594000000E+02  0.51100000000E-03 0.  1.
         11   -1    0    0    0    0 -0.00000000000E+00 -0.00000000000E+00 -0.45593999997E+02  0.45594000000E+02  0.51100000000E-03 0. -1.
    9900012    2    1    2    0    0  0.44056307922E+01 -0.60823973003E+01 -0.42745972085E+02  0.47787271100E+02  0.20000000253E+02 0.  0.
        -12    1    1    2    0    0 -0.44056307922E+01  0.60823973003E+01  0.42745972085E+02  0.43400728900E+02  0.00000000000E+00 0.  1.
         11    1    3    3    0    0 -0.20123396214E+01 -0.77920289819E+01 -0.13336386721E+02  0.15576406435E+02  0.51100000000E-03 0. -1.
        -11    1    3    3    0    0  0.14492088089E+01 -0.32102627535E+01 -0.22826140283E+01  0.41971800273E+01  0.51100000000E-03 0.  1.
         12    1    3    3    0    0  0.49687616048E+01  0.49198944351E+01 -0.27126971335E+02  0.28013684637E+02  0.00000000000E+00 0. -1.
</event>
<event>
 7    1  0.4621547E-010  0.4778727E+02  0.7816164E-02  0.1312668E+00
        -11   -1    0    0    0    0  0.00000000000E+00  0.00000000000E+00  0.45593999997E+02  0.45594000000E+02  0.51100000000E-03 0. -1.
         11   -1    0    0    0    0 -0.00000000000E+00 -0.00000000000E+00 -0.45593999997E+02  0.45594000000E+02  0.51100000000E-03 0.  1.
    9900012    2    1    2    0    0 -0.39608162496E+02  0.12816811712E+01  0.17696722133E+02  0.47787271697E+02  0.20000002976E+02 0.  0.
        -12    1    1    2    0    0  0.39608162496E+02 -0.12816811712E+01 -0.17696722133E+02  0.43400728303E+02  0.00000000000E+00 0.  1.
         11    1    3    3    0    0 -0.15358205495E+02 -0.21637456808E+01  0.48411681953E+01  0.16247866972E+02  0.51100000000E-03 0.  1.
        -11    1    3    3    0    0 -0.17927628475E+02  0.37317334025E+01  0.16139604725E+02  0.24409271555E+02  0.51100000000E-03 0. -1.
         12    1    3    3    0    0 -0.63223285272E+01 -0.28630655057E+00 -0.32840507872E+01  0.71301331699E+01  0.00000000000E+00 0. -1.
</event>
<event>
 7    1  0.4621547E-010  0.4778731E+02  0.7816164E-02  0.1312668E+00
        -11   -1    0    0    0    0  0.00000000000E+00  0.00000000000E+00  0.45593999997E+02  0.45594000000E+02  0.51100000000E-03 0.  1.
         11   -1    0    0    0    0 -0.00000000000E+00 -0.00000000000E+00 -0.45593999997E+02  0.45594000000E+02  0.51100000000E-03 0. -1.
    9900012    2    1    2    0    0 -0.35246649789E+02 -0.18707747229E+02  0.17067912145E+02  0.47787311610E+02  0.20000184953E+02 0.  0.
        -12    1    1    2    0    0  0.35246649789E+02  0.18707747229E+02 -0.17067912145E+02  0.43400688390E+02  0.00000000000E+00 0.  1.
         11    1    3    3    0    0 -0.11464346285E+02 -0.72608854723E+01  0.45223038385E+01  0.14303947912E+02  0.51100000000E-03 0. -1.
        -11    1    3    3    0    0 -0.88260179016E+01 -0.66874344661E+01  0.13851634200E+02  0.17733813521E+02  0.51100000000E-03 0.  1.
         12    1    3    3    0    0 -0.14956285602E+02 -0.47594272903E+01 -0.13060258930E+01  0.15749550177E+02  0.00000000000E+00 0. -1.
</event>
<event>
 7    1  0.4621547E-010  0.4778727E+02  0.7816164E-02  0.1312668E+00
        -11   -1    0    0    0    0  0.00000000000E+00  0.00000000000E+00  0.45593999997E+02  0.45594000000E+02  0.51100000000E-03 0. -1.
         11   -1    0    0    0    0 -0.00000000000E+00 -0.00000000000E+00 -0.45593999997E+02  0.45594000000E+02  0.51100000000E-03 0.  1.
    9900012    2    1    2    0    0 -0.32718886317E+02 -0.28161849560E+02  0.44730191070E+01  0.47787271983E+02  0.20000004281E+02 0.  0.
        -12    1    1    2    0    0  0.32718886317E+02  0.28161849560E+02 -0.44730191070E+01  0.43400728017E+02  0.00000000000E+00 0.  1.
         11    1    3    3    0    0 -0.12633357840E+01 -0.58464781852E+01  0.28792517567E+00  0.59883408087E+01  0.51100000000E-03 0. -1.
        -11    1    3    3    0    0 -0.10513512278E+02 -0.61670714437E+00 -0.26882602660E+01  0.10869269140E+02  0.51100000000E-03 0.  1.
         12    1    3    3    0    0 -0.20942038255E+02 -0.21698664230E+02  0.68733541974E+01  0.30929662034E+02  0.00000000000E+00 0. -1.
</event>
<event>
 7    1  0.4621547E-010  0.4778728E+02  0.7816164E-02  0.1312668E+00
        -11   -1    0    0    0    0  0.00000000000E+00  0.00000000000E+00  0.45593999997E+02  0.45594000000E+02  0.51100000000E-03 0. -1.
         11   -1    0    0    0    0 -0.00000000000E+00 -0.00000000000E+00 -0.45593999997E+02  0.45594000000E+02  0.51100000000E-03 0.  1.
    9900012    2    1    2    0    0 -0.41865943126E+02 -0.20281526167E+01  0.11258431024E+02  0.47787275743E+02  0.20000021424E+02 0.  0.
        -12    1    1    2    0    0  0.41865943126E+02  0.20281526167E+01 -0.11258431024E+02  0.43400724257E+02  0.00000000000E+00 0.  1.
         11    1    3    3    0    0  0.66240317499E+00 -0.70923899581E+00 -0.13090933709E+01  0.16295777473E+01  0.51100000000E-03 0. -1.
        -11    1    3    3    0    0 -0.34730944678E+01  0.46622275771E+00  0.53584706857E+01  0.64025742630E+01  0.51100000000E-03 0.  1.
         12    1    3    3    0    0 -0.39055251833E+02 -0.17851363786E+01  0.72090537097E+01  0.39755123733E+02  0.00000000000E+00 0. -1.
</event>
<event>
 7    1  0.4621547E-010  0.4778726E+02  0.7816164E-02  0.1312668E+00
        -11   -1    0    0    0    0  0.00000000000E+00  0.00000000000E+00  0.45593999997E+02  0.45594000000E+02  0.51100000000E-03 0.  1.
         11   -1    0    0    0    0 -0.00000000000E+00 -0.00000000000E+00 -0.45593999997E+02  0.45594000000E+02  0.51100000000E-03 0. -1.
    9900012    2    1    2    0    0  0.36364249317E+02 -0.18965087686E+01 -0.23615019319E+02  0.47787256789E+02  0.19999935002E+02 0.  0.
        -12    1    1    2    0    0 -0.36364249317E+02  0.18965087686E+01  0.23615019319E+02  0.43400743211E+02  0.00000000000E+00 0.  1.
         11    1    3    3    0    0  0.51404475698E+01 -0.13546329269E+01 -0.16941834143E+01  0.55793807261E+01  0.51100000000E-03 0. -1.
        -11    1    3    3    0    0  0.13056677495E+02 -0.89755753087E+01 -0.75150957283E+01  0.17536089741E+02  0.51100000000E-03 0.  1.
         12    1    3    3    0    0  0.18167124252E+02  0.84336994671E+01 -0.14405740176E+02  0.24671786322E+02  0.00000000000E+00 0. -1.
</event>
<event>
 7    1  0.4621547E-010  0.4778727E+02  0.7816164E-02  0.1312668E+00
        -11   -1    0    0    0    0  0.00000000000E+00  0.00000000000E+00  0.45593999997E+02  0.45594000000E+02  0.51100000000E-03 0. -1.
         11   -1    0    0    0    0 -0.00000000000E+00 -0.00000000000E+00 -0.45593999997E+02  0.45594000000E+02  0.51100000000E-03 0.  1.
    9900012    2    1    2    0    0 -0.12246005983E+01 -0.33202847357E+02  0.27923005492E+02  0.47787274719E+02  0.20000016752E+02 0.  0.
        -12    1    1    2    0    0  0.12246005983E+01  0.33202847357E+02 -0.27923005492E+02  0.43400725281E+02  0.00000000000E+00 0.  1.
         11    1    3    3    0    0  0.77207866862E+01 -0.13547429344E+02  0.13004635128E+02  0.20304283389E+02  0.51100000000E-03 0. -1.
        -11    1    3    3    0    0  0.57208742943E+00 -0.80553812980E+01  0.50927640989E+01  0.95473922257E+01  0.51100000000E-03 0.  1.
        -12    1    3    3    0    0 -0.95174747139E+01 -0.11600036716E+02  0.98256062647E+01  0.17935599103E+02  0.00000000000E+00 0.  1.
</event>
<event>
 7    1  0.4621547E-010  0.4778727E+02  0.7816164E-02  0.1312668E+00
        -11   -1    0    0    0    0  0.00000000000E+00  0.00000000000E+00  0.45593999997E+02  0.45594000000E+02  0.51100000000E-03 0.  1.
         11   -1    0    0    0    0 -0.00000000000E+00 -0.00000000000E+00 -0.45593999997E+02  0.45594000000E+02  0.51100000000E-03 0. -1.
    9900012    2    1    2    0    0 -0.29620208085E+02  0.27859424651E+02 -0.15169687578E+02  0.47787266249E+02  0.19999978135E+02 0.  0.
        -12    1    1    2    0    0  0.29620208085E+02 -0.27859424651E+02  0.15169687578E+02  0.43400733751E+02  0.00000000000E+00 0.  1.
         11    1    3    3    0    0 -0.20823481762E+02  0.15652707554E+02 -0.17376622348E+02  0.31314080714E+02  0.51100000000E-03 0.  1.
        -11    1    3    3    0    0 -0.48957320119E+01  0.73299290458E+01 -0.18758853561E+01  0.90119364112E+01  0.51100000000E-03 0. -1.
        -12    1    3    3    0    0 -0.39009943114E+01  0.48767880512E+01  0.40828201254E+01  0.74612491240E+01  0.00000000000E+00 0.  1.
</event>
<event>
 7    1  0.4621547E-010  0.4778727E+02  0.7816164E-02  0.1312668E+00
        -11   -1    0    0    0    0  0.00000000000E+00  0.00000000000E+00  0.45593999997E+02  0.45594000000E+02  0.51100000000E-03 0.  1.
         11   -1    0    0    0    0 -0.00000000000E+00 -0.00000000000E+00 -0.45593999997E+02  0.45594000000E+02  0.51100000000E-03 0. -1.
    9900012    2    1    2    0    0 -0.12156727561E+02  0.40437356136E+02 -0.10032844001E+02  0.47787265502E+02  0.19999974729E+02 0.  0.
        -12    1    1    2    0    0  0.12156727561E+02 -0.40437356136E+02  0.10032844001E+02  0.43400734498E+02  0.00000000000E+00 0.  1.
         11    1    3    3    0    0 -0.34280291547E+01  0.18717359773E+02 -0.65651139026E+01  0.20129373104E+02  0.51100000000E-03 0. -1.
        -11    1    3    3    0    0  0.28589077353E+01  0.89355040922E+01  0.19313677606E+01  0.95784533463E+01  0.51100000000E-03 0.  1.
        -12    1    3    3    0    0 -0.11587606142E+02  0.12784492271E+02 -0.53990978587E+01  0.18079439051E+02  0.00000000000E+00 0.  1.
</event>
<event>
 7    1  0.4621547E-010  0.4778727E+02  0.7816164E-02  0.1312668E+00
        -11   -1    0    0    0    0  0.00000000000E+00  0.00000000000E+00  0.45593999997E+02  0.45594000000E+02  0.51100000000E-03 0.  1.
         11   -1    0    0    0    0 -0.00000000000E+00 -0.00000000000E+00 -0.45593999997E+02  0.45594000000E+02  0.51100000000E-03 0. -1.
    9900012    2    1    2    0    0  0.32368631758E+02 -0.17961395732E+02 -0.22655757010E+02  0.47787269773E+02  0.19999994202E+02 0.  0.
        -12    1    1    2    0    0 -0.32368631758E+02  0.17961395732E+02  0.22655757010E+02  0.43400730227E+02  0.00000000000E+00 0.  1.
         11    1    3    3    0    0  0.14681465947E+02 -0.16260550095E+02 -0.15476704386E+02  0.26823111503E+02  0.51100000000E-03 0. -1.
        -11    1    3    3    0    0  0.46215802341E+01 -0.12172882769E+01 -0.62344935420E+01  0.78555524692E+01  0.51100000000E-03 0.  1.
        -12    1    3    3    0    0  0.13065585577E+02 -0.48355735982E+00 -0.94455908223E+00  0.13108605801E+02  0.00000000000E+00 0.  1.
</event>
<event>
 7    1  0.4621547E-010  0.4778727E+02  0.7816164E-02  0.1312668E+00
        -11   -1    0    0    0    0  0.00000000000E+00  0.00000000000E+00  0.45593999997E+02  0.45594000000E+02  0.51100000000E-03 0.  1.
         11   -1    0    0    0    0 -0.00000000000E+00 -0.00000000000E+00 -0.45593999997E+02  0.45594000000E+02  0.51100000000E-03 0. -1.
    9900012    2    1    2    0    0  0.14662481602E+02  0.38931283308E+02 -0.12368927398E+02  0.47787267843E+02  0.19999985405E+02 0.  0.
        -12    1    1    2    0    0 -0.14662481602E+02 -0.38931283308E+02  0.12368927398E+02  0.43400732157E+02  0.00000000000E+00 0.  1.
         11    1    3    3    0    0  0.47140081774E+01  0.26402778170E+01 -0.16773765723E+01  0.56574316146E+01  0.51100000000E-03 0. -1.
        -11    1    3    3    0    0  0.75094937347E+01  0.42735491964E+01 -0.22958400421E+01  0.89401678197E+01  0.51100000000E-03 0.  1.
        -12    1    3    3    0    0  0.24389796897E+01  0.32017456295E+02 -0.83957107836E+01  0.33189668409E+02  0.00000000000E+00 0.  1.
</event>
<event>
 7    1  0.4621547E-010  0.4778727E+02  0.7816164E-02  0.1312668E+00
        -11   -1    0    0    0    0  0.00000000000E+00  0.00000000000E+00  0.45593999997E+02  0.45594000000E+02  0.51100000000E-03 0. -1.
         11   -1    0    0    0    0 -0.00000000000E+00 -0.00000000000E+00 -0.45593999997E+02  0.45594000000E+02  0.51100000000E-03 0.  1.
    9900012    2    1    2    0    0  0.96602594623E+01  0.41074072621E+02  0.10159885709E+02  0.47787270373E+02  0.19999996937E+02 0.  0.
        -12    1    1    2    0    0 -0.96602594623E+01 -0.41074072621E+02 -0.10159885709E+02  0.43400729627E+02  0.00000000000E+00 0.  1.
         11    1    3    3    0    0  0.12042431530E+01  0.12949246351E+02 -0.57740019942E+00  0.13017932781E+02  0.51100000000E-03 0. -1.
        -11    1    3    3    0    0  0.75739365702E+01  0.25854218781E+02  0.35416487561E+01  0.27172567418E+02  0.51100000000E-03 0.  1.
        -12    1    3    3    0    0  0.88207973907E+00  0.22706074889E+01  0.71956371526E+01  0.75967701734E+01  0.00000000000E+00 0.  1.
</event>
<event>
 7    1  0.4621547E-010  0.4778727E+02  0.7816164E-02  0.1312668E+00
        -11   -1    0    0    0    0  0.00000000000E+00  0.00000000000E+00  0.45593999997E+02  0.45594000000E+02  0.51100000000E-03 0. -1.
         11   -1    0    0    0    0 -0.00000000000E+00 -0.00000000000E+00 -0.45593999997E+02  0.45594000000E+02  0.51100000000E-03 0.  1.
    9900012    2    1    2    0    0  0.16845727684E+02 -0.34360794196E+01  0.39850199010E+02  0.47787267931E+02  0.19999985804E+02 0.  0.
        -12    1    1    2    0    0 -0.16845727684E+02  0.34360794196E+01 -0.39850199010E+02  0.43400732069E+02  0.00000000000E+00 0.  1.
         11    1    3    3    0    0  0.29171049119E+01 -0.59096666966E+01  0.42732613245E+01  0.78545798195E+01  0.51100000000E-03 0. -1.
        -11    1    3    3    0    0  0.28580232644E+01  0.13855117361E+01  0.60376253782E+00  0.32330278709E+01  0.51100000000E-03 0.  1.
         12    1    3    3    0    0  0.11070599508E+02  0.10880755409E+01  0.34973175148E+02  0.36699660241E+02  0.00000000000E+00 0. -1.
</event>
<event>
 7    1  0.4621547E-010  0.4778727E+02  0.7816164E-02  0.1312668E+00
        -11   -1    0    0    0    0  0.00000000000E+00  0.00000000000E+00  0.45593999997E+02  0.45594000000E+02  0.51100000000E-03 0. -1.
         11   -1    0    0    0    0 -0.00000000000E+00 -0.00000000000E+00 -0.45593999997E+02  0.45594000000E+02  0.51100000000E-03 0.  1.
    9900012    2    1    2    0    0 -0.13054712818E+02 -0.11727611856E+02  0.39694593638E+02  0.47787272234E+02  0.20000005422E+02 0.  0.
        -12    1    1    2    0    0  0.13054712818E+02  0.11727611856E+02 -0.39694593638E+02  0.43400727766E+02  0.00000000000E+00 0.  1.
         11    1    3    3    0    0  0.11403643357E+01  0.25569394174E+01  0.25199239251E+01  0.37667475163E+01  0.51100000000E-03 0. -1.
        -11    1    3    3    0    0  0.22772695514E+01 -0.16567945301E+01  0.47292299005E+01  0.55042293227E+01  0.51100000000E-03 0.  1.
         12    1    3    3    0    0 -0.16472346705E+02 -0.12627756743E+02  0.32445439812E+02  0.38516295395E+02  0.00000000000E+00 0. -1.
</event>
<event>
 7    1  0.4621547E-010  0.4778727E+02  0.7816164E-02  0.1312668E+00
        -11   -1    0    0    0    0  0.00000000000E+00  0.00000000000E+00  0.45593999997E+02  0.45594000000E+02  0.51100000000E-03 0.  1.
         11   -1    0    0    0    0 -0.00000000000E+00 -0.00000000000E+00 -0.45593999997E+02  0.45594000000E+02  0.51100000000E-03 0. -1.
    9900012    2    1    2    0    0  0.91379848857E+00  0.40419320323E+02 -0.15781847472E+02  0.47787271979E+02  0.20000004263E+02 0.  0.
        -12    1    1    2    0    0 -0.91379848857E+00 -0.40419320323E+02  0.15781847472E+02  0.43400728021E+02  0.00000000000E+00 0.  1.
         11    1    3    3    0    0 -0.47666874512E+01  0.10547756530E+02 -0.60026089593E+00  0.11590374907E+02  0.51100000000E-03 0. -1.
        -11    1    3    3    0    0  0.16886139792E+01  0.22881499377E+01  0.19809161710E+01  0.34656999936E+01  0.51100000000E-03 0.  1.
         12    1    3    3    0    0  0.39918719605E+01  0.27583413856E+02 -0.17162502747E+02  0.32731197079E+02  0.00000000000E+00 0. -1.
</event>
<event>
 7    1  0.4621547E-010  0.4778727E+02  0.7816164E-02  0.1312668E+00
        -11   -1    0    0    0    0  0.00000000000E+00  0.00000000000E+00  0.45593999997E+02  0.45594000000E+02  0.51100000000E-03 0. -1.
         11   -1    0    0    0    0 -0.00000000000E+00 -0.00000000000E+00 -0.45593999997E+02  0.45594000000E+02  0.51100000000E-03 0.  1.
    9900012    2    1    2    0    0 -0.40845808376E+02 -0.11289798482E+02  0.93692795403E+01  0.47787274075E+02  0.20000013820E+02 0.  0.
        -12    1    1    2    0    0  0.40845808376E+02  0.11289798482E+02 -0.93692795403E+01  0.43400725925E+02  0.00000000000E+00 0.  1.
         11    1    3    3    0    0 -0.11977948406E+02 -0.22542568795E+01 -0.57583801178E+01  0.13480054300E+02  0.51100000000E-03 0. -1.
        -11    1    3    3    0    0 -0.12919272615E+02 -0.29992401232E+01  0.36646012720E+01  0.13759809190E+02  0.51100000000E-03 0.  1.
        -12    1    3    3    0    0 -0.15948587356E+02 -0.60363014795E+01  0.11463058386E+02  0.20547410585E+02  0.00000000000E+00 0.  1.
</event>
<event>
 7    1  0.4621547E-010  0.4778727E+02  0.7816164E-02  0.1312668E+00
        -11   -1    0    0    0    0  0.00000000000E+00  0.00000000000E+00  0.45593999997E+02  0.45594000000E+02  0.51100000000E-03 0. -1.
         11   -1    0    0    0    0 -0.00000000000E+00 -0.00000000000E+00 -0.45593999997E+02  0.45594000000E+02  0.51100000000E-03 0.  1.
    9900012    2    1    2    0    0  0.41067272408E+02 -0.13298538027E+02  0.45001490280E+01  0.47787270536E+02  0.19999997683E+02 0.  0.
        -12    1    1    2    0    0 -0.41067272408E+02  0.13298538027E+02 -0.45001490280E+01  0.43400729464E+02  0.00000000000E+00 0.  1.
         11    1    3    3    0    0  0.60650769717E+01  0.11493371052E+01  0.17762992566E+01  0.64235016746E+01  0.51100000000E-03 0. -1.
        -11    1    3    3    0    0  0.24122138483E+01 -0.63644886871E+01 -0.27540687751E+01  0.73423693027E+01  0.51100000000E-03 0.  1.
         12    1    3    3    0    0  0.32589981588E+02 -0.80833864452E+01  0.54779185465E+01  0.34021399559E+02  0.00000000000E+00 0. -1.
</event>
<event>
 7    1  0.4621547E-010  0.4778729E+02  0.7816164E-02  0.1312668E+00
        -11   -1    0    0    0    0  0.00000000000E+00  0.00000000000E+00  0.45593999997E+02  0.45594000000E+02  0.51100000000E-03 0.  1.
         11   -1    0    0    0    0 -0.00000000000E+00 -0.00000000000E+00 -0.45593999997E+02  0.45594000000E+02  0.51100000000E-03 0. -1.
    9900012    2    1    2    0    0 -0.35922605786E+02  0.24029451540E+02  0.39716117237E+01  0.47787287478E+02  0.20000074926E+02 0.  0.
        -12    1    1    2    0    0  0.35922605786E+02 -0.24029451540E+02 -0.39716117237E+01  0.43400712522E+02  0.00000000000E+00 0.  1.
         11    1    3    3    0    0 -0.19680260573E+02  0.13028807679E+02  0.41726570997E+01  0.23968177930E+02  0.51100000000E-03 0. -1.
        -11    1    3    3    0    0 -0.13218531038E+02  0.28748272476E+01  0.41074868815E+01  0.14137384597E+02  0.51100000000E-03 0.  1.
        -12    1    3    3    0    0 -0.30238141746E+01  0.81258166133E+01 -0.43085322575E+01  0.96817249501E+01  0.00000000000E+00 0.  1.
</event>
<event>
 7    1  0.4621547E-010  0.4778727E+02  0.7816164E-02  0.1312668E+00
        -11   -1    0    0    0    0  0.00000000000E+00  0.00000000000E+00  0.45593999997E+02  0.45594000000E+02  0.51100000000E-03 0.  1.
         11   -1    0    0    0    0 -0.00000000000E+00 -0.00000000000E+00 -0.45593999997E+02  0.45594000000E+02  0.51100000000E-03 0. -1.
    9900012    2    1    2    0    0  0.13915523602E+02 -0.21103036103E+02 -0.35279502573E+02  0.47787271530E+02  0.20000002215E+02 0.  0.
        -12    1    1    2    0    0 -0.13915523602E+02  0.21103036103E+02  0.35279502573E+02  0.43400728470E+02  0.00000000000E+00 0.  1.
         11    1    3    3    0    0  0.10180938516E+01 -0.41074368074E+01 -0.28586755718E+00  0.42413762789E+01  0.51100000000E-03 0. -1.
        -11    1    3    3    0    0  0.32079991080E+01 -0.11064482528E+02 -0.73662412792E+01  0.13673900056E+02  0.51100000000E-03 0.  1.
         12    1    3    3    0    0  0.96894306422E+01 -0.59311167675E+01 -0.27627393737E+02  0.29871995196E+02  0.00000000000E+00 0. -1.
</event>
<event>
 7    1  0.4621547E-010  0.4778730E+02  0.7816164E-02  0.1312668E+00
        -11   -1    0    0    0    0  0.00000000000E+00  0.00000000000E+00  0.45593999997E+02  0.45594000000E+02  0.51100000000E-03 0. -1.
         11   -1    0    0    0    0 -0.00000000000E+00 -0.00000000000E+00 -0.45593999997E+02  0.45594000000E+02  0.51100000000E-03 0.  1.
    9900012    2    1    2    0    0 -0.23328449637E+02 -0.11340002562E+02  0.34796671967E+02  0.47787301843E+02  0.20000140421E+02 0.  0.
        -12    1    1    2    0    0  0.23328449637E+02  0.11340002562E+02 -0.34796671967E+02  0.43400698157E+02  0.00000000000E+00 0.  1.
         11    1    3    3    0    0 -0.60527456590E+01 -0.10240006849E+01  0.59668851315E+01  0.85608425899E+01  0.51100000000E-03 0. -1.
        -11    1    3    3    0    0 -0.13582413411E+02 -0.70843464569E+01  0.69833410804E+01  0.16835586468E+02  0.51100000000E-03 0.  1.
         12    1    3    3    0    0 -0.36932905665E+01 -0.32316554205E+01  0.21846445755E+02  0.22390872785E+02  0.00000000000E+00 0. -1.
</event>
<event>
 7    1  0.4621547E-010  0.4778727E+02  0.7816164E-02  0.1312668E+00
        -11   -1    0    0    0    0  0.00000000000E+00  0.00000000000E+00  0.45593999997E+02  0.45594000000E+02  0.51100000000E-03 0.  1.
         11   -1    0    0    0    0 -0.00000000000E+00 -0.00000000000E+00 -0.45593999997E+02  0.45594000000E+02  0.51100000000E-03 0. -1.
    9900012    2    1    2    0    0  0.35701365116E+02  0.24583864542E+02 -0.21609401535E+01  0.47787268102E+02  0.19999986583E+02 0.  0.
        -12    1    1    2    0    0 -0.35701365116E+02 -0.24583864542E+02  0.21609401535E+01  0.43400731898E+02  0.00000000000E+00 0.  1.
         11    1    3    3    0    0  0.68008576034E+01  0.89412721448E+01 -0.68061629250E+01  0.13134757924E+02  0.51100000000E-03 0. -1.
        -11    1    3    3    0    0  0.24640587315E+01  0.49586598444E+01  0.24483638160E+01  0.60542859629E+01  0.51100000000E-03 0.  1.
         12    1    3    3    0    0  0.26436448781E+02  0.10683932552E+02  0.21968589554E+01  0.28598224214E+02  0.00000000000E+00 0. -1.
</event>
<event>
 7    1  0.4621547E-010  0.4778727E+02  0.7816164E-02  0.1312668E+00
        -11   -1    0    0    0    0  0.00000000000E+00  0.00000000000E+00  0.45593999997E+02  0.45594000000E+02  0.51100000000E-03 0. -1.
         11   -1    0    0    0    0 -0.00000000000E+00 -0.00000000000E+00 -0.45593999997E+02  0.45594000000E+02  0.51100000000E-03 0.  1.
    9900012    2    1    2    0    0  0.21483628179E+02 -0.37709536307E+02 -0.26086206684E+00  0.47787268932E+02  0.19999990370E+02 0.  0.
        -12    1    1    2    0    0 -0.21483628179E+02  0.37709536307E+02  0.26086206684E+00  0.43400731068E+02  0.00000000000E+00 0.  1.
         11    1    3    3    0    0  0.61807495765E+01 -0.20104411736E+02  0.14707306638E+01  0.21084403846E+02  0.51100000000E-03 0.  1.
        -11    1    3    3    0    0  0.59826976544E+01 -0.12407855766E+02  0.43182897899E+01  0.14435899103E+02  0.51100000000E-03 0. -1.
        -12    1    3    3    0    0  0.93201809480E+01 -0.51972688040E+01 -0.60498825206E+01  0.12266965983E+02  0.00000000000E+00 0.  1.
</event>
<event>
 7    1  0.4621547E-010  0.4778726E+02  0.7816164E-02  0.1312668E+00
        -11   -1    0    0    0    0  0.00000000000E+00  0.00000000000E+00  0.45593999997E+02  0.45594000000E+02  0.51100000000E-03 0.  1.
         11   -1    0    0    0    0 -0.00000000000E+00 -0.00000000000E+00 -0.45593999997E+02  0.45594000000E+02  0.51100000000E-03 0. -1.
    9900012    2    1    2    0    0 -0.10453081946E+02  0.37592610743E+02 -0.19004025226E+02  0.47787259460E+02  0.19999947183E+02 0.  0.
        -12    1    1    2    0    0  0.10453081946E+02 -0.37592610743E+02  0.19004025226E+02  0.43400740540E+02  0.00000000000E+00 0.  1.
         11    1    3    3    0    0 -0.18418536200E+01  0.46044257992E+01  0.18592848756E+01  0.52962347199E+01  0.51100000000E-03 0. -1.
        -11    1    3    3    0    0 -0.11763730612E+02  0.16711144740E+02 -0.11616160325E+02  0.23507081856E+02  0.51100000000E-03 0.  1.
         12    1    3    3    0    0  0.31525022858E+01  0.16277040204E+02 -0.92471497767E+01  0.18983942885E+02  0.00000000000E+00 0. -1.
</event>
<event>
 7    1  0.4621547E-010  0.4778728E+02  0.7816164E-02  0.1312668E+00
        -11   -1    0    0    0    0  0.00000000000E+00  0.00000000000E+00  0.45593999997E+02  0.45594000000E+02  0.51100000000E-03 0.  1.
         11   -1    0    0    0    0 -0.00000000000E+00 -0.00000000000E+00 -0.45593999997E+02  0.45594000000E+02  0.51100000000E-03 0. -1.
    9900012    2    1    2    0    0 -0.25197809772E+02 -0.28623575636E+02 -0.20721579412E+02  0.47787279352E+02  0.20000037877E+02 0.  0.
        -12    1    1    2    0    0  0.25197809772E+02  0.28623575636E+02  0.20721579412E+02  0.43400720648E+02  0.00000000000E+00 0.  1.
         11    1    3    3    0    0 -0.81629922318E+01 -0.45887384140E+01 -0.64003090723E+01  0.11342615170E+02  0.51100000000E-03 0. -1.
        -11    1    3    3    0    0 -0.25856892724E+01 -0.11159315938E+02 -0.12578674413E+02  0.17012911905E+02  0.51100000000E-03 0.  1.
         12    1    3    3    0    0 -0.14449128267E+02 -0.12875521284E+02 -0.17425959259E+01  0.19431752277E+02  0.00000000000E+00 0. -1.
</event>
<event>
 7    1  0.5772299E-010  0.4778727E+02  0.7816164E-02  0.1312668E+00
        -11   -1    0    0    0    0  0.00000000000E+00  0.00000000000E+00  0.45593999997E+02  0.45594000000E+02  0.51100000000E-03 0. -1.
         11   -1    0    0    0    0 -0.00000000000E+00 -0.00000000000E+00 -0.45593999997E+02  0.45594000000E+02  0.51100000000E-03 0.  1.
    9900012    2    1    2    0    0 -0.20380406522E+02  0.31722198941E+02  0.21493358766E+02  0.47787270206E+02  0.19999996175E+02 0.  0.
        -12    1    1    2    0    0  0.20380406522E+02 -0.31722198941E+02 -0.21493358766E+02  0.43400729794E+02  0.00000000000E+00 0.  1.
         11    1    3    3    0    0 -0.85366213107E+01  0.11276298223E+02  0.17410130146E+02  0.22430814452E+02  0.51100000000E-03 0. -1.
        -11    1    3    3    0    0 -0.22612941066E+01  0.16608880473E+00 -0.79427740424E+00  0.24024806729E+01  0.51100000000E-03 0.  1.
         12    1    3    3    0    0 -0.95824911050E+01  0.20279811912E+02  0.48775060248E+01  0.22953975081E+02  0.00000000000E+00 0. -1.
</event>
<event>
 7    1  0.4621547E-010  0.4778727E+02  0.7816164E-02  0.1312668E+00
        -11   -1    0    0    0    0  0.00000000000E+00  0.00000000000E+00  0.45593999997E+02  0.45594000000E+02  0.51100000000E-03 0.  1.
         11   -1    0    0    0    0 -0.00000000000E+00 -0.00000000000E+00 -0.45593999997E+02  0.45594000000E+02  0.51100000000E-03 0. -1.
    9900012    2    1    2    0    0  0.31554944161E+02  0.29770393989E+02 -0.12776614224E+01  0.47787270997E+02  0.19999999782E+02 0.  0.
        -12    1    1    2    0    0 -0.31554944161E+02 -0.29770393989E+02  0.12776614224E+01  0.43400729003E+02  0.00000000000E+00 0.  1.
         11    1    3    3    0    0  0.10811954023E+02  0.18892456411E+02  0.10019157359E+01  0.21790527631E+02  0.51100000000E-03 0. -1.
        -11    1    3    3    0    0  0.12776052993E+02  0.11891987995E+02  0.60121801906E+00  0.17464488882E+02  0.51100000000E-03 0.  1.
        -12    1    3    3    0    0  0.79669371451E+01 -0.10140504161E+01 -0.28807951773E+01  0.85322544836E+01  0.00000000000E+00 0.  1.
</event>
<event>
 7    1  0.4621547E-010  0.4778727E+02  0.7816164E-02  0.1312668E+00
        -11   -1    0    0    0    0  0.00000000000E+00  0.00000000000E+00  0.45593999997E+02  0.45594000000E+02  0.51100000000E-03 0.  1.
         11   -1    0    0    0    0 -0.00000000000E+00 -0.00000000000E+00 -0.45593999997E+02  0.45594000000E+02  0.51100000000E-03 0. -1.
    9900012    2    1    2    0    0  0.39781426919E+02  0.37916045168E+00 -0.17346977881E+02  0.47787270375E+02  0.19999996949E+02 0.  0.
        -12    1    1    2    0    0 -0.39781426919E+02 -0.37916045168E+00  0.17346977881E+02  0.43400729625E+02  0.00000000000E+00 0.  1.
         11    1    3    3    0    0  0.36877319809E+00  0.31634372575E+01 -0.19854383548E+01  0.37530380594E+01  0.51100000000E-03 0. -1.
        -11    1    3    3    0    0  0.11653883790E+02  0.35742241374E+01 -0.12549015488E+01  0.12254095794E+02  0.51100000000E-03 0.  1.
         12    1    3    3    0    0  0.27758769931E+02 -0.63585009432E+01 -0.14106637977E+02  0.31780136522E+02  0.00000000000E+00 0. -1.
</event>
<event>
 7    1  0.4621547E-010  0.4778725E+02  0.7816164E-02  0.1312668E+00
        -11   -1    0    0    0    0  0.00000000000E+00  0.00000000000E+00  0.45593999997E+02  0.45594000000E+02  0.51100000000E-03 0.  1.
         11   -1    0    0    0    0 -0.00000000000E+00 -0.00000000000E+00 -0.45593999997E+02  0.45594000000E+02  0.51100000000E-03 0. -1.
    9900012    2    1    2    0    0  0.15999743086E+02 -0.25544077024E+02 -0.31227126625E+02  0.47787250155E+02  0.19999904757E+02 0.  0.
        -12    1    1    2    0    0 -0.15999743086E+02  0.25544077024E+02  0.31227126625E+02  0.43400749845E+02  0.00000000000E+00 0.  1.
         11    1    3    3    0    0  0.11025414515E+02 -0.10413971680E+02 -0.18886821729E+02  0.24222357578E+02  0.51100000000E-03 0. -1.
        -11    1    3    3    0    0  0.14636046067E+01 -0.54080655405E+01 -0.11976291750E+02  0.13221984559E+02  0.51100000000E-03 0.  1.
        -12    1    3    3    0    0  0.35107239641E+01 -0.97220398039E+01 -0.36401314673E+00  0.10342908018E+02  0.00000000000E+00 0.  1.
</event>
<event>
 7    1  0.4621547E-010  0.4778727E+02  0.7816164E-02  0.1312668E+00
        -11   -1    0    0    0    0  0.00000000000E+00  0.00000000000E+00  0.45593999997E+02  0.45594000000E+02  0.51100000000E-03 0. -1.
         11   -1    0    0    0    0 -0.00000000000E+00 -0.00000000000E+00 -0.45593999997E+02  0.45594000000E+02  0.51100000000E-03 0.  1.
    9900012    2    1    2    0    0  0.37283655444E+02 -0.11896473766E+02  0.18762370832E+02  0.47787267165E+02  0.19999982313E+02 0.  0.
        -12    1    1    2    0    0 -0.37283655444E+02  0.11896473766E+02 -0.18762370832E+02  0.43400732835E+02  0.00000000000E+00 0.  1.
         11    1    3    3    0    0  0.15344757129E+02 -0.67275719979E+01  0.13011334736E+02  0.21213595362E+02  0.51100000000E-03 0. -1.
        -11    1    3    3    0    0  0.11465151723E+02  0.30685946000E+01  0.58858449228E+01  0.13247986548E+02  0.51100000000E-03 0.  1.
        -12    1    3    3    0    0  0.10473746592E+02 -0.82374963682E+01 -0.13480882667E+00  0.13325685255E+02  0.00000000000E+00 0.  1.
</event>
<event>
 7    1  0.4621547E-010  0.4778727E+02  0.7816164E-02  0.1312668E+00
        -11   -1    0    0    0    0  0.00000000000E+00  0.00000000000E+00  0.45593999997E+02  0.45594000000E+02  0.51100000000E-03 0. -1.
         11   -1    0    0    0    0 -0.00000000000E+00 -0.00000000000E+00 -0.45593999997E+02  0.45594000000E+02  0.51100000000E-03 0.  1.
    9900012    2    1    2    0    0 -0.42279397481E+02 -0.76654451194E+01  0.61087327289E+01  0.47787272866E+02  0.20000008306E+02 0.  0.
        -12    1    1    2    0    0  0.42279397481E+02  0.76654451194E+01 -0.61087327289E+01  0.43400727134E+02  0.00000000000E+00 0.  1.
         11    1    3    3    0    0 -0.66197224470E+00 -0.12701509739E+01  0.25669676634E+01  0.29395261515E+01  0.51100000000E-03 0.  1.
        -11    1    3    3    0    0 -0.30159911093E+02  0.22568642766E+00  0.74163369933E+01  0.31059189077E+02  0.51100000000E-03 0. -1.
         12    1    3    3    0    0 -0.11457514143E+02 -0.66209805731E+01 -0.38745719278E+01  0.13788557637E+02  0.00000000000E+00 0. -1.
</event>
<event>
 7    1  0.4621547E-010  0.4778727E+02  0.7816164E-02  0.1312668E+00
        -11   -1    0    0    0    0  0.00000000000E+00  0.00000000000E+00  0.45593999997E+02  0.45594000000E+02  0.51100000000E-03 0.  1.
         11   -1    0    0    0    0 -0.00000000000E+00 -0.00000000000E+00 -0.45593999997E+02  0.45594000000E+02  0.51100000000E-03 0. -1.
    9900012    2    1    2    0    0 -0.36912466934E+02  0.41122866186E+01 -0.22454004126E+02  0.47787269388E+02  0.19999992445E+02 0.  0.
        -12    1    1    2    0    0  0.36912466934E+02 -0.41122866186E+01  0.22454004126E+02  0.43400730612E+02  0.00000000000E+00 0.  1.
         11    1    3    3    0    0 -0.15969442394E+02  0.32771307022E+01 -0.16312113222E+02  0.23061823736E+02  0.51100000000E-03 0. -1.
        -11    1    3    3    0    0  0.14186571631E+01  0.51372861918E+00 -0.89469414480E+00  0.17541331519E+01  0.51100000000E-03 0.  1.
         12    1    3    3    0    0 -0.22361681704E+02  0.32142729725E+00 -0.52471967592E+01  0.22971312499E+02  0.00000000000E+00 0. -1.
</event>
<event>
 7    1  0.4621547E-010  0.4778727E+02  0.7816164E-02  0.1312668E+00
        -11   -1    0    0    0    0  0.00000000000E+00  0.00000000000E+00  0.45593999997E+02  0.45594000000E+02  0.51100000000E-03 0.  1.
         11   -1    0    0    0    0 -0.00000000000E+00 -0.00000000000E+00 -0.45593999997E+02  0.45594000000E+02  0.51100000000E-03 0. -1.
    9900012    2    1    2    0    0 -0.41123358624E+02 -0.20794758080E+01 -0.13717448649E+02  0.47787271416E+02  0.20000001694E+02 0.  0.
        -12    1    1    2    0    0  0.41123358624E+02  0.20794758080E+01  0.13717448649E+02  0.43400728584E+02  0.00000000000E+00 0.  1.
         11    1    3    3    0    0 -0.34962454055E+01  0.50980435000E+01 -0.26183646229E+01  0.67133905758E+01  0.51100000000E-03 0. -1.
        -11    1    3    3    0    0 -0.98427156094E+01  0.99385820990E+00  0.43060546848E+00  0.99021323986E+01  0.51100000000E-03 0.  1.
         12    1    3    3    0    0 -0.27784397609E+02 -0.81713775179E+01 -0.11529689495E+02  0.31171748442E+02  0.00000000000E+00 0. -1.
</event>
<event>
 7    1  0.4621547E-010  0.4778727E+02  0.7816164E-02  0.1312668E+00
        -11   -1    0    0    0    0  0.00000000000E+00  0.00000000000E+00  0.45593999997E+02  0.45594000000E+02  0.51100000000E-03 0. -1.
         11   -1    0    0    0    0 -0.00000000000E+00 -0.00000000000E+00 -0.45593999997E+02  0.45594000000E+02  0.51100000000E-03 0.  1.
    9900012    2    1    2    0    0  0.42078620298E+02 -0.79228402100E+01  0.70881273224E+01  0.47787271526E+02  0.20000002195E+02 0.  0.
        -12    1    1    2    0    0 -0.42078620298E+02  0.79228402100E+01 -0.70881273224E+01  0.43400728474E+02  0.00000000000E+00 0.  1.
         11    1    3    3    0    0  0.29199935687E+02  0.32590563629E+01  0.68738222308E+00  0.29389286945E+02  0.51100000000E-03 0. -1.
        -11    1    3    3    0    0  0.46100254102E+01 -0.32505498925E+01  0.98988410007E+00  0.57269782329E+01  0.51100000000E-03 0.  1.
         12    1    3    3    0    0  0.82686592000E+01 -0.79313466804E+01  0.54108609992E+01  0.12671006348E+02  0.00000000000E+00 0. -1.
</event>
<event>
 7    1  0.4621547E-010  0.4778726E+02  0.7816164E-02  0.1312668E+00
        -11   -1    0    0    0    0  0.00000000000E+00  0.00000000000E+00  0.45593999997E+02  0.45594000000E+02  0.51100000000E-03 0.  1.
         11   -1    0    0    0    0 -0.00000000000E+00 -0.00000000000E+00 -0.45593999997E+02  0.45594000000E+02  0.51100000000E-03 0. -1.
    9900012    2    1    2    0    0  0.18392257174E+01 -0.22844425456E+00 -0.43361149538E+02  0.47787260061E+02  0.19999949921E+02 0.  0.
        -12    1    1    2    0    0 -0.18392257174E+01  0.22844425456E+00  0.43361149538E+02  0.43400739939E+02  0.00000000000E+00 0.  1.
         11    1    3    3    0    0  0.42806872762E+00  0.29432547169E+00 -0.20453586724E+02  0.20460182806E+02  0.51100000000E-03 0. -1.
        -11    1    3    3    0    0 -0.53363732234E+00  0.94245820351E+00 -0.24430872574E+02  0.24454867230E+02  0.51100000000E-03 0.  1.
        -12    1    3    3    0    0  0.19447943122E+01 -0.14652279298E+01  0.15233097598E+01  0.28722100249E+01  0.00000000000E+00 0.  1.
</event>
<event>
 7    1  0.4621547E-010  0.4778727E+02  0.7816164E-02  0.1312668E+00
        -11   -1    0    0    0    0  0.00000000000E+00  0.00000000000E+00  0.45593999997E+02  0.45594000000E+02  0.51100000000E-03 0.  1.
         11   -1    0    0    0    0 -0.00000000000E+00 -0.00000000000E+00 -0.45593999997E+02  0.45594000000E+02  0.51100000000E-03 0. -1.
    9900012    2    1    2    0    0 -0.53409991834E+01  0.87336423985E+01 -0.42176064104E+02  0.47787272297E+02  0.20000005710E+02 0.  0.
        -12    1    1    2    0    0  0.53409991834E+01 -0.87336423985E+01  0.42176064104E+02  0.43400727703E+02  0.00000000000E+00 0.  1.
         11    1    3    3    0    0  0.18920464707E+00  0.10716521980E+01 -0.20359432559E+02  0.20388495070E+02  0.51100000000E-03 0. -1.
        -11    1    3    3    0    0  0.33349123750E+01 -0.10793784797E+01 -0.21174989728E+01  0.40951801685E+01  0.51100000000E-03 0.  1.
         12    1    3    3    0    0 -0.88651162055E+01  0.87413686802E+01 -0.19699132572E+02  0.23303597058E+02  0.00000000000E+00 0. -1.
</event>
<event>
 7    1  0.4621547E-010  0.4778727E+02  0.7816164E-02  0.1312668E+00
        -11   -1    0    0    0    0  0.00000000000E+00  0.00000000000E+00  0.45593999997E+02  0.45594000000E+02  0.51100000000E-03 0. -1.
         11   -1    0    0    0    0 -0.00000000000E+00 -0.00000000000E+00 -0.45593999997E+02  0.45594000000E+02  0.51100000000E-03 0.  1.
    9900012    2    1    2    0    0  0.36161732547E+02  0.20296904897E+02  0.12805778776E+02  0.47787271673E+02  0.20000002867E+02 0.  0.
        -12    1    1    2    0    0 -0.36161732547E+02 -0.20296904897E+02 -0.12805778776E+02  0.43400728327E+02  0.00000000000E+00 0.  1.
         11    1    3    3    0    0  0.45486719718E+01  0.32781577015E+00  0.10334513013E+01  0.46760989873E+01  0.51100000000E-03 0. -1.
        -11    1    3    3    0    0  0.18783266875E+02  0.19336903196E+01  0.86110915438E+01  0.20753341191E+02  0.51100000000E-03 0.  1.
         12    1    3    3    0    0  0.12829793700E+02  0.18035398807E+02  0.31612359308E+01  0.22357831495E+02  0.00000000000E+00 0. -1.
</event>
<event>
 7    1  0.4621547E-010  0.4778726E+02  0.7816164E-02  0.1312668E+00
        -11   -1    0    0    0    0  0.00000000000E+00  0.00000000000E+00  0.45593999997E+02  0.45594000000E+02  0.51100000000E-03 0. -1.
         11   -1    0    0    0    0 -0.00000000000E+00 -0.00000000000E+00 -0.45593999997E+02  0.45594000000E+02  0.51100000000E-03 0.  1.
    9900012    2    1    2    0    0 -0.26264406476E+02  0.33182583553E+02 -0.96291699515E+01  0.47787264836E+02  0.19999971695E+02 0.  0.
        -12    1    1    2    0    0  0.26264406476E+02 -0.33182583553E+02  0.96291699515E+01  0.43400735164E+02  0.00000000000E+00 0.  1.
         11    1    3    3    0    0 -0.55063260599E+01  0.23407204436E+01  0.35712584520E+00  0.59938416732E+01  0.51100000000E-03 0. -1.
        -11    1    3    3    0    0 -0.19179146598E+02  0.14261091152E+02 -0.51360782672E+01  0.24445811202E+02  0.51100000000E-03 0.  1.
        -12    1    3    3    0    0 -0.15789338187E+01  0.16580771957E+02 -0.48502175295E+01  0.17347611962E+02  0.00000000000E+00 0.  1.
</event>
<event>
 7    1  0.4621547E-010  0.4778726E+02  0.7816164E-02  0.1312668E+00
        -11   -1    0    0    0    0  0.00000000000E+00  0.00000000000E+00  0.45593999997E+02  0.45594000000E+02  0.51100000000E-03 0.  1.
         11   -1    0    0    0    0 -0.00000000000E+00 -0.00000000000E+00 -0.45593999997E+02  0.45594000000E+02  0.51100000000E-03 0. -1.
    9900012    2    1    2    0    0  0.39281227542E+02 -0.16092134456E+02 -0.90361598810E+01  0.47787264822E+02  0.19999971630E+02 0.  0.
        -12    1    1    2    0    0 -0.39281227542E+02  0.16092134456E+02  0.90361598810E+01  0.43400735178E+02  0.00000000000E+00 0.  1.
         11    1    3    3    0    0  0.21005527694E+02 -0.43798902197E+01 -0.32700909628E+01  0.21705048427E+02  0.51100000000E-03 0. -1.
        -11    1    3    3    0    0  0.68389478149E+01  0.54731207092E-01  0.30115667075E+01  0.74728667200E+01  0.51100000000E-03 0.  1.
        -12    1    3    3    0    0  0.11436752034E+02 -0.11766975443E+02 -0.87776356257E+01  0.18609349675E+02  0.00000000000E+00 0.  1.
</event>
<event>
 7    1  0.4621547E-010  0.4778727E+02  0.7816164E-02  0.1312668E+00
        -11   -1    0    0    0    0  0.00000000000E+00  0.00000000000E+00  0.45593999997E+02  0.45594000000E+02  0.51100000000E-03 0.  1.
         11   -1    0    0    0    0 -0.00000000000E+00 -0.00000000000E+00 -0.45593999997E+02  0.45594000000E+02  0.51100000000E-03 0. -1.
    9900012    2    1    2    0    0  0.15570444585E+02  0.12372390191E+02 -0.38576009039E+02  0.47787271239E+02  0.20000000886E+02 0.  0.
        -12    1    1    2    0    0 -0.15570444585E+02 -0.12372390191E+02  0.38576009039E+02  0.43400728761E+02  0.00000000000E+00 0.  1.
         11    1    3    3    0    0  0.72777826222E+01 -0.85804424480E+00 -0.11579729634E+02  0.13703740310E+02  0.51100000000E-03 0. -1.
        -11    1    3    3    0    0  0.94083340001E+00  0.64400525640E+01 -0.21912046558E+02  0.22858198292E+02  0.51100000000E-03 0.  1.
        -12    1    3    3    0    0  0.73518285624E+01  0.67903818719E+01 -0.50842328473E+01  0.11225332638E+02  0.00000000000E+00 0.  1.
</event>
<event>
 7    1  0.4621547E-010  0.4778727E+02  0.7816164E-02  0.1312668E+00
        -11   -1    0    0    0    0  0.00000000000E+00  0.00000000000E+00  0.45593999997E+02  0.45594000000E+02  0.51100000000E-03 0.  1.
         11   -1    0    0    0    0 -0.00000000000E+00 -0.00000000000E+00 -0.45593999997E+02  0.45594000000E+02  0.51100000000E-03 0. -1.
    9900012    2    1    2    0    0  0.18568313613E+02  0.23687715484E+02 -0.31268731857E+02  0.47787265821E+02  0.19999976186E+02 0.  0.
        -12    1    1    2    0    0 -0.18568313613E+02 -0.23687715484E+02  0.31268731857E+02  0.43400734179E+02  0.00000000000E+00 0.  1.
         11    1    3    3    0    0 -0.15222244654E+01  0.14426297827E+01 -0.14929922853E+01  0.25743687067E+01  0.51100000000E-03 0.  1.
        -11    1    3    3    0    0 -0.18902862932E+01 -0.90881925481E+00 -0.17814499434E+01  0.27518537152E+01  0.51100000000E-03 0. -1.
         12    1    3    3    0    0  0.21980824372E+02  0.23153904956E+02 -0.27994289628E+02  0.42461043400E+02  0.00000000000E+00 0. -1.
</event>
<event>
 7    1  0.4621547E-010  0.4778727E+02  0.7816164E-02  0.1312668E+00
        -11   -1    0    0    0    0  0.00000000000E+00  0.00000000000E+00  0.45593999997E+02  0.45594000000E+02  0.51100000000E-03 0.  1.
         11   -1    0    0    0    0 -0.00000000000E+00 -0.00000000000E+00 -0.45593999997E+02  0.45594000000E+02  0.51100000000E-03 0. -1.
    9900012    2    1    2    0    0  0.41440706808E+02 -0.24288982357E+01 -0.12664590103E+02  0.47787267635E+02  0.19999984453E+02 0.  0.
        -12    1    1    2    0    0 -0.41440706808E+02  0.24288982357E+01  0.12664590103E+02  0.43400732365E+02  0.00000000000E+00 0.  1.
         11    1    3    3    0    0  0.93237847807E+01  0.27201657048E+01 -0.21156999751E+01  0.99402439983E+01  0.51100000000E-03 0. -1.
        -11    1    3    3    0    0  0.25034029065E+02 -0.15585478436E+01 -0.56327319215E+00  0.25088821406E+02  0.51100000000E-03 0.  1.
         12    1    3    3    0    0  0.70828929620E+01 -0.35905160969E+01 -0.99856169357E+01  0.12758202230E+02  0.00000000000E+00 0. -1.
</event>
<event>
 7    1  0.4621547E-010  0.4778727E+02  0.7816164E-02  0.1312668E+00
        -11   -1    0    0    0    0  0.00000000000E+00  0.00000000000E+00  0.45593999997E+02  0.45594000000E+02  0.51100000000E-03 0. -1.
         11   -1    0    0    0    0 -0.00000000000E+00 -0.00000000000E+00 -0.45593999997E+02  0.45594000000E+02  0.51100000000E-03 0.  1.
    9900012    2    1    2    0    0 -0.21218516431E+02 -0.37315644161E+02 -0.63984629337E+01  0.47787273433E+02  0.20000010889E+02 0.  0.
        -12    1    1    2    0    0  0.21218516431E+02  0.37315644161E+02  0.63984629337E+01  0.43400726567E+02  0.00000000000E+00 0.  1.
         11    1    3    3    0    0 -0.94120922570E+00 -0.87336772866E+01  0.13842068357E+01  0.88926386736E+01  0.51100000000E-03 0. -1.
        -11    1    3    3    0    0 -0.43053446456E+01  0.87446285688E+00  0.37097094343E+00  0.44088884663E+01  0.51100000000E-03 0.  1.
         12    1    3    3    0    0 -0.15971962559E+02 -0.29456429731E+02 -0.81536407129E+01  0.34485746293E+02  0.00000000000E+00 0. -1.
</event>
<event>
 7    1  0.4621547E-010  0.4778726E+02  0.7816164E-02  0.1312668E+00
        -11   -1    0    0    0    0  0.00000000000E+00  0.00000000000E+00  0.45593999997E+02  0.45594000000E+02  0.51100000000E-03 0. -1.
         11   -1    0    0    0    0 -0.00000000000E+00 -0.00000000000E+00 -0.45593999997E+02  0.45594000000E+02  0.51100000000E-03 0.  1.
    9900012    2    1    2    0    0  0.25618827909E+02  0.32785295559E+02  0.12346010631E+02  0.47787263522E+02  0.19999965704E+02 0.  0.
        -12    1    1    2    0    0 -0.25618827909E+02 -0.32785295559E+02 -0.12346010631E+02  0.43400736478E+02  0.00000000000E+00 0.  1.
         11    1    3    3    0    0  0.17834115172E+02  0.20105910780E+02  0.43088439444E+01  0.27218917110E+02  0.51100000000E-03 0. -1.
        -11    1    3    3    0    0 -0.59822358695E+00  0.12763694357E+00 -0.22308234743E+01  0.23131658575E+01  0.51100000000E-03 0.  1.
         12    1    3    3    0    0  0.83829363235E+01  0.12551747836E+02  0.10267990161E+02  0.18255180555E+02  0.00000000000E+00 0. -1.
</event>
<event>
 7    1  0.4621547E-010  0.4778727E+02  0.7816164E-02  0.1312668E+00
        -11   -1    0    0    0    0  0.00000000000E+00  0.00000000000E+00  0.45593999997E+02  0.45594000000E+02  0.51100000000E-03 0. -1.
         11   -1    0    0    0    0 -0.00000000000E+00 -0.00000000000E+00 -0.45593999997E+02  0.45594000000E+02  0.51100000000E-03 0.  1.
    9900012    2    1    2    0    0  0.59865292253E+01 -0.32336329630E+01  0.42864070624E+02  0.47787268846E+02  0.19999989975E+02 0.  0.
        -12    1    1    2    0    0 -0.59865292253E+01  0.32336329630E+01 -0.42864070624E+02  0.43400731154E+02  0.00000000000E+00 0.  1.
         11    1    3    3    0    0 -0.31808323071E+00 -0.16786808819E+01 -0.34787442800E-01  0.17089051677E+01  0.51100000000E-03 0. -1.
        -11    1    3    3    0    0  0.62372764337E+00 -0.51508166694E+01  0.38651823806E+01  0.64698982705E+01  0.51100000000E-03 0.  1.
         12    1    3    3    0    0  0.56808848126E+01  0.35958645884E+01  0.39033675686E+02  0.39608465407E+02  0.00000000000E+00 0. -1.
</event>
<event>
 7    1  0.4621547E-010  0.4778726E+02  0.7816164E-02  0.1312668E+00
        -11   -1    0    0    0    0  0.00000000000E+00  0.00000000000E+00  0.45593999997E+02  0.45594000000E+02  0.51100000000E-03 0.  1.
         11   -1    0    0    0    0 -0.00000000000E+00 -0.00000000000E+00 -0.45593999997E+02  0.45594000000E+02  0.51100000000E-03 0. -1.
    9900012    2    1    2    0    0  0.20727355265E+02 -0.37988931127E+02 -0.32927014940E+01  0.47787262361E+02  0.19999960410E+02 0.  0.
        -12    1    1    2    0    0 -0.20727355265E+02  0.37988931127E+02  0.32927014940E+01  0.43400737639E+02  0.00000000000E+00 0.  1.
         11    1    3    3    0    0  0.10917111990E+02 -0.15014976780E+02  0.48634443760E+01  0.19190777821E+02  0.51100000000E-03 0. -1.
        -11    1    3    3    0    0  0.20336689405E+00  0.33008163193E-01  0.17546613337E+01  0.17667156787E+01  0.51100000000E-03 0.  1.
        -12    1    3    3    0    0  0.96068763807E+01 -0.23006962510E+02 -0.99108072037E+01  0.26829768862E+02  0.00000000000E+00 0.  1.
</event>
<event>
 7    1  0.4621547E-010  0.4778728E+02  0.7816164E-02  0.1312668E+00
        -11   -1    0    0    0    0  0.00000000000E+00  0.00000000000E+00  0.45593999997E+02  0.45594000000E+02  0.51100000000E-03 0.  1.
         11   -1    0    0    0    0 -0.00000000000E+00 -0.00000000000E+00 -0.45593999997E+02  0.45594000000E+02  0.51100000000E-03 0. -1.
    9900012    2    1    2    0    0  0.23157800347E+02  0.30388476288E+02 -0.20588334639E+02  0.47787277296E+02  0.20000028503E+02 0.  0.
        -12    1    1    2    0    0 -0.23157800347E+02 -0.30388476288E+02  0.20588334639E+02  0.43400722704E+02  0.00000000000E+00 0.  1.
         11    1    3    3    0    0  0.12499754744E+02  0.61228761860E+01 -0.52806775506E+01  0.14886874659E+02  0.51100000000E-03 0. -1.
        -11    1    3    3    0    0  0.24990836575E+00 -0.25616397821E+00  0.14068792999E+01  0.14516830923E+01  0.51100000000E-03 0.  1.
        -12    1    3    3    0    0  0.10408137238E+02  0.24521764080E+02 -0.16714536388E+02  0.31448719545E+02  0.00000000000E+00 0.  1.
</event>
<event>
 7    1  0.4621547E-010  0.4778727E+02  0.7816164E-02  0.1312668E+00
        -11   -1    0    0    0    0  0.00000000000E+00  0.00000000000E+00  0.45593999997E+02  0.45594000000E+02  0.51100000000E-03 0.  1.
         11   -1    0    0    0    0 -0.00000000000E+00 -0.00000000000E+00 -0.45593999997E+02  0.45594000000E+02  0.51100000000E-03 0. -1.
    9900012    2    1    2    0    0 -0.16598317623E+02  0.11238149164E+02 -0.38494456976E+02  0.47787270025E+02  0.19999995351E+02 0.  0.
        -12    1    1    2    0    0  0.16598317623E+02 -0.11238149164E+02  0.38494456976E+02  0.43400729975E+02  0.00000000000E+00 0.  1.
         11    1    3    3    0    0  0.11113299043E+01 -0.10140426738E+01 -0.11623249389E+01  0.19011407695E+01  0.51100000000E-03 0. -1.
        -11    1    3    3    0    0 -0.79673320985E+01  0.70050673829E+01 -0.50294481020E+01  0.11740728183E+02  0.51100000000E-03 0.  1.
         12    1    3    3    0    0 -0.97423154286E+01  0.52471244548E+01 -0.32302683935E+02  0.34145401072E+02  0.00000000000E+00 0. -1.
</event>
<event>
 7    1  0.4621547E-010  0.4778726E+02  0.7816164E-02  0.1312668E+00
        -11   -1    0    0    0    0  0.00000000000E+00  0.00000000000E+00  0.45593999997E+02  0.45594000000E+02  0.51100000000E-03 0.  1.
         11   -1    0    0    0    0 -0.00000000000E+00 -0.00000000000E+00 -0.45593999997E+02  0.45594000000E+02  0.51100000000E-03 0. -1.
    9900012    2    1    2    0    0  0.27957915464E+02 -0.29507683419E+02 -0.15207740880E+02  0.47787264977E+02  0.19999972338E+02 0.  0.
        -12    1    1    2    0    0 -0.27957915464E+02  0.29507683419E+02  0.15207740880E+02  0.43400735023E+02  0.00000000000E+00 0.  1.
         11    1    3    3    0    0  0.76195338618E+00 -0.21756025386E+01 -0.46812269764E+01  0.52180174045E+01  0.51100000000E-03 0. -1.
        -11    1    3    3    0    0  0.48388289369E+01 -0.55618199264E+01 -0.85669477808E+01  0.11302243181E+02  0.51100000000E-03 0.  1.
        -12    1    3    3    0    0  0.22357133141E+02 -0.21770260954E+02 -0.19595661229E+01  0.31267004392E+02  0.00000000000E+00 0.  1.
</event>
<event>
 7    1  0.4621547E-010  0.4778723E+02  0.7816164E-02  0.1312668E+00
        -11   -1    0    0    0    0  0.00000000000E+00  0.00000000000E+00  0.45593999997E+02  0.45594000000E+02  0.51100000000E-03 0.  1.
         11   -1    0    0    0    0 -0.00000000000E+00 -0.00000000000E+00 -0.45593999997E+02  0.45594000000E+02  0.51100000000E-03 0. -1.
    9900012    2    1    2    0    0 -0.57595456877E+01  0.11056968136E+02 -0.41571602971E+02  0.47787227144E+02  0.19999799841E+02 0.  0.
        -12    1    1    2    0    0  0.57595456877E+01 -0.11056968136E+02  0.41571602971E+02  0.43400772856E+02  0.00000000000E+00 0.  1.
         11    1    3    3    0    0 -0.11012894677E+01  0.24249322900E+01 -0.16226538820E+02  0.16443652193E+02  0.51100000000E-03 0. -1.
        -11    1    3    3    0    0 -0.27179863201E+01 -0.25826520756E+01 -0.16524179959E+02  0.16944204466E+02  0.51100000000E-03 0.  1.
        -12    1    3    3    0    0 -0.19402698999E+01  0.11214687922E+02 -0.88208841915E+01  0.14399370486E+02  0.00000000000E+00 0.  1.
</event>
<event>
 7    1  0.4621547E-010  0.4778727E+02  0.7816164E-02  0.1312668E+00
        -11   -1    0    0    0    0  0.00000000000E+00  0.00000000000E+00  0.45593999997E+02  0.45594000000E+02  0.51100000000E-03 0.  1.
         11   -1    0    0    0    0 -0.00000000000E+00 -0.00000000000E+00 -0.45593999997E+02  0.45594000000E+02  0.51100000000E-03 0. -1.
    9900012    2    1    2    0    0  0.10890588087E+02 -0.40923869990E+02 -0.95002913481E+01  0.47787267523E+02  0.19999983944E+02 0.  0.
        -12    1    1    2    0    0 -0.10890588087E+02  0.40923869990E+02  0.95002913481E+01  0.43400732477E+02  0.00000000000E+00 0.  1.
         11    1    3    3    0    0  0.70607324872E+01 -0.24997980147E+02 -0.95340972877E+01  0.27670416803E+02  0.51100000000E-03 0. -1.
        -11    1    3    3    0    0 -0.11309137352E+00 -0.16066491301E+02 -0.79004259579E+00  0.16086301624E+02  0.51100000000E-03 0.  1.
         12    1    3    3    0    0  0.39429469736E+01  0.14060145767E+00  0.82384853539E+00  0.40305490960E+01  0.00000000000E+00 0. -1.
</event>
<event>
 7    1  0.4621547E-010  0.4778727E+02  0.7816164E-02  0.1312668E+00
        -11   -1    0    0    0    0  0.00000000000E+00  0.00000000000E+00  0.45593999997E+02  0.45594000000E+02  0.51100000000E-03 0.  1.
         11   -1    0    0    0    0 -0.00000000000E+00 -0.00000000000E+00 -0.45593999997E+02  0.45594000000E+02  0.51100000000E-03 0. -1.
    9900012    2    1    2    0    0  0.10218817331E+02 -0.39025717551E+02 -0.16006016075E+02  0.47787269492E+02  0.19999992922E+02 0.  0.
        -12    1    1    2    0    0 -0.10218817331E+02  0.39025717551E+02  0.16006016075E+02  0.43400730508E+02  0.00000000000E+00 0.  1.
         11    1    3    3    0    0 -0.52891844638E+00 -0.26707343286E+02 -0.99765073167E+01  0.28514779301E+02  0.51100000000E-03 0. -1.
        -11    1    3    3    0    0 -0.55259108417E+00 -0.44814801585E+01 -0.20305034969E+01  0.49509560722E+01  0.51100000000E-03 0.  1.
        -12    1    3    3    0    0  0.11300326861E+02 -0.78368941070E+01 -0.39990052617E+01  0.14321534118E+02  0.00000000000E+00 0.  1.
</event>
<event>
 7    1  0.4621547E-010  0.4778727E+02  0.7816164E-02  0.1312668E+00
        -11   -1    0    0    0    0  0.00000000000E+00  0.00000000000E+00  0.45593999997E+02  0.45594000000E+02  0.51100000000E-03 0.  1.
         11   -1    0    0    0    0 -0.00000000000E+00 -0.00000000000E+00 -0.45593999997E+02  0.45594000000E+02  0.51100000000E-03 0. -1.
    9900012    2    1    2    0    0 -0.27162463594E+02  0.28309066025E+02 -0.18558575348E+02  0.47787269976E+02  0.19999995126E+02 0.  0.
        -12    1    1    2    0    0  0.27162463594E+02 -0.28309066025E+02  0.18558575348E+02  0.43400730024E+02  0.00000000000E+00 0.  1.
         11    1    3    3    0    0 -0.54068012169E+01  0.15569365252E+02 -0.67970394976E+01  0.17828022323E+02  0.51100000000E-03 0. -1.
        -11    1    3    3    0    0 -0.13810839050E+02  0.12537047056E+02 -0.44857123174E+01  0.19184327963E+02  0.51100000000E-03 0.  1.
        -12    1    3    3    0    0 -0.79448233274E+01  0.20265371706E+00 -0.72758235326E+01  0.10774919689E+02  0.00000000000E+00 0.  1.
</event>
<event>
 7    1  0.4621547E-010  0.4778727E+02  0.7816164E-02  0.1312668E+00
        -11   -1    0    0    0    0  0.00000000000E+00  0.00000000000E+00  0.45593999997E+02  0.45594000000E+02  0.51100000000E-03 0.  1.
         11   -1    0    0    0    0 -0.00000000000E+00 -0.00000000000E+00 -0.45593999997E+02  0.45594000000E+02  0.51100000000E-03 0. -1.
    9900012    2    1    2    0    0 -0.25738506945E+02 -0.28714997525E+02 -0.19914857096E+02  0.47787270101E+02  0.19999995698E+02 0.  0.
        -12    1    1    2    0    0  0.25738506945E+02  0.28714997525E+02  0.19914857096E+02  0.43400729899E+02  0.00000000000E+00 0.  1.
         11    1    3    3    0    0 -0.72237818371E+00  0.28766275432E+00 -0.19295131321E+01  0.20802887512E+01  0.51100000000E-03 0. -1.
        -11    1    3    3    0    0 -0.35008687587E+01  0.18519024810E+01  0.11747707545E+00  0.39622501170E+01  0.51100000000E-03 0.  1.
         12    1    3    3    0    0 -0.21515260003E+02 -0.30854562760E+02 -0.18102821039E+02  0.41744731233E+02  0.00000000000E+00 0. -1.
</event>
<event>
 7    1  0.4621547E-010  0.4778727E+02  0.7816164E-02  0.1312668E+00
        -11   -1    0    0    0    0  0.00000000000E+00  0.00000000000E+00  0.45593999997E+02  0.45594000000E+02  0.51100000000E-03 0.  1.
         11   -1    0    0    0    0 -0.00000000000E+00 -0.00000000000E+00 -0.45593999997E+02  0.45594000000E+02  0.51100000000E-03 0. -1.
    9900012    2    1    2    0    0 -0.22718303826E+02 -0.18869270911E+02 -0.31803343135E+02  0.47787270191E+02  0.19999996108E+02 0.  0.
        -12    1    1    2    0    0  0.22718303826E+02  0.18869270911E+02  0.31803343135E+02  0.43400729809E+02  0.00000000000E+00 0.  1.
         11    1    3    3    0    0 -0.70473048626E+01  0.17559592427E+01 -0.13295685518E+02  0.15150021529E+02  0.51100000000E-03 0. -1.
        -11    1    3    3    0    0 -0.76623264797E+00 -0.16032390828E+01 -0.41831332376E+01  0.45448973555E+01  0.51100000000E-03 0.  1.
         12    1    3    3    0    0 -0.14904766316E+02 -0.19021991070E+02 -0.14324524379E+02  0.28092351306E+02  0.00000000000E+00 0. -1.
</event>
<event>
 7    1  0.4621547E-010  0.4778727E+02  0.7816164E-02  0.1312668E+00
        -11   -1    0    0    0    0  0.00000000000E+00  0.00000000000E+00  0.45593999997E+02  0.45594000000E+02  0.51100000000E-03 0.  1.
         11   -1    0    0    0    0 -0.00000000000E+00 -0.00000000000E+00 -0.45593999997E+02  0.45594000000E+02  0.51100000000E-03 0. -1.
    9900012    2    1    2    0    0 -0.27357933428E+02  0.10093323833E+02 -0.32144850718E+02  0.47787272643E+02  0.20000007288E+02 0.  0.
        -12    1    1    2    0    0  0.27357933428E+02 -0.10093323833E+02  0.32144850718E+02  0.43400727357E+02  0.00000000000E+00 0.  1.
         11    1    3    3    0    0 -0.10928631691E+02  0.43203805859E+01 -0.21500245672E+02  0.24502270166E+02  0.51100000000E-03 0. -1.
        -11    1    3    3    0    0 -0.92180092655E+01  0.48484685782E+00 -0.10969675694E+02  0.14336685683E+02  0.51100000000E-03 0.  1.
        -12    1    3    3    0    0 -0.72112924707E+01  0.52880963892E+01  0.32507064750E+00  0.89483167939E+01  0.00000000000E+00 0.  1.
</event>
<event>
 7    1  0.4621547E-010  0.4778727E+02  0.7816164E-02  0.1312668E+00
        -11   -1    0    0    0    0  0.00000000000E+00  0.00000000000E+00  0.45593999997E+02  0.45594000000E+02  0.51100000000E-03 0.  1.
         11   -1    0    0    0    0 -0.00000000000E+00 -0.00000000000E+00 -0.45593999997E+02  0.45594000000E+02  0.51100000000E-03 0. -1.
    9900012    2    1    2    0    0  0.44704143560E+01 -0.43991073013E+01 -0.42945159415E+02  0.47787268823E+02  0.19999989870E+02 0.  0.
        -12    1    1    2    0    0 -0.44704143560E+01  0.43991073013E+01  0.42945159415E+02  0.43400731177E+02  0.00000000000E+00 0.  1.
         11    1    3    3    0    0 -0.52459563246E+01 -0.13841385620E+00 -0.38571699380E+01  0.65128316689E+01  0.51100000000E-03 0. -1.
        -11    1    3    3    0    0  0.15570593910E+01 -0.47982615829E+01 -0.13503670379E+02  0.14415160843E+02  0.51100000000E-03 0.  1.
         12    1    3    3    0    0  0.81593112896E+01  0.53756813777E+00 -0.25584319098E+02  0.26859276311E+02  0.00000000000E+00 0. -1.
</event>
<event>
 7    1  0.4621547E-010  0.4778727E+02  0.7816164E-02  0.1312668E+00
        -11   -1    0    0    0    0  0.00000000000E+00  0.00000000000E+00  0.45593999997E+02  0.45594000000E+02  0.51100000000E-03 0.  1.
         11   -1    0    0    0    0 -0.00000000000E+00 -0.00000000000E+00 -0.45593999997E+02  0.45594000000E+02  0.51100000000E-03 0. -1.
    9900012    2    1    2    0    0  0.32354010498E+02  0.27032108609E+02  0.10300784277E+02  0.47787273648E+02  0.20000011871E+02 0.  0.
        -12    1    1    2    0    0 -0.32354010498E+02 -0.27032108609E+02 -0.10300784277E+02  0.43400726352E+02  0.00000000000E+00 0.  1.
         11    1    3    3    0    0  0.11197577587E+02  0.11995841753E+02  0.64387566201E+01  0.17627919623E+02  0.51100000000E-03 0. -1.
        -11    1    3    3    0    0  0.18527489573E+02  0.84782937923E+01  0.80935161988E+01  0.21923830418E+02  0.51100000000E-03 0.  1.
         12    1    3    3    0    0  0.26289433381E+01  0.65579730643E+01 -0.42314885421E+01  0.82355236063E+01  0.00000000000E+00 0. -1.
</event>
<event>
 7    1  0.4621547E-010  0.4778727E+02  0.7816164E-02  0.1312668E+00
        -11   -1    0    0    0    0  0.00000000000E+00  0.00000000000E+00  0.45593999997E+02  0.45594000000E+02  0.51100000000E-03 0.  1.
         11   -1    0    0    0    0 -0.00000000000E+00 -0.00000000000E+00 -0.45593999997E+02  0.45594000000E+02  0.51100000000E-03 0. -1.
    9900012    2    1    2    0    0  0.32992318861E+02 -0.24301363907E+02 -0.14302946815E+02  0.47787266375E+02  0.19999978711E+02 0.  0.
        -12    1    1    2    0    0 -0.32992318861E+02  0.24301363907E+02  0.14302946815E+02  0.43400733625E+02  0.00000000000E+00 0.  1.
         11    1    3    3    0    0  0.47057953666E+01  0.91504005376E+00 -0.43534071342E+01  0.64756437726E+01  0.51100000000E-03 0. -1.
        -11    1    3    3    0    0  0.19645514339E+02 -0.87731977531E+01 -0.50235831153E+01  0.22094153526E+02  0.51100000000E-03 0.  1.
        -12    1    3    3    0    0  0.86410091558E+01 -0.16443206208E+02 -0.49259565655E+01  0.19217469077E+02  0.00000000000E+00 0.  1.
</event>
<event>
 7    1  0.4621547E-010  0.4778728E+02  0.7816164E-02  0.1312668E+00
        -11   -1    0    0    0    0  0.00000000000E+00  0.00000000000E+00  0.45593999997E+02  0.45594000000E+02  0.51100000000E-03 0.  1.
         11   -1    0    0    0    0 -0.00000000000E+00 -0.00000000000E+00 -0.45593999997E+02  0.45594000000E+02  0.51100000000E-03 0. -1.
    9900012    2    1    2    0    0 -0.14025404651E+01 -0.33495561949E+02 -0.27562711505E+02  0.47787275864E+02  0.20000021973E+02 0.  0.
        -12    1    1    2    0    0  0.14025404651E+01  0.33495561949E+02  0.27562711505E+02  0.43400724136E+02  0.00000000000E+00 0.  1.
         11    1    3    3    0    0 -0.46809985197E+01 -0.51498581595E+01 -0.78264254015E+01  0.10473095103E+02  0.51100000000E-03 0.  1.
        -11    1    3    3    0    0  0.36511725947E+01 -0.15019694243E+02 -0.18225675023E+02  0.23897646469E+02  0.51100000000E-03 0. -1.
        -12    1    3    3    0    0 -0.37271454014E+00 -0.13326009547E+02 -0.15106110804E+01  0.13416534292E+02  0.00000000000E+00 0.  1.
</event>
<event>
 7    1  0.4621547E-010  0.4778728E+02  0.7816164E-02  0.1312668E+00
        -11   -1    0    0    0    0  0.00000000000E+00  0.00000000000E+00  0.45593999997E+02  0.45594000000E+02  0.51100000000E-03 0.  1.
         11   -1    0    0    0    0 -0.00000000000E+00 -0.00000000000E+00 -0.45593999997E+02  0.45594000000E+02  0.51100000000E-03 0. -1.
    9900012    2    1    2    0    0  0.30357619890E+02  0.20768092272E+02 -0.23037448357E+02  0.47787276863E+02  0.20000026531E+02 0.  0.
        -12    1    1    2    0    0 -0.30357619890E+02 -0.20768092272E+02  0.23037448357E+02  0.43400723137E+02  0.00000000000E+00 0.  1.
         11    1    3    3    0    0 -0.18046543147E+01  0.34120999679E+01 -0.35346311603E+01  0.52338151560E+01  0.51100000000E-03 0. -1.
        -11    1    3    3    0    0  0.94863799914E+01  0.10044939277E+02 -0.51869997755E+01  0.14757953020E+02  0.51100000000E-03 0.  1.
         12    1    3    3    0    0  0.22675894213E+02  0.73110530267E+01 -0.14315817421E+02  0.27795508687E+02  0.00000000000E+00 0. -1.
</event>
<event>
 7    1  0.4621547E-010  0.4778727E+02  0.7816164E-02  0.1312668E+00
        -11   -1    0    0    0    0  0.00000000000E+00  0.00000000000E+00  0.45593999997E+02  0.45594000000E+02  0.51100000000E-03 0. -1.
         11   -1    0    0    0    0 -0.00000000000E+00 -0.00000000000E+00 -0.45593999997E+02  0.45594000000E+02  0.51100000000E-03 0.  1.
    9900012    2    1    2    0    0 -0.16845449805E+02  0.89605562923E+00  0.39988140262E+02  0.47787268941E+02  0.19999990409E+02 0.  0.
        -12    1    1    2    0    0  0.16845449805E+02 -0.89605562923E+00 -0.39988140262E+02  0.43400731059E+02  0.00000000000E+00 0.  1.
         11    1    3    3    0    0  0.25338174441E+00 -0.24473324198E+01  0.10622173454E+02  0.10903403479E+02  0.51100000000E-03 0. -1.
        -11    1    3    3    0    0 -0.51424721187E+01  0.72470278848E+01  0.17329324948E+02  0.19474853942E+02  0.51100000000E-03 0.  1.
        -12    1    3    3    0    0 -0.11956359431E+02 -0.39036398357E+01  0.12036641860E+02  0.17409011519E+02  0.00000000000E+00 0.  1.
</event>
<event>
 7    1  0.4621547E-010  0.4778725E+02  0.7816164E-02  0.1312668E+00
        -11   -1    0    0    0    0  0.00000000000E+00  0.00000000000E+00  0.45593999997E+02  0.45594000000E+02  0.51100000000E-03 0. -1.
         11   -1    0    0    0    0 -0.00000000000E+00 -0.00000000000E+00 -0.45593999997E+02  0.45594000000E+02  0.51100000000E-03 0.  1.
    9900012    2    1    2    0    0 -0.38494106110E+02  0.74127295706E+01  0.18624718797E+02  0.47787252136E+02  0.19999913788E+02 0.  0.
        -12    1    1    2    0    0  0.38494106110E+02 -0.74127295706E+01 -0.18624718797E+02  0.43400747864E+02  0.00000000000E+00 0.  1.
         11    1    3    3    0    0 -0.21990372316E+02  0.25981545030E+01  0.36882454438E+01  0.22448386047E+02  0.51100000000E-03 0. -1.
        -11    1    3    3    0    0 -0.17922321648E+01 -0.25014480793E+01 -0.82795125744E-01  0.30783427230E+01  0.51100000000E-03 0.  1.
         12    1    3    3    0    0 -0.14711501630E+02  0.73160231468E+01  0.15019268479E+02  0.22260523366E+02  0.00000000000E+00 0. -1.
</event>
<event>
 7    1  0.4621547E-010  0.4778727E+02  0.7816164E-02  0.1312668E+00
        -11   -1    0    0    0    0  0.00000000000E+00  0.00000000000E+00  0.45593999997E+02  0.45594000000E+02  0.51100000000E-03 0.  1.
         11   -1    0    0    0    0 -0.00000000000E+00 -0.00000000000E+00 -0.45593999997E+02  0.45594000000E+02  0.51100000000E-03 0. -1.
    9900012    2    1    2    0    0 -0.19942499154E+02  0.21680526480E+02  0.31872794088E+02  0.47787268394E+02  0.19999987916E+02 0.  0.
        -12    1    1    2    0    0  0.19942499154E+02 -0.21680526480E+02 -0.31872794088E+02  0.43400731606E+02  0.00000000000E+00 0.  1.
         11    1    3    3    0    0 -0.33830199389E+01  0.41414464811E+01  0.81376241669E+01  0.97374190731E+01  0.51100000000E-03 0.  1.
        -11    1    3    3    0    0 -0.79201281916E+01 -0.12759984153E+01  0.11433455337E+02  0.13967122242E+02  0.51100000000E-03 0. -1.
         12    1    3    3    0    0 -0.86393510237E+01  0.18815078414E+02  0.12301714585E+02  0.24082727079E+02  0.00000000000E+00 0. -1.
</event>
