<event>
 7    1  0.5411321E-010  0.4778727E+02  0.7816164E-02  0.1312668E+00
        -11   -1    0    0    0    0  0.00000000000E+00  0.00000000000E+00  0.45593999997E+02  0.45594000000E+02  0.51100000000E-03 0.  1.
         11   -1    0    0    0    0 -0.00000000000E+00 -0.00000000000E+00 -0.45593999997E+02  0.45594000000E+02  0.51100000000E-03 0. -1.
    9900012    2    1    2    0    0  0.19647249886E+02 -0.18336778286E+02  0.34078901797E+02  0.47787269434E+02  0.19999992659E+02 0.  0.
         12    1    1    2    0    0 -0.19647249886E+02  0.18336778286E+02 -0.34078901797E+02  0.43400730566E+02  0.00000000000E+00 0. -1.
         11    1    3    3    0    0  0.35152713131E+01 -0.33697673887E+01  0.13482963677E+01  0.50527584561E+01  0.51100000000E-03 0. -1.
        -11    1    3    3    0    0  0.18592495310E+02 -0.98048856015E+01  0.21147340389E+02  0.29816550258E+02  0.51100000000E-03 0.  1.
        -12    1    3    3    0    0 -0.24605167374E+01 -0.51621252955E+01  0.11583265040E+02  0.12917960720E+02  0.00000000000E+00 0.  1.
</event>
<event>
 7    1  0.5411321E-010  0.4778729E+02  0.7816164E-02  0.1312668E+00
        -11   -1    0    0    0    0  0.00000000000E+00  0.00000000000E+00  0.45593999997E+02  0.45594000000E+02  0.51100000000E-03 0.  1.
         11   -1    0    0    0    0 -0.00000000000E+00 -0.00000000000E+00 -0.45593999997E+02  0.45594000000E+02  0.51100000000E-03 0. -1.
    9900012    2    1    2    0    0 -0.27158859055E+02  0.33764103190E+02 -0.24502497984E+01  0.47787285565E+02  0.20000066205E+02 0.  0.
         12    1    1    2    0    0  0.27158859055E+02 -0.33764103190E+02  0.24502497984E+01  0.43400714435E+02  0.00000000000E+00 0. -1.
         11    1    3    3    0    0  0.18446432565E+01  0.21453893098E+01 -0.12727086818E+01  0.31024493041E+01  0.51100000000E-03 0. -1.
        -11    1    3    3    0    0 -0.23005228610E+02  0.16512078877E+02  0.67498477769E+00  0.28325693230E+02  0.51100000000E-03 0.  1.
        -12    1    3    3    0    0 -0.59982737016E+01  0.15106635003E+02 -0.18525258942E+01  0.16359143031E+02  0.00000000000E+00 0.  1.
</event>
<event>
 7    1  0.5411321E-010  0.4778727E+02  0.7816164E-02  0.1312668E+00
        -11   -1    0    0    0    0  0.00000000000E+00  0.00000000000E+00  0.45593999997E+02  0.45594000000E+02  0.51100000000E-03 0.  1.
         11   -1    0    0    0    0 -0.00000000000E+00 -0.00000000000E+00 -0.45593999997E+02  0.45594000000E+02  0.51100000000E-03 0. -1.
    9900012    2    1    2    0    0 -0.39682327267E+02 -0.80392314218E+01  0.15630320514E+02  0.47787271222E+02  0.20000000808E+02 0.  0.
         12    1    1    2    0    0  0.39682327267E+02  0.80392314218E+01 -0.15630320514E+02  0.43400728778E+02  0.00000000000E+00 0. -1.
         11    1    3    3    0    0 -0.16326903084E+01  0.43032379668E+00 -0.28373909185E+00  0.17121227604E+01  0.51100000000E-03 0. -1.
        -11    1    3    3    0    0 -0.10888493507E+02  0.58933679841E+01  0.62303470332E+01  0.13860313902E+02  0.51100000000E-03 0.  1.
        -12    1    3    3    0    0 -0.27161143451E+02 -0.14362923203E+02  0.96837125722E+01  0.32214834559E+02  0.00000000000E+00 0.  1.
</event>
<event>
 7    1  0.5411321E-010  0.4778728E+02  0.7816164E-02  0.1312668E+00
        -11   -1    0    0    0    0  0.00000000000E+00  0.00000000000E+00  0.45593999997E+02  0.45594000000E+02  0.51100000000E-03 0.  1.
         11   -1    0    0    0    0 -0.00000000000E+00 -0.00000000000E+00 -0.45593999997E+02  0.45594000000E+02  0.51100000000E-03 0. -1.
    9900012    2    1    2    0    0  0.36741745303E+02 -0.17078122020E+02  0.15556499142E+02  0.47787276905E+02  0.20000026719E+02 0.  0.
         12    1    1    2    0    0 -0.36741745303E+02  0.17078122020E+02 -0.15556499142E+02  0.43400723095E+02  0.00000000000E+00 0. -1.
         11    1    3    3    0    0  0.26353958643E+02 -0.12109320927E+02  0.13993358214E+01  0.29036613619E+02  0.51100000000E-03 0. -1.
        -11    1    3    3    0    0  0.81428655104E+01 -0.25912712440E+01  0.76549616597E+01  0.11472549135E+02  0.51100000000E-03 0.  1.
         12    1    3    3    0    0  0.22449211501E+01 -0.23775298484E+01  0.65022016610E+01  0.72781141507E+01  0.00000000000E+00 0. -1.
</event>
<event>
 7    1  0.5411321E-010  0.4778727E+02  0.7816164E-02  0.1312668E+00
        -11   -1    0    0    0    0  0.00000000000E+00  0.00000000000E+00  0.45593999997E+02  0.45594000000E+02  0.51100000000E-03 0. -1.
         11   -1    0    0    0    0 -0.00000000000E+00 -0.00000000000E+00 -0.45593999997E+02  0.45594000000E+02  0.51100000000E-03 0.  1.
    9900012    2    1    2    0    0  0.54543026184E+00  0.40482897950E+02 -0.15635241502E+02  0.47787270773E+02  0.19999998764E+02 0.  0.
         12    1    1    2    0    0 -0.54543026184E+00 -0.40482897950E+02  0.15635241502E+02  0.43400729227E+02  0.00000000000E+00 0. -1.
         11    1    3    3    0    0  0.16455247387E+01  0.19666823087E+02 -0.49800722294E+01  0.20354183886E+02  0.51100000000E-03 0.  1.
        -11    1    3    3    0    0  0.49472045561E+01  0.38362660855E+01 -0.63175005675E+01  0.88939633505E+01  0.51100000000E-03 0. -1.
        -12    1    3    3    0    0 -0.60472990330E+01  0.16979808778E+02 -0.43376687051E+01  0.18539123537E+02  0.00000000000E+00 0.  1.
</event>
<event>
 7    1  0.5411321E-010  0.4778727E+02  0.7816164E-02  0.1312668E+00
        -11   -1    0    0    0    0  0.00000000000E+00  0.00000000000E+00  0.45593999997E+02  0.45594000000E+02  0.51100000000E-03 0. -1.
         11   -1    0    0    0    0 -0.00000000000E+00 -0.00000000000E+00 -0.45593999997E+02  0.45594000000E+02  0.51100000000E-03 0.  1.
    9900012    2    1    2    0    0  0.39973776533E+02  0.14779456640E+02  0.82029251117E+01  0.47787272711E+02  0.20000007597E+02 0.  0.
         12    1    1    2    0    0 -0.39973776533E+02 -0.14779456640E+02 -0.82029251117E+01  0.43400727289E+02  0.00000000000E+00 0. -1.
         11    1    3    3    0    0  0.16295993704E+02 -0.55696457832E+00  0.89318131434E+01  0.18591581606E+02  0.51100000000E-03 0. -1.
        -11    1    3    3    0    0  0.13127442087E+02  0.12701436966E+02  0.33525763548E+00  0.18269335913E+02  0.51100000000E-03 0.  1.
        -12    1    3    3    0    0  0.10550340742E+02  0.26349842524E+01 -0.10641456672E+01  0.10926355192E+02  0.00000000000E+00 0.  1.
</event>
<event>
 7    1  0.5411321E-010  0.4778727E+02  0.7816164E-02  0.1312668E+00
        -11   -1    0    0    0    0  0.00000000000E+00  0.00000000000E+00  0.45593999997E+02  0.45594000000E+02  0.51100000000E-03 0. -1.
         11   -1    0    0    0    0 -0.00000000000E+00 -0.00000000000E+00 -0.45593999997E+02  0.45594000000E+02  0.51100000000E-03 0.  1.
    9900012    2    1    2    0    0 -0.59713993366E+01 -0.49627179583E+01 -0.42700552859E+02  0.47787269660E+02  0.19999993687E+02 0.  0.
         12    1    1    2    0    0  0.59713993366E+01  0.49627179583E+01  0.42700552859E+02  0.43400730340E+02  0.00000000000E+00 0. -1.
         11    1    3    3    0    0 -0.13162632522E+02 -0.30376263342E+01 -0.24412862342E+02  0.27901073754E+02  0.51100000000E-03 0. -1.
        -11    1    3    3    0    0  0.45168359546E+01 -0.23631343034E+01 -0.11638025252E+02  0.12705504429E+02  0.51100000000E-03 0.  1.
         12    1    3    3    0    0  0.26743972308E+01  0.43804267927E+00 -0.66496652657E+01  0.71806914766E+01  0.00000000000E+00 0. -1.
</event>
<event>
 7    1  0.5411321E-010  0.4778727E+02  0.7816164E-02  0.1312668E+00
        -11   -1    0    0    0    0  0.00000000000E+00  0.00000000000E+00  0.45593999997E+02  0.45594000000E+02  0.51100000000E-03 0. -1.
         11   -1    0    0    0    0 -0.00000000000E+00 -0.00000000000E+00 -0.45593999997E+02  0.45594000000E+02  0.51100000000E-03 0.  1.
    9900012    2    1    2    0    0 -0.13356087028E+02  0.11278390303E+02 -0.39724499990E+02  0.47787273647E+02  0.20000011864E+02 0.  0.
         12    1    1    2    0    0  0.13356087028E+02 -0.11278390303E+02  0.39724499990E+02  0.43400726353E+02  0.00000000000E+00 0. -1.
         11    1    3    3    0    0  0.19419036138E+00  0.10941146971E+01  0.25204600986E+00  0.11394403535E+01  0.51100000000E-03 0. -1.
        -11    1    3    3    0    0 -0.46247947242E+01 -0.26163573628E+01 -0.21559622813E+01  0.57343025478E+01  0.51100000000E-03 0.  1.
        -12    1    3    3    0    0 -0.89254826651E+01  0.12800632968E+02 -0.37820583719E+02  0.40913530745E+02  0.00000000000E+00 0.  1.
</event>
<event>
 7    1  0.5411321E-010  0.4778727E+02  0.7816164E-02  0.1312668E+00
        -11   -1    0    0    0    0  0.00000000000E+00  0.00000000000E+00  0.45593999997E+02  0.45594000000E+02  0.51100000000E-03 0. -1.
         11   -1    0    0    0    0 -0.00000000000E+00 -0.00000000000E+00 -0.45593999997E+02  0.45594000000E+02  0.51100000000E-03 0.  1.
    9900012    2    1    2    0    0 -0.83251535709E+01 -0.91455943189E+01 -0.41601359539E+02  0.47787271977E+02  0.20000004252E+02 0.  0.
         12    1    1    2    0    0  0.83251535709E+01  0.91455943189E+01  0.41601359539E+02  0.43400728023E+02  0.00000000000E+00 0. -1.
         11    1    3    3    0    0 -0.88439675617E+01 -0.20099321392E+00 -0.10059907754E+02  0.13396189935E+02  0.51100000000E-03 0. -1.
        -11    1    3    3    0    0  0.27384337634E+01 -0.97528596275E+01 -0.29747177480E+02  0.31424701409E+02  0.51100000000E-03 0.  1.
        -12    1    3    3    0    0 -0.22196197726E+01  0.80825852253E+00 -0.17942743057E+01  0.29663806327E+01  0.00000000000E+00 0.  1.
</event>
<event>
 7    1  0.5411321E-010  0.4778728E+02  0.7816164E-02  0.1312668E+00
        -11   -1    0    0    0    0  0.00000000000E+00  0.00000000000E+00  0.45593999997E+02  0.45594000000E+02  0.51100000000E-03 0.  1.
         11   -1    0    0    0    0 -0.00000000000E+00 -0.00000000000E+00 -0.45593999997E+02  0.45594000000E+02  0.51100000000E-03 0. -1.
    9900012    2    1    2    0    0 -0.21319345498E+02 -0.12403060744E+02  0.35710952623E+02  0.47787279435E+02  0.20000038258E+02 0.  0.
         12    1    1    2    0    0  0.21319345498E+02  0.12403060744E+02 -0.35710952623E+02  0.43400720565E+02  0.00000000000E+00 0. -1.
         11    1    3    3    0    0 -0.19346766079E+02 -0.34674764458E+01  0.19773323560E+02  0.27880191453E+02  0.51100000000E-03 0. -1.
        -11    1    3    3    0    0  0.10939794369E+01 -0.55299394764E+01  0.13685041337E+02  0.14800587092E+02  0.51100000000E-03 0.  1.
        -12    1    3    3    0    0 -0.30665588559E+01 -0.34056448222E+01  0.22525877259E+01  0.51065008896E+01  0.00000000000E+00 0.  1.
</event>
<event>
 7    1  0.5411321E-010  0.4778728E+02  0.7816164E-02  0.1312668E+00
        -11   -1    0    0    0    0  0.00000000000E+00  0.00000000000E+00  0.45593999997E+02  0.45594000000E+02  0.51100000000E-03 0. -1.
         11   -1    0    0    0    0 -0.00000000000E+00 -0.00000000000E+00 -0.45593999997E+02  0.45594000000E+02  0.51100000000E-03 0.  1.
    9900012    2    1    2    0    0 -0.18025373766E+02  0.36011812163E+02  0.16182031657E+02  0.47787275775E+02  0.20000021570E+02 0.  0.
         12    1    1    2    0    0  0.18025373766E+02 -0.36011812163E+02 -0.16182031657E+02  0.43400724225E+02  0.00000000000E+00 0. -1.
         11    1    3    3    0    0 -0.62055816624E+01  0.53586321774E+01  0.51791190704E+01  0.96978068236E+01  0.51100000000E-03 0. -1.
        -11    1    3    3    0    0 -0.28217521476E+01  0.16156533627E+02  0.12976199277E+02  0.20913574825E+02  0.51100000000E-03 0.  1.
        -12    1    3    3    0    0 -0.89980399560E+01  0.14496646358E+02 -0.19732866901E+01  0.17175894127E+02  0.00000000000E+00 0.  1.
</event>
<event>
 7    1  0.5411321E-010  0.4778727E+02  0.7816164E-02  0.1312668E+00
        -11   -1    0    0    0    0  0.00000000000E+00  0.00000000000E+00  0.45593999997E+02  0.45594000000E+02  0.51100000000E-03 0.  1.
         11   -1    0    0    0    0 -0.00000000000E+00 -0.00000000000E+00 -0.45593999997E+02  0.45594000000E+02  0.51100000000E-03 0. -1.
    9900012    2    1    2    0    0  0.10771047764E+02 -0.65561231153E+01  0.41528604715E+02  0.47787271552E+02  0.20000002315E+02 0.  0.
         12    1    1    2    0    0 -0.10771047764E+02  0.65561231153E+01 -0.41528604715E+02  0.43400728448E+02  0.00000000000E+00 0. -1.
         11    1    3    3    0    0 -0.44028996561E+01  0.19305647253E+00  0.71846884931E+01  0.84286739875E+01  0.51100000000E-03 0. -1.
        -11    1    3    3    0    0  0.32229755905E+01  0.12193512354E+01  0.14236726750E+02  0.14647825023E+02  0.51100000000E-03 0.  1.
         12    1    3    3    0    0  0.11950971829E+02 -0.79685308233E+01  0.20107189472E+02  0.24710772542E+02  0.00000000000E+00 0. -1.
</event>
<event>
 7    1  0.5411321E-010  0.4778728E+02  0.7816164E-02  0.1312668E+00
        -11   -1    0    0    0    0  0.00000000000E+00  0.00000000000E+00  0.45593999997E+02  0.45594000000E+02  0.51100000000E-03 0.  1.
         11   -1    0    0    0    0 -0.00000000000E+00 -0.00000000000E+00 -0.45593999997E+02  0.45594000000E+02  0.51100000000E-03 0. -1.
    9900012    2    1    2    0    0  0.12214014239E+02  0.28016613866E+02  0.30814121515E+02  0.47787275569E+02  0.20000020631E+02 0.  0.
         12    1    1    2    0    0 -0.12214014239E+02 -0.28016613866E+02 -0.30814121515E+02  0.43400724431E+02  0.00000000000E+00 0. -1.
         11    1    3    3    0    0 -0.18600806722E+01  0.40348769226E+01  0.25640793435E+01  0.51297792378E+01  0.51100000000E-03 0. -1.
        -11    1    3    3    0    0  0.60430319536E+01  0.16931520780E+01  0.68901545904E+00  0.63134571920E+01  0.51100000000E-03 0.  1.
        -12    1    3    3    0    0  0.80310629576E+01  0.22288584865E+02  0.27561026713E+02  0.36344039140E+02  0.00000000000E+00 0.  1.
</event>
<event>
 7    1  0.5411321E-010  0.4778731E+02  0.7816164E-02  0.1312668E+00
        -11   -1    0    0    0    0  0.00000000000E+00  0.00000000000E+00  0.45593999997E+02  0.45594000000E+02  0.51100000000E-03 0.  1.
         11   -1    0    0    0    0 -0.00000000000E+00 -0.00000000000E+00 -0.45593999997E+02  0.45594000000E+02  0.51100000000E-03 0. -1.
    9900012    2    1    2    0    0  0.79342502381E+01 -0.42389136530E+02 -0.48814378997E+01  0.47787312694E+02  0.20000189898E+02 0.  0.
         12    1    1    2    0    0 -0.79342502381E+01  0.42389136530E+02  0.48814378997E+01  0.43400687306E+02  0.00000000000E+00 0. -1.
         11    1    3    3    0    0  0.55154476692E+00  0.48703398352E+00 -0.11358924480E+01  0.13533867317E+01  0.51100000000E-03 0. -1.
        -11    1    3    3    0    0  0.10981534233E+02 -0.20346336951E+02 -0.47203636526E+01  0.23597655703E+02  0.51100000000E-03 0.  1.
        -12    1    3    3    0    0 -0.35988287617E+01 -0.22529833563E+02  0.97481820087E+00  0.22836270259E+02  0.00000000000E+00 0.  1.
</event>
<event>
 7    1  0.6275785E-010  0.4778727E+02  0.7816164E-02  0.1312668E+00
        -11   -1    0    0    0    0  0.00000000000E+00  0.00000000000E+00  0.45593999997E+02  0.45594000000E+02  0.51100000000E-03 0. -1.
         11   -1    0    0    0    0 -0.00000000000E+00 -0.00000000000E+00 -0.45593999997E+02  0.45594000000E+02  0.51100000000E-03 0.  1.
    9900012    2    1    2    0    0 -0.38278354595E+02  0.19908231462E+02  0.46960753484E+01  0.47787271503E+02  0.20000002089E+02 0.  0.
         12    1    1    2    0    0  0.38278354595E+02 -0.19908231462E+02 -0.46960753484E+01  0.43400728497E+02  0.00000000000E+00 0. -1.
         11    1    3    3    0    0 -0.34643218421E+01  0.15728384177E+01 -0.37992719865E+01  0.53767847644E+01  0.51100000000E-03 0. -1.
        -11    1    3    3    0    0 -0.30700185264E+02  0.10316095429E+02  0.51356824404E+01  0.32791743389E+02  0.51100000000E-03 0.  1.
        -12    1    3    3    0    0 -0.41138474889E+01  0.80192976154E+01  0.33596648946E+01  0.96187433488E+01  0.00000000000E+00 0.  1.
</event>
<event>
 7    1  0.5411321E-010  0.4778727E+02  0.7816164E-02  0.1312668E+00
        -11   -1    0    0    0    0  0.00000000000E+00  0.00000000000E+00  0.45593999997E+02  0.45594000000E+02  0.51100000000E-03 0.  1.
         11   -1    0    0    0    0 -0.00000000000E+00 -0.00000000000E+00 -0.45593999997E+02  0.45594000000E+02  0.51100000000E-03 0. -1.
    9900012    2    1    2    0    0  0.14058944766E+01  0.36833136596E+01  0.43221290628E+02  0.47787270716E+02  0.19999998503E+02 0.  0.
         12    1    1    2    0    0 -0.14058944766E+01 -0.36833136596E+01 -0.43221290628E+02  0.43400729284E+02  0.00000000000E+00 0. -1.
         11    1    3    3    0    0 -0.54121765843E+00  0.28880878335E+01  0.41692359644E+01  0.51006368892E+01  0.51100000000E-03 0. -1.
        -11    1    3    3    0    0 -0.67245095785E+00 -0.42622620559E+01  0.12988738123E+01  0.45062336341E+01  0.51100000000E-03 0.  1.
        -12    1    3    3    0    0  0.26195630929E+01  0.50574878820E+01  0.37753180852E+02  0.38180400193E+02  0.00000000000E+00 0.  1.
</event>
<event>
 7    1  0.5411321E-010  0.4778727E+02  0.7816164E-02  0.1312668E+00
        -11   -1    0    0    0    0  0.00000000000E+00  0.00000000000E+00  0.45593999997E+02  0.45594000000E+02  0.51100000000E-03 0. -1.
         11   -1    0    0    0    0 -0.00000000000E+00 -0.00000000000E+00 -0.45593999997E+02  0.45594000000E+02  0.51100000000E-03 0.  1.
    9900012    2    1    2    0    0 -0.30438384732E+02 -0.13156534219E+02 -0.28000598108E+02  0.47787272447E+02  0.20000006393E+02 0.  0.
         12    1    1    2    0    0  0.30438384732E+02  0.13156534219E+02  0.28000598108E+02  0.43400727553E+02  0.00000000000E+00 0. -1.
         11    1    3    3    0    0 -0.15734839285E+01 -0.80061970188E+01 -0.48660084228E+01  0.95001621359E+01  0.51100000000E-03 0. -1.
        -11    1    3    3    0    0 -0.20928548305E+02 -0.22502436912E+01 -0.11741007509E+02  0.24102261065E+02  0.51100000000E-03 0.  1.
        -12    1    3    3    0    0 -0.79363524987E+01 -0.29000935085E+01 -0.11393582176E+02  0.14184849246E+02  0.00000000000E+00 0.  1.
</event>
<event>
 7    1  0.5411321E-010  0.4778727E+02  0.7816164E-02  0.1312668E+00
        -11   -1    0    0    0    0  0.00000000000E+00  0.00000000000E+00  0.45593999997E+02  0.45594000000E+02  0.51100000000E-03 0. -1.
         11   -1    0    0    0    0 -0.00000000000E+00 -0.00000000000E+00 -0.45593999997E+02  0.45594000000E+02  0.51100000000E-03 0.  1.
    9900012    2    1    2    0    0 -0.15802818943E+02 -0.30859025100E+02  0.26107754595E+02  0.47787269976E+02  0.19999995128E+02 0.  0.
         12    1    1    2    0    0  0.15802818943E+02  0.30859025100E+02 -0.26107754595E+02  0.43400730024E+02  0.00000000000E+00 0. -1.
         11    1    3    3    0    0  0.30738057708E+01 -0.80296009095E+01  0.44363715717E+01  0.96749245819E+01  0.51100000000E-03 0. -1.
        -11    1    3    3    0    0 -0.10216729856E+02 -0.95914865586E+01  0.16091740983E+02  0.21338282768E+02  0.51100000000E-03 0.  1.
         12    1    3    3    0    0 -0.86598948571E+01 -0.13237937632E+02  0.55796420399E+01  0.16774062626E+02  0.00000000000E+00 0. -1.
</event>
<event>
 7    1  0.5411321E-010  0.4778727E+02  0.7816164E-02  0.1312668E+00
        -11   -1    0    0    0    0  0.00000000000E+00  0.00000000000E+00  0.45593999997E+02  0.45594000000E+02  0.51100000000E-03 0.  1.
         11   -1    0    0    0    0 -0.00000000000E+00 -0.00000000000E+00 -0.45593999997E+02  0.45594000000E+02  0.51100000000E-03 0. -1.
    9900012    2    1    2    0    0  0.37434386684E+02  0.17269815651E+02  0.13566262117E+02  0.47787270664E+02  0.19999998265E+02 0.  0.
         12    1    1    2    0    0 -0.37434386684E+02 -0.17269815651E+02 -0.13566262117E+02  0.43400729336E+02  0.00000000000E+00 0. -1.
         11    1    3    3    0    0  0.17514622087E+02  0.16907798312E+02  0.10854424700E+02  0.26654346108E+02  0.51100000000E-03 0.  1.
        -11    1    3    3    0    0  0.19156606520E+02 -0.45331602603E+00  0.38428112568E+01  0.19543496806E+02  0.51100000000E-03 0. -1.
        -12    1    3    3    0    0  0.76315807808E+00  0.81533336529E+00 -0.11309738399E+01  0.15894277508E+01  0.00000000000E+00 0.  1.
</event>
<event>
 7    1  0.5411321E-010  0.4778727E+02  0.7816164E-02  0.1312668E+00
        -11   -1    0    0    0    0  0.00000000000E+00  0.00000000000E+00  0.45593999997E+02  0.45594000000E+02  0.51100000000E-03 0. -1.
         11   -1    0    0    0    0 -0.00000000000E+00 -0.00000000000E+00 -0.45593999997E+02  0.45594000000E+02  0.51100000000E-03 0.  1.
    9900012    2    1    2    0    0  0.15498303523E+02  0.11266664816E+02  0.38942110606E+02  0.47787272741E+02  0.20000007733E+02 0.  0.
         12    1    1    2    0    0 -0.15498303523E+02 -0.11266664816E+02 -0.38942110606E+02  0.43400727259E+02  0.00000000000E+00 0. -1.
         11    1    3    3    0    0  0.44779969430E+00  0.78880352747E+01  0.49337241519E+01  0.93146797760E+01  0.51100000000E-03 0. -1.
        -11    1    3    3    0    0  0.10569593951E+02 -0.21163666016E+01  0.18313003135E+02  0.21249974305E+02  0.51100000000E-03 0.  1.
         12    1    3    3    0    0  0.44809098772E+01  0.54949961431E+01  0.15695383319E+02  0.17222618659E+02  0.00000000000E+00 0. -1.
</event>
<event>
 7    1  0.5411321E-010  0.4778727E+02  0.7816164E-02  0.1312668E+00
        -11   -1    0    0    0    0  0.00000000000E+00  0.00000000000E+00  0.45593999997E+02  0.45594000000E+02  0.51100000000E-03 0. -1.
         11   -1    0    0    0    0 -0.00000000000E+00 -0.00000000000E+00 -0.45593999997E+02  0.45594000000E+02  0.51100000000E-03 0.  1.
    9900012    2    1    2    0    0  0.73061077722E+01  0.15405086767E+02 -0.39911493502E+02  0.47787271635E+02  0.20000002693E+02 0.  0.
         12    1    1    2    0    0 -0.73061077722E+01 -0.15405086767E+02  0.39911493502E+02  0.43400728365E+02  0.00000000000E+00 0. -1.
         11    1    3    3    0    0 -0.31161928623E+01 -0.18298575557E+01 -0.81174490618E+01  0.88854947055E+01  0.51100000000E-03 0. -1.
        -11    1    3    3    0    0  0.11482388610E+02  0.12143975391E+02 -0.27394511619E+02  0.32090195599E+02  0.51100000000E-03 0.  1.
         12    1    3    3    0    0 -0.10600879754E+01  0.50909689320E+01 -0.43995328209E+01  0.68115813307E+01  0.00000000000E+00 0. -1.
</event>
<event>
 7    1  0.5411321E-010  0.4778727E+02  0.7816164E-02  0.1312668E+00
        -11   -1    0    0    0    0  0.00000000000E+00  0.00000000000E+00  0.45593999997E+02  0.45594000000E+02  0.51100000000E-03 0.  1.
         11   -1    0    0    0    0 -0.00000000000E+00 -0.00000000000E+00 -0.45593999997E+02  0.45594000000E+02  0.51100000000E-03 0. -1.
    9900012    2    1    2    0    0 -0.16955264918E+02 -0.23610430667E+02  0.32228712368E+02  0.47787270218E+02  0.19999996232E+02 0.  0.
         12    1    1    2    0    0  0.16955264918E+02  0.23610430667E+02 -0.32228712368E+02  0.43400729782E+02  0.00000000000E+00 0. -1.
         11    1    3    3    0    0  0.77603847275E+00 -0.41095951825E+00  0.26938866054E+01  0.28333987967E+01  0.51100000000E-03 0. -1.
        -11    1    3    3    0    0 -0.10169383822E+02 -0.23880121551E+02  0.25366714349E+02  0.36292516718E+02  0.51100000000E-03 0.  1.
        -12    1    3    3    0    0 -0.75619195692E+01  0.68065040224E+00  0.41681114130E+01  0.86613547031E+01  0.00000000000E+00 0.  1.
</event>
<event>
 7    1  0.5411321E-010  0.4778727E+02  0.7816164E-02  0.1312668E+00
        -11   -1    0    0    0    0  0.00000000000E+00  0.00000000000E+00  0.45593999997E+02  0.45594000000E+02  0.51100000000E-03 0. -1.
         11   -1    0    0    0    0 -0.00000000000E+00 -0.00000000000E+00 -0.45593999997E+02  0.45594000000E+02  0.51100000000E-03 0.  1.
    9900012    2    1    2    0    0 -0.39880061579E+02  0.15363093382E+02  0.75617133005E+01  0.47787268925E+02  0.19999990337E+02 0.  0.
         12    1    1    2    0    0  0.39880061579E+02 -0.15363093382E+02 -0.75617133005E+01  0.43400731075E+02  0.00000000000E+00 0. -1.
         11    1    3    3    0    0 -0.12343171804E+01  0.23927551986E+01  0.52780746736E+01  0.59251066541E+01  0.51100000000E-03 0. -1.
        -11    1    3    3    0    0 -0.11717658209E+02  0.99322761174E+00 -0.24518931618E+01  0.12012568224E+02  0.51100000000E-03 0.  1.
         12    1    3    3    0    0 -0.26928086189E+02  0.11977110571E+02  0.47355317887E+01  0.29849594047E+02  0.00000000000E+00 0. -1.
</event>
<event>
 7    1  0.5411321E-010  0.4778728E+02  0.7816164E-02  0.1312668E+00
        -11   -1    0    0    0    0  0.00000000000E+00  0.00000000000E+00  0.45593999997E+02  0.45594000000E+02  0.51100000000E-03 0.  1.
         11   -1    0    0    0    0 -0.00000000000E+00 -0.00000000000E+00 -0.45593999997E+02  0.45594000000E+02  0.51100000000E-03 0. -1.
    9900012    2    1    2    0    0 -0.37565594931E+02  0.36723316725E+01  0.21423415462E+02  0.47787277972E+02  0.20000031588E+02 0.  0.
         12    1    1    2    0    0  0.37565594931E+02 -0.36723316725E+01 -0.21423415462E+02  0.43400722028E+02  0.00000000000E+00 0. -1.
         11    1    3    3    0    0 -0.38080400623E+01 -0.15496990187E+01 -0.31964740411E+00  0.41237011153E+01  0.51100000000E-03 0. -1.
        -11    1    3    3    0    0 -0.13220670582E+02 -0.57153929413E+01  0.10484425105E+02  0.17815022233E+02  0.51100000000E-03 0.  1.
        -12    1    3    3    0    0 -0.20536884287E+02  0.10937423633E+02  0.11258637761E+02  0.25848554625E+02  0.00000000000E+00 0.  1.
</event>
<event>
 7    1  0.5411321E-010  0.4778727E+02  0.7816164E-02  0.1312668E+00
        -11   -1    0    0    0    0  0.00000000000E+00  0.00000000000E+00  0.45593999997E+02  0.45594000000E+02  0.51100000000E-03 0.  1.
         11   -1    0    0    0    0 -0.00000000000E+00 -0.00000000000E+00 -0.45593999997E+02  0.45594000000E+02  0.51100000000E-03 0. -1.
    9900012    2    1    2    0    0  0.32482587724E+02 -0.23270181210E+02  0.16941174320E+02  0.47787271594E+02  0.20000002508E+02 0.  0.
         12    1    1    2    0    0 -0.32482587724E+02  0.23270181210E+02 -0.16941174320E+02  0.43400728406E+02  0.00000000000E+00 0. -1.
         11    1    3    3    0    0  0.64363457178E+01 -0.54466463543E+01  0.10459329428E+02  0.13434659469E+02  0.51100000000E-03 0. -1.
        -11    1    3    3    0    0  0.27319879319E+02 -0.16804550825E+02  0.64751728465E+01  0.32721500548E+02  0.51100000000E-03 0.  1.
         12    1    3    3    0    0 -0.12736373134E+01 -0.10189840311E+01  0.66720455527E-02  0.16311115774E+01  0.00000000000E+00 0. -1.
</event>
<event>
 7    1  0.5411321E-010  0.4778727E+02  0.7816164E-02  0.1312668E+00
        -11   -1    0    0    0    0  0.00000000000E+00  0.00000000000E+00  0.45593999997E+02  0.45594000000E+02  0.51100000000E-03 0.  1.
         11   -1    0    0    0    0 -0.00000000000E+00 -0.00000000000E+00 -0.45593999997E+02  0.45594000000E+02  0.51100000000E-03 0. -1.
    9900012    2    1    2    0    0  0.38331929506E+02 -0.70806471871E+01  0.19082744703E+02  0.47787268098E+02  0.19999986566E+02 0.  0.
         12    1    1    2    0    0 -0.38331929506E+02  0.70806471871E+01 -0.19082744703E+02  0.43400731902E+02  0.00000000000E+00 0. -1.
         11    1    3    3    0    0  0.31512211573E+01  0.28838147506E+01  0.73259653169E+01  0.84803508409E+01  0.51100000000E-03 0. -1.
        -11    1    3    3    0    0  0.96203537414E+01 -0.44774836061E+01  0.70610545897E+01  0.12745883953E+02  0.51100000000E-03 0.  1.
         12    1    3    3    0    0  0.25560354607E+02 -0.54869783317E+01  0.46957247966E+01  0.26561033305E+02  0.00000000000E+00 0. -1.
</event>
<event>
 7    1  0.5411321E-010  0.4778727E+02  0.7816164E-02  0.1312668E+00
        -11   -1    0    0    0    0  0.00000000000E+00  0.00000000000E+00  0.45593999997E+02  0.45594000000E+02  0.51100000000E-03 0. -1.
         11   -1    0    0    0    0 -0.00000000000E+00 -0.00000000000E+00 -0.45593999997E+02  0.45594000000E+02  0.51100000000E-03 0.  1.
    9900012    2    1    2    0    0 -0.37653313697E+02  0.16409702773E+02  0.14020440603E+02  0.47787272677E+02  0.20000007443E+02 0.  0.
         12    1    1    2    0    0  0.37653313697E+02 -0.16409702773E+02 -0.14020440603E+02  0.43400727323E+02  0.00000000000E+00 0. -1.
         11    1    3    3    0    0 -0.11640331299E+02  0.16825485122E+01  0.10307445156E+02  0.15638788577E+02  0.51100000000E-03 0. -1.
        -11    1    3    3    0    0 -0.14356060371E+02  0.42695423103E+01 -0.27126319359E+01  0.15221163990E+02  0.51100000000E-03 0.  1.
         12    1    3    3    0    0 -0.11656922027E+02  0.10457611950E+02  0.64256273831E+01  0.16927320110E+02  0.00000000000E+00 0. -1.
</event>
<event>
 7    1  0.5411321E-010  0.4778727E+02  0.7816164E-02  0.1312668E+00
        -11   -1    0    0    0    0  0.00000000000E+00  0.00000000000E+00  0.45593999997E+02  0.45594000000E+02  0.51100000000E-03 0.  1.
         11   -1    0    0    0    0 -0.00000000000E+00 -0.00000000000E+00 -0.45593999997E+02  0.45594000000E+02  0.51100000000E-03 0. -1.
    9900012    2    1    2    0    0 -0.82461718024E+01 -0.28293594803E+02  0.31860580274E+02  0.47787269226E+02  0.19999991711E+02 0.  0.
         12    1    1    2    0    0  0.82461718024E+01  0.28293594803E+02 -0.31860580274E+02  0.43400730774E+02  0.00000000000E+00 0. -1.
         11    1    3    3    0    0  0.37456295593E+01 -0.11429581671E+02  0.11258201179E+02  0.16474591710E+02  0.51100000000E-03 0. -1.
        -11    1    3    3    0    0 -0.67862107635E+01 -0.13112314477E+01  0.83561794585E+01  0.10844248238E+02  0.51100000000E-03 0.  1.
         12    1    3    3    0    0 -0.52055905981E+01 -0.15552781684E+02  0.12246199637E+02  0.20468429279E+02  0.00000000000E+00 0. -1.
</event>
<event>
 7    1  0.5411321E-010  0.4778733E+02  0.7816164E-02  0.1312668E+00
        -11   -1    0    0    0    0  0.00000000000E+00  0.00000000000E+00  0.45593999997E+02  0.45594000000E+02  0.51100000000E-03 0.  1.
         11   -1    0    0    0    0 -0.00000000000E+00 -0.00000000000E+00 -0.45593999997E+02  0.45594000000E+02  0.51100000000E-03 0. -1.
    9900012    2    1    2    0    0  0.37329345418E+02  0.12430302361E+02  0.18320101164E+02  0.47787325434E+02  0.20000247983E+02 0.  0.
         12    1    1    2    0    0 -0.37329345418E+02 -0.12430302361E+02 -0.18320101164E+02  0.43400674566E+02  0.00000000000E+00 0. -1.
         11    1    3    3    0    0  0.66147434598E+01  0.65763197471E+01  0.12070161415E+02  0.15254232505E+02  0.51100000000E-03 0. -1.
        -11    1    3    3    0    0  0.18987771570E+02  0.46229123851E+00  0.30663054836E+01  0.19239319426E+02  0.51100000000E-03 0.  1.
        -12    1    3    3    0    0  0.11726830388E+02  0.53916913754E+01  0.31836342656E+01  0.13293773504E+02  0.00000000000E+00 0.  1.
</event>
<event>
 7    1  0.5411321E-010  0.4778727E+02  0.7816164E-02  0.1312668E+00
        -11   -1    0    0    0    0  0.00000000000E+00  0.00000000000E+00  0.45593999997E+02  0.45594000000E+02  0.51100000000E-03 0.  1.
         11   -1    0    0    0    0 -0.00000000000E+00 -0.00000000000E+00 -0.45593999997E+02  0.45594000000E+02  0.51100000000E-03 0. -1.
    9900012    2    1    2    0    0 -0.27652665524E+02  0.30775413220E+02 -0.13108296344E+02  0.47787269563E+02  0.19999993246E+02 0.  0.
         12    1    1    2    0    0  0.27652665524E+02 -0.30775413220E+02  0.13108296344E+02  0.43400730437E+02  0.00000000000E+00 0. -1.
         11    1    3    3    0    0  0.15538289961E+01  0.28408269798E+01  0.36177070423E+00  0.32581529709E+01  0.51100000000E-03 0. -1.
        -11    1    3    3    0    0 -0.21250998580E+02  0.25966727804E+02 -0.74789473217E+01  0.34377471501E+02  0.51100000000E-03 0.  1.
        -12    1    3    3    0    0 -0.79554959403E+01  0.19678584356E+01 -0.59911197269E+01  0.10151645091E+02  0.00000000000E+00 0.  1.
</event>
<event>
 7    1  0.5411321E-010  0.4778727E+02  0.7816164E-02  0.1312668E+00
        -11   -1    0    0    0    0  0.00000000000E+00  0.00000000000E+00  0.45593999997E+02  0.45594000000E+02  0.51100000000E-03 0. -1.
         11   -1    0    0    0    0 -0.00000000000E+00 -0.00000000000E+00 -0.45593999997E+02  0.45594000000E+02  0.51100000000E-03 0.  1.
    9900012    2    1    2    0    0 -0.42921866271E+02  0.43232342109E+01  0.47587969551E+01  0.47787272970E+02  0.20000008780E+02 0.  0.
         12    1    1    2    0    0  0.42921866271E+02 -0.43232342109E+01 -0.47587969551E+01  0.43400727030E+02  0.00000000000E+00 0. -1.
         11    1    3    3    0    0  0.14580933598E+01 -0.21502189979E+00 -0.51807670788E-02  0.14738716921E+01  0.51100000000E-03 0. -1.
        -11    1    3    3    0    0 -0.30090458604E+02  0.80800344462E+01  0.51879924511E+01  0.31585406782E+02  0.51100000000E-03 0.  1.
         12    1    3    3    0    0 -0.14289501027E+02 -0.35417783355E+01 -0.42401472886E+00  0.14727994496E+02  0.00000000000E+00 0. -1.
</event>
<event>
 7    1  0.5411321E-010  0.4778727E+02  0.7816164E-02  0.1312668E+00
        -11   -1    0    0    0    0  0.00000000000E+00  0.00000000000E+00  0.45593999997E+02  0.45594000000E+02  0.51100000000E-03 0. -1.
         11   -1    0    0    0    0 -0.00000000000E+00 -0.00000000000E+00 -0.45593999997E+02  0.45594000000E+02  0.51100000000E-03 0.  1.
    9900012    2    1    2    0    0 -0.70809820964E+01  0.15115198019E+02 -0.40062619398E+02  0.47787274296E+02  0.20000014826E+02 0.  0.
         12    1    1    2    0    0  0.70809820964E+01 -0.15115198019E+02  0.40062619398E+02  0.43400725704E+02  0.00000000000E+00 0. -1.
         11    1    3    3    0    0  0.14133017774E+01  0.40583450139E+01 -0.33421329939E+01  0.54440278633E+01  0.51100000000E-03 0. -1.
        -11    1    3    3    0    0 -0.62986982172E+01  0.12727014080E+02 -0.15807815022E+02  0.21249411819E+02  0.51100000000E-03 0.  1.
        -12    1    3    3    0    0 -0.21955856566E+01 -0.16701610749E+01 -0.20912671382E+02  0.21093834614E+02  0.00000000000E+00 0.  1.
</event>
<event>
 7    1  0.5411321E-010  0.4778727E+02  0.7816164E-02  0.1312668E+00
        -11   -1    0    0    0    0  0.00000000000E+00  0.00000000000E+00  0.45593999997E+02  0.45594000000E+02  0.51100000000E-03 0.  1.
         11   -1    0    0    0    0 -0.00000000000E+00 -0.00000000000E+00 -0.45593999997E+02  0.45594000000E+02  0.51100000000E-03 0. -1.
    9900012    2    1    2    0    0 -0.12930868338E+02  0.38047365399E+02  0.16395549900E+02  0.47787269288E+02  0.19999991992E+02 0.  0.
         12    1    1    2    0    0  0.12930868338E+02 -0.38047365399E+02 -0.16395549900E+02  0.43400730712E+02  0.00000000000E+00 0. -1.
         11    1    3    3    0    0  0.37772063957E+01  0.49860576310E+01 -0.27670915177E+00  0.62613598420E+01  0.51100000000E-03 0. -1.
        -11    1    3    3    0    0 -0.12923305470E+02  0.26274254623E+02  0.16792333197E+02  0.33753973613E+02  0.51100000000E-03 0.  1.
         12    1    3    3    0    0 -0.37847692638E+01  0.67870531458E+01 -0.12007414507E+00  0.77719358325E+01  0.00000000000E+00 0. -1.
</event>
<event>
 7    1  0.5411321E-010  0.4778726E+02  0.7816164E-02  0.1312668E+00
        -11   -1    0    0    0    0  0.00000000000E+00  0.00000000000E+00  0.45593999997E+02  0.45594000000E+02  0.51100000000E-03 0.  1.
         11   -1    0    0    0    0 -0.00000000000E+00 -0.00000000000E+00 -0.45593999997E+02  0.45594000000E+02  0.51100000000E-03 0. -1.
    9900012    2    1    2    0    0  0.57605714377E+01  0.31537895978E+02  0.29254074291E+02  0.47787263501E+02  0.19999965609E+02 0.  0.
         12    1    1    2    0    0 -0.57605714377E+01 -0.31537895978E+02 -0.29254074291E+02  0.43400736499E+02  0.00000000000E+00 0. -1.
         11    1    3    3    0    0  0.87421488632E+01  0.27626055560E+02  0.15809750221E+02  0.33008670299E+02  0.51100000000E-03 0. -1.
        -11    1    3    3    0    0 -0.53894429459E+00  0.34809031953E+01  0.93510522601E+01  0.99924634920E+01  0.51100000000E-03 0.  1.
         12    1    3    3    0    0 -0.24426331309E+01  0.43093722221E+00  0.40932718093E+01  0.47861297106E+01  0.00000000000E+00 0. -1.
</event>
<event>
 7    1  0.5411321E-010  0.4778727E+02  0.7816164E-02  0.1312668E+00
        -11   -1    0    0    0    0  0.00000000000E+00  0.00000000000E+00  0.45593999997E+02  0.45594000000E+02  0.51100000000E-03 0. -1.
         11   -1    0    0    0    0 -0.00000000000E+00 -0.00000000000E+00 -0.45593999997E+02  0.45594000000E+02  0.51100000000E-03 0.  1.
    9900012    2    1    2    0    0 -0.14145402451E+02 -0.31983774710E+02 -0.25701538136E+02  0.47787270539E+02  0.19999997696E+02 0.  0.
         12    1    1    2    0    0  0.14145402451E+02  0.31983774710E+02  0.25701538136E+02  0.43400729461E+02  0.00000000000E+00 0. -1.
         11    1    3    3    0    0 -0.28768465524E+01 -0.22780806898E+02 -0.77652662839E+01  0.24239240288E+02  0.51100000000E-03 0. -1.
        -11    1    3    3    0    0 -0.61721062990E+01 -0.33090942886E+01 -0.56446577730E+01  0.89948408998E+01  0.51100000000E-03 0.  1.
         12    1    3    3    0    0 -0.50964495999E+01 -0.58938735233E+01 -0.12291614079E+02  0.14553189352E+02  0.00000000000E+00 0. -1.
</event>
<event>
 7    1  0.5411321E-010  0.4778727E+02  0.7816164E-02  0.1312668E+00
        -11   -1    0    0    0    0  0.00000000000E+00  0.00000000000E+00  0.45593999997E+02  0.45594000000E+02  0.51100000000E-03 0.  1.
         11   -1    0    0    0    0 -0.00000000000E+00 -0.00000000000E+00 -0.45593999997E+02  0.45594000000E+02  0.51100000000E-03 0. -1.
    9900012    2    1    2    0    0  0.12741989670E+02 -0.29687566799E+02  0.28981258753E+02  0.47787270949E+02  0.19999999567E+02 0.  0.
         12    1    1    2    0    0 -0.12741989670E+02  0.29687566799E+02 -0.28981258753E+02  0.43400729051E+02  0.00000000000E+00 0. -1.
         11    1    3    3    0    0  0.12197715239E+01  0.77728161128E-01 -0.19530694933E+01  0.23039889202E+01  0.51100000000E-03 0. -1.
        -11    1    3    3    0    0  0.11764023009E+02 -0.19125105398E+02  0.23489629948E+02  0.32494993602E+02  0.51100000000E-03 0.  1.
         12    1    3    3    0    0 -0.24180486304E+00 -0.10640189563E+02  0.74446982983E+01  0.12988288427E+02  0.00000000000E+00 0. -1.
</event>
<event>
 7    1  0.5411321E-010  0.4778727E+02  0.7816164E-02  0.1312668E+00
        -11   -1    0    0    0    0  0.00000000000E+00  0.00000000000E+00  0.45593999997E+02  0.45594000000E+02  0.51100000000E-03 0.  1.
         11   -1    0    0    0    0 -0.00000000000E+00 -0.00000000000E+00 -0.45593999997E+02  0.45594000000E+02  0.51100000000E-03 0. -1.
    9900012    2    1    2    0    0  0.58589953061E+01 -0.17931705723E+02  0.39086435427E+02  0.47787270392E+02  0.19999997023E+02 0.  0.
         12    1    1    2    0    0 -0.58589953061E+01  0.17931705723E+02 -0.39086435427E+02  0.43400729608E+02  0.00000000000E+00 0. -1.
         11    1    3    3    0    0  0.37317343088E+01 -0.72946200930E+01  0.28223907279E+01  0.86662109906E+01  0.51100000000E-03 0. -1.
        -11    1    3    3    0    0  0.89135546607E+00 -0.12429123137E+02  0.29805016700E+02  0.32305055909E+02  0.51100000000E-03 0.  1.
         12    1    3    3    0    0  0.12359055312E+01  0.17920375070E+01  0.64590279988E+01  0.68160034917E+01  0.00000000000E+00 0. -1.
</event>
<event>
 7    1  0.5411321E-010  0.4778727E+02  0.7816164E-02  0.1312668E+00
        -11   -1    0    0    0    0  0.00000000000E+00  0.00000000000E+00  0.45593999997E+02  0.45594000000E+02  0.51100000000E-03 0.  1.
         11   -1    0    0    0    0 -0.00000000000E+00 -0.00000000000E+00 -0.45593999997E+02  0.45594000000E+02  0.51100000000E-03 0. -1.
    9900012    2    1    2    0    0  0.33788119382E+02 -0.26067743855E+02 -0.79030976931E+01  0.47787271502E+02  0.20000002084E+02 0.  0.
         12    1    1    2    0    0 -0.33788119382E+02  0.26067743855E+02  0.79030976931E+01  0.43400728498E+02  0.00000000000E+00 0. -1.
         11    1    3    3    0    0  0.54476195912E+01  0.17261976854E+01  0.19128628191E+01  0.60262228706E+01  0.51100000000E-03 0. -1.
        -11    1    3    3    0    0  0.21090108665E+02 -0.16738211851E+02 -0.36449461005E+01  0.27170683683E+02  0.51100000000E-03 0.  1.
         12    1    3    3    0    0  0.72503911253E+01 -0.11055729690E+02 -0.61710144116E+01  0.14590364948E+02  0.00000000000E+00 0. -1.
</event>
<event>
 7    1  0.5411321E-010  0.4778728E+02  0.7816164E-02  0.1312668E+00
        -11   -1    0    0    0    0  0.00000000000E+00  0.00000000000E+00  0.45593999997E+02  0.45594000000E+02  0.51100000000E-03 0.  1.
         11   -1    0    0    0    0 -0.00000000000E+00 -0.00000000000E+00 -0.45593999997E+02  0.45594000000E+02  0.51100000000E-03 0. -1.
    9900012    2    1    2    0    0 -0.24848419868E+02  0.23458733932E+02  0.26755683256E+02  0.47787277032E+02  0.20000027299E+02 0.  0.
         12    1    1    2    0    0  0.24848419868E+02 -0.23458733932E+02 -0.26755683256E+02  0.43400722968E+02  0.00000000000E+00 0. -1.
         11    1    3    3    0    0 -0.10941499035E+02  0.26161505996E+00  0.10729810420E+02  0.15326893863E+02  0.51100000000E-03 0. -1.
        -11    1    3    3    0    0 -0.57854019016E+01  0.12967327989E+02  0.12533988532E+02  0.18939993113E+02  0.51100000000E-03 0.  1.
         12    1    3    3    0    0 -0.81215189322E+01  0.10229790883E+02  0.34918843039E+01  0.13520390056E+02  0.00000000000E+00 0. -1.
</event>
<event>
 7    1  0.5411321E-010  0.4778727E+02  0.7816164E-02  0.1312668E+00
        -11   -1    0    0    0    0  0.00000000000E+00  0.00000000000E+00  0.45593999997E+02  0.45594000000E+02  0.51100000000E-03 0.  1.
         11   -1    0    0    0    0 -0.00000000000E+00 -0.00000000000E+00 -0.45593999997E+02  0.45594000000E+02  0.51100000000E-03 0. -1.
    9900012    2    1    2    0    0 -0.88239598333E+01  0.27788851081E+01  0.42403292680E+02  0.47787266139E+02  0.19999977634E+02 0.  0.
         12    1    1    2    0    0  0.88239598333E+01 -0.27788851081E+01 -0.42403292680E+02  0.43400733861E+02  0.00000000000E+00 0. -1.
         11    1    3    3    0    0 -0.79665802538E+01  0.10246984930E+02  0.25575309050E+02  0.28680368449E+02  0.51100000000E-03 0. -1.
        -11    1    3    3    0    0  0.65721131733E+00  0.42967130554E+00  0.30911362659E+01  0.31893052256E+01  0.51100000000E-03 0.  1.
         12    1    3    3    0    0 -0.15145908968E+01 -0.78977711276E+01  0.13736847364E+02  0.15917592465E+02  0.00000000000E+00 0. -1.
</event>
<event>
 7    1  0.5411321E-010  0.4778727E+02  0.7816164E-02  0.1312668E+00
        -11   -1    0    0    0    0  0.00000000000E+00  0.00000000000E+00  0.45593999997E+02  0.45594000000E+02  0.51100000000E-03 0.  1.
         11   -1    0    0    0    0 -0.00000000000E+00 -0.00000000000E+00 -0.45593999997E+02  0.45594000000E+02  0.51100000000E-03 0. -1.
    9900012    2    1    2    0    0  0.19848281329E+02 -0.19294383320E+02  0.33427471980E+02  0.47787269795E+02  0.19999994301E+02 0.  0.
         12    1    1    2    0    0 -0.19848281329E+02  0.19294383320E+02 -0.33427471980E+02  0.43400730205E+02  0.00000000000E+00 0. -1.
         11    1    3    3    0    0  0.18779472605E+01 -0.11417244647E+01  0.58280741728E+00  0.22737382024E+01  0.51100000000E-03 0. -1.
        -11    1    3    3    0    0 -0.79350794869E+00 -0.32029984113E+01 -0.14955421024E+01  0.36229132102E+01  0.51100000000E-03 0.  1.
        -12    1    3    3    0    0  0.18763842018E+02 -0.14949660444E+02  0.34340206665E+02  0.41890618382E+02  0.00000000000E+00 0.  1.
</event>
<event>
 7    1  0.5411321E-010  0.4778727E+02  0.7816164E-02  0.1312668E+00
        -11   -1    0    0    0    0  0.00000000000E+00  0.00000000000E+00  0.45593999997E+02  0.45594000000E+02  0.51100000000E-03 0. -1.
         11   -1    0    0    0    0 -0.00000000000E+00 -0.00000000000E+00 -0.45593999997E+02  0.45594000000E+02  0.51100000000E-03 0.  1.
    9900012    2    1    2    0    0 -0.30674851217E+02  0.18249312586E+02 -0.24690876511E+02  0.47787270860E+02  0.19999999157E+02 0.  0.
         12    1    1    2    0    0  0.30674851217E+02 -0.18249312586E+02  0.24690876511E+02  0.43400729140E+02  0.00000000000E+00 0. -1.
         11    1    3    3    0    0 -0.85759495026E+01  0.14271152996E+02 -0.82731188250E+01  0.18591858785E+02  0.51100000000E-03 0. -1.
        -11    1    3    3    0    0 -0.83099093199E+01 -0.19936427145E+01 -0.30207829975E+01  0.90639028215E+01  0.51100000000E-03 0.  1.
        -12    1    3    3    0    0 -0.13788992394E+02  0.59718023042E+01 -0.13396974689E+02  0.20131509253E+02  0.00000000000E+00 0.  1.
</event>
<event>
 7    1  0.5411321E-010  0.4778727E+02  0.7816164E-02  0.1312668E+00
        -11   -1    0    0    0    0  0.00000000000E+00  0.00000000000E+00  0.45593999997E+02  0.45594000000E+02  0.51100000000E-03 0.  1.
         11   -1    0    0    0    0 -0.00000000000E+00 -0.00000000000E+00 -0.45593999997E+02  0.45594000000E+02  0.51100000000E-03 0. -1.
    9900012    2    1    2    0    0 -0.24276351347E+02 -0.19506946854E+01  0.35923206634E+02  0.47787271673E+02  0.20000002864E+02 0.  0.
         12    1    1    2    0    0  0.24276351347E+02  0.19506946854E+01 -0.35923206634E+02  0.43400728327E+02  0.00000000000E+00 0. -1.
         11    1    3    3    0    0 -0.60090018915E+01 -0.12265067816E+01 -0.24873313122E+00  0.61379386644E+01  0.51100000000E-03 0. -1.
        -11    1    3    3    0    0 -0.14688526313E+02 -0.44775628351E+01  0.28767119225E+02  0.32609025176E+02  0.51100000000E-03 0.  1.
        -12    1    3    3    0    0 -0.35788231426E+01  0.37533749313E+01  0.74048205407E+01  0.90403078322E+01  0.00000000000E+00 0.  1.
</event>
<event>
 7    1  0.5411321E-010  0.4778726E+02  0.7816164E-02  0.1312668E+00
        -11   -1    0    0    0    0  0.00000000000E+00  0.00000000000E+00  0.45593999997E+02  0.45594000000E+02  0.51100000000E-03 0. -1.
         11   -1    0    0    0    0 -0.00000000000E+00 -0.00000000000E+00 -0.45593999997E+02  0.45594000000E+02  0.51100000000E-03 0.  1.
    9900012    2    1    2    0    0  0.40667264370E+02 -0.15128656052E+02  0.95988222736E+00  0.47787262689E+02  0.19999961903E+02 0.  0.
         12    1    1    2    0    0 -0.40667264370E+02  0.15128656052E+02 -0.95988222736E+00  0.43400737311E+02  0.00000000000E+00 0. -1.
         11    1    3    3    0    0  0.15864425425E+02 -0.68367140994E+01 -0.77965534070E+01  0.18952754391E+02  0.51100000000E-03 0. -1.
        -11    1    3    3    0    0  0.20336726515E+02 -0.10024402640E+02  0.69426755490E+01  0.23712271879E+02  0.51100000000E-03 0.  1.
         12    1    3    3    0    0  0.44661124305E+01  0.17324606879E+01  0.18137600854E+01  0.51222364182E+01  0.00000000000E+00 0. -1.
</event>
<event>
 7    1  0.5411321E-010  0.4778730E+02  0.7816164E-02  0.1312668E+00
        -11   -1    0    0    0    0  0.00000000000E+00  0.00000000000E+00  0.45593999997E+02  0.45594000000E+02  0.51100000000E-03 0. -1.
         11   -1    0    0    0    0 -0.00000000000E+00 -0.00000000000E+00 -0.45593999997E+02  0.45594000000E+02  0.51100000000E-03 0.  1.
    9900012    2    1    2    0    0 -0.22912858458E+02 -0.35260116180E+02 -0.10739935258E+02  0.47787296260E+02  0.20000114969E+02 0.  0.
         12    1    1    2    0    0  0.22912858458E+02  0.35260116180E+02  0.10739935258E+02  0.43400703740E+02  0.00000000000E+00 0. -1.
         11    1    3    3    0    0 -0.15956749599E+02 -0.29381175080E+02 -0.10766131124E+02  0.35125217245E+02  0.51100000000E-03 0.  1.
        -11    1    3    3    0    0 -0.45630490904E+01  0.77187039115E+00 -0.23690775930E+01  0.51990123874E+01  0.51100000000E-03 0. -1.
         12    1    3    3    0    0 -0.23930597684E+01 -0.66508114910E+01  0.23952734596E+01  0.74630666277E+01  0.00000000000E+00 0. -1.
</event>
<event>
 7    1  0.5411321E-010  0.4778727E+02  0.7816164E-02  0.1312668E+00
        -11   -1    0    0    0    0  0.00000000000E+00  0.00000000000E+00  0.45593999997E+02  0.45594000000E+02  0.51100000000E-03 0. -1.
         11   -1    0    0    0    0 -0.00000000000E+00 -0.00000000000E+00 -0.45593999997E+02  0.45594000000E+02  0.51100000000E-03 0.  1.
    9900012    2    1    2    0    0  0.35846493599E+02  0.15535134800E+02 -0.18902695024E+02  0.47787269640E+02  0.19999993596E+02 0.  0.
         12    1    1    2    0    0 -0.35846493599E+02 -0.15535134800E+02  0.18902695024E+02  0.43400730360E+02  0.00000000000E+00 0. -1.
         11    1    3    3    0    0  0.37961595036E+00  0.87804664531E+00  0.29593562008E+01  0.31101227573E+01  0.51100000000E-03 0. -1.
        -11    1    3    3    0    0  0.22834874693E+02  0.12776564326E+02 -0.13930332110E+02  0.29643317142E+02  0.51100000000E-03 0.  1.
         12    1    3    3    0    0  0.12632002956E+02  0.18805238289E+01 -0.79317191156E+01  0.15033829741E+02  0.00000000000E+00 0. -1.
</event>
<event>
 7    1  0.5411321E-010  0.4778729E+02  0.7816164E-02  0.1312668E+00
        -11   -1    0    0    0    0  0.00000000000E+00  0.00000000000E+00  0.45593999997E+02  0.45594000000E+02  0.51100000000E-03 0.  1.
         11   -1    0    0    0    0 -0.00000000000E+00 -0.00000000000E+00 -0.45593999997E+02  0.45594000000E+02  0.51100000000E-03 0. -1.
    9900012    2    1    2    0    0 -0.59827952357E+01  0.22552650723E+02  0.36595162147E+02  0.47787288185E+02  0.20000078152E+02 0.  0.
         12    1    1    2    0    0  0.59827952357E+01 -0.22552650723E+02 -0.36595162147E+02  0.43400711815E+02  0.00000000000E+00 0. -1.
         11    1    3    3    0    0 -0.16110144244E+01  0.16782843231E+02  0.11392637197E+02  0.20348252430E+02  0.51100000000E-03 0. -1.
        -11    1    3    3    0    0 -0.45030154701E+01  0.63787665250E+01  0.25556424791E+02  0.26722587058E+02  0.51100000000E-03 0.  1.
         12    1    3    3    0    0  0.13123465880E+00 -0.60895903245E+00 -0.35389984118E+00  0.71644869772E+00  0.00000000000E+00 0. -1.
</event>
<event>
 7    1  0.5411321E-010  0.4778727E+02  0.7816164E-02  0.1312668E+00
        -11   -1    0    0    0    0  0.00000000000E+00  0.00000000000E+00  0.45593999997E+02  0.45594000000E+02  0.51100000000E-03 0.  1.
         11   -1    0    0    0    0 -0.00000000000E+00 -0.00000000000E+00 -0.45593999997E+02  0.45594000000E+02  0.51100000000E-03 0. -1.
    9900012    2    1    2    0    0  0.29532145723E+02  0.10585668239E+02  0.29990321475E+02  0.47787269761E+02  0.19999994150E+02 0.  0.
         12    1    1    2    0    0 -0.29532145723E+02 -0.10585668239E+02 -0.29990321475E+02  0.43400730239E+02  0.00000000000E+00 0. -1.
         11    1    3    3    0    0  0.47643626825E+01  0.47364733447E+01  0.14427876118E+01  0.68713148574E+01  0.51100000000E-03 0. -1.
        -11    1    3    3    0    0  0.17261345765E+02  0.22715973077E+01  0.27481860312E+02  0.32532550752E+02  0.51100000000E-03 0.  1.
        -12    1    3    3    0    0  0.75064372759E+01  0.35775975862E+01  0.10656735512E+01  0.83834041525E+01  0.00000000000E+00 0.  1.
</event>
<event>
 7    1  0.5411321E-010  0.4778728E+02  0.7816164E-02  0.1312668E+00
        -11   -1    0    0    0    0  0.00000000000E+00  0.00000000000E+00  0.45593999997E+02  0.45594000000E+02  0.51100000000E-03 0.  1.
         11   -1    0    0    0    0 -0.00000000000E+00 -0.00000000000E+00 -0.45593999997E+02  0.45594000000E+02  0.51100000000E-03 0. -1.
    9900012    2    1    2    0    0  0.36016662811E+02 -0.58304993002E+01  0.23503773438E+02  0.47787284707E+02  0.20000062291E+02 0.  0.
         12    1    1    2    0    0 -0.36016662811E+02  0.58304993002E+01 -0.23503773438E+02  0.43400715293E+02  0.00000000000E+00 0. -1.
         11    1    3    3    0    0  0.79340836935E+01 -0.47195000526E+01 -0.50957356716E+00  0.92457033418E+01  0.51100000000E-03 0. -1.
        -11    1    3    3    0    0  0.20383229634E+02 -0.39018721636E+01  0.21711198937E+02  0.30034593659E+02  0.51100000000E-03 0.  1.
        -12    1    3    3    0    0  0.76993494836E+01  0.27908729160E+01  0.23021480679E+01  0.85069877060E+01  0.00000000000E+00 0.  1.
</event>
<event>
 7    1  0.5411321E-010  0.4778727E+02  0.7816164E-02  0.1312668E+00
        -11   -1    0    0    0    0  0.00000000000E+00  0.00000000000E+00  0.45593999997E+02  0.45594000000E+02  0.51100000000E-03 0.  1.
         11   -1    0    0    0    0 -0.00000000000E+00 -0.00000000000E+00 -0.45593999997E+02  0.45594000000E+02  0.51100000000E-03 0. -1.
    9900012    2    1    2    0    0 -0.33007619032E+02 -0.46109111066E+01  0.27800359210E+02  0.47787269735E+02  0.19999994028E+02 0.  0.
         12    1    1    2    0    0  0.33007619032E+02  0.46109111066E+01 -0.27800359210E+02  0.43400730265E+02  0.00000000000E+00 0. -1.
         11    1    3    3    0    0 -0.26075887187E+01  0.34148901016E+01 -0.95388815955E+00  0.44012380320E+01  0.51100000000E-03 0. -1.
        -11    1    3    3    0    0 -0.26960930695E+02 -0.78414427002E+01  0.28378739014E+02  0.39921583583E+02  0.51100000000E-03 0.  1.
         12    1    3    3    0    0 -0.34390996185E+01 -0.18435850800E+00  0.37550835569E+00  0.34644481192E+01  0.00000000000E+00 0. -1.
</event>
<event>
 7    1  0.5411321E-010  0.4778727E+02  0.7816164E-02  0.1312668E+00
        -11   -1    0    0    0    0  0.00000000000E+00  0.00000000000E+00  0.45593999997E+02  0.45594000000E+02  0.51100000000E-03 0. -1.
         11   -1    0    0    0    0 -0.00000000000E+00 -0.00000000000E+00 -0.45593999997E+02  0.45594000000E+02  0.51100000000E-03 0.  1.
    9900012    2    1    2    0    0  0.14654635206E+01  0.71906923248E+01 -0.42775805579E+02  0.47787272098E+02  0.20000004804E+02 0.  0.
         12    1    1    2    0    0 -0.14654635206E+01 -0.71906923248E+01  0.42775805579E+02  0.43400727902E+02  0.00000000000E+00 0. -1.
         11    1    3    3    0    0  0.65241096196E+01 -0.33523841450E+01 -0.19154011449E+02  0.20510451986E+02  0.51100000000E-03 0. -1.
        -11    1    3    3    0    0 -0.22499448435E+01  0.88978783550E+01 -0.21537815019E+02  0.23411791198E+02  0.51100000000E-03 0.  1.
        -12    1    3    3    0    0 -0.28087012555E+01  0.16451981148E+01 -0.20839791107E+01  0.38650289150E+01  0.00000000000E+00 0.  1.
</event>
<event>
 7    1  0.5411321E-010  0.4778728E+02  0.7816164E-02  0.1312668E+00
        -11   -1    0    0    0    0  0.00000000000E+00  0.00000000000E+00  0.45593999997E+02  0.45594000000E+02  0.51100000000E-03 0. -1.
         11   -1    0    0    0    0 -0.00000000000E+00 -0.00000000000E+00 -0.45593999997E+02  0.45594000000E+02  0.51100000000E-03 0.  1.
    9900012    2    1    2    0    0  0.15132850756E+02  0.82697356980E+01 -0.39827516676E+02  0.47787276675E+02  0.20000025674E+02 0.  0.
         12    1    1    2    0    0 -0.15132850756E+02 -0.82697356980E+01  0.39827516676E+02  0.43400723325E+02  0.00000000000E+00 0. -1.
         11    1    3    3    0    0  0.13074461300E+02 -0.21668789619E+00 -0.26667468732E+02  0.29700881818E+02  0.51100000000E-03 0. -1.
        -11    1    3    3    0    0  0.26524563100E+01  0.27623620701E+01 -0.11464174504E+02  0.12086913006E+02  0.51100000000E-03 0.  1.
         12    1    3    3    0    0 -0.59406685448E+00  0.57240615241E+01 -0.16958734393E+01  0.59994818511E+01  0.00000000000E+00 0. -1.
</event>
<event>
 7    1  0.5411321E-010  0.4778727E+02  0.7816164E-02  0.1312668E+00
        -11   -1    0    0    0    0  0.00000000000E+00  0.00000000000E+00  0.45593999997E+02  0.45594000000E+02  0.51100000000E-03 0.  1.
         11   -1    0    0    0    0 -0.00000000000E+00 -0.00000000000E+00 -0.45593999997E+02  0.45594000000E+02  0.51100000000E-03 0. -1.
    9900012    2    1    2    0    0  0.31772054517E+02  0.60950198733E+01  0.28931137023E+02  0.47787269535E+02  0.19999993116E+02 0.  0.
         12    1    1    2    0    0 -0.31772054517E+02 -0.60950198733E+01 -0.28931137023E+02  0.43400730465E+02  0.00000000000E+00 0. -1.
         11    1    3    3    0    0  0.79039528130E+01 -0.50838946804E+00  0.17112041895E+02  0.18856110627E+02  0.51100000000E-03 0. -1.
        -11    1    3    3    0    0  0.14312710492E+02  0.65741536791E+01  0.32198941155E+01  0.16076097057E+02  0.51100000000E-03 0.  1.
         12    1    3    3    0    0  0.95553912121E+01  0.29255662248E-01  0.85992010132E+01  0.12855061850E+02  0.00000000000E+00 0. -1.
</event>
<event>
 7    1  0.5411321E-010  0.4778727E+02  0.7816164E-02  0.1312668E+00
        -11   -1    0    0    0    0  0.00000000000E+00  0.00000000000E+00  0.45593999997E+02  0.45594000000E+02  0.51100000000E-03 0. -1.
         11   -1    0    0    0    0 -0.00000000000E+00 -0.00000000000E+00 -0.45593999997E+02  0.45594000000E+02  0.51100000000E-03 0.  1.
    9900012    2    1    2    0    0 -0.67629779567E+01  0.39330005960E+02 -0.17059774236E+02  0.47787272625E+02  0.20000007207E+02 0.  0.
         12    1    1    2    0    0  0.67629779567E+01 -0.39330005960E+02  0.17059774236E+02  0.43400727375E+02  0.00000000000E+00 0. -1.
         11    1    3    3    0    0  0.22066912374E+01  0.16250223358E+02 -0.10912385233E+02  0.19698207968E+02  0.51100000000E-03 0. -1.
        -11    1    3    3    0    0 -0.82200090788E+01  0.17701560558E+02  0.47776041351E+00  0.19522859696E+02  0.51100000000E-03 0.  1.
         12    1    3    3    0    0 -0.74966011531E+00  0.53782220445E+01 -0.66251494166E+01  0.85662049615E+01  0.00000000000E+00 0. -1.
</event>
<event>
 7    1  0.5411321E-010  0.4778727E+02  0.7816164E-02  0.1312668E+00
        -11   -1    0    0    0    0  0.00000000000E+00  0.00000000000E+00  0.45593999997E+02  0.45594000000E+02  0.51100000000E-03 0. -1.
         11   -1    0    0    0    0 -0.00000000000E+00 -0.00000000000E+00 -0.45593999997E+02  0.45594000000E+02  0.51100000000E-03 0.  1.
    9900012    2    1    2    0    0 -0.12177507369E+02 -0.40845714744E+02 -0.81828816925E+01  0.47787266694E+02  0.19999980167E+02 0.  0.
         12    1    1    2    0    0  0.12177507369E+02  0.40845714744E+02  0.81828816925E+01  0.43400733306E+02  0.00000000000E+00 0. -1.
         11    1    3    3    0    0 -0.41138943903E+01 -0.29757704805E+02 -0.12069077331E+02  0.32374492277E+02  0.51100000000E-03 0.  1.
        -11    1    3    3    0    0 -0.52000223434E+01 -0.10556851170E+02  0.41734819102E+01  0.12486204007E+02  0.51100000000E-03 0. -1.
        -12    1    3    3    0    0 -0.28635906352E+01 -0.53115876929E+00 -0.28728627143E+00  0.29265704102E+01  0.00000000000E+00 0.  1.
</event>
<event>
 7    1  0.5411321E-010  0.4778727E+02  0.7816164E-02  0.1312668E+00
        -11   -1    0    0    0    0  0.00000000000E+00  0.00000000000E+00  0.45593999997E+02  0.45594000000E+02  0.51100000000E-03 0. -1.
         11   -1    0    0    0    0 -0.00000000000E+00 -0.00000000000E+00 -0.45593999997E+02  0.45594000000E+02  0.51100000000E-03 0.  1.
    9900012    2    1    2    0    0 -0.23325403332E+01  0.13732738061E+02 -0.41104675511E+02  0.47787272035E+02  0.20000004516E+02 0.  0.
         12    1    1    2    0    0  0.23325403332E+01 -0.13732738061E+02  0.41104675511E+02  0.43400727965E+02  0.00000000000E+00 0. -1.
         11    1    3    3    0    0  0.27754864877E+01  0.11034169748E+02 -0.91821128047E+01  0.14620787362E+02  0.51100000000E-03 0. -1.
        -11    1    3    3    0    0 -0.59897043353E+01  0.49989110024E+00 -0.16450912337E+02  0.17514535852E+02  0.51100000000E-03 0.  1.
         12    1    3    3    0    0  0.88167751442E+00  0.21986772123E+01 -0.15471650370E+02  0.15651948821E+02  0.00000000000E+00 0. -1.
</event>
<event>
 7    1  0.5411321E-010  0.4778727E+02  0.7816164E-02  0.1312668E+00
        -11   -1    0    0    0    0  0.00000000000E+00  0.00000000000E+00  0.45593999997E+02  0.45594000000E+02  0.51100000000E-03 0.  1.
         11   -1    0    0    0    0 -0.00000000000E+00 -0.00000000000E+00 -0.45593999997E+02  0.45594000000E+02  0.51100000000E-03 0. -1.
    9900012    2    1    2    0    0 -0.39606988016E+02  0.17728021310E+02  0.79196728087E+00  0.47787268999E+02  0.19999990675E+02 0.  0.
         12    1    1    2    0    0  0.39606988016E+02 -0.17728021310E+02 -0.79196728087E+00  0.43400731001E+02  0.00000000000E+00 0. -1.
         11    1    3    3    0    0 -0.11410140209E+02  0.10329299002E+02 -0.47857478531E+01  0.16117974445E+02  0.51100000000E-03 0. -1.
        -11    1    3    3    0    0 -0.19704300866E+02  0.35157572822E+00  0.10330698742E+01  0.19734495477E+02  0.51100000000E-03 0.  1.
        -12    1    3    3    0    0 -0.84925469416E+01  0.70471465796E+01  0.45446452598E+01  0.11934799077E+02  0.00000000000E+00 0.  1.
</event>
<event>
 7    1  0.5411321E-010  0.4778727E+02  0.7816164E-02  0.1312668E+00
        -11   -1    0    0    0    0  0.00000000000E+00  0.00000000000E+00  0.45593999997E+02  0.45594000000E+02  0.51100000000E-03 0. -1.
         11   -1    0    0    0    0 -0.00000000000E+00 -0.00000000000E+00 -0.45593999997E+02  0.45594000000E+02  0.51100000000E-03 0.  1.
    9900012    2    1    2    0    0 -0.11448127231E+02  0.40570047312E+02  0.10326416109E+02  0.47787271600E+02  0.20000002534E+02 0.  0.
         12    1    1    2    0    0  0.11448127231E+02 -0.40570047312E+02 -0.10326416109E+02  0.43400728400E+02  0.00000000000E+00 0. -1.
         11    1    3    3    0    0 -0.57822059312E+01  0.71709921378E+01  0.65087516888E+01  0.11279223487E+02  0.51100000000E-03 0. -1.
        -11    1    3    3    0    0 -0.76974449554E+01  0.29125390608E+02  0.68414713791E+01  0.30892471054E+02  0.51100000000E-03 0.  1.
        -12    1    3    3    0    0  0.20315236557E+01  0.42736645659E+01 -0.30238069585E+01  0.56155770592E+01  0.00000000000E+00 0.  1.
</event>
<event>
 7    1  0.5411321E-010  0.4778726E+02  0.7816164E-02  0.1312668E+00
        -11   -1    0    0    0    0  0.00000000000E+00  0.00000000000E+00  0.45593999997E+02  0.45594000000E+02  0.51100000000E-03 0. -1.
         11   -1    0    0    0    0 -0.00000000000E+00 -0.00000000000E+00 -0.45593999997E+02  0.45594000000E+02  0.51100000000E-03 0.  1.
    9900012    2    1    2    0    0  0.13603004183E+02  0.26816880160E+02 -0.31295962939E+02  0.47787261750E+02  0.19999957624E+02 0.  0.
         12    1    1    2    0    0 -0.13603004183E+02 -0.26816880160E+02  0.31295962939E+02  0.43400738250E+02  0.00000000000E+00 0. -1.
         11    1    3    3    0    0  0.13907468830E+02  0.22718075445E+02 -0.15183336079E+02  0.30660436004E+02  0.51100000000E-03 0. -1.
        -11    1    3    3    0    0 -0.71438057114E+00  0.26256740501E+01 -0.14976897308E+02  0.15222087802E+02  0.51100000000E-03 0.  1.
         12    1    3    3    0    0  0.40991592365E+00  0.14731306649E+01 -0.11357295529E+01  0.19047379447E+01  0.00000000000E+00 0. -1.
</event>
<event>
 7    1  0.5411321E-010  0.4778728E+02  0.7816164E-02  0.1312668E+00
        -11   -1    0    0    0    0  0.00000000000E+00  0.00000000000E+00  0.45593999997E+02  0.45594000000E+02  0.51100000000E-03 0. -1.
         11   -1    0    0    0    0 -0.00000000000E+00 -0.00000000000E+00 -0.45593999997E+02  0.45594000000E+02  0.51100000000E-03 0.  1.
    9900012    2    1    2    0    0  0.42353368108E+02  0.62049854528E+01 -0.71633205588E+01  0.47787276550E+02  0.20000025103E+02 0.  0.
         12    1    1    2    0    0 -0.42353368108E+02 -0.62049854528E+01  0.71633205588E+01  0.43400723450E+02  0.00000000000E+00 0. -1.
         11    1    3    3    0    0  0.72490912970E+01 -0.20671633479E+01  0.29062798580E+01  0.80789202133E+01  0.51100000000E-03 0. -1.
        -11    1    3    3    0    0  0.33660691501E+02  0.10767844376E+02 -0.10312832229E+02  0.36814985178E+02  0.51100000000E-03 0.  1.
        -12    1    3    3    0    0  0.14435853095E+01 -0.24956955748E+01  0.24323181190E+00  0.28933711587E+01  0.00000000000E+00 0.  1.
</event>
<event>
 7    1  0.5411321E-010  0.4778727E+02  0.7816164E-02  0.1312668E+00
        -11   -1    0    0    0    0  0.00000000000E+00  0.00000000000E+00  0.45593999997E+02  0.45594000000E+02  0.51100000000E-03 0. -1.
         11   -1    0    0    0    0 -0.00000000000E+00 -0.00000000000E+00 -0.45593999997E+02  0.45594000000E+02  0.51100000000E-03 0.  1.
    9900012    2    1    2    0    0 -0.30670399422E+02 -0.30344603881E+02  0.47069050412E+01  0.47787270277E+02  0.19999996501E+02 0.  0.
         12    1    1    2    0    0  0.30670399422E+02  0.30344603881E+02 -0.47069050412E+01  0.43400729723E+02  0.00000000000E+00 0. -1.
         11    1    3    3    0    0 -0.10018621741E+02 -0.38862034706E+01  0.73509934710E+01  0.13019695245E+02  0.51100000000E-03 0. -1.
        -11    1    3    3    0    0 -0.72213876192E+01 -0.16168645906E+02 -0.21848907968E+01  0.17842289585E+02  0.51100000000E-03 0.  1.
        -12    1    3    3    0    0 -0.13430390062E+02 -0.10289754504E+02 -0.45919763299E+00  0.16925285447E+02  0.00000000000E+00 0.  1.
</event>
<event>
 7    1  0.5411321E-010  0.4778723E+02  0.7816164E-02  0.1312668E+00
        -11   -1    0    0    0    0  0.00000000000E+00  0.00000000000E+00  0.45593999997E+02  0.45594000000E+02  0.51100000000E-03 0.  1.
         11   -1    0    0    0    0 -0.00000000000E+00 -0.00000000000E+00 -0.45593999997E+02  0.45594000000E+02  0.51100000000E-03 0. -1.
    9900012    2    1    2    0    0  0.37774764861E+02  0.95175509626E-02  0.21370388001E+02  0.47787234636E+02  0.19999833997E+02 0.  0.
         12    1    1    2    0    0 -0.37774764861E+02 -0.95175509626E-02 -0.21370388001E+02  0.43400765364E+02  0.00000000000E+00 0. -1.
         11    1    3    3    0    0  0.53968775603E+01 -0.43808640376E+01  0.20317833384E+01  0.72419887401E+01  0.51100000000E-03 0. -1.
        -11    1    3    3    0    0  0.32551620472E+02  0.20924950312E+01  0.19851160420E+02  0.38184487702E+02  0.51100000000E-03 0.  1.
        -12    1    3    3    0    0 -0.17373317122E+00  0.22978865574E+01 -0.51255575644E+00  0.23607581937E+01  0.00000000000E+00 0.  1.
</event>
<event>
 7    1  0.5411321E-010  0.4778727E+02  0.7816164E-02  0.1312668E+00
        -11   -1    0    0    0    0  0.00000000000E+00  0.00000000000E+00  0.45593999997E+02  0.45594000000E+02  0.51100000000E-03 0.  1.
         11   -1    0    0    0    0 -0.00000000000E+00 -0.00000000000E+00 -0.45593999997E+02  0.45594000000E+02  0.51100000000E-03 0. -1.
    9900012    2    1    2    0    0 -0.19503186348E+02 -0.28151701625E+02  0.26659539427E+02  0.47787267004E+02  0.19999981578E+02 0.  0.
         12    1    1    2    0    0  0.19503186348E+02  0.28151701625E+02 -0.26659539427E+02  0.43400732996E+02  0.00000000000E+00 0. -1.
         11    1    3    3    0    0 -0.22941557768E+01 -0.10873432024E+02  0.15371472639E+01  0.11218622762E+02  0.51100000000E-03 0. -1.
        -11    1    3    3    0    0 -0.16610947674E+02 -0.11824395284E+02  0.15977145579E+02  0.25903843105E+02  0.51100000000E-03 0.  1.
        -12    1    3    3    0    0 -0.59808289755E+00 -0.54538743170E+01  0.91452465841E+01  0.10664801137E+02  0.00000000000E+00 0.  1.
</event>
<event>
 7    1  0.5411321E-010  0.4778726E+02  0.7816164E-02  0.1312668E+00
        -11   -1    0    0    0    0  0.00000000000E+00  0.00000000000E+00  0.45593999997E+02  0.45594000000E+02  0.51100000000E-03 0. -1.
         11   -1    0    0    0    0 -0.00000000000E+00 -0.00000000000E+00 -0.45593999997E+02  0.45594000000E+02  0.51100000000E-03 0.  1.
    9900012    2    1    2    0    0  0.26936085852E+02 -0.14870034617E+02 -0.30609693854E+02  0.47787262583E+02  0.19999961421E+02 0.  0.
         12    1    1    2    0    0 -0.26936085852E+02  0.14870034617E+02  0.30609693854E+02  0.43400737417E+02  0.00000000000E+00 0. -1.
         11    1    3    3    0    0  0.15393487773E+02 -0.48132535898E-01 -0.21737437196E+02  0.26636027457E+02  0.51100000000E-03 0. -1.
        -11    1    3    3    0    0 -0.10076636372E+00 -0.59195191943E+00 -0.96515331154E+00  0.11366978978E+01  0.51100000000E-03 0.  1.
         12    1    3    3    0    0  0.11643364442E+02 -0.14229950162E+02 -0.79071033462E+01  0.20014537228E+02  0.00000000000E+00 0. -1.
</event>
<event>
 7    1  0.5411321E-010  0.4778727E+02  0.7816164E-02  0.1312668E+00
        -11   -1    0    0    0    0  0.00000000000E+00  0.00000000000E+00  0.45593999997E+02  0.45594000000E+02  0.51100000000E-03 0. -1.
         11   -1    0    0    0    0 -0.00000000000E+00 -0.00000000000E+00 -0.45593999997E+02  0.45594000000E+02  0.51100000000E-03 0.  1.
    9900012    2    1    2    0    0 -0.13524753396E+02 -0.39688955888E+02 -0.11202280144E+02  0.47787271270E+02  0.20000001029E+02 0.  0.
         12    1    1    2    0    0  0.13524753396E+02  0.39688955888E+02  0.11202280144E+02  0.43400728730E+02  0.00000000000E+00 0. -1.
         11    1    3    3    0    0 -0.54195782880E+00  0.90661627672E+00 -0.10346331060E+01  0.14785591928E+01  0.51100000000E-03 0.  1.
        -11    1    3    3    0    0 -0.69191065426E+01 -0.16459986321E+02  0.30765378217E+01  0.18118230329E+02  0.51100000000E-03 0. -1.
        -12    1    3    3    0    0 -0.60636890249E+01 -0.24135585843E+02 -0.13244184860E+02  0.28190481748E+02  0.00000000000E+00 0.  1.
</event>
<event>
 7    1  0.5411321E-010  0.4778727E+02  0.7816164E-02  0.1312668E+00
        -11   -1    0    0    0    0  0.00000000000E+00  0.00000000000E+00  0.45593999997E+02  0.45594000000E+02  0.51100000000E-03 0. -1.
         11   -1    0    0    0    0 -0.00000000000E+00 -0.00000000000E+00 -0.45593999997E+02  0.45594000000E+02  0.51100000000E-03 0.  1.
    9900012    2    1    2    0    0  0.11187740392E+02  0.18298351926E+02 -0.37730997282E+02  0.47787269888E+02  0.19999994729E+02 0.  0.
         12    1    1    2    0    0 -0.11187740392E+02 -0.18298351926E+02  0.37730997282E+02  0.43400730112E+02  0.00000000000E+00 0. -1.
         11    1    3    3    0    0  0.11541548503E+02  0.71737057912E+01 -0.14375203801E+02  0.19781705720E+02  0.51100000000E-03 0. -1.
        -11    1    3    3    0    0  0.28446774196E+01  0.73303485616E+01 -0.58239906051E+01  0.97849408013E+01  0.51100000000E-03 0.  1.
         12    1    3    3    0    0 -0.31984855308E+01  0.37942975736E+01 -0.17531802876E+02  0.18220623367E+02  0.00000000000E+00 0. -1.
</event>
<event>
 7    1  0.5411321E-010  0.4778727E+02  0.7816164E-02  0.1312668E+00
        -11   -1    0    0    0    0  0.00000000000E+00  0.00000000000E+00  0.45593999997E+02  0.45594000000E+02  0.51100000000E-03 0.  1.
         11   -1    0    0    0    0 -0.00000000000E+00 -0.00000000000E+00 -0.45593999997E+02  0.45594000000E+02  0.51100000000E-03 0. -1.
    9900012    2    1    2    0    0 -0.11399533766E+02  0.33600368875E+02  0.24993787662E+02  0.47787267514E+02  0.19999983903E+02 0.  0.
         12    1    1    2    0    0  0.11399533766E+02 -0.33600368875E+02 -0.24993787662E+02  0.43400732486E+02  0.00000000000E+00 0. -1.
         11    1    3    3    0    0 -0.15723087482E+01  0.81035616750E+01 -0.21054644784E+01  0.85189698645E+01  0.51100000000E-03 0. -1.
        -11    1    3    3    0    0 -0.96908023577E+01  0.23144291329E+02  0.20965391313E+02  0.32697362349E+02  0.51100000000E-03 0.  1.
         12    1    3    3    0    0 -0.13642266021E+00  0.23525158714E+01  0.61338608274E+01  0.65709353000E+01  0.00000000000E+00 0. -1.
</event>
<event>
 7    1  0.5411321E-010  0.4778727E+02  0.7816164E-02  0.1312668E+00
        -11   -1    0    0    0    0  0.00000000000E+00  0.00000000000E+00  0.45593999997E+02  0.45594000000E+02  0.51100000000E-03 0.  1.
         11   -1    0    0    0    0 -0.00000000000E+00 -0.00000000000E+00 -0.45593999997E+02  0.45594000000E+02  0.51100000000E-03 0. -1.
    9900012    2    1    2    0    0 -0.27595993502E+01 -0.16897126584E+02  0.39881007894E+02  0.47787273439E+02  0.20000010919E+02 0.  0.
         12    1    1    2    0    0  0.27595993502E+01  0.16897126584E+02 -0.39881007894E+02  0.43400726561E+02  0.00000000000E+00 0. -1.
         11    1    3    3    0    0  0.19346990094E+01 -0.21670305400E+01 -0.15762352710E+00  0.29092829109E+01  0.51100000000E-03 0. -1.
        -11    1    3    3    0    0 -0.61699086859E+01 -0.13918052651E+02  0.40384223766E+02  0.43158608553E+02  0.51100000000E-03 0.  1.
        -12    1    3    3    0    0  0.14756103264E+01 -0.81204339300E+00 -0.34559234525E+00  0.17193819751E+01  0.00000000000E+00 0.  1.
</event>
<event>
 7    1  0.5411321E-010  0.4778727E+02  0.7816164E-02  0.1312668E+00
        -11   -1    0    0    0    0  0.00000000000E+00  0.00000000000E+00  0.45593999997E+02  0.45594000000E+02  0.51100000000E-03 0.  1.
         11   -1    0    0    0    0 -0.00000000000E+00 -0.00000000000E+00 -0.45593999997E+02  0.45594000000E+02  0.51100000000E-03 0. -1.
    9900012    2    1    2    0    0  0.25813016840E+02 -0.63358853880E+01  0.34309880164E+02  0.47787272369E+02  0.20000006039E+02 0.  0.
         12    1    1    2    0    0 -0.25813016840E+02  0.63358853880E+01 -0.34309880164E+02  0.43400727631E+02  0.00000000000E+00 0. -1.
         11    1    3    3    0    0 -0.20998828179E+00  0.13317179082E+01  0.34434754085E-02  0.13481764662E+01  0.51100000000E-03 0. -1.
        -11    1    3    3    0    0  0.11331307564E+02 -0.38544797269E+00  0.25315588462E+02  0.27738531336E+02  0.51100000000E-03 0.  1.
        -12    1    3    3    0    0  0.14691697557E+02 -0.72821553235E+01  0.89908482269E+01  0.18700564567E+02  0.00000000000E+00 0.  1.
</event>
<event>
 7    1  0.5411321E-010  0.4778728E+02  0.7816164E-02  0.1312668E+00
        -11   -1    0    0    0    0  0.00000000000E+00  0.00000000000E+00  0.45593999997E+02  0.45594000000E+02  0.51100000000E-03 0. -1.
         11   -1    0    0    0    0 -0.00000000000E+00 -0.00000000000E+00 -0.45593999997E+02  0.45594000000E+02  0.51100000000E-03 0.  1.
    9900012    2    1    2    0    0  0.17861105570E+02 -0.31433647937E+02  0.24011023487E+02  0.47787279226E+02  0.20000037302E+02 0.  0.
         12    1    1    2    0    0 -0.17861105570E+02  0.31433647937E+02 -0.24011023487E+02  0.43400720774E+02  0.00000000000E+00 0. -1.
         11    1    3    3    0    0  0.59234391735E+01 -0.69904194173E+01  0.12610288975E+02  0.15587574653E+02  0.51100000000E-03 0. -1.
        -11    1    3    3    0    0  0.74207917049E+01 -0.84630342954E+01 -0.12482336134E+01  0.11324715733E+02  0.51100000000E-03 0.  1.
        -12    1    3    3    0    0  0.45168746915E+01 -0.15980194224E+02  0.12648968125E+02  0.20874988840E+02  0.00000000000E+00 0.  1.
</event>
<event>
 7    1  0.5411321E-010  0.4778727E+02  0.7816164E-02  0.1312668E+00
        -11   -1    0    0    0    0  0.00000000000E+00  0.00000000000E+00  0.45593999997E+02  0.45594000000E+02  0.51100000000E-03 0. -1.
         11   -1    0    0    0    0 -0.00000000000E+00 -0.00000000000E+00 -0.45593999997E+02  0.45594000000E+02  0.51100000000E-03 0.  1.
    9900012    2    1    2    0    0  0.20592199870E+02  0.25937931287E+02 -0.28050099578E+02  0.47787273494E+02  0.20000011168E+02 0.  0.
         12    1    1    2    0    0 -0.20592199870E+02 -0.25937931287E+02  0.28050099578E+02  0.43400726506E+02  0.00000000000E+00 0. -1.
         11    1    3    3    0    0  0.73677540361E+01  0.71475872368E-01 -0.19434869429E+01  0.76201082732E+01  0.51100000000E-03 0. -1.
        -11    1    3    3    0    0  0.11611258374E+02  0.18637662310E+02 -0.14216917498E+02  0.26159214835E+02  0.51100000000E-03 0.  1.
         12    1    3    3    0    0  0.16131874594E+01  0.72287931045E+01 -0.11889695138E+02  0.14007950385E+02  0.00000000000E+00 0. -1.
</event>
<event>
 7    1  0.5411321E-010  0.4778727E+02  0.7816164E-02  0.1312668E+00
        -11   -1    0    0    0    0  0.00000000000E+00  0.00000000000E+00  0.45593999997E+02  0.45594000000E+02  0.51100000000E-03 0.  1.
         11   -1    0    0    0    0 -0.00000000000E+00 -0.00000000000E+00 -0.45593999997E+02  0.45594000000E+02  0.51100000000E-03 0. -1.
    9900012    2    1    2    0    0  0.30930899062E+02 -0.23323781021E+02  0.19567936317E+02  0.47787269481E+02  0.19999992872E+02 0.  0.
         12    1    1    2    0    0 -0.30930899062E+02  0.23323781021E+02 -0.19567936317E+02  0.43400730519E+02  0.00000000000E+00 0. -1.
         11    1    3    3    0    0  0.12659168764E+02 -0.93258623557E+01 -0.79868763932E+00  0.15743702381E+02  0.51100000000E-03 0. -1.
        -11    1    3    3    0    0  0.76142691127E+01 -0.61736452922E+01  0.14678292195E+02  0.17650587875E+02  0.51100000000E-03 0.  1.
        -12    1    3    3    0    0  0.10657461185E+02 -0.78242733728E+01  0.56883317613E+01  0.14392979224E+02  0.00000000000E+00 0.  1.
</event>
<event>
 7    1  0.5411321E-010  0.4778727E+02  0.7816164E-02  0.1312668E+00
        -11   -1    0    0    0    0  0.00000000000E+00  0.00000000000E+00  0.45593999997E+02  0.45594000000E+02  0.51100000000E-03 0. -1.
         11   -1    0    0    0    0 -0.00000000000E+00 -0.00000000000E+00 -0.45593999997E+02  0.45594000000E+02  0.51100000000E-03 0.  1.
    9900012    2    1    2    0    0  0.95413724199E+01 -0.33261459665E+02 -0.26196580747E+02  0.47787270403E+02  0.19999997075E+02 0.  0.
         12    1    1    2    0    0 -0.95413724199E+01  0.33261459665E+02  0.26196580747E+02  0.43400729597E+02  0.00000000000E+00 0. -1.
         11    1    3    3    0    0  0.52224050004E+01 -0.25353451928E+02 -0.25578088499E+02  0.36391065527E+02  0.51100000000E-03 0. -1.
        -11    1    3    3    0    0 -0.11525042360E+01 -0.13115139397E+01 -0.20655117027E+01  0.27045653409E+01  0.51100000000E-03 0.  1.
         12    1    3    3    0    0  0.54714716555E+01 -0.65964937974E+01  0.14470194550E+01  0.86916395346E+01  0.00000000000E+00 0. -1.
</event>
<event>
 7    1  0.5411321E-010  0.4778724E+02  0.7816164E-02  0.1312668E+00
        -11   -1    0    0    0    0  0.00000000000E+00  0.00000000000E+00  0.45593999997E+02  0.45594000000E+02  0.51100000000E-03 0. -1.
         11   -1    0    0    0    0 -0.00000000000E+00 -0.00000000000E+00 -0.45593999997E+02  0.45594000000E+02  0.51100000000E-03 0.  1.
    9900012    2    1    2    0    0 -0.75402165264E+01  0.27342416977E+02 -0.32850624880E+02  0.47787237490E+02  0.19999847013E+02 0.  0.
         12    1    1    2    0    0  0.75402165264E+01 -0.27342416977E+02  0.32850624880E+02  0.43400762510E+02  0.00000000000E+00 0. -1.
         11    1    3    3    0    0 -0.87407166951E+01  0.52344892082E+01 -0.85707524756E+01  0.13313820033E+02  0.51100000000E-03 0. -1.
        -11    1    3    3    0    0 -0.29902397080E+01  0.13689728926E+01 -0.27454992304E+01  0.42840852672E+01  0.51100000000E-03 0.  1.
         12    1    3    3    0    0  0.41907398768E+01  0.20738954876E+02 -0.21534373174E+02  0.30189332190E+02  0.00000000000E+00 0. -1.
</event>
<event>
 7    1  0.5411321E-010  0.4778727E+02  0.7816164E-02  0.1312668E+00
        -11   -1    0    0    0    0  0.00000000000E+00  0.00000000000E+00  0.45593999997E+02  0.45594000000E+02  0.51100000000E-03 0.  1.
         11   -1    0    0    0    0 -0.00000000000E+00 -0.00000000000E+00 -0.45593999997E+02  0.45594000000E+02  0.51100000000E-03 0. -1.
    9900012    2    1    2    0    0  0.21716094929E+02  0.24088944356E+02  0.28840200307E+02  0.47787272208E+02  0.20000005304E+02 0.  0.
         12    1    1    2    0    0 -0.21716094929E+02 -0.24088944356E+02 -0.28840200307E+02  0.43400727792E+02  0.00000000000E+00 0. -1.
         11    1    3    3    0    0  0.34225063919E+01  0.22580515231E+01  0.11037561988E+01  0.42462483078E+01  0.51100000000E-03 0. -1.
        -11    1    3    3    0    0  0.15457485244E+02  0.86012295014E+01  0.23397959697E+02  0.29332226599E+02  0.51100000000E-03 0.  1.
        -12    1    3    3    0    0  0.28361032934E+01  0.13229663332E+02  0.43384844106E+01  0.14208797301E+02  0.00000000000E+00 0.  1.
</event>
<event>
 7    1  0.5411321E-010  0.4778727E+02  0.7816164E-02  0.1312668E+00
        -11   -1    0    0    0    0  0.00000000000E+00  0.00000000000E+00  0.45593999997E+02  0.45594000000E+02  0.51100000000E-03 0.  1.
         11   -1    0    0    0    0 -0.00000000000E+00 -0.00000000000E+00 -0.45593999997E+02  0.45594000000E+02  0.51100000000E-03 0. -1.
    9900012    2    1    2    0    0  0.29861386027E+02  0.21417925373E+02  0.23090990803E+02  0.47787265456E+02  0.19999974519E+02 0.  0.
         12    1    1    2    0    0 -0.29861386027E+02 -0.21417925373E+02 -0.23090990803E+02  0.43400734544E+02  0.00000000000E+00 0. -1.
         11    1    3    3    0    0  0.10883095697E+02  0.17197689580E+01  0.13165200829E+02  0.17167466044E+02  0.51100000000E-03 0. -1.
        -11    1    3    3    0    0  0.16082116956E+02  0.14274811610E+02  0.11340780253E+02  0.24310862373E+02  0.51100000000E-03 0.  1.
         12    1    3    3    0    0  0.28961733734E+01  0.54233448042E+01 -0.14149902794E+01  0.63089370392E+01  0.00000000000E+00 0. -1.
</event>
<event>
 7    1  0.5411321E-010  0.4778727E+02  0.7816164E-02  0.1312668E+00
        -11   -1    0    0    0    0  0.00000000000E+00  0.00000000000E+00  0.45593999997E+02  0.45594000000E+02  0.51100000000E-03 0.  1.
         11   -1    0    0    0    0 -0.00000000000E+00 -0.00000000000E+00 -0.45593999997E+02  0.45594000000E+02  0.51100000000E-03 0. -1.
    9900012    2    1    2    0    0 -0.29364373252E+02 -0.68550755100E+01  0.31214817078E+02  0.47787270952E+02  0.19999999578E+02 0.  0.
         12    1    1    2    0    0  0.29364373252E+02  0.68550755100E+01 -0.31214817078E+02  0.43400729048E+02  0.00000000000E+00 0. -1.
         11    1    3    3    0    0  0.77035096915E-01 -0.34670043909E+01  0.57143787419E+01  0.66843233404E+01  0.51100000000E-03 0. -1.
        -11    1    3    3    0    0 -0.24792985308E+02 -0.74930790173E+01  0.19026125882E+02  0.32137700913E+02  0.51100000000E-03 0.  1.
        -12    1    3    3    0    0 -0.46484230408E+01  0.41050078982E+01  0.64743124545E+01  0.89652466987E+01  0.00000000000E+00 0.  1.
</event>
<event>
 7    1  0.5411321E-010  0.4778728E+02  0.7816164E-02  0.1312668E+00
        -11   -1    0    0    0    0  0.00000000000E+00  0.00000000000E+00  0.45593999997E+02  0.45594000000E+02  0.51100000000E-03 0.  1.
         11   -1    0    0    0    0 -0.00000000000E+00 -0.00000000000E+00 -0.45593999997E+02  0.45594000000E+02  0.51100000000E-03 0. -1.
    9900012    2    1    2    0    0  0.36720910192E+02  0.73560610074E+01 -0.21933673425E+02  0.47787275251E+02  0.20000019178E+02 0.  0.
         12    1    1    2    0    0 -0.36720910192E+02 -0.73560610074E+01  0.21933673425E+02  0.43400724749E+02  0.00000000000E+00 0. -1.
         11    1    3    3    0    0  0.22309328602E+02 -0.10184375575E+01 -0.20805785775E+02  0.30522517585E+02  0.51100000000E-03 0. -1.
        -11    1    3    3    0    0  0.41308711234E+01  0.63714904473E+00 -0.13607793734E+01  0.43956542070E+01  0.51100000000E-03 0.  1.
         12    1    3    3    0    0  0.10280710466E+02  0.77373495202E+01  0.23289172314E+00  0.12869103459E+02  0.00000000000E+00 0. -1.
</event>
<event>
 7    1  0.5411321E-010  0.4778727E+02  0.7816164E-02  0.1312668E+00
        -11   -1    0    0    0    0  0.00000000000E+00  0.00000000000E+00  0.45593999997E+02  0.45594000000E+02  0.51100000000E-03 0. -1.
         11   -1    0    0    0    0 -0.00000000000E+00 -0.00000000000E+00 -0.45593999997E+02  0.45594000000E+02  0.51100000000E-03 0.  1.
    9900012    2    1    2    0    0  0.14500920346E+02  0.35165082876E+02  0.20898882440E+02  0.47787273833E+02  0.20000012715E+02 0.  0.
         12    1    1    2    0    0 -0.14500920346E+02 -0.35165082876E+02 -0.20898882440E+02  0.43400726167E+02  0.00000000000E+00 0. -1.
         11    1    3    3    0    0  0.10383283831E+02  0.19673505318E+02  0.40931682109E+01  0.22618873112E+02  0.51100000000E-03 0. -1.
        -11    1    3    3    0    0 -0.29630833070E+01  0.44599334572E+01  0.30294323130E+01  0.61520996032E+01  0.51100000000E-03 0.  1.
         12    1    3    3    0    0  0.70807198226E+01  0.11031644101E+02  0.13776281916E+02  0.19016301118E+02  0.00000000000E+00 0. -1.
</event>
<event>
 7    1  0.5411321E-010  0.4778727E+02  0.7816164E-02  0.1312668E+00
        -11   -1    0    0    0    0  0.00000000000E+00  0.00000000000E+00  0.45593999997E+02  0.45594000000E+02  0.51100000000E-03 0. -1.
         11   -1    0    0    0    0 -0.00000000000E+00 -0.00000000000E+00 -0.45593999997E+02  0.45594000000E+02  0.51100000000E-03 0.  1.
    9900012    2    1    2    0    0  0.19142312455E+02 -0.31082355474E+01 -0.38826977061E+02  0.47787269568E+02  0.19999993269E+02 0.  0.
         12    1    1    2    0    0 -0.19142312455E+02  0.31082355474E+01  0.38826977061E+02  0.43400730432E+02  0.00000000000E+00 0. -1.
         11    1    3    3    0    0  0.24833927315E+01 -0.51842090507E+01 -0.11798574499E+02  0.13124390402E+02  0.51100000000E-03 0.  1.
        -11    1    3    3    0    0  0.13468028501E+02  0.74180051847E+01 -0.17651392248E+02  0.23409105946E+02  0.51100000000E-03 0. -1.
         12    1    3    3    0    0  0.31908912220E+01 -0.53420316815E+01 -0.93770103133E+01  0.11253773220E+02  0.00000000000E+00 0. -1.
</event>
<event>
 7    1  0.5411321E-010  0.4778726E+02  0.7816164E-02  0.1312668E+00
        -11   -1    0    0    0    0  0.00000000000E+00  0.00000000000E+00  0.45593999997E+02  0.45594000000E+02  0.51100000000E-03 0.  1.
         11   -1    0    0    0    0 -0.00000000000E+00 -0.00000000000E+00 -0.45593999997E+02  0.45594000000E+02  0.51100000000E-03 0. -1.
    9900012    2    1    2    0    0  0.30073162146E+02 -0.23592066307E+02  0.20558295958E+02  0.47787260297E+02  0.19999950998E+02 0.  0.
         12    1    1    2    0    0 -0.30073162146E+02  0.23592066307E+02 -0.20558295958E+02  0.43400739703E+02  0.00000000000E+00 0. -1.
         11    1    3    3    0    0  0.10660727880E+02 -0.44987421277E+01  0.11653271767E+02  0.16422196649E+02  0.51100000000E-03 0.  1.
        -11    1    3    3    0    0  0.11955659845E+02 -0.12126325764E+02 -0.11120857005E+01  0.17065236996E+02  0.51100000000E-03 0. -1.
         12    1    3    3    0    0  0.74567744206E+01 -0.69669984154E+01  0.10017109891E+02  0.14299826651E+02  0.00000000000E+00 0. -1.
</event>
<event>
 7    1  0.5411321E-010  0.4778727E+02  0.7816164E-02  0.1312668E+00
        -11   -1    0    0    0    0  0.00000000000E+00  0.00000000000E+00  0.45593999997E+02  0.45594000000E+02  0.51100000000E-03 0. -1.
         11   -1    0    0    0    0 -0.00000000000E+00 -0.00000000000E+00 -0.45593999997E+02  0.45594000000E+02  0.51100000000E-03 0.  1.
    9900012    2    1    2    0    0  0.78626209872E+01 -0.30735869849E+02 -0.29616025438E+02  0.47787268821E+02  0.19999989861E+02 0.  0.
         12    1    1    2    0    0 -0.78626209872E+01  0.30735869849E+02  0.29616025438E+02  0.43400731179E+02  0.00000000000E+00 0. -1.
         11    1    3    3    0    0  0.72230276630E+01 -0.29963692006E+01 -0.75164478772E+01  0.10846536127E+02  0.51100000000E-03 0. -1.
        -11    1    3    3    0    0 -0.36128714810E+01 -0.18151889466E+02 -0.10406514614E+02  0.21232980906E+02  0.51100000000E-03 0.  1.
        -12    1    3    3    0    0  0.42524648052E+01 -0.95876111827E+01 -0.11693062947E+02  0.15707751787E+02  0.00000000000E+00 0.  1.
</event>
<event>
 7    1  0.5411321E-010  0.4778727E+02  0.7816164E-02  0.1312668E+00
        -11   -1    0    0    0    0  0.00000000000E+00  0.00000000000E+00  0.45593999997E+02  0.45594000000E+02  0.51100000000E-03 0.  1.
         11   -1    0    0    0    0 -0.00000000000E+00 -0.00000000000E+00 -0.45593999997E+02  0.45594000000E+02  0.51100000000E-03 0. -1.
    9900012    2    1    2    0    0  0.59559738883E+01  0.41292118956E+02 -0.11962883106E+02  0.47787270916E+02  0.19999999414E+02 0.  0.
         12    1    1    2    0    0 -0.59559738883E+01 -0.41292118956E+02  0.11962883106E+02  0.43400729084E+02  0.00000000000E+00 0. -1.
         11    1    3    3    0    0  0.12709837619E+01  0.10510644283E+01 -0.39445116953E+01  0.42754308474E+01  0.51100000000E-03 0. -1.
        -11    1    3    3    0    0  0.11632019979E+01  0.33954241249E+02 -0.18469970748E+01  0.34024328592E+02  0.51100000000E-03 0.  1.
        -12    1    3    3    0    0  0.35217881286E+01  0.62868132787E+01 -0.61713743358E+01  0.94875114765E+01  0.00000000000E+00 0.  1.
</event>
<event>
 7    1  0.5411321E-010  0.4778726E+02  0.7816164E-02  0.1312668E+00
        -11   -1    0    0    0    0  0.00000000000E+00  0.00000000000E+00  0.45593999997E+02  0.45594000000E+02  0.51100000000E-03 0. -1.
         11   -1    0    0    0    0 -0.00000000000E+00 -0.00000000000E+00 -0.45593999997E+02  0.45594000000E+02  0.51100000000E-03 0.  1.
    9900012    2    1    2    0    0  0.98908541626E+01  0.42201793904E+02  0.21916720182E+01  0.47787264626E+02  0.19999970735E+02 0.  0.
         12    1    1    2    0    0 -0.98908541626E+01 -0.42201793904E+02 -0.21916720182E+01  0.43400735374E+02  0.00000000000E+00 0. -1.
         11    1    3    3    0    0  0.88121368831E+01  0.13971766567E+02 -0.34643396590E+01  0.16877963947E+02  0.51100000000E-03 0. -1.
        -11    1    3    3    0    0 -0.42082694208E+01  0.17748572393E+02  0.96123656597E+00  0.18265960952E+02  0.51100000000E-03 0.  1.
         12    1    3    3    0    0  0.52869867002E+01  0.10481454944E+02  0.46947751112E+01  0.12643339727E+02  0.00000000000E+00 0. -1.
</event>
<event>
 7    1  0.5411321E-010  0.4778727E+02  0.7816164E-02  0.1312668E+00
        -11   -1    0    0    0    0  0.00000000000E+00  0.00000000000E+00  0.45593999997E+02  0.45594000000E+02  0.51100000000E-03 0.  1.
         11   -1    0    0    0    0 -0.00000000000E+00 -0.00000000000E+00 -0.45593999997E+02  0.45594000000E+02  0.51100000000E-03 0. -1.
    9900012    2    1    2    0    0  0.54876708061E+01 -0.18950527122E+02  0.38657298282E+02  0.47787265910E+02  0.19999976592E+02 0.  0.
         12    1    1    2    0    0 -0.54876708061E+01  0.18950527122E+02 -0.38657298282E+02  0.43400734090E+02  0.00000000000E+00 0. -1.
         11    1    3    3    0    0  0.40775821995E+01 -0.37271954203E+01  0.78045415215E+01  0.95618790473E+01  0.51100000000E-03 0. -1.
        -11    1    3    3    0    0  0.43876012901E+01 -0.17792384298E+02  0.22700738158E+02  0.29174363699E+02  0.51100000000E-03 0.  1.
        -12    1    3    3    0    0 -0.29775126835E+01  0.25690525961E+01  0.81520186023E+01  0.90510231640E+01  0.00000000000E+00 0.  1.
</event>
<event>
 7    1  0.5411321E-010  0.4778726E+02  0.7816164E-02  0.1312668E+00
        -11   -1    0    0    0    0  0.00000000000E+00  0.00000000000E+00  0.45593999997E+02  0.45594000000E+02  0.51100000000E-03 0. -1.
         11   -1    0    0    0    0 -0.00000000000E+00 -0.00000000000E+00 -0.45593999997E+02  0.45594000000E+02  0.51100000000E-03 0.  1.
    9900012    2    1    2    0    0  0.12439315205E+02 -0.41312677941E+02 -0.47064314376E+01  0.47787257860E+02  0.19999939886E+02 0.  0.
         12    1    1    2    0    0 -0.12439315205E+02  0.41312677941E+02  0.47064314376E+01  0.43400742140E+02  0.00000000000E+00 0. -1.
         11    1    3    3    0    0  0.80298390956E+01 -0.66571732754E+01 -0.71739095640E+01  0.12659433266E+02  0.51100000000E-03 0. -1.
        -11    1    3    3    0    0  0.35398228623E+01 -0.18262498638E+02  0.68117095467E+00  0.18614864935E+02  0.51100000000E-03 0.  1.
         12    1    3    3    0    0  0.86965324684E+00 -0.16393006028E+02  0.17863071717E+01  0.16512959659E+02  0.00000000000E+00 0. -1.
</event>
<event>
 7    1  0.5411321E-010  0.4778727E+02  0.7816164E-02  0.1312668E+00
        -11   -1    0    0    0    0  0.00000000000E+00  0.00000000000E+00  0.45593999997E+02  0.45594000000E+02  0.51100000000E-03 0. -1.
         11   -1    0    0    0    0 -0.00000000000E+00 -0.00000000000E+00 -0.45593999997E+02  0.45594000000E+02  0.51100000000E-03 0.  1.
    9900012    2    1    2    0    0  0.74802412318E+01  0.18059630644E+02 -0.38749435642E+02  0.47787273849E+02  0.20000012786E+02 0.  0.
         12    1    1    2    0    0 -0.74802412318E+01 -0.18059630644E+02  0.38749435642E+02  0.43400726151E+02  0.00000000000E+00 0. -1.
         11    1    3    3    0    0 -0.94630839702E+00  0.83812645590E+01 -0.62054274456E+01  0.10471314399E+02  0.51100000000E-03 0. -1.
        -11    1    3    3    0    0  0.47765420803E+01  0.78545480052E+01 -0.31883768083E+02  0.33182584981E+02  0.51100000000E-03 0.  1.
        -12    1    3    3    0    0  0.36500075485E+01  0.18238180798E+01 -0.66024011328E+00  0.41333744688E+01  0.00000000000E+00 0.  1.
</event>
<event>
 7    1  0.5411321E-010  0.4778726E+02  0.7816164E-02  0.1312668E+00
        -11   -1    0    0    0    0  0.00000000000E+00  0.00000000000E+00  0.45593999997E+02  0.45594000000E+02  0.51100000000E-03 0. -1.
         11   -1    0    0    0    0 -0.00000000000E+00 -0.00000000000E+00 -0.45593999997E+02  0.45594000000E+02  0.51100000000E-03 0.  1.
    9900012    2    1    2    0    0 -0.21044035808E+02 -0.27503120330E+02 -0.26160102216E+02  0.47787262460E+02  0.19999960862E+02 0.  0.
         12    1    1    2    0    0  0.21044035808E+02  0.27503120330E+02  0.26160102216E+02  0.43400737540E+02  0.00000000000E+00 0. -1.
         11    1    3    3    0    0 -0.12147540655E+01 -0.31073664119E+01 -0.72477448315E+00  0.34141839098E+01  0.51100000000E-03 0. -1.
        -11    1    3    3    0    0  0.14222344100E+01 -0.54559510032E+01  0.75839034761E+00  0.56890516122E+01  0.51100000000E-03 0.  1.
        -12    1    3    3    0    0 -0.21251516153E+02 -0.18939802915E+02 -0.26193718081E+02  0.38684026938E+02  0.00000000000E+00 0.  1.
</event>
<event>
 7    1  0.5411321E-010  0.4778727E+02  0.7816164E-02  0.1312668E+00
        -11   -1    0    0    0    0  0.00000000000E+00  0.00000000000E+00  0.45593999997E+02  0.45594000000E+02  0.51100000000E-03 0.  1.
         11   -1    0    0    0    0 -0.00000000000E+00 -0.00000000000E+00 -0.45593999997E+02  0.45594000000E+02  0.51100000000E-03 0. -1.
    9900012    2    1    2    0    0  0.11701982030E+02  0.21182044259E+02  0.36027874689E+02  0.47787272621E+02  0.20000007188E+02 0.  0.
         12    1    1    2    0    0 -0.11701982030E+02 -0.21182044259E+02 -0.36027874689E+02  0.43400727379E+02  0.00000000000E+00 0. -1.
         11    1    3    3    0    0  0.10843461079E+01  0.56231479379E+01  0.22198764365E+02  0.22925547732E+02  0.51100000000E-03 0. -1.
        -11    1    3    3    0    0  0.72483171021E+01  0.81617361758E+01  0.12550665977E+02  0.16633437857E+02  0.51100000000E-03 0.  1.
         12    1    3    3    0    0  0.33693188199E+01  0.73971601457E+01  0.12784443467E+01  0.82282870318E+01  0.00000000000E+00 0. -1.
</event>
<event>
 7    1  0.5411321E-010  0.4778726E+02  0.7816164E-02  0.1312668E+00
        -11   -1    0    0    0    0  0.00000000000E+00  0.00000000000E+00  0.45593999997E+02  0.45594000000E+02  0.51100000000E-03 0.  1.
         11   -1    0    0    0    0 -0.00000000000E+00 -0.00000000000E+00 -0.45593999997E+02  0.45594000000E+02  0.51100000000E-03 0. -1.
    9900012    2    1    2    0    0 -0.16725039590E+02 -0.40037541458E+02 -0.94483857785E+00  0.47787258126E+02  0.19999941101E+02 0.  0.
         12    1    1    2    0    0  0.16725039590E+02  0.40037541458E+02  0.94483857785E+00  0.43400741874E+02  0.00000000000E+00 0. -1.
         11    1    3    3    0    0 -0.75333954689E+00 -0.25606084822E+02 -0.24210422430E+01  0.25731314506E+02  0.51100000000E-03 0. -1.
        -11    1    3    3    0    0 -0.11676981349E+02 -0.13006789108E+02  0.10447204047E+01  0.17510565306E+02  0.51100000000E-03 0.  1.
         12    1    3    3    0    0 -0.42947186938E+01 -0.14246675270E+01  0.43148326044E+00  0.45453783148E+01  0.00000000000E+00 0. -1.
</event>
<event>
 7    1  0.5411321E-010  0.4778727E+02  0.7816164E-02  0.1312668E+00
        -11   -1    0    0    0    0  0.00000000000E+00  0.00000000000E+00  0.45593999997E+02  0.45594000000E+02  0.51100000000E-03 0.  1.
         11   -1    0    0    0    0 -0.00000000000E+00 -0.00000000000E+00 -0.45593999997E+02  0.45594000000E+02  0.51100000000E-03 0. -1.
    9900012    2    1    2    0    0 -0.16740020318E+02  0.20087953905E+02  0.34639128059E+02  0.47787269994E+02  0.19999995210E+02 0.  0.
         12    1    1    2    0    0  0.16740020318E+02 -0.20087953905E+02 -0.34639128059E+02  0.43400730006E+02  0.00000000000E+00 0. -1.
         11    1    3    3    0    0 -0.98251879076E+01  0.17266884565E+02  0.31663551837E+02  0.37379942954E+02  0.51100000000E-03 0. -1.
        -11    1    3    3    0    0 -0.68497119982E+01 -0.29366725217E+00  0.19631520456E+01  0.71315328737E+01  0.51100000000E-03 0.  1.
         12    1    3    3    0    0 -0.65120412313E-01  0.31147365924E+01  0.10124241766E+01  0.32757941665E+01  0.00000000000E+00 0. -1.
</event>
<event>
 7    1  0.5411321E-010  0.4778727E+02  0.7816164E-02  0.1312668E+00
        -11   -1    0    0    0    0  0.00000000000E+00  0.00000000000E+00  0.45593999997E+02  0.45594000000E+02  0.51100000000E-03 0. -1.
         11   -1    0    0    0    0 -0.00000000000E+00 -0.00000000000E+00 -0.45593999997E+02  0.45594000000E+02  0.51100000000E-03 0.  1.
    9900012    2    1    2    0    0 -0.37840348642E+02 -0.19733843795E+02 -0.78934517223E+01  0.47787272399E+02  0.20000006175E+02 0.  0.
         12    1    1    2    0    0  0.37840348642E+02  0.19733843795E+02  0.78934517223E+01  0.43400727601E+02  0.00000000000E+00 0. -1.
         11    1    3    3    0    0 -0.40304470409E+01  0.37911385653E+01  0.11236106008E+00  0.55344250144E+01  0.51100000000E-03 0. -1.
        -11    1    3    3    0    0 -0.27148642195E+02 -0.20998046366E+02 -0.73377771637E+01  0.35097146582E+02  0.51100000000E-03 0.  1.
        -12    1    3    3    0    0 -0.66612594058E+01 -0.25269359941E+01 -0.66803561863E+00  0.71557008027E+01  0.00000000000E+00 0.  1.
</event>
<event>
 7    1  0.5411321E-010  0.4778727E+02  0.7816164E-02  0.1312668E+00
        -11   -1    0    0    0    0  0.00000000000E+00  0.00000000000E+00  0.45593999997E+02  0.45594000000E+02  0.51100000000E-03 0. -1.
         11   -1    0    0    0    0 -0.00000000000E+00 -0.00000000000E+00 -0.45593999997E+02  0.45594000000E+02  0.51100000000E-03 0.  1.
    9900012    2    1    2    0    0  0.14134011510E+02  0.29812987327E+02 -0.28196428800E+02  0.47787273142E+02  0.20000009563E+02 0.  0.
         12    1    1    2    0    0 -0.14134011510E+02 -0.29812987327E+02  0.28196428800E+02  0.43400726858E+02  0.00000000000E+00 0. -1.
         11    1    3    3    0    0  0.97171336651E+00 -0.24088000797E+01  0.29202321492E+00  0.26137755279E+01  0.51100000000E-03 0. -1.
        -11    1    3    3    0    0  0.57663381891E+01  0.14375480122E+02 -0.15380415610E+02  0.21828015701E+02  0.51100000000E-03 0.  1.
         12    1    3    3    0    0  0.73959599541E+01  0.17846307285E+02 -0.13108036406E+02  0.23345481913E+02  0.00000000000E+00 0. -1.
</event>
<event>
 7    1  0.5411321E-010  0.4778727E+02  0.7816164E-02  0.1312668E+00
        -11   -1    0    0    0    0  0.00000000000E+00  0.00000000000E+00  0.45593999997E+02  0.45594000000E+02  0.51100000000E-03 0.  1.
         11   -1    0    0    0    0 -0.00000000000E+00 -0.00000000000E+00 -0.45593999997E+02  0.45594000000E+02  0.51100000000E-03 0. -1.
    9900012    2    1    2    0    0  0.25289767442E+02 -0.25150226637E+02  0.24728865934E+02  0.47787273652E+02  0.20000011889E+02 0.  0.
         12    1    1    2    0    0 -0.25289767442E+02  0.25150226637E+02 -0.24728865934E+02  0.43400726348E+02  0.00000000000E+00 0. -1.
         11    1    3    3    0    0  0.69537720952E+01 -0.15089432064E+02  0.85619336378E+01  0.18690976813E+02  0.51100000000E-03 0. -1.
        -11    1    3    3    0    0  0.14790968075E+02 -0.60039982907E+01  0.17354345253E+02  0.23579525684E+02  0.51100000000E-03 0.  1.
        -12    1    3    3    0    0  0.35450272723E+01 -0.40567962830E+01 -0.11874129572E+01  0.55167711547E+01  0.00000000000E+00 0.  1.
</event>
<event>
 7    1  0.5411321E-010  0.4778728E+02  0.7816164E-02  0.1312668E+00
        -11   -1    0    0    0    0  0.00000000000E+00  0.00000000000E+00  0.45593999997E+02  0.45594000000E+02  0.51100000000E-03 0.  1.
         11   -1    0    0    0    0 -0.00000000000E+00 -0.00000000000E+00 -0.45593999997E+02  0.45594000000E+02  0.51100000000E-03 0. -1.
    9900012    2    1    2    0    0  0.35131498624E+02  0.22241972944E+01  0.25386079947E+02  0.47787282215E+02  0.20000050932E+02 0.  0.
         12    1    1    2    0    0 -0.35131498624E+02 -0.22241972944E+01 -0.25386079947E+02  0.43400717785E+02  0.00000000000E+00 0. -1.
         11    1    3    3    0    0  0.77577997589E+01 -0.26126620463E+01 -0.17448157841E+01  0.83698173486E+01  0.51100000000E-03 0. -1.
        -11    1    3    3    0    0  0.18997898885E+02  0.51653774264E+01  0.22282602067E+02  0.29734082147E+02  0.51100000000E-03 0.  1.
        -12    1    3    3    0    0  0.83757999796E+01 -0.32851808573E+00  0.48482936644E+01  0.96833827193E+01  0.00000000000E+00 0.  1.
</event>
<event>
 7    1  0.5411321E-010  0.4778727E+02  0.7816164E-02  0.1312668E+00
        -11   -1    0    0    0    0  0.00000000000E+00  0.00000000000E+00  0.45593999997E+02  0.45594000000E+02  0.51100000000E-03 0.  1.
         11   -1    0    0    0    0 -0.00000000000E+00 -0.00000000000E+00 -0.45593999997E+02  0.45594000000E+02  0.51100000000E-03 0. -1.
    9900012    2    1    2    0    0  0.34177986656E+02  0.20930969245E+02  0.16654819196E+02  0.47787271345E+02  0.20000001368E+02 0.  0.
         12    1    1    2    0    0 -0.34177986656E+02 -0.20930969245E+02 -0.16654819196E+02  0.43400728655E+02  0.00000000000E+00 0. -1.
         11    1    3    3    0    0  0.43114908886E+01  0.10484760465E+02  0.31455026319E+01  0.11764920006E+02  0.51100000000E-03 0.  1.
        -11    1    3    3    0    0  0.18171508928E+02  0.25830005146E+01  0.11815063651E+02  0.21828223879E+02  0.51100000000E-03 0. -1.
         12    1    3    3    0    0  0.11694986839E+02  0.78632082653E+01  0.16942529136E+01  0.14194127459E+02  0.00000000000E+00 0. -1.
</event>
<event>
 7    1  0.5411321E-010  0.4778727E+02  0.7816164E-02  0.1312668E+00
        -11   -1    0    0    0    0  0.00000000000E+00  0.00000000000E+00  0.45593999997E+02  0.45594000000E+02  0.51100000000E-03 0. -1.
         11   -1    0    0    0    0 -0.00000000000E+00 -0.00000000000E+00 -0.45593999997E+02  0.45594000000E+02  0.51100000000E-03 0.  1.
    9900012    2    1    2    0    0  0.25827160008E+02 -0.34729487360E+02 -0.32316738929E+01  0.47787271867E+02  0.20000003749E+02 0.  0.
         12    1    1    2    0    0 -0.25827160008E+02  0.34729487360E+02  0.32316738929E+01  0.43400728133E+02  0.00000000000E+00 0. -1.
         11    1    3    3    0    0  0.30063349741E+00  0.92353347350E+00  0.20059392016E+00  0.99173220093E+00  0.51100000000E-03 0. -1.
        -11    1    3    3    0    0  0.32751579816E+01 -0.29132201788E+01 -0.56463862841E+01  0.71480899508E+01  0.51100000000E-03 0.  1.
        -12    1    3    3    0    0  0.22251368529E+02 -0.32739800654E+02  0.22141184710E+01  0.39647449715E+02  0.00000000000E+00 0.  1.
</event>
<event>
 7    1  0.5411321E-010  0.4778727E+02  0.7816164E-02  0.1312668E+00
        -11   -1    0    0    0    0  0.00000000000E+00  0.00000000000E+00  0.45593999997E+02  0.45594000000E+02  0.51100000000E-03 0.  1.
         11   -1    0    0    0    0 -0.00000000000E+00 -0.00000000000E+00 -0.45593999997E+02  0.45594000000E+02  0.51100000000E-03 0. -1.
    9900012    2    1    2    0    0  0.22043506206E+02 -0.20230868626E+02  0.31439128930E+02  0.47787273750E+02  0.20000012334E+02 0.  0.
         12    1    1    2    0    0 -0.22043506206E+02  0.20230868626E+02 -0.31439128930E+02  0.43400726250E+02  0.00000000000E+00 0. -1.
         11    1    3    3    0    0  0.83665114803E+01  0.88568928660E+00  0.42087570867E+01  0.94072629568E+01  0.51100000000E-03 0. -1.
        -11    1    3    3    0    0  0.14738937364E+02 -0.18726832337E+02  0.21564067800E+02  0.32139376850E+02  0.51100000000E-03 0.  1.
         12    1    3    3    0    0 -0.10619426385E+01 -0.23897255761E+01  0.56663040430E+01  0.62406339425E+01  0.00000000000E+00 0. -1.
</event>
<event>
 7    1  0.5411321E-010  0.4778727E+02  0.7816164E-02  0.1312668E+00
        -11   -1    0    0    0    0  0.00000000000E+00  0.00000000000E+00  0.45593999997E+02  0.45594000000E+02  0.51100000000E-03 0.  1.
         11   -1    0    0    0    0 -0.00000000000E+00 -0.00000000000E+00 -0.45593999997E+02  0.45594000000E+02  0.51100000000E-03 0. -1.
    9900012    2    1    2    0    0  0.14727825246E+02 -0.29791973360E+02  0.27913307628E+02  0.47787271251E+02  0.20000000944E+02 0.  0.
         12    1    1    2    0    0 -0.14727825246E+02  0.29791973360E+02 -0.27913307628E+02  0.43400728749E+02  0.00000000000E+00 0. -1.
         11    1    3    3    0    0  0.15438535981E+00 -0.82699109866E+01  0.31464992155E+01  0.88496169488E+01  0.51100000000E-03 0. -1.
        -11    1    3    3    0    0  0.12574486712E+02 -0.14184746943E+02  0.80924109770E+01  0.20610964985E+02  0.51100000000E-03 0.  1.
        -12    1    3    3    0    0  0.19989531740E+01 -0.73373154300E+01  0.16674397436E+02  0.18326689318E+02  0.00000000000E+00 0.  1.
</event>
<event>
 7    1  0.5411321E-010  0.4778727E+02  0.7816164E-02  0.1312668E+00
        -11   -1    0    0    0    0  0.00000000000E+00  0.00000000000E+00  0.45593999997E+02  0.45594000000E+02  0.51100000000E-03 0. -1.
         11   -1    0    0    0    0 -0.00000000000E+00 -0.00000000000E+00 -0.45593999997E+02  0.45594000000E+02  0.51100000000E-03 0.  1.
    9900012    2    1    2    0    0 -0.36194623892E+01  0.17500185972E+02 -0.39550806736E+02  0.47787270392E+02  0.19999997023E+02 0.  0.
         12    1    1    2    0    0  0.36194623892E+01 -0.17500185972E+02  0.39550806736E+02  0.43400729608E+02  0.00000000000E+00 0. -1.
         11    1    3    3    0    0  0.42454987291E+01  0.80790014601E+01 -0.41414524058E+01  0.10022282791E+02  0.51100000000E-03 0. -1.
        -11    1    3    3    0    0 -0.21463900469E+01  0.31288897535E+01 -0.17933062221E+02  0.18330075347E+02  0.51100000000E-03 0.  1.
         12    1    3    3    0    0 -0.57185710713E+01  0.62922947586E+01 -0.17476292109E+02  0.19434912254E+02  0.00000000000E+00 0. -1.
</event>
<event>
 7    1  0.5411321E-010  0.4778728E+02  0.7816164E-02  0.1312668E+00
        -11   -1    0    0    0    0  0.00000000000E+00  0.00000000000E+00  0.45593999997E+02  0.45594000000E+02  0.51100000000E-03 0.  1.
         11   -1    0    0    0    0 -0.00000000000E+00 -0.00000000000E+00 -0.45593999997E+02  0.45594000000E+02  0.51100000000E-03 0. -1.
    9900012    2    1    2    0    0  0.60566305444E+01 -0.19869881438E+02  0.38106794567E+02  0.47787277032E+02  0.20000027301E+02 0.  0.
         12    1    1    2    0    0 -0.60566305444E+01  0.19869881438E+02 -0.38106794567E+02  0.43400722968E+02  0.00000000000E+00 0. -1.
         11    1    3    3    0    0  0.64402937066E+01 -0.91659494475E+01  0.38690405596E+01  0.11851644924E+02  0.51100000000E-03 0. -1.
        -11    1    3    3    0    0 -0.97843555833E+00 -0.46729214613E+01  0.17284867336E+02  0.17932098879E+02  0.51100000000E-03 0.  1.
         12    1    3    3    0    0  0.59477239608E+00 -0.60310105296E+01  0.16952886672E+02  0.18003533229E+02  0.00000000000E+00 0. -1.
</event>
<event>
 7    1  0.5411321E-010  0.4778726E+02  0.7816164E-02  0.1312668E+00
        -11   -1    0    0    0    0  0.00000000000E+00  0.00000000000E+00  0.45593999997E+02  0.45594000000E+02  0.51100000000E-03 0.  1.
         11   -1    0    0    0    0 -0.00000000000E+00 -0.00000000000E+00 -0.45593999997E+02  0.45594000000E+02  0.51100000000E-03 0. -1.
    9900012    2    1    2    0    0  0.63084350233E+01  0.37459720279E+02  0.20990417477E+02  0.47787255517E+02  0.19999929204E+02 0.  0.
         12    1    1    2    0    0 -0.63084350233E+01 -0.37459720279E+02 -0.20990417477E+02  0.43400744483E+02  0.00000000000E+00 0. -1.
         11    1    3    3    0    0  0.27729388101E+01  0.70331775139E+01  0.10829907865E+02  0.13207637193E+02  0.51100000000E-03 0. -1.
        -11    1    3    3    0    0 -0.50622593163E+00  0.23308625389E+02  0.26385440200E+01  0.23462953715E+02  0.51100000000E-03 0.  1.
         12    1    3    3    0    0  0.40417221448E+01  0.71179173758E+01  0.75219655919E+01  0.11116664609E+02  0.00000000000E+00 0. -1.
</event>
<event>
 7    1  0.5411321E-010  0.4778725E+02  0.7816164E-02  0.1312668E+00
        -11   -1    0    0    0    0  0.00000000000E+00  0.00000000000E+00  0.45593999997E+02  0.45594000000E+02  0.51100000000E-03 0. -1.
         11   -1    0    0    0    0 -0.00000000000E+00 -0.00000000000E+00 -0.45593999997E+02  0.45594000000E+02  0.51100000000E-03 0.  1.
    9900012    2    1    2    0    0 -0.16613170011E+01 -0.21503420389E+02 -0.37662552940E+02  0.47787251659E+02  0.19999911612E+02 0.  0.
         12    1    1    2    0    0  0.16613170011E+01  0.21503420389E+02  0.37662552940E+02  0.43400748341E+02  0.00000000000E+00 0. -1.
         11    1    3    3    0    0  0.84648556347E+01 -0.11640439929E+02 -0.23802671549E+02  0.27815837140E+02  0.51100000000E-03 0.  1.
        -11    1    3    3    0    0 -0.60970390586E+01 -0.73614381073E+01 -0.82585818022E+01  0.12632055650E+02  0.51100000000E-03 0. -1.
        -12    1    3    3    0    0 -0.40291335771E+01 -0.25015423535E+01 -0.56012995888E+01  0.73393588693E+01  0.00000000000E+00 0.  1.
</event>
<event>
 7    1  0.5411321E-010  0.4778727E+02  0.7816164E-02  0.1312668E+00
        -11   -1    0    0    0    0  0.00000000000E+00  0.00000000000E+00  0.45593999997E+02  0.45594000000E+02  0.51100000000E-03 0. -1.
         11   -1    0    0    0    0 -0.00000000000E+00 -0.00000000000E+00 -0.45593999997E+02  0.45594000000E+02  0.51100000000E-03 0.  1.
    9900012    2    1    2    0    0 -0.13790182205E+02  0.40966351562E+02 -0.39003355524E+01  0.47787266101E+02  0.19999977460E+02 0.  0.
         12    1    1    2    0    0  0.13790182205E+02 -0.40966351562E+02  0.39003355524E+01  0.43400733899E+02  0.00000000000E+00 0. -1.
         11    1    3    3    0    0 -0.50875115629E+00 -0.12398583889E+01  0.18496423071E+01  0.22841307951E+01  0.51100000000E-03 0. -1.
        -11    1    3    3    0    0 -0.13661690841E+02  0.31756213292E+02 -0.30574712956E+01  0.34705143859E+02  0.51100000000E-03 0.  1.
        -12    1    3    3    0    0  0.38025979225E+00  0.10449996659E+02 -0.26925065638E+01  0.10797991447E+02  0.00000000000E+00 0.  1.
</event>
<event>
 7    1  0.5411321E-010  0.4778727E+02  0.7816164E-02  0.1312668E+00
        -11   -1    0    0    0    0  0.00000000000E+00  0.00000000000E+00  0.45593999997E+02  0.45594000000E+02  0.51100000000E-03 0.  1.
         11   -1    0    0    0    0 -0.00000000000E+00 -0.00000000000E+00 -0.45593999997E+02  0.45594000000E+02  0.51100000000E-03 0. -1.
    9900012    2    1    2    0    0 -0.13904818127E+02  0.35784458981E+02  0.20242327112E+02  0.47787270989E+02  0.19999999749E+02 0.  0.
         12    1    1    2    0    0  0.13904818127E+02 -0.35784458981E+02 -0.20242327112E+02  0.43400729011E+02  0.00000000000E+00 0. -1.
         11    1    3    3    0    0 -0.85086125742E+00  0.34636970033E+00  0.11315645886E+01  0.14575237659E+01  0.51100000000E-03 0. -1.
        -11    1    3    3    0    0  0.82244613610E+00  0.73005630914E+01  0.12142462486E+02  0.14192041240E+02  0.51100000000E-03 0.  1.
        -12    1    3    3    0    0 -0.13876403006E+02  0.28137526189E+02  0.69683000382E+01  0.32137705983E+02  0.00000000000E+00 0.  1.
</event>
<event>
 7    1  0.5411321E-010  0.4778728E+02  0.7816164E-02  0.1312668E+00
        -11   -1    0    0    0    0  0.00000000000E+00  0.00000000000E+00  0.45593999997E+02  0.45594000000E+02  0.51100000000E-03 0.  1.
         11   -1    0    0    0    0 -0.00000000000E+00 -0.00000000000E+00 -0.45593999997E+02  0.45594000000E+02  0.51100000000E-03 0. -1.
    9900012    2    1    2    0    0 -0.16552458475E+02  0.39932761300E+02 -0.38747001914E+01  0.47787278713E+02  0.20000034966E+02 0.  0.
         12    1    1    2    0    0  0.16552458475E+02 -0.39932761300E+02  0.38747001914E+01  0.43400721287E+02  0.00000000000E+00 0. -1.
         11    1    3    3    0    0  0.18665212868E+01  0.88748771259E+01 -0.53695878242E+01  0.10539441132E+02  0.51100000000E-03 0. -1.
        -11    1    3    3    0    0 -0.17112439982E+02  0.21127346192E+02  0.15366884291E+01  0.27231631806E+02  0.51100000000E-03 0.  1.
        -12    1    3    3    0    0 -0.13065397794E+01  0.99305379827E+01 -0.41800796267E-01  0.10016205775E+02  0.00000000000E+00 0.  1.
</event>
<event>
 7    1  0.5411321E-010  0.4778728E+02  0.7816164E-02  0.1312668E+00
        -11   -1    0    0    0    0  0.00000000000E+00  0.00000000000E+00  0.45593999997E+02  0.45594000000E+02  0.51100000000E-03 0.  1.
         11   -1    0    0    0    0 -0.00000000000E+00 -0.00000000000E+00 -0.45593999997E+02  0.45594000000E+02  0.51100000000E-03 0. -1.
    9900012    2    1    2    0    0 -0.33478291702E+01 -0.30866724324E+02  0.30325899044E+02  0.47787276694E+02  0.20000025757E+02 0.  0.
         12    1    1    2    0    0  0.33478291702E+01  0.30866724324E+02 -0.30325899044E+02  0.43400723306E+02  0.00000000000E+00 0. -1.
         11    1    3    3    0    0 -0.79605320938E+01 -0.29079190539E+02  0.22765993208E+02  0.37779092639E+02  0.51100000000E-03 0.  1.
        -11    1    3    3    0    0  0.27102649469E+00 -0.64270650867E+00 -0.44685015919E+00  0.82837331138E+00  0.51100000000E-03 0. -1.
         12    1    3    3    0    0  0.43416764289E+01 -0.11448272766E+01  0.80067559956E+01  0.91798107431E+01  0.00000000000E+00 0. -1.
</event>
<event>
 7    1  0.5411321E-010  0.4778732E+02  0.7816164E-02  0.1312668E+00
        -11   -1    0    0    0    0  0.00000000000E+00  0.00000000000E+00  0.45593999997E+02  0.45594000000E+02  0.51100000000E-03 0.  1.
         11   -1    0    0    0    0 -0.00000000000E+00 -0.00000000000E+00 -0.45593999997E+02  0.45594000000E+02  0.51100000000E-03 0. -1.
    9900012    2    1    2    0    0 -0.28648305706E+02 -0.32491510475E+02 -0.26823464537E+01  0.47787324253E+02  0.20000242599E+02 0.  0.
         12    1    1    2    0    0  0.28648305706E+02  0.32491510475E+02  0.26823464537E+01  0.43400675747E+02  0.00000000000E+00 0. -1.
         11    1    3    3    0    0 -0.51109369755E+01 -0.18585346505E+01 -0.28761749942E+01  0.61520899435E+01  0.51100000000E-03 0.  1.
        -11    1    3    3    0    0 -0.46130577315E+01 -0.82566033435E+01 -0.66239579065E+01  0.11546801246E+02  0.51100000000E-03 0. -1.
        -12    1    3    3    0    0 -0.18924310999E+02 -0.22376372481E+02  0.68177864470E+01  0.30088433064E+02  0.00000000000E+00 0.  1.
</event>
<event>
 7    1  0.5411321E-010  0.4778727E+02  0.7816164E-02  0.1312668E+00
        -11   -1    0    0    0    0  0.00000000000E+00  0.00000000000E+00  0.45593999997E+02  0.45594000000E+02  0.51100000000E-03 0.  1.
         11   -1    0    0    0    0 -0.00000000000E+00 -0.00000000000E+00 -0.45593999997E+02  0.45594000000E+02  0.51100000000E-03 0. -1.
    9900012    2    1    2    0    0  0.98406844456E+01 -0.12710466610E+02  0.40314116888E+02  0.47787273597E+02  0.20000011639E+02 0.  0.
         12    1    1    2    0    0 -0.98406844456E+01  0.12710466610E+02 -0.40314116888E+02  0.43400726403E+02  0.00000000000E+00 0. -1.
         11    1    3    3    0    0 -0.34855565328E+01 -0.82384182599E+01  0.80540957931E+01  0.12036988788E+02  0.51100000000E-03 0. -1.
        -11    1    3    3    0    0  0.72214976984E+01  0.87200035543E+00  0.14351835639E+02  0.16089922315E+02  0.51100000000E-03 0.  1.
         12    1    3    3    0    0  0.61047432800E+01 -0.53440487060E+01  0.17908185456E+02  0.19660362495E+02  0.00000000000E+00 0. -1.
</event>
<event>
 7    1  0.5411321E-010  0.4778727E+02  0.7816164E-02  0.1312668E+00
        -11   -1    0    0    0    0  0.00000000000E+00  0.00000000000E+00  0.45593999997E+02  0.45594000000E+02  0.51100000000E-03 0.  1.
         11   -1    0    0    0    0 -0.00000000000E+00 -0.00000000000E+00 -0.45593999997E+02  0.45594000000E+02  0.51100000000E-03 0. -1.
    9900012    2    1    2    0    0  0.26055428638E+02  0.29950040375E+01  0.34579872906E+02  0.47787273959E+02  0.20000013291E+02 0.  0.
         12    1    1    2    0    0 -0.26055428638E+02 -0.29950040375E+01 -0.34579872906E+02  0.43400726041E+02  0.00000000000E+00 0. -1.
         11    1    3    3    0    0  0.81319651862E+01 -0.15202970656E+01  0.19373758566E+01  0.84966809066E+01  0.51100000000E-03 0. -1.
        -11    1    3    3    0    0  0.14862532073E+02  0.79277292326E+01  0.22043430932E+02  0.27742685485E+02  0.51100000000E-03 0.  1.
        -12    1    3    3    0    0  0.30609313785E+01 -0.34124281295E+01  0.10599066117E+02  0.11547907568E+02  0.00000000000E+00 0.  1.
</event>
<event>
 7    1  0.5411321E-010  0.4778727E+02  0.7816164E-02  0.1312668E+00
        -11   -1    0    0    0    0  0.00000000000E+00  0.00000000000E+00  0.45593999997E+02  0.45594000000E+02  0.51100000000E-03 0.  1.
         11   -1    0    0    0    0 -0.00000000000E+00 -0.00000000000E+00 -0.45593999997E+02  0.45594000000E+02  0.51100000000E-03 0. -1.
    9900012    2    1    2    0    0  0.13629862231E+02 -0.35432869550E+02  0.21032392836E+02  0.47787274921E+02  0.20000017676E+02 0.  0.
         12    1    1    2    0    0 -0.13629862231E+02  0.35432869550E+02 -0.21032392836E+02  0.43400725079E+02  0.00000000000E+00 0. -1.
         11    1    3    3    0    0  0.78917165254E+01 -0.29820912259E+02  0.14670576472E+02  0.34158334443E+02  0.51100000000E-03 0. -1.
        -11    1    3    3    0    0 -0.19497924969E+00 -0.41126648048E+01  0.62792820718E+01  0.75087557093E+01  0.51100000000E-03 0.  1.
         12    1    3    3    0    0  0.59331249551E+01 -0.14992924859E+01  0.82534292635E-01  0.61201847685E+01  0.00000000000E+00 0. -1.
</event>
<event>
 7    1  0.5411321E-010  0.4778726E+02  0.7816164E-02  0.1312668E+00
        -11   -1    0    0    0    0  0.00000000000E+00  0.00000000000E+00  0.45593999997E+02  0.45594000000E+02  0.51100000000E-03 0.  1.
         11   -1    0    0    0    0 -0.00000000000E+00 -0.00000000000E+00 -0.45593999997E+02  0.45594000000E+02  0.51100000000E-03 0. -1.
    9900012    2    1    2    0    0 -0.35710954899E+02 -0.19493302518E+02  0.15111682472E+02  0.47787261642E+02  0.19999957130E+02 0.  0.
         12    1    1    2    0    0  0.35710954899E+02  0.19493302518E+02 -0.15111682472E+02  0.43400738358E+02  0.00000000000E+00 0. -1.
         11    1    3    3    0    0  0.14504190282E+01  0.14702305645E+00  0.13739187885E+01  0.20032434288E+01  0.51100000000E-03 0. -1.
        -11    1    3    3    0    0 -0.29589240218E+02 -0.15851111394E+02  0.15753061987E+02  0.37080181113E+02  0.51100000000E-03 0.  1.
         12    1    3    3    0    0 -0.75721337092E+01 -0.37892141809E+01 -0.20152983035E+01  0.87038371004E+01  0.00000000000E+00 0. -1.
</event>
<event>
 7    1  0.5411321E-010  0.4778727E+02  0.7816164E-02  0.1312668E+00
        -11   -1    0    0    0    0  0.00000000000E+00  0.00000000000E+00  0.45593999997E+02  0.45594000000E+02  0.51100000000E-03 0.  1.
         11   -1    0    0    0    0 -0.00000000000E+00 -0.00000000000E+00 -0.45593999997E+02  0.45594000000E+02  0.51100000000E-03 0. -1.
    9900012    2    1    2    0    0 -0.61012665663E+01 -0.40699970715E+02  0.13780788718E+02  0.47787271808E+02  0.20000003482E+02 0.  0.
         12    1    1    2    0    0  0.61012665663E+01  0.40699970715E+02 -0.13780788718E+02  0.43400728192E+02  0.00000000000E+00 0. -1.
         11    1    3    3    0    0  0.37384807916E+01 -0.46570664671E+01  0.41002035161E+01  0.72440441635E+01  0.51100000000E-03 0. -1.
        -11    1    3    3    0    0 -0.11575162447E+02 -0.28590338407E+02  0.41960521087E+01  0.31128743782E+02  0.51100000000E-03 0.  1.
        -12    1    3    3    0    0  0.17354150896E+01 -0.74525658410E+01  0.54845330936E+01  0.94144838627E+01  0.00000000000E+00 0.  1.
</event>
<event>
 7    1  0.5411321E-010  0.4778727E+02  0.7816164E-02  0.1312668E+00
        -11   -1    0    0    0    0  0.00000000000E+00  0.00000000000E+00  0.45593999997E+02  0.45594000000E+02  0.51100000000E-03 0.  1.
         11   -1    0    0    0    0 -0.00000000000E+00 -0.00000000000E+00 -0.45593999997E+02  0.45594000000E+02  0.51100000000E-03 0. -1.
    9900012    2    1    2    0    0  0.13761943649E+02 -0.15639614530E+02  0.38074072001E+02  0.47787267352E+02  0.19999983166E+02 0.  0.
         12    1    1    2    0    0 -0.13761943649E+02  0.15639614530E+02 -0.38074072001E+02  0.43400732648E+02  0.00000000000E+00 0. -1.
         11    1    3    3    0    0  0.74315587824E+01 -0.93915706572E+01  0.73025928751E+01  0.14027028492E+02  0.51100000000E-03 0. -1.
        -11    1    3    3    0    0  0.37863365281E+01 -0.87341067315E+01  0.26739505249E+02  0.28383482977E+02  0.51100000000E-03 0.  1.
         12    1    3    3    0    0  0.25440483381E+01  0.24860628591E+01  0.40319738768E+01  0.53767558834E+01  0.00000000000E+00 0. -1.
</event>
<event>
 7    1  0.5411321E-010  0.4778727E+02  0.7816164E-02  0.1312668E+00
        -11   -1    0    0    0    0  0.00000000000E+00  0.00000000000E+00  0.45593999997E+02  0.45594000000E+02  0.51100000000E-03 0.  1.
         11   -1    0    0    0    0 -0.00000000000E+00 -0.00000000000E+00 -0.45593999997E+02  0.45594000000E+02  0.51100000000E-03 0. -1.
    9900012    2    1    2    0    0  0.16626495104E+01  0.15320953015E+02  0.40572491946E+02  0.47787272963E+02  0.20000008746E+02 0.  0.
         12    1    1    2    0    0 -0.16626495104E+01 -0.15320953015E+02 -0.40572491946E+02  0.43400727037E+02  0.00000000000E+00 0. -1.
         11    1    3    3    0    0 -0.12313183756E+01  0.43070967883E+01 -0.36837804112E+00  0.44947669938E+01  0.51100000000E-03 0. -1.
        -11    1    3    3    0    0  0.34192171831E+01  0.77394814881E+01  0.37763532526E+02  0.38699806317E+02  0.51100000000E-03 0.  1.
         12    1    3    3    0    0 -0.52524929707E+00  0.32743747389E+01  0.31773374603E+01  0.45926996518E+01  0.00000000000E+00 0. -1.
</event>
<event>
 7    1  0.5411321E-010  0.4778728E+02  0.7816164E-02  0.1312668E+00
        -11   -1    0    0    0    0  0.00000000000E+00  0.00000000000E+00  0.45593999997E+02  0.45594000000E+02  0.51100000000E-03 0.  1.
         11   -1    0    0    0    0 -0.00000000000E+00 -0.00000000000E+00 -0.45593999997E+02  0.45594000000E+02  0.51100000000E-03 0. -1.
    9900012    2    1    2    0    0  0.15511581748E+02 -0.24910173223E+02  0.31976494602E+02  0.47787284507E+02  0.20000061380E+02 0.  0.
         12    1    1    2    0    0 -0.15511581748E+02  0.24910173223E+02 -0.31976494602E+02  0.43400715493E+02  0.00000000000E+00 0. -1.
         11    1    3    3    0    0  0.25997170530E+01 -0.13279511238E+02  0.95649785374E+01  0.16570840719E+02  0.51100000000E-03 0. -1.
        -11    1    3    3    0    0  0.12103426751E+02 -0.56755632752E+01  0.79438451694E+01  0.15550229386E+02  0.51100000000E-03 0.  1.
        -12    1    3    3    0    0  0.80843794397E+00 -0.59550987102E+01  0.14467670895E+02  0.15666214402E+02  0.00000000000E+00 0.  1.
</event>
<event>
 7    1  0.5411321E-010  0.4778727E+02  0.7816164E-02  0.1312668E+00
        -11   -1    0    0    0    0  0.00000000000E+00  0.00000000000E+00  0.45593999997E+02  0.45594000000E+02  0.51100000000E-03 0.  1.
         11   -1    0    0    0    0 -0.00000000000E+00 -0.00000000000E+00 -0.45593999997E+02  0.45594000000E+02  0.51100000000E-03 0. -1.
    9900012    2    1    2    0    0 -0.34646718066E+02 -0.24990015569E+02  0.76633765904E+01  0.47787270839E+02  0.19999999066E+02 0.  0.
         12    1    1    2    0    0  0.34646718066E+02  0.24990015569E+02 -0.76633765904E+01  0.43400729161E+02  0.00000000000E+00 0. -1.
         11    1    3    3    0    0 -0.17824268035E+01 -0.66348892679E+01  0.38721856040E+01  0.78862299307E+01  0.51100000000E-03 0. -1.
        -11    1    3    3    0    0 -0.30231699605E+02 -0.15008426451E+02  0.71215407810E+01  0.34495287634E+02  0.51100000000E-03 0.  1.
         12    1    3    3    0    0 -0.26325916577E+01 -0.33466998495E+01 -0.33303497945E+01  0.54057532753E+01  0.00000000000E+00 0. -1.
</event>
<event>
 7    1  0.5411321E-010  0.4778727E+02  0.7816164E-02  0.1312668E+00
        -11   -1    0    0    0    0  0.00000000000E+00  0.00000000000E+00  0.45593999997E+02  0.45594000000E+02  0.51100000000E-03 0. -1.
         11   -1    0    0    0    0 -0.00000000000E+00 -0.00000000000E+00 -0.45593999997E+02  0.45594000000E+02  0.51100000000E-03 0.  1.
    9900012    2    1    2    0    0  0.29022859647E+01 -0.41418263009E+02 -0.12638333579E+02  0.47787271318E+02  0.20000001247E+02 0.  0.
         12    1    1    2    0    0 -0.29022859647E+01  0.41418263009E+02  0.12638333579E+02  0.43400728682E+02  0.00000000000E+00 0. -1.
         11    1    3    3    0    0 -0.10000821788E+01  0.79901300984E+00  0.34174572654E+00  0.13249062446E+01  0.51100000000E-03 0. -1.
        -11    1    3    3    0    0 -0.42098144805E-01 -0.37631511050E+02 -0.14325004719E+02  0.40265843548E+02  0.51100000000E-03 0.  1.
        -12    1    3    3    0    0  0.39444662883E+01 -0.45857649688E+01  0.13449254137E+01  0.61965215256E+01  0.00000000000E+00 0.  1.
</event>
<event>
 7    1  0.5411321E-010  0.4778727E+02  0.7816164E-02  0.1312668E+00
        -11   -1    0    0    0    0  0.00000000000E+00  0.00000000000E+00  0.45593999997E+02  0.45594000000E+02  0.51100000000E-03 0.  1.
         11   -1    0    0    0    0 -0.00000000000E+00 -0.00000000000E+00 -0.45593999997E+02  0.45594000000E+02  0.51100000000E-03 0. -1.
    9900012    2    1    2    0    0  0.26320516807E+02 -0.24542762271E+02  0.24259150894E+02  0.47787272046E+02  0.20000004565E+02 0.  0.
         12    1    1    2    0    0 -0.26320516807E+02  0.24542762271E+02 -0.24259150894E+02  0.43400727954E+02  0.00000000000E+00 0. -1.
         11    1    3    3    0    0  0.92140072304E+01 -0.11342448269E+02  0.20039233120E+02  0.24801611364E+02  0.51100000000E-03 0. -1.
        -11    1    3    3    0    0  0.10473322028E+02 -0.63243120073E+01 -0.66998875066E+00  0.12253011134E+02  0.51100000000E-03 0.  1.
        -12    1    3    3    0    0  0.66331875487E+01 -0.68760019939E+01  0.48899065253E+01  0.10732649547E+02  0.00000000000E+00 0.  1.
</event>
<event>
 7    1  0.5411321E-010  0.4778727E+02  0.7816164E-02  0.1312668E+00
        -11   -1    0    0    0    0  0.00000000000E+00  0.00000000000E+00  0.45593999997E+02  0.45594000000E+02  0.51100000000E-03 0. -1.
         11   -1    0    0    0    0 -0.00000000000E+00 -0.00000000000E+00 -0.45593999997E+02  0.45594000000E+02  0.51100000000E-03 0.  1.
    9900012    2    1    2    0    0 -0.66744504762E+01  0.14882678697E+01 -0.42858603065E+02  0.47787273196E+02  0.20000009809E+02 0.  0.
         12    1    1    2    0    0  0.66744504762E+01 -0.14882678697E+01  0.42858603065E+02  0.43400726804E+02  0.00000000000E+00 0. -1.
         11    1    3    3    0    0 -0.62565104967E+01 -0.40406473512E+01 -0.55694048423E+01  0.92999475897E+01  0.51100000000E-03 0. -1.
        -11    1    3    3    0    0 -0.17533271630E+01  0.21180112785E+01 -0.31609665048E+02  0.31729025397E+02  0.51100000000E-03 0.  1.
         12    1    3    3    0    0  0.13353871835E+01  0.34109039424E+01 -0.56795331748E+01  0.67583002092E+01  0.00000000000E+00 0. -1.
</event>
<event>
 7    1  0.5411321E-010  0.4778727E+02  0.7816164E-02  0.1312668E+00
        -11   -1    0    0    0    0  0.00000000000E+00  0.00000000000E+00  0.45593999997E+02  0.45594000000E+02  0.51100000000E-03 0.  1.
         11   -1    0    0    0    0 -0.00000000000E+00 -0.00000000000E+00 -0.45593999997E+02  0.45594000000E+02  0.51100000000E-03 0. -1.
    9900012    2    1    2    0    0 -0.40940703141E+01  0.35126198929E+02  0.25159733131E+02  0.47787269198E+02  0.19999991582E+02 0.  0.
         12    1    1    2    0    0  0.40940703141E+01 -0.35126198929E+02 -0.25159733131E+02  0.43400730802E+02  0.00000000000E+00 0. -1.
         11    1    3    3    0    0 -0.61442376523E+01  0.14365626291E+02  0.33239907041E+01  0.15974097456E+02  0.51100000000E-03 0. -1.
        -11    1    3    3    0    0  0.50975331890E+01  0.14306387203E+02  0.10669105659E+02  0.18560371096E+02  0.51100000000E-03 0.  1.
         12    1    3    3    0    0 -0.30473658508E+01  0.64541854346E+01  0.11166636768E+02  0.13252800646E+02  0.00000000000E+00 0. -1.
</event>
<event>
 7    1  0.5411321E-010  0.4778726E+02  0.7816164E-02  0.1312668E+00
        -11   -1    0    0    0    0  0.00000000000E+00  0.00000000000E+00  0.45593999997E+02  0.45594000000E+02  0.51100000000E-03 0.  1.
         11   -1    0    0    0    0 -0.00000000000E+00 -0.00000000000E+00 -0.45593999997E+02  0.45594000000E+02  0.51100000000E-03 0. -1.
    9900012    2    1    2    0    0 -0.12320575691E+02 -0.31087736065E+02  0.27665501439E+02  0.47787263960E+02  0.19999967698E+02 0.  0.
         12    1    1    2    0    0  0.12320575691E+02  0.31087736065E+02 -0.27665501439E+02  0.43400736040E+02  0.00000000000E+00 0. -1.
         11    1    3    3    0    0  0.22399053547E+01 -0.12123320894E+02  0.91174953229E+01  0.15333649491E+02  0.51100000000E-03 0. -1.
        -11    1    3    3    0    0 -0.12819387722E+02 -0.19551494967E+02  0.13309962620E+02  0.26902653442E+02  0.51100000000E-03 0.  1.
        -12    1    3    3    0    0 -0.17410933237E+01  0.58707979672E+00  0.52380434960E+01  0.55509610263E+01  0.00000000000E+00 0.  1.
</event>
<event>
 7    1  0.5411321E-010  0.4778727E+02  0.7816164E-02  0.1312668E+00
        -11   -1    0    0    0    0  0.00000000000E+00  0.00000000000E+00  0.45593999997E+02  0.45594000000E+02  0.51100000000E-03 0.  1.
         11   -1    0    0    0    0 -0.00000000000E+00 -0.00000000000E+00 -0.45593999997E+02  0.45594000000E+02  0.51100000000E-03 0. -1.
    9900012    2    1    2    0    0 -0.17073146696E+02  0.19043693883E+02  0.35063777429E+02  0.47787273020E+02  0.20000009007E+02 0.  0.
         12    1    1    2    0    0  0.17073146696E+02 -0.19043693883E+02 -0.35063777429E+02  0.43400726980E+02  0.00000000000E+00 0. -1.
         11    1    3    3    0    0 -0.12727557204E+02  0.89306402678E+00  0.89576477350E+01  0.15589346649E+02  0.51100000000E-03 0. -1.
        -11    1    3    3    0    0 -0.11009013365E+01  0.52433465365E+01  0.55882652694E+01  0.77416649137E+01  0.51100000000E-03 0.  1.
         12    1    3    3    0    0 -0.32446881560E+01  0.12907283320E+02  0.20517864425E+02  0.24456261457E+02  0.00000000000E+00 0. -1.
</event>
<event>
 7    1  0.5411321E-010  0.4778727E+02  0.7816164E-02  0.1312668E+00
        -11   -1    0    0    0    0  0.00000000000E+00  0.00000000000E+00  0.45593999997E+02  0.45594000000E+02  0.51100000000E-03 0. -1.
         11   -1    0    0    0    0 -0.00000000000E+00 -0.00000000000E+00 -0.45593999997E+02  0.45594000000E+02  0.51100000000E-03 0.  1.
    9900012    2    1    2    0    0 -0.33120295101E+02  0.56473295872E+01 -0.27473207613E+02  0.47787269412E+02  0.19999992556E+02 0.  0.
         12    1    1    2    0    0  0.33120295101E+02 -0.56473295872E+01  0.27473207613E+02  0.43400730588E+02  0.00000000000E+00 0. -1.
         11    1    3    3    0    0 -0.15391782860E+01 -0.32319952210E+01  0.11411641485E+01  0.37572754463E+01  0.51100000000E-03 0. -1.
        -11    1    3    3    0    0 -0.21525920267E+02  0.27841132801E+01 -0.18421758151E+02  0.28468890103E+02  0.51100000000E-03 0.  1.
         12    1    3    3    0    0 -0.10055196548E+02  0.60952115281E+01 -0.10192613611E+02  0.15561103862E+02  0.00000000000E+00 0. -1.
</event>
<event>
 7    1  0.5411321E-010  0.4778726E+02  0.7816164E-02  0.1312668E+00
        -11   -1    0    0    0    0  0.00000000000E+00  0.00000000000E+00  0.45593999997E+02  0.45594000000E+02  0.51100000000E-03 0.  1.
         11   -1    0    0    0    0 -0.00000000000E+00 -0.00000000000E+00 -0.45593999997E+02  0.45594000000E+02  0.51100000000E-03 0. -1.
    9900012    2    1    2    0    0  0.16439726075E+02  0.33396822410E+02  0.22316171086E+02  0.47787264609E+02  0.19999970660E+02 0.  0.
         12    1    1    2    0    0 -0.16439726075E+02 -0.33396822410E+02 -0.22316171086E+02  0.43400735391E+02  0.00000000000E+00 0. -1.
         11    1    3    3    0    0 -0.49827989572E+00  0.48543354148E+01 -0.25760448294E+01  0.55180487854E+01  0.51100000000E-03 0. -1.
        -11    1    3    3    0    0  0.15351907894E+02  0.24156520359E+02  0.17559978268E+02  0.33579329786E+02  0.51100000000E-03 0.  1.
         12    1    3    3    0    0  0.15860980767E+01  0.43859666367E+01  0.73322376466E+01  0.86898860381E+01  0.00000000000E+00 0. -1.
</event>
<event>
 7    1  0.5411321E-010  0.4778727E+02  0.7816164E-02  0.1312668E+00
        -11   -1    0    0    0    0  0.00000000000E+00  0.00000000000E+00  0.45593999997E+02  0.45594000000E+02  0.51100000000E-03 0. -1.
         11   -1    0    0    0    0 -0.00000000000E+00 -0.00000000000E+00 -0.45593999997E+02  0.45594000000E+02  0.51100000000E-03 0.  1.
    9900012    2    1    2    0    0  0.10979728978E+02  0.15547585385E+02 -0.39004376999E+02  0.47787270919E+02  0.19999999427E+02 0.  0.
         12    1    1    2    0    0 -0.10979728978E+02 -0.15547585385E+02  0.39004376999E+02  0.43400729081E+02  0.00000000000E+00 0. -1.
         11    1    3    3    0    0  0.38933051484E+01  0.23660135483E+01 -0.24947986626E+02  0.25360557605E+02  0.51100000000E-03 0. -1.
        -11    1    3    3    0    0  0.63974231043E+01  0.29150203570E+01 -0.71934618980E+01  0.10058342826E+02  0.51100000000E-03 0.  1.
         12    1    3    3    0    0  0.68900072527E+00  0.10266551479E+02 -0.68629284745E+01  0.12368370488E+02  0.00000000000E+00 0. -1.
</event>
<event>
 7    1  0.5411321E-010  0.4778727E+02  0.7816164E-02  0.1312668E+00
        -11   -1    0    0    0    0  0.00000000000E+00  0.00000000000E+00  0.45593999997E+02  0.45594000000E+02  0.51100000000E-03 0.  1.
         11   -1    0    0    0    0 -0.00000000000E+00 -0.00000000000E+00 -0.45593999997E+02  0.45594000000E+02  0.51100000000E-03 0. -1.
    9900012    2    1    2    0    0 -0.11734292785E+02  0.41646976473E+02  0.33851348405E+01  0.47787269426E+02  0.19999992620E+02 0.  0.
         12    1    1    2    0    0  0.11734292785E+02 -0.41646976473E+02 -0.33851348405E+01  0.43400730574E+02  0.00000000000E+00 0. -1.
         11    1    3    3    0    0  0.21074005544E+01 -0.90714147741E+00 -0.92313620343E+00  0.24730999713E+01  0.51100000000E-03 0. -1.
        -11    1    3    3    0    0 -0.13278298089E+02  0.33791780443E+02  0.40218316797E+01  0.36529067275E+02  0.51100000000E-03 0.  1.
        -12    1    3    3    0    0 -0.56339525038E+00  0.87623375070E+01  0.28643936416E+00  0.87851021795E+01  0.00000000000E+00 0.  1.
</event>
<event>
 7    1  0.5411321E-010  0.4778727E+02  0.7816164E-02  0.1312668E+00
        -11   -1    0    0    0    0  0.00000000000E+00  0.00000000000E+00  0.45593999997E+02  0.45594000000E+02  0.51100000000E-03 0. -1.
         11   -1    0    0    0    0 -0.00000000000E+00 -0.00000000000E+00 -0.45593999997E+02  0.45594000000E+02  0.51100000000E-03 0.  1.
    9900012    2    1    2    0    0  0.27814446272E+02  0.32722790164E+02 -0.62609039344E+01  0.47787270333E+02  0.19999996756E+02 0.  0.
         12    1    1    2    0    0 -0.27814446272E+02 -0.32722790164E+02  0.62609039344E+01  0.43400729667E+02  0.00000000000E+00 0. -1.
         11    1    3    3    0    0  0.22361724920E+01  0.33438969792E+01 -0.75868383339E+01  0.85873296541E+01  0.51100000000E-03 0. -1.
        -11    1    3    3    0    0  0.18594911247E+02  0.19849930483E+02 -0.72791537462E+00  0.27208828080E+02  0.51100000000E-03 0.  1.
         12    1    3    3    0    0  0.69833625335E+01  0.95289627026E+01  0.20538497742E+01  0.11991112599E+02  0.00000000000E+00 0. -1.
</event>
<event>
 7    1  0.5411321E-010  0.4778727E+02  0.7816164E-02  0.1312668E+00
        -11   -1    0    0    0    0  0.00000000000E+00  0.00000000000E+00  0.45593999997E+02  0.45594000000E+02  0.51100000000E-03 0.  1.
         11   -1    0    0    0    0 -0.00000000000E+00 -0.00000000000E+00 -0.45593999997E+02  0.45594000000E+02  0.51100000000E-03 0. -1.
    9900012    2    1    2    0    0 -0.16584778959E+02 -0.76969583971E+01  0.39361469970E+02  0.47787269823E+02  0.19999994433E+02 0.  0.
         12    1    1    2    0    0  0.16584778959E+02  0.76969583971E+01 -0.39361469970E+02  0.43400730177E+02  0.00000000000E+00 0. -1.
         11    1    3    3    0    0 -0.88376347652E+01  0.38068514313E+01  0.76913480936E+01  0.12318796281E+02  0.51100000000E-03 0. -1.
        -11    1    3    3    0    0 -0.37527289234E+01 -0.14721544805E+01  0.15565960752E+02  0.16079469755E+02  0.51100000000E-03 0.  1.
         12    1    3    3    0    0 -0.39944152703E+01 -0.10031655348E+02  0.16104161124E+02  0.19389003788E+02  0.00000000000E+00 0. -1.
</event>
<event>
 7    1  0.5411321E-010  0.4778727E+02  0.7816164E-02  0.1312668E+00
        -11   -1    0    0    0    0  0.00000000000E+00  0.00000000000E+00  0.45593999997E+02  0.45594000000E+02  0.51100000000E-03 0. -1.
         11   -1    0    0    0    0 -0.00000000000E+00 -0.00000000000E+00 -0.45593999997E+02  0.45594000000E+02  0.51100000000E-03 0.  1.
    9900012    2    1    2    0    0  0.36396484917E+02  0.19763728483E+02 -0.12973593263E+02  0.47787271896E+02  0.20000003881E+02 0.  0.
         12    1    1    2    0    0 -0.36396484917E+02 -0.19763728483E+02  0.12973593263E+02  0.43400728104E+02  0.00000000000E+00 0. -1.
         11    1    3    3    0    0  0.18319594436E+02  0.35740750335E+01 -0.95576174830E+01  0.20969730682E+02  0.51100000000E-03 0. -1.
        -11    1    3    3    0    0  0.67705688813E+01  0.13045768967E+02 -0.33823517756E+01  0.15082207886E+02  0.51100000000E-03 0.  1.
         12    1    3    3    0    0  0.11306321599E+02  0.31438844829E+01 -0.33624004014E-01  0.11735333328E+02  0.00000000000E+00 0. -1.
</event>
<event>
 7    1  0.5411321E-010  0.4778728E+02  0.7816164E-02  0.1312668E+00
        -11   -1    0    0    0    0  0.00000000000E+00  0.00000000000E+00  0.45593999997E+02  0.45594000000E+02  0.51100000000E-03 0. -1.
         11   -1    0    0    0    0 -0.00000000000E+00 -0.00000000000E+00 -0.45593999997E+02  0.45594000000E+02  0.51100000000E-03 0.  1.
    9900012    2    1    2    0    0  0.28182784858E+02 -0.27887680095E+02 -0.17653067141E+02  0.47787276010E+02  0.20000022639E+02 0.  0.
         12    1    1    2    0    0 -0.28182784858E+02  0.27887680095E+02  0.17653067141E+02  0.43400723990E+02  0.00000000000E+00 0. -1.
         11    1    3    3    0    0  0.11386645122E+02 -0.59619727972E+01  0.22324768229E+00  0.12854985280E+02  0.51100000000E-03 0. -1.
        -11    1    3    3    0    0  0.47586316292E+01 -0.14893866582E+02 -0.12394571697E+02  0.19952374409E+02  0.51100000000E-03 0.  1.
         12    1    3    3    0    0  0.12037508106E+02 -0.70318407153E+01 -0.54817431263E+01  0.14979916320E+02  0.00000000000E+00 0. -1.
</event>
<event>
 7    1  0.5411321E-010  0.4778727E+02  0.7816164E-02  0.1312668E+00
        -11   -1    0    0    0    0  0.00000000000E+00  0.00000000000E+00  0.45593999997E+02  0.45594000000E+02  0.51100000000E-03 0.  1.
         11   -1    0    0    0    0 -0.00000000000E+00 -0.00000000000E+00 -0.45593999997E+02  0.45594000000E+02  0.51100000000E-03 0. -1.
    9900012    2    1    2    0    0 -0.35100102128E+02 -0.25433759685E+02  0.21748765090E+01  0.47787269719E+02  0.19999993955E+02 0.  0.
         12    1    1    2    0    0  0.35100102128E+02  0.25433759685E+02 -0.21748765090E+01  0.43400730281E+02  0.00000000000E+00 0. -1.
         11    1    3    3    0    0 -0.12577964934E+02 -0.11859849174E+02  0.70467393354E+01  0.18668630368E+02  0.51100000000E-03 0. -1.
        -11    1    3    3    0    0 -0.42936786641E+01 -0.21564248764E+01 -0.58710135835E+01  0.75864778044E+01  0.51100000000E-03 0.  1.
        -12    1    3    3    0    0 -0.18228458530E+02 -0.11417485635E+02  0.99915075716E+00  0.21532161546E+02  0.00000000000E+00 0.  1.
</event>
<event>
 7    1  0.5411321E-010  0.4778727E+02  0.7816164E-02  0.1312668E+00
        -11   -1    0    0    0    0  0.00000000000E+00  0.00000000000E+00  0.45593999997E+02  0.45594000000E+02  0.51100000000E-03 0.  1.
         11   -1    0    0    0    0 -0.00000000000E+00 -0.00000000000E+00 -0.45593999997E+02  0.45594000000E+02  0.51100000000E-03 0. -1.
    9900012    2    1    2    0    0  0.28626311194E+02 -0.11630304437E+02  0.30477756739E+02  0.47787270401E+02  0.19999997065E+02 0.  0.
         12    1    1    2    0    0 -0.28626311194E+02  0.11630304437E+02 -0.30477756739E+02  0.43400729599E+02  0.00000000000E+00 0. -1.
         11    1    3    3    0    0  0.28056303017E+01 -0.17973176291E+01  0.73673600134E-01  0.33327676352E+01  0.51100000000E-03 0. -1.
        -11    1    3    3    0    0  0.69470069130E+01  0.30616929956E+01  0.17334218198E+01  0.77871445675E+01  0.51100000000E-03 0.  1.
        -12    1    3    3    0    0  0.18873673980E+02 -0.12894679803E+02  0.28670661319E+02  0.36667358198E+02  0.00000000000E+00 0.  1.
</event>
<event>
 7    1  0.5411321E-010  0.4778727E+02  0.7816164E-02  0.1312668E+00
        -11   -1    0    0    0    0  0.00000000000E+00  0.00000000000E+00  0.45593999997E+02  0.45594000000E+02  0.51100000000E-03 0.  1.
         11   -1    0    0    0    0 -0.00000000000E+00 -0.00000000000E+00 -0.45593999997E+02  0.45594000000E+02  0.51100000000E-03 0. -1.
    9900012    2    1    2    0    0 -0.22455897609E+02 -0.35668299414E+02 -0.10350281178E+02  0.47787271424E+02  0.20000001730E+02 0.  0.
         12    1    1    2    0    0  0.22455897609E+02  0.35668299414E+02  0.10350281178E+02  0.43400728576E+02  0.00000000000E+00 0. -1.
         11    1    3    3    0    0 -0.10204019096E+02 -0.19283556525E+02 -0.12495750931E+02  0.25142023578E+02  0.51100000000E-03 0. -1.
        -11    1    3    3    0    0 -0.43479813974E+01 -0.12720439277E+02  0.33400810506E+01  0.13851738495E+02  0.51100000000E-03 0.  1.
        -12    1    3    3    0    0 -0.79038971154E+01 -0.36643036107E+01 -0.11946112974E+01  0.87935093514E+01  0.00000000000E+00 0.  1.
</event>
<event>
 7    1  0.5411321E-010  0.4778727E+02  0.7816164E-02  0.1312668E+00
        -11   -1    0    0    0    0  0.00000000000E+00  0.00000000000E+00  0.45593999997E+02  0.45594000000E+02  0.51100000000E-03 0. -1.
         11   -1    0    0    0    0 -0.00000000000E+00 -0.00000000000E+00 -0.45593999997E+02  0.45594000000E+02  0.51100000000E-03 0.  1.
    9900012    2    1    2    0    0 -0.33224768027E+02  0.20171438269E+02  0.19309360737E+02  0.47787267928E+02  0.19999985792E+02 0.  0.
         12    1    1    2    0    0  0.33224768027E+02 -0.20171438269E+02 -0.19309360737E+02  0.43400732072E+02  0.00000000000E+00 0. -1.
         11    1    3    3    0    0  0.16456014862E+01  0.23064935579E+00 -0.17158162880E+01  0.23885621557E+01  0.51100000000E-03 0. -1.
        -11    1    3    3    0    0 -0.29553034763E+01  0.15398409192E+01  0.10610969726E+01  0.34972640363E+01  0.51100000000E-03 0.  1.
         12    1    3    3    0    0 -0.31915066037E+02  0.18400947994E+02  0.19964080052E+02  0.41901441736E+02  0.00000000000E+00 0. -1.
</event>
<event>
 7    1  0.5411321E-010  0.4778727E+02  0.7816164E-02  0.1312668E+00
        -11   -1    0    0    0    0  0.00000000000E+00  0.00000000000E+00  0.45593999997E+02  0.45594000000E+02  0.51100000000E-03 0.  1.
         11   -1    0    0    0    0 -0.00000000000E+00 -0.00000000000E+00 -0.45593999997E+02  0.45594000000E+02  0.51100000000E-03 0. -1.
    9900012    2    1    2    0    0  0.36530053264E+02  0.35725627296E+01  0.23160642773E+02  0.47787269942E+02  0.19999994975E+02 0.  0.
         12    1    1    2    0    0 -0.36530053264E+02 -0.35725627296E+01 -0.23160642773E+02  0.43400730058E+02  0.00000000000E+00 0. -1.
         11    1    3    3    0    0  0.35337007503E+01  0.60190018276E+01  0.16707793905E+01  0.71768327294E+01  0.51100000000E-03 0. -1.
        -11    1    3    3    0    0  0.25337635287E+02 -0.58622782122E+01  0.15152234092E+02  0.30099040948E+02  0.51100000000E-03 0.  1.
        -12    1    3    3    0    0  0.76587172265E+01  0.34158391142E+01  0.63376292906E+01  0.10511396265E+02  0.00000000000E+00 0.  1.
</event>
<event>
 7    1  0.5411321E-010  0.4778727E+02  0.7816164E-02  0.1312668E+00
        -11   -1    0    0    0    0  0.00000000000E+00  0.00000000000E+00  0.45593999997E+02  0.45594000000E+02  0.51100000000E-03 0.  1.
         11   -1    0    0    0    0 -0.00000000000E+00 -0.00000000000E+00 -0.45593999997E+02  0.45594000000E+02  0.51100000000E-03 0. -1.
    9900012    2    1    2    0    0 -0.22002053088E+02 -0.32968894167E+02  0.17680072454E+02  0.47787270920E+02  0.19999999434E+02 0.  0.
         12    1    1    2    0    0  0.22002053088E+02  0.32968894167E+02 -0.17680072454E+02  0.43400729080E+02  0.00000000000E+00 0. -1.
         11    1    3    3    0    0  0.20130336443E+00 -0.16223021400E+00  0.12015128510E+01  0.12290138645E+01  0.51100000000E-03 0. -1.
        -11    1    3    3    0    0 -0.11889027294E+02 -0.86691898660E+01  0.13800392061E+02  0.20173116869E+02  0.51100000000E-03 0.  1.
        -12    1    3    3    0    0 -0.10314329158E+02 -0.24137474087E+02  0.26781675421E+01  0.26385140186E+02  0.00000000000E+00 0.  1.
</event>
<event>
 7    1  0.5411321E-010  0.4778727E+02  0.7816164E-02  0.1312668E+00
        -11   -1    0    0    0    0  0.00000000000E+00  0.00000000000E+00  0.45593999997E+02  0.45594000000E+02  0.51100000000E-03 0.  1.
         11   -1    0    0    0    0 -0.00000000000E+00 -0.00000000000E+00 -0.45593999997E+02  0.45594000000E+02  0.51100000000E-03 0. -1.
    9900012    2    1    2    0    0  0.42559715039E+02  0.64166347019E+01 -0.55786082566E+01  0.47787269416E+02  0.19999992577E+02 0.  0.
         12    1    1    2    0    0 -0.42559715039E+02 -0.64166347019E+01  0.55786082566E+01  0.43400730584E+02  0.00000000000E+00 0. -1.
         11    1    3    3    0    0  0.38974804464E+01 -0.35574427662E+01 -0.48057182034E+01  0.71372740298E+01  0.51100000000E-03 0. -1.
        -11    1    3    3    0    0  0.24547132745E+02  0.26663849030E+01  0.57614276309E+00  0.24698244375E+02  0.51100000000E-03 0.  1.
         12    1    3    3    0    0  0.14115101847E+02  0.73076925651E+01 -0.13490328163E+01  0.15951751011E+02  0.00000000000E+00 0. -1.
</event>
<event>
 7    1  0.5411321E-010  0.4778728E+02  0.7816164E-02  0.1312668E+00
        -11   -1    0    0    0    0  0.00000000000E+00  0.00000000000E+00  0.45593999997E+02  0.45594000000E+02  0.51100000000E-03 0.  1.
         11   -1    0    0    0    0 -0.00000000000E+00 -0.00000000000E+00 -0.45593999997E+02  0.45594000000E+02  0.51100000000E-03 0. -1.
    9900012    2    1    2    0    0 -0.68024194217E+01  0.40916621306E+01  0.42668577455E+02  0.47787284441E+02  0.20000061082E+02 0.  0.
         12    1    1    2    0    0  0.68024194217E+01 -0.40916621306E+01 -0.42668577455E+02  0.43400715559E+02  0.00000000000E+00 0. -1.
         11    1    3    3    0    0 -0.64829281561E+01  0.10699542916E+02  0.17205852812E+02  0.21273221367E+02  0.51100000000E-03 0. -1.
        -11    1    3    3    0    0 -0.13593098727E+01 -0.57995080234E+01  0.18753453977E+02  0.19676738881E+02  0.51100000000E-03 0.  1.
         12    1    3    3    0    0  0.10398186071E+01 -0.80837276218E+00  0.67092706657E+01  0.68373241932E+01  0.00000000000E+00 0. -1.
</event>
<event>
 7    1  0.5411321E-010  0.4778727E+02  0.7816164E-02  0.1312668E+00
        -11   -1    0    0    0    0  0.00000000000E+00  0.00000000000E+00  0.45593999997E+02  0.45594000000E+02  0.51100000000E-03 0.  1.
         11   -1    0    0    0    0 -0.00000000000E+00 -0.00000000000E+00 -0.45593999997E+02  0.45594000000E+02  0.51100000000E-03 0. -1.
    9900012    2    1    2    0    0 -0.18389626661E+02 -0.17343730506E+02  0.35279454535E+02  0.47787271102E+02  0.20000000262E+02 0.  0.
         12    1    1    2    0    0  0.18389626661E+02  0.17343730506E+02 -0.35279454535E+02  0.43400728898E+02  0.00000000000E+00 0. -1.
         11    1    3    3    0    0 -0.28371556484E+01 -0.26883276739E+00  0.14758758075E+01  0.32093508518E+01  0.51100000000E-03 0. -1.
        -11    1    3    3    0    0 -0.10339413356E+02 -0.56854784183E+01  0.43574066777E+01  0.12578359457E+02  0.51100000000E-03 0.  1.
        -12    1    3    3    0    0 -0.52130576560E+01 -0.11389419320E+02  0.29446172050E+02  0.31999560793E+02  0.00000000000E+00 0.  1.
</event>
<event>
 7    1  0.5411321E-010  0.4778727E+02  0.7816164E-02  0.1312668E+00
        -11   -1    0    0    0    0  0.00000000000E+00  0.00000000000E+00  0.45593999997E+02  0.45594000000E+02  0.51100000000E-03 0.  1.
         11   -1    0    0    0    0 -0.00000000000E+00 -0.00000000000E+00 -0.45593999997E+02  0.45594000000E+02  0.51100000000E-03 0. -1.
    9900012    2    1    2    0    0 -0.20393418751E+02 -0.16740525204E+02  0.34459925737E+02  0.47787271962E+02  0.20000004182E+02 0.  0.
         12    1    1    2    0    0  0.20393418751E+02  0.16740525204E+02 -0.34459925737E+02  0.43400728038E+02  0.00000000000E+00 0. -1.
         11    1    3    3    0    0 -0.17720513678E+02 -0.14195591059E+02  0.17575060564E+02  0.28712613337E+02  0.51100000000E-03 0. -1.
        -11    1    3    3    0    0 -0.55731478455E+01 -0.15323130416E+01  0.10375113472E+02  0.11876486854E+02  0.51100000000E-03 0.  1.
         12    1    3    3    0    0  0.29002427731E+01 -0.10126211035E+01  0.65097517008E+01  0.71981717712E+01  0.00000000000E+00 0. -1.
</event>
<event>
 7    1  0.5411321E-010  0.4778727E+02  0.7816164E-02  0.1312668E+00
        -11   -1    0    0    0    0  0.00000000000E+00  0.00000000000E+00  0.45593999997E+02  0.45594000000E+02  0.51100000000E-03 0.  1.
         11   -1    0    0    0    0 -0.00000000000E+00 -0.00000000000E+00 -0.45593999997E+02  0.45594000000E+02  0.51100000000E-03 0. -1.
    9900012    2    1    2    0    0 -0.28759182728E+02 -0.29727851525E+02  0.13144865841E+02  0.47787271371E+02  0.20000001491E+02 0.  0.
         12    1    1    2    0    0  0.28759182728E+02  0.29727851525E+02 -0.13144865841E+02  0.43400728629E+02  0.00000000000E+00 0. -1.
         11    1    3    3    0    0 -0.11162712307E+02 -0.14146437932E+02  0.13597886463E+02  0.22574994324E+02  0.51100000000E-03 0. -1.
        -11    1    3    3    0    0 -0.93958374429E+01 -0.13051679274E+02 -0.27800185229E+01  0.16320434932E+02  0.51100000000E-03 0.  1.
         12    1    3    3    0    0 -0.82006329781E+01 -0.25297343193E+01  0.23269979004E+01  0.88918421150E+01  0.00000000000E+00 0. -1.
</event>
<event>
 7    1  0.5411321E-010  0.4778727E+02  0.7816164E-02  0.1312668E+00
        -11   -1    0    0    0    0  0.00000000000E+00  0.00000000000E+00  0.45593999997E+02  0.45594000000E+02  0.51100000000E-03 0. -1.
         11   -1    0    0    0    0 -0.00000000000E+00 -0.00000000000E+00 -0.45593999997E+02  0.45594000000E+02  0.51100000000E-03 0.  1.
    9900012    2    1    2    0    0  0.35503282113E+02 -0.15147474848E+02 -0.19841725707E+02  0.47787272885E+02  0.20000008392E+02 0.  0.
         12    1    1    2    0    0 -0.35503282113E+02  0.15147474848E+02  0.19841725707E+02  0.43400727115E+02  0.00000000000E+00 0. -1.
         11    1    3    3    0    0  0.24114988514E+02 -0.12903937729E+02 -0.65555398506E+01  0.28125066808E+02  0.51100000000E-03 0. -1.
        -11    1    3    3    0    0  0.33563689314E+01 -0.49204800694E+01 -0.64598736049E+01  0.87867117723E+01  0.51100000000E-03 0.  1.
         12    1    3    3    0    0  0.80319246676E+01  0.26769429503E+01 -0.68263122516E+01  0.10875494305E+02  0.00000000000E+00 0. -1.
</event>
<event>
 7    1  0.5411321E-010  0.4778727E+02  0.7816164E-02  0.1312668E+00
        -11   -1    0    0    0    0  0.00000000000E+00  0.00000000000E+00  0.45593999997E+02  0.45594000000E+02  0.51100000000E-03 0. -1.
         11   -1    0    0    0    0 -0.00000000000E+00 -0.00000000000E+00 -0.45593999997E+02  0.45594000000E+02  0.51100000000E-03 0.  1.
    9900012    2    1    2    0    0 -0.32368378311E+01 -0.42540325721E+02 -0.79666145820E+01  0.47787269828E+02  0.19999994453E+02 0.  0.
         12    1    1    2    0    0  0.32368378311E+01  0.42540325721E+02  0.79666145820E+01  0.43400730172E+02  0.00000000000E+00 0. -1.
         11    1    3    3    0    0  0.60303663571E+00 -0.46528963687E+01 -0.29241896967E+01  0.55284702627E+01  0.51100000000E-03 0. -1.
        -11    1    3    3    0    0 -0.48993628048E+01 -0.33689362073E+02 -0.10186546658E+02  0.35535089783E+02  0.51100000000E-03 0.  1.
        -12    1    3    3    0    0  0.10594883380E+01 -0.41980672787E+01  0.51441217732E+01  0.67237097820E+01  0.00000000000E+00 0.  1.
</event>
<event>
 7    1  0.5411321E-010  0.4778729E+02  0.7816164E-02  0.1312668E+00
        -11   -1    0    0    0    0  0.00000000000E+00  0.00000000000E+00  0.45593999997E+02  0.45594000000E+02  0.51100000000E-03 0.  1.
         11   -1    0    0    0    0 -0.00000000000E+00 -0.00000000000E+00 -0.45593999997E+02  0.45594000000E+02  0.51100000000E-03 0. -1.
    9900012    2    1    2    0    0 -0.16669531104E+02 -0.37785879718E+01  0.39893241781E+02  0.47787288784E+02  0.20000080879E+02 0.  0.
         12    1    1    2    0    0  0.16669531104E+02  0.37785879718E+01 -0.39893241781E+02  0.43400711216E+02  0.00000000000E+00 0. -1.
         11    1    3    3    0    0 -0.25883499658E+01 -0.21211839394E+01  0.65715154621E+01  0.73745367705E+01  0.51100000000E-03 0. -1.
        -11    1    3    3    0    0 -0.13211779266E+02 -0.83853165206E+01  0.19385412838E+02  0.24913026225E+02  0.51100000000E-03 0.  1.
        -12    1    3    3    0    0 -0.86940187251E+00  0.67279124882E+01  0.13936313481E+02  0.15499725788E+02  0.00000000000E+00 0.  1.
</event>
<event>
 7    1  0.5411321E-010  0.4778727E+02  0.7816164E-02  0.1312668E+00
        -11   -1    0    0    0    0  0.00000000000E+00  0.00000000000E+00  0.45593999997E+02  0.45594000000E+02  0.51100000000E-03 0. -1.
         11   -1    0    0    0    0 -0.00000000000E+00 -0.00000000000E+00 -0.45593999997E+02  0.45594000000E+02  0.51100000000E-03 0.  1.
    9900012    2    1    2    0    0 -0.42794926142E+02 -0.35701425132E+01 -0.62826420947E+01  0.47787271748E+02  0.20000003209E+02 0.  0.
         12    1    1    2    0    0  0.42794926142E+02  0.35701425132E+01  0.62826420947E+01  0.43400728252E+02  0.00000000000E+00 0. -1.
         11    1    3    3    0    0 -0.18920712182E+02 -0.72778987907E+01 -0.26041430376E+01  0.20438755381E+02  0.51100000000E-03 0. -1.
        -11    1    3    3    0    0 -0.13675967449E+02  0.64274580243E+01  0.21949947396E+01  0.15269653058E+02  0.51100000000E-03 0.  1.
        -12    1    3    3    0    0 -0.10198246511E+02 -0.27197017468E+01 -0.58734937967E+01  0.12078863310E+02  0.00000000000E+00 0.  1.
</event>
<event>
 7    1  0.5411321E-010  0.4778727E+02  0.7816164E-02  0.1312668E+00
        -11   -1    0    0    0    0  0.00000000000E+00  0.00000000000E+00  0.45593999997E+02  0.45594000000E+02  0.51100000000E-03 0.  1.
         11   -1    0    0    0    0 -0.00000000000E+00 -0.00000000000E+00 -0.45593999997E+02  0.45594000000E+02  0.51100000000E-03 0. -1.
    9900012    2    1    2    0    0 -0.36131954423E+01 -0.26676377274E+02  0.34043190241E+02  0.47787273191E+02  0.20000009786E+02 0.  0.
         12    1    1    2    0    0  0.36131954423E+01  0.26676377274E+02 -0.34043190241E+02  0.43400726809E+02  0.00000000000E+00 0. -1.
         11    1    3    3    0    0 -0.46330043685E+01 -0.27556509087E+01 -0.45494073446E+00  0.54097423915E+01  0.51100000000E-03 0. -1.
        -11    1    3    3    0    0  0.32049477580E+01 -0.10225305798E+02  0.16029697890E+02  0.19281591830E+02  0.51100000000E-03 0.  1.
         12    1    3    3    0    0 -0.21851388318E+01 -0.13695420567E+02  0.18468433086E+02  0.23095938969E+02  0.00000000000E+00 0. -1.
</event>
<event>
 7    1  0.5411321E-010  0.4778727E+02  0.7816164E-02  0.1312668E+00
        -11   -1    0    0    0    0  0.00000000000E+00  0.00000000000E+00  0.45593999997E+02  0.45594000000E+02  0.51100000000E-03 0.  1.
         11   -1    0    0    0    0 -0.00000000000E+00 -0.00000000000E+00 -0.45593999997E+02  0.45594000000E+02  0.51100000000E-03 0. -1.
    9900012    2    1    2    0    0 -0.21722575137E+02 -0.55643459583E+01  0.37158992974E+02  0.47787274483E+02  0.20000015677E+02 0.  0.
         12    1    1    2    0    0  0.21722575137E+02  0.55643459583E+01 -0.37158992974E+02  0.43400725517E+02  0.00000000000E+00 0. -1.
         11    1    3    3    0    0  0.37041542533E+00  0.24693938740E+01  0.28575625065E+01  0.37948356264E+01  0.51100000000E-03 0. -1.
        -11    1    3    3    0    0 -0.69522493921E+01 -0.82874822752E+01  0.73497003007E+01  0.13078005538E+02  0.51100000000E-03 0.  1.
        -12    1    3    3    0    0 -0.15140741170E+02  0.25374244290E+00  0.26951730167E+02  0.30914433319E+02  0.00000000000E+00 0.  1.
</event>
<event>
 7    1  0.5411321E-010  0.4778727E+02  0.7816164E-02  0.1312668E+00
        -11   -1    0    0    0    0  0.00000000000E+00  0.00000000000E+00  0.45593999997E+02  0.45594000000E+02  0.51100000000E-03 0.  1.
         11   -1    0    0    0    0 -0.00000000000E+00 -0.00000000000E+00 -0.45593999997E+02  0.45594000000E+02  0.51100000000E-03 0. -1.
    9900012    2    1    2    0    0  0.10788299703E+02  0.13404783933E+02  0.39844040872E+02  0.47787271484E+02  0.20000002002E+02 0.  0.
         12    1    1    2    0    0 -0.10788299703E+02 -0.13404783933E+02 -0.39844040872E+02  0.43400728516E+02  0.00000000000E+00 0. -1.
         11    1    3    3    0    0  0.15077491612E+02  0.86418514195E+01  0.31545358691E+02  0.36015580024E+02  0.51100000000E-03 0.  1.
        -11    1    3    3    0    0 -0.24224448185E+01  0.10500705017E+01  0.17411815137E+00  0.26459789018E+01  0.51100000000E-03 0. -1.
        -12    1    3    3    0    0 -0.18667470904E+01  0.37128620120E+01  0.81245640289E+01  0.91257125573E+01  0.00000000000E+00 0.  1.
</event>
<event>
 7    1  0.5411321E-010  0.4778727E+02  0.7816164E-02  0.1312668E+00
        -11   -1    0    0    0    0  0.00000000000E+00  0.00000000000E+00  0.45593999997E+02  0.45594000000E+02  0.51100000000E-03 0. -1.
         11   -1    0    0    0    0 -0.00000000000E+00 -0.00000000000E+00 -0.45593999997E+02  0.45594000000E+02  0.51100000000E-03 0.  1.
    9900012    2    1    2    0    0 -0.81162998555E+00 -0.27324126258E+02 -0.33709891394E+02  0.47787269628E+02  0.19999993544E+02 0.  0.
         12    1    1    2    0    0  0.81162998555E+00  0.27324126258E+02  0.33709891394E+02  0.43400730372E+02  0.00000000000E+00 0. -1.
         11    1    3    3    0    0 -0.16058774160E+01 -0.59082620402E+01 -0.81265557459E+00  0.61763105456E+01  0.51100000000E-03 0. -1.
        -11    1    3    3    0    0  0.21474468834E+01 -0.12454063398E+02 -0.29209135028E+02  0.31825913853E+02  0.51100000000E-03 0.  1.
        -12    1    3    3    0    0 -0.13531994530E+01 -0.89618008202E+01 -0.36881007909E+01  0.97850452295E+01  0.00000000000E+00 0.  1.
</event>
<event>
 7    1  0.5411321E-010  0.4778727E+02  0.7816164E-02  0.1312668E+00
        -11   -1    0    0    0    0  0.00000000000E+00  0.00000000000E+00  0.45593999997E+02  0.45594000000E+02  0.51100000000E-03 0.  1.
         11   -1    0    0    0    0 -0.00000000000E+00 -0.00000000000E+00 -0.45593999997E+02  0.45594000000E+02  0.51100000000E-03 0. -1.
    9900012    2    1    2    0    0  0.78039198296E+01 -0.40227525937E+02  0.14299245554E+02  0.47787269233E+02  0.19999991742E+02 0.  0.
         12    1    1    2    0    0 -0.78039198296E+01  0.40227525937E+02 -0.14299245554E+02  0.43400730767E+02  0.00000000000E+00 0. -1.
         11    1    3    3    0    0  0.56901077692E+01 -0.34722257244E+01  0.15607227626E+00  0.66676860096E+01  0.51100000000E-03 0. -1.
        -11    1    3    3    0    0  0.47459791731E+00 -0.29806261353E+02  0.62162067216E+01  0.30451267384E+02  0.51100000000E-03 0.  1.
        -12    1    3    3    0    0  0.16392141431E+01 -0.69490388588E+01  0.79269665558E+01  0.10668315839E+02  0.00000000000E+00 0.  1.
</event>
<event>
 7    1  0.5411321E-010  0.4778726E+02  0.7816164E-02  0.1312668E+00
        -11   -1    0    0    0    0  0.00000000000E+00  0.00000000000E+00  0.45593999997E+02  0.45594000000E+02  0.51100000000E-03 0. -1.
         11   -1    0    0    0    0 -0.00000000000E+00 -0.00000000000E+00 -0.45593999997E+02  0.45594000000E+02  0.51100000000E-03 0.  1.
    9900012    2    1    2    0    0  0.40107164318E+02  0.16365334666E+02 -0.26861308363E+01  0.47787261444E+02  0.19999956227E+02 0.  0.
         12    1    1    2    0    0 -0.40107164318E+02 -0.16365334666E+02  0.26861308363E+01  0.43400738556E+02  0.00000000000E+00 0. -1.
         11    1    3    3    0    0  0.52637615005E+01  0.26529996076E+01 -0.65876895822E+01  0.88398668737E+01  0.51100000000E-03 0. -1.
        -11    1    3    3    0    0  0.32987935343E+02  0.97893572402E+01  0.35899489362E+01  0.34596576810E+02  0.51100000000E-03 0.  1.
        -12    1    3    3    0    0  0.18554674749E+01  0.39229778178E+01  0.31160980967E+00  0.43508177603E+01  0.00000000000E+00 0.  1.
</event>
<event>
 7    1  0.5411321E-010  0.4778728E+02  0.7816164E-02  0.1312668E+00
        -11   -1    0    0    0    0  0.00000000000E+00  0.00000000000E+00  0.45593999997E+02  0.45594000000E+02  0.51100000000E-03 0. -1.
         11   -1    0    0    0    0 -0.00000000000E+00 -0.00000000000E+00 -0.45593999997E+02  0.45594000000E+02  0.51100000000E-03 0.  1.
    9900012    2    1    2    0    0  0.14882207973E+02  0.21177372251E+02 -0.34837645242E+02  0.47787277245E+02  0.20000028273E+02 0.  0.
         12    1    1    2    0    0 -0.14882207973E+02 -0.21177372251E+02  0.34837645242E+02  0.43400722755E+02  0.00000000000E+00 0. -1.
         11    1    3    3    0    0 -0.17080055100E+01  0.39549059743E+01 -0.51513045620E+01  0.67152440789E+01  0.51100000000E-03 0. -1.
        -11    1    3    3    0    0  0.18631835535E+02  0.12892174334E+02 -0.27948851540E+02  0.35979046084E+02  0.51100000000E-03 0.  1.
        -12    1    3    3    0    0 -0.20416220518E+01  0.43302919427E+01 -0.17374891405E+01  0.50929870827E+01  0.00000000000E+00 0.  1.
</event>
<event>
 7    1  0.5411321E-010  0.4778727E+02  0.7816164E-02  0.1312668E+00
        -11   -1    0    0    0    0  0.00000000000E+00  0.00000000000E+00  0.45593999997E+02  0.45594000000E+02  0.51100000000E-03 0. -1.
         11   -1    0    0    0    0 -0.00000000000E+00 -0.00000000000E+00 -0.45593999997E+02  0.45594000000E+02  0.51100000000E-03 0.  1.
    9900012    2    1    2    0    0  0.39811254178E+02  0.16672201893E+02 -0.45524871004E+01  0.47787269430E+02  0.19999992640E+02 0.  0.
         12    1    1    2    0    0 -0.39811254178E+02 -0.16672201893E+02  0.45524871004E+01  0.43400730570E+02  0.00000000000E+00 0. -1.
         11    1    3    3    0    0  0.32802856120E+02  0.12076264361E+02 -0.48468836216E+01  0.35289599200E+02  0.51100000000E-03 0.  1.
        -11    1    3    3    0    0  0.76752375624E+01  0.31315966115E+01 -0.30126284767E+01  0.88199829691E+01  0.51100000000E-03 0. -1.
         12    1    3    3    0    0 -0.66683950451E+00  0.14643409201E+01  0.33070249979E+01  0.36776872613E+01  0.00000000000E+00 0. -1.
</event>
<event>
 7    1  0.5411321E-010  0.4778727E+02  0.7816164E-02  0.1312668E+00
        -11   -1    0    0    0    0  0.00000000000E+00  0.00000000000E+00  0.45593999997E+02  0.45594000000E+02  0.51100000000E-03 0.  1.
         11   -1    0    0    0    0 -0.00000000000E+00 -0.00000000000E+00 -0.45593999997E+02  0.45594000000E+02  0.51100000000E-03 0. -1.
    9900012    2    1    2    0    0  0.17661168598E+02 -0.36108270295E+02 -0.16367625282E+02  0.47787271696E+02  0.20000002969E+02 0.  0.
         12    1    1    2    0    0 -0.17661168598E+02  0.36108270295E+02  0.16367625282E+02  0.43400728304E+02  0.00000000000E+00 0. -1.
         11    1    3    3    0    0  0.84917604797E+01 -0.21250544950E+02 -0.11726973315E+02  0.25714150970E+02  0.51100000000E-03 0. -1.
        -11    1    3    3    0    0  0.10664309941E+02 -0.71708063932E+01  0.22632545410E+00  0.12852983869E+02  0.51100000000E-03 0.  1.
        -12    1    3    3    0    0 -0.14949018231E+01 -0.76869189521E+01 -0.48669774217E+01  0.92201368569E+01  0.00000000000E+00 0.  1.
</event>
<event>
 7    1  0.5411321E-010  0.4778727E+02  0.7816164E-02  0.1312668E+00
        -11   -1    0    0    0    0  0.00000000000E+00  0.00000000000E+00  0.45593999997E+02  0.45594000000E+02  0.51100000000E-03 0. -1.
         11   -1    0    0    0    0 -0.00000000000E+00 -0.00000000000E+00 -0.45593999997E+02  0.45594000000E+02  0.51100000000E-03 0.  1.
    9900012    2    1    2    0    0 -0.78266138504E+01  0.25707961307E+02 -0.34080320045E+02  0.47787269899E+02  0.19999994778E+02 0.  0.
         12    1    1    2    0    0  0.78266138504E+01 -0.25707961307E+02  0.34080320045E+02  0.43400730101E+02  0.00000000000E+00 0. -1.
         11    1    3    3    0    0 -0.19385605603E+00 -0.75203110004E+00  0.80286477627E-01  0.78075420299E+00  0.51100000000E-03 0. -1.
        -11    1    3    3    0    0 -0.12367372244E+02  0.13659777687E+02 -0.22274671042E+02  0.28908517654E+02  0.51100000000E-03 0.  1.
        -12    1    3    3    0    0  0.47346144496E+01  0.12800214720E+02 -0.11885935481E+02  0.18097998042E+02  0.00000000000E+00 0.  1.
</event>
<event>
 7    1  0.5411321E-010  0.4778729E+02  0.7816164E-02  0.1312668E+00
        -11   -1    0    0    0    0  0.00000000000E+00  0.00000000000E+00  0.45593999997E+02  0.45594000000E+02  0.51100000000E-03 0.  1.
         11   -1    0    0    0    0 -0.00000000000E+00 -0.00000000000E+00 -0.45593999997E+02  0.45594000000E+02  0.51100000000E-03 0. -1.
    9900012    2    1    2    0    0  0.31765367514E+02  0.22010813073E+02  0.19751138463E+02  0.47787286457E+02  0.20000070272E+02 0.  0.
         12    1    1    2    0    0 -0.31765367514E+02 -0.22010813073E+02 -0.19751138463E+02  0.43400713543E+02  0.00000000000E+00 0. -1.
         11    1    3    3    0    0  0.21429314398E+02  0.73571212123E+01  0.49560336630E+01  0.23192779438E+02  0.51100000000E-03 0. -1.
        -11    1    3    3    0    0  0.10456453001E+02  0.14809757167E+02  0.15506573274E+02  0.23856238842E+02  0.51100000000E-03 0.  1.
        -12    1    3    3    0    0 -0.12039988519E+00 -0.15606530597E+00 -0.71146847424E+00  0.73826817751E+00  0.00000000000E+00 0.  1.
</event>
<event>
 7    1  0.5411321E-010  0.4778728E+02  0.7816164E-02  0.1312668E+00
        -11   -1    0    0    0    0  0.00000000000E+00  0.00000000000E+00  0.45593999997E+02  0.45594000000E+02  0.51100000000E-03 0. -1.
         11   -1    0    0    0    0 -0.00000000000E+00 -0.00000000000E+00 -0.45593999997E+02  0.45594000000E+02  0.51100000000E-03 0.  1.
    9900012    2    1    2    0    0 -0.77044909635E+00 -0.30197789589E+02 -0.31162835149E+02  0.47787281315E+02  0.20000046826E+02 0.  0.
         12    1    1    2    0    0  0.77044909635E+00  0.30197789589E+02  0.31162835149E+02  0.43400718685E+02  0.00000000000E+00 0. -1.
         11    1    3    3    0    0  0.69907362504E+01 -0.10729976818E+02 -0.14066629328E+02  0.19022956047E+02  0.51100000000E-03 0. -1.
        -11    1    3    3    0    0 -0.93237269443E+00 -0.14259625327E+02 -0.12692013854E+02  0.19112651549E+02  0.51100000000E-03 0.  1.
         12    1    3    3    0    0 -0.68288126523E+01 -0.52081874437E+01 -0.44041919674E+01  0.96516737188E+01  0.00000000000E+00 0. -1.
</event>
<event>
 7    1  0.5411321E-010  0.4778728E+02  0.7816164E-02  0.1312668E+00
        -11   -1    0    0    0    0  0.00000000000E+00  0.00000000000E+00  0.45593999997E+02  0.45594000000E+02  0.51100000000E-03 0.  1.
         11   -1    0    0    0    0 -0.00000000000E+00 -0.00000000000E+00 -0.45593999997E+02  0.45594000000E+02  0.51100000000E-03 0. -1.
    9900012    2    1    2    0    0 -0.38860140647E+01 -0.30493230850E+02 -0.30637952502E+02  0.47787281498E+02  0.20000047660E+02 0.  0.
         12    1    1    2    0    0  0.38860140647E+01  0.30493230850E+02  0.30637952502E+02  0.43400718502E+02  0.00000000000E+00 0. -1.
         11    1    3    3    0    0 -0.37678081005E+01 -0.24655233766E+02 -0.21228647478E+02  0.32752593851E+02  0.51100000000E-03 0.  1.
        -11    1    3    3    0    0  0.81598835068E+00  0.22974786990E+01  0.15576554177E+00  0.24430531157E+01  0.51100000000E-03 0. -1.
         12    1    3    3    0    0 -0.93419431494E+00 -0.81354757836E+01 -0.95650705658E+01  0.12591634531E+02  0.00000000000E+00 0. -1.
</event>
<event>
 7    1  0.5411321E-010  0.4778727E+02  0.7816164E-02  0.1312668E+00
        -11   -1    0    0    0    0  0.00000000000E+00  0.00000000000E+00  0.45593999997E+02  0.45594000000E+02  0.51100000000E-03 0. -1.
         11   -1    0    0    0    0 -0.00000000000E+00 -0.00000000000E+00 -0.45593999997E+02  0.45594000000E+02  0.51100000000E-03 0.  1.
    9900012    2    1    2    0    0 -0.22107049175E+02  0.37241781399E+02 -0.28198474182E+01  0.47787269080E+02  0.19999991041E+02 0.  0.
         12    1    1    2    0    0  0.22107049175E+02 -0.37241781399E+02  0.28198474182E+01  0.43400730920E+02  0.00000000000E+00 0. -1.
         11    1    3    3    0    0 -0.57402273432E+01  0.45743810833E+01  0.43170055134E+01  0.85153807378E+01  0.51100000000E-03 0. -1.
        -11    1    3    3    0    0 -0.17998959010E+02  0.30287192599E+02 -0.47976726690E+01  0.35556915280E+02  0.51100000000E-03 0.  1.
        -12    1    3    3    0    0  0.16321371788E+01  0.23802077169E+01 -0.23391802625E+01  0.37149730613E+01  0.00000000000E+00 0.  1.
</event>
<event>
 7    1  0.5411321E-010  0.4778734E+02  0.7816164E-02  0.1312667E+00
        -11   -1    0    0    0    0  0.00000000000E+00  0.00000000000E+00  0.45593999997E+02  0.45594000000E+02  0.51100000000E-03 0.  1.
         11   -1    0    0    0    0 -0.00000000000E+00 -0.00000000000E+00 -0.45593999997E+02  0.45594000000E+02  0.51100000000E-03 0. -1.
    9900012    2    1    2    0    0 -0.42484047400E+02  0.86402948221E+01 -0.20170782707E+01  0.47787336608E+02  0.20000298930E+02 0.  0.
         12    1    1    2    0    0  0.42484047400E+02 -0.86402948221E+01  0.20170782707E+01  0.43400663392E+02  0.00000000000E+00 0. -1.
         11    1    3    3    0    0 -0.28931979577E+01  0.18358870968E+01 -0.51026520728E+01  0.61463919735E+01  0.51100000000E-03 0. -1.
        -11    1    3    3    0    0 -0.36941811284E+02  0.68920172157E+01  0.55920450799E+01  0.37993003181E+02  0.51100000000E-03 0.  1.
        -12    1    3    3    0    0 -0.26490381580E+01 -0.87609490463E-01 -0.25064712778E+01  0.36479414540E+01  0.00000000000E+00 0.  1.
</event>
<event>
 7    1  0.5411321E-010  0.4778727E+02  0.7816164E-02  0.1312668E+00
        -11   -1    0    0    0    0  0.00000000000E+00  0.00000000000E+00  0.45593999997E+02  0.45594000000E+02  0.51100000000E-03 0.  1.
         11   -1    0    0    0    0 -0.00000000000E+00 -0.00000000000E+00 -0.45593999997E+02  0.45594000000E+02  0.51100000000E-03 0. -1.
    9900012    2    1    2    0    0 -0.41329012454E+02  0.12270947970E+02  0.49960007681E+01  0.47787268921E+02  0.19999990319E+02 0.  0.
         12    1    1    2    0    0  0.41329012454E+02 -0.12270947970E+02 -0.49960007681E+01  0.43400731079E+02  0.00000000000E+00 0. -1.
         11    1    3    3    0    0 -0.31855655140E+02  0.33540654557E+01  0.18984478815E+01  0.32087951385E+02  0.51100000000E-03 0. -1.
        -11    1    3    3    0    0 -0.64681230127E+00  0.12623017961E+01  0.37383864280E+01  0.39984128506E+01  0.51100000000E-03 0.  1.
         12    1    3    3    0    0 -0.88265450131E+01  0.76545807181E+01 -0.64083354139E+00  0.11700904686E+02  0.00000000000E+00 0. -1.
</event>
<event>
 7    1  0.5411321E-010  0.4778727E+02  0.7816164E-02  0.1312668E+00
        -11   -1    0    0    0    0  0.00000000000E+00  0.00000000000E+00  0.45593999997E+02  0.45594000000E+02  0.51100000000E-03 0.  1.
         11   -1    0    0    0    0 -0.00000000000E+00 -0.00000000000E+00 -0.45593999997E+02  0.45594000000E+02  0.51100000000E-03 0. -1.
    9900012    2    1    2    0    0 -0.11104416035E+02  0.35466086608E+02 -0.22415888507E+02  0.47787269450E+02  0.19999992728E+02 0.  0.
         12    1    1    2    0    0  0.11104416035E+02 -0.35466086608E+02  0.22415888507E+02  0.43400730550E+02  0.00000000000E+00 0. -1.
         11    1    3    3    0    0  0.35931871857E+01  0.53221168352E+01 -0.75166168300E+01  0.98861241439E+01  0.51100000000E-03 0. -1.
        -11    1    3    3    0    0 -0.11410486668E+02  0.24376839641E+02 -0.15787627153E+02  0.31203824898E+02  0.51100000000E-03 0.  1.
         12    1    3    3    0    0 -0.32871165532E+01  0.57671301321E+01  0.88835547633E+00  0.66973204080E+01  0.00000000000E+00 0. -1.
</event>
<event>
 7    1  0.5411321E-010  0.4778730E+02  0.7816164E-02  0.1312668E+00
        -11   -1    0    0    0    0  0.00000000000E+00  0.00000000000E+00  0.45593999997E+02  0.45594000000E+02  0.51100000000E-03 0. -1.
         11   -1    0    0    0    0 -0.00000000000E+00 -0.00000000000E+00 -0.45593999997E+02  0.45594000000E+02  0.51100000000E-03 0.  1.
    9900012    2    1    2    0    0 -0.39888416269E+02 -0.96409107871E+01  0.14127571600E+02  0.47787295022E+02  0.20000109325E+02 0.  0.
         12    1    1    2    0    0  0.39888416269E+02  0.96409107871E+01 -0.14127571600E+02  0.43400704978E+02  0.00000000000E+00 0. -1.
         11    1    3    3    0    0 -0.10058783558E+02  0.19970080705E+01 -0.15177516870E+01  0.10366809458E+02  0.51100000000E-03 0. -1.
        -11    1    3    3    0    0 -0.28848990688E+02 -0.11386631427E+02  0.11380050150E+02  0.33036724727E+02  0.51100000000E-03 0.  1.
        -12    1    3    3    0    0 -0.98064202234E+00 -0.25128743101E+00  0.42652731368E+01  0.43837608375E+01  0.00000000000E+00 0.  1.
</event>
<event>
 7    1  0.5411321E-010  0.4778727E+02  0.7816164E-02  0.1312668E+00
        -11   -1    0    0    0    0  0.00000000000E+00  0.00000000000E+00  0.45593999997E+02  0.45594000000E+02  0.51100000000E-03 0. -1.
         11   -1    0    0    0    0 -0.00000000000E+00 -0.00000000000E+00 -0.45593999997E+02  0.45594000000E+02  0.51100000000E-03 0.  1.
    9900012    2    1    2    0    0 -0.42879558068E+02 -0.35618180784E+01  0.56815589633E+01  0.47787272352E+02  0.20000005960E+02 0.  0.
         12    1    1    2    0    0  0.42879558068E+02  0.35618180784E+01 -0.56815589633E+01  0.43400727648E+02  0.00000000000E+00 0. -1.
         11    1    3    3    0    0 -0.18960909935E+02 -0.53490994359E+01 -0.19461695835E+01  0.19796882246E+02  0.51100000000E-03 0. -1.
        -11    1    3    3    0    0 -0.22875751428E+02  0.35471897352E+01  0.96810487497E+01  0.25091936226E+02  0.51100000000E-03 0.  1.
        -12    1    3    3    0    0 -0.10428967046E+01 -0.17599083776E+01 -0.20533202029E+01  0.28984538792E+01  0.00000000000E+00 0.  1.
</event>
<event>
 7    1  0.5411321E-010  0.4778727E+02  0.7816164E-02  0.1312668E+00
        -11   -1    0    0    0    0  0.00000000000E+00  0.00000000000E+00  0.45593999997E+02  0.45594000000E+02  0.51100000000E-03 0.  1.
         11   -1    0    0    0    0 -0.00000000000E+00 -0.00000000000E+00 -0.45593999997E+02  0.45594000000E+02  0.51100000000E-03 0. -1.
    9900012    2    1    2    0    0 -0.31372550513E+02  0.19714271611E+01  0.29924898565E+02  0.47787274144E+02  0.20000014130E+02 0.  0.
         12    1    1    2    0    0  0.31372550513E+02 -0.19714271611E+01 -0.29924898565E+02  0.43400725856E+02  0.00000000000E+00 0. -1.
         11    1    3    3    0    0 -0.24683288821E+01  0.23403400551E+01  0.13173739462E+02  0.13605780048E+02  0.51100000000E-03 0. -1.
        -11    1    3    3    0    0 -0.25576619656E+02  0.20731943041E+01  0.14691122380E+02  0.29568406868E+02  0.51100000000E-03 0.  1.
         12    1    3    3    0    0 -0.33276019745E+01 -0.24421071981E+01  0.20600367235E+01  0.46130872276E+01  0.00000000000E+00 0. -1.
</event>
<event>
 7    1  0.5411321E-010  0.4778727E+02  0.7816164E-02  0.1312668E+00
        -11   -1    0    0    0    0  0.00000000000E+00  0.00000000000E+00  0.45593999997E+02  0.45594000000E+02  0.51100000000E-03 0. -1.
         11   -1    0    0    0    0 -0.00000000000E+00 -0.00000000000E+00 -0.45593999997E+02  0.45594000000E+02  0.51100000000E-03 0.  1.
    9900012    2    1    2    0    0 -0.36577658473E+02  0.38774749817E+01  0.23036130200E+02  0.47787271825E+02  0.20000003557E+02 0.  0.
         12    1    1    2    0    0  0.36577658473E+02 -0.38774749817E+01 -0.23036130200E+02  0.43400728175E+02  0.00000000000E+00 0. -1.
         11    1    3    3    0    0 -0.21454895308E+01  0.24231089763E+01  0.58692068276E+01  0.67024004270E+01  0.51100000000E-03 0. -1.
        -11    1    3    3    0    0 -0.22098600591E+02 -0.46823108173E+01  0.15059091487E+02  0.27148635681E+02  0.51100000000E-03 0.  1.
        -12    1    3    3    0    0 -0.12333568351E+02  0.61366768227E+01  0.21078318848E+01  0.13936235716E+02  0.00000000000E+00 0.  1.
</event>
<event>
 7    1  0.5411321E-010  0.4778729E+02  0.7816164E-02  0.1312668E+00
        -11   -1    0    0    0    0  0.00000000000E+00  0.00000000000E+00  0.45593999997E+02  0.45594000000E+02  0.51100000000E-03 0.  1.
         11   -1    0    0    0    0 -0.00000000000E+00 -0.00000000000E+00 -0.45593999997E+02  0.45594000000E+02  0.51100000000E-03 0. -1.
    9900012    2    1    2    0    0  0.30603821644E+02  0.16485836403E+02  0.25985470016E+02  0.47787293173E+02  0.20000100894E+02 0.  0.
         12    1    1    2    0    0 -0.30603821644E+02 -0.16485836403E+02 -0.25985470016E+02  0.43400706827E+02  0.00000000000E+00 0. -1.
         11    1    3    3    0    0  0.61115941012E+01 -0.44314937681E+01  0.42601583146E+01  0.86682563760E+01  0.51100000000E-03 0. -1.
        -11    1    3    3    0    0  0.24126574886E+02  0.19513434101E+02  0.20268945874E+02  0.37063403693E+02  0.51100000000E-03 0.  1.
         12    1    3    3    0    0  0.36565265687E+00  0.14038960692E+01  0.14563658267E+01  0.20556331044E+01  0.00000000000E+00 0. -1.
</event>
<event>
 7    1  0.5411321E-010  0.4778726E+02  0.7816164E-02  0.1312668E+00
        -11   -1    0    0    0    0  0.00000000000E+00  0.00000000000E+00  0.45593999997E+02  0.45594000000E+02  0.51100000000E-03 0. -1.
         11   -1    0    0    0    0 -0.00000000000E+00 -0.00000000000E+00 -0.45593999997E+02  0.45594000000E+02  0.51100000000E-03 0.  1.
    9900012    2    1    2    0    0 -0.38661318421E+02 -0.93894826330E+01 -0.17342545584E+02  0.47787264827E+02  0.19999971653E+02 0.  0.
         12    1    1    2    0    0  0.38661318421E+02  0.93894826330E+01  0.17342545584E+02  0.43400735173E+02  0.00000000000E+00 0. -1.
         11    1    3    3    0    0  0.52991652838E+00  0.30389960047E+01 -0.23590555477E+01  0.38834844640E+01  0.51100000000E-03 0. -1.
        -11    1    3    3    0    0 -0.18814384262E+02 -0.41554887682E+01 -0.74232837728E+01  0.20648348222E+02  0.51100000000E-03 0.  1.
         12    1    3    3    0    0 -0.20376850688E+02 -0.82729898696E+01 -0.75602062640E+01  0.23255432142E+02  0.00000000000E+00 0. -1.
</event>
<event>
 7    1  0.5411321E-010  0.4778727E+02  0.7816164E-02  0.1312668E+00
        -11   -1    0    0    0    0  0.00000000000E+00  0.00000000000E+00  0.45593999997E+02  0.45594000000E+02  0.51100000000E-03 0. -1.
         11   -1    0    0    0    0 -0.00000000000E+00 -0.00000000000E+00 -0.45593999997E+02  0.45594000000E+02  0.51100000000E-03 0.  1.
    9900012    2    1    2    0    0  0.32095295784E+02 -0.24043038133E+02 -0.16596626868E+02  0.47787265933E+02  0.19999976696E+02 0.  0.
         12    1    1    2    0    0 -0.32095295784E+02  0.24043038133E+02  0.16596626868E+02  0.43400734067E+02  0.00000000000E+00 0. -1.
         11    1    3    3    0    0 -0.84870895760E+00 -0.45902232718E+01 -0.44251850603E+01  0.64321629067E+01  0.51100000000E-03 0. -1.
        -11    1    3    3    0    0  0.21639399313E+02 -0.15685493804E+02 -0.12341064577E+02  0.29438073878E+02  0.51100000000E-03 0.  1.
         12    1    3    3    0    0  0.11304605428E+02 -0.37673210579E+01  0.16962276886E+00  0.11917029148E+02  0.00000000000E+00 0. -1.
</event>
<event>
 7    1  0.5411321E-010  0.4778727E+02  0.7816164E-02  0.1312668E+00
        -11   -1    0    0    0    0  0.00000000000E+00  0.00000000000E+00  0.45593999997E+02  0.45594000000E+02  0.51100000000E-03 0. -1.
         11   -1    0    0    0    0 -0.00000000000E+00 -0.00000000000E+00 -0.45593999997E+02  0.45594000000E+02  0.51100000000E-03 0.  1.
    9900012    2    1    2    0    0 -0.22206159255E+02 -0.34724728761E+02 -0.13590559806E+02  0.47787267147E+02  0.19999982229E+02 0.  0.
         12    1    1    2    0    0  0.22206159255E+02  0.34724728761E+02  0.13590559806E+02  0.43400732853E+02  0.00000000000E+00 0. -1.
         11    1    3    3    0    0  0.18806899489E+01 -0.11823002488E+02 -0.43572591151E+01  0.12739940728E+02  0.51100000000E-03 0. -1.
        -11    1    3    3    0    0 -0.24000582995E+02 -0.21219306375E+02 -0.81908709873E+01  0.33066256440E+02  0.51100000000E-03 0.  1.
        -12    1    3    3    0    0 -0.86266208194E-01 -0.16824198980E+01 -0.10424297037E+01  0.19810699784E+01  0.00000000000E+00 0.  1.
</event>
<event>
 7    1  0.5411321E-010  0.4778727E+02  0.7816164E-02  0.1312668E+00
        -11   -1    0    0    0    0  0.00000000000E+00  0.00000000000E+00  0.45593999997E+02  0.45594000000E+02  0.51100000000E-03 0. -1.
         11   -1    0    0    0    0 -0.00000000000E+00 -0.00000000000E+00 -0.45593999997E+02  0.45594000000E+02  0.51100000000E-03 0.  1.
    9900012    2    1    2    0    0  0.79558970650E+01  0.39955861952E+02 -0.14961812133E+02  0.47787273915E+02  0.20000013087E+02 0.  0.
         12    1    1    2    0    0 -0.79558970650E+01 -0.39955861952E+02  0.14961812133E+02  0.43400726085E+02  0.00000000000E+00 0. -1.
         11    1    3    3    0    0  0.10846716571E+00  0.38194315926E+01  0.15649765270E+01  0.41290403980E+01  0.51100000000E-03 0. -1.
        -11    1    3    3    0    0  0.87127303123E+01  0.26325182411E+02 -0.44662334506E+01  0.28086903353E+02  0.51100000000E-03 0.  1.
        -12    1    3    3    0    0 -0.86530041304E+00  0.98112479485E+01 -0.12060555210E+02  0.15571330164E+02  0.00000000000E+00 0.  1.
</event>
<event>
 7    1  0.5411321E-010  0.4778727E+02  0.7816164E-02  0.1312668E+00
        -11   -1    0    0    0    0  0.00000000000E+00  0.00000000000E+00  0.45593999997E+02  0.45594000000E+02  0.51100000000E-03 0.  1.
         11   -1    0    0    0    0 -0.00000000000E+00 -0.00000000000E+00 -0.45593999997E+02  0.45594000000E+02  0.51100000000E-03 0. -1.
    9900012    2    1    2    0    0  0.75790938284E+01  0.13463885168E+02  0.40557419965E+02  0.47787272111E+02  0.20000004861E+02 0.  0.
         12    1    1    2    0    0 -0.75790938284E+01 -0.13463885168E+02 -0.40557419965E+02  0.43400727889E+02  0.00000000000E+00 0. -1.
         11    1    3    3    0    0  0.10400219889E+02  0.85940121552E+01  0.26228928195E+02  0.29495394441E+02  0.51100000000E-03 0.  1.
        -11    1    3    3    0    0 -0.34955288464E+01 -0.12667732100E+01  0.10222251937E+02  0.10877401859E+02  0.51100000000E-03 0. -1.
         12    1    3    3    0    0  0.67440278558E+00  0.61366462229E+01  0.41062398332E+01  0.74144758109E+01  0.00000000000E+00 0. -1.
</event>
<event>
 7    1  0.5411321E-010  0.4778726E+02  0.7816164E-02  0.1312668E+00
        -11   -1    0    0    0    0  0.00000000000E+00  0.00000000000E+00  0.45593999997E+02  0.45594000000E+02  0.51100000000E-03 0.  1.
         11   -1    0    0    0    0 -0.00000000000E+00 -0.00000000000E+00 -0.45593999997E+02  0.45594000000E+02  0.51100000000E-03 0. -1.
    9900012    2    1    2    0    0  0.18068444531E+02 -0.37016196523E+02  0.13673197310E+02  0.47787264782E+02  0.19999971448E+02 0.  0.
         12    1    1    2    0    0 -0.18068444531E+02  0.37016196523E+02 -0.13673197310E+02  0.43400735218E+02  0.00000000000E+00 0. -1.
         11    1    3    3    0    0  0.19900417680E+01 -0.82097831449E+01  0.10648618001E+02  0.13592419619E+02  0.51100000000E-03 0.  1.
        -11    1    3    3    0    0  0.75670351708E+01 -0.11664391557E+02 -0.28130300234E+01  0.14185597973E+02  0.51100000000E-03 0. -1.
         12    1    3    3    0    0  0.85113675923E+01 -0.17142021821E+02  0.58376093325E+01  0.20009247190E+02  0.00000000000E+00 0. -1.
</event>
<event>
 7    1  0.5411321E-010  0.4778727E+02  0.7816164E-02  0.1312668E+00
        -11   -1    0    0    0    0  0.00000000000E+00  0.00000000000E+00  0.45593999997E+02  0.45594000000E+02  0.51100000000E-03 0.  1.
         11   -1    0    0    0    0 -0.00000000000E+00 -0.00000000000E+00 -0.45593999997E+02  0.45594000000E+02  0.51100000000E-03 0. -1.
    9900012    2    1    2    0    0  0.67568891088E+01 -0.37219831584E+02  0.21275617130E+02  0.47787270769E+02  0.19999998744E+02 0.  0.
         12    1    1    2    0    0 -0.67568891088E+01  0.37219831584E+02 -0.21275617130E+02  0.43400729231E+02  0.00000000000E+00 0. -1.
         11    1    3    3    0    0 -0.61272367511E+01 -0.97898436430E+01  0.70530880394E+01  0.13532557774E+02  0.51100000000E-03 0. -1.
        -11    1    3    3    0    0  0.11708965768E+02 -0.27408497893E+02  0.12875441370E+02  0.32466946682E+02  0.51100000000E-03 0.  1.
         12    1    3    3    0    0  0.11751600914E+01 -0.21490047423E-01  0.13470877204E+01  0.17877663127E+01  0.00000000000E+00 0. -1.
</event>
<event>
 7    1  0.5411321E-010  0.4778727E+02  0.7816164E-02  0.1312668E+00
        -11   -1    0    0    0    0  0.00000000000E+00  0.00000000000E+00  0.45593999997E+02  0.45594000000E+02  0.51100000000E-03 0. -1.
         11   -1    0    0    0    0 -0.00000000000E+00 -0.00000000000E+00 -0.45593999997E+02  0.45594000000E+02  0.51100000000E-03 0.  1.
    9900012    2    1    2    0    0  0.14317595570E+02 -0.39865417574E+02  0.94540273947E+01  0.47787266191E+02  0.19999977869E+02 0.  0.
         12    1    1    2    0    0 -0.14317595570E+02  0.39865417574E+02 -0.94540273947E+01  0.43400733809E+02  0.00000000000E+00 0. -1.
         11    1    3    3    0    0  0.37127425757E+01 -0.77217637088E+01  0.10739514385E+02  0.13738532007E+02  0.51100000000E-03 0. -1.
        -11    1    3    3    0    0  0.62939035999E+01 -0.14257751851E+02  0.24524627662E+00  0.15587073374E+02  0.51100000000E-03 0.  1.
         12    1    3    3    0    0  0.43109493941E+01 -0.17885902014E+02 -0.15307332670E+01  0.18461660810E+02  0.00000000000E+00 0. -1.
</event>
<event>
 7    1  0.5411321E-010  0.4778727E+02  0.7816164E-02  0.1312668E+00
        -11   -1    0    0    0    0  0.00000000000E+00  0.00000000000E+00  0.45593999997E+02  0.45594000000E+02  0.51100000000E-03 0.  1.
         11   -1    0    0    0    0 -0.00000000000E+00 -0.00000000000E+00 -0.45593999997E+02  0.45594000000E+02  0.51100000000E-03 0. -1.
    9900012    2    1    2    0    0  0.42794252294E+02 -0.27248282779E+01  0.66970481429E+01  0.47787272214E+02  0.20000005332E+02 0.  0.
         12    1    1    2    0    0 -0.42794252294E+02  0.27248282779E+01 -0.66970481429E+01  0.43400727786E+02  0.00000000000E+00 0. -1.
         11    1    3    3    0    0  0.12063006061E+02 -0.33631772232E+01 -0.58024904584E+01  0.13802027823E+02  0.51100000000E-03 0. -1.
        -11    1    3    3    0    0  0.28536310529E+02 -0.14415982978E+01  0.11504759404E+02  0.30801927107E+02  0.51100000000E-03 0.  1.
        -12    1    3    3    0    0  0.21949357038E+01  0.20799472431E+01  0.99477919692E+00  0.31833172836E+01  0.00000000000E+00 0.  1.
</event>
<event>
 7    1  0.5411321E-010  0.4778729E+02  0.7816164E-02  0.1312668E+00
        -11   -1    0    0    0    0  0.00000000000E+00  0.00000000000E+00  0.45593999997E+02  0.45594000000E+02  0.51100000000E-03 0.  1.
         11   -1    0    0    0    0 -0.00000000000E+00 -0.00000000000E+00 -0.45593999997E+02  0.45594000000E+02  0.51100000000E-03 0. -1.
    9900012    2    1    2    0    0 -0.32080937606E+02 -0.28614342960E+02 -0.59711332115E+01  0.47787290184E+02  0.20000087265E+02 0.  0.
         12    1    1    2    0    0  0.32080937606E+02  0.28614342960E+02  0.59711332115E+01  0.43400709816E+02  0.00000000000E+00 0. -1.
         11    1    3    3    0    0 -0.77984091093E+00 -0.65524645189E+01  0.36076435495E+01  0.75205076530E+01  0.51100000000E-03 0. -1.
        -11    1    3    3    0    0 -0.21121889466E+02 -0.10393350246E+02 -0.44692381300E+01  0.23961010698E+02  0.51100000000E-03 0.  1.
         12    1    3    3    0    0 -0.10179207229E+02 -0.11668528195E+02 -0.51095386310E+01  0.16305771833E+02  0.00000000000E+00 0. -1.
</event>
<event>
 7    1  0.5411321E-010  0.4778727E+02  0.7816164E-02  0.1312668E+00
        -11   -1    0    0    0    0  0.00000000000E+00  0.00000000000E+00  0.45593999997E+02  0.45594000000E+02  0.51100000000E-03 0. -1.
         11   -1    0    0    0    0 -0.00000000000E+00 -0.00000000000E+00 -0.45593999997E+02  0.45594000000E+02  0.51100000000E-03 0.  1.
    9900012    2    1    2    0    0 -0.17383752336E+02  0.36308728285E+02 -0.16220501425E+02  0.47787271188E+02  0.20000000655E+02 0.  0.
         12    1    1    2    0    0  0.17383752336E+02 -0.36308728285E+02  0.16220501425E+02  0.43400728812E+02  0.00000000000E+00 0. -1.
         11    1    3    3    0    0 -0.41666524114E+01  0.29869185240E+01 -0.20869195084E+01  0.55351520198E+01  0.51100000000E-03 0. -1.
        -11    1    3    3    0    0 -0.16295342690E+02  0.30128017040E+02 -0.88966281103E+01  0.35389060402E+02  0.51100000000E-03 0.  1.
        -12    1    3    3    0    0  0.30782427645E+01  0.31937927201E+01 -0.52369538064E+01  0.68630587661E+01  0.00000000000E+00 0.  1.
</event>
<event>
 7    1  0.5411321E-010  0.4778727E+02  0.7816164E-02  0.1312668E+00
        -11   -1    0    0    0    0  0.00000000000E+00  0.00000000000E+00  0.45593999997E+02  0.45594000000E+02  0.51100000000E-03 0.  1.
         11   -1    0    0    0    0 -0.00000000000E+00 -0.00000000000E+00 -0.45593999997E+02  0.45594000000E+02  0.51100000000E-03 0. -1.
    9900012    2    1    2    0    0 -0.25489626914E+02 -0.13248555272E+02  0.32532721573E+02  0.47787271090E+02  0.20000000208E+02 0.  0.
         12    1    1    2    0    0  0.25489626914E+02  0.13248555272E+02 -0.32532721573E+02  0.43400728910E+02  0.00000000000E+00 0. -1.
         11    1    3    3    0    0 -0.76027329564E+01  0.31940302014E+01  0.15770540150E+02  0.17796441055E+02  0.51100000000E-03 0. -1.
        -11    1    3    3    0    0 -0.17764900605E+02 -0.16354942755E+02  0.17121724235E+02  0.29601170366E+02  0.51100000000E-03 0.  1.
        -12    1    3    3    0    0 -0.12199335251E+00 -0.87642718984E-01 -0.35954281201E+00  0.38965966934E+00  0.00000000000E+00 0.  1.
</event>
<event>
 7    1  0.5411321E-010  0.4778727E+02  0.7816164E-02  0.1312668E+00
        -11   -1    0    0    0    0  0.00000000000E+00  0.00000000000E+00  0.45593999997E+02  0.45594000000E+02  0.51100000000E-03 0.  1.
         11   -1    0    0    0    0 -0.00000000000E+00 -0.00000000000E+00 -0.45593999997E+02  0.45594000000E+02  0.51100000000E-03 0. -1.
    9900012    2    1    2    0    0  0.41762179263E+02  0.50609021510E+01  0.10673847004E+02  0.47787270084E+02  0.19999995622E+02 0.  0.
         12    1    1    2    0    0 -0.41762179263E+02 -0.50609021510E+01 -0.10673847004E+02  0.43400729916E+02  0.00000000000E+00 0. -1.
         11    1    3    3    0    0  0.88417264502E+01  0.38950073922E+01 -0.26384472233E+01  0.10015418774E+02  0.51100000000E-03 0. -1.
        -11    1    3    3    0    0  0.23861372710E+02  0.68675882901E+00  0.15471726514E+02  0.28446635423E+02  0.51100000000E-03 0.  1.
        -12    1    3    3    0    0  0.90590801028E+01  0.47913592976E+00 -0.21594322870E+01  0.93252158876E+01  0.00000000000E+00 0.  1.
</event>
<event>
 7    1  0.5411321E-010  0.4778727E+02  0.7816164E-02  0.1312668E+00
        -11   -1    0    0    0    0  0.00000000000E+00  0.00000000000E+00  0.45593999997E+02  0.45594000000E+02  0.51100000000E-03 0. -1.
         11   -1    0    0    0    0 -0.00000000000E+00 -0.00000000000E+00 -0.45593999997E+02  0.45594000000E+02  0.51100000000E-03 0.  1.
    9900012    2    1    2    0    0  0.36964804178E+02 -0.10090809016E+02 -0.20381414024E+02  0.47787271756E+02  0.20000003244E+02 0.  0.
         12    1    1    2    0    0 -0.36964804178E+02  0.10090809016E+02  0.20381414024E+02  0.43400728244E+02  0.00000000000E+00 0. -1.
         11    1    3    3    0    0  0.15059363530E+02 -0.15288477321E+01  0.17437741669E+01  0.15236881371E+02  0.51100000000E-03 0. -1.
        -11    1    3    3    0    0  0.20449828504E+02 -0.69157229795E+01 -0.19190977084E+02  0.28884534129E+02  0.51100000000E-03 0.  1.
         12    1    3    3    0    0  0.14556121442E+01 -0.16462383040E+01 -0.29342111063E+01  0.36658562553E+01  0.00000000000E+00 0. -1.
</event>
<event>
 7    1  0.5411321E-010  0.4778727E+02  0.7816164E-02  0.1312668E+00
        -11   -1    0    0    0    0  0.00000000000E+00  0.00000000000E+00  0.45593999997E+02  0.45594000000E+02  0.51100000000E-03 0.  1.
         11   -1    0    0    0    0 -0.00000000000E+00 -0.00000000000E+00 -0.45593999997E+02  0.45594000000E+02  0.51100000000E-03 0. -1.
    9900012    2    1    2    0    0 -0.40662576403E+02 -0.14663045906E+02  0.38952492771E+01  0.47787274178E+02  0.20000014286E+02 0.  0.
         12    1    1    2    0    0  0.40662576403E+02  0.14663045906E+02 -0.38952492771E+01  0.43400725822E+02  0.00000000000E+00 0. -1.
         11    1    3    3    0    0 -0.12520966998E+02 -0.12523532522E+02  0.12848683525E+01  0.17755685521E+02  0.51100000000E-03 0.  1.
        -11    1    3    3    0    0 -0.20139430295E+02  0.10908431322E+01  0.55438894951E+01  0.20917009881E+02  0.51100000000E-03 0. -1.
         12    1    3    3    0    0 -0.80021791098E+01 -0.32303565163E+01 -0.29335085705E+01  0.91145787758E+01  0.00000000000E+00 0. -1.
</event>
<event>
 7    1  0.5411321E-010  0.4778723E+02  0.7816164E-02  0.1312668E+00
        -11   -1    0    0    0    0  0.00000000000E+00  0.00000000000E+00  0.45593999997E+02  0.45594000000E+02  0.51100000000E-03 0.  1.
         11   -1    0    0    0    0 -0.00000000000E+00 -0.00000000000E+00 -0.45593999997E+02  0.45594000000E+02  0.51100000000E-03 0. -1.
    9900012    2    1    2    0    0 -0.37772533820E+01 -0.41324357346E+02  0.12714436904E+02  0.47787227438E+02  0.19999801181E+02 0.  0.
         12    1    1    2    0    0  0.37772533820E+01  0.41324357346E+02 -0.12714436904E+02  0.43400772562E+02  0.00000000000E+00 0. -1.
         11    1    3    3    0    0 -0.16673462715E+00 -0.93336097935E+01  0.10344836393E+02  0.13934120441E+02  0.51100000000E-03 0. -1.
        -11    1    3    3    0    0 -0.42977052542E+01 -0.92720959224E+01 -0.26898720115E+01  0.10567754962E+02  0.51100000000E-03 0.  1.
         12    1    3    3    0    0  0.68718649937E+00 -0.22718651630E+02  0.50594725226E+01  0.23285352035E+02  0.00000000000E+00 0. -1.
</event>
<event>
 7    1  0.5411321E-010  0.4778728E+02  0.7816164E-02  0.1312668E+00
        -11   -1    0    0    0    0  0.00000000000E+00  0.00000000000E+00  0.45593999997E+02  0.45594000000E+02  0.51100000000E-03 0.  1.
         11   -1    0    0    0    0 -0.00000000000E+00 -0.00000000000E+00 -0.45593999997E+02  0.45594000000E+02  0.51100000000E-03 0. -1.
    9900012    2    1    2    0    0 -0.14667644475E+02 -0.13830860115E+02  0.38434232056E+02  0.47787277890E+02  0.20000031211E+02 0.  0.
         12    1    1    2    0    0  0.14667644475E+02  0.13830860115E+02 -0.38434232056E+02  0.43400722110E+02  0.00000000000E+00 0. -1.
         11    1    3    3    0    0 -0.12158682943E+02 -0.27639039579E+01  0.16203523458E+02  0.20445706363E+02  0.51100000000E-03 0. -1.
        -11    1    3    3    0    0  0.60829021253E+00 -0.69468436275E+01  0.20862332274E+02  0.21996944368E+02  0.51100000000E-03 0.  1.
         12    1    3    3    0    0 -0.31172517449E+01 -0.41201125295E+01  0.13683763241E+01  0.53446271583E+01  0.00000000000E+00 0. -1.
</event>
<event>
 7    1  0.5411321E-010  0.4778727E+02  0.7816164E-02  0.1312668E+00
        -11   -1    0    0    0    0  0.00000000000E+00  0.00000000000E+00  0.45593999997E+02  0.45594000000E+02  0.51100000000E-03 0.  1.
         11   -1    0    0    0    0 -0.00000000000E+00 -0.00000000000E+00 -0.45593999997E+02  0.45594000000E+02  0.51100000000E-03 0. -1.
    9900012    2    1    2    0    0 -0.16294940166E+02  0.26182073757E+02  0.30538456891E+02  0.47787269470E+02  0.19999992823E+02 0.  0.
         12    1    1    2    0    0  0.16294940166E+02 -0.26182073757E+02 -0.30538456891E+02  0.43400730530E+02  0.00000000000E+00 0. -1.
         11    1    3    3    0    0  0.17705167404E+00  0.67945050808E+01  0.69133182060E+01  0.96948757324E+01  0.51100000000E-03 0. -1.
        -11    1    3    3    0    0 -0.16167892091E+02  0.21776481488E+02  0.23103245198E+02  0.35628300824E+02  0.51100000000E-03 0.  1.
        -12    1    3    3    0    0 -0.30409974918E+00 -0.23889128116E+01  0.52189348704E+00  0.24640929143E+01  0.00000000000E+00 0.  1.
</event>
<event>
 7    1  0.5411321E-010  0.4778727E+02  0.7816164E-02  0.1312668E+00
        -11   -1    0    0    0    0  0.00000000000E+00  0.00000000000E+00  0.45593999997E+02  0.45594000000E+02  0.51100000000E-03 0. -1.
         11   -1    0    0    0    0 -0.00000000000E+00 -0.00000000000E+00 -0.45593999997E+02  0.45594000000E+02  0.51100000000E-03 0.  1.
    9900012    2    1    2    0    0 -0.15996870249E+01  0.30117204583E+02 -0.31209266666E+02  0.47787270325E+02  0.19999996721E+02 0.  0.
         12    1    1    2    0    0  0.15996870249E+01 -0.30117204583E+02  0.31209266666E+02  0.43400729675E+02  0.00000000000E+00 0. -1.
         11    1    3    3    0    0 -0.74011062433E+01  0.10724527595E+02 -0.85010782992E+01  0.15558283912E+02  0.51100000000E-03 0. -1.
        -11    1    3    3    0    0  0.68822606510E+01  0.19898337444E+02 -0.22796956897E+02  0.31032411907E+02  0.51100000000E-03 0.  1.
        -12    1    3    3    0    0 -0.10808414326E+01 -0.50566045564E+00  0.88768531158E-01  0.11965745071E+01  0.00000000000E+00 0.  1.
</event>
<event>
 7    1  0.5411321E-010  0.4778727E+02  0.7816164E-02  0.1312668E+00
        -11   -1    0    0    0    0  0.00000000000E+00  0.00000000000E+00  0.45593999997E+02  0.45594000000E+02  0.51100000000E-03 0.  1.
         11   -1    0    0    0    0 -0.00000000000E+00 -0.00000000000E+00 -0.45593999997E+02  0.45594000000E+02  0.51100000000E-03 0. -1.
    9900012    2    1    2    0    0 -0.23801636678E+02 -0.28232849942E+02  0.22803767365E+02  0.47787268088E+02  0.19999986521E+02 0.  0.
         12    1    1    2    0    0  0.23801636678E+02  0.28232849942E+02 -0.22803767365E+02  0.43400731912E+02  0.00000000000E+00 0. -1.
         11    1    3    3    0    0  0.21142434705E+01 -0.14875255878E+01 -0.14398114977E+01  0.29590226828E+01  0.51100000000E-03 0. -1.
        -11    1    3    3    0    0 -0.14389526301E+02 -0.10973496800E+02  0.13081259234E+02  0.22329250829E+02  0.51100000000E-03 0.  1.
         12    1    3    3    0    0 -0.11526353848E+02 -0.15771827555E+02  0.11162319629E+02  0.22498994576E+02  0.00000000000E+00 0. -1.
</event>
<event>
 7    1  0.5411321E-010  0.4778727E+02  0.7816164E-02  0.1312668E+00
        -11   -1    0    0    0    0  0.00000000000E+00  0.00000000000E+00  0.45593999997E+02  0.45594000000E+02  0.51100000000E-03 0. -1.
         11   -1    0    0    0    0 -0.00000000000E+00 -0.00000000000E+00 -0.45593999997E+02  0.45594000000E+02  0.51100000000E-03 0.  1.
    9900012    2    1    2    0    0  0.28855120040E+02 -0.25047282227E+02  0.20582503686E+02  0.47787265474E+02  0.19999974600E+02 0.  0.
         12    1    1    2    0    0 -0.28855120040E+02  0.25047282227E+02 -0.20582503686E+02  0.43400734526E+02  0.00000000000E+00 0. -1.
         11    1    3    3    0    0 -0.76213483372E+00 -0.74637548514E+00  0.13504646324E+01  0.17209534724E+01  0.51100000000E-03 0. -1.
        -11    1    3    3    0    0  0.11130244019E+02 -0.85396629325E+00  0.13037068953E+01  0.11238827442E+02  0.51100000000E-03 0.  1.
        -12    1    3    3    0    0  0.18487010855E+02 -0.23446940449E+02  0.17928332158E+02  0.34827484559E+02  0.00000000000E+00 0.  1.
</event>
<event>
 7    1  0.5411321E-010  0.4778728E+02  0.7816164E-02  0.1312668E+00
        -11   -1    0    0    0    0  0.00000000000E+00  0.00000000000E+00  0.45593999997E+02  0.45594000000E+02  0.51100000000E-03 0. -1.
         11   -1    0    0    0    0 -0.00000000000E+00 -0.00000000000E+00 -0.45593999997E+02  0.45594000000E+02  0.51100000000E-03 0.  1.
    9900012    2    1    2    0    0  0.81472954043E+01 -0.26660303913E+02 -0.33263676031E+02  0.47787281455E+02  0.20000047466E+02 0.  0.
         12    1    1    2    0    0 -0.81472954043E+01  0.26660303913E+02  0.33263676031E+02  0.43400718545E+02  0.00000000000E+00 0. -1.
         11    1    3    3    0    0  0.91597169393E+01 -0.15848771904E+02 -0.93109223420E+01  0.20537216471E+02  0.51100000000E-03 0. -1.
        -11    1    3    3    0    0  0.23153579450E+01 -0.63832671478E+01 -0.87904995698E+01  0.11107648934E+02  0.51100000000E-03 0.  1.
         12    1    3    3    0    0 -0.33277794800E+01 -0.44282648612E+01 -0.15162254119E+02  0.16142416050E+02  0.00000000000E+00 0. -1.
</event>
<event>
 7    1  0.5411321E-010  0.4778727E+02  0.7816164E-02  0.1312668E+00
        -11   -1    0    0    0    0  0.00000000000E+00  0.00000000000E+00  0.45593999997E+02  0.45594000000E+02  0.51100000000E-03 0.  1.
         11   -1    0    0    0    0 -0.00000000000E+00 -0.00000000000E+00 -0.45593999997E+02  0.45594000000E+02  0.51100000000E-03 0. -1.
    9900012    2    1    2    0    0 -0.34418922496E+01  0.21160390017E+02  0.37736113359E+02  0.47787274437E+02  0.20000015468E+02 0.  0.
         12    1    1    2    0    0  0.34418922496E+01 -0.21160390017E+02 -0.37736113359E+02  0.43400725563E+02  0.00000000000E+00 0. -1.
         11    1    3    3    0    0  0.52551167474E+01  0.10122089715E+02  0.60379959493E+01  0.12904663791E+02  0.51100000000E-03 0. -1.
        -11    1    3    3    0    0 -0.38639158678E+01  0.27888724110E+01  0.13659472216E+02  0.14466818470E+02  0.51100000000E-03 0.  1.
         12    1    3    3    0    0 -0.48330931291E+01  0.82494278913E+01  0.18038645194E+02  0.20415792176E+02  0.00000000000E+00 0. -1.
</event>
<event>
 7    1  0.5411321E-010  0.4778727E+02  0.7816164E-02  0.1312668E+00
        -11   -1    0    0    0    0  0.00000000000E+00  0.00000000000E+00  0.45593999997E+02  0.45594000000E+02  0.51100000000E-03 0.  1.
         11   -1    0    0    0    0 -0.00000000000E+00 -0.00000000000E+00 -0.45593999997E+02  0.45594000000E+02  0.51100000000E-03 0. -1.
    9900012    2    1    2    0    0 -0.42744734802E+02  0.75468997337E-01 -0.75169913124E+01  0.47787271811E+02  0.20000003497E+02 0.  0.
         12    1    1    2    0    0  0.42744734802E+02 -0.75468997337E-01  0.75169913124E+01  0.43400728189E+02  0.00000000000E+00 0. -1.
         11    1    3    3    0    0 -0.33965680216E+02 -0.53863762067E+01 -0.11335484178E+02  0.36210132325E+02  0.51100000000E-03 0. -1.
        -11    1    3    3    0    0 -0.28335871517E+01  0.38482947248E+00  0.21631294780E+01  0.35855877160E+01  0.51100000000E-03 0.  1.
         12    1    3    3    0    0 -0.59454674345E+01  0.50770157316E+01  0.16553633874E+01  0.79915517703E+01  0.00000000000E+00 0. -1.
</event>
<event>
 7    1  0.5411321E-010  0.4778727E+02  0.7816164E-02  0.1312668E+00
        -11   -1    0    0    0    0  0.00000000000E+00  0.00000000000E+00  0.45593999997E+02  0.45594000000E+02  0.51100000000E-03 0. -1.
         11   -1    0    0    0    0 -0.00000000000E+00 -0.00000000000E+00 -0.45593999997E+02  0.45594000000E+02  0.51100000000E-03 0.  1.
    9900012    2    1    2    0    0 -0.88842043684E+01 -0.20440855101E+00 -0.42481202485E+02  0.47787269192E+02  0.19999991555E+02 0.  0.
         12    1    1    2    0    0  0.88842043684E+01  0.20440855101E+00  0.42481202485E+02  0.43400730808E+02  0.00000000000E+00 0. -1.
         11    1    3    3    0    0  0.33609864237E+01 -0.38305907177E+01 -0.43329136692E+01  0.66890803637E+01  0.51100000000E-03 0. -1.
        -11    1    3    3    0    0 -0.47978495286E+01  0.57036715648E+01 -0.21127951590E+02  0.22404052492E+02  0.51100000000E-03 0.  1.
        -12    1    3    3    0    0 -0.74473412635E+01 -0.20774893981E+01 -0.17020337225E+02  0.18694136336E+02  0.00000000000E+00 0.  1.
</event>
<event>
 7    1  0.5411321E-010  0.4778727E+02  0.7816164E-02  0.1312668E+00
        -11   -1    0    0    0    0  0.00000000000E+00  0.00000000000E+00  0.45593999997E+02  0.45594000000E+02  0.51100000000E-03 0.  1.
         11   -1    0    0    0    0 -0.00000000000E+00 -0.00000000000E+00 -0.45593999997E+02  0.45594000000E+02  0.51100000000E-03 0. -1.
    9900012    2    1    2    0    0 -0.34739842798E+02  0.24911569696E+02 -0.74953681580E+01  0.47787268138E+02  0.19999986747E+02 0.  0.
         12    1    1    2    0    0  0.34739842798E+02 -0.24911569696E+02  0.74953681580E+01  0.43400731862E+02  0.00000000000E+00 0. -1.
         11    1    3    3    0    0 -0.48255180800E+01  0.27764747441E-01  0.10232220315E+01  0.49328875123E+01  0.51100000000E-03 0. -1.
        -11    1    3    3    0    0 -0.20615391021E+02  0.25323774821E+02 -0.73598919531E+01  0.33473212095E+02  0.51100000000E-03 0.  1.
        -12    1    3    3    0    0 -0.92989336975E+01 -0.43996987255E+00 -0.11586982364E+01  0.93811685308E+01  0.00000000000E+00 0.  1.
</event>
<event>
 7    1  0.5411321E-010  0.4778728E+02  0.7816164E-02  0.1312668E+00
        -11   -1    0    0    0    0  0.00000000000E+00  0.00000000000E+00  0.45593999997E+02  0.45594000000E+02  0.51100000000E-03 0.  1.
         11   -1    0    0    0    0 -0.00000000000E+00 -0.00000000000E+00 -0.45593999997E+02  0.45594000000E+02  0.51100000000E-03 0. -1.
    9900012    2    1    2    0    0 -0.19352335918E+02 -0.34616936378E+02  0.17628887939E+02  0.47787275586E+02  0.20000020705E+02 0.  0.
         12    1    1    2    0    0  0.19352335918E+02  0.34616936378E+02 -0.17628887939E+02  0.43400724414E+02  0.00000000000E+00 0. -1.
         11    1    3    3    0    0  0.34554313425E+01 -0.58611750119E+01 -0.41066426108E+00  0.68163057208E+01  0.51100000000E-03 0. -1.
        -11    1    3    3    0    0 -0.18353462068E+02 -0.23345142005E+02  0.13496482980E+02  0.32619017125E+02  0.51100000000E-03 0.  1.
         12    1    3    3    0    0 -0.44543051925E+01 -0.54106193615E+01  0.45430692199E+01  0.83519527393E+01  0.00000000000E+00 0. -1.
</event>
<event>
 7    1  0.5411321E-010  0.4778727E+02  0.7816164E-02  0.1312668E+00
        -11   -1    0    0    0    0  0.00000000000E+00  0.00000000000E+00  0.45593999997E+02  0.45594000000E+02  0.51100000000E-03 0.  1.
         11   -1    0    0    0    0 -0.00000000000E+00 -0.00000000000E+00 -0.45593999997E+02  0.45594000000E+02  0.51100000000E-03 0. -1.
    9900012    2    1    2    0    0 -0.62566627198E+01  0.16960630206E+02  0.39456485592E+02  0.47787273501E+02  0.20000011199E+02 0.  0.
         12    1    1    2    0    0  0.62566627198E+01 -0.16960630206E+02 -0.39456485592E+02  0.43400726499E+02  0.00000000000E+00 0. -1.
         11    1    3    3    0    0  0.80128788757E+00  0.29407898116E+01  0.16590657919E+02  0.16868320528E+02  0.51100000000E-03 0. -1.
        -11    1    3    3    0    0 -0.94161516288E+01  0.42662855432E+01  0.84349282564E+01  0.13342155702E+02  0.51100000000E-03 0.  1.
        -12    1    3    3    0    0  0.23582010215E+01  0.97535548512E+01  0.14430899417E+02  0.17576797270E+02  0.00000000000E+00 0.  1.
</event>
<event>
 7    1  0.5411321E-010  0.4778728E+02  0.7816164E-02  0.1312668E+00
        -11   -1    0    0    0    0  0.00000000000E+00  0.00000000000E+00  0.45593999997E+02  0.45594000000E+02  0.51100000000E-03 0.  1.
         11   -1    0    0    0    0 -0.00000000000E+00 -0.00000000000E+00 -0.45593999997E+02  0.45594000000E+02  0.51100000000E-03 0. -1.
    9900012    2    1    2    0    0  0.94671064795E+01 -0.23369239779E+02  0.35325271253E+02  0.47787282701E+02  0.20000053149E+02 0.  0.
         12    1    1    2    0    0 -0.94671064795E+01  0.23369239779E+02 -0.35325271253E+02  0.43400717299E+02  0.00000000000E+00 0. -1.
         11    1    3    3    0    0 -0.13736494303E+01 -0.50537284607E+01  0.18363118703E+02  0.19095319135E+02  0.51100000000E-03 0. -1.
        -11    1    3    3    0    0  0.10088900500E+02 -0.83434227020E+01  0.86883356957E+01  0.15712599820E+02  0.51100000000E-03 0.  1.
         12    1    3    3    0    0  0.75185541015E+00 -0.99720886165E+01  0.82738168545E+01  0.12979363747E+02  0.00000000000E+00 0. -1.
</event>
<event>
 7    1  0.5411321E-010  0.4778727E+02  0.7816164E-02  0.1312668E+00
        -11   -1    0    0    0    0  0.00000000000E+00  0.00000000000E+00  0.45593999997E+02  0.45594000000E+02  0.51100000000E-03 0.  1.
         11   -1    0    0    0    0 -0.00000000000E+00 -0.00000000000E+00 -0.45593999997E+02  0.45594000000E+02  0.51100000000E-03 0. -1.
    9900012    2    1    2    0    0  0.19072532504E+02  0.38974746524E+02  0.91140049630E+00  0.47787274043E+02  0.20000013671E+02 0.  0.
         12    1    1    2    0    0 -0.19072532504E+02 -0.38974746524E+02 -0.91140049630E+00  0.43400725957E+02  0.00000000000E+00 0. -1.
         11    1    3    3    0    0  0.23613001508E+01  0.36083540712E+01 -0.27375788144E+01  0.51078660448E+01  0.51100000000E-03 0. -1.
        -11    1    3    3    0    0  0.15118569681E+02  0.22767162465E+02  0.91763743099E+01  0.28829163734E+02  0.51100000000E-03 0.  1.
        -12    1    3    3    0    0  0.15926626724E+01  0.12599229988E+02 -0.55273949992E+01  0.13850244264E+02  0.00000000000E+00 0.  1.
</event>
<event>
 7    1  0.5411321E-010  0.4778727E+02  0.7816164E-02  0.1312668E+00
        -11   -1    0    0    0    0  0.00000000000E+00  0.00000000000E+00  0.45593999997E+02  0.45594000000E+02  0.51100000000E-03 0.  1.
         11   -1    0    0    0    0 -0.00000000000E+00 -0.00000000000E+00 -0.45593999997E+02  0.45594000000E+02  0.51100000000E-03 0. -1.
    9900012    2    1    2    0    0  0.96144181069E+01  0.22092011768E+02  0.36098884417E+02  0.47787268720E+02  0.19999989401E+02 0.  0.
         12    1    1    2    0    0 -0.96144181069E+01 -0.22092011768E+02 -0.36098884417E+02  0.43400731280E+02  0.00000000000E+00 0. -1.
         11    1    3    3    0    0  0.18319603357E+01  0.10226101832E+01  0.12415843228E+01  0.24378970753E+01  0.51100000000E-03 0. -1.
        -11    1    3    3    0    0  0.42909034777E+01 -0.62225348787E+00  0.15408831078E+02  0.16007221105E+02  0.51100000000E-03 0.  1.
        -12    1    3    3    0    0  0.34915542935E+01  0.21691655073E+02  0.19448469016E+02  0.29342150539E+02  0.00000000000E+00 0.  1.
</event>
<event>
 7    1  0.5411321E-010  0.4778728E+02  0.7816164E-02  0.1312668E+00
        -11   -1    0    0    0    0  0.00000000000E+00  0.00000000000E+00  0.45593999997E+02  0.45594000000E+02  0.51100000000E-03 0. -1.
         11   -1    0    0    0    0 -0.00000000000E+00 -0.00000000000E+00 -0.45593999997E+02  0.45594000000E+02  0.51100000000E-03 0.  1.
    9900012    2    1    2    0    0 -0.23351155145E+02  0.28311840932E+02 -0.23168644540E+02  0.47787275658E+02  0.20000021036E+02 0.  0.
         12    1    1    2    0    0  0.23351155145E+02 -0.28311840932E+02  0.23168644540E+02  0.43400724342E+02  0.00000000000E+00 0. -1.
         11    1    3    3    0    0 -0.19870409287E+01  0.89155815810E+01 -0.27913542248E+00  0.91385908884E+01  0.51100000000E-03 0. -1.
        -11    1    3    3    0    0 -0.18544924060E+02  0.11906174290E+02 -0.11875129529E+02  0.25033775109E+02  0.51100000000E-03 0.  1.
        -12    1    3    3    0    0 -0.28191901562E+01  0.74900850609E+01 -0.11014379588E+02  0.13614909661E+02  0.00000000000E+00 0.  1.
</event>
<event>
 7    1  0.5411321E-010  0.4778727E+02  0.7816164E-02  0.1312668E+00
        -11   -1    0    0    0    0  0.00000000000E+00  0.00000000000E+00  0.45593999997E+02  0.45594000000E+02  0.51100000000E-03 0.  1.
         11   -1    0    0    0    0 -0.00000000000E+00 -0.00000000000E+00 -0.45593999997E+02  0.45594000000E+02  0.51100000000E-03 0. -1.
    9900012    2    1    2    0    0  0.27403608691E+02  0.31052228944E+02  0.12977856241E+02  0.47787269081E+02  0.19999991047E+02 0.  0.
         12    1    1    2    0    0 -0.27403608691E+02 -0.31052228944E+02 -0.12977856241E+02  0.43400730919E+02  0.00000000000E+00 0. -1.
         11    1    3    3    0    0  0.72771217389E+01  0.22943827263E+02  0.68281364754E+01  0.25019975185E+02  0.51100000000E-03 0. -1.
        -11    1    3    3    0    0  0.69470264657E+01  0.19155528072E+01  0.33142445019E+01  0.79318809971E+01  0.51100000000E-03 0.  1.
         12    1    3    3    0    0  0.13179460487E+02  0.61928488744E+01  0.28354752632E+01  0.14835412899E+02  0.00000000000E+00 0. -1.
</event>
<event>
 7    1  0.5411321E-010  0.4778727E+02  0.7816164E-02  0.1312668E+00
        -11   -1    0    0    0    0  0.00000000000E+00  0.00000000000E+00  0.45593999997E+02  0.45594000000E+02  0.51100000000E-03 0. -1.
         11   -1    0    0    0    0 -0.00000000000E+00 -0.00000000000E+00 -0.45593999997E+02  0.45594000000E+02  0.51100000000E-03 0.  1.
    9900012    2    1    2    0    0  0.15021710583E+01  0.19549415026E+02 -0.38719335697E+02  0.47787273018E+02  0.20000008999E+02 0.  0.
         12    1    1    2    0    0 -0.15021710583E+01 -0.19549415026E+02  0.38719335697E+02  0.43400726982E+02  0.00000000000E+00 0. -1.
         11    1    3    3    0    0  0.56118770683E+01  0.23089107996E+01 -0.90524217142E+01  0.10898191247E+02  0.51100000000E-03 0. -1.
        -11    1    3    3    0    0 -0.67274939776E+01  0.52013278673E+01 -0.18062047308E+02  0.19963730614E+02  0.51100000000E-03 0.  1.
         12    1    3    3    0    0  0.26177879676E+01  0.12039176359E+02 -0.11604866674E+02  0.16925351157E+02  0.00000000000E+00 0. -1.
</event>
<event>
 7    1  0.5411321E-010  0.4778728E+02  0.7816164E-02  0.1312668E+00
        -11   -1    0    0    0    0  0.00000000000E+00  0.00000000000E+00  0.45593999997E+02  0.45594000000E+02  0.51100000000E-03 0. -1.
         11   -1    0    0    0    0 -0.00000000000E+00 -0.00000000000E+00 -0.45593999997E+02  0.45594000000E+02  0.51100000000E-03 0.  1.
    9900012    2    1    2    0    0 -0.73773361140E+01 -0.20123858086E+02 -0.37738945191E+02  0.47787277235E+02  0.20000028225E+02 0.  0.
         12    1    1    2    0    0  0.73773361140E+01  0.20123858086E+02  0.37738945191E+02  0.43400722765E+02  0.00000000000E+00 0. -1.
         11    1    3    3    0    0 -0.90646790899E+01 -0.87504520723E-01 -0.13868040512E+02  0.16567999636E+02  0.51100000000E-03 0. -1.
        -11    1    3    3    0    0  0.78933138546E+00 -0.72242662828E+01 -0.81697771077E+01  0.10934272980E+02  0.51100000000E-03 0.  1.
         12    1    3    3    0    0  0.89801159047E+00 -0.12812087282E+02 -0.15701127572E+02  0.20285004618E+02  0.00000000000E+00 0. -1.
</event>
<event>
 7    1  0.5411321E-010  0.4778727E+02  0.7816164E-02  0.1312668E+00
        -11   -1    0    0    0    0  0.00000000000E+00  0.00000000000E+00  0.45593999997E+02  0.45594000000E+02  0.51100000000E-03 0.  1.
         11   -1    0    0    0    0 -0.00000000000E+00 -0.00000000000E+00 -0.45593999997E+02  0.45594000000E+02  0.51100000000E-03 0. -1.
    9900012    2    1    2    0    0  0.16787553519E+02  0.20567301007E+02  0.34333474524E+02  0.47787270781E+02  0.19999998798E+02 0.  0.
         12    1    1    2    0    0 -0.16787553519E+02 -0.20567301007E+02 -0.34333474524E+02  0.43400729219E+02  0.00000000000E+00 0. -1.
         11    1    3    3    0    0  0.16406354900E+02  0.15206043586E+02  0.16776250158E+02  0.27961309202E+02  0.51100000000E-03 0. -1.
        -11    1    3    3    0    0 -0.16219199483E+01  0.63251250896E+01  0.99554669777E+01  0.11905845401E+02  0.51100000000E-03 0.  1.
         12    1    3    3    0    0  0.20031185666E+01 -0.96386766870E+00  0.76017573881E+01  0.79201161773E+01  0.00000000000E+00 0. -1.
</event>
<event>
 7    1  0.5411321E-010  0.4778726E+02  0.7816164E-02  0.1312668E+00
        -11   -1    0    0    0    0  0.00000000000E+00  0.00000000000E+00  0.45593999997E+02  0.45594000000E+02  0.51100000000E-03 0.  1.
         11   -1    0    0    0    0 -0.00000000000E+00 -0.00000000000E+00 -0.45593999997E+02  0.45594000000E+02  0.51100000000E-03 0. -1.
    9900012    2    1    2    0    0 -0.37954582618E+02  0.19292778619E+02  0.84179860772E+01  0.47787261087E+02  0.19999954601E+02 0.  0.
         12    1    1    2    0    0  0.37954582618E+02 -0.19292778619E+02 -0.84179860772E+01  0.43400738913E+02  0.00000000000E+00 0. -1.
         11    1    3    3    0    0 -0.26876941289E+02  0.16462504821E+02  0.31163885629E+01  0.31671689503E+02  0.51100000000E-03 0. -1.
        -11    1    3    3    0    0 -0.18498243853E+01  0.53092079361E+01  0.25410355202E+01  0.61697974797E+01  0.51100000000E-03 0.  1.
         12    1    3    3    0    0 -0.92278169438E+01 -0.24789341384E+01  0.27605619941E+01  0.99457741043E+01  0.00000000000E+00 0. -1.
</event>
<event>
 7    1  0.5411321E-010  0.4778728E+02  0.7816164E-02  0.1312668E+00
        -11   -1    0    0    0    0  0.00000000000E+00  0.00000000000E+00  0.45593999997E+02  0.45594000000E+02  0.51100000000E-03 0.  1.
         11   -1    0    0    0    0 -0.00000000000E+00 -0.00000000000E+00 -0.45593999997E+02  0.45594000000E+02  0.51100000000E-03 0. -1.
    9900012    2    1    2    0    0 -0.32296551420E+02  0.21169176970E+02  0.19809634556E+02  0.47787275255E+02  0.20000019197E+02 0.  0.
         12    1    1    2    0    0  0.32296551420E+02 -0.21169176970E+02 -0.19809634556E+02  0.43400724745E+02  0.00000000000E+00 0. -1.
         11    1    3    3    0    0 -0.54891566104E+01  0.33636633623E+01 -0.35367573564E+01  0.73453198955E+01  0.51100000000E-03 0. -1.
        -11    1    3    3    0    0 -0.19230339591E+02  0.16189343335E+02  0.16227516720E+02  0.29920446146E+02  0.51100000000E-03 0.  1.
         12    1    3    3    0    0 -0.75770552181E+01  0.16161702723E+01  0.71188751918E+01  0.10521509213E+02  0.00000000000E+00 0. -1.
</event>
<event>
 7    1  0.5411321E-010  0.4778727E+02  0.7816164E-02  0.1312668E+00
        -11   -1    0    0    0    0  0.00000000000E+00  0.00000000000E+00  0.45593999997E+02  0.45594000000E+02  0.51100000000E-03 0.  1.
         11   -1    0    0    0    0 -0.00000000000E+00 -0.00000000000E+00 -0.45593999997E+02  0.45594000000E+02  0.51100000000E-03 0. -1.
    9900012    2    1    2    0    0 -0.23478584217E+02 -0.33660928786E+02 -0.14118123235E+02  0.47787269047E+02  0.19999990893E+02 0.  0.
         12    1    1    2    0    0  0.23478584217E+02  0.33660928786E+02  0.14118123235E+02  0.43400730953E+02  0.00000000000E+00 0. -1.
         11    1    3    3    0    0 -0.21100181143E+02 -0.14092606006E+02 -0.63253808337E+01  0.26150136353E+02  0.51100000000E-03 0. -1.
        -11    1    3    3    0    0 -0.30397982049E+01 -0.17645680706E+02 -0.58819685642E+01  0.18846961961E+02  0.51100000000E-03 0.  1.
         12    1    3    3    0    0  0.66139513117E+00 -0.19226420736E+01 -0.19107738369E+01  0.27901707328E+01  0.00000000000E+00 0. -1.
</event>
<event>
 7    1  0.5411321E-010  0.4778727E+02  0.7816164E-02  0.1312668E+00
        -11   -1    0    0    0    0  0.00000000000E+00  0.00000000000E+00  0.45593999997E+02  0.45594000000E+02  0.51100000000E-03 0.  1.
         11   -1    0    0    0    0 -0.00000000000E+00 -0.00000000000E+00 -0.45593999997E+02  0.45594000000E+02  0.51100000000E-03 0. -1.
    9900012    2    1    2    0    0  0.17116102502E+02  0.31239150976E+02  0.24794710146E+02  0.47787272243E+02  0.20000005465E+02 0.  0.
         12    1    1    2    0    0 -0.17116102502E+02 -0.31239150976E+02 -0.24794710146E+02  0.43400727757E+02  0.00000000000E+00 0. -1.
         11    1    3    3    0    0  0.31340773401E+00  0.14844947473E+00 -0.14622454120E+01  0.15028052304E+01  0.51100000000E-03 0. -1.
        -11    1    3    3    0    0  0.12035086794E+01  0.16534458592E+02  0.91384108645E+01  0.18930063588E+02  0.51100000000E-03 0.  1.
        -12    1    3    3    0    0  0.15599186089E+02  0.14556242910E+02  0.17118544694E+02  0.27354403425E+02  0.00000000000E+00 0.  1.
</event>
<event>
 7    1  0.5411321E-010  0.4778728E+02  0.7816164E-02  0.1312668E+00
        -11   -1    0    0    0    0  0.00000000000E+00  0.00000000000E+00  0.45593999997E+02  0.45594000000E+02  0.51100000000E-03 0.  1.
         11   -1    0    0    0    0 -0.00000000000E+00 -0.00000000000E+00 -0.45593999997E+02  0.45594000000E+02  0.51100000000E-03 0. -1.
    9900012    2    1    2    0    0  0.41953769761E+02  0.12334018913E+01  0.11044576215E+02  0.47787277181E+02  0.20000027980E+02 0.  0.
         12    1    1    2    0    0 -0.41953769761E+02 -0.12334018913E+01 -0.11044576215E+02  0.43400722819E+02  0.00000000000E+00 0. -1.
         11    1    3    3    0    0  0.17255185612E+02  0.33366037911E+01  0.11952963153E+02  0.21254356818E+02  0.51100000000E-03 0. -1.
        -11    1    3    3    0    0  0.83472583056E+01 -0.83027117652E-02  0.41055934310E+01  0.93022947619E+01  0.51100000000E-03 0.  1.
         12    1    3    3    0    0  0.16351325844E+02 -0.20948991880E+01 -0.50139803691E+01  0.17230625601E+02  0.00000000000E+00 0. -1.
</event>
<event>
 7    1  0.5411321E-010  0.4778727E+02  0.7816164E-02  0.1312668E+00
        -11   -1    0    0    0    0  0.00000000000E+00  0.00000000000E+00  0.45593999997E+02  0.45594000000E+02  0.51100000000E-03 0.  1.
         11   -1    0    0    0    0 -0.00000000000E+00 -0.00000000000E+00 -0.45593999997E+02  0.45594000000E+02  0.51100000000E-03 0. -1.
    9900012    2    1    2    0    0  0.23426439642E+02  0.29214606751E+02  0.21939286323E+02  0.47787267215E+02  0.19999982542E+02 0.  0.
         12    1    1    2    0    0 -0.23426439642E+02 -0.29214606751E+02 -0.21939286323E+02  0.43400732785E+02  0.00000000000E+00 0. -1.
         11    1    3    3    0    0 -0.59536104649E-01 -0.12215277775E+01 -0.92280826054E-01  0.12264545124E+01  0.51100000000E-03 0. -1.
        -11    1    3    3    0    0  0.20614472428E+02  0.16319158152E+02  0.11403293933E+02  0.28658445684E+02  0.51100000000E-03 0.  1.
        -12    1    3    3    0    0  0.28715033186E+01  0.14116976377E+02  0.10628273216E+02  0.17902367019E+02  0.00000000000E+00 0.  1.
</event>
<event>
 7    1  0.5411321E-010  0.4778727E+02  0.7816164E-02  0.1312668E+00
        -11   -1    0    0    0    0  0.00000000000E+00  0.00000000000E+00  0.45593999997E+02  0.45594000000E+02  0.51100000000E-03 0. -1.
         11   -1    0    0    0    0 -0.00000000000E+00 -0.00000000000E+00 -0.45593999997E+02  0.45594000000E+02  0.51100000000E-03 0.  1.
    9900012    2    1    2    0    0 -0.30147463205E+02  0.71674531128E+01  0.30387191846E+02  0.47787270166E+02  0.19999995996E+02 0.  0.
         12    1    1    2    0    0  0.30147463205E+02 -0.71674531128E+01 -0.30387191846E+02  0.43400729834E+02  0.00000000000E+00 0. -1.
         11    1    3    3    0    0 -0.63136240918E+01  0.74755695989E+01  0.89163628052E+01  0.13238108473E+02  0.51100000000E-03 0. -1.
        -11    1    3    3    0    0 -0.11999335545E+02 -0.42454175869E+01  0.17134076910E+02  0.21344418845E+02  0.51100000000E-03 0.  1.
        -12    1    3    3    0    0 -0.11834503568E+02  0.39373011008E+01  0.43367521311E+01  0.13204742849E+02  0.00000000000E+00 0.  1.
</event>
<event>
 7    1  0.5411321E-010  0.4778727E+02  0.7816164E-02  0.1312668E+00
        -11   -1    0    0    0    0  0.00000000000E+00  0.00000000000E+00  0.45593999997E+02  0.45594000000E+02  0.51100000000E-03 0.  1.
         11   -1    0    0    0    0 -0.00000000000E+00 -0.00000000000E+00 -0.45593999997E+02  0.45594000000E+02  0.51100000000E-03 0. -1.
    9900012    2    1    2    0    0 -0.26715498589E+02 -0.11468063984E+00  0.34203687023E+02  0.47787271636E+02  0.20000002699E+02 0.  0.
         12    1    1    2    0    0  0.26715498589E+02  0.11468063984E+00 -0.34203687023E+02  0.43400728364E+02  0.00000000000E+00 0. -1.
         11    1    3    3    0    0 -0.87654107044E+01 -0.89767756473E+01  0.10548138484E+02  0.16391404808E+02  0.51100000000E-03 0. -1.
        -11    1    3    3    0    0 -0.12314106113E+02  0.40034822620E+01  0.17305587073E+02  0.21613616629E+02  0.51100000000E-03 0.  1.
         12    1    3    3    0    0 -0.56359817718E+01  0.48586127454E+01  0.63499614663E+01  0.97822501995E+01  0.00000000000E+00 0. -1.
</event>
<event>
 7    1  0.5411321E-010  0.4778727E+02  0.7816164E-02  0.1312668E+00
        -11   -1    0    0    0    0  0.00000000000E+00  0.00000000000E+00  0.45593999997E+02  0.45594000000E+02  0.51100000000E-03 0. -1.
         11   -1    0    0    0    0 -0.00000000000E+00 -0.00000000000E+00 -0.45593999997E+02  0.45594000000E+02  0.51100000000E-03 0.  1.
    9900012    2    1    2    0    0 -0.38541001265E+02 -0.56527346081E+01 -0.19137962150E+02  0.47787265187E+02  0.19999973295E+02 0.  0.
         12    1    1    2    0    0  0.38541001265E+02  0.56527346081E+01  0.19137962150E+02  0.43400734813E+02  0.00000000000E+00 0. -1.
         11    1    3    3    0    0 -0.16523017387E+02  0.51004736314E+01 -0.50418906859E+01  0.18012373436E+02  0.51100000000E-03 0. -1.
        -11    1    3    3    0    0 -0.21134439721E+02 -0.12294399147E+02 -0.13149300488E+02  0.27761860462E+02  0.51100000000E-03 0.  1.
         12    1    3    3    0    0 -0.88354415595E+00  0.15411909080E+01 -0.94677097605E+00  0.20130312892E+01  0.00000000000E+00 0. -1.
</event>
<event>
 7    1  0.5411321E-010  0.4778727E+02  0.7816164E-02  0.1312668E+00
        -11   -1    0    0    0    0  0.00000000000E+00  0.00000000000E+00  0.45593999997E+02  0.45594000000E+02  0.51100000000E-03 0.  1.
         11   -1    0    0    0    0 -0.00000000000E+00 -0.00000000000E+00 -0.45593999997E+02  0.45594000000E+02  0.51100000000E-03 0. -1.
    9900012    2    1    2    0    0  0.30675061215E+02 -0.12997090735E+02  0.27816178080E+02  0.47787268312E+02  0.19999987540E+02 0.  0.
         12    1    1    2    0    0 -0.30675061215E+02  0.12997090735E+02 -0.27816178080E+02  0.43400731688E+02  0.00000000000E+00 0. -1.
         11    1    3    3    0    0  0.76716807833E+00  0.69836807950E-01 -0.35618737141E+00  0.84870121057E+00  0.51100000000E-03 0. -1.
        -11    1    3    3    0    0  0.55298567970E+01 -0.10905396424E+02  0.49197675579E+01  0.13179950699E+02  0.51100000000E-03 0.  1.
        -12    1    3    3    0    0  0.24378036340E+02 -0.21615311193E+01  0.23252597894E+02  0.33758616402E+02  0.00000000000E+00 0.  1.
</event>
<event>
 7    1  0.5411321E-010  0.4778725E+02  0.7816164E-02  0.1312668E+00
        -11   -1    0    0    0    0  0.00000000000E+00  0.00000000000E+00  0.45593999997E+02  0.45594000000E+02  0.51100000000E-03 0.  1.
         11   -1    0    0    0    0 -0.00000000000E+00 -0.00000000000E+00 -0.45593999997E+02  0.45594000000E+02  0.51100000000E-03 0. -1.
    9900012    2    1    2    0    0 -0.61385957600E+01 -0.13985099976E+02  0.40624616559E+02  0.47787252889E+02  0.19999917220E+02 0.  0.
         12    1    1    2    0    0  0.61385957600E+01  0.13985099976E+02 -0.40624616559E+02  0.43400747111E+02  0.00000000000E+00 0. -1.
         11    1    3    3    0    0 -0.63064907302E+01 -0.27889565232E+01  0.10409213280E+02  0.12486065241E+02  0.51100000000E-03 0.  1.
        -11    1    3    3    0    0  0.45190307689E+01 -0.94485867629E+01  0.28405746408E+02  0.30275136006E+02  0.51100000000E-03 0. -1.
         12    1    3    3    0    0 -0.43511357987E+01 -0.17475566895E+01  0.18096568711E+01  0.50260516425E+01  0.00000000000E+00 0. -1.
</event>
<event>
 7    1  0.5411321E-010  0.4778727E+02  0.7816164E-02  0.1312668E+00
        -11   -1    0    0    0    0  0.00000000000E+00  0.00000000000E+00  0.45593999997E+02  0.45594000000E+02  0.51100000000E-03 0.  1.
         11   -1    0    0    0    0 -0.00000000000E+00 -0.00000000000E+00 -0.45593999997E+02  0.45594000000E+02  0.51100000000E-03 0. -1.
    9900012    2    1    2    0    0  0.18760928153E+01  0.23225702214E+02  0.36615163780E+02  0.47787272055E+02  0.20000004606E+02 0.  0.
         12    1    1    2    0    0 -0.18760928153E+01 -0.23225702214E+02 -0.36615163780E+02  0.43400727945E+02  0.00000000000E+00 0. -1.
         11    1    3    3    0    0  0.67735064364E+00  0.15078005091E+00 -0.30301380381E+00  0.75720284245E+00  0.51100000000E-03 0. -1.
        -11    1    3    3    0    0 -0.32089262675E+01  0.12094391136E+02  0.59045272889E+01  0.13836001861E+02  0.51100000000E-03 0.  1.
        -12    1    3    3    0    0  0.44076684392E+01  0.10980531027E+02  0.31013650294E+02  0.33194067351E+02  0.00000000000E+00 0.  1.
</event>
<event>
 7    1  0.5411321E-010  0.4778727E+02  0.7816164E-02  0.1312668E+00
        -11   -1    0    0    0    0  0.00000000000E+00  0.00000000000E+00  0.45593999997E+02  0.45594000000E+02  0.51100000000E-03 0.  1.
         11   -1    0    0    0    0 -0.00000000000E+00 -0.00000000000E+00 -0.45593999997E+02  0.45594000000E+02  0.51100000000E-03 0. -1.
    9900012    2    1    2    0    0  0.75091546740E+01  0.24305834469E+01  0.42677018941E+02  0.47787273215E+02  0.20000009896E+02 0.  0.
         12    1    1    2    0    0 -0.75091546740E+01 -0.24305834469E+01 -0.42677018941E+02  0.43400726785E+02  0.00000000000E+00 0. -1.
         11    1    3    3    0    0 -0.42316804190E+01  0.39572988270E+01  0.23217563738E+02  0.23929534040E+02  0.51100000000E-03 0. -1.
        -11    1    3    3    0    0  0.10615124006E+02  0.27732166444E+00  0.18867540946E+02  0.21650447261E+02  0.51100000000E-03 0.  1.
         12    1    3    3    0    0  0.11257110868E+01 -0.18040370445E+01  0.59191425685E+00  0.22072919147E+01  0.00000000000E+00 0. -1.
</event>
<event>
 7    1  0.5411321E-010  0.4778725E+02  0.7816164E-02  0.1312668E+00
        -11   -1    0    0    0    0  0.00000000000E+00  0.00000000000E+00  0.45593999997E+02  0.45594000000E+02  0.51100000000E-03 0.  1.
         11   -1    0    0    0    0 -0.00000000000E+00 -0.00000000000E+00 -0.45593999997E+02  0.45594000000E+02  0.51100000000E-03 0. -1.
    9900012    2    1    2    0    0  0.68345653318E+01 -0.40352614806E+02 -0.14442317230E+02  0.47787247334E+02  0.19999891894E+02 0.  0.
         12    1    1    2    0    0 -0.68345653318E+01  0.40352614806E+02  0.14442317230E+02  0.43400752666E+02  0.00000000000E+00 0. -1.
         11    1    3    3    0    0 -0.25399251628E+00  0.12154276964E+01 -0.31850548920E+01  0.34185306214E+01  0.51100000000E-03 0. -1.
        -11    1    3    3    0    0  0.85706876881E+01 -0.32590795478E+02 -0.74922550066E+01  0.34521739856E+02  0.51100000000E-03 0.  1.
        -12    1    3    3    0    0 -0.14821298400E+01 -0.89772470247E+01 -0.37650073316E+01  0.98469768565E+01  0.00000000000E+00 0.  1.
</event>
<event>
 7    1  0.5411321E-010  0.4778728E+02  0.7816164E-02  0.1312668E+00
        -11   -1    0    0    0    0  0.00000000000E+00  0.00000000000E+00  0.45593999997E+02  0.45594000000E+02  0.51100000000E-03 0. -1.
         11   -1    0    0    0    0 -0.00000000000E+00 -0.00000000000E+00 -0.45593999997E+02  0.45594000000E+02  0.51100000000E-03 0.  1.
    9900012    2    1    2    0    0 -0.24817675137E+02  0.15243404696E+02 -0.32176768890E+02  0.47787276019E+02  0.20000022680E+02 0.  0.
         12    1    1    2    0    0  0.24817675137E+02 -0.15243404696E+02  0.32176768890E+02  0.43400723981E+02  0.00000000000E+00 0. -1.
         11    1    3    3    0    0  0.77163286845E+00  0.17539279590E+01  0.12587229660E+01  0.22926108120E+01  0.51100000000E-03 0. -1.
        -11    1    3    3    0    0 -0.16692477228E+02  0.11469074171E+02 -0.15977409646E+02  0.25796435366E+02  0.51100000000E-03 0.  1.
         12    1    3    3    0    0 -0.88968307775E+01  0.20204025661E+01 -0.17458082210E+02  0.19698229841E+02  0.00000000000E+00 0. -1.
</event>
<event>
 7    1  0.5411321E-010  0.4778727E+02  0.7816164E-02  0.1312668E+00
        -11   -1    0    0    0    0  0.00000000000E+00  0.00000000000E+00  0.45593999997E+02  0.45594000000E+02  0.51100000000E-03 0.  1.
         11   -1    0    0    0    0 -0.00000000000E+00 -0.00000000000E+00 -0.45593999997E+02  0.45594000000E+02  0.51100000000E-03 0. -1.
    9900012    2    1    2    0    0 -0.41989251148E+01 -0.13464603808E+02  0.41045056610E+02  0.47787271897E+02  0.20000003885E+02 0.  0.
         12    1    1    2    0    0  0.41989251148E+01  0.13464603808E+02 -0.41045056610E+02  0.43400728103E+02  0.00000000000E+00 0. -1.
         11    1    3    3    0    0  0.33777853089E+01 -0.38968172198E+01  0.15658638167E+01  0.53894849282E+01  0.51100000000E-03 0. -1.
        -11    1    3    3    0    0 -0.25234381283E+01 -0.17618872242E+01  0.25007128430E+02  0.25195802411E+02  0.51100000000E-03 0.  1.
         12    1    3    3    0    0 -0.50532722953E+01 -0.78058993643E+01  0.14472064363E+02  0.17201984557E+02  0.00000000000E+00 0. -1.
</event>
<event>
 7    1  0.5411321E-010  0.4778727E+02  0.7816164E-02  0.1312668E+00
        -11   -1    0    0    0    0  0.00000000000E+00  0.00000000000E+00  0.45593999997E+02  0.45594000000E+02  0.51100000000E-03 0.  1.
         11   -1    0    0    0    0 -0.00000000000E+00 -0.00000000000E+00 -0.45593999997E+02  0.45594000000E+02  0.51100000000E-03 0. -1.
    9900012    2    1    2    0    0  0.34482043667E+01  0.43192261308E+02 -0.24823056880E+01  0.47787269686E+02  0.19999993805E+02 0.  0.
         12    1    1    2    0    0 -0.34482043667E+01 -0.43192261308E+02  0.24823056880E+01  0.43400730314E+02  0.00000000000E+00 0. -1.
         11    1    3    3    0    0  0.21049439356E+01  0.26727930224E+02 -0.97472254533E+01  0.28527555930E+02  0.51100000000E-03 0.  1.
        -11    1    3    3    0    0  0.18118663148E+01  0.15978764801E+02  0.49160102985E+01  0.16815794409E+02  0.51100000000E-03 0. -1.
         12    1    3    3    0    0 -0.46860588372E+00  0.48556628393E+00  0.23489094668E+01  0.24439193468E+01  0.00000000000E+00 0. -1.
</event>
<event>
 7    1  0.5411321E-010  0.4778727E+02  0.7816164E-02  0.1312668E+00
        -11   -1    0    0    0    0  0.00000000000E+00  0.00000000000E+00  0.45593999997E+02  0.45594000000E+02  0.51100000000E-03 0.  1.
         11   -1    0    0    0    0 -0.00000000000E+00 -0.00000000000E+00 -0.45593999997E+02  0.45594000000E+02  0.51100000000E-03 0. -1.
    9900012    2    1    2    0    0 -0.33597080707E+02 -0.19914980168E+02  0.18927578461E+02  0.47787268514E+02  0.19999988464E+02 0.  0.
         12    1    1    2    0    0  0.33597080707E+02  0.19914980168E+02 -0.18927578461E+02  0.43400731486E+02  0.00000000000E+00 0. -1.
         11    1    3    3    0    0 -0.13412657290E+02 -0.15535986373E+02  0.41054540573E+01  0.20931340173E+02  0.51100000000E-03 0. -1.
        -11    1    3    3    0    0 -0.13107796009E+02 -0.52522138316E+01  0.13631384806E+02  0.19626887637E+02  0.51100000000E-03 0.  1.
        -12    1    3    3    0    0 -0.70766274080E+01  0.87322003722E+00  0.11907395979E+01  0.72290407037E+01  0.00000000000E+00 0.  1.
</event>
<event>
 7    1  0.5411321E-010  0.4778727E+02  0.7816164E-02  0.1312668E+00
        -11   -1    0    0    0    0  0.00000000000E+00  0.00000000000E+00  0.45593999997E+02  0.45594000000E+02  0.51100000000E-03 0.  1.
         11   -1    0    0    0    0 -0.00000000000E+00 -0.00000000000E+00 -0.45593999997E+02  0.45594000000E+02  0.51100000000E-03 0. -1.
    9900012    2    1    2    0    0 -0.12977102799E+02 -0.25398608918E+01  0.41337236549E+02  0.47787271712E+02  0.20000003042E+02 0.  0.
         12    1    1    2    0    0  0.12977102799E+02  0.25398608918E+01 -0.41337236549E+02  0.43400728288E+02  0.00000000000E+00 0. -1.
         11    1    3    3    0    0  0.86346141149E+00 -0.73060351499E+01  0.13275259727E+02  0.15177491107E+02  0.51100000000E-03 0. -1.
        -11    1    3    3    0    0 -0.10543119829E+02  0.12204663113E+01  0.24169422288E+02  0.26397118929E+02  0.51100000000E-03 0.  1.
         12    1    3    3    0    0 -0.32974443817E+01  0.35457079469E+01  0.38925545341E+01  0.62126616757E+01  0.00000000000E+00 0. -1.
</event>
<event>
 7    1  0.5411321E-010  0.4778728E+02  0.7816164E-02  0.1312668E+00
        -11   -1    0    0    0    0  0.00000000000E+00  0.00000000000E+00  0.45593999997E+02  0.45594000000E+02  0.51100000000E-03 0. -1.
         11   -1    0    0    0    0 -0.00000000000E+00 -0.00000000000E+00 -0.45593999997E+02  0.45594000000E+02  0.51100000000E-03 0.  1.
    9900012    2    1    2    0    0 -0.34263283571E+02  0.25811281831E+02 -0.65899569587E+01  0.47787281072E+02  0.20000045718E+02 0.  0.
         12    1    1    2    0    0  0.34263283571E+02 -0.25811281831E+02  0.65899569587E+01  0.43400718928E+02  0.00000000000E+00 0. -1.
         11    1    3    3    0    0 -0.13812597124E+01  0.23827042671E+01 -0.81423199124E+00  0.28719561303E+01  0.51100000000E-03 0. -1.
        -11    1    3    3    0    0 -0.32834960384E+02  0.18435371968E+02 -0.93192503991E+01  0.38792344493E+02  0.51100000000E-03 0.  1.
        -12    1    3    3    0    0 -0.47063474438E-01  0.49932055951E+01  0.35435254316E+01  0.61229804482E+01  0.00000000000E+00 0.  1.
</event>
<event>
 7    1  0.5411321E-010  0.4778727E+02  0.7816164E-02  0.1312668E+00
        -11   -1    0    0    0    0  0.00000000000E+00  0.00000000000E+00  0.45593999997E+02  0.45594000000E+02  0.51100000000E-03 0.  1.
         11   -1    0    0    0    0 -0.00000000000E+00 -0.00000000000E+00 -0.45593999997E+02  0.45594000000E+02  0.51100000000E-03 0. -1.
    9900012    2    1    2    0    0  0.93984843407E+01 -0.27352681066E+02  0.32359274310E+02  0.47787270706E+02  0.19999998455E+02 0.  0.
         12    1    1    2    0    0 -0.93984843407E+01  0.27352681066E+02 -0.32359274310E+02  0.43400729294E+02  0.00000000000E+00 0. -1.
         11    1    3    3    0    0  0.32261961651E+00 -0.49742796212E+01  0.14902629822E+02  0.15714194763E+02  0.51100000000E-03 0. -1.
        -11    1    3    3    0    0  0.11064849223E+02 -0.12895555903E+02  0.13069994203E+02  0.21437140647E+02  0.51100000000E-03 0.  1.
        -12    1    3    3    0    0 -0.19889844984E+01 -0.94828455415E+01  0.43866502849E+01  0.10635935296E+02  0.00000000000E+00 0.  1.
</event>
<event>
 7    1  0.5411321E-010  0.4778727E+02  0.7816164E-02  0.1312668E+00
        -11   -1    0    0    0    0  0.00000000000E+00  0.00000000000E+00  0.45593999997E+02  0.45594000000E+02  0.51100000000E-03 0. -1.
         11   -1    0    0    0    0 -0.00000000000E+00 -0.00000000000E+00 -0.45593999997E+02  0.45594000000E+02  0.51100000000E-03 0.  1.
    9900012    2    1    2    0    0  0.61998553142E+01  0.78337670735E+01 -0.42235258541E+02  0.47787272166E+02  0.20000005115E+02 0.  0.
         12    1    1    2    0    0 -0.61998553142E+01 -0.78337670735E+01  0.42235258541E+02  0.43400727834E+02  0.00000000000E+00 0. -1.
         11    1    3    3    0    0  0.42498731417E+01  0.76668386359E+01 -0.31567684841E+02  0.32762181900E+02  0.51100000000E-03 0. -1.
        -11    1    3    3    0    0  0.45108270940E+01 -0.12941124131E+01 -0.11094362973E+02  0.12046044082E+02  0.51100000000E-03 0.  1.
         12    1    3    3    0    0 -0.25608449215E+01  0.14610408508E+01  0.42678927275E+00  0.29790461834E+01  0.00000000000E+00 0. -1.
</event>
<event>
 7    1  0.5411321E-010  0.4778727E+02  0.7816164E-02  0.1312668E+00
        -11   -1    0    0    0    0  0.00000000000E+00  0.00000000000E+00  0.45593999997E+02  0.45594000000E+02  0.51100000000E-03 0.  1.
         11   -1    0    0    0    0 -0.00000000000E+00 -0.00000000000E+00 -0.45593999997E+02  0.45594000000E+02  0.51100000000E-03 0. -1.
    9900012    2    1    2    0    0  0.27635563259E+02  0.68940830382E+01  0.32747073981E+02  0.47787267381E+02  0.19999983298E+02 0.  0.
         12    1    1    2    0    0 -0.27635563259E+02 -0.68940830382E+01 -0.32747073981E+02  0.43400732619E+02  0.00000000000E+00 0. -1.
         11    1    3    3    0    0  0.15732717354E+02 -0.25974399716E+01  0.22590532966E+02  0.27651352041E+02  0.51100000000E-03 0. -1.
        -11    1    3    3    0    0  0.58310394147E+01  0.85707246504E+01  0.31833698686E+01  0.10843993068E+02  0.51100000000E-03 0.  1.
        -12    1    3    3    0    0  0.60718064902E+01  0.92079835945E+00  0.69731711459E+01  0.92919222717E+01  0.00000000000E+00 0.  1.
</event>
<event>
 7    1  0.5411321E-010  0.4778727E+02  0.7816164E-02  0.1312668E+00
        -11   -1    0    0    0    0  0.00000000000E+00  0.00000000000E+00  0.45593999997E+02  0.45594000000E+02  0.51100000000E-03 0. -1.
         11   -1    0    0    0    0 -0.00000000000E+00 -0.00000000000E+00 -0.45593999997E+02  0.45594000000E+02  0.51100000000E-03 0.  1.
    9900012    2    1    2    0    0 -0.24311444799E+02 -0.32219745705E+02 -0.15951955403E+02  0.47787271404E+02  0.20000001639E+02 0.  0.
         12    1    1    2    0    0  0.24311444799E+02  0.32219745705E+02  0.15951955403E+02  0.43400728596E+02  0.00000000000E+00 0. -1.
         11    1    3    3    0    0 -0.65419017714E+01  0.53402194779E+00 -0.47386681086E+01  0.80954699636E+01  0.51100000000E-03 0. -1.
        -11    1    3    3    0    0 -0.13779870814E+02 -0.28682478439E+02 -0.11850791989E+02  0.33956010957E+02  0.51100000000E-03 0.  1.
         12    1    3    3    0    0 -0.39896722137E+01 -0.40712892137E+01  0.63750469523E+00  0.57357904835E+01  0.00000000000E+00 0. -1.
</event>
<event>
 7    1  0.5411321E-010  0.4778728E+02  0.7816164E-02  0.1312668E+00
        -11   -1    0    0    0    0  0.00000000000E+00  0.00000000000E+00  0.45593999997E+02  0.45594000000E+02  0.51100000000E-03 0. -1.
         11   -1    0    0    0    0 -0.00000000000E+00 -0.00000000000E+00 -0.45593999997E+02  0.45594000000E+02  0.51100000000E-03 0.  1.
    9900012    2    1    2    0    0 -0.32408256990E+02 -0.28795679583E+02  0.20338373686E+01  0.47787276754E+02  0.20000026034E+02 0.  0.
         12    1    1    2    0    0  0.32408256990E+02  0.28795679583E+02 -0.20338373686E+01  0.43400723246E+02  0.00000000000E+00 0. -1.
         11    1    3    3    0    0 -0.25206420888E+02 -0.14940695359E+02  0.39985026367E+01  0.29573232075E+02  0.51100000000E-03 0.  1.
        -11    1    3    3    0    0 -0.34938248142E+01 -0.12352653541E+02 -0.43522710680E+01  0.13554966804E+02  0.51100000000E-03 0. -1.
         12    1    3    3    0    0 -0.37080112882E+01 -0.15023306836E+01  0.23876058000E+01  0.46590778757E+01  0.00000000000E+00 0. -1.
</event>
<event>
 7    1  0.5411321E-010  0.4778727E+02  0.7816164E-02  0.1312668E+00
        -11   -1    0    0    0    0  0.00000000000E+00  0.00000000000E+00  0.45593999997E+02  0.45594000000E+02  0.51100000000E-03 0.  1.
         11   -1    0    0    0    0 -0.00000000000E+00 -0.00000000000E+00 -0.45593999997E+02  0.45594000000E+02  0.51100000000E-03 0. -1.
    9900012    2    1    2    0    0 -0.81933662699E+01 -0.13162507022E+02  0.40536904140E+02  0.47787269140E+02  0.19999991319E+02 0.  0.
         12    1    1    2    0    0  0.81933662699E+01  0.13162507022E+02 -0.40536904140E+02  0.43400730860E+02  0.00000000000E+00 0. -1.
         11    1    3    3    0    0  0.98180410608E+00 -0.37131172861E+01  0.21400301371E+01  0.43966929085E+01  0.51100000000E-03 0. -1.
        -11    1    3    3    0    0  0.10776379979E+01  0.35172600038E+01  0.68826119092E+01  0.78040225873E+01  0.51100000000E-03 0.  1.
        -12    1    3    3    0    0 -0.10252808374E+02 -0.12966649739E+02  0.31514262093E+02  0.35586553645E+02  0.00000000000E+00 0.  1.
</event>
<event>
 7    1  0.5411321E-010  0.4778727E+02  0.7816164E-02  0.1312668E+00
        -11   -1    0    0    0    0  0.00000000000E+00  0.00000000000E+00  0.45593999997E+02  0.45594000000E+02  0.51100000000E-03 0.  1.
         11   -1    0    0    0    0 -0.00000000000E+00 -0.00000000000E+00 -0.45593999997E+02  0.45594000000E+02  0.51100000000E-03 0. -1.
    9900012    2    1    2    0    0  0.22355278252E+02 -0.35869388849E+02  0.98616448159E+01  0.47787267742E+02  0.19999984941E+02 0.  0.
         12    1    1    2    0    0 -0.22355278252E+02  0.35869388849E+02 -0.98616448159E+01  0.43400732258E+02  0.00000000000E+00 0. -1.
         11    1    3    3    0    0  0.19801301006E+02 -0.15145508866E+02  0.52695411675E+01  0.25480306605E+02  0.51100000000E-03 0. -1.
        -11    1    3    3    0    0  0.36699417819E+01 -0.17631501479E+02  0.56141584003E+01  0.18864174827E+02  0.51100000000E-03 0.  1.
        -12    1    3    3    0    0 -0.11159645360E+01 -0.30923785035E+01 -0.10220547519E+01  0.34427863091E+01  0.00000000000E+00 0.  1.
</event>
<event>
 7    1  0.5411321E-010  0.4778727E+02  0.7816164E-02  0.1312668E+00
        -11   -1    0    0    0    0  0.00000000000E+00  0.00000000000E+00  0.45593999997E+02  0.45594000000E+02  0.51100000000E-03 0.  1.
         11   -1    0    0    0    0 -0.00000000000E+00 -0.00000000000E+00 -0.45593999997E+02  0.45594000000E+02  0.51100000000E-03 0. -1.
    9900012    2    1    2    0    0  0.34429042487E+00  0.10569607543E+02  0.42092619939E+02  0.47787265066E+02  0.19999972740E+02 0.  0.
         12    1    1    2    0    0 -0.34429042487E+00 -0.10569607543E+02 -0.42092619939E+02  0.43400734934E+02  0.00000000000E+00 0. -1.
         11    1    3    3    0    0 -0.58791266455E+00  0.61019047998E+01  0.12676038521E+02  0.14080512645E+02  0.51100000000E-03 0. -1.
        -11    1    3    3    0    0 -0.63843416608E+01 -0.14931151133E+01  0.83002491733E+01  0.10577492509E+02  0.51100000000E-03 0.  1.
        -12    1    3    3    0    0  0.73165447502E+01  0.59608178563E+01  0.21116332245E+02  0.23129259912E+02  0.00000000000E+00 0.  1.
</event>
<event>
 7    1  0.5411321E-010  0.4778728E+02  0.7816164E-02  0.1312668E+00
        -11   -1    0    0    0    0  0.00000000000E+00  0.00000000000E+00  0.45593999997E+02  0.45594000000E+02  0.51100000000E-03 0.  1.
         11   -1    0    0    0    0 -0.00000000000E+00 -0.00000000000E+00 -0.45593999997E+02  0.45594000000E+02  0.51100000000E-03 0. -1.
    9900012    2    1    2    0    0  0.88421760511E+01  0.41424490211E+02  0.94577941781E+01  0.47787281835E+02  0.20000049198E+02 0.  0.
         12    1    1    2    0    0 -0.88421760511E+01 -0.41424490211E+02 -0.94577941781E+01  0.43400718165E+02  0.00000000000E+00 0. -1.
         11    1    3    3    0    0  0.12264683231E+02  0.20998370152E+02  0.46123890282E+01  0.24751325956E+02  0.51100000000E-03 0. -1.
        -11    1    3    3    0    0 -0.55404455625E+01  0.10782504296E+02  0.20008958953E+00  0.12124313261E+02  0.51100000000E-03 0.  1.
        -12    1    3    3    0    0  0.21179383828E+01  0.96436157626E+01  0.46453155604E+01  0.10911642618E+02  0.00000000000E+00 0.  1.
</event>
<event>
 7    1  0.5411321E-010  0.4778727E+02  0.7816164E-02  0.1312668E+00
        -11   -1    0    0    0    0  0.00000000000E+00  0.00000000000E+00  0.45593999997E+02  0.45594000000E+02  0.51100000000E-03 0.  1.
         11   -1    0    0    0    0 -0.00000000000E+00 -0.00000000000E+00 -0.45593999997E+02  0.45594000000E+02  0.51100000000E-03 0. -1.
    9900012    2    1    2    0    0  0.43026183188E+02  0.46530889749E+01  0.32740658794E+01  0.47787272078E+02  0.20000004714E+02 0.  0.
         12    1    1    2    0    0 -0.43026183188E+02 -0.46530889749E+01 -0.32740658794E+01  0.43400727922E+02  0.00000000000E+00 0. -1.
         11    1    3    3    0    0 -0.11081460294E-01  0.76317880621E+00  0.21601281374E+00  0.79323797554E+00  0.51100000000E-03 0. -1.
        -11    1    3    3    0    0  0.32293863840E+00 -0.89256784665E+00  0.38906323261E+01  0.40047455453E+01  0.51100000000E-03 0.  1.
        -12    1    3    3    0    0  0.42714326010E+02  0.47824780153E+01 -0.83257926038E+00  0.42989288557E+02  0.00000000000E+00 0.  1.
</event>
<event>
 7    1  0.7184573E-010  0.4778727E+02  0.7816164E-02  0.1312668E+00
        -11   -1    0    0    0    0  0.00000000000E+00  0.00000000000E+00  0.45593999997E+02  0.45594000000E+02  0.51100000000E-03 0. -1.
         11   -1    0    0    0    0 -0.00000000000E+00 -0.00000000000E+00 -0.45593999997E+02  0.45594000000E+02  0.51100000000E-03 0.  1.
    9900012    2    1    2    0    0 -0.25877824003E+02 -0.17869809070E+02 -0.29910391235E+02  0.47787270108E+02  0.19999995731E+02 0.  0.
         12    1    1    2    0    0  0.25877824003E+02  0.17869809070E+02  0.29910391235E+02  0.43400729892E+02  0.00000000000E+00 0. -1.
         11    1    3    3    0    0  0.10678270947E+01 -0.10355231094E+01 -0.93977030337E+00  0.17594690388E+01  0.51100000000E-03 0. -1.
        -11    1    3    3    0    0  0.16919833741E+01 -0.14214120142E-02  0.34124474818E+00  0.17260527217E+01  0.51100000000E-03 0.  1.
        -12    1    3    3    0    0 -0.28637634471E+02 -0.16832864549E+02 -0.29311865680E+02  0.44301748348E+02  0.00000000000E+00 0.  1.
</event>
<event>
 7    1  0.5411321E-010  0.4778727E+02  0.7816164E-02  0.1312668E+00
        -11   -1    0    0    0    0  0.00000000000E+00  0.00000000000E+00  0.45593999997E+02  0.45594000000E+02  0.51100000000E-03 0.  1.
         11   -1    0    0    0    0 -0.00000000000E+00 -0.00000000000E+00 -0.45593999997E+02  0.45594000000E+02  0.51100000000E-03 0. -1.
    9900012    2    1    2    0    0  0.53643045122E+01  0.35950007946E+02  0.23715917316E+02  0.47787267652E+02  0.19999984531E+02 0.  0.
         12    1    1    2    0    0 -0.53643045122E+01 -0.35950007946E+02 -0.23715917316E+02  0.43400732348E+02  0.00000000000E+00 0. -1.
         11    1    3    3    0    0 -0.57688271735E+01  0.75093829196E+01  0.62317057699E+01  0.11335976176E+02  0.51100000000E-03 0. -1.
        -11    1    3    3    0    0  0.69769313094E+01  0.92379778214E+01  0.10411488013E+02  0.15569742696E+02  0.51100000000E-03 0.  1.
         12    1    3    3    0    0  0.41562003763E+01  0.19202647205E+02  0.70727235328E+01  0.20881548780E+02  0.00000000000E+00 0. -1.
</event>
<event>
 7    1  0.5411321E-010  0.4778727E+02  0.7816164E-02  0.1312668E+00
        -11   -1    0    0    0    0  0.00000000000E+00  0.00000000000E+00  0.45593999997E+02  0.45594000000E+02  0.51100000000E-03 0.  1.
         11   -1    0    0    0    0 -0.00000000000E+00 -0.00000000000E+00 -0.45593999997E+02  0.45594000000E+02  0.51100000000E-03 0. -1.
    9900012    2    1    2    0    0  0.36473214725E+01  0.32424324965E+02  0.28617885595E+02  0.47787272134E+02  0.20000004969E+02 0.  0.
         12    1    1    2    0    0 -0.36473214725E+01 -0.32424324965E+02 -0.28617885595E+02  0.43400727866E+02  0.00000000000E+00 0. -1.
         11    1    3    3    0    0  0.29562081591E+01  0.18465103448E+02  0.80325899825E+01  0.20352437548E+02  0.51100000000E-03 0. -1.
        -11    1    3    3    0    0  0.38417632217E+01  0.40925808891E+01  0.14195287713E+02  0.15264814329E+02  0.51100000000E-03 0.  1.
        -12    1    3    3    0    0 -0.31506499084E+01  0.98666406276E+01  0.63900078990E+01  0.12170020258E+02  0.00000000000E+00 0.  1.
</event>
<event>
 7    1  0.5411321E-010  0.4778727E+02  0.7816164E-02  0.1312668E+00
        -11   -1    0    0    0    0  0.00000000000E+00  0.00000000000E+00  0.45593999997E+02  0.45594000000E+02  0.51100000000E-03 0. -1.
         11   -1    0    0    0    0 -0.00000000000E+00 -0.00000000000E+00 -0.45593999997E+02  0.45594000000E+02  0.51100000000E-03 0.  1.
    9900012    2    1    2    0    0 -0.25035412739E+02 -0.31997997416E+01 -0.35307401741E+02  0.47787271583E+02  0.20000002455E+02 0.  0.
         12    1    1    2    0    0  0.25035412739E+02  0.31997997416E+01  0.35307401741E+02  0.43400728417E+02  0.00000000000E+00 0. -1.
         11    1    3    3    0    0 -0.43154804453E+01 -0.15166573727E+01  0.18371391774E+01  0.49293713269E+01  0.51100000000E-03 0. -1.
        -11    1    3    3    0    0 -0.12208327875E+02  0.11587343207E+01 -0.23854083687E+02  0.26821693524E+02  0.51100000000E-03 0.  1.
        -12    1    3    3    0    0 -0.85116044193E+01 -0.28418766897E+01 -0.13290457232E+02  0.16036206732E+02  0.00000000000E+00 0.  1.
</event>
<event>
 7    1  0.5411321E-010  0.4778727E+02  0.7816164E-02  0.1312668E+00
        -11   -1    0    0    0    0  0.00000000000E+00  0.00000000000E+00  0.45593999997E+02  0.45594000000E+02  0.51100000000E-03 0. -1.
         11   -1    0    0    0    0 -0.00000000000E+00 -0.00000000000E+00 -0.45593999997E+02  0.45594000000E+02  0.51100000000E-03 0.  1.
    9900012    2    1    2    0    0 -0.32068094728E+01  0.16670193149E+02 -0.39943011291E+02  0.47787272845E+02  0.20000008210E+02 0.  0.
         12    1    1    2    0    0  0.32068094728E+01 -0.16670193149E+02  0.39943011291E+02  0.43400727155E+02  0.00000000000E+00 0. -1.
         11    1    3    3    0    0  0.12832159028E+01  0.16024448765E+01  0.57704551853E+00  0.21324761258E+01  0.51100000000E-03 0. -1.
        -11    1    3    3    0    0 -0.19835230711E+01  0.12822889218E+02 -0.40237829583E+02  0.42278171454E+02  0.51100000000E-03 0.  1.
        -12    1    3    3    0    0 -0.25065023045E+01  0.22448590540E+01 -0.28222722601E+00  0.33766252653E+01  0.00000000000E+00 0.  1.
</event>
<event>
 7    1  0.5411321E-010  0.4778727E+02  0.7816164E-02  0.1312668E+00
        -11   -1    0    0    0    0  0.00000000000E+00  0.00000000000E+00  0.45593999997E+02  0.45594000000E+02  0.51100000000E-03 0.  1.
         11   -1    0    0    0    0 -0.00000000000E+00 -0.00000000000E+00 -0.45593999997E+02  0.45594000000E+02  0.51100000000E-03 0. -1.
    9900012    2    1    2    0    0 -0.38916046563E+02  0.18998435325E+02  0.28678082037E+01  0.47787267877E+02  0.19999985560E+02 0.  0.
         12    1    1    2    0    0  0.38916046563E+02 -0.18998435325E+02 -0.28678082037E+01  0.43400732123E+02  0.00000000000E+00 0. -1.
         11    1    3    3    0    0 -0.23488815943E+02  0.57187214262E+01  0.22908695668E+01  0.24283252105E+02  0.51100000000E-03 0. -1.
        -11    1    3    3    0    0 -0.10260717064E+01  0.62283477845E+01 -0.31308743100E+01  0.70460991674E+01  0.51100000000E-03 0.  1.
        -12    1    3    3    0    0 -0.14401158913E+02  0.70513661139E+01  0.37078129469E+01  0.16457916605E+02  0.00000000000E+00 0.  1.
</event>
<event>
 7    1  0.5411321E-010  0.4778727E+02  0.7816164E-02  0.1312668E+00
        -11   -1    0    0    0    0  0.00000000000E+00  0.00000000000E+00  0.45593999997E+02  0.45594000000E+02  0.51100000000E-03 0. -1.
         11   -1    0    0    0    0 -0.00000000000E+00 -0.00000000000E+00 -0.45593999997E+02  0.45594000000E+02  0.51100000000E-03 0.  1.
    9900012    2    1    2    0    0  0.89495220001E+01  0.40982229647E+02  0.11134895723E+02  0.47787274273E+02  0.20000014718E+02 0.  0.
         12    1    1    2    0    0 -0.89495220001E+01 -0.40982229647E+02 -0.11134895723E+02  0.43400725727E+02  0.00000000000E+00 0. -1.
         11    1    3    3    0    0  0.73217953639E+01  0.60298943361E+01  0.57949569381E+01  0.11115297532E+02  0.51100000000E-03 0. -1.
        -11    1    3    3    0    0 -0.68008380505E+00  0.12182198030E+02 -0.25473387181E+01  0.12464244767E+02  0.51100000000E-03 0.  1.
        -12    1    3    3    0    0  0.23078104412E+01  0.22770137281E+02  0.78872775033E+01  0.24207731973E+02  0.00000000000E+00 0.  1.
</event>
<event>
 7    1  0.5411321E-010  0.4778727E+02  0.7816164E-02  0.1312668E+00
        -11   -1    0    0    0    0  0.00000000000E+00  0.00000000000E+00  0.45593999997E+02  0.45594000000E+02  0.51100000000E-03 0.  1.
         11   -1    0    0    0    0 -0.00000000000E+00 -0.00000000000E+00 -0.45593999997E+02  0.45594000000E+02  0.51100000000E-03 0. -1.
    9900012    2    1    2    0    0  0.27065512213E+02  0.33896554152E+02 -0.14507515318E+01  0.47787274030E+02  0.20000013611E+02 0.  0.
         12    1    1    2    0    0 -0.27065512213E+02 -0.33896554152E+02  0.14507515318E+01  0.43400725970E+02  0.00000000000E+00 0. -1.
         11    1    3    3    0    0 -0.55316565966E+00  0.10835006107E+02  0.27690425075E+01  0.11196916819E+02  0.51100000000E-03 0. -1.
        -11    1    3    3    0    0  0.13836560752E+02  0.84907961883E+01 -0.28971924335E+01  0.16490535395E+02  0.51100000000E-03 0.  1.
         12    1    3    3    0    0  0.13782117120E+02  0.14570751857E+02 -0.13226016058E+01  0.20099821815E+02  0.00000000000E+00 0. -1.
</event>
<event>
 7    1  0.5411321E-010  0.4778728E+02  0.7816164E-02  0.1312668E+00
        -11   -1    0    0    0    0  0.00000000000E+00  0.00000000000E+00  0.45593999997E+02  0.45594000000E+02  0.51100000000E-03 0.  1.
         11   -1    0    0    0    0 -0.00000000000E+00 -0.00000000000E+00 -0.45593999997E+02  0.45594000000E+02  0.51100000000E-03 0. -1.
    9900012    2    1    2    0    0 -0.27995994051E+02  0.28650960546E+02  0.16702360686E+02  0.47787284849E+02  0.20000062942E+02 0.  0.
         12    1    1    2    0    0  0.27995994051E+02 -0.28650960546E+02 -0.16702360686E+02  0.43400715151E+02  0.00000000000E+00 0. -1.
         11    1    3    3    0    0 -0.23116093806E+02  0.18397002858E+02  0.61724640828E+01  0.30181166646E+02  0.51100000000E-03 0.  1.
        -11    1    3    3    0    0 -0.19068735220E+01  0.92338681947E+01  0.10933083381E+02  0.14437201977E+02  0.51100000000E-03 0. -1.
         12    1    3    3    0    0 -0.29730267228E+01  0.10200894941E+01 -0.40318677781E+00  0.31689162261E+01  0.00000000000E+00 0. -1.
</event>
<event>
 7    1  0.5411321E-010  0.4778727E+02  0.7816164E-02  0.1312668E+00
        -11   -1    0    0    0    0  0.00000000000E+00  0.00000000000E+00  0.45593999997E+02  0.45594000000E+02  0.51100000000E-03 0. -1.
         11   -1    0    0    0    0 -0.00000000000E+00 -0.00000000000E+00 -0.45593999997E+02  0.45594000000E+02  0.51100000000E-03 0.  1.
    9900012    2    1    2    0    0 -0.37765815716E+02 -0.16382138692E+02 -0.13747431874E+02  0.47787272034E+02  0.20000004514E+02 0.  0.
         12    1    1    2    0    0  0.37765815716E+02  0.16382138692E+02  0.13747431874E+02  0.43400727966E+02  0.00000000000E+00 0. -1.
         11    1    3    3    0    0 -0.13680244883E+02 -0.13696384259E+02 -0.81400166529E+01  0.20999997934E+02  0.51100000000E-03 0. -1.
        -11    1    3    3    0    0 -0.24327297084E+02 -0.86317344677E+00 -0.54242987790E+01  0.24939636511E+02  0.51100000000E-03 0.  1.
        -12    1    3    3    0    0  0.24172625101E+00 -0.18225809861E+01 -0.18311644174E+00  0.18476375897E+01  0.00000000000E+00 0.  1.
</event>
<event>
 7    1  0.5411321E-010  0.4778727E+02  0.7816164E-02  0.1312668E+00
        -11   -1    0    0    0    0  0.00000000000E+00  0.00000000000E+00  0.45593999997E+02  0.45594000000E+02  0.51100000000E-03 0.  1.
         11   -1    0    0    0    0 -0.00000000000E+00 -0.00000000000E+00 -0.45593999997E+02  0.45594000000E+02  0.51100000000E-03 0. -1.
    9900012    2    1    2    0    0 -0.16163332765E+02 -0.22999425349E+02  0.33066539598E+02  0.47787274967E+02  0.20000017883E+02 0.  0.
         12    1    1    2    0    0  0.16163332765E+02  0.22999425349E+02 -0.33066539598E+02  0.43400725033E+02  0.00000000000E+00 0. -1.
         11    1    3    3    0    0 -0.18954668307E+00 -0.75086406105E-01 -0.39122917253E+00  0.44116486714E+00  0.51100000000E-03 0. -1.
        -11    1    3    3    0    0  0.19680151773E+00 -0.72049379162E+01  0.25933342829E+00  0.72122891860E+01  0.51100000000E-03 0.  1.
        -12    1    3    3    0    0 -0.16170587599E+02 -0.15719401026E+02  0.33198435342E+02  0.40133820913E+02  0.00000000000E+00 0.  1.
</event>
<event>
 7    1  0.5411321E-010  0.4778727E+02  0.7816164E-02  0.1312668E+00
        -11   -1    0    0    0    0  0.00000000000E+00  0.00000000000E+00  0.45593999997E+02  0.45594000000E+02  0.51100000000E-03 0. -1.
         11   -1    0    0    0    0 -0.00000000000E+00 -0.00000000000E+00 -0.45593999997E+02  0.45594000000E+02  0.51100000000E-03 0.  1.
    9900012    2    1    2    0    0  0.23801418645E+02  0.34773878977E+02  0.10387154692E+02  0.47787272227E+02  0.20000005392E+02 0.  0.
         12    1    1    2    0    0 -0.23801418645E+02 -0.34773878977E+02 -0.10387154692E+02  0.43400727773E+02  0.00000000000E+00 0. -1.
         11    1    3    3    0    0  0.25893063991E+01  0.12870185801E+02  0.87318522291E+01  0.15766782608E+02  0.51100000000E-03 0. -1.
        -11    1    3    3    0    0  0.66540311695E+01  0.70590424006E+01  0.50768225572E+01  0.10948987988E+02  0.51100000000E-03 0.  1.
         12    1    3    3    0    0  0.14558081076E+02  0.14844650775E+02 -0.34215200940E+01  0.21071501632E+02  0.00000000000E+00 0. -1.
</event>
<event>
 7    1  0.5411321E-010  0.4778727E+02  0.7816164E-02  0.1312668E+00
        -11   -1    0    0    0    0  0.00000000000E+00  0.00000000000E+00  0.45593999997E+02  0.45594000000E+02  0.51100000000E-03 0. -1.
         11   -1    0    0    0    0 -0.00000000000E+00 -0.00000000000E+00 -0.45593999997E+02  0.45594000000E+02  0.51100000000E-03 0.  1.
    9900012    2    1    2    0    0  0.56877111177E+00  0.18213466707E+02 -0.39389964532E+02  0.47787272173E+02  0.20000005145E+02 0.  0.
         12    1    1    2    0    0 -0.56877111177E+00 -0.18213466707E+02  0.39389964532E+02  0.43400727827E+02  0.00000000000E+00 0. -1.
         11    1    3    3    0    0  0.36679134963E+01 -0.12289105707E+01 -0.43694245891E+01  0.58357246430E+01  0.51100000000E-03 0. -1.
        -11    1    3    3    0    0 -0.76188125310E+01  0.11880478348E+02 -0.24004219774E+02  0.27845908809E+02  0.51100000000E-03 0.  1.
        -12    1    3    3    0    0  0.45196701464E+01  0.75618989304E+01 -0.11016320169E+02  0.14105638721E+02  0.00000000000E+00 0.  1.
</event>
<event>
 7    1  0.5534158E-010  0.4778732E+02  0.7816164E-02  0.1312668E+00
        -11   -1    0    0    0    0  0.00000000000E+00  0.00000000000E+00  0.45593999997E+02  0.45594000000E+02  0.51100000000E-03 0. -1.
         11   -1    0    0    0    0 -0.00000000000E+00 -0.00000000000E+00 -0.45593999997E+02  0.45594000000E+02  0.51100000000E-03 0.  1.
    9900012    2    1    2    0    0  0.37446420309E+02  0.21700799817E+02 -0.32341849022E+01  0.47787319606E+02  0.20000221410E+02 0.  0.
         12    1    1    2    0    0 -0.37446420309E+02 -0.21700799817E+02  0.32341849022E+01  0.43400680394E+02  0.00000000000E+00 0. -1.
         11    1    3    3    0    0  0.72139035883E+01 -0.83473185305E+00  0.29756277993E+01  0.78480279886E+01  0.51100000000E-03 0. -1.
        -11    1    3    3    0    0  0.24249372427E+02  0.20381730462E+02 -0.95758848705E+00  0.31691702000E+02  0.51100000000E-03 0.  1.
         12    1    3    3    0    0  0.59831442944E+01  0.21538012082E+01 -0.52522242144E+01  0.82475896170E+01  0.00000000000E+00 0. -1.
</event>
<event>
 7    1  0.5411321E-010  0.4778727E+02  0.7816164E-02  0.1312668E+00
        -11   -1    0    0    0    0  0.00000000000E+00  0.00000000000E+00  0.45593999997E+02  0.45594000000E+02  0.51100000000E-03 0.  1.
         11   -1    0    0    0    0 -0.00000000000E+00 -0.00000000000E+00 -0.45593999997E+02  0.45594000000E+02  0.51100000000E-03 0. -1.
    9900012    2    1    2    0    0 -0.92323801787E+01  0.20955392577E+02  0.36868111738E+02  0.47787274373E+02  0.20000015177E+02 0.  0.
         12    1    1    2    0    0  0.92323801787E+01 -0.20955392577E+02 -0.36868111738E+02  0.43400725627E+02  0.00000000000E+00 0. -1.
         11    1    3    3    0    0  0.30873961718E+01 -0.49498085462E+00  0.11058463008E+02  0.11492024431E+02  0.51100000000E-03 0. -1.
        -11    1    3    3    0    0 -0.87157573190E+01  0.17461131292E+02  0.16550865626E+02  0.25588799989E+02  0.51100000000E-03 0.  1.
         12    1    3    3    0    0 -0.36040190315E+01  0.39892421396E+01  0.92587831039E+01  0.10706449953E+02  0.00000000000E+00 0. -1.
</event>
<event>
 7    1  0.5411321E-010  0.4778727E+02  0.7816164E-02  0.1312668E+00
        -11   -1    0    0    0    0  0.00000000000E+00  0.00000000000E+00  0.45593999997E+02  0.45594000000E+02  0.51100000000E-03 0. -1.
         11   -1    0    0    0    0 -0.00000000000E+00 -0.00000000000E+00 -0.45593999997E+02  0.45594000000E+02  0.51100000000E-03 0.  1.
    9900012    2    1    2    0    0 -0.38125751673E+02  0.10204899475E+02 -0.18052984961E+02  0.47787272126E+02  0.20000004933E+02 0.  0.
         12    1    1    2    0    0  0.38125751673E+02 -0.10204899475E+02  0.18052984961E+02  0.43400727874E+02  0.00000000000E+00 0. -1.
         11    1    3    3    0    0 -0.36484868358E+01  0.63502527311E+01 -0.77452016885E+00  0.73645806189E+01  0.51100000000E-03 0. -1.
        -11    1    3    3    0    0 -0.29602559548E+02  0.67152409527E+01 -0.11849166519E+02  0.32585406861E+02  0.51100000000E-03 0.  1.
         12    1    3    3    0    0 -0.48747052899E+01 -0.28605942089E+01 -0.54292982734E+01  0.78372846467E+01  0.00000000000E+00 0. -1.
</event>
<event>
 7    1  0.5411321E-010  0.4778729E+02  0.7816164E-02  0.1312668E+00
        -11   -1    0    0    0    0  0.00000000000E+00  0.00000000000E+00  0.45593999997E+02  0.45594000000E+02  0.51100000000E-03 0.  1.
         11   -1    0    0    0    0 -0.00000000000E+00 -0.00000000000E+00 -0.45593999997E+02  0.45594000000E+02  0.51100000000E-03 0. -1.
    9900012    2    1    2    0    0 -0.27723772853E+02  0.20389711215E+02  0.26443790554E+02  0.47787286141E+02  0.20000068829E+02 0.  0.
         12    1    1    2    0    0  0.27723772853E+02 -0.20389711215E+02 -0.26443790554E+02  0.43400713859E+02  0.00000000000E+00 0. -1.
         11    1    3    3    0    0 -0.21842720586E+01  0.34927886101E+01  0.94540049995E+00  0.42266297528E+01  0.51100000000E-03 0. -1.
        -11    1    3    3    0    0 -0.31693812666E+01  0.11476410296E+02  0.11864576583E+02  0.16808365436E+02  0.51100000000E-03 0.  1.
        -12    1    3    3    0    0 -0.22370119528E+02  0.54205123094E+01  0.13633813471E+02  0.26752290951E+02  0.00000000000E+00 0.  1.
</event>
<event>
 7    1  0.5411321E-010  0.4778727E+02  0.7816164E-02  0.1312668E+00
        -11   -1    0    0    0    0  0.00000000000E+00  0.00000000000E+00  0.45593999997E+02  0.45594000000E+02  0.51100000000E-03 0.  1.
         11   -1    0    0    0    0 -0.00000000000E+00 -0.00000000000E+00 -0.45593999997E+02  0.45594000000E+02  0.51100000000E-03 0. -1.
    9900012    2    1    2    0    0  0.83021890853E+01  0.23072700635E+01  0.42536728287E+02  0.47787273138E+02  0.20000009546E+02 0.  0.
         12    1    1    2    0    0 -0.83021890853E+01 -0.23072700635E+01 -0.42536728287E+02  0.43400726862E+02  0.00000000000E+00 0. -1.
         11    1    3    3    0    0 -0.92125828913E+00 -0.31323834099E+01  0.20954448341E+02  0.21207297051E+02  0.51100000000E-03 0. -1.
        -11    1    3    3    0    0  0.11375189296E+02  0.52603811528E+01  0.20799151612E+02  0.24283147436E+02  0.51100000000E-03 0.  1.
        -12    1    3    3    0    0 -0.21517419217E+01  0.17927232063E+00  0.78312833421E+00  0.22968286507E+01  0.00000000000E+00 0.  1.
</event>
<event>
 7    1  0.5411321E-010  0.4778727E+02  0.7816164E-02  0.1312668E+00
        -11   -1    0    0    0    0  0.00000000000E+00  0.00000000000E+00  0.45593999997E+02  0.45594000000E+02  0.51100000000E-03 0. -1.
         11   -1    0    0    0    0 -0.00000000000E+00 -0.00000000000E+00 -0.45593999997E+02  0.45594000000E+02  0.51100000000E-03 0.  1.
    9900012    2    1    2    0    0 -0.30012938853E+02 -0.23465003643E+02 -0.20790396034E+02  0.47787268880E+02  0.19999990131E+02 0.  0.
         12    1    1    2    0    0  0.30012938853E+02  0.23465003643E+02  0.20790396034E+02  0.43400731120E+02  0.00000000000E+00 0. -1.
         11    1    3    3    0    0 -0.16923088805E+02 -0.34806659167E+01 -0.40455363373E+01  0.17744642416E+02  0.51100000000E-03 0. -1.
        -11    1    3    3    0    0 -0.86375516277E+01 -0.13666343655E+02 -0.70332866534E+01  0.17630750649E+02  0.51100000000E-03 0.  1.
         12    1    3    3    0    0 -0.44522984197E+01 -0.63179940708E+01 -0.97115730428E+01  0.12411875816E+02  0.00000000000E+00 0. -1.
</event>
<event>
 7    1  0.5411321E-010  0.4778727E+02  0.7816164E-02  0.1312668E+00
        -11   -1    0    0    0    0  0.00000000000E+00  0.00000000000E+00  0.45593999997E+02  0.45594000000E+02  0.51100000000E-03 0. -1.
         11   -1    0    0    0    0 -0.00000000000E+00 -0.00000000000E+00 -0.45593999997E+02  0.45594000000E+02  0.51100000000E-03 0.  1.
    9900012    2    1    2    0    0 -0.16189800456E+02 -0.26354873098E+02 -0.30445599468E+02  0.47787268419E+02  0.19999988027E+02 0.  0.
         12    1    1    2    0    0  0.16189800456E+02  0.26354873098E+02  0.30445599468E+02  0.43400731581E+02  0.00000000000E+00 0. -1.
         11    1    3    3    0    0  0.10036555672E+01  0.64754795462E+00  0.68953972313E-01  0.11964103654E+01  0.51100000000E-03 0. -1.
        -11    1    3    3    0    0  0.24351513614E-01 -0.46313729211E+01 -0.11918041419E+02  0.12786317674E+02  0.51100000000E-03 0.  1.
         12    1    3    3    0    0 -0.17217807536E+02 -0.22371048132E+02 -0.18596512022E+02  0.33804540379E+02  0.00000000000E+00 0. -1.
</event>
<event>
 7    1  0.5411321E-010  0.4778727E+02  0.7816164E-02  0.1312668E+00
        -11   -1    0    0    0    0  0.00000000000E+00  0.00000000000E+00  0.45593999997E+02  0.45594000000E+02  0.51100000000E-03 0. -1.
         11   -1    0    0    0    0 -0.00000000000E+00 -0.00000000000E+00 -0.45593999997E+02  0.45594000000E+02  0.51100000000E-03 0.  1.
    9900012    2    1    2    0    0 -0.90171792666E+01 -0.42453315429E+02  0.17326998933E+00  0.47787268032E+02  0.19999986265E+02 0.  0.
         12    1    1    2    0    0  0.90171792666E+01  0.42453315429E+02 -0.17326998933E+00  0.43400731968E+02  0.00000000000E+00 0. -1.
         11    1    3    3    0    0 -0.10896302971E+02 -0.35831525823E+02 -0.30875383773E+01  0.37578724762E+02  0.51100000000E-03 0. -1.
        -11    1    3    3    0    0  0.39159842985E+01 -0.45880567129E+01  0.24115692049E+00  0.60368331390E+01  0.51100000000E-03 0.  1.
         12    1    3    3    0    0 -0.20368605941E+01 -0.20337328934E+01  0.30196514461E+01  0.41717101310E+01  0.00000000000E+00 0. -1.
</event>
<event>
 7    1  0.5411321E-010  0.4778727E+02  0.7816164E-02  0.1312668E+00
        -11   -1    0    0    0    0  0.00000000000E+00  0.00000000000E+00  0.45593999997E+02  0.45594000000E+02  0.51100000000E-03 0.  1.
         11   -1    0    0    0    0 -0.00000000000E+00 -0.00000000000E+00 -0.45593999997E+02  0.45594000000E+02  0.51100000000E-03 0. -1.
    9900012    2    1    2    0    0 -0.30664323609E+02 -0.92310621394E+01  0.29293516450E+02  0.47787270091E+02  0.19999995653E+02 0.  0.
         12    1    1    2    0    0  0.30664323609E+02  0.92310621394E+01 -0.29293516450E+02  0.43400729909E+02  0.00000000000E+00 0. -1.
         11    1    3    3    0    0 -0.16349905946E+02  0.62829433128E+00  0.60100096882E+01  0.17430846076E+02  0.51100000000E-03 0. -1.
        -11    1    3    3    0    0 -0.15015985026E+02 -0.10069967271E+02  0.19866990478E+02  0.26862266436E+02  0.51100000000E-03 0.  1.
         12    1    3    3    0    0  0.70156736264E+00  0.21061080073E+00  0.34165162838E+01  0.34941575797E+01  0.00000000000E+00 0. -1.
</event>
<event>
 7    1  0.5411321E-010  0.4778727E+02  0.7816164E-02  0.1312668E+00
        -11   -1    0    0    0    0  0.00000000000E+00  0.00000000000E+00  0.45593999997E+02  0.45594000000E+02  0.51100000000E-03 0.  1.
         11   -1    0    0    0    0 -0.00000000000E+00 -0.00000000000E+00 -0.45593999997E+02  0.45594000000E+02  0.51100000000E-03 0. -1.
    9900012    2    1    2    0    0 -0.27366472464E+02  0.16052070147E+02  0.29614696915E+02  0.47787273688E+02  0.20000012051E+02 0.  0.
         12    1    1    2    0    0  0.27366472464E+02 -0.16052070147E+02 -0.29614696915E+02  0.43400726312E+02  0.00000000000E+00 0. -1.
         11    1    3    3    0    0 -0.36255194309E+01  0.61081982528E+01  0.12094054002E+02  0.14025712799E+02  0.51100000000E-03 0. -1.
        -11    1    3    3    0    0 -0.24923112323E+02  0.82966315977E+01  0.14172078837E+02  0.29847000563E+02  0.51100000000E-03 0.  1.
        -12    1    3    3    0    0  0.11821592907E+01  0.16472402963E+01  0.33485640753E+01  0.39145603264E+01  0.00000000000E+00 0.  1.
</event>
<event>
 7    1  0.5411321E-010  0.4778728E+02  0.7816164E-02  0.1312668E+00
        -11   -1    0    0    0    0  0.00000000000E+00  0.00000000000E+00  0.45593999997E+02  0.45594000000E+02  0.51100000000E-03 0.  1.
         11   -1    0    0    0    0 -0.00000000000E+00 -0.00000000000E+00 -0.45593999997E+02  0.45594000000E+02  0.51100000000E-03 0. -1.
    9900012    2    1    2    0    0 -0.36858082220E+02  0.96541163496E+01  0.20782260045E+02  0.47787279730E+02  0.20000039601E+02 0.  0.
         12    1    1    2    0    0  0.36858082220E+02 -0.96541163496E+01 -0.20782260045E+02  0.43400720270E+02  0.00000000000E+00 0. -1.
         11    1    3    3    0    0 -0.92646728945E+01  0.88408114925E+01  0.11282557297E+02  0.17067226227E+02  0.51100000000E-03 0. -1.
        -11    1    3    3    0    0 -0.12986720339E+02  0.25160418659E+01  0.90121362970E+01  0.16006372879E+02  0.51100000000E-03 0.  1.
         12    1    3    3    0    0 -0.14606688986E+02 -0.17027370089E+01  0.48756645109E+00  0.14713680623E+02  0.00000000000E+00 0. -1.
</event>
<event>
 7    1  0.5411321E-010  0.4778727E+02  0.7816164E-02  0.1312668E+00
        -11   -1    0    0    0    0  0.00000000000E+00  0.00000000000E+00  0.45593999997E+02  0.45594000000E+02  0.51100000000E-03 0.  1.
         11   -1    0    0    0    0 -0.00000000000E+00 -0.00000000000E+00 -0.45593999997E+02  0.45594000000E+02  0.51100000000E-03 0. -1.
    9900012    2    1    2    0    0  0.36178317775E+02 -0.73315303212E+01  0.22825461232E+02  0.47787266200E+02  0.19999977914E+02 0.  0.
         12    1    1    2    0    0 -0.36178317775E+02  0.73315303212E+01 -0.22825461232E+02  0.43400733800E+02  0.00000000000E+00 0. -1.
         11    1    3    3    0    0  0.24249983549E+02 -0.11147616293E+02  0.20098431317E+02  0.33410746666E+02  0.51100000000E-03 0. -1.
        -11    1    3    3    0    0  0.65024371786E+01  0.59802627109E+00  0.43705109147E+01  0.78575244574E+01  0.51100000000E-03 0.  1.
         12    1    3    3    0    0  0.54258970477E+01  0.32180597010E+01 -0.16434809997E+01  0.65189950765E+01  0.00000000000E+00 0. -1.
</event>
<event>
 7    1  0.5411321E-010  0.4778727E+02  0.7816164E-02  0.1312668E+00
        -11   -1    0    0    0    0  0.00000000000E+00  0.00000000000E+00  0.45593999997E+02  0.45594000000E+02  0.51100000000E-03 0.  1.
         11   -1    0    0    0    0 -0.00000000000E+00 -0.00000000000E+00 -0.45593999997E+02  0.45594000000E+02  0.51100000000E-03 0. -1.
    9900012    2    1    2    0    0 -0.80199067433E+01 -0.19889622430E+02  0.37732043256E+02  0.47787273360E+02  0.20000010558E+02 0.  0.
         12    1    1    2    0    0  0.80199067433E+01  0.19889622430E+02 -0.37732043256E+02  0.43400726640E+02  0.00000000000E+00 0. -1.
         11    1    3    3    0    0  0.39542546604E+01 -0.84450520206E+01  0.60705408916E+01  0.11126836951E+02  0.51100000000E-03 0. -1.
        -11    1    3    3    0    0 -0.47363151535E+01 -0.35552628985E+01  0.19868759328E+02  0.20732587224E+02  0.51100000000E-03 0.  1.
         12    1    3    3    0    0 -0.72378462501E+01 -0.78893075112E+01  0.11792743036E+02  0.15927849185E+02  0.00000000000E+00 0. -1.
</event>
<event>
 7    1  0.5411321E-010  0.4778727E+02  0.7816164E-02  0.1312668E+00
        -11   -1    0    0    0    0  0.00000000000E+00  0.00000000000E+00  0.45593999997E+02  0.45594000000E+02  0.51100000000E-03 0.  1.
         11   -1    0    0    0    0 -0.00000000000E+00 -0.00000000000E+00 -0.45593999997E+02  0.45594000000E+02  0.51100000000E-03 0. -1.
    9900012    2    1    2    0    0  0.25054824142E+02  0.21034683494E+02  0.28520540511E+02  0.47787270127E+02  0.19999995817E+02 0.  0.
         12    1    1    2    0    0 -0.25054824142E+02 -0.21034683494E+02 -0.28520540511E+02  0.43400729873E+02  0.00000000000E+00 0. -1.
         11    1    3    3    0    0  0.11742455926E+02  0.17049252979E+02  0.15801792261E+02  0.26043404870E+02  0.51100000000E-03 0. -1.
        -11    1    3    3    0    0  0.90421605281E+01  0.68484648733E+01  0.12067512506E+02  0.16561612134E+02  0.51100000000E-03 0.  1.
         12    1    3    3    0    0  0.42702076878E+01 -0.28630343584E+01  0.65123574408E+00  0.51822531228E+01  0.00000000000E+00 0. -1.
</event>
<event>
 7    1  0.5411321E-010  0.4778727E+02  0.7816164E-02  0.1312668E+00
        -11   -1    0    0    0    0  0.00000000000E+00  0.00000000000E+00  0.45593999997E+02  0.45594000000E+02  0.51100000000E-03 0. -1.
         11   -1    0    0    0    0 -0.00000000000E+00 -0.00000000000E+00 -0.45593999997E+02  0.45594000000E+02  0.51100000000E-03 0.  1.
    9900012    2    1    2    0    0  0.39909070251E+02  0.14018211616E+01  0.16997767760E+02  0.47787273051E+02  0.20000009149E+02 0.  0.
         12    1    1    2    0    0 -0.39909070251E+02 -0.14018211616E+01 -0.16997767760E+02  0.43400726949E+02  0.00000000000E+00 0. -1.
         11    1    3    3    0    0  0.13795291726E+02  0.18398131362E+01  0.16556339363E+02  0.21628854791E+02  0.51100000000E-03 0.  1.
        -11    1    3    3    0    0  0.11151918268E+02 -0.87562594219E+00  0.23844910087E+00  0.11188782779E+02  0.51100000000E-03 0. -1.
        -12    1    3    3    0    0  0.14961860257E+02  0.43763396763E+00  0.20297929585E+00  0.14969635481E+02  0.00000000000E+00 0.  1.
</event>
<event>
 7    1  0.5411321E-010  0.4778727E+02  0.7816164E-02  0.1312668E+00
        -11   -1    0    0    0    0  0.00000000000E+00  0.00000000000E+00  0.45593999997E+02  0.45594000000E+02  0.51100000000E-03 0. -1.
         11   -1    0    0    0    0 -0.00000000000E+00 -0.00000000000E+00 -0.45593999997E+02  0.45594000000E+02  0.51100000000E-03 0.  1.
    9900012    2    1    2    0    0  0.29674767859E+02  0.26423606823E+02 -0.17459230103E+02  0.47787267738E+02  0.19999984927E+02 0.  0.
         12    1    1    2    0    0 -0.29674767859E+02 -0.26423606823E+02  0.17459230103E+02  0.43400732262E+02  0.00000000000E+00 0. -1.
         11    1    3    3    0    0  0.20853177711E+02  0.26369794731E+02 -0.13359567417E+02  0.36175946935E+02  0.51100000000E-03 0. -1.
        -11    1    3    3    0    0  0.22760774281E+01  0.24450154570E+01 -0.31260502344E+01  0.45750212429E+01  0.51100000000E-03 0.  1.
         12    1    3    3    0    0  0.65455127206E+01 -0.23912033647E+01 -0.97361245137E+00  0.70362995610E+01  0.00000000000E+00 0. -1.
</event>
<event>
 7    1  0.5411321E-010  0.4778728E+02  0.7816164E-02  0.1312668E+00
        -11   -1    0    0    0    0  0.00000000000E+00  0.00000000000E+00  0.45593999997E+02  0.45594000000E+02  0.51100000000E-03 0.  1.
         11   -1    0    0    0    0 -0.00000000000E+00 -0.00000000000E+00 -0.45593999997E+02  0.45594000000E+02  0.51100000000E-03 0. -1.
    9900012    2    1    2    0    0 -0.35838807894E+02 -0.21798260140E+02  0.11137261376E+02  0.47787275498E+02  0.20000020304E+02 0.  0.
         12    1    1    2    0    0  0.35838807894E+02  0.21798260140E+02 -0.11137261376E+02  0.43400724502E+02  0.00000000000E+00 0. -1.
         11    1    3    3    0    0 -0.57635106303E+01  0.82706734334E+00  0.44696593701E+01  0.73402963375E+01  0.51100000000E-03 0. -1.
        -11    1    3    3    0    0 -0.28351110283E+02 -0.18873001633E+02  0.95961138826E+01  0.35384474657E+02  0.51100000000E-03 0.  1.
        -12    1    3    3    0    0 -0.17241869808E+01 -0.37523258504E+01 -0.29285118761E+01  0.50625045028E+01  0.00000000000E+00 0.  1.
</event>
<event>
 7    1  0.5411321E-010  0.4778726E+02  0.7816164E-02  0.1312668E+00
        -11   -1    0    0    0    0  0.00000000000E+00  0.00000000000E+00  0.45593999997E+02  0.45594000000E+02  0.51100000000E-03 0. -1.
         11   -1    0    0    0    0 -0.00000000000E+00 -0.00000000000E+00 -0.45593999997E+02  0.45594000000E+02  0.51100000000E-03 0.  1.
    9900012    2    1    2    0    0 -0.35331560118E+02 -0.21534318417E+02 -0.13098777078E+02  0.47787263013E+02  0.19999963381E+02 0.  0.
         12    1    1    2    0    0  0.35331560118E+02  0.21534318417E+02  0.13098777078E+02  0.43400736987E+02  0.00000000000E+00 0. -1.
         11    1    3    3    0    0 -0.22546565732E+02 -0.16002016615E+02 -0.13737044253E+02  0.30872618080E+02  0.51100000000E-03 0. -1.
        -11    1    3    3    0    0 -0.11705678253E+02 -0.70817863244E+01 -0.18341635661E+01  0.13803577694E+02  0.51100000000E-03 0.  1.
         12    1    3    3    0    0 -0.10793161329E+01  0.15494845220E+01  0.24724307402E+01  0.31110672387E+01  0.00000000000E+00 0. -1.
</event>
<event>
 7    1  0.5411321E-010  0.4778727E+02  0.7816164E-02  0.1312668E+00
        -11   -1    0    0    0    0  0.00000000000E+00  0.00000000000E+00  0.45593999997E+02  0.45594000000E+02  0.51100000000E-03 0.  1.
         11   -1    0    0    0    0 -0.00000000000E+00 -0.00000000000E+00 -0.45593999997E+02  0.45594000000E+02  0.51100000000E-03 0. -1.
    9900012    2    1    2    0    0  0.25315014169E+02  0.34924107691E+02  0.48041557819E+01  0.47787272435E+02  0.20000006342E+02 0.  0.
         12    1    1    2    0    0 -0.25315014169E+02 -0.34924107691E+02 -0.48041557819E+01  0.43400727565E+02  0.00000000000E+00 0. -1.
         11    1    3    3    0    0  0.25411457921E+01  0.84672110874E+01 -0.64144353256E+01  0.10922273863E+02  0.51100000000E-03 0. -1.
        -11    1    3    3    0    0  0.13790572114E+02  0.14587691659E+02  0.47142801473E+01  0.20620501079E+02  0.51100000000E-03 0.  1.
        -12    1    3    3    0    0  0.89832962625E+01  0.11869204944E+02  0.65043109602E+01  0.16244497493E+02  0.00000000000E+00 0.  1.
</event>
<event>
 7    1  0.5411321E-010  0.4778726E+02  0.7816164E-02  0.1312668E+00
        -11   -1    0    0    0    0  0.00000000000E+00  0.00000000000E+00  0.45593999997E+02  0.45594000000E+02  0.51100000000E-03 0.  1.
         11   -1    0    0    0    0 -0.00000000000E+00 -0.00000000000E+00 -0.45593999997E+02  0.45594000000E+02  0.51100000000E-03 0. -1.
    9900012    2    1    2    0    0  0.30691348072E+01 -0.36444175421E+02  0.23367221031E+02  0.47787256581E+02  0.19999934057E+02 0.  0.
         12    1    1    2    0    0 -0.30691348072E+01  0.36444175421E+02 -0.23367221031E+02  0.43400743419E+02  0.00000000000E+00 0. -1.
         11    1    3    3    0    0  0.52403386987E+01 -0.25759834326E+01  0.81551625507E+01  0.10030130448E+02  0.51100000000E-03 0. -1.
        -11    1    3    3    0    0 -0.74583431697E+00 -0.30342117837E+02  0.15220486112E+02  0.33953844869E+02  0.51100000000E-03 0.  1.
         12    1    3    3    0    0 -0.14253695745E+01 -0.35260741519E+01 -0.84276318595E-02  0.38032812641E+01  0.00000000000E+00 0. -1.
</event>
<event>
 7    1  0.5411321E-010  0.4778727E+02  0.7816164E-02  0.1312668E+00
        -11   -1    0    0    0    0  0.00000000000E+00  0.00000000000E+00  0.45593999997E+02  0.45594000000E+02  0.51100000000E-03 0. -1.
         11   -1    0    0    0    0 -0.00000000000E+00 -0.00000000000E+00 -0.45593999997E+02  0.45594000000E+02  0.51100000000E-03 0.  1.
    9900012    2    1    2    0    0  0.22621691332E+02  0.34738662192E+02  0.12849419361E+02  0.47787272500E+02  0.20000006638E+02 0.  0.
         12    1    1    2    0    0 -0.22621691332E+02 -0.34738662192E+02 -0.12849419361E+02  0.43400727500E+02  0.00000000000E+00 0. -1.
         11    1    3    3    0    0  0.90222356238E+01  0.17047671655E+02  0.11427436072E+02  0.22418968307E+02  0.51100000000E-03 0.  1.
        -11    1    3    3    0    0  0.21271260686E+01 -0.15621816143E+01 -0.10076487143E+01  0.28249659999E+01  0.51100000000E-03 0. -1.
        -12    1    3    3    0    0  0.11472329640E+02  0.19253172151E+02  0.24296320036E+01  0.22543338194E+02  0.00000000000E+00 0.  1.
</event>
<event>
 7    1  0.5411321E-010  0.4778727E+02  0.7816164E-02  0.1312668E+00
        -11   -1    0    0    0    0  0.00000000000E+00  0.00000000000E+00  0.45593999997E+02  0.45594000000E+02  0.51100000000E-03 0.  1.
         11   -1    0    0    0    0 -0.00000000000E+00 -0.00000000000E+00 -0.45593999997E+02  0.45594000000E+02  0.51100000000E-03 0. -1.
    9900012    2    1    2    0    0  0.14350479139E+02 -0.12959139948E+02  0.38855473816E+02  0.47787269531E+02  0.19999993102E+02 0.  0.
         12    1    1    2    0    0 -0.14350479139E+02  0.12959139948E+02 -0.38855473816E+02  0.43400730469E+02  0.00000000000E+00 0. -1.
         11    1    3    3    0    0 -0.87186639111E+00 -0.21253009081E+01  0.25283913782E+01  0.34161115580E+01  0.51100000000E-03 0. -1.
        -11    1    3    3    0    0 -0.80652697415E+00 -0.93457091971E+01  0.13341810474E+02  0.16309404439E+02  0.51100000000E-03 0.  1.
         12    1    3    3    0    0  0.16028872505E+02 -0.14881298430E+01  0.22985271964E+02  0.28061753535E+02  0.00000000000E+00 0. -1.
</event>
<event>
 7    1  0.5411321E-010  0.4778728E+02  0.7816164E-02  0.1312668E+00
        -11   -1    0    0    0    0  0.00000000000E+00  0.00000000000E+00  0.45593999997E+02  0.45594000000E+02  0.51100000000E-03 0.  1.
         11   -1    0    0    0    0 -0.00000000000E+00 -0.00000000000E+00 -0.45593999997E+02  0.45594000000E+02  0.51100000000E-03 0. -1.
    9900012    2    1    2    0    0  0.22385632905E+02  0.26598660809E+02  0.25981100269E+02  0.47787275484E+02  0.20000020242E+02 0.  0.
         12    1    1    2    0    0 -0.22385632905E+02 -0.26598660809E+02 -0.25981100269E+02  0.43400724516E+02  0.00000000000E+00 0. -1.
         11    1    3    3    0    0  0.10781842974E+01  0.14079231958E+02  0.98963849631E+01  0.17243134561E+02  0.51100000000E-03 0. -1.
        -11    1    3    3    0    0  0.10826649933E+02  0.10848265818E+02  0.10175061956E+02  0.18396551473E+02  0.51100000000E-03 0.  1.
         12    1    3    3    0    0  0.10480798674E+02  0.16711630333E+01  0.59096533495E+01  0.12147589450E+02  0.00000000000E+00 0. -1.
</event>
<event>
 7    1  0.5411321E-010  0.4778727E+02  0.7816164E-02  0.1312668E+00
        -11   -1    0    0    0    0  0.00000000000E+00  0.00000000000E+00  0.45593999997E+02  0.45594000000E+02  0.51100000000E-03 0.  1.
         11   -1    0    0    0    0 -0.00000000000E+00 -0.00000000000E+00 -0.45593999997E+02  0.45594000000E+02  0.51100000000E-03 0. -1.
    9900012    2    1    2    0    0 -0.22445941811E+02  0.31400078197E+02  0.19845354123E+02  0.47787270803E+02  0.19999998900E+02 0.  0.
         12    1    1    2    0    0  0.22445941811E+02 -0.31400078197E+02 -0.19845354123E+02  0.43400729197E+02  0.00000000000E+00 0. -1.
         11    1    3    3    0    0 -0.12152806452E+01  0.93318212418E+01 -0.85186515919E+00  0.94490988589E+01  0.51100000000E-03 0. -1.
        -11    1    3    3    0    0 -0.18681981549E+02  0.21060112515E+02  0.14732932165E+02  0.31774267327E+02  0.51100000000E-03 0.  1.
         12    1    3    3    0    0 -0.25486796174E+01  0.10081444395E+01  0.59642871173E+01  0.65639046170E+01  0.00000000000E+00 0. -1.
</event>
<event>
 7    1  0.5411321E-010  0.4778727E+02  0.7816164E-02  0.1312668E+00
        -11   -1    0    0    0    0  0.00000000000E+00  0.00000000000E+00  0.45593999997E+02  0.45594000000E+02  0.51100000000E-03 0. -1.
         11   -1    0    0    0    0 -0.00000000000E+00 -0.00000000000E+00 -0.45593999997E+02  0.45594000000E+02  0.51100000000E-03 0.  1.
    9900012    2    1    2    0    0 -0.20450955056E+02  0.25274413427E+02 -0.28750402022E+02  0.47787272434E+02  0.20000006337E+02 0.  0.
         12    1    1    2    0    0  0.20450955056E+02 -0.25274413427E+02  0.28750402022E+02  0.43400727566E+02  0.00000000000E+00 0. -1.
         11    1    3    3    0    0 -0.68469155857E+01  0.44876036634E+01 -0.37535923540E+00  0.81951043005E+01  0.51100000000E-03 0. -1.
        -11    1    3    3    0    0 -0.34437293836E+01  0.10538921881E+02 -0.20105043640E+02  0.22959549789E+02  0.51100000000E-03 0.  1.
        -12    1    3    3    0    0 -0.10160310087E+02  0.10247887883E+02 -0.82699991462E+01  0.16632618345E+02  0.00000000000E+00 0.  1.
</event>
<event>
 7    1  0.5411321E-010  0.4778728E+02  0.7816164E-02  0.1312668E+00
        -11   -1    0    0    0    0  0.00000000000E+00  0.00000000000E+00  0.45593999997E+02  0.45594000000E+02  0.51100000000E-03 0. -1.
         11   -1    0    0    0    0 -0.00000000000E+00 -0.00000000000E+00 -0.45593999997E+02  0.45594000000E+02  0.51100000000E-03 0.  1.
    9900012    2    1    2    0    0 -0.37329737868E+01 -0.42985911093E+02 -0.46795778299E+01  0.47787284632E+02  0.20000061950E+02 0.  0.
         12    1    1    2    0    0  0.37329737868E+01  0.42985911093E+02  0.46795778299E+01  0.43400715368E+02  0.00000000000E+00 0. -1.
         11    1    3    3    0    0 -0.39898727870E+01 -0.67638953324E+01  0.19598659347E+01  0.80938519672E+01  0.51100000000E-03 0. -1.
        -11    1    3    3    0    0  0.29094773563E+01 -0.31324999330E+02 -0.10213206679E+02  0.33076127833E+02  0.51100000000E-03 0.  1.
        -12    1    3    3    0    0 -0.26525783561E+01 -0.48970164313E+01  0.35737629148E+01  0.66173048317E+01  0.00000000000E+00 0.  1.
</event>
<event>
 7    1  0.5411321E-010  0.4778726E+02  0.7816164E-02  0.1312668E+00
        -11   -1    0    0    0    0  0.00000000000E+00  0.00000000000E+00  0.45593999997E+02  0.45594000000E+02  0.51100000000E-03 0.  1.
         11   -1    0    0    0    0 -0.00000000000E+00 -0.00000000000E+00 -0.45593999997E+02  0.45594000000E+02  0.51100000000E-03 0. -1.
    9900012    2    1    2    0    0  0.17225676597E+02 -0.20842583808E+01  0.39781353882E+02  0.47787260561E+02  0.19999952201E+02 0.  0.
         12    1    1    2    0    0 -0.17225676597E+02  0.20842583808E+01 -0.39781353882E+02  0.43400739439E+02  0.00000000000E+00 0. -1.
         11    1    3    3    0    0  0.18483377560E+02 -0.60340538560E+01  0.34180460492E+02  0.39323643418E+02  0.51100000000E-03 0. -1.
        -11    1    3    3    0    0  0.13193734977E+01 -0.45085299202E-01  0.32051825282E+00  0.13584959780E+01  0.51100000000E-03 0.  1.
         12    1    3    3    0    0 -0.25770744610E+01  0.39948807744E+01  0.52803751363E+01  0.71051211643E+01  0.00000000000E+00 0. -1.
</event>
<event>
 7    1  0.5411321E-010  0.4778727E+02  0.7816164E-02  0.1312668E+00
        -11   -1    0    0    0    0  0.00000000000E+00  0.00000000000E+00  0.45593999997E+02  0.45594000000E+02  0.51100000000E-03 0. -1.
         11   -1    0    0    0    0 -0.00000000000E+00 -0.00000000000E+00 -0.45593999997E+02  0.45594000000E+02  0.51100000000E-03 0.  1.
    9900012    2    1    2    0    0 -0.85086035359E+01 -0.41639952461E+02  0.87943965867E+01  0.47787269748E+02  0.19999994088E+02 0.  0.
         12    1    1    2    0    0  0.85086035359E+01  0.41639952461E+02 -0.87943965867E+01  0.43400730252E+02  0.00000000000E+00 0. -1.
         11    1    3    3    0    0 -0.10307224627E+02 -0.24538823459E+02  0.17374482511E+01  0.26672297669E+02  0.51100000000E-03 0. -1.
        -11    1    3    3    0    0 -0.54505335259E+00 -0.17509766278E+02  0.63409687323E+01  0.18630536305E+02  0.51100000000E-03 0.  1.
         12    1    3    3    0    0  0.23436744437E+01  0.40863727616E+00  0.71597960321E+00  0.24844357737E+01  0.00000000000E+00 0. -1.
</event>
<event>
 7    1  0.5411321E-010  0.4778726E+02  0.7816164E-02  0.1312668E+00
        -11   -1    0    0    0    0  0.00000000000E+00  0.00000000000E+00  0.45593999997E+02  0.45594000000E+02  0.51100000000E-03 0.  1.
         11   -1    0    0    0    0 -0.00000000000E+00 -0.00000000000E+00 -0.45593999997E+02  0.45594000000E+02  0.51100000000E-03 0. -1.
    9900012    2    1    2    0    0  0.91738866229E+01 -0.42418018230E+02  0.41907572925E+00  0.47787261633E+02  0.19999957088E+02 0.  0.
         12    1    1    2    0    0 -0.91738866229E+01  0.42418018230E+02 -0.41907572925E+00  0.43400738367E+02  0.00000000000E+00 0. -1.
         11    1    3    3    0    0  0.75926503313E+01 -0.21975215218E+02  0.41103983311E+01  0.23610459497E+02  0.51100000000E-03 0.  1.
        -11    1    3    3    0    0 -0.61417943695E+00 -0.10865836905E+02 -0.79404452873E+01  0.13471982024E+02  0.51100000000E-03 0. -1.
         12    1    3    3    0    0  0.21954157286E+01 -0.95769661075E+01  0.42491226855E+01  0.10704820113E+02  0.00000000000E+00 0. -1.
</event>
<event>
 7    1  0.5411321E-010  0.4778727E+02  0.7816164E-02  0.1312668E+00
        -11   -1    0    0    0    0  0.00000000000E+00  0.00000000000E+00  0.45593999997E+02  0.45594000000E+02  0.51100000000E-03 0.  1.
         11   -1    0    0    0    0 -0.00000000000E+00 -0.00000000000E+00 -0.45593999997E+02  0.45594000000E+02  0.51100000000E-03 0. -1.
    9900012    2    1    2    0    0 -0.20307013523E+02 -0.13738616212E+02  0.35811997011E+02  0.47787268398E+02  0.19999987935E+02 0.  0.
         12    1    1    2    0    0  0.20307013523E+02  0.13738616212E+02 -0.35811997011E+02  0.43400731602E+02  0.00000000000E+00 0. -1.
         11    1    3    3    0    0 -0.27619990792E+01  0.12955786886E+01  0.15956445109E+02  0.16245470256E+02  0.51100000000E-03 0. -1.
        -11    1    3    3    0    0 -0.13480725488E+02 -0.13998891487E+02  0.19158751187E+02  0.27290230300E+02  0.51100000000E-03 0.  1.
         12    1    3    3    0    0 -0.40642889564E+01 -0.10353034136E+01  0.69680071502E+00  0.42515678421E+01  0.00000000000E+00 0. -1.
</event>
<event>
 7    1  0.5411321E-010  0.4778727E+02  0.7816164E-02  0.1312668E+00
        -11   -1    0    0    0    0  0.00000000000E+00  0.00000000000E+00  0.45593999997E+02  0.45594000000E+02  0.51100000000E-03 0. -1.
         11   -1    0    0    0    0 -0.00000000000E+00 -0.00000000000E+00 -0.45593999997E+02  0.45594000000E+02  0.51100000000E-03 0.  1.
    9900012    2    1    2    0    0  0.17322590757E+02 -0.39780241492E+02  0.10407871891E+01  0.47787274181E+02  0.20000014300E+02 0.  0.
         12    1    1    2    0    0 -0.17322590757E+02  0.39780241492E+02 -0.10407871891E+01  0.43400725819E+02  0.00000000000E+00 0. -1.
         11    1    3    3    0    0  0.36722031203E+01 -0.87396338291E+01  0.27025638475E+01  0.98574908996E+01  0.51100000000E-03 0. -1.
        -11    1    3    3    0    0  0.49671538189E-02 -0.49994600218E+01  0.57407283064E+01  0.76125282877E+01  0.51100000000E-03 0.  1.
        -12    1    3    3    0    0  0.13645420482E+02 -0.26041147641E+02 -0.74025049647E+01  0.30317254994E+02  0.00000000000E+00 0.  1.
</event>
<event>
 7    1  0.5411321E-010  0.4778727E+02  0.7816164E-02  0.1312668E+00
        -11   -1    0    0    0    0  0.00000000000E+00  0.00000000000E+00  0.45593999997E+02  0.45594000000E+02  0.51100000000E-03 0.  1.
         11   -1    0    0    0    0 -0.00000000000E+00 -0.00000000000E+00 -0.45593999997E+02  0.45594000000E+02  0.51100000000E-03 0. -1.
    9900012    2    1    2    0    0  0.22692580556E+02 -0.16893570480E+02  0.32913182052E+02  0.47787268570E+02  0.19999988719E+02 0.  0.
         12    1    1    2    0    0 -0.22692580556E+02  0.16893570480E+02 -0.32913182052E+02  0.43400731430E+02  0.00000000000E+00 0. -1.
         11    1    3    3    0    0  0.16668737930E+02 -0.38053492261E+01  0.21267145490E+02  0.27287707571E+02  0.51100000000E-03 0. -1.
        -11    1    3    3    0    0  0.72458987865E+01 -0.13630387878E+02  0.11263197956E+02  0.19108902412E+02  0.51100000000E-03 0.  1.
        -12    1    3    3    0    0 -0.12220561605E+01  0.54216662406E+00  0.38283860526E+00  0.13906585869E+01  0.00000000000E+00 0.  1.
</event>
<event>
 7    1  0.5411321E-010  0.4778727E+02  0.7816164E-02  0.1312668E+00
        -11   -1    0    0    0    0  0.00000000000E+00  0.00000000000E+00  0.45593999997E+02  0.45594000000E+02  0.51100000000E-03 0.  1.
         11   -1    0    0    0    0 -0.00000000000E+00 -0.00000000000E+00 -0.45593999997E+02  0.45594000000E+02  0.51100000000E-03 0. -1.
    9900012    2    1    2    0    0 -0.11246622134E+02  0.99506047492E+01  0.40720049930E+02  0.47787268317E+02  0.19999987564E+02 0.  0.
         12    1    1    2    0    0  0.11246622134E+02 -0.99506047492E+01 -0.40720049930E+02  0.43400731683E+02  0.00000000000E+00 0. -1.
         11    1    3    3    0    0 -0.12515864416E+02  0.20908112339E+01  0.15382525085E+02  0.19940923548E+02  0.51100000000E-03 0. -1.
        -11    1    3    3    0    0  0.48405270685E+01  0.40568503378E+01  0.13089033669E+02  0.14533118716E+02  0.51100000000E-03 0.  1.
        -12    1    3    3    0    0 -0.35712847869E+01  0.38029431775E+01  0.12248491176E+02  0.13313226053E+02  0.00000000000E+00 0.  1.
</event>
<event>
 7    1  0.5411321E-010  0.4778728E+02  0.7816164E-02  0.1312668E+00
        -11   -1    0    0    0    0  0.00000000000E+00  0.00000000000E+00  0.45593999997E+02  0.45594000000E+02  0.51100000000E-03 0. -1.
         11   -1    0    0    0    0 -0.00000000000E+00 -0.00000000000E+00 -0.45593999997E+02  0.45594000000E+02  0.51100000000E-03 0.  1.
    9900012    2    1    2    0    0  0.14727400375E+02  0.35359515150E+02 -0.20406634380E+02  0.47787281571E+02  0.20000047995E+02 0.  0.
         12    1    1    2    0    0 -0.14727400375E+02 -0.35359515150E+02  0.20406634380E+02  0.43400718429E+02  0.00000000000E+00 0. -1.
         11    1    3    3    0    0  0.15107037724E+02  0.18152559858E+02 -0.11628479696E+02  0.26324125027E+02  0.51100000000E-03 0.  1.
        -11    1    3    3    0    0 -0.19543485128E+01  0.16439574047E+02 -0.99873647487E+01  0.19334594070E+02  0.51100000000E-03 0. -1.
         12    1    3    3    0    0  0.15747111640E+01  0.76738124558E+00  0.12092100645E+01  0.21285624741E+01  0.00000000000E+00 0. -1.
</event>
<event>
 7    1  0.5411321E-010  0.4778727E+02  0.7816164E-02  0.1312668E+00
        -11   -1    0    0    0    0  0.00000000000E+00  0.00000000000E+00  0.45593999997E+02  0.45594000000E+02  0.51100000000E-03 0.  1.
         11   -1    0    0    0    0 -0.00000000000E+00 -0.00000000000E+00 -0.45593999997E+02  0.45594000000E+02  0.51100000000E-03 0. -1.
    9900012    2    1    2    0    0  0.14409148161E+02  0.40741059276E+02 -0.40206594566E+01  0.47787272309E+02  0.20000005767E+02 0.  0.
         12    1    1    2    0    0 -0.14409148161E+02 -0.40741059276E+02  0.40206594566E+01  0.43400727691E+02  0.00000000000E+00 0. -1.
         11    1    3    3    0    0  0.78677077423E+01  0.28855196049E+02 -0.48819610697E+01  0.30304400807E+02  0.51100000000E-03 0. -1.
        -11    1    3    3    0    0  0.89297502671E+01  0.76045506788E+01  0.30423847636E+01  0.12117167003E+02  0.51100000000E-03 0.  1.
         12    1    3    3    0    0 -0.23883098484E+01  0.42813125479E+01 -0.21810831505E+01  0.53657044993E+01  0.00000000000E+00 0. -1.
</event>
<event>
 7    1  0.5411321E-010  0.4778727E+02  0.7816164E-02  0.1312668E+00
        -11   -1    0    0    0    0  0.00000000000E+00  0.00000000000E+00  0.45593999997E+02  0.45594000000E+02  0.51100000000E-03 0.  1.
         11   -1    0    0    0    0 -0.00000000000E+00 -0.00000000000E+00 -0.45593999997E+02  0.45594000000E+02  0.51100000000E-03 0. -1.
    9900012    2    1    2    0    0  0.24636779243E+01 -0.42033324097E+02 -0.10523932259E+02  0.47787271967E+02  0.20000004208E+02 0.  0.
         12    1    1    2    0    0 -0.24636779243E+01  0.42033324097E+02  0.10523932259E+02  0.43400728033E+02  0.00000000000E+00 0. -1.
         11    1    3    3    0    0 -0.53075060620E+01 -0.45003247614E+01 -0.11918605750E+01  0.70599628503E+01  0.51100000000E-03 0. -1.
        -11    1    3    3    0    0  0.67496842848E+01 -0.25826003116E+02 -0.17681180590E+01  0.26751951642E+02  0.51100000000E-03 0.  1.
        -12    1    3    3    0    0  0.10214997015E+01 -0.11706996220E+02 -0.75639536247E+01  0.13975357475E+02  0.00000000000E+00 0.  1.
</event>
<event>
 7    1  0.5411321E-010  0.4778727E+02  0.7816164E-02  0.1312668E+00
        -11   -1    0    0    0    0  0.00000000000E+00  0.00000000000E+00  0.45593999997E+02  0.45594000000E+02  0.51100000000E-03 0.  1.
         11   -1    0    0    0    0 -0.00000000000E+00 -0.00000000000E+00 -0.45593999997E+02  0.45594000000E+02  0.51100000000E-03 0. -1.
    9900012    2    1    2    0    0 -0.16568615029E+02  0.11459790041E+02  0.38441869052E+02  0.47787273186E+02  0.20000009766E+02 0.  0.
         12    1    1    2    0    0  0.16568615029E+02 -0.11459790041E+02 -0.38441869052E+02  0.43400726814E+02  0.00000000000E+00 0. -1.
         11    1    3    3    0    0 -0.53062290374E+01  0.32409288984E+01  0.17094862708E+01  0.64484130057E+01  0.51100000000E-03 0. -1.
        -11    1    3    3    0    0 -0.12797898524E+02  0.50002782183E+01  0.34490535563E+02  0.37126621616E+02  0.51100000000E-03 0.  1.
        -12    1    3    3    0    0  0.15355125332E+01  0.32185829244E+01  0.22418472180E+01  0.42122385651E+01  0.00000000000E+00 0.  1.
</event>
<event>
 7    1  0.5411321E-010  0.4778727E+02  0.7816164E-02  0.1312668E+00
        -11   -1    0    0    0    0  0.00000000000E+00  0.00000000000E+00  0.45593999997E+02  0.45594000000E+02  0.51100000000E-03 0.  1.
         11   -1    0    0    0    0 -0.00000000000E+00 -0.00000000000E+00 -0.45593999997E+02  0.45594000000E+02  0.51100000000E-03 0. -1.
    9900012    2    1    2    0    0 -0.32386729472E+02  0.15424266166E+02  0.24429802708E+02  0.47787268520E+02  0.19999988490E+02 0.  0.
         12    1    1    2    0    0  0.32386729472E+02 -0.15424266166E+02 -0.24429802708E+02  0.43400731480E+02  0.00000000000E+00 0. -1.
         11    1    3    3    0    0 -0.15429856698E+02  0.98093542583E+01  0.18266662263E+02  0.25845209598E+02  0.51100000000E-03 0. -1.
        -11    1    3    3    0    0 -0.13229320942E+02  0.64613374613E+01  0.89335119545E+01  0.17221249969E+02  0.51100000000E-03 0.  1.
         12    1    3    3    0    0 -0.37275518318E+01 -0.84642555343E+00 -0.27703715092E+01  0.47208089535E+01  0.00000000000E+00 0. -1.
</event>
<event>
 7    1  0.5411321E-010  0.4778726E+02  0.7816164E-02  0.1312668E+00
        -11   -1    0    0    0    0  0.00000000000E+00  0.00000000000E+00  0.45593999997E+02  0.45594000000E+02  0.51100000000E-03 0. -1.
         11   -1    0    0    0    0 -0.00000000000E+00 -0.00000000000E+00 -0.45593999997E+02  0.45594000000E+02  0.51100000000E-03 0.  1.
    9900012    2    1    2    0    0  0.31911163832E+02  0.13200896998E+02 -0.26287603062E+02  0.47787261142E+02  0.19999954853E+02 0.  0.
         12    1    1    2    0    0 -0.31911163832E+02 -0.13200896998E+02  0.26287603062E+02  0.43400738858E+02  0.00000000000E+00 0. -1.
         11    1    3    3    0    0  0.49055881406E+01  0.10487212595E+02 -0.10856188271E+02  0.15871460143E+02  0.51100000000E-03 0. -1.
        -11    1    3    3    0    0  0.12122939855E+02 -0.13876206257E+01 -0.45237450679E+01  0.13013663259E+02  0.51100000000E-03 0.  1.
         12    1    3    3    0    0  0.14882635836E+02  0.41013050283E+01 -0.10907669723E+02  0.18902137740E+02  0.00000000000E+00 0. -1.
</event>
<event>
 7    1  0.5411321E-010  0.4778727E+02  0.7816164E-02  0.1312668E+00
        -11   -1    0    0    0    0  0.00000000000E+00  0.00000000000E+00  0.45593999997E+02  0.45594000000E+02  0.51100000000E-03 0.  1.
         11   -1    0    0    0    0 -0.00000000000E+00 -0.00000000000E+00 -0.45593999997E+02  0.45594000000E+02  0.51100000000E-03 0. -1.
    9900012    2    1    2    0    0 -0.34105811412E+02 -0.18005006686E+02  0.19905706081E+02  0.47787265301E+02  0.19999973814E+02 0.  0.
         12    1    1    2    0    0  0.34105811412E+02  0.18005006686E+02 -0.19905706081E+02  0.43400734699E+02  0.00000000000E+00 0. -1.
         11    1    3    3    0    0 -0.16199017458E+01  0.20807486678E+01  0.25912383105E+01  0.36970411044E+01  0.51100000000E-03 0. -1.
        -11    1    3    3    0    0 -0.26310117983E+02 -0.15903562670E+02  0.72905974697E+01  0.31595860893E+02  0.51100000000E-03 0.  1.
        -12    1    3    3    0    0 -0.61757916835E+01 -0.41821926836E+01  0.10023870300E+02  0.12494363303E+02  0.00000000000E+00 0.  1.
</event>
<event>
 7    1  0.5411321E-010  0.4778723E+02  0.7816164E-02  0.1312668E+00
        -11   -1    0    0    0    0  0.00000000000E+00  0.00000000000E+00  0.45593999997E+02  0.45594000000E+02  0.51100000000E-03 0.  1.
         11   -1    0    0    0    0 -0.00000000000E+00 -0.00000000000E+00 -0.45593999997E+02  0.45594000000E+02  0.51100000000E-03 0. -1.
    9900012    2    1    2    0    0 -0.21581975354E+02  0.20997947649E+02  0.31255907675E+02  0.47787225465E+02  0.19999792185E+02 0.  0.
         12    1    1    2    0    0  0.21581975354E+02 -0.20997947649E+02 -0.31255907675E+02  0.43400774535E+02  0.00000000000E+00 0. -1.
         11    1    3    3    0    0 -0.10773363622E+02  0.13335398081E+02  0.58637216795E+01  0.18118538514E+02  0.51100000000E-03 0. -1.
        -11    1    3    3    0    0 -0.52653896735E+01  0.27094879961E+01  0.43376092697E+01  0.73403343284E+01  0.51100000000E-03 0.  1.
         12    1    3    3    0    0 -0.55432220585E+01  0.49530615719E+01  0.21054576726E+02  0.22328352622E+02  0.00000000000E+00 0. -1.
</event>
<event>
 7    1  0.5411321E-010  0.4778727E+02  0.7816164E-02  0.1312668E+00
        -11   -1    0    0    0    0  0.00000000000E+00  0.00000000000E+00  0.45593999997E+02  0.45594000000E+02  0.51100000000E-03 0.  1.
         11   -1    0    0    0    0 -0.00000000000E+00 -0.00000000000E+00 -0.45593999997E+02  0.45594000000E+02  0.51100000000E-03 0. -1.
    9900012    2    1    2    0    0  0.31427154245E+02  0.26622587327E+02  0.13681931444E+02  0.47787269270E+02  0.19999991907E+02 0.  0.
         12    1    1    2    0    0 -0.31427154245E+02 -0.26622587327E+02 -0.13681931444E+02  0.43400730730E+02  0.00000000000E+00 0. -1.
         11    1    3    3    0    0  0.21445741115E+02  0.17648151680E+02  0.46711069155E+00  0.27777603611E+02  0.51100000000E-03 0. -1.
        -11    1    3    3    0    0  0.75534984665E+01  0.95598202021E+01  0.12396420847E+02  0.17381506018E+02  0.51100000000E-03 0.  1.
        -12    1    3    3    0    0  0.24279146631E+01 -0.58538455561E+00  0.81839990508E+00  0.26281596401E+01  0.00000000000E+00 0.  1.
</event>
<event>
 7    1  0.5411321E-010  0.4778727E+02  0.7816164E-02  0.1312668E+00
        -11   -1    0    0    0    0  0.00000000000E+00  0.00000000000E+00  0.45593999997E+02  0.45594000000E+02  0.51100000000E-03 0.  1.
         11   -1    0    0    0    0 -0.00000000000E+00 -0.00000000000E+00 -0.45593999997E+02  0.45594000000E+02  0.51100000000E-03 0. -1.
    9900012    2    1    2    0    0 -0.16246554376E+02 -0.32302062406E+02  0.24005194260E+02  0.47787272860E+02  0.20000008279E+02 0.  0.
         12    1    1    2    0    0  0.16246554376E+02  0.32302062406E+02 -0.24005194260E+02  0.43400727140E+02  0.00000000000E+00 0. -1.
         11    1    3    3    0    0 -0.10565681702E+02 -0.55239799923E+01  0.68128515343E+01  0.13731821841E+02  0.51100000000E-03 0. -1.
        -11    1    3    3    0    0 -0.41245144741E+01 -0.26014769083E+02  0.18231986903E+02  0.32034125192E+02  0.51100000000E-03 0.  1.
        -12    1    3    3    0    0 -0.15563582008E+01 -0.76331333030E+00 -0.10396441767E+01  0.20213258282E+01  0.00000000000E+00 0.  1.
</event>
<event>
 7    1  0.5411321E-010  0.4778726E+02  0.7816164E-02  0.1312668E+00
        -11   -1    0    0    0    0  0.00000000000E+00  0.00000000000E+00  0.45593999997E+02  0.45594000000E+02  0.51100000000E-03 0. -1.
         11   -1    0    0    0    0 -0.00000000000E+00 -0.00000000000E+00 -0.45593999997E+02  0.45594000000E+02  0.51100000000E-03 0.  1.
    9900012    2    1    2    0    0  0.23765040514E+02 -0.35663056003E+02 -0.68551507336E+01  0.47787264917E+02  0.19999972065E+02 0.  0.
         12    1    1    2    0    0 -0.23765040514E+02  0.35663056003E+02  0.68551507336E+01  0.43400735083E+02  0.00000000000E+00 0. -1.
         11    1    3    3    0    0  0.75808475882E+01 -0.24177363413E+02  0.48706348054E+00  0.25342679078E+02  0.51100000000E-03 0. -1.
        -11    1    3    3    0    0  0.15077148263E+02 -0.12287780794E+02 -0.56202098493E+01  0.20245906144E+02  0.51100000000E-03 0.  1.
         12    1    3    3    0    0  0.11070446624E+01  0.80208820333E+00 -0.17220043648E+01  0.21986796954E+01  0.00000000000E+00 0. -1.
</event>
<event>
 7    1  0.5411321E-010  0.4778726E+02  0.7816164E-02  0.1312668E+00
        -11   -1    0    0    0    0  0.00000000000E+00  0.00000000000E+00  0.45593999997E+02  0.45594000000E+02  0.51100000000E-03 0.  1.
         11   -1    0    0    0    0 -0.00000000000E+00 -0.00000000000E+00 -0.45593999997E+02  0.45594000000E+02  0.51100000000E-03 0. -1.
    9900012    2    1    2    0    0 -0.41982766523E+02 -0.17787788236E+01  0.10858505501E+02  0.47787264052E+02  0.19999968121E+02 0.  0.
         12    1    1    2    0    0  0.41982766523E+02  0.17787788236E+01 -0.10858505501E+02  0.43400735948E+02  0.00000000000E+00 0. -1.
         11    1    3    3    0    0 -0.18901013577E+02 -0.26095755910E+01 -0.54257636676E+00  0.19088022118E+02  0.51100000000E-03 0.  1.
        -11    1    3    3    0    0 -0.91793284139E+01 -0.17865265619E+01 -0.15980585632E+01  0.94871248922E+01  0.51100000000E-03 0. -1.
        -12    1    3    3    0    0 -0.13902424532E+02  0.26173233293E+01  0.12999140431E+02  0.19212117042E+02  0.00000000000E+00 0.  1.
</event>
<event>
 7    1  0.5411321E-010  0.4778726E+02  0.7816164E-02  0.1312668E+00
        -11   -1    0    0    0    0  0.00000000000E+00  0.00000000000E+00  0.45593999997E+02  0.45594000000E+02  0.51100000000E-03 0.  1.
         11   -1    0    0    0    0 -0.00000000000E+00 -0.00000000000E+00 -0.45593999997E+02  0.45594000000E+02  0.51100000000E-03 0. -1.
    9900012    2    1    2    0    0 -0.18465588265E+02  0.13630269004E+02  0.36835603425E+02  0.47787264261E+02  0.19999969069E+02 0.  0.
         12    1    1    2    0    0  0.18465588265E+02 -0.13630269004E+02 -0.36835603425E+02  0.43400735739E+02  0.00000000000E+00 0. -1.
         11    1    3    3    0    0 -0.14026775266E+02 -0.10435189273E+01  0.15706810769E+02  0.21084194576E+02  0.51100000000E-03 0. -1.
        -11    1    3    3    0    0 -0.16129460250E+00  0.58942566741E+01  0.11830097372E+02  0.13218149711E+02  0.51100000000E-03 0.  1.
         12    1    3    3    0    0 -0.42775183959E+01  0.87795312569E+01  0.92986952836E+01  0.13484919974E+02  0.00000000000E+00 0. -1.
</event>
<event>
 7    1  0.5411321E-010  0.4778727E+02  0.7816164E-02  0.1312668E+00
        -11   -1    0    0    0    0  0.00000000000E+00  0.00000000000E+00  0.45593999997E+02  0.45594000000E+02  0.51100000000E-03 0. -1.
         11   -1    0    0    0    0 -0.00000000000E+00 -0.00000000000E+00 -0.45593999997E+02  0.45594000000E+02  0.51100000000E-03 0.  1.
    9900012    2    1    2    0    0  0.41822098956E+02  0.11116823725E+02 -0.33093343125E+01  0.47787269311E+02  0.19999992095E+02 0.  0.
         12    1    1    2    0    0 -0.41822098956E+02 -0.11116823725E+02  0.33093343125E+01  0.43400730689E+02  0.00000000000E+00 0. -1.
         11    1    3    3    0    0  0.72426660823E+01  0.10022669931E+02 -0.40359380838E+00  0.12372267890E+02  0.51100000000E-03 0. -1.
        -11    1    3    3    0    0  0.28245779023E+02  0.44057851011E+00  0.37607254335E+00  0.28251718052E+02  0.51100000000E-03 0.  1.
         12    1    3    3    0    0  0.63336538499E+01  0.65357528396E+00 -0.32818130474E+01  0.71632833687E+01  0.00000000000E+00 0. -1.
</event>
<event>
 7    1  0.5411321E-010  0.4778727E+02  0.7816164E-02  0.1312668E+00
        -11   -1    0    0    0    0  0.00000000000E+00  0.00000000000E+00  0.45593999997E+02  0.45594000000E+02  0.51100000000E-03 0.  1.
         11   -1    0    0    0    0 -0.00000000000E+00 -0.00000000000E+00 -0.45593999997E+02  0.45594000000E+02  0.51100000000E-03 0. -1.
    9900012    2    1    2    0    0  0.21424602335E+02 -0.30734921547E+02  0.21908307639E+02  0.47787274991E+02  0.20000017994E+02 0.  0.
         12    1    1    2    0    0 -0.21424602335E+02  0.30734921547E+02 -0.21908307639E+02  0.43400725009E+02  0.00000000000E+00 0. -1.
         11    1    3    3    0    0  0.69670447050E+01 -0.59318576627E+01  0.12252807747E+02  0.15292414630E+02  0.51100000000E-03 0.  1.
        -11    1    3    3    0    0  0.21278444771E+01 -0.11900976125E+02 -0.23351759510E+00  0.12091959542E+02  0.51100000000E-03 0. -1.
        -12    1    3    3    0    0  0.12329713152E+02 -0.12902087760E+02  0.98890174864E+01  0.20402900819E+02  0.00000000000E+00 0.  1.
</event>
<event>
 7    1  0.5411321E-010  0.4778727E+02  0.7816164E-02  0.1312668E+00
        -11   -1    0    0    0    0  0.00000000000E+00  0.00000000000E+00  0.45593999997E+02  0.45594000000E+02  0.51100000000E-03 0.  1.
         11   -1    0    0    0    0 -0.00000000000E+00 -0.00000000000E+00 -0.45593999997E+02  0.45594000000E+02  0.51100000000E-03 0. -1.
    9900012    2    1    2    0    0  0.21037860524E+02  0.15919282780E+02  0.34461691530E+02  0.47787270481E+02  0.19999997430E+02 0.  0.
         12    1    1    2    0    0 -0.21037860524E+02 -0.15919282780E+02 -0.34461691530E+02  0.43400729519E+02  0.00000000000E+00 0. -1.
         11    1    3    3    0    0 -0.26076214942E+01  0.29008180557E+01  0.91878266408E+01  0.99815126054E+01  0.51100000000E-03 0. -1.
        -11    1    3    3    0    0  0.18758780634E+01  0.38235348180E+01  0.22688213568E+01  0.48255453187E+01  0.51100000000E-03 0.  1.
         12    1    3    3    0    0  0.21769603955E+02  0.91949299063E+01  0.23005043533E+02  0.32980212557E+02  0.00000000000E+00 0. -1.
</event>
<event>
 7    1  0.5411321E-010  0.4778726E+02  0.7816164E-02  0.1312668E+00
        -11   -1    0    0    0    0  0.00000000000E+00  0.00000000000E+00  0.45593999997E+02  0.45594000000E+02  0.51100000000E-03 0.  1.
         11   -1    0    0    0    0 -0.00000000000E+00 -0.00000000000E+00 -0.45593999997E+02  0.45594000000E+02  0.51100000000E-03 0. -1.
    9900012    2    1    2    0    0 -0.32629637717E+02 -0.17407104537E+02  0.22713948667E+02  0.47787262564E+02  0.19999961335E+02 0.  0.
         12    1    1    2    0    0  0.32629637717E+02  0.17407104537E+02 -0.22713948667E+02  0.43400737436E+02  0.00000000000E+00 0. -1.
         11    1    3    3    0    0 -0.75404043942E+01 -0.85177799176E+01  0.13234010369E+02  0.17451341033E+02  0.51100000000E-03 0. -1.
        -11    1    3    3    0    0 -0.13477591604E+02 -0.10207403558E+02  0.74472058078E+01  0.18474237128E+02  0.51100000000E-03 0.  1.
         12    1    3    3    0    0 -0.11611641719E+02  0.13180789392E+01  0.20327324904E+01  0.11861684403E+02  0.00000000000E+00 0. -1.
</event>
<event>
 7    1  0.5411321E-010  0.4778727E+02  0.7816164E-02  0.1312668E+00
        -11   -1    0    0    0    0  0.00000000000E+00  0.00000000000E+00  0.45593999997E+02  0.45594000000E+02  0.51100000000E-03 0.  1.
         11   -1    0    0    0    0 -0.00000000000E+00 -0.00000000000E+00 -0.45593999997E+02  0.45594000000E+02  0.51100000000E-03 0. -1.
    9900012    2    1    2    0    0  0.18382642492E+01  0.15678986795E+02  0.40427881272E+02  0.47787269286E+02  0.19999991985E+02 0.  0.
         12    1    1    2    0    0 -0.18382642492E+01 -0.15678986795E+02 -0.40427881272E+02  0.43400730714E+02  0.00000000000E+00 0. -1.
         11    1    3    3    0    0 -0.71134013420E+01  0.13146097928E+02  0.27834295828E+02  0.31593803093E+02  0.51100000000E-03 0. -1.
        -11    1    3    3    0    0  0.70665918634E+01  0.25562293612E+01  0.69225009664E+01  0.10217242730E+02  0.51100000000E-03 0.  1.
         12    1    3    3    0    0  0.18850737278E+01 -0.23340494478E-01  0.56710844773E+01  0.59762234635E+01  0.00000000000E+00 0. -1.
</event>
<event>
 7    1  0.5411321E-010  0.4778727E+02  0.7816164E-02  0.1312668E+00
        -11   -1    0    0    0    0  0.00000000000E+00  0.00000000000E+00  0.45593999997E+02  0.45594000000E+02  0.51100000000E-03 0.  1.
         11   -1    0    0    0    0 -0.00000000000E+00 -0.00000000000E+00 -0.45593999997E+02  0.45594000000E+02  0.51100000000E-03 0. -1.
    9900012    2    1    2    0    0 -0.30803743390E+02  0.27535779163E+02  0.13286595800E+02  0.47787269950E+02  0.19999995010E+02 0.  0.
         12    1    1    2    0    0  0.30803743390E+02 -0.27535779163E+02 -0.13286595800E+02  0.43400730050E+02  0.00000000000E+00 0. -1.
         11    1    3    3    0    0 -0.11845903031E+02  0.20502961991E+02  0.41913479468E+01  0.24047125959E+02  0.51100000000E-03 0. -1.
        -11    1    3    3    0    0 -0.99472429331E+01  0.75168727275E+01  0.29185757310E+01  0.12805042059E+02  0.51100000000E-03 0.  1.
         12    1    3    3    0    0 -0.90105974258E+01 -0.48405555624E+00  0.61766721224E+01  0.10935101932E+02  0.00000000000E+00 0. -1.
</event>
<event>
 7    1  0.5411321E-010  0.4778727E+02  0.7816164E-02  0.1312668E+00
        -11   -1    0    0    0    0  0.00000000000E+00  0.00000000000E+00  0.45593999997E+02  0.45594000000E+02  0.51100000000E-03 0. -1.
         11   -1    0    0    0    0 -0.00000000000E+00 -0.00000000000E+00 -0.45593999997E+02  0.45594000000E+02  0.51100000000E-03 0.  1.
    9900012    2    1    2    0    0  0.27847386972E+02 -0.25788691751E+02 -0.21049693370E+02  0.47787272191E+02  0.20000005226E+02 0.  0.
         12    1    1    2    0    0 -0.27847386972E+02  0.25788691751E+02  0.21049693370E+02  0.43400727809E+02  0.00000000000E+00 0. -1.
         11    1    3    3    0    0  0.79044133266E+01 -0.12311675361E+01 -0.90644589662E+01  0.12089662533E+02  0.51100000000E-03 0. -1.
        -11    1    3    3    0    0  0.23164430425E+01 -0.42442922864E+01 -0.67419653026E+01  0.82966271330E+01  0.51100000000E-03 0.  1.
         12    1    3    3    0    0  0.17626530603E+02 -0.20313231928E+02 -0.52432691017E+01  0.27400982525E+02  0.00000000000E+00 0. -1.
</event>
<event>
 7    1  0.5411321E-010  0.4778727E+02  0.7816164E-02  0.1312668E+00
        -11   -1    0    0    0    0  0.00000000000E+00  0.00000000000E+00  0.45593999997E+02  0.45594000000E+02  0.51100000000E-03 0.  1.
         11   -1    0    0    0    0 -0.00000000000E+00 -0.00000000000E+00 -0.45593999997E+02  0.45594000000E+02  0.51100000000E-03 0. -1.
    9900012    2    1    2    0    0  0.41347452221E+02  0.11757816041E+02 -0.59803809583E+01  0.47787274204E+02  0.20000014404E+02 0.  0.
         12    1    1    2    0    0 -0.41347452221E+02 -0.11757816041E+02  0.59803809583E+01  0.43400725796E+02  0.00000000000E+00 0. -1.
         11    1    3    3    0    0  0.34886043919E+01 -0.27632317144E+01 -0.52071652212E+01  0.68498452546E+01  0.51100000000E-03 0. -1.
        -11    1    3    3    0    0  0.20518222747E+02  0.10560013792E+02 -0.15942940678E+01  0.23131215485E+02  0.51100000000E-03 0.  1.
         12    1    3    3    0    0  0.17340625082E+02  0.39610339640E+01  0.82107833058E+00  0.17806213464E+02  0.00000000000E+00 0. -1.
</event>
<event>
 7    1  0.5411321E-010  0.4778727E+02  0.7816164E-02  0.1312668E+00
        -11   -1    0    0    0    0  0.00000000000E+00  0.00000000000E+00  0.45593999997E+02  0.45594000000E+02  0.51100000000E-03 0.  1.
         11   -1    0    0    0    0 -0.00000000000E+00 -0.00000000000E+00 -0.45593999997E+02  0.45594000000E+02  0.51100000000E-03 0. -1.
    9900012    2    1    2    0    0 -0.15322236917E+02  0.34599156931E+02  0.21254429313E+02  0.47787269938E+02  0.19999994956E+02 0.  0.
         12    1    1    2    0    0  0.15322236917E+02 -0.34599156931E+02 -0.21254429313E+02  0.43400730062E+02  0.00000000000E+00 0. -1.
         11    1    3    3    0    0  0.79688301938E+00  0.15698710840E+01  0.54472198904E+01  0.57246591656E+01  0.51100000000E-03 0. -1.
        -11    1    3    3    0    0 -0.17157806700E+02  0.27155179386E+02  0.16403661006E+02  0.36067633592E+02  0.51100000000E-03 0.  1.
        -12    1    3    3    0    0  0.10386867642E+01  0.58741064609E+01 -0.59645158317E+00  0.59949771808E+01  0.00000000000E+00 0.  1.
</event>
<event>
 7    1  0.5411321E-010  0.4778727E+02  0.7816164E-02  0.1312668E+00
        -11   -1    0    0    0    0  0.00000000000E+00  0.00000000000E+00  0.45593999997E+02  0.45594000000E+02  0.51100000000E-03 0.  1.
         11   -1    0    0    0    0 -0.00000000000E+00 -0.00000000000E+00 -0.45593999997E+02  0.45594000000E+02  0.51100000000E-03 0. -1.
    9900012    2    1    2    0    0 -0.96653023208E+01 -0.10497528468E+02  0.40987888963E+02  0.47787271728E+02  0.20000003117E+02 0.  0.
         12    1    1    2    0    0  0.96653023208E+01  0.10497528468E+02 -0.40987888963E+02  0.43400728272E+02  0.00000000000E+00 0. -1.
         11    1    3    3    0    0 -0.64459010095E+00  0.12334595394E+01  0.23034831519E+01  0.26912736253E+01  0.51100000000E-03 0. -1.
        -11    1    3    3    0    0 -0.88387870267E+00  0.46489098597E+01  0.59916866162E+01  0.76350450694E+01  0.51100000000E-03 0.  1.
        -12    1    3    3    0    0 -0.81368335172E+01 -0.16379897867E+02  0.32692719195E+02  0.37460953033E+02  0.00000000000E+00 0.  1.
</event>
<event>
 7    1  0.5411321E-010  0.4778727E+02  0.7816164E-02  0.1312668E+00
        -11   -1    0    0    0    0  0.00000000000E+00  0.00000000000E+00  0.45593999997E+02  0.45594000000E+02  0.51100000000E-03 0. -1.
         11   -1    0    0    0    0 -0.00000000000E+00 -0.00000000000E+00 -0.45593999997E+02  0.45594000000E+02  0.51100000000E-03 0.  1.
    9900012    2    1    2    0    0 -0.43243403011E+02 -0.17544399104E+01  0.32485769357E+01  0.47787271717E+02  0.20000003066E+02 0.  0.
         12    1    1    2    0    0  0.43243403011E+02  0.17544399104E+01 -0.32485769357E+01  0.43400728283E+02  0.00000000000E+00 0. -1.
         11    1    3    3    0    0 -0.17609271370E+02  0.77159633050E+01 -0.41537402665E+00  0.19230056260E+02  0.51100000000E-03 0. -1.
        -11    1    3    3    0    0 -0.15763993874E+02 -0.78017142874E+01  0.53965472757E+01  0.18398178481E+02  0.51100000000E-03 0.  1.
        -12    1    3    3    0    0 -0.98701377679E+01 -0.16686889280E+01 -0.17325963133E+01  0.10159036976E+02  0.00000000000E+00 0.  1.
</event>
<event>
 7    1  0.5411321E-010  0.4778727E+02  0.7816164E-02  0.1312668E+00
        -11   -1    0    0    0    0  0.00000000000E+00  0.00000000000E+00  0.45593999997E+02  0.45594000000E+02  0.51100000000E-03 0. -1.
         11   -1    0    0    0    0 -0.00000000000E+00 -0.00000000000E+00 -0.45593999997E+02  0.45594000000E+02  0.51100000000E-03 0.  1.
    9900012    2    1    2    0    0  0.41999426860E+02  0.67019340813E+01  0.86461233180E+01  0.47787271603E+02  0.20000002546E+02 0.  0.
         12    1    1    2    0    0 -0.41999426860E+02 -0.67019340813E+01 -0.86461233180E+01  0.43400728397E+02  0.00000000000E+00 0. -1.
         11    1    3    3    0    0  0.15664132541E+02  0.12359417678E+02  0.39680230707E+01  0.20343683564E+02  0.51100000000E-03 0. -1.
        -11    1    3    3    0    0  0.19779599303E+02 -0.34504911186E+01  0.27735908886E+01  0.20268972451E+02  0.51100000000E-03 0.  1.
         12    1    3    3    0    0  0.65556950153E+01 -0.22069924779E+01  0.19045093588E+01  0.71746155876E+01  0.00000000000E+00 0. -1.
</event>
<event>
 7    1  0.5411321E-010  0.4778727E+02  0.7816164E-02  0.1312668E+00
        -11   -1    0    0    0    0  0.00000000000E+00  0.00000000000E+00  0.45593999997E+02  0.45594000000E+02  0.51100000000E-03 0.  1.
         11   -1    0    0    0    0 -0.00000000000E+00 -0.00000000000E+00 -0.45593999997E+02  0.45594000000E+02  0.51100000000E-03 0. -1.
    9900012    2    1    2    0    0 -0.41991838979E+02 -0.13600313209E+01  0.10883892585E+02  0.47787270239E+02  0.19999996327E+02 0.  0.
         12    1    1    2    0    0  0.41991838979E+02  0.13600313209E+01 -0.10883892585E+02  0.43400729761E+02  0.00000000000E+00 0. -1.
         11    1    3    3    0    0 -0.11301531780E+02 -0.84602099821E+01  0.58566912623E+00  0.14129500419E+02  0.51100000000E-03 0. -1.
        -11    1    3    3    0    0 -0.25328630593E+02  0.35985301014E+01  0.74233594576E+01  0.26638228404E+02  0.51100000000E-03 0.  1.
        -12    1    3    3    0    0 -0.53616766064E+01  0.35016485597E+01  0.28748640009E+01  0.70195414160E+01  0.00000000000E+00 0.  1.
</event>
<event>
 7    1  0.5411321E-010  0.4778727E+02  0.7816164E-02  0.1312668E+00
        -11   -1    0    0    0    0  0.00000000000E+00  0.00000000000E+00  0.45593999997E+02  0.45594000000E+02  0.51100000000E-03 0.  1.
         11   -1    0    0    0    0 -0.00000000000E+00 -0.00000000000E+00 -0.45593999997E+02  0.45594000000E+02  0.51100000000E-03 0. -1.
    9900012    2    1    2    0    0  0.17966186159E+02 -0.31291077915E+02  0.24118618601E+02  0.47787272294E+02  0.20000005698E+02 0.  0.
         12    1    1    2    0    0 -0.17966186159E+02  0.31291077915E+02 -0.24118618601E+02  0.43400727706E+02  0.00000000000E+00 0. -1.
         11    1    3    3    0    0  0.51420698506E+01 -0.19877457630E+02  0.38044263951E+01  0.20881280244E+02  0.51100000000E-03 0. -1.
        -11    1    3    3    0    0  0.54500569497E+01 -0.32432428330E+01  0.98783009921E+01  0.11738934176E+02  0.51100000000E-03 0.  1.
         12    1    3    3    0    0  0.73740593584E+01 -0.81703774521E+01  0.10435891214E+02  0.15167057874E+02  0.00000000000E+00 0. -1.
</event>
<event>
 7    1  0.5411321E-010  0.4778727E+02  0.7816164E-02  0.1312668E+00
        -11   -1    0    0    0    0  0.00000000000E+00  0.00000000000E+00  0.45593999997E+02  0.45594000000E+02  0.51100000000E-03 0.  1.
         11   -1    0    0    0    0 -0.00000000000E+00 -0.00000000000E+00 -0.45593999997E+02  0.45594000000E+02  0.51100000000E-03 0. -1.
    9900012    2    1    2    0    0 -0.25872696279E+02  0.23004866648E+02  0.26172564462E+02  0.47787269214E+02  0.19999991653E+02 0.  0.
         12    1    1    2    0    0  0.25872696279E+02 -0.23004866648E+02 -0.26172564462E+02  0.43400730786E+02  0.00000000000E+00 0. -1.
         11    1    3    3    0    0 -0.10613985110E+02  0.36188511967E+01  0.47904583256E+01  0.12194312409E+02  0.51100000000E-03 0. -1.
        -11    1    3    3    0    0  0.10577159009E+01  0.85257357877E+01  0.88198201023E+01  0.12312439261E+02  0.51100000000E-03 0.  1.
        -12    1    3    3    0    0 -0.16316427070E+02  0.10860279664E+02  0.12562286034E+02  0.23280517544E+02  0.00000000000E+00 0.  1.
</event>
<event>
 7    1  0.5411321E-010  0.4778727E+02  0.7816164E-02  0.1312668E+00
        -11   -1    0    0    0    0  0.00000000000E+00  0.00000000000E+00  0.45593999997E+02  0.45594000000E+02  0.51100000000E-03 0.  1.
         11   -1    0    0    0    0 -0.00000000000E+00 -0.00000000000E+00 -0.45593999997E+02  0.45594000000E+02  0.51100000000E-03 0. -1.
    9900012    2    1    2    0    0 -0.31820870171E+02 -0.28459569713E+02  0.78171924144E+01  0.47787269777E+02  0.19999994219E+02 0.  0.
         12    1    1    2    0    0  0.31820870171E+02  0.28459569713E+02 -0.78171924144E+01  0.43400730223E+02  0.00000000000E+00 0. -1.
         11    1    3    3    0    0 -0.16176524632E+02 -0.17356878052E+02  0.13629656972E+02  0.27362542176E+02  0.51100000000E-03 0. -1.
        -11    1    3    3    0    0 -0.86646515685E+01 -0.41225492130E+01 -0.17665848931E+01  0.97566603539E+01  0.51100000000E-03 0.  1.
         12    1    3    3    0    0 -0.69796939706E+01 -0.69801424480E+01 -0.40458796650E+01  0.10668067247E+02  0.00000000000E+00 0. -1.
</event>
<event>
 7    1  0.5411321E-010  0.4778727E+02  0.7816164E-02  0.1312668E+00
        -11   -1    0    0    0    0  0.00000000000E+00  0.00000000000E+00  0.45593999997E+02  0.45594000000E+02  0.51100000000E-03 0.  1.
         11   -1    0    0    0    0 -0.00000000000E+00 -0.00000000000E+00 -0.45593999997E+02  0.45594000000E+02  0.51100000000E-03 0. -1.
    9900012    2    1    2    0    0 -0.27220055309E+02 -0.14304022121E+02  0.30628199208E+02  0.47787273663E+02  0.20000011937E+02 0.  0.
         12    1    1    2    0    0  0.27220055309E+02  0.14304022121E+02 -0.30628199208E+02  0.43400726337E+02  0.00000000000E+00 0. -1.
         11    1    3    3    0    0 -0.20397064373E+02 -0.89623049900E+01  0.13792128412E+02  0.26202785198E+02  0.51100000000E-03 0. -1.
        -11    1    3    3    0    0  0.25163106460E+01 -0.24560723551E+01  0.28772836253E+01  0.45434427478E+01  0.51100000000E-03 0.  1.
         12    1    3    3    0    0 -0.93393015826E+01 -0.28856447761E+01  0.13958787171E+02  0.17041045716E+02  0.00000000000E+00 0. -1.
</event>
<event>
 7    1  0.5411321E-010  0.4778727E+02  0.7816164E-02  0.1312668E+00
        -11   -1    0    0    0    0  0.00000000000E+00  0.00000000000E+00  0.45593999997E+02  0.45594000000E+02  0.51100000000E-03 0.  1.
         11   -1    0    0    0    0 -0.00000000000E+00 -0.00000000000E+00 -0.45593999997E+02  0.45594000000E+02  0.51100000000E-03 0. -1.
    9900012    2    1    2    0    0 -0.11831217019E+02 -0.38347389935E+02 -0.16526445849E+02  0.47787269322E+02  0.19999992147E+02 0.  0.
         12    1    1    2    0    0  0.11831217019E+02  0.38347389935E+02  0.16526445849E+02  0.43400730678E+02  0.00000000000E+00 0. -1.
         11    1    3    3    0    0 -0.55316346798E+01 -0.20203337683E+02 -0.15634537082E+01  0.21005195156E+02  0.51100000000E-03 0. -1.
        -11    1    3    3    0    0 -0.83265989055E+01 -0.16672509066E+02 -0.15477247583E+02  0.24224987119E+02  0.51100000000E-03 0.  1.
         12    1    3    3    0    0  0.20270165666E+01 -0.14715431859E+01  0.51425544236E+00  0.25570870477E+01  0.00000000000E+00 0. -1.
</event>
<event>
 7    1  0.5411321E-010  0.4778728E+02  0.7816164E-02  0.1312668E+00
        -11   -1    0    0    0    0  0.00000000000E+00  0.00000000000E+00  0.45593999997E+02  0.45594000000E+02  0.51100000000E-03 0.  1.
         11   -1    0    0    0    0 -0.00000000000E+00 -0.00000000000E+00 -0.45593999997E+02  0.45594000000E+02  0.51100000000E-03 0. -1.
    9900012    2    1    2    0    0 -0.20944004132E+02 -0.25033474466E+02  0.28605886232E+02  0.47787275582E+02  0.20000020688E+02 0.  0.
         12    1    1    2    0    0  0.20944004132E+02  0.25033474466E+02 -0.28605886232E+02  0.43400724418E+02  0.00000000000E+00 0. -1.
         11    1    3    3    0    0 -0.13288300612E+02 -0.10343861958E+02  0.51528453093E+01  0.17610401143E+02  0.51100000000E-03 0. -1.
        -11    1    3    3    0    0 -0.62046417460E+01 -0.93141263341E+01  0.80152916322E+01  0.13765733863E+02  0.51100000000E-03 0.  1.
         12    1    3    3    0    0 -0.14510617740E+01 -0.53754861736E+01  0.15437749290E+02  0.16411140576E+02  0.00000000000E+00 0. -1.
</event>
<event>
 7    1  0.5411321E-010  0.4778727E+02  0.7816164E-02  0.1312668E+00
        -11   -1    0    0    0    0  0.00000000000E+00  0.00000000000E+00  0.45593999997E+02  0.45594000000E+02  0.51100000000E-03 0. -1.
         11   -1    0    0    0    0 -0.00000000000E+00 -0.00000000000E+00 -0.45593999997E+02  0.45594000000E+02  0.51100000000E-03 0.  1.
    9900012    2    1    2    0    0  0.67447392320E+01 -0.18010673421E+02 -0.38906911135E+02  0.47787267306E+02  0.19999982953E+02 0.  0.
         12    1    1    2    0    0 -0.67447392320E+01  0.18010673421E+02  0.38906911135E+02  0.43400732694E+02  0.00000000000E+00 0. -1.
         11    1    3    3    0    0  0.22817545689E+01 -0.66564299034E+01 -0.26546958920E+02  0.27463712261E+02  0.51100000000E-03 0. -1.
        -11    1    3    3    0    0  0.12896295482E+01 -0.12625917184E+02 -0.92844767651E+01  0.15725089449E+02  0.51100000000E-03 0.  1.
         12    1    3    3    0    0  0.31733551149E+01  0.12716736666E+01 -0.30754754491E+01  0.45984655960E+01  0.00000000000E+00 0. -1.
</event>
<event>
 7    1  0.5411321E-010  0.4778728E+02  0.7816164E-02  0.1312668E+00
        -11   -1    0    0    0    0  0.00000000000E+00  0.00000000000E+00  0.45593999997E+02  0.45594000000E+02  0.51100000000E-03 0.  1.
         11   -1    0    0    0    0 -0.00000000000E+00 -0.00000000000E+00 -0.45593999997E+02  0.45594000000E+02  0.51100000000E-03 0. -1.
    9900012    2    1    2    0    0  0.34469588434E+02 -0.22545307685E+01  0.26275224918E+02  0.47787275579E+02  0.20000020675E+02 0.  0.
         12    1    1    2    0    0 -0.34469588434E+02  0.22545307685E+01 -0.26275224918E+02  0.43400724421E+02  0.00000000000E+00 0. -1.
         11    1    3    3    0    0  0.56499217709E+01  0.47627706375E+01  0.12025990744E+02  0.14114887665E+02  0.51100000000E-03 0. -1.
        -11    1    3    3    0    0  0.21262708952E+02 -0.20940242723E+01  0.86091530527E+01  0.23034870222E+02  0.51100000000E-03 0.  1.
         12    1    3    3    0    0  0.75569577110E+01 -0.49232771337E+01  0.56400811213E+01  0.10637517691E+02  0.00000000000E+00 0. -1.
</event>
<event>
 7    1  0.5411321E-010  0.4778729E+02  0.7816164E-02  0.1312668E+00
        -11   -1    0    0    0    0  0.00000000000E+00  0.00000000000E+00  0.45593999997E+02  0.45594000000E+02  0.51100000000E-03 0. -1.
         11   -1    0    0    0    0 -0.00000000000E+00 -0.00000000000E+00 -0.45593999997E+02  0.45594000000E+02  0.51100000000E-03 0.  1.
    9900012    2    1    2    0    0  0.28973632446E+02 -0.25411963641E+02 -0.19959510786E+02  0.47787293277E+02  0.20000101367E+02 0.  0.
         12    1    1    2    0    0 -0.28973632446E+02  0.25411963641E+02  0.19959510786E+02  0.43400706723E+02  0.00000000000E+00 0. -1.
         11    1    3    3    0    0 -0.16580972531E+00  0.12861104484E+00  0.41407162985E+00  0.46420818781E+00  0.51100000000E-03 0. -1.
        -11    1    3    3    0    0  0.15876458654E+02 -0.61500487554E+01 -0.16124029342E+02  0.23449293413E+02  0.51100000000E-03 0.  1.
        -12    1    3    3    0    0  0.13262983518E+02 -0.19390525931E+02 -0.42495530736E+01  0.23873791676E+02  0.00000000000E+00 0.  1.
</event>
<event>
 7    1  0.5411321E-010  0.4778727E+02  0.7816164E-02  0.1312668E+00
        -11   -1    0    0    0    0  0.00000000000E+00  0.00000000000E+00  0.45593999997E+02  0.45594000000E+02  0.51100000000E-03 0.  1.
         11   -1    0    0    0    0 -0.00000000000E+00 -0.00000000000E+00 -0.45593999997E+02  0.45594000000E+02  0.51100000000E-03 0. -1.
    9900012    2    1    2    0    0 -0.34023139379E+02  0.24197194212E+02  0.11855174305E+02  0.47787269837E+02  0.19999994493E+02 0.  0.
         12    1    1    2    0    0  0.34023139379E+02 -0.24197194212E+02 -0.11855174305E+02  0.43400730163E+02  0.00000000000E+00 0. -1.
         11    1    3    3    0    0 -0.45443811222E+01 -0.72412182410E+00  0.30746304138E+01  0.55343567506E+01  0.51100000000E-03 0. -1.
        -11    1    3    3    0    0 -0.18352295054E+02  0.75252130115E+01  0.85555385956E+01  0.21601685248E+02  0.51100000000E-03 0.  1.
        -12    1    3    3    0    0 -0.11126463202E+02  0.17396103025E+02  0.22500529567E+00  0.20651227838E+02  0.00000000000E+00 0.  1.
</event>
<event>
 7    1  0.6379439E-010  0.4778727E+02  0.7816164E-02  0.1312668E+00
        -11   -1    0    0    0    0  0.00000000000E+00  0.00000000000E+00  0.45593999997E+02  0.45594000000E+02  0.51100000000E-03 0.  1.
         11   -1    0    0    0    0 -0.00000000000E+00 -0.00000000000E+00 -0.45593999997E+02  0.45594000000E+02  0.51100000000E-03 0. -1.
    9900012    2    1    2    0    0 -0.13413355949E+02  0.38506799732E+02  0.14863762954E+02  0.47787271981E+02  0.20000004270E+02 0.  0.
         12    1    1    2    0    0  0.13413355949E+02 -0.38506799732E+02 -0.14863762954E+02  0.43400728019E+02  0.00000000000E+00 0. -1.
         11    1    3    3    0    0  0.89830365930E-01 -0.12335136304E+01 -0.26481664328E-01  0.12370638265E+01  0.51100000000E-03 0. -1.
        -11    1    3    3    0    0 -0.48068278587E+01  0.30398135533E+02  0.70562118880E+01  0.31574394126E+02  0.51100000000E-03 0.  1.
        -12    1    3    3    0    0 -0.86963584564E+01  0.93421778293E+01  0.78340327300E+01  0.14975814028E+02  0.00000000000E+00 0.  1.
</event>
<event>
 7    1  0.5411321E-010  0.4778727E+02  0.7816164E-02  0.1312668E+00
        -11   -1    0    0    0    0  0.00000000000E+00  0.00000000000E+00  0.45593999997E+02  0.45594000000E+02  0.51100000000E-03 0.  1.
         11   -1    0    0    0    0 -0.00000000000E+00 -0.00000000000E+00 -0.45593999997E+02  0.45594000000E+02  0.51100000000E-03 0. -1.
    9900012    2    1    2    0    0  0.33358994810E+02  0.11487507902E+02  0.25275243070E+02  0.47787270919E+02  0.19999999429E+02 0.  0.
         12    1    1    2    0    0 -0.33358994810E+02 -0.11487507902E+02 -0.25275243070E+02  0.43400729081E+02  0.00000000000E+00 0. -1.
         11    1    3    3    0    0  0.23868001678E+02  0.77074574976E+01  0.25362871203E+02  0.35670178597E+02  0.51100000000E-03 0. -1.
        -11    1    3    3    0    0  0.89850832260E+01  0.42560655533E+01  0.18017491842E+01  0.10104064279E+02  0.51100000000E-03 0.  1.
         12    1    3    3    0    0  0.50590990537E+00 -0.47601514903E+00 -0.18893773177E+01  0.20130280433E+01  0.00000000000E+00 0. -1.
</event>
<event>
 7    1  0.5411321E-010  0.4778727E+02  0.7816164E-02  0.1312668E+00
        -11   -1    0    0    0    0  0.00000000000E+00  0.00000000000E+00  0.45593999997E+02  0.45594000000E+02  0.51100000000E-03 0.  1.
         11   -1    0    0    0    0 -0.00000000000E+00 -0.00000000000E+00 -0.45593999997E+02  0.45594000000E+02  0.51100000000E-03 0. -1.
    9900012    2    1    2    0    0  0.25453842568E+02  0.25166495179E+02  0.24543281129E+02  0.47787271554E+02  0.20000002325E+02 0.  0.
         12    1    1    2    0    0 -0.25453842568E+02 -0.25166495179E+02 -0.24543281129E+02  0.43400728446E+02  0.00000000000E+00 0. -1.
         11    1    3    3    0    0  0.86332043954E+01  0.17157698289E+01  0.43442431077E+01  0.98157288409E+01  0.51100000000E-03 0. -1.
        -11    1    3    3    0    0  0.17811721963E+01  0.12108679982E+02  0.12866614477E+02  0.17757884831E+02  0.51100000000E-03 0.  1.
        -12    1    3    3    0    0  0.15039465976E+02  0.11342045368E+02  0.73324235447E+01  0.20213657883E+02  0.00000000000E+00 0.  1.
</event>
<event>
 7    1  0.5411321E-010  0.4778727E+02  0.7816164E-02  0.1312668E+00
        -11   -1    0    0    0    0  0.00000000000E+00  0.00000000000E+00  0.45593999997E+02  0.45594000000E+02  0.51100000000E-03 0.  1.
         11   -1    0    0    0    0 -0.00000000000E+00 -0.00000000000E+00 -0.45593999997E+02  0.45594000000E+02  0.51100000000E-03 0. -1.
    9900012    2    1    2    0    0  0.14528258317E+02  0.21988566191E+02  0.34482688286E+02  0.47787272768E+02  0.20000007858E+02 0.  0.
         12    1    1    2    0    0 -0.14528258317E+02 -0.21988566191E+02 -0.34482688286E+02  0.43400727232E+02  0.00000000000E+00 0. -1.
         11    1    3    3    0    0  0.10086342927E+02  0.79481506979E+01  0.19401632118E+02  0.23266515473E+02  0.51100000000E-03 0. -1.
        -11    1    3    3    0    0  0.27466479010E+01  0.74731806389E+01 -0.24922819491E-01  0.79619799650E+01  0.51100000000E-03 0.  1.
        -12    1    3    3    0    0  0.16952674888E+01  0.65672348543E+01  0.15105978988E+02  0.16558777330E+02  0.00000000000E+00 0.  1.
</event>
<event>
 7    1  0.5411321E-010  0.4778727E+02  0.7816164E-02  0.1312668E+00
        -11   -1    0    0    0    0  0.00000000000E+00  0.00000000000E+00  0.45593999997E+02  0.45594000000E+02  0.51100000000E-03 0.  1.
         11   -1    0    0    0    0 -0.00000000000E+00 -0.00000000000E+00 -0.45593999997E+02  0.45594000000E+02  0.51100000000E-03 0. -1.
    9900012    2    1    2    0    0  0.48239235061E+01  0.43075535980E+02 -0.22025063226E+01  0.47787273370E+02  0.20000010602E+02 0.  0.
         12    1    1    2    0    0 -0.48239235061E+01 -0.43075535980E+02  0.22025063226E+01  0.43400726630E+02  0.00000000000E+00 0. -1.
         11    1    3    3    0    0 -0.15754606995E+01  0.82651336727E+00  0.20497979819E+01  0.27141983697E+01  0.51100000000E-03 0.  1.
        -11    1    3    3    0    0  0.72785925445E+01  0.21495951624E+02 -0.78057004924E+01  0.23999641790E+02  0.51100000000E-03 0. -1.
        -12    1    3    3    0    0 -0.87920833887E+00  0.20753070989E+02  0.35533961879E+01  0.21073433210E+02  0.00000000000E+00 0.  1.
</event>
<event>
 7    1  0.5411321E-010  0.4778727E+02  0.7816164E-02  0.1312668E+00
        -11   -1    0    0    0    0  0.00000000000E+00  0.00000000000E+00  0.45593999997E+02  0.45594000000E+02  0.51100000000E-03 0.  1.
         11   -1    0    0    0    0 -0.00000000000E+00 -0.00000000000E+00 -0.45593999997E+02  0.45594000000E+02  0.51100000000E-03 0. -1.
    9900012    2    1    2    0    0 -0.20568101396E+02  0.30748727605E+02  0.22695642066E+02  0.47787271744E+02  0.20000003190E+02 0.  0.
         12    1    1    2    0    0  0.20568101396E+02 -0.30748727605E+02 -0.22695642066E+02  0.43400728256E+02  0.00000000000E+00 0. -1.
         11    1    3    3    0    0 -0.97599620059E+01  0.62112739388E+01  0.22911123876E+01  0.11793471861E+02  0.51100000000E-03 0.  1.
        -11    1    3    3    0    0 -0.33099264403E+01  0.18179757315E+02  0.18163526102E+02  0.25910863933E+02  0.51100000000E-03 0. -1.
         12    1    3    3    0    0 -0.74982129497E+01  0.63576963520E+01  0.22410035765E+01  0.10082935950E+02  0.00000000000E+00 0. -1.
</event>
<event>
 7    1  0.5411321E-010  0.4778727E+02  0.7816164E-02  0.1312668E+00
        -11   -1    0    0    0    0  0.00000000000E+00  0.00000000000E+00  0.45593999997E+02  0.45594000000E+02  0.51100000000E-03 0.  1.
         11   -1    0    0    0    0 -0.00000000000E+00 -0.00000000000E+00 -0.45593999997E+02  0.45594000000E+02  0.51100000000E-03 0. -1.
    9900012    2    1    2    0    0 -0.29857870702E+02  0.21175429691E+02  0.23318062144E+02  0.47787270887E+02  0.19999999281E+02 0.  0.
         12    1    1    2    0    0  0.29857870702E+02 -0.21175429691E+02 -0.23318062144E+02  0.43400729113E+02  0.00000000000E+00 0. -1.
         11    1    3    3    0    0 -0.18582566339E+02  0.13396012092E+02  0.19810761471E+02  0.30285824770E+02  0.51100000000E-03 0. -1.
        -11    1    3    3    0    0 -0.27688338097E+01  0.81391476902E+01  0.12023473081E+01  0.86808873452E+01  0.51100000000E-03 0.  1.
         12    1    3    3    0    0 -0.85064705537E+01 -0.35973009203E+00  0.23049533646E+01  0.88205587711E+01  0.00000000000E+00 0. -1.
</event>
<event>
 7    1  0.5411321E-010  0.4778727E+02  0.7816164E-02  0.1312668E+00
        -11   -1    0    0    0    0  0.00000000000E+00  0.00000000000E+00  0.45593999997E+02  0.45594000000E+02  0.51100000000E-03 0. -1.
         11   -1    0    0    0    0 -0.00000000000E+00 -0.00000000000E+00 -0.45593999997E+02  0.45594000000E+02  0.51100000000E-03 0.  1.
    9900012    2    1    2    0    0  0.20517270352E+01 -0.25676185565E+02 -0.34930604229E+02  0.47787271887E+02  0.20000003840E+02 0.  0.
         12    1    1    2    0    0 -0.20517270352E+01  0.25676185565E+02  0.34930604229E+02  0.43400728113E+02  0.00000000000E+00 0. -1.
         11    1    3    3    0    0  0.73988101038E+01 -0.58242971425E+01 -0.56414051334E+01  0.10976806471E+02  0.51100000000E-03 0. -1.
        -11    1    3    3    0    0 -0.54855566179E+01 -0.51232084984E+01 -0.11207848086E+02  0.13489049474E+02  0.51100000000E-03 0.  1.
         12    1    3    3    0    0  0.13847354929E+00 -0.14728679924E+02 -0.18081351009E+02  0.23321415942E+02  0.00000000000E+00 0. -1.
</event>
<event>
 7    1  0.5411321E-010  0.4778728E+02  0.7816164E-02  0.1312668E+00
        -11   -1    0    0    0    0  0.00000000000E+00  0.00000000000E+00  0.45593999997E+02  0.45594000000E+02  0.51100000000E-03 0.  1.
         11   -1    0    0    0    0 -0.00000000000E+00 -0.00000000000E+00 -0.45593999997E+02  0.45594000000E+02  0.51100000000E-03 0. -1.
    9900012    2    1    2    0    0  0.26185016579E+02  0.26084558767E+02  0.22750007252E+02  0.47787284231E+02  0.20000060121E+02 0.  0.
         12    1    1    2    0    0 -0.26185016579E+02 -0.26084558767E+02 -0.22750007252E+02  0.43400715769E+02  0.00000000000E+00 0. -1.
         11    1    3    3    0    0  0.33602727051E+01  0.16119946047E+02  0.86490231387E+01  0.18599722974E+02  0.51100000000E-03 0. -1.
        -11    1    3    3    0    0  0.13076917616E+02  0.28368799071E+01  0.61310103689E+01  0.14718795818E+02  0.51100000000E-03 0.  1.
         12    1    3    3    0    0  0.97478262578E+01  0.71277328135E+01  0.79699737448E+01  0.14468765438E+02  0.00000000000E+00 0. -1.
</event>
<event>
 7    1  0.5411321E-010  0.4778727E+02  0.7816164E-02  0.1312668E+00
        -11   -1    0    0    0    0  0.00000000000E+00  0.00000000000E+00  0.45593999997E+02  0.45594000000E+02  0.51100000000E-03 0.  1.
         11   -1    0    0    0    0 -0.00000000000E+00 -0.00000000000E+00 -0.45593999997E+02  0.45594000000E+02  0.51100000000E-03 0. -1.
    9900012    2    1    2    0    0 -0.42965012890E+02  0.10387090349E+01  0.60458302521E+01  0.47787270599E+02  0.19999997971E+02 0.  0.
         12    1    1    2    0    0  0.42965012890E+02 -0.10387090349E+01 -0.60458302521E+01  0.43400729401E+02  0.00000000000E+00 0. -1.
         11    1    3    3    0    0 -0.27423618319E+01 -0.37638736693E+01  0.45953658823E+00  0.46795798479E+01  0.51100000000E-03 0. -1.
        -11    1    3    3    0    0 -0.41035464899E+02  0.57517645258E+01  0.57978702848E+01  0.41840261409E+02  0.51100000000E-03 0.  1.
        -12    1    3    3    0    0  0.81281384159E+00 -0.94918182163E+00 -0.21157662094E+00  0.12674293425E+01  0.00000000000E+00 0.  1.
</event>
<event>
 7    1  0.5411321E-010  0.4778728E+02  0.7816164E-02  0.1312668E+00
        -11   -1    0    0    0    0  0.00000000000E+00  0.00000000000E+00  0.45593999997E+02  0.45594000000E+02  0.51100000000E-03 0.  1.
         11   -1    0    0    0    0 -0.00000000000E+00 -0.00000000000E+00 -0.45593999997E+02  0.45594000000E+02  0.51100000000E-03 0. -1.
    9900012    2    1    2    0    0  0.52660170465E+01  0.22980026537E+02  0.36439123696E+02  0.47787282368E+02  0.20000051630E+02 0.  0.
         12    1    1    2    0    0 -0.52660170465E+01 -0.22980026537E+02 -0.36439123696E+02  0.43400717632E+02  0.00000000000E+00 0. -1.
         11    1    3    3    0    0 -0.17236828954E+01  0.55924171617E+00  0.14226125656E+02  0.14341076859E+02  0.51100000000E-03 0. -1.
        -11    1    3    3    0    0  0.29880282018E+01  0.12310842403E+02  0.62349544822E+01  0.14119483378E+02  0.51100000000E-03 0.  1.
         12    1    3    3    0    0  0.40016717401E+01  0.10109942418E+02  0.15978043558E+02  0.19326722132E+02  0.00000000000E+00 0. -1.
</event>
<event>
 7    1  0.5411321E-010  0.4778727E+02  0.7816164E-02  0.1312668E+00
        -11   -1    0    0    0    0  0.00000000000E+00  0.00000000000E+00  0.45593999997E+02  0.45594000000E+02  0.51100000000E-03 0.  1.
         11   -1    0    0    0    0 -0.00000000000E+00 -0.00000000000E+00 -0.45593999997E+02  0.45594000000E+02  0.51100000000E-03 0. -1.
    9900012    2    1    2    0    0 -0.22259148588E+02  0.10405032031E+02  0.35775532063E+02  0.47787273257E+02  0.20000010088E+02 0.  0.
         12    1    1    2    0    0  0.22259148588E+02 -0.10405032031E+02 -0.35775532063E+02  0.43400726743E+02  0.00000000000E+00 0. -1.
         11    1    3    3    0    0 -0.23969529518E+01  0.11358063540E+01 -0.24442398054E+01  0.36069028285E+01  0.51100000000E-03 0. -1.
        -11    1    3    3    0    0 -0.10354971793E+02  0.58168325196E+01  0.17892114793E+02  0.21475305666E+02  0.51100000000E-03 0.  1.
         12    1    3    3    0    0 -0.95072238429E+01  0.34523931578E+01  0.20327657075E+02  0.22705064763E+02  0.00000000000E+00 0. -1.
</event>
<event>
 7    1  0.5411321E-010  0.4778726E+02  0.7816164E-02  0.1312668E+00
        -11   -1    0    0    0    0  0.00000000000E+00  0.00000000000E+00  0.45593999997E+02  0.45594000000E+02  0.51100000000E-03 0.  1.
         11   -1    0    0    0    0 -0.00000000000E+00 -0.00000000000E+00 -0.45593999997E+02  0.45594000000E+02  0.51100000000E-03 0. -1.
    9900012    2    1    2    0    0  0.20202638803E+02  0.29776361313E+02  0.24266139659E+02  0.47787264504E+02  0.19999970181E+02 0.  0.
         12    1    1    2    0    0 -0.20202638803E+02 -0.29776361313E+02 -0.24266139659E+02  0.43400735496E+02  0.00000000000E+00 0. -1.
         11    1    3    3    0    0  0.12270187695E+02  0.71969861324E+01  0.18876918715E+01  0.14349825655E+02  0.51100000000E-03 0. -1.
        -11    1    3    3    0    0  0.80178902163E+01  0.22770603728E+02  0.20861031190E+02  0.31905635556E+02  0.51100000000E-03 0.  1.
         12    1    3    3    0    0 -0.85439109182E-01 -0.19122854778E+00  0.15174165969E+01  0.15318032927E+01  0.00000000000E+00 0. -1.
</event>
<event>
 7    1  0.5411321E-010  0.4778727E+02  0.7816164E-02  0.1312668E+00
        -11   -1    0    0    0    0  0.00000000000E+00  0.00000000000E+00  0.45593999997E+02  0.45594000000E+02  0.51100000000E-03 0. -1.
         11   -1    0    0    0    0 -0.00000000000E+00 -0.00000000000E+00 -0.45593999997E+02  0.45594000000E+02  0.51100000000E-03 0.  1.
    9900012    2    1    2    0    0 -0.22581846809E+02  0.10210900036E+02 -0.35628933971E+02  0.47787271656E+02  0.20000002789E+02 0.  0.
         12    1    1    2    0    0  0.22581846809E+02 -0.10210900036E+02  0.35628933971E+02  0.43400728344E+02  0.00000000000E+00 0. -1.
         11    1    3    3    0    0  0.24479675268E+01  0.51679269742E+00 -0.28063233410E+01  0.37596636365E+01  0.51100000000E-03 0. -1.
        -11    1    3    3    0    0 -0.21619994968E+02  0.49239378457E+01 -0.30528122849E+02  0.37731096343E+02  0.51100000000E-03 0.  1.
         12    1    3    3    0    0 -0.34098193674E+01  0.47701694931E+01 -0.22944877812E+01  0.62965116762E+01  0.00000000000E+00 0. -1.
</event>
<event>
 7    1  0.5411321E-010  0.4778728E+02  0.7816164E-02  0.1312668E+00
        -11   -1    0    0    0    0  0.00000000000E+00  0.00000000000E+00  0.45593999997E+02  0.45594000000E+02  0.51100000000E-03 0.  1.
         11   -1    0    0    0    0 -0.00000000000E+00 -0.00000000000E+00 -0.45593999997E+02  0.45594000000E+02  0.51100000000E-03 0. -1.
    9900012    2    1    2    0    0 -0.22109946682E+02 -0.34887370541E+02  0.13328336086E+02  0.47787275256E+02  0.20000019201E+02 0.  0.
         12    1    1    2    0    0  0.22109946682E+02  0.34887370541E+02 -0.13328336086E+02  0.43400724744E+02  0.00000000000E+00 0. -1.
         11    1    3    3    0    0 -0.48029132518E+01 -0.41501793667E+01 -0.40611525675E+01  0.75355772783E+01  0.51100000000E-03 0. -1.
        -11    1    3    3    0    0 -0.34756266220E+01 -0.71975007699E+01  0.21299161332E+00  0.79955839960E+01  0.51100000000E-03 0.  1.
         12    1    3    3    0    0 -0.13831406808E+02 -0.23539690404E+02  0.17176497040E+02  0.32256113981E+02  0.00000000000E+00 0. -1.
</event>
<event>
 7    1  0.5411321E-010  0.4778727E+02  0.7816164E-02  0.1312668E+00
        -11   -1    0    0    0    0  0.00000000000E+00  0.00000000000E+00  0.45593999997E+02  0.45594000000E+02  0.51100000000E-03 0.  1.
         11   -1    0    0    0    0 -0.00000000000E+00 -0.00000000000E+00 -0.45593999997E+02  0.45594000000E+02  0.51100000000E-03 0. -1.
    9900012    2    1    2    0    0  0.55889942328E+01  0.72752508956E+01  0.42420010824E+02  0.47787269010E+02  0.19999990724E+02 0.  0.
         12    1    1    2    0    0 -0.55889942328E+01 -0.72752508956E+01 -0.42420010824E+02  0.43400730990E+02  0.00000000000E+00 0. -1.
         11    1    3    3    0    0 -0.86649335635E+00 -0.28899867831E+00 -0.69216782731E+00  0.11460486617E+01  0.51100000000E-03 0. -1.
        -11    1    3    3    0    0  0.11899467701E+01  0.11161840087E+02  0.24050932601E+02  0.26541477100E+02  0.51100000000E-03 0.  1.
        -12    1    3    3    0    0  0.52655408191E+01 -0.35975905129E+01  0.19061246051E+02  0.20099743248E+02  0.00000000000E+00 0.  1.
</event>
<event>
 7    1  0.5411321E-010  0.4778727E+02  0.7816164E-02  0.1312668E+00
        -11   -1    0    0    0    0  0.00000000000E+00  0.00000000000E+00  0.45593999997E+02  0.45594000000E+02  0.51100000000E-03 0.  1.
         11   -1    0    0    0    0 -0.00000000000E+00 -0.00000000000E+00 -0.45593999997E+02  0.45594000000E+02  0.51100000000E-03 0. -1.
    9900012    2    1    2    0    0  0.69751378647E+01  0.32622192886E+02 -0.27762632479E+02  0.47787265224E+02  0.19999973463E+02 0.  0.
         12    1    1    2    0    0 -0.69751378647E+01 -0.32622192886E+02  0.27762632479E+02  0.43400734776E+02  0.00000000000E+00 0. -1.
         11    1    3    3    0    0  0.73905891747E+01  0.10792270291E+02 -0.10787156078E+01  0.13124691768E+02  0.51100000000E-03 0. -1.
        -11    1    3    3    0    0 -0.19610454694E+01  0.98780604920E+01 -0.11941451376E+02  0.15621140792E+02  0.51100000000E-03 0.  1.
         12    1    3    3    0    0  0.15455941594E+01  0.11951862103E+02 -0.14742465495E+02  0.19041432664E+02  0.00000000000E+00 0. -1.
</event>
<event>
 7    1  0.5411321E-010  0.4778727E+02  0.7816164E-02  0.1312668E+00
        -11   -1    0    0    0    0  0.00000000000E+00  0.00000000000E+00  0.45593999997E+02  0.45594000000E+02  0.51100000000E-03 0.  1.
         11   -1    0    0    0    0 -0.00000000000E+00 -0.00000000000E+00 -0.45593999997E+02  0.45594000000E+02  0.51100000000E-03 0. -1.
    9900012    2    1    2    0    0  0.11298929610E+02  0.10430679223E+02  0.40585199933E+02  0.47787270364E+02  0.19999996896E+02 0.  0.
         12    1    1    2    0    0 -0.11298929610E+02 -0.10430679223E+02 -0.40585199933E+02  0.43400729636E+02  0.00000000000E+00 0. -1.
         11    1    3    3    0    0  0.25851511837E+00  0.83573834344E+01  0.52519301313E+01  0.98739788485E+01  0.51100000000E-03 0. -1.
        -11    1    3    3    0    0  0.25641681703E+01  0.22004160861E+01  0.20926219284E+02  0.21197250839E+02  0.51100000000E-03 0.  1.
         12    1    3    3    0    0  0.84762463218E+01 -0.12712029744E+00  0.14407050518E+02  0.16716040676E+02  0.00000000000E+00 0. -1.
</event>
<event>
 7    1  0.5411321E-010  0.4778728E+02  0.7816164E-02  0.1312668E+00
        -11   -1    0    0    0    0  0.00000000000E+00  0.00000000000E+00  0.45593999997E+02  0.45594000000E+02  0.51100000000E-03 0.  1.
         11   -1    0    0    0    0 -0.00000000000E+00 -0.00000000000E+00 -0.45593999997E+02  0.45594000000E+02  0.51100000000E-03 0. -1.
    9900012    2    1    2    0    0 -0.26312907240E+02  0.26724594940E+02  0.21841468187E+02  0.47787276564E+02  0.20000025167E+02 0.  0.
         12    1    1    2    0    0  0.26312907240E+02 -0.26724594940E+02 -0.21841468187E+02  0.43400723436E+02  0.00000000000E+00 0. -1.
         11    1    3    3    0    0 -0.12032518735E+02  0.21578017604E+01  0.12209197683E+02  0.17277214008E+02  0.51100000000E-03 0. -1.
        -11    1    3    3    0    0 -0.10137014437E+02  0.16928588139E+02  0.39374984678E+01  0.20120637478E+02  0.51100000000E-03 0.  1.
         12    1    3    3    0    0 -0.41433740684E+01  0.76382050409E+01  0.56947720364E+01  0.10389425079E+02  0.00000000000E+00 0. -1.
</event>
<event>
 7    1  0.5411321E-010  0.4778727E+02  0.7816164E-02  0.1312668E+00
        -11   -1    0    0    0    0  0.00000000000E+00  0.00000000000E+00  0.45593999997E+02  0.45594000000E+02  0.51100000000E-03 0. -1.
         11   -1    0    0    0    0 -0.00000000000E+00 -0.00000000000E+00 -0.45593999997E+02  0.45594000000E+02  0.51100000000E-03 0.  1.
    9900012    2    1    2    0    0  0.22212114044E+02  0.36997772382E+02 -0.46271195547E+01  0.47787269512E+02  0.19999993014E+02 0.  0.
         12    1    1    2    0    0 -0.22212114044E+02 -0.36997772382E+02  0.46271195547E+01  0.43400730488E+02  0.00000000000E+00 0. -1.
         11    1    3    3    0    0  0.88402111207E+01  0.42099532560E+01 -0.57946259381E+01  0.11377641632E+02  0.51100000000E-03 0.  1.
        -11    1    3    3    0    0  0.12083187219E+02  0.32359988993E+02 -0.11401069948E+00  0.34542514380E+02  0.51100000000E-03 0. -1.
         12    1    3    3    0    0  0.12887157042E+01  0.42783013255E+00  0.12815170829E+01  0.18671135001E+01  0.00000000000E+00 0. -1.
</event>
<event>
 7    1  0.5411321E-010  0.4778727E+02  0.7816164E-02  0.1312668E+00
        -11   -1    0    0    0    0  0.00000000000E+00  0.00000000000E+00  0.45593999997E+02  0.45594000000E+02  0.51100000000E-03 0. -1.
         11   -1    0    0    0    0 -0.00000000000E+00 -0.00000000000E+00 -0.45593999997E+02  0.45594000000E+02  0.51100000000E-03 0.  1.
    9900012    2    1    2    0    0 -0.25931158927E+02  0.31652760065E+02  0.14467254860E+02  0.47787266294E+02  0.19999978339E+02 0.  0.
         12    1    1    2    0    0  0.25931158927E+02 -0.31652760065E+02 -0.14467254860E+02  0.43400733706E+02  0.00000000000E+00 0. -1.
         11    1    3    3    0    0 -0.75543707430E+01  0.54179885587E+01 -0.33798994526E+01  0.98917560583E+01  0.51100000000E-03 0. -1.
        -11    1    3    3    0    0 -0.69992195700E+01  0.17098366067E+02  0.12712581911E+02  0.22426612224E+02  0.51100000000E-03 0.  1.
        -12    1    3    3    0    0 -0.11377568614E+02  0.91364054400E+01  0.51345724022E+01  0.15468898012E+02  0.00000000000E+00 0.  1.
</event>
<event>
 7    1  0.5411321E-010  0.4778727E+02  0.7816164E-02  0.1312668E+00
        -11   -1    0    0    0    0  0.00000000000E+00  0.00000000000E+00  0.45593999997E+02  0.45594000000E+02  0.51100000000E-03 0.  1.
         11   -1    0    0    0    0 -0.00000000000E+00 -0.00000000000E+00 -0.45593999997E+02  0.45594000000E+02  0.51100000000E-03 0. -1.
    9900012    2    1    2    0    0 -0.16364113824E+02 -0.39884260706E+02  0.50084805467E+01  0.47787270159E+02  0.19999995962E+02 0.  0.
         12    1    1    2    0    0  0.16364113824E+02  0.39884260706E+02 -0.50084805467E+01  0.43400729841E+02  0.00000000000E+00 0. -1.
         11    1    3    3    0    0 -0.34277147682E+01 -0.92488288980E+01 -0.57739688983E+01  0.11429294887E+02  0.51100000000E-03 0. -1.
        -11    1    3    3    0    0 -0.93537182045E+01 -0.28786987112E+02  0.75637230747E+01  0.31199240027E+02  0.51100000000E-03 0.  1.
        -12    1    3    3    0    0 -0.35826808516E+01 -0.18484446963E+01  0.32187263703E+01  0.51587352448E+01  0.00000000000E+00 0.  1.
</event>
<event>
 7    1  0.5411321E-010  0.4778727E+02  0.7816164E-02  0.1312668E+00
        -11   -1    0    0    0    0  0.00000000000E+00  0.00000000000E+00  0.45593999997E+02  0.45594000000E+02  0.51100000000E-03 0.  1.
         11   -1    0    0    0    0 -0.00000000000E+00 -0.00000000000E+00 -0.45593999997E+02  0.45594000000E+02  0.51100000000E-03 0. -1.
    9900012    2    1    2    0    0 -0.34571619863E+02  0.14296005290E+01 -0.26198908910E+02  0.47787268604E+02  0.19999988873E+02 0.  0.
         12    1    1    2    0    0  0.34571619863E+02 -0.14296005290E+01  0.26198908910E+02  0.43400731396E+02  0.00000000000E+00 0. -1.
         11    1    3    3    0    0 -0.11498344624E+02 -0.39085185005E+01 -0.14548553644E+02  0.18951223162E+02  0.51100000000E-03 0. -1.
        -11    1    3    3    0    0 -0.76850964013E+01  0.10881708384E+01  0.17921812657E+01  0.79659736644E+01  0.51100000000E-03 0.  1.
        -12    1    3    3    0    0 -0.15388178838E+02  0.42499481911E+01 -0.13442536532E+02  0.20870071777E+02  0.00000000000E+00 0.  1.
</event>
<event>
 7    1  0.5411321E-010  0.4778727E+02  0.7816164E-02  0.1312668E+00
        -11   -1    0    0    0    0  0.00000000000E+00  0.00000000000E+00  0.45593999997E+02  0.45594000000E+02  0.51100000000E-03 0.  1.
         11   -1    0    0    0    0 -0.00000000000E+00 -0.00000000000E+00 -0.45593999997E+02  0.45594000000E+02  0.51100000000E-03 0. -1.
    9900012    2    1    2    0    0  0.18450222160E+02 -0.37829824119E+02  0.10588544732E+02  0.47787267630E+02  0.19999984434E+02 0.  0.
         12    1    1    2    0    0 -0.18450222160E+02  0.37829824119E+02 -0.10588544732E+02  0.43400732370E+02  0.00000000000E+00 0. -1.
         11    1    3    3    0    0  0.12212157154E+02 -0.86377215599E+01 -0.24745907961E+01  0.15161484623E+02  0.51100000000E-03 0. -1.
        -11    1    3    3    0    0  0.30387714866E+01 -0.15450288072E+02  0.77395706679E+01  0.17545554652E+02  0.51100000000E-03 0.  1.
         12    1    3    3    0    0  0.31992935198E+01 -0.13741814488E+02  0.53235648604E+01  0.15080228356E+02  0.00000000000E+00 0. -1.
</event>
<event>
 7    1  0.5411321E-010  0.4778727E+02  0.7816164E-02  0.1312668E+00
        -11   -1    0    0    0    0  0.00000000000E+00  0.00000000000E+00  0.45593999997E+02  0.45594000000E+02  0.51100000000E-03 0.  1.
         11   -1    0    0    0    0 -0.00000000000E+00 -0.00000000000E+00 -0.45593999997E+02  0.45594000000E+02  0.51100000000E-03 0. -1.
    9900012    2    1    2    0    0  0.51292224764E+01 -0.34843980965E+02  0.25361608162E+02  0.47787273033E+02  0.20000009068E+02 0.  0.
         12    1    1    2    0    0 -0.51292224764E+01  0.34843980965E+02 -0.25361608162E+02  0.43400726967E+02  0.00000000000E+00 0. -1.
         11    1    3    3    0    0 -0.35328547896E+01 -0.36215171284E+01  0.10348680809E+02  0.11519185909E+02  0.51100000000E-03 0. -1.
        -11    1    3    3    0    0  0.35859233941E+01 -0.16805820166E+02  0.11211967115E+02  0.20518348980E+02  0.51100000000E-03 0.  1.
         12    1    3    3    0    0  0.50761538720E+01 -0.14416643671E+02  0.38009602389E+01  0.15749738144E+02  0.00000000000E+00 0. -1.
</event>
<event>
 7    1  0.5411321E-010  0.4778727E+02  0.7816164E-02  0.1312668E+00
        -11   -1    0    0    0    0  0.00000000000E+00  0.00000000000E+00  0.45593999997E+02  0.45594000000E+02  0.51100000000E-03 0. -1.
         11   -1    0    0    0    0 -0.00000000000E+00 -0.00000000000E+00 -0.45593999997E+02  0.45594000000E+02  0.51100000000E-03 0.  1.
    9900012    2    1    2    0    0  0.25538292209E+02  0.34510778550E+02  0.63580701656E+01  0.47787271189E+02  0.20000000660E+02 0.  0.
         12    1    1    2    0    0 -0.25538292209E+02 -0.34510778550E+02 -0.63580701656E+01  0.43400728811E+02  0.00000000000E+00 0. -1.
         11    1    3    3    0    0  0.17030168283E+01  0.13803112577E+02 -0.62453167268E+00  0.13921789512E+02  0.51100000000E-03 0. -1.
        -11    1    3    3    0    0  0.16403147777E+02  0.12550994401E+02 -0.27852078633E+00  0.20655950512E+02  0.51100000000E-03 0.  1.
        -12    1    3    3    0    0  0.74321276032E+01  0.81566715720E+01  0.72611226246E+01  0.13209531166E+02  0.00000000000E+00 0.  1.
</event>
<event>
 7    1  0.5411321E-010  0.4778727E+02  0.7816164E-02  0.1312668E+00
        -11   -1    0    0    0    0  0.00000000000E+00  0.00000000000E+00  0.45593999997E+02  0.45594000000E+02  0.51100000000E-03 0.  1.
         11   -1    0    0    0    0 -0.00000000000E+00 -0.00000000000E+00 -0.45593999997E+02  0.45594000000E+02  0.51100000000E-03 0. -1.
    9900012    2    1    2    0    0  0.17979943775E+02 -0.10020164070E+02  0.38209173812E+02  0.47787273859E+02  0.20000012832E+02 0.  0.
         12    1    1    2    0    0 -0.17979943775E+02  0.10020164070E+02 -0.38209173812E+02  0.43400726141E+02  0.00000000000E+00 0. -1.
         11    1    3    3    0    0  0.35366578537E+00  0.14364984211E+00  0.68535905969E+01  0.68642129262E+01  0.51100000000E-03 0. -1.
        -11    1    3    3    0    0  0.73479190342E+01  0.15203832103E+01  0.21093453406E+01  0.77944093597E+01  0.51100000000E-03 0.  1.
        -12    1    3    3    0    0  0.10278358956E+02 -0.11684197123E+02  0.29246237875E+02  0.33128651573E+02  0.00000000000E+00 0.  1.
</event>
<event>
 7    1  0.5411321E-010  0.4778729E+02  0.7816164E-02  0.1312668E+00
        -11   -1    0    0    0    0  0.00000000000E+00  0.00000000000E+00  0.45593999997E+02  0.45594000000E+02  0.51100000000E-03 0.  1.
         11   -1    0    0    0    0 -0.00000000000E+00 -0.00000000000E+00 -0.45593999997E+02  0.45594000000E+02  0.51100000000E-03 0. -1.
    9900012    2    1    2    0    0  0.41805370108E+02  0.46084603502E+01  0.10709548747E+02  0.47787293657E+02  0.20000103100E+02 0.  0.
         12    1    1    2    0    0 -0.41805370108E+02 -0.46084603502E+01 -0.10709548747E+02  0.43400706343E+02  0.00000000000E+00 0. -1.
         11    1    3    3    0    0  0.26906791105E+02  0.87802671188E+01  0.48212413319E+01  0.28710849282E+02  0.51100000000E-03 0. -1.
        -11    1    3    3    0    0  0.15940262409E+02 -0.50929225313E+01  0.51901091115E+01  0.17520475405E+02  0.51100000000E-03 0.  1.
         12    1    3    3    0    0 -0.10416834052E+01  0.92111576268E+00  0.69819830367E+00  0.15559689702E+01  0.00000000000E+00 0. -1.
</event>
<event>
 7    1  0.5411321E-010  0.4778727E+02  0.7816164E-02  0.1312668E+00
        -11   -1    0    0    0    0  0.00000000000E+00  0.00000000000E+00  0.45593999997E+02  0.45594000000E+02  0.51100000000E-03 0.  1.
         11   -1    0    0    0    0 -0.00000000000E+00 -0.00000000000E+00 -0.45593999997E+02  0.45594000000E+02  0.51100000000E-03 0. -1.
    9900012    2    1    2    0    0 -0.15420468564E+01  0.17500191854E+02  0.39686127121E+02  0.47787270636E+02  0.19999998139E+02 0.  0.
         12    1    1    2    0    0  0.15420468564E+01 -0.17500191854E+02 -0.39686127121E+02  0.43400729364E+02  0.00000000000E+00 0. -1.
         11    1    3    3    0    0 -0.47700391059E+01  0.54503144573E+01  0.78591862605E+01  0.10687656885E+02  0.51100000000E-03 0. -1.
        -11    1    3    3    0    0  0.67804332942E+01  0.80619177675E+01  0.96412729605E+01  0.14280158903E+02  0.51100000000E-03 0.  1.
        -12    1    3    3    0    0 -0.35524410447E+01  0.39879596289E+01  0.22185667900E+02  0.22819454848E+02  0.00000000000E+00 0.  1.
</event>
<event>
 7    1  0.5411321E-010  0.4778727E+02  0.7816164E-02  0.1312668E+00
        -11   -1    0    0    0    0  0.00000000000E+00  0.00000000000E+00  0.45593999997E+02  0.45594000000E+02  0.51100000000E-03 0. -1.
         11   -1    0    0    0    0 -0.00000000000E+00 -0.00000000000E+00 -0.45593999997E+02  0.45594000000E+02  0.51100000000E-03 0.  1.
    9900012    2    1    2    0    0  0.48527961531E+01  0.14288239820E+02 -0.40692991801E+02  0.47787274091E+02  0.20000013892E+02 0.  0.
         12    1    1    2    0    0 -0.48527961531E+01 -0.14288239820E+02  0.40692991801E+02  0.43400725909E+02  0.00000000000E+00 0. -1.
         11    1    3    3    0    0  0.69584247533E+01 -0.11108172797E+01 -0.15068410527E+02  0.16634620109E+02  0.51100000000E-03 0. -1.
        -11    1    3    3    0    0 -0.29709040329E+01  0.99333743417E+01 -0.22556558155E+02  0.24825319991E+02  0.51100000000E-03 0.  1.
         12    1    3    3    0    0  0.86527543262E+00  0.54656827580E+01 -0.30680231190E+01  0.63273339918E+01  0.00000000000E+00 0. -1.
</event>
<event>
 7    1  0.5411321E-010  0.4778728E+02  0.7816164E-02  0.1312668E+00
        -11   -1    0    0    0    0  0.00000000000E+00  0.00000000000E+00  0.45593999997E+02  0.45594000000E+02  0.51100000000E-03 0.  1.
         11   -1    0    0    0    0 -0.00000000000E+00 -0.00000000000E+00 -0.45593999997E+02  0.45594000000E+02  0.51100000000E-03 0. -1.
    9900012    2    1    2    0    0 -0.82070676215E+01  0.27784728082E+02  0.32315256585E+02  0.47787275563E+02  0.20000020600E+02 0.  0.
         12    1    1    2    0    0  0.82070676215E+01 -0.27784728082E+02 -0.32315256585E+02  0.43400724437E+02  0.00000000000E+00 0. -1.
         11    1    3    3    0    0  0.27317722636E+01  0.23345067893E+01  0.12334185115E+01  0.37991871677E+01  0.51100000000E-03 0. -1.
        -11    1    3    3    0    0 -0.45510811877E+01  0.85805476918E+01  0.21432991816E+02  0.23531070463E+02  0.51100000000E-03 0.  1.
        -12    1    3    3    0    0 -0.63877586975E+01  0.16869673601E+02  0.96488462571E+01  0.20457017932E+02  0.00000000000E+00 0.  1.
</event>
<event>
 7    1  0.5411321E-010  0.4778727E+02  0.7816164E-02  0.1312668E+00
        -11   -1    0    0    0    0  0.00000000000E+00  0.00000000000E+00  0.45593999997E+02  0.45594000000E+02  0.51100000000E-03 0.  1.
         11   -1    0    0    0    0 -0.00000000000E+00 -0.00000000000E+00 -0.45593999997E+02  0.45594000000E+02  0.51100000000E-03 0. -1.
    9900012    2    1    2    0    0  0.40727448064E+01  0.38724115078E+02  0.19169733976E+02  0.47787273744E+02  0.20000012310E+02 0.  0.
         12    1    1    2    0    0 -0.40727448064E+01 -0.38724115078E+02 -0.19169733976E+02  0.43400726256E+02  0.00000000000E+00 0. -1.
         11    1    3    3    0    0  0.48402797162E+01  0.34619560263E+02  0.12163011495E+02  0.37011904969E+02  0.51100000000E-03 0. -1.
        -11    1    3    3    0    0 -0.28242459050E+01 -0.30404411868E-02  0.50420095862E+01  0.57791206169E+01  0.51100000000E-03 0.  1.
         12    1    3    3    0    0  0.20567109952E+01  0.41075952561E+01  0.19647128944E+01  0.49962481587E+01  0.00000000000E+00 0. -1.
</event>
<event>
 7    1  0.5411321E-010  0.4778727E+02  0.7816164E-02  0.1312668E+00
        -11   -1    0    0    0    0  0.00000000000E+00  0.00000000000E+00  0.45593999997E+02  0.45594000000E+02  0.51100000000E-03 0.  1.
         11   -1    0    0    0    0 -0.00000000000E+00 -0.00000000000E+00 -0.45593999997E+02  0.45594000000E+02  0.51100000000E-03 0. -1.
    9900012    2    1    2    0    0  0.50768589607E+01 -0.13086967955E+02  0.41067991678E+02  0.47787272268E+02  0.20000005580E+02 0.  0.
         12    1    1    2    0    0 -0.50768589607E+01  0.13086967955E+02 -0.41067991678E+02  0.43400727732E+02  0.00000000000E+00 0. -1.
         11    1    3    3    0    0  0.83651355920E+01  0.13531862613E+01  0.11899283581E+02  0.14608201687E+02  0.51100000000E-03 0. -1.
        -11    1    3    3    0    0  0.75025083309E+00 -0.84107276665E+01  0.13710810661E+02  0.16102470166E+02  0.51100000000E-03 0.  1.
         12    1    3    3    0    0 -0.40385274643E+01 -0.60294265502E+01  0.15457897436E+02  0.17076600415E+02  0.00000000000E+00 0. -1.
</event>
<event>
 7    1  0.5411321E-010  0.4778727E+02  0.7816164E-02  0.1312668E+00
        -11   -1    0    0    0    0  0.00000000000E+00  0.00000000000E+00  0.45593999997E+02  0.45594000000E+02  0.51100000000E-03 0.  1.
         11   -1    0    0    0    0 -0.00000000000E+00 -0.00000000000E+00 -0.45593999997E+02  0.45594000000E+02  0.51100000000E-03 0. -1.
    9900012    2    1    2    0    0 -0.93505389748E+01  0.41086765253E+02 -0.10395595513E+02  0.47787271157E+02  0.20000000512E+02 0.  0.
         12    1    1    2    0    0  0.93505389748E+01 -0.41086765253E+02  0.10395595513E+02  0.43400728843E+02  0.00000000000E+00 0. -1.
         11    1    3    3    0    0 -0.52142940913E+01  0.92964711086E+00 -0.39572719258E+01  0.66115889147E+01  0.51100000000E-03 0. -1.
        -11    1    3    3    0    0 -0.10511629917E+01  0.29828195047E+02 -0.55597853068E+01  0.30360128068E+02  0.51100000000E-03 0.  1.
        -12    1    3    3    0    0 -0.30850818919E+01  0.10328923095E+02 -0.87853828076E+00  0.10815554174E+02  0.00000000000E+00 0.  1.
</event>
<event>
 7    1  0.5411321E-010  0.4778725E+02  0.7816164E-02  0.1312668E+00
        -11   -1    0    0    0    0  0.00000000000E+00  0.00000000000E+00  0.45593999997E+02  0.45594000000E+02  0.51100000000E-03 0.  1.
         11   -1    0    0    0    0 -0.00000000000E+00 -0.00000000000E+00 -0.45593999997E+02  0.45594000000E+02  0.51100000000E-03 0. -1.
    9900012    2    1    2    0    0  0.94700775810E+01  0.17116167135E+02  0.38742477689E+02  0.47787249727E+02  0.19999902805E+02 0.  0.
         12    1    1    2    0    0 -0.94700775810E+01 -0.17116167135E+02 -0.38742477689E+02  0.43400750273E+02  0.00000000000E+00 0. -1.
         11    1    3    3    0    0 -0.52670724255E+01  0.81545256211E+01  0.18757158062E+02  0.21120353190E+02  0.51100000000E-03 0. -1.
        -11    1    3    3    0    0  0.85522219588E+01  0.73144609043E+01  0.12584537241E+02  0.16882310759E+02  0.51100000000E-03 0.  1.
         12    1    3    3    0    0  0.61849280477E+01  0.16471806094E+01  0.74007823857E+01  0.97845857774E+01  0.00000000000E+00 0. -1.
</event>
<event>
 7    1  0.5411321E-010  0.4778728E+02  0.7816164E-02  0.1312668E+00
        -11   -1    0    0    0    0  0.00000000000E+00  0.00000000000E+00  0.45593999997E+02  0.45594000000E+02  0.51100000000E-03 0.  1.
         11   -1    0    0    0    0 -0.00000000000E+00 -0.00000000000E+00 -0.45593999997E+02  0.45594000000E+02  0.51100000000E-03 0. -1.
    9900012    2    1    2    0    0 -0.24152419402E+02 -0.91646330699E+01  0.34875388316E+02  0.47787279125E+02  0.20000036844E+02 0.  0.
         12    1    1    2    0    0  0.24152419402E+02  0.91646330699E+01 -0.34875388316E+02  0.43400720875E+02  0.00000000000E+00 0. -1.
         11    1    3    3    0    0 -0.22492615033E+02 -0.13264782083E+02  0.25939094876E+02  0.36806369258E+02  0.51100000000E-03 0. -1.
        -11    1    3    3    0    0  0.15865937871E+01  0.17994003124E+01  0.35377007747E+01  0.42743945024E+01  0.51100000000E-03 0.  1.
         12    1    3    3    0    0 -0.32463981558E+01  0.23007487007E+01  0.53985926653E+01  0.67065153646E+01  0.00000000000E+00 0. -1.
</event>
<event>
 7    1  0.5700653E-010  0.4778727E+02  0.7816164E-02  0.1312668E+00
        -11   -1    0    0    0    0  0.00000000000E+00  0.00000000000E+00  0.45593999997E+02  0.45594000000E+02  0.51100000000E-03 0. -1.
         11   -1    0    0    0    0 -0.00000000000E+00 -0.00000000000E+00 -0.45593999997E+02  0.45594000000E+02  0.51100000000E-03 0.  1.
    9900012    2    1    2    0    0 -0.34958809567E+01  0.33567216274E+02 -0.27288173164E+02  0.47787267440E+02  0.19999983567E+02 0.  0.
         12    1    1    2    0    0  0.34958809567E+01 -0.33567216274E+02  0.27288173164E+02  0.43400732560E+02  0.00000000000E+00 0. -1.
         11    1    3    3    0    0  0.52798725823E+01  0.60825850604E+01 -0.50492073915E+01  0.95062816625E+01  0.51100000000E-03 0. -1.
        -11    1    3    3    0    0 -0.84657454494E+01  0.21691756385E+02 -0.11262686414E+02  0.25865986287E+02  0.51100000000E-03 0.  1.
        -12    1    3    3    0    0 -0.31000808965E+00  0.57928748293E+01 -0.10976279359E+02  0.12414999491E+02  0.00000000000E+00 0.  1.
</event>
<event>
 7    1  0.5411321E-010  0.4778727E+02  0.7816164E-02  0.1312668E+00
        -11   -1    0    0    0    0  0.00000000000E+00  0.00000000000E+00  0.45593999997E+02  0.45594000000E+02  0.51100000000E-03 0.  1.
         11   -1    0    0    0    0 -0.00000000000E+00 -0.00000000000E+00 -0.45593999997E+02  0.45594000000E+02  0.51100000000E-03 0. -1.
    9900012    2    1    2    0    0 -0.10738187197E+02  0.15139888509E+02  0.39231341611E+02  0.47787273590E+02  0.20000011607E+02 0.  0.
         12    1    1    2    0    0  0.10738187197E+02 -0.15139888509E+02 -0.39231341611E+02  0.43400726410E+02  0.00000000000E+00 0. -1.
         11    1    3    3    0    0  0.24684393376E+00 -0.69281254387E+00  0.12849091984E+02  0.12870123784E+02  0.51100000000E-03 0. -1.
        -11    1    3    3    0    0 -0.48624190246E+01  0.82915266734E+01  0.38029503800E+01  0.10337067534E+02  0.51100000000E-03 0.  1.
        -12    1    3    3    0    0 -0.61226121057E+01  0.75411743790E+01  0.22579299247E+02  0.24580082272E+02  0.00000000000E+00 0.  1.
</event>
<event>
 7    1  0.5411321E-010  0.4778727E+02  0.7816164E-02  0.1312668E+00
        -11   -1    0    0    0    0  0.00000000000E+00  0.00000000000E+00  0.45593999997E+02  0.45594000000E+02  0.51100000000E-03 0.  1.
         11   -1    0    0    0    0 -0.00000000000E+00 -0.00000000000E+00 -0.45593999997E+02  0.45594000000E+02  0.51100000000E-03 0. -1.
    9900012    2    1    2    0    0 -0.64849315488E+01 -0.81321715688E+01  0.42135929763E+02  0.47787272718E+02  0.20000007631E+02 0.  0.
         12    1    1    2    0    0  0.64849315488E+01  0.81321715688E+01 -0.42135929763E+02  0.43400727282E+02  0.00000000000E+00 0. -1.
         11    1    3    3    0    0 -0.45734436443E+01 -0.89784746418E+01  0.11047843476E+02  0.14952733509E+02  0.51100000000E-03 0. -1.
        -11    1    3    3    0    0  0.22360398938E+01 -0.16503609906E+01  0.24510403193E+02  0.24667456917E+02  0.51100000000E-03 0.  1.
        -12    1    3    3    0    0 -0.41475277982E+01  0.24966640636E+01  0.65776830934E+01  0.81670822918E+01  0.00000000000E+00 0.  1.
</event>
<event>
 7    1  0.5411321E-010  0.4778727E+02  0.7816164E-02  0.1312668E+00
        -11   -1    0    0    0    0  0.00000000000E+00  0.00000000000E+00  0.45593999997E+02  0.45594000000E+02  0.51100000000E-03 0.  1.
         11   -1    0    0    0    0 -0.00000000000E+00 -0.00000000000E+00 -0.45593999997E+02  0.45594000000E+02  0.51100000000E-03 0. -1.
    9900012    2    1    2    0    0  0.13982612837E+02  0.27808195144E+02  0.30245891110E+02  0.47787272956E+02  0.20000008717E+02 0.  0.
         12    1    1    2    0    0 -0.13982612837E+02 -0.27808195144E+02 -0.30245891110E+02  0.43400727044E+02  0.00000000000E+00 0. -1.
         11    1    3    3    0    0  0.26207554690E+01  0.60669249588E+01  0.14631948261E+01  0.67688165173E+01  0.51100000000E-03 0.  1.
        -11    1    3    3    0    0  0.13109768863E+02  0.87053839602E+01  0.12564889525E+02  0.20137681063E+02  0.51100000000E-03 0. -1.
        -12    1    3    3    0    0 -0.17479114956E+01  0.13035886225E+02  0.16217806759E+02  0.20880775377E+02  0.00000000000E+00 0.  1.
</event>
<event>
 7    1  0.5411321E-010  0.4778727E+02  0.7816164E-02  0.1312668E+00
        -11   -1    0    0    0    0  0.00000000000E+00  0.00000000000E+00  0.45593999997E+02  0.45594000000E+02  0.51100000000E-03 0.  1.
         11   -1    0    0    0    0 -0.00000000000E+00 -0.00000000000E+00 -0.45593999997E+02  0.45594000000E+02  0.51100000000E-03 0. -1.
    9900012    2    1    2    0    0 -0.93453098886E+01 -0.21352502219E+02  0.36610914566E+02  0.47787271512E+02  0.20000002130E+02 0.  0.
         12    1    1    2    0    0  0.93453098886E+01  0.21352502219E+02 -0.36610914566E+02  0.43400728488E+02  0.00000000000E+00 0. -1.
         11    1    3    3    0    0 -0.10066832320E+02 -0.99389378006E+01  0.24598073594E+02  0.28375849280E+02  0.51100000000E-03 0. -1.
        -11    1    3    3    0    0 -0.10078682224E+01 -0.76316001858E+01  0.13026559611E+02  0.15131040126E+02  0.51100000000E-03 0.  1.
         12    1    3    3    0    0  0.17293906533E+01 -0.37819642328E+01 -0.10137186387E+01  0.42803821054E+01  0.00000000000E+00 0. -1.
</event>
<event>
 7    1  0.5411321E-010  0.4778727E+02  0.7816164E-02  0.1312668E+00
        -11   -1    0    0    0    0  0.00000000000E+00  0.00000000000E+00  0.45593999997E+02  0.45594000000E+02  0.51100000000E-03 0.  1.
         11   -1    0    0    0    0 -0.00000000000E+00 -0.00000000000E+00 -0.45593999997E+02  0.45594000000E+02  0.51100000000E-03 0. -1.
    9900012    2    1    2    0    0  0.24576056688E+02  0.14877791382E+02  0.32531400728E+02  0.47787271065E+02  0.20000000093E+02 0.  0.
         12    1    1    2    0    0 -0.24576056688E+02 -0.14877791382E+02 -0.32531400728E+02  0.43400728935E+02  0.00000000000E+00 0. -1.
         11    1    3    3    0    0  0.99945146431E+01  0.12500235925E+01  0.37324274679E+01  0.10741689671E+02  0.51100000000E-03 0. -1.
        -11    1    3    3    0    0  0.11322224697E+02  0.79885881975E+01  0.26903038377E+02  0.30261919762E+02  0.51100000000E-03 0.  1.
         12    1    3    3    0    0  0.32593173478E+01  0.56391795922E+01  0.18959348829E+01  0.67836616313E+01  0.00000000000E+00 0. -1.
</event>
<event>
 7    1  0.5411321E-010  0.4778727E+02  0.7816164E-02  0.1312668E+00
        -11   -1    0    0    0    0  0.00000000000E+00  0.00000000000E+00  0.45593999997E+02  0.45594000000E+02  0.51100000000E-03 0.  1.
         11   -1    0    0    0    0 -0.00000000000E+00 -0.00000000000E+00 -0.45593999997E+02  0.45594000000E+02  0.51100000000E-03 0. -1.
    9900012    2    1    2    0    0 -0.96011466735E+01 -0.27321526213E+02  0.32326083948E+02  0.47787268261E+02  0.19999987308E+02 0.  0.
         12    1    1    2    0    0  0.96011466735E+01  0.27321526213E+02 -0.32326083948E+02  0.43400731739E+02  0.00000000000E+00 0. -1.
         11    1    3    3    0    0 -0.14341725106E+02 -0.12769670901E+02  0.20506422499E+02  0.28093823839E+02  0.51100000000E-03 0. -1.
        -11    1    3    3    0    0  0.27751358012E+01 -0.86075527057E+01  0.92177774594E+01  0.12913510903E+02  0.51100000000E-03 0.  1.
         12    1    3    3    0    0  0.19654426313E+01 -0.59443026064E+01  0.26018839896E+01  0.67799335180E+01  0.00000000000E+00 0. -1.
</event>
<event>
 7    1  0.5411321E-010  0.4778727E+02  0.7816164E-02  0.1312668E+00
        -11   -1    0    0    0    0  0.00000000000E+00  0.00000000000E+00  0.45593999997E+02  0.45594000000E+02  0.51100000000E-03 0.  1.
         11   -1    0    0    0    0 -0.00000000000E+00 -0.00000000000E+00 -0.45593999997E+02  0.45594000000E+02  0.51100000000E-03 0. -1.
    9900012    2    1    2    0    0  0.38138326189E+02  0.20692828993E+02  0.94764886835E+00  0.47787272649E+02  0.20000007315E+02 0.  0.
         12    1    1    2    0    0 -0.38138326189E+02 -0.20692828993E+02 -0.94764886835E+00  0.43400727351E+02  0.00000000000E+00 0. -1.
         11    1    3    3    0    0  0.98365670668E+01  0.42283443562E+01  0.62350139578E+01  0.12390009966E+02  0.51100000000E-03 0. -1.
        -11    1    3    3    0    0  0.19351255828E+02  0.16759216032E+02 -0.63600805816E+01  0.26377889404E+02  0.51100000000E-03 0.  1.
         12    1    3    3    0    0  0.89505032940E+01 -0.29473139487E+00  0.10727154922E+01  0.90193732786E+01  0.00000000000E+00 0. -1.
</event>
<event>
 7    1  0.5411321E-010  0.4778728E+02  0.7816164E-02  0.1312668E+00
        -11   -1    0    0    0    0  0.00000000000E+00  0.00000000000E+00  0.45593999997E+02  0.45594000000E+02  0.51100000000E-03 0. -1.
         11   -1    0    0    0    0 -0.00000000000E+00 -0.00000000000E+00 -0.45593999997E+02  0.45594000000E+02  0.51100000000E-03 0.  1.
    9900012    2    1    2    0    0  0.34924330110E+02  0.11152259379E+02 -0.23228025189E+02  0.47787275616E+02  0.20000020843E+02 0.  0.
         12    1    1    2    0    0 -0.34924330110E+02 -0.11152259379E+02  0.23228025189E+02  0.43400724384E+02  0.00000000000E+00 0. -1.
         11    1    3    3    0    0  0.23657592130E+01  0.68365730172E+01 -0.37704090881E+01  0.81579122468E+01  0.51100000000E-03 0. -1.
        -11    1    3    3    0    0  0.25334982104E+02  0.25541930811E+01 -0.94465270452E+01  0.27159199068E+02  0.51100000000E-03 0.  1.
        -12    1    3    3    0    0  0.72235887929E+01  0.17614932806E+01 -0.10011089055E+02  0.12470164301E+02  0.00000000000E+00 0.  1.
</event>
<event>
 7    1  0.5411321E-010  0.4778727E+02  0.7816164E-02  0.1312668E+00
        -11   -1    0    0    0    0  0.00000000000E+00  0.00000000000E+00  0.45593999997E+02  0.45594000000E+02  0.51100000000E-03 0. -1.
         11   -1    0    0    0    0 -0.00000000000E+00 -0.00000000000E+00 -0.45593999997E+02  0.45594000000E+02  0.51100000000E-03 0.  1.
    9900012    2    1    2    0    0 -0.31153811968E+02 -0.51569461601E+01 -0.29773632579E+02  0.47787270849E+02  0.19999999110E+02 0.  0.
         12    1    1    2    0    0  0.31153811968E+02  0.51569461601E+01  0.29773632579E+02  0.43400729151E+02  0.00000000000E+00 0. -1.
         11    1    3    3    0    0 -0.83904508414E+01 -0.54328129142E+01 -0.22673508741E+01  0.10249683006E+02  0.51100000000E-03 0. -1.
        -11    1    3    3    0    0 -0.59528189654E+01  0.33453533777E+01 -0.14616451550E+02  0.16132826753E+02  0.51100000000E-03 0.  1.
        -12    1    3    3    0    0 -0.16810542162E+02 -0.30694866236E+01 -0.12889830155E+02  0.21404761090E+02  0.00000000000E+00 0.  1.
</event>
<event>
 7    1  0.5411321E-010  0.4778727E+02  0.7816164E-02  0.1312668E+00
        -11   -1    0    0    0    0  0.00000000000E+00  0.00000000000E+00  0.45593999997E+02  0.45594000000E+02  0.51100000000E-03 0.  1.
         11   -1    0    0    0    0 -0.00000000000E+00 -0.00000000000E+00 -0.45593999997E+02  0.45594000000E+02  0.51100000000E-03 0. -1.
    9900012    2    1    2    0    0 -0.40224723931E+02  0.59832076485E+01  0.15159029348E+02  0.47787270054E+02  0.19999995485E+02 0.  0.
         12    1    1    2    0    0  0.40224723931E+02 -0.59832076485E+01 -0.15159029348E+02  0.43400729946E+02  0.00000000000E+00 0. -1.
         11    1    3    3    0    0 -0.48402397430E+00 -0.26948894055E+01  0.29255856619E+01  0.40069639182E+01  0.51100000000E-03 0. -1.
        -11    1    3    3    0    0 -0.16756999142E+02  0.89264439203E+01  0.43236956679E+01  0.19472359020E+02  0.51100000000E-03 0.  1.
         12    1    3    3    0    0 -0.22983700814E+02 -0.24834686630E+00  0.79097480185E+01  0.24307947116E+02  0.00000000000E+00 0. -1.
</event>
<event>
 7    1  0.5411321E-010  0.4778729E+02  0.7816164E-02  0.1312668E+00
        -11   -1    0    0    0    0  0.00000000000E+00  0.00000000000E+00  0.45593999997E+02  0.45594000000E+02  0.51100000000E-03 0.  1.
         11   -1    0    0    0    0 -0.00000000000E+00 -0.00000000000E+00 -0.45593999997E+02  0.45594000000E+02  0.51100000000E-03 0. -1.
    9900012    2    1    2    0    0 -0.62444022231E+01  0.23775528733E+02  0.35768044127E+02  0.47787293712E+02  0.20000103348E+02 0.  0.
         12    1    1    2    0    0  0.62444022231E+01 -0.23775528733E+02 -0.35768044127E+02  0.43400706288E+02  0.00000000000E+00 0. -1.
         11    1    3    3    0    0  0.64212407697E+00 -0.90129804097E+00  0.80491006424E+00  0.13684085507E+01  0.51100000000E-03 0. -1.
        -11    1    3    3    0    0  0.32108055653E+01  0.13141324895E+02  0.89375851090E+01  0.16213701620E+02  0.51100000000E-03 0.  1.
        -12    1    3    3    0    0 -0.10097331865E+02  0.11535501879E+02  0.26025548954E+02  0.30205183541E+02  0.00000000000E+00 0.  1.
</event>
<event>
 7    1  0.6814179E-010  0.4778727E+02  0.7816164E-02  0.1312668E+00
        -11   -1    0    0    0    0  0.00000000000E+00  0.00000000000E+00  0.45593999997E+02  0.45594000000E+02  0.51100000000E-03 0. -1.
         11   -1    0    0    0    0 -0.00000000000E+00 -0.00000000000E+00 -0.45593999997E+02  0.45594000000E+02  0.51100000000E-03 0.  1.
    9900012    2    1    2    0    0  0.31090293694E+01  0.31314903076E+02 -0.29888693379E+02  0.47787271778E+02  0.20000003344E+02 0.  0.
         12    1    1    2    0    0 -0.31090293694E+01 -0.31314903076E+02  0.29888693379E+02  0.43400728222E+02  0.00000000000E+00 0. -1.
         11    1    3    3    0    0  0.30812890617E+01 -0.69246851967E+00 -0.13829135899E+01  0.34476521273E+01  0.51100000000E-03 0. -1.
        -11    1    3    3    0    0  0.59354411453E+00  0.22756119056E+02 -0.12834695938E+02  0.26132789158E+02  0.51100000000E-03 0.  1.
        -12    1    3    3    0    0 -0.56580380682E+00  0.92512525399E+01 -0.15671083851E+02  0.18206830492E+02  0.00000000000E+00 0.  1.
</event>
<event>
 7    1  0.5411321E-010  0.4778727E+02  0.7816164E-02  0.1312668E+00
        -11   -1    0    0    0    0  0.00000000000E+00  0.00000000000E+00  0.45593999997E+02  0.45594000000E+02  0.51100000000E-03 0.  1.
         11   -1    0    0    0    0 -0.00000000000E+00 -0.00000000000E+00 -0.45593999997E+02  0.45594000000E+02  0.51100000000E-03 0. -1.
    9900012    2    1    2    0    0  0.31049308503E+02 -0.16325294135E+02  0.25554821065E+02  0.47787266518E+02  0.19999979362E+02 0.  0.
         12    1    1    2    0    0 -0.31049308503E+02  0.16325294135E+02 -0.25554821065E+02  0.43400733482E+02  0.00000000000E+00 0. -1.
         11    1    3    3    0    0  0.20964505166E+02 -0.10021416973E+02  0.21123783562E+02  0.31403081174E+02  0.51100000000E-03 0. -1.
        -11    1    3    3    0    0  0.11723762006E+02 -0.53116371861E+01  0.16059478833E+01  0.12970703683E+02  0.51100000000E-03 0.  1.
         12    1    3    3    0    0 -0.16389586690E+01 -0.99223997637E+00  0.28250896194E+01  0.34134816606E+01  0.00000000000E+00 0. -1.
</event>
<event>
 7    1  0.5411321E-010  0.4778727E+02  0.7816164E-02  0.1312668E+00
        -11   -1    0    0    0    0  0.00000000000E+00  0.00000000000E+00  0.45593999997E+02  0.45594000000E+02  0.51100000000E-03 0. -1.
         11   -1    0    0    0    0 -0.00000000000E+00 -0.00000000000E+00 -0.45593999997E+02  0.45594000000E+02  0.51100000000E-03 0.  1.
    9900012    2    1    2    0    0  0.19774910392E+02  0.79025106701E+01 -0.37817016279E+02  0.47787268714E+02  0.19999989376E+02 0.  0.
         12    1    1    2    0    0 -0.19774910392E+02 -0.79025106701E+01  0.37817016279E+02  0.43400731286E+02  0.00000000000E+00 0. -1.
         11    1    3    3    0    0  0.11267190297E+02  0.38553956764E+01 -0.30090374131E+02  0.32361153698E+02  0.51100000000E-03 0. -1.
        -11    1    3    3    0    0 -0.12401695713E+01 -0.69589482386E-01  0.10902501273E+01  0.16527277037E+01  0.51100000000E-03 0.  1.
        -12    1    3    3    0    0  0.97478896661E+01  0.41167044761E+01 -0.88168922749E+01  0.13773387313E+02  0.00000000000E+00 0.  1.
</event>
<event>
 7    1  0.5411321E-010  0.4778728E+02  0.7816164E-02  0.1312668E+00
        -11   -1    0    0    0    0  0.00000000000E+00  0.00000000000E+00  0.45593999997E+02  0.45594000000E+02  0.51100000000E-03 0. -1.
         11   -1    0    0    0    0 -0.00000000000E+00 -0.00000000000E+00 -0.45593999997E+02  0.45594000000E+02  0.51100000000E-03 0.  1.
    9900012    2    1    2    0    0  0.19978321534E+02  0.38365464032E+02 -0.35468334947E+01  0.47787283536E+02  0.20000056954E+02 0.  0.
         12    1    1    2    0    0 -0.19978321534E+02 -0.38365464032E+02  0.35468334947E+01  0.43400716464E+02  0.00000000000E+00 0. -1.
         11    1    3    3    0    0  0.15608517751E+02  0.14616001212E+02  0.20134454921E+01  0.21478065109E+02  0.51100000000E-03 0. -1.
        -11    1    3    3    0    0  0.62490262127E+01  0.10047606365E+02 -0.17273092535E+01  0.11957772359E+02  0.51100000000E-03 0.  1.
         12    1    3    3    0    0 -0.18792224295E+01  0.13701856456E+02 -0.38329697333E+01  0.14351446068E+02  0.00000000000E+00 0. -1.
</event>
<event>
 7    1  0.5411321E-010  0.4778727E+02  0.7816164E-02  0.1312668E+00
        -11   -1    0    0    0    0  0.00000000000E+00  0.00000000000E+00  0.45593999997E+02  0.45594000000E+02  0.51100000000E-03 0.  1.
         11   -1    0    0    0    0 -0.00000000000E+00 -0.00000000000E+00 -0.45593999997E+02  0.45594000000E+02  0.51100000000E-03 0. -1.
    9900012    2    1    2    0    0  0.87674364162E+01  0.36520228982E+02  0.21749212438E+02  0.47787270653E+02  0.19999998215E+02 0.  0.
         12    1    1    2    0    0 -0.87674364162E+01 -0.36520228982E+02 -0.21749212438E+02  0.43400729347E+02  0.00000000000E+00 0. -1.
         11    1    3    3    0    0  0.47966622192E+00  0.25955484572E+02  0.83565996931E+01  0.27271780612E+02  0.51100000000E-03 0.  1.
        -11    1    3    3    0    0  0.85703128971E+01  0.75612099176E+01  0.13246043183E+02  0.17495137005E+02  0.51100000000E-03 0. -1.
         12    1    3    3    0    0 -0.28254270286E+00  0.30035344916E+01  0.14656956208E+00  0.30203530353E+01  0.00000000000E+00 0. -1.
</event>
<event>
 7    1  0.5411321E-010  0.4778728E+02  0.7816164E-02  0.1312668E+00
        -11   -1    0    0    0    0  0.00000000000E+00  0.00000000000E+00  0.45593999997E+02  0.45594000000E+02  0.51100000000E-03 0.  1.
         11   -1    0    0    0    0 -0.00000000000E+00 -0.00000000000E+00 -0.45593999997E+02  0.45594000000E+02  0.51100000000E-03 0. -1.
    9900012    2    1    2    0    0  0.31253718037E+02 -0.26168378442E+02 -0.14901126741E+02  0.47787279965E+02  0.20000040672E+02 0.  0.
         12    1    1    2    0    0 -0.31253718037E+02  0.26168378442E+02  0.14901126741E+02  0.43400720035E+02  0.00000000000E+00 0. -1.
         11    1    3    3    0    0 -0.64042195951E+00 -0.54431452854E+01 -0.13290606559E+01  0.56395366275E+01  0.51100000000E-03 0. -1.
        -11    1    3    3    0    0  0.17844948044E+02 -0.44383601170E+01 -0.59214531014E+01  0.19318509734E+02  0.51100000000E-03 0.  1.
        -12    1    3    3    0    0  0.14049191952E+02 -0.16286873039E+02 -0.76506129832E+01  0.22829233604E+02  0.00000000000E+00 0.  1.
</event>
<event>
 7    1  0.5411321E-010  0.4778727E+02  0.7816164E-02  0.1312668E+00
        -11   -1    0    0    0    0  0.00000000000E+00  0.00000000000E+00  0.45593999997E+02  0.45594000000E+02  0.51100000000E-03 0.  1.
         11   -1    0    0    0    0 -0.00000000000E+00 -0.00000000000E+00 -0.45593999997E+02  0.45594000000E+02  0.51100000000E-03 0. -1.
    9900012    2    1    2    0    0 -0.10647585845E+02  0.31824574362E+02  0.27521783961E+02  0.47787271780E+02  0.20000003353E+02 0.  0.
         12    1    1    2    0    0  0.10647585845E+02 -0.31824574362E+02 -0.27521783961E+02  0.43400728220E+02  0.00000000000E+00 0. -1.
         11    1    3    3    0    0 -0.20282156995E-01  0.20402776128E+00 -0.78448978415E+00  0.81084102994E+00  0.51100000000E-03 0. -1.
        -11    1    3    3    0    0 -0.12366286052E+02  0.20064659770E+02  0.10794854476E+02  0.25923820818E+02  0.51100000000E-03 0.  1.
        -12    1    3    3    0    0  0.17389823642E+01  0.11555886830E+02  0.17511419269E+02  0.21052609932E+02  0.00000000000E+00 0.  1.
</event>
<event>
 7    1  0.5411321E-010  0.4778727E+02  0.7816164E-02  0.1312668E+00
        -11   -1    0    0    0    0  0.00000000000E+00  0.00000000000E+00  0.45593999997E+02  0.45594000000E+02  0.51100000000E-03 0. -1.
         11   -1    0    0    0    0 -0.00000000000E+00 -0.00000000000E+00 -0.45593999997E+02  0.45594000000E+02  0.51100000000E-03 0.  1.
    9900012    2    1    2    0    0 -0.20045349764E+02  0.28933071010E+02 -0.25390642199E+02  0.47787270093E+02  0.19999995660E+02 0.  0.
         12    1    1    2    0    0  0.20045349764E+02 -0.28933071010E+02  0.25390642199E+02  0.43400729907E+02  0.00000000000E+00 0. -1.
         11    1    3    3    0    0  0.76013257638E+00  0.16845308144E+01 -0.12683165393E+01  0.22414443342E+01  0.51100000000E-03 0. -1.
        -11    1    3    3    0    0 -0.14911447084E+02  0.25470568214E+02 -0.25760422234E+02  0.39175253072E+02  0.51100000000E-03 0.  1.
        -12    1    3    3    0    0 -0.58940352562E+01  0.17779719820E+01  0.16380965746E+01  0.63705726868E+01  0.00000000000E+00 0.  1.
</event>
<event>
 7    1  0.5411321E-010  0.4778727E+02  0.7816164E-02  0.1312668E+00
        -11   -1    0    0    0    0  0.00000000000E+00  0.00000000000E+00  0.45593999997E+02  0.45594000000E+02  0.51100000000E-03 0. -1.
         11   -1    0    0    0    0 -0.00000000000E+00 -0.00000000000E+00 -0.45593999997E+02  0.45594000000E+02  0.51100000000E-03 0.  1.
    9900012    2    1    2    0    0 -0.36550488246E+02 -0.23054656118E+02  0.40209268938E+01  0.47787271747E+02  0.20000003204E+02 0.  0.
         12    1    1    2    0    0  0.36550488246E+02  0.23054656118E+02 -0.40209268938E+01  0.43400728253E+02  0.00000000000E+00 0. -1.
         11    1    3    3    0    0  0.10056199808E+01 -0.54399557205E+01  0.13515271830E+01  0.56948235946E+01  0.51100000000E-03 0. -1.
        -11    1    3    3    0    0 -0.28531513273E+02 -0.15065190857E+02  0.43778220009E+01  0.32560291015E+02  0.51100000000E-03 0.  1.
         12    1    3    3    0    0 -0.90245949541E+01 -0.25495095405E+01 -0.17084222900E+01  0.95321571380E+01  0.00000000000E+00 0. -1.
</event>
<event>
 7    1  0.5411321E-010  0.4778727E+02  0.7816164E-02  0.1312668E+00
        -11   -1    0    0    0    0  0.00000000000E+00  0.00000000000E+00  0.45593999997E+02  0.45594000000E+02  0.51100000000E-03 0. -1.
         11   -1    0    0    0    0 -0.00000000000E+00 -0.00000000000E+00 -0.45593999997E+02  0.45594000000E+02  0.51100000000E-03 0.  1.
    9900012    2    1    2    0    0 -0.33462454710E+02 -0.20126542285E+02 -0.18942272756E+02  0.47787271012E+02  0.19999999851E+02 0.  0.
         12    1    1    2    0    0  0.33462454710E+02  0.20126542285E+02  0.18942272756E+02  0.43400728988E+02  0.00000000000E+00 0. -1.
         11    1    3    3    0    0 -0.27286874390E+01  0.26364560155E+01  0.17990950941E+01  0.41992116975E+01  0.51100000000E-03 0. -1.
        -11    1    3    3    0    0 -0.22965554935E+02 -0.15608831675E+02 -0.14617220695E+02  0.31380176558E+02  0.51100000000E-03 0.  1.
         12    1    3    3    0    0 -0.77682123360E+01 -0.71541666261E+01 -0.61241471550E+01  0.12207882756E+02  0.00000000000E+00 0. -1.
</event>
<event>
 7    1  0.5411321E-010  0.4778728E+02  0.7816164E-02  0.1312668E+00
        -11   -1    0    0    0    0  0.00000000000E+00  0.00000000000E+00  0.45593999997E+02  0.45594000000E+02  0.51100000000E-03 0.  1.
         11   -1    0    0    0    0 -0.00000000000E+00 -0.00000000000E+00 -0.45593999997E+02  0.45594000000E+02  0.51100000000E-03 0. -1.
    9900012    2    1    2    0    0 -0.18262285359E+02  0.38209443905E+02  0.94947271350E+01  0.47787279805E+02  0.20000039942E+02 0.  0.
         12    1    1    2    0    0  0.18262285359E+02 -0.38209443905E+02 -0.94947271350E+01  0.43400720195E+02  0.00000000000E+00 0. -1.
         11    1    3    3    0    0 -0.31730180885E+01  0.22284830580E+02  0.45471134526E+01  0.22964275708E+02  0.51100000000E-03 0. -1.
        -11    1    3    3    0    0 -0.14112430805E+02  0.13371396658E+02  0.77308498461E+01  0.20921782701E+02  0.51100000000E-03 0.  1.
         12    1    3    3    0    0 -0.97683646578E+00  0.25532166674E+01 -0.27832361637E+01  0.39012213952E+01  0.00000000000E+00 0. -1.
</event>
<event>
 7    1  0.5411321E-010  0.4778727E+02  0.7816164E-02  0.1312668E+00
        -11   -1    0    0    0    0  0.00000000000E+00  0.00000000000E+00  0.45593999997E+02  0.45594000000E+02  0.51100000000E-03 0.  1.
         11   -1    0    0    0    0 -0.00000000000E+00 -0.00000000000E+00 -0.45593999997E+02  0.45594000000E+02  0.51100000000E-03 0. -1.
    9900012    2    1    2    0    0 -0.11088103063E+02  0.51503727568E+00  0.41957262124E+02  0.47787272611E+02  0.20000007142E+02 0.  0.
         12    1    1    2    0    0  0.11088103063E+02 -0.51503727568E+00 -0.41957262124E+02  0.43400727389E+02  0.00000000000E+00 0. -1.
         11    1    3    3    0    0  0.27241219372E+01  0.18414561331E+01  0.19044940051E+02  0.19326705431E+02  0.51100000000E-03 0. -1.
        -11    1    3    3    0    0 -0.13718319209E+02 -0.37190943998E+01  0.21171530598E+02  0.25500150062E+02  0.51100000000E-03 0.  1.
         12    1    3    3    0    0 -0.93905791507E-01  0.23926755423E+01  0.17407914755E+01  0.29604171175E+01  0.00000000000E+00 0. -1.
</event>
<event>
 7    1  0.5411321E-010  0.4778727E+02  0.7816164E-02  0.1312668E+00
        -11   -1    0    0    0    0  0.00000000000E+00  0.00000000000E+00  0.45593999997E+02  0.45594000000E+02  0.51100000000E-03 0.  1.
         11   -1    0    0    0    0 -0.00000000000E+00 -0.00000000000E+00 -0.45593999997E+02  0.45594000000E+02  0.51100000000E-03 0. -1.
    9900012    2    1    2    0    0  0.11258863295E+02 -0.31529231242E+00  0.41913740741E+02  0.47787273338E+02  0.20000010456E+02 0.  0.
         12    1    1    2    0    0 -0.11258863295E+02  0.31529231242E+00 -0.41913740741E+02  0.43400726662E+02  0.00000000000E+00 0. -1.
         11    1    3    3    0    0 -0.45486794153E+01  0.79350806445E+00  0.41702690569E+01  0.62218392570E+01  0.51100000000E-03 0. -1.
        -11    1    3    3    0    0  0.56458370943E+01 -0.32034540745E+01  0.19815648585E+02  0.20851799050E+02  0.51100000000E-03 0.  1.
         12    1    3    3    0    0  0.10161705616E+02  0.20946536976E+01  0.17927823099E+02  0.20713635031E+02  0.00000000000E+00 0. -1.
</event>
<event>
 7    1  0.5411321E-010  0.4778727E+02  0.7816164E-02  0.1312668E+00
        -11   -1    0    0    0    0  0.00000000000E+00  0.00000000000E+00  0.45593999997E+02  0.45594000000E+02  0.51100000000E-03 0. -1.
         11   -1    0    0    0    0 -0.00000000000E+00 -0.00000000000E+00 -0.45593999997E+02  0.45594000000E+02  0.51100000000E-03 0.  1.
    9900012    2    1    2    0    0 -0.35890438983E+02  0.19277329910E+02  0.14962759096E+02  0.47787271681E+02  0.20000002903E+02 0.  0.
         12    1    1    2    0    0  0.35890438983E+02 -0.19277329910E+02 -0.14962759096E+02  0.43400728319E+02  0.00000000000E+00 0. -1.
         11    1    3    3    0    0  0.46367909597E+00 -0.62465597726E+00 -0.22240163413E+01  0.23561498979E+01  0.51100000000E-03 0. -1.
        -11    1    3    3    0    0 -0.34388959991E+02  0.19103564896E+02  0.14318365822E+02  0.41863616197E+02  0.51100000000E-03 0.  1.
        -12    1    3    3    0    0 -0.19651580873E+01  0.79842099177E+00  0.28684096150E+01  0.35675055862E+01  0.00000000000E+00 0.  1.
</event>
<event>
 7    1  0.5411321E-010  0.4778727E+02  0.7816164E-02  0.1312668E+00
        -11   -1    0    0    0    0  0.00000000000E+00  0.00000000000E+00  0.45593999997E+02  0.45594000000E+02  0.51100000000E-03 0.  1.
         11   -1    0    0    0    0 -0.00000000000E+00 -0.00000000000E+00 -0.45593999997E+02  0.45594000000E+02  0.51100000000E-03 0. -1.
    9900012    2    1    2    0    0 -0.12322325955E+02 -0.13988215699E+02  0.39193285775E+02  0.47787267918E+02  0.19999985747E+02 0.  0.
         12    1    1    2    0    0  0.12322325955E+02  0.13988215699E+02 -0.39193285775E+02  0.43400732082E+02  0.00000000000E+00 0. -1.
         11    1    3    3    0    0 -0.14002563630E+02 -0.97264955810E+01  0.17488468709E+02  0.24423821211E+02  0.51100000000E-03 0. -1.
        -11    1    3    3    0    0  0.34173070878E+01 -0.43924210411E+01  0.93078970615E+01  0.10844735972E+02  0.51100000000E-03 0.  1.
         12    1    3    3    0    0 -0.17370694131E+01  0.13070092349E+00  0.12396920005E+02  0.12518710736E+02  0.00000000000E+00 0. -1.
</event>
<event>
 7    1  0.5411321E-010  0.4778727E+02  0.7816164E-02  0.1312668E+00
        -11   -1    0    0    0    0  0.00000000000E+00  0.00000000000E+00  0.45593999997E+02  0.45594000000E+02  0.51100000000E-03 0.  1.
         11   -1    0    0    0    0 -0.00000000000E+00 -0.00000000000E+00 -0.45593999997E+02  0.45594000000E+02  0.51100000000E-03 0. -1.
    9900012    2    1    2    0    0  0.18504906876E+02 -0.31392134587E+02 -0.23573829566E+02  0.47787272669E+02  0.20000007409E+02 0.  0.
         12    1    1    2    0    0 -0.18504906876E+02  0.31392134587E+02  0.23573829566E+02  0.43400727331E+02  0.00000000000E+00 0. -1.
         11    1    3    3    0    0  0.17578052424E+01 -0.14608850475E+01 -0.50242676227E+01  0.55197218950E+01  0.51100000000E-03 0. -1.
        -11    1    3    3    0    0 -0.16058969687E+01  0.74934363081E+00 -0.25364884017E+01  0.30942195500E+01  0.51100000000E-03 0.  1.
        -12    1    3    3    0    0  0.18352998602E+02 -0.30680593170E+02 -0.16013073542E+02  0.39173331224E+02  0.00000000000E+00 0.  1.
</event>
<event>
 7    1  0.5411321E-010  0.4778727E+02  0.7816164E-02  0.1312668E+00
        -11   -1    0    0    0    0  0.00000000000E+00  0.00000000000E+00  0.45593999997E+02  0.45594000000E+02  0.51100000000E-03 0. -1.
         11   -1    0    0    0    0 -0.00000000000E+00 -0.00000000000E+00 -0.45593999997E+02  0.45594000000E+02  0.51100000000E-03 0.  1.
    9900012    2    1    2    0    0  0.18689314720E+02  0.16141145158E+02 -0.35690280609E+02  0.47787272107E+02  0.20000004844E+02 0.  0.
         12    1    1    2    0    0 -0.18689314720E+02 -0.16141145158E+02  0.35690280609E+02  0.43400727893E+02  0.00000000000E+00 0. -1.
         11    1    3    3    0    0  0.43428580811E+00  0.10608464499E+02 -0.11627236107E+02  0.15745499132E+02  0.51100000000E-03 0. -1.
        -11    1    3    3    0    0  0.91986731555E+00 -0.34127024590E+00 -0.68374642048E+01  0.69074986986E+01  0.51100000000E-03 0.  1.
         12    1    3    3    0    0  0.17335161596E+02  0.58739509057E+01 -0.17225580297E+02  0.25134274276E+02  0.00000000000E+00 0. -1.
</event>
<event>
 7    1  0.5411321E-010  0.4778727E+02  0.7816164E-02  0.1312668E+00
        -11   -1    0    0    0    0  0.00000000000E+00  0.00000000000E+00  0.45593999997E+02  0.45594000000E+02  0.51100000000E-03 0.  1.
         11   -1    0    0    0    0 -0.00000000000E+00 -0.00000000000E+00 -0.45593999997E+02  0.45594000000E+02  0.51100000000E-03 0. -1.
    9900012    2    1    2    0    0 -0.25071360634E+02 -0.24195640698E+02  0.25877043268E+02  0.47787268196E+02  0.19999987011E+02 0.  0.
         12    1    1    2    0    0  0.25071360634E+02  0.24195640698E+02 -0.25877043268E+02  0.43400731804E+02  0.00000000000E+00 0. -1.
         11    1    3    3    0    0 -0.22051962644E+02 -0.19181444431E+02  0.19101628469E+02  0.34915456138E+02  0.51100000000E-03 0.  1.
        -11    1    3    3    0    0  0.95414395522E+00 -0.64724248333E+01  0.29895467620E+01  0.71930566530E+01  0.51100000000E-03 0. -1.
         12    1    3    3    0    0 -0.39735419454E+01  0.14582285664E+01  0.37858680374E+01  0.56787554042E+01  0.00000000000E+00 0. -1.
</event>
<event>
 7    1  0.5411321E-010  0.4778729E+02  0.7816164E-02  0.1312668E+00
        -11   -1    0    0    0    0  0.00000000000E+00  0.00000000000E+00  0.45593999997E+02  0.45594000000E+02  0.51100000000E-03 0. -1.
         11   -1    0    0    0    0 -0.00000000000E+00 -0.00000000000E+00 -0.45593999997E+02  0.45594000000E+02  0.51100000000E-03 0.  1.
    9900012    2    1    2    0    0 -0.26130561444E+02  0.33064541017E+02 -0.10370716429E+02  0.47787287179E+02  0.20000073566E+02 0.  0.
         12    1    1    2    0    0  0.26130561444E+02 -0.33064541017E+02  0.10370716429E+02  0.43400712821E+02  0.00000000000E+00 0. -1.
         11    1    3    3    0    0  0.14971391565E+01  0.71072849544E+01 -0.13700493644E+00  0.72645506186E+01  0.51100000000E-03 0. -1.
        -11    1    3    3    0    0 -0.19161475998E+02  0.23572446239E+02 -0.72107893368E+01  0.31222073397E+02  0.51100000000E-03 0.  1.
         12    1    3    3    0    0 -0.84662246026E+01  0.23848098240E+01 -0.30229221559E+01  0.93006631634E+01  0.00000000000E+00 0. -1.
</event>
<event>
 7    1  0.5411321E-010  0.4778727E+02  0.7816164E-02  0.1312668E+00
        -11   -1    0    0    0    0  0.00000000000E+00  0.00000000000E+00  0.45593999997E+02  0.45594000000E+02  0.51100000000E-03 0.  1.
         11   -1    0    0    0    0 -0.00000000000E+00 -0.00000000000E+00 -0.45593999997E+02  0.45594000000E+02  0.51100000000E-03 0. -1.
    9900012    2    1    2    0    0 -0.38098093684E+02 -0.86918541766E+01  0.18884124870E+02  0.47787271394E+02  0.20000001595E+02 0.  0.
         12    1    1    2    0    0  0.38098093684E+02  0.86918541766E+01 -0.18884124870E+02  0.43400728606E+02  0.00000000000E+00 0. -1.
         11    1    3    3    0    0 -0.71567004524E+01 -0.13001651961E+01  0.13313598256E+02  0.15171047745E+02  0.51100000000E-03 0. -1.
        -11    1    3    3    0    0 -0.24425291269E+02 -0.70236181075E+01  0.58652508299E+01  0.26083083262E+02  0.51100000000E-03 0.  1.
        -12    1    3    3    0    0 -0.65161019628E+01 -0.36807087299E+00 -0.29472421579E+00  0.65331403874E+01  0.00000000000E+00 0.  1.
</event>
<event>
 7    1  0.5411321E-010  0.4778727E+02  0.7816164E-02  0.1312668E+00
        -11   -1    0    0    0    0  0.00000000000E+00  0.00000000000E+00  0.45593999997E+02  0.45594000000E+02  0.51100000000E-03 0.  1.
         11   -1    0    0    0    0 -0.00000000000E+00 -0.00000000000E+00 -0.45593999997E+02  0.45594000000E+02  0.51100000000E-03 0. -1.
    9900012    2    1    2    0    0  0.40848956481E+02 -0.11864720229E+02  0.86147678467E+01  0.47787273546E+02  0.20000011405E+02 0.  0.
         12    1    1    2    0    0 -0.40848956481E+02  0.11864720229E+02 -0.86147678467E+01  0.43400726454E+02  0.00000000000E+00 0. -1.
         11    1    3    3    0    0  0.53301454512E+01  0.85269837734E+00 -0.66881794134E+00  0.54391968850E+01  0.51100000000E-03 0. -1.
        -11    1    3    3    0    0  0.30399125686E+01 -0.28220613233E+01 -0.41190406285E+01  0.58456474832E+01  0.51100000000E-03 0.  1.
        -12    1    3    3    0    0  0.32478898461E+02 -0.98953572831E+01  0.13402626417E+02  0.36502429178E+02  0.00000000000E+00 0.  1.
</event>
<event>
 7    1  0.5411321E-010  0.4778727E+02  0.7816164E-02  0.1312668E+00
        -11   -1    0    0    0    0  0.00000000000E+00  0.00000000000E+00  0.45593999997E+02  0.45594000000E+02  0.51100000000E-03 0. -1.
         11   -1    0    0    0    0 -0.00000000000E+00 -0.00000000000E+00 -0.45593999997E+02  0.45594000000E+02  0.51100000000E-03 0.  1.
    9900012    2    1    2    0    0 -0.68795470451E+00  0.39849897269E+02  0.17179522700E+02  0.47787267353E+02  0.19999983171E+02 0.  0.
         12    1    1    2    0    0  0.68795470451E+00 -0.39849897269E+02 -0.17179522700E+02  0.43400732647E+02  0.00000000000E+00 0. -1.
         11    1    3    3    0    0 -0.19902080750E+01  0.19370119219E+01 -0.32012722636E+01  0.42380523515E+01  0.51100000000E-03 0. -1.
        -11    1    3    3    0    0  0.14086574395E+01  0.33134408036E+02  0.20059073880E+02  0.38758737813E+02  0.51100000000E-03 0.  1.
        -12    1    3    3    0    0 -0.10640406900E+00  0.47784773114E+01  0.32172108383E+00  0.47904771889E+01  0.00000000000E+00 0.  1.
</event>
<event>
 7    1  0.5411321E-010  0.4778727E+02  0.7816164E-02  0.1312668E+00
        -11   -1    0    0    0    0  0.00000000000E+00  0.00000000000E+00  0.45593999997E+02  0.45594000000E+02  0.51100000000E-03 0. -1.
         11   -1    0    0    0    0 -0.00000000000E+00 -0.00000000000E+00 -0.45593999997E+02  0.45594000000E+02  0.51100000000E-03 0.  1.
    9900012    2    1    2    0    0 -0.90281413225E+01  0.18099243169E+02 -0.38399652277E+02  0.47787271503E+02  0.20000002093E+02 0.  0.
         12    1    1    2    0    0  0.90281413225E+01 -0.18099243169E+02  0.38399652277E+02  0.43400728497E+02  0.00000000000E+00 0. -1.
         11    1    3    3    0    0  0.22999568375E+01  0.63897553209E+01 -0.74784447077E+01  0.10101777567E+02  0.51100000000E-03 0. -1.
        -11    1    3    3    0    0 -0.67343084624E+01 -0.19599201850E+01 -0.84016649124E+01  0.10944412783E+02  0.51100000000E-03 0.  1.
        -12    1    3    3    0    0 -0.45937896975E+01  0.13669408033E+02 -0.22519542657E+02  0.26741081153E+02  0.00000000000E+00 0.  1.
</event>
<event>
 7    1  0.5411321E-010  0.4778726E+02  0.7816164E-02  0.1312668E+00
        -11   -1    0    0    0    0  0.00000000000E+00  0.00000000000E+00  0.45593999997E+02  0.45594000000E+02  0.51100000000E-03 0.  1.
         11   -1    0    0    0    0 -0.00000000000E+00 -0.00000000000E+00 -0.45593999997E+02  0.45594000000E+02  0.51100000000E-03 0. -1.
    9900012    2    1    2    0    0 -0.21514182388E+02 -0.21884291501E+02  0.30689446433E+02  0.47787258293E+02  0.19999941861E+02 0.  0.
         12    1    1    2    0    0  0.21514182388E+02  0.21884291501E+02 -0.30689446433E+02  0.43400741707E+02  0.00000000000E+00 0. -1.
         11    1    3    3    0    0 -0.13902301249E+02 -0.14193422706E+02  0.24346660521E+02  0.31424307580E+02  0.51100000000E-03 0. -1.
        -11    1    3    3    0    0 -0.75714401785E+01 -0.46452404339E+01 -0.47517773420E+00  0.88955471561E+01  0.51100000000E-03 0.  1.
        -12    1    3    3    0    0 -0.40440960510E-01 -0.30456283614E+01  0.68179636469E+01  0.74674035566E+01  0.00000000000E+00 0.  1.
</event>
<event>
 7    1  0.5411321E-010  0.4778727E+02  0.7816164E-02  0.1312668E+00
        -11   -1    0    0    0    0  0.00000000000E+00  0.00000000000E+00  0.45593999997E+02  0.45594000000E+02  0.51100000000E-03 0. -1.
         11   -1    0    0    0    0 -0.00000000000E+00 -0.00000000000E+00 -0.45593999997E+02  0.45594000000E+02  0.51100000000E-03 0.  1.
    9900012    2    1    2    0    0  0.15063692215E+02  0.26487444403E+02 -0.30905076464E+02  0.47787270911E+02  0.19999999392E+02 0.  0.
         12    1    1    2    0    0 -0.15063692215E+02 -0.26487444403E+02  0.30905076464E+02  0.43400729089E+02  0.00000000000E+00 0. -1.
         11    1    3    3    0    0  0.61454694498E+01  0.11373431009E+02 -0.25370737553E+01  0.13174159221E+02  0.51100000000E-03 0. -1.
        -11    1    3    3    0    0  0.71604015109E+01  0.15653237873E+02 -0.27783808564E+02  0.32683867952E+02  0.51100000000E-03 0.  1.
        -12    1    3    3    0    0  0.17578212547E+01 -0.53922447857E+00 -0.58419414450E+00  0.19292437379E+01  0.00000000000E+00 0.  1.
</event>
<event>
 7    1  0.5411321E-010  0.4778726E+02  0.7816164E-02  0.1312668E+00
        -11   -1    0    0    0    0  0.00000000000E+00  0.00000000000E+00  0.45593999997E+02  0.45594000000E+02  0.51100000000E-03 0. -1.
         11   -1    0    0    0    0 -0.00000000000E+00 -0.00000000000E+00 -0.45593999997E+02  0.45594000000E+02  0.51100000000E-03 0.  1.
    9900012    2    1    2    0    0 -0.30580670918E+02  0.25327082494E+02 -0.17521000859E+02  0.47787262534E+02  0.19999961199E+02 0.  0.
         12    1    1    2    0    0  0.30580670918E+02 -0.25327082494E+02  0.17521000859E+02  0.43400737466E+02  0.00000000000E+00 0. -1.
         11    1    3    3    0    0  0.70238651676E+00  0.66727853376E+01 -0.55273211556E+01  0.86931404222E+01  0.51100000000E-03 0. -1.
        -11    1    3    3    0    0 -0.91532173698E+01  0.77253744824E+01 -0.83268376996E+00  0.12006504972E+02  0.51100000000E-03 0.  1.
         12    1    3    3    0    0 -0.22129840065E+02  0.10928922674E+02 -0.11160995934E+02  0.27087617141E+02  0.00000000000E+00 0. -1.
</event>
<event>
 7    1  0.5411321E-010  0.4778727E+02  0.7816164E-02  0.1312668E+00
        -11   -1    0    0    0    0  0.00000000000E+00  0.00000000000E+00  0.45593999997E+02  0.45594000000E+02  0.51100000000E-03 0. -1.
         11   -1    0    0    0    0 -0.00000000000E+00 -0.00000000000E+00 -0.45593999997E+02  0.45594000000E+02  0.51100000000E-03 0.  1.
    9900012    2    1    2    0    0 -0.27192662985E+02  0.50856645957E+01 -0.33441263899E+02  0.47787273788E+02  0.20000012507E+02 0.  0.
         12    1    1    2    0    0  0.27192662985E+02 -0.50856645957E+01  0.33441263899E+02  0.43400726212E+02  0.00000000000E+00 0. -1.
         11    1    3    3    0    0 -0.18016870006E+02 -0.37917665051E+01 -0.19971134217E+02  0.27163050274E+02  0.51100000000E-03 0. -1.
        -11    1    3    3    0    0 -0.10328602131E+01  0.71149591098E+01 -0.51027900208E+01  0.88163433243E+01  0.51100000000E-03 0.  1.
         12    1    3    3    0    0 -0.81429327662E+01  0.17624719911E+01 -0.83673396610E+01  0.11807880189E+02  0.00000000000E+00 0. -1.
</event>
<event>
 7    1  0.5411321E-010  0.4778728E+02  0.7816164E-02  0.1312668E+00
        -11   -1    0    0    0    0  0.00000000000E+00  0.00000000000E+00  0.45593999997E+02  0.45594000000E+02  0.51100000000E-03 0.  1.
         11   -1    0    0    0    0 -0.00000000000E+00 -0.00000000000E+00 -0.45593999997E+02  0.45594000000E+02  0.51100000000E-03 0. -1.
    9900012    2    1    2    0    0  0.44226693317E+01 -0.25891685942E+02  0.34549717955E+02  0.47787280931E+02  0.20000045077E+02 0.  0.
         12    1    1    2    0    0 -0.44226693317E+01  0.25891685942E+02 -0.34549717955E+02  0.43400719069E+02  0.00000000000E+00 0. -1.
         11    1    3    3    0    0 -0.34425365551E+00 -0.19526980780E+02  0.29232238853E+02  0.35156013391E+02  0.51100000000E-03 0. -1.
        -11    1    3    3    0    0 -0.10608885382E+00 -0.18229275367E+01  0.56737677586E+01  0.59603658016E+01  0.51100000000E-03 0.  1.
         12    1    3    3    0    0  0.48730118410E+01 -0.45417776249E+01 -0.35628865616E+00  0.66709017384E+01  0.00000000000E+00 0. -1.
</event>
<event>
 7    1  0.5411321E-010  0.4778727E+02  0.7816164E-02  0.1312668E+00
        -11   -1    0    0    0    0  0.00000000000E+00  0.00000000000E+00  0.45593999997E+02  0.45594000000E+02  0.51100000000E-03 0.  1.
         11   -1    0    0    0    0 -0.00000000000E+00 -0.00000000000E+00 -0.45593999997E+02  0.45594000000E+02  0.51100000000E-03 0. -1.
    9900012    2    1    2    0    0  0.19124936703E+02 -0.34448466546E+02  0.18197890764E+02  0.47787270979E+02  0.19999999702E+02 0.  0.
         12    1    1    2    0    0 -0.19124936703E+02  0.34448466546E+02 -0.18197890764E+02  0.43400729021E+02  0.00000000000E+00 0. -1.
         11    1    3    3    0    0  0.41225580409E+01 -0.32610399130E+01  0.65057117429E+01  0.83638598540E+01  0.51100000000E-03 0. -1.
        -11    1    3    3    0    0  0.85057255945E+01 -0.20114788984E+02 -0.32075898330E+00  0.21841588549E+02  0.51100000000E-03 0.  1.
        -12    1    3    3    0    0  0.64966530678E+01 -0.11072637649E+02  0.12012938004E+02  0.17581822576E+02  0.00000000000E+00 0.  1.
</event>
<event>
 7    1  0.5411321E-010  0.4778727E+02  0.7816164E-02  0.1312668E+00
        -11   -1    0    0    0    0  0.00000000000E+00  0.00000000000E+00  0.45593999997E+02  0.45594000000E+02  0.51100000000E-03 0. -1.
         11   -1    0    0    0    0 -0.00000000000E+00 -0.00000000000E+00 -0.45593999997E+02  0.45594000000E+02  0.51100000000E-03 0.  1.
    9900012    2    1    2    0    0  0.31492552285E+02 -0.28140814918E+02  0.99968493575E+01  0.47787270620E+02  0.19999998066E+02 0.  0.
         12    1    1    2    0    0 -0.31492552285E+02  0.28140814918E+02 -0.99968493575E+01  0.43400729380E+02  0.00000000000E+00 0. -1.
         11    1    3    3    0    0  0.15933891767E+02 -0.40657564641E+01  0.46690351654E+01  0.17094419327E+02  0.51100000000E-03 0. -1.
        -11    1    3    3    0    0  0.15358487768E+02 -0.18638973393E+02  0.18196093435E+01  0.24219939185E+02  0.51100000000E-03 0.  1.
         12    1    3    3    0    0  0.20017274927E+00 -0.54360850600E+01  0.35082048487E+01  0.64729121089E+01  0.00000000000E+00 0. -1.
</event>
<event>
 7    1  0.5411321E-010  0.4778727E+02  0.7816164E-02  0.1312668E+00
        -11   -1    0    0    0    0  0.00000000000E+00  0.00000000000E+00  0.45593999997E+02  0.45594000000E+02  0.51100000000E-03 0.  1.
         11   -1    0    0    0    0 -0.00000000000E+00 -0.00000000000E+00 -0.45593999997E+02  0.45594000000E+02  0.51100000000E-03 0. -1.
    9900012    2    1    2    0    0  0.21035795005E+02 -0.13913824231E+02  0.35320308250E+02  0.47787270155E+02  0.19999995945E+02 0.  0.
         12    1    1    2    0    0 -0.21035795005E+02  0.13913824231E+02 -0.35320308250E+02  0.43400729845E+02  0.00000000000E+00 0. -1.
         11    1    3    3    0    0  0.16538522683E+02 -0.51553283158E+01  0.17839433509E+02  0.24866554461E+02  0.51100000000E-03 0.  1.
        -11    1    3    3    0    0  0.80772890599E+01 -0.63319577876E+01  0.14054629238E+02  0.17403128778E+02  0.51100000000E-03 0. -1.
         12    1    3    3    0    0 -0.35800167384E+01 -0.24265381271E+01  0.34262455037E+01  0.55175869165E+01  0.00000000000E+00 0. -1.
</event>
<event>
 7    1  0.5411321E-010  0.4778727E+02  0.7816164E-02  0.1312668E+00
        -11   -1    0    0    0    0  0.00000000000E+00  0.00000000000E+00  0.45593999997E+02  0.45594000000E+02  0.51100000000E-03 0.  1.
         11   -1    0    0    0    0 -0.00000000000E+00 -0.00000000000E+00 -0.45593999997E+02  0.45594000000E+02  0.51100000000E-03 0. -1.
    9900012    2    1    2    0    0  0.26946835721E+02  0.20905856357E+02  0.26840946363E+02  0.47787272044E+02  0.20000004558E+02 0.  0.
         12    1    1    2    0    0 -0.26946835721E+02 -0.20905856357E+02 -0.26840946363E+02  0.43400727956E+02  0.00000000000E+00 0. -1.
         11    1    3    3    0    0  0.10537431312E+00  0.62916980640E+01  0.49587991529E+01  0.80116326410E+01  0.51100000000E-03 0. -1.
        -11    1    3    3    0    0  0.20748919952E+02  0.53264797560E+01  0.10445452930E+02  0.23832678258E+02  0.51100000000E-03 0.  1.
         12    1    3    3    0    0  0.60925414560E+01  0.92876785375E+01  0.11436694281E+02  0.15942961145E+02  0.00000000000E+00 0. -1.
</event>
<event>
 7    1  0.5411321E-010  0.4778727E+02  0.7816164E-02  0.1312668E+00
        -11   -1    0    0    0    0  0.00000000000E+00  0.00000000000E+00  0.45593999997E+02  0.45594000000E+02  0.51100000000E-03 0.  1.
         11   -1    0    0    0    0 -0.00000000000E+00 -0.00000000000E+00 -0.45593999997E+02  0.45594000000E+02  0.51100000000E-03 0. -1.
    9900012    2    1    2    0    0 -0.28098813948E+01 -0.43326884207E+01  0.43092407084E+02  0.47787272233E+02  0.20000005418E+02 0.  0.
         12    1    1    2    0    0  0.28098813948E+01  0.43326884207E+01 -0.43092407084E+02  0.43400727767E+02  0.00000000000E+00 0. -1.
         11    1    3    3    0    0  0.44242498577E+00  0.61719203941E+01  0.22586542427E+02  0.23418801001E+02  0.51100000000E-03 0. -1.
        -11    1    3    3    0    0  0.88283346445E-01 -0.30182331826E+01  0.12681230915E+02  0.13035764008E+02  0.51100000000E-03 0.  1.
         12    1    3    3    0    0 -0.33405897270E+01 -0.74863756321E+01  0.78246337417E+01  0.11332707224E+02  0.00000000000E+00 0. -1.
</event>
<event>
 7    1  0.5411321E-010  0.4778727E+02  0.7816164E-02  0.1312668E+00
        -11   -1    0    0    0    0  0.00000000000E+00  0.00000000000E+00  0.45593999997E+02  0.45594000000E+02  0.51100000000E-03 0.  1.
         11   -1    0    0    0    0 -0.00000000000E+00 -0.00000000000E+00 -0.45593999997E+02  0.45594000000E+02  0.51100000000E-03 0. -1.
    9900012    2    1    2    0    0  0.18047919450E+02 -0.38493678718E+02  0.87254027407E+01  0.47787270159E+02  0.19999995964E+02 0.  0.
         12    1    1    2    0    0 -0.18047919450E+02  0.38493678718E+02 -0.87254027407E+01  0.43400729841E+02  0.00000000000E+00 0. -1.
         11    1    3    3    0    0  0.13515162826E+01 -0.18149497258E+01  0.70547214462E+01  0.74087606058E+01  0.51100000000E-03 0. -1.
        -11    1    3    3    0    0  0.94020533856E+01 -0.18386506502E+02  0.84697529472E+00  0.20668323508E+02  0.51100000000E-03 0.  1.
         12    1    3    3    0    0  0.72943497820E+01 -0.18292222490E+02  0.82370599976E+00  0.19710186045E+02  0.00000000000E+00 0. -1.
</event>
<event>
 7    1  0.5411321E-010  0.4778727E+02  0.7816164E-02  0.1312668E+00
        -11   -1    0    0    0    0  0.00000000000E+00  0.00000000000E+00  0.45593999997E+02  0.45594000000E+02  0.51100000000E-03 0.  1.
         11   -1    0    0    0    0 -0.00000000000E+00 -0.00000000000E+00 -0.45593999997E+02  0.45594000000E+02  0.51100000000E-03 0. -1.
    9900012    2    1    2    0    0  0.11158316561E+01  0.36635485573E+02  0.23242623140E+02  0.47787269432E+02  0.19999992647E+02 0.  0.
         12    1    1    2    0    0 -0.11158316561E+01 -0.36635485573E+02 -0.23242623140E+02  0.43400730568E+02  0.00000000000E+00 0. -1.
         11    1    3    3    0    0 -0.18947908779E+00  0.24312893304E+01  0.57301743579E+01  0.62275170466E+01  0.51100000000E-03 0. -1.
        -11    1    3    3    0    0 -0.44630245173E+01  0.29717311491E+01  0.15187258260E+00  0.53640320103E+01  0.51100000000E-03 0.  1.
        -12    1    3    3    0    0  0.57683352612E+01  0.31232465093E+02  0.17360576200E+02  0.36195720375E+02  0.00000000000E+00 0.  1.
</event>
<event>
 7    1  0.5411321E-010  0.4778727E+02  0.7816164E-02  0.1312668E+00
        -11   -1    0    0    0    0  0.00000000000E+00  0.00000000000E+00  0.45593999997E+02  0.45594000000E+02  0.51100000000E-03 0.  1.
         11   -1    0    0    0    0 -0.00000000000E+00 -0.00000000000E+00 -0.45593999997E+02  0.45594000000E+02  0.51100000000E-03 0. -1.
    9900012    2    1    2    0    0  0.41706224966E+02 -0.93006634331E+01  0.75968163125E+01  0.47787272364E+02  0.20000006018E+02 0.  0.
         12    1    1    2    0    0 -0.41706224966E+02  0.93006634331E+01 -0.75968163125E+01  0.43400727636E+02  0.00000000000E+00 0. -1.
         11    1    3    3    0    0  0.28581930260E+02 -0.10475037391E+02 -0.47397868214E+00  0.30444667872E+02  0.51100000000E-03 0. -1.
        -11    1    3    3    0    0  0.12184009115E+02 -0.14129570405E+01  0.78891380358E+01  0.14583724659E+02  0.51100000000E-03 0.  1.
         12    1    3    3    0    0  0.94028559025E+00  0.25873309985E+01  0.18165695888E+00  0.27588798339E+01  0.00000000000E+00 0. -1.
</event>
<event>
 7    1  0.5411321E-010  0.4778726E+02  0.7816164E-02  0.1312668E+00
        -11   -1    0    0    0    0  0.00000000000E+00  0.00000000000E+00  0.45593999997E+02  0.45594000000E+02  0.51100000000E-03 0. -1.
         11   -1    0    0    0    0 -0.00000000000E+00 -0.00000000000E+00 -0.45593999997E+02  0.45594000000E+02  0.51100000000E-03 0.  1.
    9900012    2    1    2    0    0 -0.22118858674E+02  0.35729601305E+01 -0.37170067428E+02  0.47787264226E+02  0.19999968910E+02 0.  0.
         12    1    1    2    0    0  0.22118858674E+02 -0.35729601305E+01  0.37170067428E+02  0.43400735774E+02  0.00000000000E+00 0. -1.
         11    1    3    3    0    0 -0.93690380528E+01  0.49099677857E+01 -0.30295799890E+02  0.32089284021E+02  0.51100000000E-03 0. -1.
        -11    1    3    3    0    0 -0.62766917726E+01  0.32999362928E+00 -0.25459069576E+00  0.62905144533E+01  0.51100000000E-03 0.  1.
         12    1    3    3    0    0 -0.64731288488E+01 -0.16670012846E+01 -0.66196768421E+01  0.94074657517E+01  0.00000000000E+00 0. -1.
</event>
<event>
 7    1  0.5411321E-010  0.4778727E+02  0.7816164E-02  0.1312668E+00
        -11   -1    0    0    0    0  0.00000000000E+00  0.00000000000E+00  0.45593999997E+02  0.45594000000E+02  0.51100000000E-03 0.  1.
         11   -1    0    0    0    0 -0.00000000000E+00 -0.00000000000E+00 -0.45593999997E+02  0.45594000000E+02  0.51100000000E-03 0. -1.
    9900012    2    1    2    0    0 -0.17140763071E+02 -0.23197851656E+02  0.32429571629E+02  0.47787271940E+02  0.20000004083E+02 0.  0.
         12    1    1    2    0    0  0.17140763071E+02  0.23197851656E+02 -0.32429571629E+02  0.43400728060E+02  0.00000000000E+00 0. -1.
         11    1    3    3    0    0 -0.17053225981E+01 -0.13839276143E+02  0.12689906708E+02  0.18853843689E+02  0.51100000000E-03 0.  1.
        -11    1    3    3    0    0 -0.10267649790E+02 -0.99470983760E+00  0.14493336614E+02  0.17789628617E+02  0.51100000000E-03 0. -1.
         12    1    3    3    0    0 -0.51677906825E+01 -0.83638656749E+01  0.52463283072E+01  0.11143799634E+02  0.00000000000E+00 0. -1.
</event>
<event>
 7    1  0.5411321E-010  0.4778727E+02  0.7816164E-02  0.1312668E+00
        -11   -1    0    0    0    0  0.00000000000E+00  0.00000000000E+00  0.45593999997E+02  0.45594000000E+02  0.51100000000E-03 0. -1.
         11   -1    0    0    0    0 -0.00000000000E+00 -0.00000000000E+00 -0.45593999997E+02  0.45594000000E+02  0.51100000000E-03 0.  1.
    9900012    2    1    2    0    0 -0.37719383686E+02 -0.20142654636E+02 -0.74259795796E+01  0.47787267124E+02  0.19999982125E+02 0.  0.
         12    1    1    2    0    0  0.37719383686E+02  0.20142654636E+02  0.74259795796E+01  0.43400732876E+02  0.00000000000E+00 0. -1.
         11    1    3    3    0    0 -0.38111383338E+01  0.67678454028E+00 -0.11879830692E+01  0.40489648983E+01  0.51100000000E-03 0. -1.
        -11    1    3    3    0    0 -0.28615324256E+02 -0.97867229084E+01 -0.82255236990E+01  0.31341282168E+02  0.51100000000E-03 0.  1.
        -12    1    3    3    0    0 -0.52929210968E+01 -0.11032716268E+02  0.19875271886E+01  0.12397020058E+02  0.00000000000E+00 0.  1.
</event>
<event>
 7    1  0.5411321E-010  0.4778727E+02  0.7816164E-02  0.1312668E+00
        -11   -1    0    0    0    0  0.00000000000E+00  0.00000000000E+00  0.45593999997E+02  0.45594000000E+02  0.51100000000E-03 0.  1.
         11   -1    0    0    0    0 -0.00000000000E+00 -0.00000000000E+00 -0.45593999997E+02  0.45594000000E+02  0.51100000000E-03 0. -1.
    9900012    2    1    2    0    0 -0.14980999031E+02 -0.83610789933E+01  0.39865841360E+02  0.47787270960E+02  0.19999999613E+02 0.  0.
         12    1    1    2    0    0  0.14980999031E+02  0.83610789933E+01 -0.39865841360E+02  0.43400729040E+02  0.00000000000E+00 0. -1.
         11    1    3    3    0    0 -0.11849543011E+01  0.27374646662E+01  0.70261334931E+00  0.30645546616E+01  0.51100000000E-03 0. -1.
        -11    1    3    3    0    0 -0.10220670891E+02 -0.11885827642E+02  0.21064064275E+02  0.26256995567E+02  0.51100000000E-03 0.  1.
        -12    1    3    3    0    0 -0.35753738389E+01  0.78728398222E+00  0.18099163736E+02  0.18465720730E+02  0.00000000000E+00 0.  1.
</event>
<event>
 7    1  0.5411321E-010  0.4778727E+02  0.7816164E-02  0.1312668E+00
        -11   -1    0    0    0    0  0.00000000000E+00  0.00000000000E+00  0.45593999997E+02  0.45594000000E+02  0.51100000000E-03 0. -1.
         11   -1    0    0    0    0 -0.00000000000E+00 -0.00000000000E+00 -0.45593999997E+02  0.45594000000E+02  0.51100000000E-03 0.  1.
    9900012    2    1    2    0    0  0.84234722860E+01  0.86122017573E+01 -0.41695304814E+02  0.47787270191E+02  0.19999996107E+02 0.  0.
         12    1    1    2    0    0 -0.84234722860E+01 -0.86122017573E+01  0.41695304814E+02  0.43400729809E+02  0.00000000000E+00 0. -1.
         11    1    3    3    0    0  0.65275427881E+01  0.11945171099E+02 -0.18479695983E+02  0.22952017152E+02  0.51100000000E-03 0. -1.
        -11    1    3    3    0    0 -0.15487440776E+01 -0.24519983506E+01 -0.19416426168E+02  0.19631823897E+02  0.51100000000E-03 0.  1.
         12    1    3    3    0    0  0.34446735755E+01 -0.88097099117E+00 -0.37991826628E+01  0.52034291418E+01  0.00000000000E+00 0. -1.
</event>
<event>
 7    1  0.5411321E-010  0.4778727E+02  0.7816164E-02  0.1312668E+00
        -11   -1    0    0    0    0  0.00000000000E+00  0.00000000000E+00  0.45593999997E+02  0.45594000000E+02  0.51100000000E-03 0. -1.
         11   -1    0    0    0    0 -0.00000000000E+00 -0.00000000000E+00 -0.45593999997E+02  0.45594000000E+02  0.51100000000E-03 0.  1.
    9900012    2    1    2    0    0 -0.32716538243E+02 -0.19870946001E+02 -0.20454751538E+02  0.47787271549E+02  0.20000002301E+02 0.  0.
         12    1    1    2    0    0  0.32716538243E+02  0.19870946001E+02  0.20454751538E+02  0.43400728451E+02  0.00000000000E+00 0. -1.
         11    1    3    3    0    0 -0.89904251202E+01 -0.81714623974E+01  0.10045099363E+01  0.12190552983E+02  0.51100000000E-03 0. -1.
        -11    1    3    3    0    0 -0.20413488008E+02 -0.12138691676E+02 -0.14368722145E+02  0.27758215083E+02  0.51100000000E-03 0.  1.
         12    1    3    3    0    0 -0.33126251150E+01  0.43920807196E+00 -0.70905393287E+01  0.78385034831E+01  0.00000000000E+00 0. -1.
</event>
<event>
 7    1  0.5411321E-010  0.4778727E+02  0.7816164E-02  0.1312668E+00
        -11   -1    0    0    0    0  0.00000000000E+00  0.00000000000E+00  0.45593999997E+02  0.45594000000E+02  0.51100000000E-03 0.  1.
         11   -1    0    0    0    0 -0.00000000000E+00 -0.00000000000E+00 -0.45593999997E+02  0.45594000000E+02  0.51100000000E-03 0. -1.
    9900012    2    1    2    0    0  0.80778387181E+01 -0.33326648359E+02  0.26602756974E+02  0.47787266736E+02  0.19999980356E+02 0.  0.
         12    1    1    2    0    0 -0.80778387181E+01  0.33326648359E+02 -0.26602756974E+02  0.43400733264E+02  0.00000000000E+00 0. -1.
         11    1    3    3    0    0  0.12673986751E+00 -0.11649755179E+01 -0.10351031159E+01  0.15635439467E+01  0.51100000000E-03 0. -1.
        -11    1    3    3    0    0  0.28329992298E+01 -0.59340810079E+01  0.15572411785E+02  0.16903822382E+02  0.51100000000E-03 0.  1.
        -12    1    3    3    0    0  0.51180996208E+01 -0.26227591833E+02  0.12065448305E+02  0.29319900408E+02  0.00000000000E+00 0.  1.
</event>
<event>
 7    1  0.5411321E-010  0.4778727E+02  0.7816164E-02  0.1312668E+00
        -11   -1    0    0    0    0  0.00000000000E+00  0.00000000000E+00  0.45593999997E+02  0.45594000000E+02  0.51100000000E-03 0.  1.
         11   -1    0    0    0    0 -0.00000000000E+00 -0.00000000000E+00 -0.45593999997E+02  0.45594000000E+02  0.51100000000E-03 0. -1.
    9900012    2    1    2    0    0  0.18014728132E+02  0.30023776615E+02  0.25644991672E+02  0.47787272014E+02  0.20000004421E+02 0.  0.
         12    1    1    2    0    0 -0.18014728132E+02 -0.30023776615E+02 -0.25644991672E+02  0.43400727986E+02  0.00000000000E+00 0. -1.
         11    1    3    3    0    0  0.42460902177E+01  0.85627325003E+01  0.16638981604E+02  0.19188678409E+02  0.51100000000E-03 0. -1.
        -11    1    3    3    0    0  0.48964338587E+01  0.87249147860E+01  0.84022340358E+01  0.13065096234E+02  0.51100000000E-03 0.  1.
         12    1    3    3    0    0  0.88722040555E+01  0.12736129328E+02  0.60377603161E+00  0.15533497371E+02  0.00000000000E+00 0. -1.
</event>
<event>
 7    1  0.5411321E-010  0.4778727E+02  0.7816164E-02  0.1312668E+00
        -11   -1    0    0    0    0  0.00000000000E+00  0.00000000000E+00  0.45593999997E+02  0.45594000000E+02  0.51100000000E-03 0.  1.
         11   -1    0    0    0    0 -0.00000000000E+00 -0.00000000000E+00 -0.45593999997E+02  0.45594000000E+02  0.51100000000E-03 0. -1.
    9900012    2    1    2    0    0  0.26007800097E+02  0.12471160110E+02  0.32429737921E+02  0.47787269568E+02  0.19999993267E+02 0.  0.
         12    1    1    2    0    0 -0.26007800097E+02 -0.12471160110E+02 -0.32429737921E+02  0.43400730432E+02  0.00000000000E+00 0. -1.
         11    1    3    3    0    0  0.33104289367E+01  0.34514586868E+01 -0.12367882284E+01  0.49397522402E+01  0.51100000000E-03 0. -1.
        -11    1    3    3    0    0  0.14292275455E+02  0.19171277533E+00  0.17311014949E+02  0.22449434966E+02  0.51100000000E-03 0.  1.
         12    1    3    3    0    0  0.84050957063E+01  0.88279886481E+01  0.16355511200E+02  0.20398082362E+02  0.00000000000E+00 0. -1.
</event>
<event>
 7    1  0.5411321E-010  0.4778727E+02  0.7816164E-02  0.1312668E+00
        -11   -1    0    0    0    0  0.00000000000E+00  0.00000000000E+00  0.45593999997E+02  0.45594000000E+02  0.51100000000E-03 0. -1.
         11   -1    0    0    0    0 -0.00000000000E+00 -0.00000000000E+00 -0.45593999997E+02  0.45594000000E+02  0.51100000000E-03 0.  1.
    9900012    2    1    2    0    0  0.55823763592E+01  0.40280161456E+02 -0.15164724348E+02  0.47787271927E+02  0.20000004022E+02 0.  0.
         12    1    1    2    0    0 -0.55823763592E+01 -0.40280161456E+02  0.15164724348E+02  0.43400728073E+02  0.00000000000E+00 0. -1.
         11    1    3    3    0    0  0.20384944440E+01  0.26581031034E+02 -0.16418143125E+01  0.26709590504E+02  0.51100000000E-03 0. -1.
        -11    1    3    3    0    0  0.82187791180E+00  0.11322252453E+02 -0.62557243750E+01  0.12961596030E+02  0.51100000000E-03 0.  1.
         12    1    3    3    0    0  0.27220040034E+01  0.23768779693E+01 -0.72671856605E+01  0.81160853926E+01  0.00000000000E+00 0. -1.
</event>
<event>
 7    1  0.5411321E-010  0.4778727E+02  0.7816164E-02  0.1312668E+00
        -11   -1    0    0    0    0  0.00000000000E+00  0.00000000000E+00  0.45593999997E+02  0.45594000000E+02  0.51100000000E-03 0.  1.
         11   -1    0    0    0    0 -0.00000000000E+00 -0.00000000000E+00 -0.45593999997E+02  0.45594000000E+02  0.51100000000E-03 0. -1.
    9900012    2    1    2    0    0 -0.21674338909E+02  0.47902151535E+01  0.37294778202E+02  0.47787267178E+02  0.19999982371E+02 0.  0.
         12    1    1    2    0    0  0.21674338909E+02 -0.47902151535E+01 -0.37294778202E+02  0.43400732822E+02  0.00000000000E+00 0. -1.
         11    1    3    3    0    0  0.31352065639E+00  0.13601245520E+01  0.95175261751E+00  0.16893985039E+01  0.51100000000E-03 0. -1.
        -11    1    3    3    0    0 -0.81730420318E+01 -0.70970609808E+01  0.16420927305E+02  0.19667581052E+02  0.51100000000E-03 0.  1.
        -12    1    3    3    0    0 -0.13814817534E+02  0.10527151582E+02  0.19922098279E+02  0.26430287622E+02  0.00000000000E+00 0.  1.
</event>
<event>
 7    1  0.5411321E-010  0.4778727E+02  0.7816164E-02  0.1312668E+00
        -11   -1    0    0    0    0  0.00000000000E+00  0.00000000000E+00  0.45593999997E+02  0.45594000000E+02  0.51100000000E-03 0. -1.
         11   -1    0    0    0    0 -0.00000000000E+00 -0.00000000000E+00 -0.45593999997E+02  0.45594000000E+02  0.51100000000E-03 0.  1.
    9900012    2    1    2    0    0 -0.22937858389E+02 -0.26739237270E+01 -0.36746809669E+02  0.47787271476E+02  0.20000001967E+02 0.  0.
         12    1    1    2    0    0  0.22937858389E+02  0.26739237270E+01  0.36746809669E+02  0.43400728524E+02  0.00000000000E+00 0. -1.
         11    1    3    3    0    0 -0.19266986331E+02 -0.73487308234E+01 -0.16756666922E+02  0.26570782705E+02  0.51100000000E-03 0. -1.
        -11    1    3    3    0    0 -0.38755387281E+01  0.34100449328E+01 -0.18695329990E+02  0.19394936725E+02  0.51100000000E-03 0.  1.
         12    1    3    3    0    0  0.20466667021E+00  0.12647621636E+01 -0.12948127575E+01  0.18215520452E+01  0.00000000000E+00 0. -1.
</event>
<event>
 7    1  0.5411321E-010  0.4778727E+02  0.7816164E-02  0.1312668E+00
        -11   -1    0    0    0    0  0.00000000000E+00  0.00000000000E+00  0.45593999997E+02  0.45594000000E+02  0.51100000000E-03 0.  1.
         11   -1    0    0    0    0 -0.00000000000E+00 -0.00000000000E+00 -0.45593999997E+02  0.45594000000E+02  0.51100000000E-03 0. -1.
    9900012    2    1    2    0    0 -0.36797831343E+02  0.15369537173E+02  0.17126596155E+02  0.47787270048E+02  0.19999995458E+02 0.  0.
         12    1    1    2    0    0  0.36797831343E+02 -0.15369537173E+02 -0.17126596155E+02  0.43400729952E+02  0.00000000000E+00 0. -1.
         11    1    3    3    0    0 -0.12378215201E+02  0.45106607817E+01 -0.29454626233E+01  0.13499704536E+02  0.51100000000E-03 0. -1.
        -11    1    3    3    0    0 -0.22680503298E+02  0.11964050438E+02  0.19271259959E+02  0.32076863834E+02  0.51100000000E-03 0.  1.
         12    1    3    3    0    0 -0.17391128448E+01 -0.11051740468E+01  0.80079881930E+00  0.22107016781E+01  0.00000000000E+00 0. -1.
</event>
<event>
 7    1  0.5411321E-010  0.4778728E+02  0.7816164E-02  0.1312668E+00
        -11   -1    0    0    0    0  0.00000000000E+00  0.00000000000E+00  0.45593999997E+02  0.45594000000E+02  0.51100000000E-03 0.  1.
         11   -1    0    0    0    0 -0.00000000000E+00 -0.00000000000E+00 -0.45593999997E+02  0.45594000000E+02  0.51100000000E-03 0. -1.
    9900012    2    1    2    0    0 -0.20976472640E+02  0.36076185176E+02 -0.11921383657E+02  0.47787275011E+02  0.20000018087E+02 0.  0.
         12    1    1    2    0    0  0.20976472640E+02 -0.36076185176E+02  0.11921383657E+02  0.43400724989E+02  0.00000000000E+00 0. -1.
         11    1    3    3    0    0 -0.21192698918E+01  0.62147447214E+01  0.23127368568E+01  0.69615450050E+01  0.51100000000E-03 0. -1.
        -11    1    3    3    0    0 -0.19766720070E+02  0.25518815328E+02 -0.81434826351E+01  0.33290381009E+02  0.51100000000E-03 0.  1.
        -12    1    3    3    0    0  0.90951732088E+00  0.43426251259E+01 -0.60906378783E+01  0.75353489969E+01  0.00000000000E+00 0.  1.
</event>
<event>
 7    1  0.5411321E-010  0.4778727E+02  0.7816164E-02  0.1312668E+00
        -11   -1    0    0    0    0  0.00000000000E+00  0.00000000000E+00  0.45593999997E+02  0.45594000000E+02  0.51100000000E-03 0.  1.
         11   -1    0    0    0    0 -0.00000000000E+00 -0.00000000000E+00 -0.45593999997E+02  0.45594000000E+02  0.51100000000E-03 0. -1.
    9900012    2    1    2    0    0  0.16639012430E+02 -0.36926670488E+02  0.15594480317E+02  0.47787267928E+02  0.19999985793E+02 0.  0.
         12    1    1    2    0    0 -0.16639012430E+02  0.36926670488E+02 -0.15594480317E+02  0.43400732072E+02  0.00000000000E+00 0. -1.
         11    1    3    3    0    0  0.70581138441E+01 -0.82856089008E+01 -0.34002860268E+01  0.11403079901E+02  0.51100000000E-03 0. -1.
        -11    1    3    3    0    0  0.28119118149E+01 -0.16113781099E+02  0.71048748100E+01  0.17833677010E+02  0.51100000000E-03 0.  1.
         12    1    3    3    0    0  0.67689867707E+01 -0.12527280488E+02  0.11889891534E+02  0.18550511018E+02  0.00000000000E+00 0. -1.
</event>
<event>
 7    1  0.5411321E-010  0.4778727E+02  0.7816164E-02  0.1312668E+00
        -11   -1    0    0    0    0  0.00000000000E+00  0.00000000000E+00  0.45593999997E+02  0.45594000000E+02  0.51100000000E-03 0.  1.
         11   -1    0    0    0    0 -0.00000000000E+00 -0.00000000000E+00 -0.45593999997E+02  0.45594000000E+02  0.51100000000E-03 0. -1.
    9900012    2    1    2    0    0 -0.22471393736E+02 -0.37130194802E+02 -0.92470541407E-01  0.47787268978E+02  0.19999990577E+02 0.  0.
         12    1    1    2    0    0  0.22471393736E+02  0.37130194802E+02  0.92470541407E-01  0.43400731022E+02  0.00000000000E+00 0. -1.
         11    1    3    3    0    0 -0.43479554105E+01 -0.18535423138E+02 -0.44524604700E+01  0.19552264106E+02  0.51100000000E-03 0. -1.
        -11    1    3    3    0    0 -0.14703524210E+02 -0.12213470498E+02 -0.11316544428E+01  0.19147927508E+02  0.51100000000E-03 0.  1.
         12    1    3    3    0    0 -0.34199141160E+01 -0.63813011651E+01  0.54916443714E+01  0.90870773642E+01  0.00000000000E+00 0. -1.
</event>
<event>
 7    1  0.5411321E-010  0.4778727E+02  0.7816164E-02  0.1312668E+00
        -11   -1    0    0    0    0  0.00000000000E+00  0.00000000000E+00  0.45593999997E+02  0.45594000000E+02  0.51100000000E-03 0. -1.
         11   -1    0    0    0    0 -0.00000000000E+00 -0.00000000000E+00 -0.45593999997E+02  0.45594000000E+02  0.51100000000E-03 0.  1.
    9900012    2    1    2    0    0 -0.13741877639E+02  0.30145890582E+02 -0.28035858117E+02  0.47787271200E+02  0.20000000710E+02 0.  0.
         12    1    1    2    0    0  0.13741877639E+02 -0.30145890582E+02  0.28035858117E+02  0.43400728800E+02  0.00000000000E+00 0. -1.
         11    1    3    3    0    0 -0.14203794631E+01  0.22974499576E+02 -0.12282261014E+02  0.26090209743E+02  0.51100000000E-03 0. -1.
        -11    1    3    3    0    0 -0.77377496076E+01  0.23602549532E+01 -0.69372704671E+01  0.10656889519E+02  0.51100000000E-03 0.  1.
         12    1    3    3    0    0 -0.45837485687E+01  0.48111360529E+01 -0.88163266358E+01  0.11040171938E+02  0.00000000000E+00 0. -1.
</event>
<event>
 7    1  0.5411321E-010  0.4778728E+02  0.7816164E-02  0.1312668E+00
        -11   -1    0    0    0    0  0.00000000000E+00  0.00000000000E+00  0.45593999997E+02  0.45594000000E+02  0.51100000000E-03 0.  1.
         11   -1    0    0    0    0 -0.00000000000E+00 -0.00000000000E+00 -0.45593999997E+02  0.45594000000E+02  0.51100000000E-03 0. -1.
    9900012    2    1    2    0    0  0.12378975698E+02 -0.39331216577E+02  0.13543964373E+02  0.47787278719E+02  0.20000034992E+02 0.  0.
         12    1    1    2    0    0 -0.12378975698E+02  0.39331216577E+02 -0.13543964373E+02  0.43400721281E+02  0.00000000000E+00 0. -1.
         11    1    3    3    0    0  0.17355805448E+02 -0.25636464057E+02  0.90142168955E+01  0.32244509278E+02  0.51100000000E-03 0. -1.
        -11    1    3    3    0    0 -0.51267717478E+01 -0.11453329269E+02  0.32710573730E+01  0.12967742922E+02  0.51100000000E-03 0.  1.
         12    1    3    3    0    0  0.14994199753E+00 -0.22414232511E+01  0.12586901043E+01  0.25750265186E+01  0.00000000000E+00 0. -1.
</event>
<event>
 7    1  0.5411321E-010  0.4778727E+02  0.7816164E-02  0.1312668E+00
        -11   -1    0    0    0    0  0.00000000000E+00  0.00000000000E+00  0.45593999997E+02  0.45594000000E+02  0.51100000000E-03 0. -1.
         11   -1    0    0    0    0 -0.00000000000E+00 -0.00000000000E+00 -0.45593999997E+02  0.45594000000E+02  0.51100000000E-03 0.  1.
    9900012    2    1    2    0    0  0.18620632378E+02 -0.14196569360E+02 -0.36542483494E+02  0.47787266923E+02  0.19999981207E+02 0.  0.
         12    1    1    2    0    0 -0.18620632378E+02  0.14196569360E+02  0.36542483494E+02  0.43400733077E+02  0.00000000000E+00 0. -1.
         11    1    3    3    0    0  0.15296205431E+01 -0.91213831658E-01 -0.81893973005E+00  0.17374468370E+01  0.51100000000E-03 0.  1.
        -11    1    3    3    0    0  0.31133131539E+01  0.38744647844E+01 -0.20019715038E+01  0.53583660124E+01  0.51100000000E-03 0. -1.
        -12    1    3    3    0    0  0.13977698681E+02 -0.17979820313E+02 -0.33721572260E+02  0.40691454073E+02  0.00000000000E+00 0.  1.
</event>
<event>
 7    1  0.5411321E-010  0.4778727E+02  0.7816164E-02  0.1312668E+00
        -11   -1    0    0    0    0  0.00000000000E+00  0.00000000000E+00  0.45593999997E+02  0.45594000000E+02  0.51100000000E-03 0.  1.
         11   -1    0    0    0    0 -0.00000000000E+00 -0.00000000000E+00 -0.45593999997E+02  0.45594000000E+02  0.51100000000E-03 0. -1.
    9900012    2    1    2    0    0 -0.34437514302E+02 -0.24622761418E+02  0.95603719479E+01  0.47787268636E+02  0.19999989018E+02 0.  0.
         12    1    1    2    0    0  0.34437514302E+02  0.24622761418E+02 -0.95603719479E+01  0.43400731364E+02  0.00000000000E+00 0. -1.
         11    1    3    3    0    0  0.36261086377E+00 -0.40230075688E+01 -0.13424311634E+01  0.42565476887E+01  0.51100000000E-03 0. -1.
        -11    1    3    3    0    0 -0.21227196342E+02 -0.65986660945E+01  0.88376565301E+01  0.23921547441E+02  0.51100000000E-03 0.  1.
         12    1    3    3    0    0 -0.13572928824E+02 -0.14001087755E+02  0.20651465812E+01  0.19609173506E+02  0.00000000000E+00 0. -1.
</event>
<event>
 7    1  0.5411321E-010  0.4778727E+02  0.7816164E-02  0.1312668E+00
        -11   -1    0    0    0    0  0.00000000000E+00  0.00000000000E+00  0.45593999997E+02  0.45594000000E+02  0.51100000000E-03 0. -1.
         11   -1    0    0    0    0 -0.00000000000E+00 -0.00000000000E+00 -0.45593999997E+02  0.45594000000E+02  0.51100000000E-03 0.  1.
    9900012    2    1    2    0    0  0.30571362696E+02 -0.15288557090E+02 -0.26744624458E+02  0.47787272674E+02  0.20000007431E+02 0.  0.
         12    1    1    2    0    0 -0.30571362696E+02  0.15288557090E+02  0.26744624458E+02  0.43400727326E+02  0.00000000000E+00 0. -1.
         11    1    3    3    0    0  0.10495818754E+02 -0.14378135411E+00 -0.25668017128E+01  0.10806079570E+02  0.51100000000E-03 0. -1.
        -11    1    3    3    0    0  0.16161001971E+02 -0.13806248498E+02 -0.24946054657E+02  0.32773405766E+02  0.51100000000E-03 0.  1.
        -12    1    3    3    0    0  0.39145419714E+01 -0.13385272385E+01  0.76823191132E+00  0.42077873382E+01  0.00000000000E+00 0.  1.
</event>
<event>
 7    1  0.5411321E-010  0.4778727E+02  0.7816164E-02  0.1312668E+00
        -11   -1    0    0    0    0  0.00000000000E+00  0.00000000000E+00  0.45593999997E+02  0.45594000000E+02  0.51100000000E-03 0.  1.
         11   -1    0    0    0    0 -0.00000000000E+00 -0.00000000000E+00 -0.45593999997E+02  0.45594000000E+02  0.51100000000E-03 0. -1.
    9900012    2    1    2    0    0 -0.31078095067E+02  0.94064301868E+01  0.28797475404E+02  0.47787268306E+02  0.19999987516E+02 0.  0.
         12    1    1    2    0    0  0.31078095067E+02 -0.94064301868E+01 -0.28797475404E+02  0.43400731694E+02  0.00000000000E+00 0. -1.
         11    1    3    3    0    0 -0.81784091703E+01 -0.43925063171E+01  0.77087091356E+01  0.12066676639E+02  0.51100000000E-03 0. -1.
        -11    1    3    3    0    0 -0.15041729193E+02  0.10309235566E+02  0.19981330448E+02  0.27051571522E+02  0.51100000000E-03 0.  1.
        -12    1    3    3    0    0 -0.78579567037E+01  0.34897009382E+01  0.11074358211E+01  0.86690201461E+01  0.00000000000E+00 0.  1.
</event>
<event>
 7    1  0.5411321E-010  0.4778726E+02  0.7816164E-02  0.1312668E+00
        -11   -1    0    0    0    0  0.00000000000E+00  0.00000000000E+00  0.45593999997E+02  0.45594000000E+02  0.51100000000E-03 0. -1.
         11   -1    0    0    0    0 -0.00000000000E+00 -0.00000000000E+00 -0.45593999997E+02  0.45594000000E+02  0.51100000000E-03 0.  1.
    9900012    2    1    2    0    0 -0.14068422443E+02 -0.39790057034E+02 -0.10121991332E+02  0.47787264323E+02  0.19999969354E+02 0.  0.
         12    1    1    2    0    0  0.14068422443E+02  0.39790057034E+02  0.10121991332E+02  0.43400735677E+02  0.00000000000E+00 0. -1.
         11    1    3    3    0    0 -0.37459663141E+01 -0.42312082375E+01 -0.87936340883E+01  0.10452912872E+02  0.51100000000E-03 0. -1.
        -11    1    3    3    0    0 -0.31017358551E+01 -0.17010508540E+02  0.84604074868E+00  0.17311670957E+02  0.51100000000E-03 0.  1.
         12    1    3    3    0    0 -0.72207202732E+01 -0.18548340256E+02 -0.21743979924E+01  0.20022680494E+02  0.00000000000E+00 0. -1.
</event>
<event>
 7    1  0.5411321E-010  0.4778727E+02  0.7816164E-02  0.1312668E+00
        -11   -1    0    0    0    0  0.00000000000E+00  0.00000000000E+00  0.45593999997E+02  0.45594000000E+02  0.51100000000E-03 0.  1.
         11   -1    0    0    0    0 -0.00000000000E+00 -0.00000000000E+00 -0.45593999997E+02  0.45594000000E+02  0.51100000000E-03 0. -1.
    9900012    2    1    2    0    0  0.19680354866E+01  0.17538132793E+02  0.39650523374E+02  0.47787271096E+02  0.20000000235E+02 0.  0.
         12    1    1    2    0    0 -0.19680354866E+01 -0.17538132793E+02 -0.39650523374E+02  0.43400728904E+02  0.00000000000E+00 0. -1.
         11    1    3    3    0    0 -0.30460322634E+01  0.59631515776E+01  0.36619995634E+01  0.76320200701E+01  0.51100000000E-03 0. -1.
        -11    1    3    3    0    0  0.12547468205E+01  0.42967861041E+01  0.29128614217E+02  0.29470543376E+02  0.51100000000E-03 0.  1.
        -12    1    3    3    0    0  0.37593209295E+01  0.72781951113E+01  0.68599095943E+01  0.10684707650E+02  0.00000000000E+00 0.  1.
</event>
<event>
 7    1  0.5411321E-010  0.4778727E+02  0.7816164E-02  0.1312668E+00
        -11   -1    0    0    0    0  0.00000000000E+00  0.00000000000E+00  0.45593999997E+02  0.45594000000E+02  0.51100000000E-03 0.  1.
         11   -1    0    0    0    0 -0.00000000000E+00 -0.00000000000E+00 -0.45593999997E+02  0.45594000000E+02  0.51100000000E-03 0. -1.
    9900012    2    1    2    0    0 -0.12476207706E+02  0.39073025820E+02  0.14186831337E+02  0.47787270872E+02  0.19999999212E+02 0.  0.
         12    1    1    2    0    0  0.12476207706E+02 -0.39073025820E+02 -0.14186831337E+02  0.43400729128E+02  0.00000000000E+00 0. -1.
         11    1    3    3    0    0  0.32731270063E+01  0.76149474205E+01  0.54584384685E+01  0.99244816183E+01  0.51100000000E-03 0.  1.
        -11    1    3    3    0    0 -0.13745572371E+02  0.30305755821E+02  0.10561031498E+02  0.34912962954E+02  0.51100000000E-03 0. -1.
         12    1    3    3    0    0 -0.20037623417E+01  0.11523225791E+01 -0.18326386299E+01  0.29498262993E+01  0.00000000000E+00 0. -1.
</event>
<event>
 7    1  0.5411321E-010  0.4778727E+02  0.7816164E-02  0.1312668E+00
        -11   -1    0    0    0    0  0.00000000000E+00  0.00000000000E+00  0.45593999997E+02  0.45594000000E+02  0.51100000000E-03 0.  1.
         11   -1    0    0    0    0 -0.00000000000E+00 -0.00000000000E+00 -0.45593999997E+02  0.45594000000E+02  0.51100000000E-03 0. -1.
    9900012    2    1    2    0    0  0.34383467230E+02  0.24116164251E+02  0.10945814882E+02  0.47787273504E+02  0.20000011216E+02 0.  0.
         12    1    1    2    0    0 -0.34383467230E+02 -0.24116164251E+02 -0.10945814882E+02  0.43400726496E+02  0.00000000000E+00 0. -1.
         11    1    3    3    0    0  0.21780957469E+02  0.87919280292E+01  0.42646719982E+01  0.23872484878E+02  0.51100000000E-03 0. -1.
        -11    1    3    3    0    0  0.74429065074E+01  0.89857164919E+01  0.97290729436E+01  0.15191932687E+02  0.51100000000E-03 0.  1.
         12    1    3    3    0    0  0.51596032534E+01  0.63385197299E+01 -0.30479300600E+01  0.87228559400E+01  0.00000000000E+00 0. -1.
</event>
<event>
 7    1  0.5411321E-010  0.4778727E+02  0.7816164E-02  0.1312668E+00
        -11   -1    0    0    0    0  0.00000000000E+00  0.00000000000E+00  0.45593999997E+02  0.45594000000E+02  0.51100000000E-03 0. -1.
         11   -1    0    0    0    0 -0.00000000000E+00 -0.00000000000E+00 -0.45593999997E+02  0.45594000000E+02  0.51100000000E-03 0.  1.
    9900012    2    1    2    0    0  0.33301787063E+02 -0.10335294158E+02 -0.25841743322E+02  0.47787273913E+02  0.20000013080E+02 0.  0.
         12    1    1    2    0    0 -0.33301787063E+02  0.10335294158E+02  0.25841743322E+02  0.43400726087E+02  0.00000000000E+00 0. -1.
         11    1    3    3    0    0  0.20724857010E+02 -0.10772688600E+02 -0.15902740941E+02  0.28257170550E+02  0.51100000000E-03 0. -1.
        -11    1    3    3    0    0  0.75395621703E+01 -0.50939726707E+01 -0.38338123105E+01  0.98737871348E+01  0.51100000000E-03 0.  1.
         12    1    3    3    0    0  0.50373678827E+01  0.55313671127E+01 -0.61051900703E+01  0.96563162290E+01  0.00000000000E+00 0. -1.
</event>
<event>
 7    1  0.5411321E-010  0.4778727E+02  0.7816164E-02  0.1312668E+00
        -11   -1    0    0    0    0  0.00000000000E+00  0.00000000000E+00  0.45593999997E+02  0.45594000000E+02  0.51100000000E-03 0. -1.
         11   -1    0    0    0    0 -0.00000000000E+00 -0.00000000000E+00 -0.45593999997E+02  0.45594000000E+02  0.51100000000E-03 0.  1.
    9900012    2    1    2    0    0  0.34714537010E+02 -0.24661464905E+02  0.83867033101E+01  0.47787265865E+02  0.19999976384E+02 0.  0.
         12    1    1    2    0    0 -0.34714537010E+02  0.24661464905E+02 -0.83867033101E+01  0.43400734135E+02  0.00000000000E+00 0. -1.
         11    1    3    3    0    0  0.22423907020E+01  0.17397886129E+01 -0.27423395164E+01  0.39465943246E+01  0.51100000000E-03 0. -1.
        -11    1    3    3    0    0  0.16564267683E+02 -0.11065326182E+02  0.82359192696E+01  0.21555666862E+02  0.51100000000E-03 0.  1.
         12    1    3    3    0    0  0.15907878625E+02 -0.15335927336E+02  0.28931235570E+01  0.22285004678E+02  0.00000000000E+00 0. -1.
</event>
<event>
 7    1  0.5411321E-010  0.4778721E+02  0.7816164E-02  0.1312668E+00
        -11   -1    0    0    0    0  0.00000000000E+00  0.00000000000E+00  0.45593999997E+02  0.45594000000E+02  0.51100000000E-03 0. -1.
         11   -1    0    0    0    0 -0.00000000000E+00 -0.00000000000E+00 -0.45593999997E+02  0.45594000000E+02  0.51100000000E-03 0.  1.
    9900012    2    1    2    0    0 -0.26469410921E+02 -0.33387269192E+02  0.82637157999E+01  0.47787211327E+02  0.19999727723E+02 0.  0.
         12    1    1    2    0    0  0.26469410921E+02  0.33387269192E+02 -0.82637157999E+01  0.43400788673E+02  0.00000000000E+00 0. -1.
         11    1    3    3    0    0 -0.57926414374E+00 -0.51008133964E+01 -0.10676777645E+01  0.52434511844E+01  0.51100000000E-03 0. -1.
        -11    1    3    3    0    0 -0.11844186101E+02 -0.22961848783E+02  0.22425751685E+01  0.25933769251E+02  0.51100000000E-03 0.  1.
        -12    1    3    3    0    0 -0.14045960677E+02 -0.53246070122E+01  0.70888183959E+01  0.16609990891E+02  0.00000000000E+00 0.  1.
</event>
<event>
 7    1  0.5411321E-010  0.4778728E+02  0.7816164E-02  0.1312668E+00
        -11   -1    0    0    0    0  0.00000000000E+00  0.00000000000E+00  0.45593999997E+02  0.45594000000E+02  0.51100000000E-03 0.  1.
         11   -1    0    0    0    0 -0.00000000000E+00 -0.00000000000E+00 -0.45593999997E+02  0.45594000000E+02  0.51100000000E-03 0. -1.
    9900012    2    1    2    0    0 -0.38223390089E+02 -0.91861858538E+01  0.18390462367E+02  0.47787278042E+02  0.20000031904E+02 0.  0.
         12    1    1    2    0    0  0.38223390089E+02  0.91861858538E+01 -0.18390462367E+02  0.43400721958E+02  0.00000000000E+00 0. -1.
         11    1    3    3    0    0 -0.30693941287E+00  0.26560632596E+01 -0.88911672692E+00  0.28176963387E+01  0.51100000000E-03 0. -1.
        -11    1    3    3    0    0 -0.23776355960E+02 -0.55192171830E+01  0.15855307333E+02  0.29106144230E+02  0.51100000000E-03 0.  1.
        -12    1    3    3    0    0 -0.14140094716E+02 -0.63230319304E+01  0.34242717605E+01  0.15863437473E+02  0.00000000000E+00 0.  1.
</event>
<event>
 7    1  0.5411321E-010  0.4778727E+02  0.7816164E-02  0.1312668E+00
        -11   -1    0    0    0    0  0.00000000000E+00  0.00000000000E+00  0.45593999997E+02  0.45594000000E+02  0.51100000000E-03 0. -1.
         11   -1    0    0    0    0 -0.00000000000E+00 -0.00000000000E+00 -0.45593999997E+02  0.45594000000E+02  0.51100000000E-03 0.  1.
    9900012    2    1    2    0    0  0.25292742648E+02  0.81458937505E+01 -0.34315369907E+02  0.47787273882E+02  0.20000012939E+02 0.  0.
         12    1    1    2    0    0 -0.25292742648E+02 -0.81458937505E+01  0.34315369907E+02  0.43400726118E+02  0.00000000000E+00 0. -1.
         11    1    3    3    0    0  0.62684241983E+01 -0.54134331556E-01 -0.17096903488E+02  0.18209892410E+02  0.51100000000E-03 0. -1.
        -11    1    3    3    0    0  0.47722590365E+01  0.45441647127E+01 -0.12491757660E+02  0.14123310481E+02  0.51100000000E-03 0.  1.
         12    1    3    3    0    0  0.14252059414E+02  0.36558633693E+01 -0.47267087593E+01  0.15454070991E+02  0.00000000000E+00 0. -1.
</event>
<event>
 7    1  0.5411321E-010  0.4778726E+02  0.7816164E-02  0.1312668E+00
        -11   -1    0    0    0    0  0.00000000000E+00  0.00000000000E+00  0.45593999997E+02  0.45594000000E+02  0.51100000000E-03 0.  1.
         11   -1    0    0    0    0 -0.00000000000E+00 -0.00000000000E+00 -0.45593999997E+02  0.45594000000E+02  0.51100000000E-03 0. -1.
    9900012    2    1    2    0    0  0.94173568074E+01  0.21217994288E+01  0.42313534742E+02  0.47787264241E+02  0.19999968982E+02 0.  0.
         12    1    1    2    0    0 -0.94173568074E+01 -0.21217994288E+01 -0.42313534742E+02  0.43400735759E+02  0.00000000000E+00 0. -1.
         11    1    3    3    0    0 -0.17316569243E+01 -0.68473495531E+01  0.16168557732E+02  0.17643896707E+02  0.51100000000E-03 0. -1.
        -11    1    3    3    0    0  0.53702853967E+01  0.45551182546E+01  0.83686665738E+01  0.10937259622E+02  0.51100000000E-03 0.  1.
         12    1    3    3    0    0  0.57787283351E+01  0.44140307273E+01  0.17776310436E+02  0.19206107912E+02  0.00000000000E+00 0. -1.
</event>
<event>
 7    1  0.5411321E-010  0.4778725E+02  0.7816164E-02  0.1312668E+00
        -11   -1    0    0    0    0  0.00000000000E+00  0.00000000000E+00  0.45593999997E+02  0.45594000000E+02  0.51100000000E-03 0.  1.
         11   -1    0    0    0    0 -0.00000000000E+00 -0.00000000000E+00 -0.45593999997E+02  0.45594000000E+02  0.51100000000E-03 0. -1.
    9900012    2    1    2    0    0 -0.83029678635E+01  0.34485415551E+02  0.25008838416E+02  0.47787249315E+02  0.19999900926E+02 0.  0.
         12    1    1    2    0    0  0.83029678635E+01 -0.34485415551E+02 -0.25008838416E+02  0.43400750685E+02  0.00000000000E+00 0. -1.
         11    1    3    3    0    0 -0.93977452413E+00  0.14876069837E+02  0.14418734553E+01  0.14975300640E+02  0.51100000000E-03 0. -1.
        -11    1    3    3    0    0 -0.52739675440E+01  0.18630537651E+02  0.16706028463E+02  0.25573483418E+02  0.51100000000E-03 0.  1.
         12    1    3    3    0    0 -0.20892257953E+01  0.97880806306E+00  0.68609364981E+01  0.72384652572E+01  0.00000000000E+00 0. -1.
</event>
<event>
 7    1  0.5411321E-010  0.4778728E+02  0.7816164E-02  0.1312668E+00
        -11   -1    0    0    0    0  0.00000000000E+00  0.00000000000E+00  0.45593999997E+02  0.45594000000E+02  0.51100000000E-03 0.  1.
         11   -1    0    0    0    0 -0.00000000000E+00 -0.00000000000E+00 -0.45593999997E+02  0.45594000000E+02  0.51100000000E-03 0. -1.
    9900012    2    1    2    0    0 -0.12444952041E+02 -0.37359086495E+02  0.18249503849E+02  0.47787279202E+02  0.20000037194E+02 0.  0.
         12    1    1    2    0    0  0.12444952041E+02  0.37359086495E+02 -0.18249503849E+02  0.43400720798E+02  0.00000000000E+00 0. -1.
         11    1    3    3    0    0 -0.71866041773E+01 -0.17559547382E+02 -0.24918540676E+00  0.18974906522E+02  0.51100000000E-03 0. -1.
        -11    1    3    3    0    0 -0.14477871361E+01 -0.16766771624E+02  0.11901384747E+02  0.20612221555E+02  0.51100000000E-03 0.  1.
         12    1    3    3    0    0 -0.38105607277E+01 -0.30327674888E+01  0.65973045084E+01  0.82001511252E+01  0.00000000000E+00 0. -1.
</event>
<event>
 7    1  0.5411321E-010  0.4778726E+02  0.7816164E-02  0.1312668E+00
        -11   -1    0    0    0    0  0.00000000000E+00  0.00000000000E+00  0.45593999997E+02  0.45594000000E+02  0.51100000000E-03 0. -1.
         11   -1    0    0    0    0 -0.00000000000E+00 -0.00000000000E+00 -0.45593999997E+02  0.45594000000E+02  0.51100000000E-03 0.  1.
    9900012    2    1    2    0    0  0.29917037823E+02  0.69929499086E+01 -0.30654423498E+02  0.47787260599E+02  0.19999952376E+02 0.  0.
         12    1    1    2    0    0 -0.29917037823E+02 -0.69929499086E+01  0.30654423498E+02  0.43400739401E+02  0.00000000000E+00 0. -1.
         11    1    3    3    0    0  0.56549323175E+00  0.63830211600E+01 -0.44811796428E+01  0.78194445440E+01  0.51100000000E-03 0. -1.
        -11    1    3    3    0    0  0.20883537402E+02 -0.21856424957E+01 -0.20804634511E+02  0.29558957778E+02  0.51100000000E-03 0.  1.
        -12    1    3    3    0    0  0.84680071888E+01  0.27955712443E+01 -0.53686093447E+01  0.10408858277E+02  0.00000000000E+00 0.  1.
</event>
<event>
 7    1  0.5411321E-010  0.4778727E+02  0.7816164E-02  0.1312668E+00
        -11   -1    0    0    0    0  0.00000000000E+00  0.00000000000E+00  0.45593999997E+02  0.45594000000E+02  0.51100000000E-03 0.  1.
         11   -1    0    0    0    0 -0.00000000000E+00 -0.00000000000E+00 -0.45593999997E+02  0.45594000000E+02  0.51100000000E-03 0. -1.
    9900012    2    1    2    0    0 -0.19541593854E+02 -0.35313883658E+02  0.15958661506E+02  0.47787272513E+02  0.20000006696E+02 0.  0.
         12    1    1    2    0    0  0.19541593854E+02  0.35313883658E+02 -0.15958661506E+02  0.43400727487E+02  0.00000000000E+00 0. -1.
         11    1    3    3    0    0 -0.20536080752E+01 -0.38968758713E+01  0.62438494514E+01  0.76412436105E+01  0.51100000000E-03 0. -1.
        -11    1    3    3    0    0 -0.12996187923E+02 -0.17127918271E+02  0.12559326091E+02  0.24899862589E+02  0.51100000000E-03 0.  1.
        -12    1    3    3    0    0 -0.44917978551E+01 -0.14289089515E+02 -0.28445140365E+01  0.15246166313E+02  0.00000000000E+00 0.  1.
</event>
<event>
 7    1  0.5411321E-010  0.4778727E+02  0.7816164E-02  0.1312668E+00
        -11   -1    0    0    0    0  0.00000000000E+00  0.00000000000E+00  0.45593999997E+02  0.45594000000E+02  0.51100000000E-03 0.  1.
         11   -1    0    0    0    0 -0.00000000000E+00 -0.00000000000E+00 -0.45593999997E+02  0.45594000000E+02  0.51100000000E-03 0. -1.
    9900012    2    1    2    0    0  0.23999361698E+02 -0.32868772683E+02 -0.15076403055E+02  0.47787268339E+02  0.19999987665E+02 0.  0.
         12    1    1    2    0    0 -0.23999361698E+02  0.32868772683E+02  0.15076403055E+02  0.43400731661E+02  0.00000000000E+00 0. -1.
         11    1    3    3    0    0  0.88702271806E+01 -0.26580357068E+01 -0.76780105289E+01  0.12029045265E+02  0.51100000000E-03 0. -1.
        -11    1    3    3    0    0  0.94828265642E+01 -0.24450583534E+02 -0.86087852342E+01  0.27601924177E+02  0.51100000000E-03 0.  1.
         12    1    3    3    0    0  0.56463079531E+01 -0.57601534429E+01  0.12103927077E+01  0.81562988968E+01  0.00000000000E+00 0. -1.
</event>
<event>
 7    1  0.5411321E-010  0.4778728E+02  0.7816164E-02  0.1312668E+00
        -11   -1    0    0    0    0  0.00000000000E+00  0.00000000000E+00  0.45593999997E+02  0.45594000000E+02  0.51100000000E-03 0. -1.
         11   -1    0    0    0    0 -0.00000000000E+00 -0.00000000000E+00 -0.45593999997E+02  0.45594000000E+02  0.51100000000E-03 0.  1.
    9900012    2    1    2    0    0  0.14173619819E+02 -0.40955732333E+02  0.23149079502E+01  0.47787282166E+02  0.20000050706E+02 0.  0.
         12    1    1    2    0    0 -0.14173619819E+02  0.40955732333E+02 -0.23149079502E+01  0.43400717834E+02  0.00000000000E+00 0. -1.
         11    1    3    3    0    0  0.12713237200E+02 -0.19000935543E+02  0.42605630780E+01  0.23255415490E+02  0.51100000000E-03 0. -1.
        -11    1    3    3    0    0 -0.11434068687E+01 -0.21221314491E+02 -0.91500287568E-01  0.21252292595E+02  0.51100000000E-03 0.  1.
         12    1    3    3    0    0  0.26037894870E+01 -0.73348229960E+00 -0.18541548402E+01  0.32795740803E+01  0.00000000000E+00 0. -1.
</event>
<event>
 7    1  0.5411321E-010  0.4778727E+02  0.7816164E-02  0.1312668E+00
        -11   -1    0    0    0    0  0.00000000000E+00  0.00000000000E+00  0.45593999997E+02  0.45594000000E+02  0.51100000000E-03 0. -1.
         11   -1    0    0    0    0 -0.00000000000E+00 -0.00000000000E+00 -0.45593999997E+02  0.45594000000E+02  0.51100000000E-03 0.  1.
    9900012    2    1    2    0    0 -0.19713136597E+02  0.27908608153E+02 -0.26760518773E+02  0.47787268111E+02  0.19999986625E+02 0.  0.
         12    1    1    2    0    0  0.19713136597E+02 -0.27908608153E+02  0.26760518773E+02  0.43400731889E+02  0.00000000000E+00 0. -1.
         11    1    3    3    0    0 -0.19399987703E+02  0.18127133162E+02 -0.22576111447E+02  0.34851589460E+02  0.51100000000E-03 0. -1.
        -11    1    3    3    0    0 -0.27017632454E+01  0.80897213558E+01 -0.96308769304E+00  0.85831610969E+01  0.51100000000E-03 0.  1.
         12    1    3    3    0    0  0.23886143519E+01  0.16917536352E+01 -0.32213196328E+01  0.43525175543E+01  0.00000000000E+00 0. -1.
</event>
<event>
 7    1  0.5411321E-010  0.4778727E+02  0.7816164E-02  0.1312668E+00
        -11   -1    0    0    0    0  0.00000000000E+00  0.00000000000E+00  0.45593999997E+02  0.45594000000E+02  0.51100000000E-03 0.  1.
         11   -1    0    0    0    0 -0.00000000000E+00 -0.00000000000E+00 -0.45593999997E+02  0.45594000000E+02  0.51100000000E-03 0. -1.
    9900012    2    1    2    0    0 -0.59936832153E+01  0.42631698234E+02  0.54988266992E+01  0.47787273879E+02  0.20000012923E+02 0.  0.
         12    1    1    2    0    0  0.59936832153E+01 -0.42631698234E+02 -0.54988266992E+01  0.43400726121E+02  0.00000000000E+00 0. -1.
         11    1    3    3    0    0  0.38404651147E+01  0.97722416398E+01 -0.51719898032E+01  0.11704501602E+02  0.51100000000E-03 0. -1.
        -11    1    3    3    0    0 -0.11012006998E+01  0.12120220456E+01  0.56629890591E+00  0.17327247710E+01  0.51100000000E-03 0.  1.
         12    1    3    3    0    0 -0.87329476302E+01  0.31647434548E+02  0.10104517597E+02  0.34350047506E+02  0.00000000000E+00 0. -1.
</event>
<event>
 7    1  0.5411321E-010  0.4778727E+02  0.7816164E-02  0.1312668E+00
        -11   -1    0    0    0    0  0.00000000000E+00  0.00000000000E+00  0.45593999997E+02  0.45594000000E+02  0.51100000000E-03 0. -1.
         11   -1    0    0    0    0 -0.00000000000E+00 -0.00000000000E+00 -0.45593999997E+02  0.45594000000E+02  0.51100000000E-03 0.  1.
    9900012    2    1    2    0    0  0.35403289568E+02 -0.23956390765E+02 -0.75047794298E+01  0.47787270916E+02  0.19999999414E+02 0.  0.
         12    1    1    2    0    0 -0.35403289568E+02  0.23956390765E+02  0.75047794298E+01  0.43400729084E+02  0.00000000000E+00 0. -1.
         11    1    3    3    0    0  0.56050344344E+00 -0.25682665991E+01  0.31824825522E+01  0.41277539765E+01  0.51100000000E-03 0. -1.
        -11    1    3    3    0    0  0.25220790541E+02 -0.18450752664E+02 -0.12080593816E+02  0.33503123684E+02  0.51100000000E-03 0.  1.
         12    1    3    3    0    0  0.96219955840E+01 -0.29373715014E+01  0.13933318340E+01  0.10156393255E+02  0.00000000000E+00 0. -1.
</event>
<event>
 7    1  0.5411321E-010  0.4778728E+02  0.7816164E-02  0.1312668E+00
        -11   -1    0    0    0    0  0.00000000000E+00  0.00000000000E+00  0.45593999997E+02  0.45594000000E+02  0.51100000000E-03 0. -1.
         11   -1    0    0    0    0 -0.00000000000E+00 -0.00000000000E+00 -0.45593999997E+02  0.45594000000E+02  0.51100000000E-03 0.  1.
    9900012    2    1    2    0    0 -0.93997966517E+01  0.40187415862E+02 -0.13425268647E+02  0.47787281008E+02  0.20000045430E+02 0.  0.
         12    1    1    2    0    0  0.93997966517E+01 -0.40187415862E+02  0.13425268647E+02  0.43400718992E+02  0.00000000000E+00 0. -1.
         11    1    3    3    0    0 -0.11039060053E+02  0.32293517128E+02 -0.95810545883E+01  0.35447548613E+02  0.51100000000E-03 0. -1.
        -11    1    3    3    0    0 -0.31456501644E+01  0.26434160409E+01  0.29258083476E+00  0.41192677903E+01  0.51100000000E-03 0.  1.
         12    1    3    3    0    0  0.47849135658E+01  0.52504826928E+01 -0.41367948934E+01  0.82204646054E+01  0.00000000000E+00 0. -1.
</event>
<event>
 7    1  0.5411321E-010  0.4778728E+02  0.7816164E-02  0.1312668E+00
        -11   -1    0    0    0    0  0.00000000000E+00  0.00000000000E+00  0.45593999997E+02  0.45594000000E+02  0.51100000000E-03 0.  1.
         11   -1    0    0    0    0 -0.00000000000E+00 -0.00000000000E+00 -0.45593999997E+02  0.45594000000E+02  0.51100000000E-03 0. -1.
    9900012    2    1    2    0    0 -0.23410801134E+02  0.14012866505E+02  0.33751985301E+02  0.47787279393E+02  0.20000038066E+02 0.  0.
         12    1    1    2    0    0  0.23410801134E+02 -0.14012866505E+02 -0.33751985301E+02  0.43400720607E+02  0.00000000000E+00 0. -1.
         11    1    3    3    0    0 -0.17826519967E+02  0.11122353420E+02  0.15248950879E+02  0.25961934884E+02  0.51100000000E-03 0.  1.
        -11    1    3    3    0    0 -0.26018590076E+01  0.25823564079E+01  0.18466482706E+02  0.18826821790E+02  0.51100000000E-03 0. -1.
         12    1    3    3    0    0 -0.29824221588E+01  0.30815667698E+00  0.36551715832E-01  0.29985227194E+01  0.00000000000E+00 0. -1.
</event>
<event>
 7    1  0.5411321E-010  0.4778727E+02  0.7816164E-02  0.1312668E+00
        -11   -1    0    0    0    0  0.00000000000E+00  0.00000000000E+00  0.45593999997E+02  0.45594000000E+02  0.51100000000E-03 0.  1.
         11   -1    0    0    0    0 -0.00000000000E+00 -0.00000000000E+00 -0.45593999997E+02  0.45594000000E+02  0.51100000000E-03 0. -1.
    9900012    2    1    2    0    0 -0.34337946066E+02  0.13252543568E+02  0.22997802097E+02  0.47787270141E+02  0.19999995879E+02 0.  0.
         12    1    1    2    0    0  0.34337946066E+02 -0.13252543568E+02 -0.22997802097E+02  0.43400729859E+02  0.00000000000E+00 0. -1.
         11    1    3    3    0    0 -0.23240467907E+02  0.80998442943E+00  0.16986962703E+02  0.28798130590E+02  0.51100000000E-03 0. -1.
        -11    1    3    3    0    0 -0.74657002615E+01  0.61353186208E+01  0.18258452475E+00  0.96649962412E+01  0.51100000000E-03 0.  1.
         12    1    3    3    0    0 -0.36317778971E+01  0.63072405177E+01  0.58282548691E+01  0.93241433098E+01  0.00000000000E+00 0. -1.
</event>
<event>
 7    1  0.5411321E-010  0.4778728E+02  0.7816164E-02  0.1312668E+00
        -11   -1    0    0    0    0  0.00000000000E+00  0.00000000000E+00  0.45593999997E+02  0.45594000000E+02  0.51100000000E-03 0.  1.
         11   -1    0    0    0    0 -0.00000000000E+00 -0.00000000000E+00 -0.45593999997E+02  0.45594000000E+02  0.51100000000E-03 0. -1.
    9900012    2    1    2    0    0  0.90908222713E+01 -0.40940686075E+02  0.11173176767E+02  0.47787277599E+02  0.20000029883E+02 0.  0.
         12    1    1    2    0    0 -0.90908222713E+01  0.40940686075E+02 -0.11173176767E+02  0.43400722401E+02  0.00000000000E+00 0. -1.
         11    1    3    3    0    0 -0.25312757530E+01 -0.16572558947E+00  0.59277267595E+00  0.26050338990E+01  0.51100000000E-03 0. -1.
        -11    1    3    3    0    0  0.75497411553E+01 -0.25227797816E+02  0.12213647166E+02  0.29027806523E+02  0.51100000000E-03 0.  1.
         12    1    3    3    0    0  0.40723568690E+01 -0.15547162670E+02 -0.16332430756E+01  0.16154437177E+02  0.00000000000E+00 0. -1.
</event>
<event>
 7    1  0.5411321E-010  0.4778727E+02  0.7816164E-02  0.1312668E+00
        -11   -1    0    0    0    0  0.00000000000E+00  0.00000000000E+00  0.45593999997E+02  0.45594000000E+02  0.51100000000E-03 0.  1.
         11   -1    0    0    0    0 -0.00000000000E+00 -0.00000000000E+00 -0.45593999997E+02  0.45594000000E+02  0.51100000000E-03 0. -1.
    9900012    2    1    2    0    0 -0.42105667726E+02  0.50429305497E+01  0.92360639179E+01  0.47787270975E+02  0.19999999683E+02 0.  0.
         12    1    1    2    0    0  0.42105667726E+02 -0.50429305497E+01 -0.92360639179E+01  0.43400729025E+02  0.00000000000E+00 0. -1.
         11    1    3    3    0    0 -0.76956022627E+01  0.17476613626E+01  0.44676235232E+01  0.90684218379E+01  0.51100000000E-03 0. -1.
        -11    1    3    3    0    0 -0.16409945409E+02  0.83046561262E+01 -0.27164687291E+01  0.18591202875E+02  0.51100000000E-03 0.  1.
        -12    1    3    3    0    0 -0.18000120054E+02 -0.50093869391E+01  0.74849091238E+01  0.20127646263E+02  0.00000000000E+00 0.  1.
</event>
<event>
 7    1  0.5411321E-010  0.4778728E+02  0.7816164E-02  0.1312668E+00
        -11   -1    0    0    0    0  0.00000000000E+00  0.00000000000E+00  0.45593999997E+02  0.45594000000E+02  0.51100000000E-03 0. -1.
         11   -1    0    0    0    0 -0.00000000000E+00 -0.00000000000E+00 -0.45593999997E+02  0.45594000000E+02  0.51100000000E-03 0.  1.
    9900012    2    1    2    0    0  0.12138818896E+02 -0.28680468823E+02 -0.30227515678E+02  0.47787275120E+02  0.20000018582E+02 0.  0.
         12    1    1    2    0    0 -0.12138818896E+02  0.28680468823E+02  0.30227515678E+02  0.43400724880E+02  0.00000000000E+00 0. -1.
         11    1    3    3    0    0  0.15041180016E+02 -0.18443986193E+02 -0.22391841712E+02  0.32677397364E+02  0.51100000000E-03 0. -1.
        -11    1    3    3    0    0  0.11448831116E+01 -0.39201747192E+01 -0.62123793133E+01  0.74345264921E+01  0.51100000000E-03 0.  1.
         12    1    3    3    0    0 -0.40472442320E+01 -0.63163079104E+01 -0.16232946519E+01  0.76753512635E+01  0.00000000000E+00 0. -1.
</event>
<event>
 7    1  0.5411321E-010  0.4778726E+02  0.7816164E-02  0.1312668E+00
        -11   -1    0    0    0    0  0.00000000000E+00  0.00000000000E+00  0.45593999997E+02  0.45594000000E+02  0.51100000000E-03 0.  1.
         11   -1    0    0    0    0 -0.00000000000E+00 -0.00000000000E+00 -0.45593999997E+02  0.45594000000E+02  0.51100000000E-03 0. -1.
    9900012    2    1    2    0    0 -0.26098907287E+02 -0.11997252982E+02  0.32535171213E+02  0.47787257996E+02  0.19999940507E+02 0.  0.
         12    1    1    2    0    0  0.26098907287E+02  0.11997252982E+02 -0.32535171213E+02  0.43400742004E+02  0.00000000000E+00 0. -1.
         11    1    3    3    0    0 -0.25248707968E+02 -0.85554065074E+01  0.19168020404E+02  0.32834512955E+02  0.51100000000E-03 0. -1.
        -11    1    3    3    0    0  0.11429052737E+01 -0.38868435674E+01  0.11473228017E+02  0.12167528376E+02  0.51100000000E-03 0.  1.
         12    1    3    3    0    0 -0.19931045926E+01  0.44499709281E+00  0.18939227918E+01  0.27852166650E+01  0.00000000000E+00 0. -1.
</event>
<event>
 7    1  0.5411321E-010  0.4778727E+02  0.7816164E-02  0.1312668E+00
        -11   -1    0    0    0    0  0.00000000000E+00  0.00000000000E+00  0.45593999997E+02  0.45594000000E+02  0.51100000000E-03 0.  1.
         11   -1    0    0    0    0 -0.00000000000E+00 -0.00000000000E+00 -0.45593999997E+02  0.45594000000E+02  0.51100000000E-03 0. -1.
    9900012    2    1    2    0    0  0.22344233291E+02  0.32423513679E+02  0.18250322590E+02  0.47787271028E+02  0.19999999926E+02 0.  0.
         12    1    1    2    0    0 -0.22344233291E+02 -0.32423513679E+02 -0.18250322590E+02  0.43400728972E+02  0.00000000000E+00 0. -1.
         11    1    3    3    0    0  0.43602599621E+01  0.12663571100E+02  0.35263288024E+01  0.13849653246E+02  0.51100000000E-03 0. -1.
        -11    1    3    3    0    0  0.61499018200E+01  0.63894387443E+00  0.86722106639E+01  0.10650670389E+02  0.51100000000E-03 0.  1.
        -12    1    3    3    0    0  0.11834071509E+02  0.19120998704E+02  0.60517831235E+01  0.23286947393E+02  0.00000000000E+00 0.  1.
</event>
<event>
 7    1  0.5411321E-010  0.4778727E+02  0.7816164E-02  0.1312668E+00
        -11   -1    0    0    0    0  0.00000000000E+00  0.00000000000E+00  0.45593999997E+02  0.45594000000E+02  0.51100000000E-03 0. -1.
         11   -1    0    0    0    0 -0.00000000000E+00 -0.00000000000E+00 -0.45593999997E+02  0.45594000000E+02  0.51100000000E-03 0.  1.
    9900012    2    1    2    0    0  0.41058145860E+02  0.12386550124E+02 -0.66652267631E+01  0.47787271743E+02  0.20000003185E+02 0.  0.
         12    1    1    2    0    0 -0.41058145860E+02 -0.12386550124E+02  0.66652267631E+01  0.43400728257E+02  0.00000000000E+00 0. -1.
         11    1    3    3    0    0  0.31644796863E+02  0.91551746923E+01 -0.39056328931E+00  0.32944846821E+02  0.51100000000E-03 0.  1.
        -11    1    3    3    0    0  0.36375068060E+01  0.43709157349E+01 -0.68781168533E+01  0.89243964409E+01  0.51100000000E-03 0. -1.
        -12    1    3    3    0    0  0.57758421913E+01 -0.11395403032E+01  0.60345337953E+00  0.59180284811E+01  0.00000000000E+00 0.  1.
</event>
<event>
 7    1  0.5411321E-010  0.4778727E+02  0.7816164E-02  0.1312668E+00
        -11   -1    0    0    0    0  0.00000000000E+00  0.00000000000E+00  0.45593999997E+02  0.45594000000E+02  0.51100000000E-03 0.  1.
         11   -1    0    0    0    0 -0.00000000000E+00 -0.00000000000E+00 -0.45593999997E+02  0.45594000000E+02  0.51100000000E-03 0. -1.
    9900012    2    1    2    0    0  0.12431885741E+02 -0.10969692611E+02  0.40109065472E+02  0.47787273369E+02  0.20000010599E+02 0.  0.
         12    1    1    2    0    0 -0.12431885741E+02  0.10969692611E+02 -0.40109065472E+02  0.43400726631E+02  0.00000000000E+00 0. -1.
         11    1    3    3    0    0  0.15955687039E+02 -0.91147646113E+01  0.23622712088E+02  0.29928170834E+02  0.51100000000E-03 0. -1.
        -11    1    3    3    0    0 -0.46117033897E+01  0.97318769299E-01  0.10470766003E+02  0.11441775214E+02  0.51100000000E-03 0.  1.
        -12    1    3    3    0    0  0.10879020915E+01 -0.19522467687E+01  0.60155873806E+01  0.64173273206E+01  0.00000000000E+00 0.  1.
</event>
<event>
 7    1  0.5411321E-010  0.4778733E+02  0.7816164E-02  0.1312668E+00
        -11   -1    0    0    0    0  0.00000000000E+00  0.00000000000E+00  0.45593999997E+02  0.45594000000E+02  0.51100000000E-03 0. -1.
         11   -1    0    0    0    0 -0.00000000000E+00 -0.00000000000E+00 -0.45593999997E+02  0.45594000000E+02  0.51100000000E-03 0.  1.
    9900012    2    1    2    0    0  0.20242943862E+02  0.15721021783E+02 -0.35024152186E+02  0.47787325599E+02  0.20000248734E+02 0.  0.
         12    1    1    2    0    0 -0.20242943862E+02 -0.15721021783E+02  0.35024152186E+02  0.43400674401E+02  0.00000000000E+00 0. -1.
         11    1    3    3    0    0  0.86037588659E+00  0.18181003318E+01 -0.55279792451E+01  0.58825411412E+01  0.51100000000E-03 0. -1.
        -11    1    3    3    0    0 -0.23144885044E+01  0.61076817702E+01 -0.85194983004E+01  0.10735105272E+02  0.51100000000E-03 0.  1.
        -12    1    3    3    0    0  0.21697056480E+02  0.77952396815E+01 -0.20976674641E+02  0.31169679186E+02  0.00000000000E+00 0.  1.
</event>
<event>
 7    1  0.5411321E-010  0.4778728E+02  0.7816164E-02  0.1312668E+00
        -11   -1    0    0    0    0  0.00000000000E+00  0.00000000000E+00  0.45593999997E+02  0.45594000000E+02  0.51100000000E-03 0. -1.
         11   -1    0    0    0    0 -0.00000000000E+00 -0.00000000000E+00 -0.45593999997E+02  0.45594000000E+02  0.51100000000E-03 0.  1.
    9900012    2    1    2    0    0  0.52443375492E+01 -0.35829841333E+02 -0.23923675994E+02  0.47787275589E+02  0.20000020722E+02 0.  0.
         12    1    1    2    0    0 -0.52443375492E+01  0.35829841333E+02  0.23923675994E+02  0.43400724411E+02  0.00000000000E+00 0. -1.
         11    1    3    3    0    0  0.79021861759E+01 -0.35446498409E+02 -0.19079873945E+02  0.41023656417E+02  0.51100000000E-03 0. -1.
        -11    1    3    3    0    0 -0.13463853390E+01  0.17090938369E+01 -0.16726438086E+01  0.27443565359E+01  0.51100000000E-03 0.  1.
         12    1    3    3    0    0 -0.13114632877E+01 -0.20924367617E+01 -0.31711582402E+01  0.40192626365E+01  0.00000000000E+00 0. -1.
</event>
<event>
 7    1  0.5411321E-010  0.4778727E+02  0.7816164E-02  0.1312668E+00
        -11   -1    0    0    0    0  0.00000000000E+00  0.00000000000E+00  0.45593999997E+02  0.45594000000E+02  0.51100000000E-03 0.  1.
         11   -1    0    0    0    0 -0.00000000000E+00 -0.00000000000E+00 -0.45593999997E+02  0.45594000000E+02  0.51100000000E-03 0. -1.
    9900012    2    1    2    0    0  0.29003926498E+02  0.17743609805E+02  0.26973318360E+02  0.47787270230E+02  0.19999996286E+02 0.  0.
         12    1    1    2    0    0 -0.29003926498E+02 -0.17743609805E+02 -0.26973318360E+02  0.43400729770E+02  0.00000000000E+00 0. -1.
         11    1    3    3    0    0  0.14806787090E+01  0.74213435054E+01  0.52203746834E+01  0.91935336492E+01  0.51100000000E-03 0. -1.
        -11    1    3    3    0    0  0.26716081915E+02  0.77597529670E+01  0.15636767998E+02  0.31913497344E+02  0.51100000000E-03 0.  1.
        -12    1    3    3    0    0  0.80716587327E+00  0.25625133330E+01  0.61161756786E+01  0.66802392368E+01  0.00000000000E+00 0.  1.
</event>
<event>
 7    1  0.5411321E-010  0.4778727E+02  0.7816164E-02  0.1312668E+00
        -11   -1    0    0    0    0  0.00000000000E+00  0.00000000000E+00  0.45593999997E+02  0.45594000000E+02  0.51100000000E-03 0. -1.
         11   -1    0    0    0    0 -0.00000000000E+00 -0.00000000000E+00 -0.45593999997E+02  0.45594000000E+02  0.51100000000E-03 0.  1.
    9900012    2    1    2    0    0  0.26469502778E+02 -0.88303577198E+01 -0.33241747144E+02  0.47787267887E+02  0.19999985604E+02 0.  0.
         12    1    1    2    0    0 -0.26469502778E+02  0.88303577198E+01  0.33241747144E+02  0.43400732113E+02  0.00000000000E+00 0. -1.
         11    1    3    3    0    0  0.31496810927E-01 -0.39292570484E+01 -0.10041096257E+02  0.10782563114E+02  0.51100000000E-03 0. -1.
        -11    1    3    3    0    0  0.16841586872E+02 -0.40385117831E+00 -0.84645024925E+01  0.18853380250E+02  0.51100000000E-03 0.  1.
         12    1    3    3    0    0  0.95964190952E+01 -0.44972494931E+01 -0.14736148394E+02  0.18151324523E+02  0.00000000000E+00 0. -1.
</event>
<event>
 7    1  0.5411321E-010  0.4778727E+02  0.7816164E-02  0.1312668E+00
        -11   -1    0    0    0    0  0.00000000000E+00  0.00000000000E+00  0.45593999997E+02  0.45594000000E+02  0.51100000000E-03 0. -1.
         11   -1    0    0    0    0 -0.00000000000E+00 -0.00000000000E+00 -0.45593999997E+02  0.45594000000E+02  0.51100000000E-03 0.  1.
    9900012    2    1    2    0    0  0.56340151615E+01  0.23672460161E+02 -0.35937385057E+02  0.47787272568E+02  0.20000006945E+02 0.  0.
         12    1    1    2    0    0 -0.56340151615E+01 -0.23672460161E+02  0.35937385057E+02  0.43400727432E+02  0.00000000000E+00 0. -1.
         11    1    3    3    0    0 -0.54244109579E+00  0.80715925406E+01 -0.28679736976E+01  0.85831300745E+01  0.51100000000E-03 0. -1.
        -11    1    3    3    0    0  0.41449282634E+01  0.11215830361E+02 -0.98638007739E+01  0.15500640212E+02  0.51100000000E-03 0.  1.
         12    1    3    3    0    0  0.20315279939E+01  0.43850372592E+01 -0.23205610586E+02  0.23703502281E+02  0.00000000000E+00 0. -1.
</event>
<event>
 7    1  0.5411321E-010  0.4778727E+02  0.7816164E-02  0.1312668E+00
        -11   -1    0    0    0    0  0.00000000000E+00  0.00000000000E+00  0.45593999997E+02  0.45594000000E+02  0.51100000000E-03 0.  1.
         11   -1    0    0    0    0 -0.00000000000E+00 -0.00000000000E+00 -0.45593999997E+02  0.45594000000E+02  0.51100000000E-03 0. -1.
    9900012    2    1    2    0    0 -0.97232453375E+01  0.19634629816E+02  0.37464158266E+02  0.47787270254E+02  0.19999996396E+02 0.  0.
         12    1    1    2    0    0  0.97232453375E+01 -0.19634629816E+02 -0.37464158266E+02  0.43400729746E+02  0.00000000000E+00 0. -1.
         11    1    3    3    0    0 -0.67262975852E-01  0.81255433629E+01  0.25071875146E+02  0.26355794483E+02  0.51100000000E-03 0. -1.
        -11    1    3    3    0    0 -0.10527082942E+02  0.70155295347E+01  0.10640488287E+02  0.16530490652E+02  0.51100000000E-03 0.  1.
        -12    1    3    3    0    0  0.87110058079E+00  0.44935569188E+01  0.17517948328E+01  0.49009851194E+01  0.00000000000E+00 0.  1.
</event>
<event>
 7    1  0.5411321E-010  0.4778726E+02  0.7816164E-02  0.1312668E+00
        -11   -1    0    0    0    0  0.00000000000E+00  0.00000000000E+00  0.45593999997E+02  0.45594000000E+02  0.51100000000E-03 0.  1.
         11   -1    0    0    0    0 -0.00000000000E+00 -0.00000000000E+00 -0.45593999997E+02  0.45594000000E+02  0.51100000000E-03 0. -1.
    9900012    2    1    2    0    0  0.25107696936E+02  0.25555278952E+02  0.24498067869E+02  0.47787262022E+02  0.19999958861E+02 0.  0.
         12    1    1    2    0    0 -0.25107696936E+02 -0.25555278952E+02 -0.24498067869E+02  0.43400737978E+02  0.00000000000E+00 0. -1.
         11    1    3    3    0    0  0.15087428962E+02  0.74172475627E+01  0.20207107089E+02  0.26286370066E+02  0.51100000000E-03 0. -1.
        -11    1    3    3    0    0  0.83618201593E+01  0.16433061162E+02  0.48337215506E+01  0.19061227658E+02  0.51100000000E-03 0.  1.
         12    1    3    3    0    0  0.16584478143E+01  0.17049702279E+01 -0.54276077092E+00  0.24396642976E+01  0.00000000000E+00 0. -1.
</event>
<event>
 7    1  0.5411321E-010  0.4778727E+02  0.7816164E-02  0.1312668E+00
        -11   -1    0    0    0    0  0.00000000000E+00  0.00000000000E+00  0.45593999997E+02  0.45594000000E+02  0.51100000000E-03 0.  1.
         11   -1    0    0    0    0 -0.00000000000E+00 -0.00000000000E+00 -0.45593999997E+02  0.45594000000E+02  0.51100000000E-03 0. -1.
    9900012    2    1    2    0    0  0.36459016960E+01  0.61183990558E+01  0.42812329470E+02  0.47787274651E+02  0.20000016442E+02 0.  0.
         12    1    1    2    0    0 -0.36459016960E+01 -0.61183990558E+01 -0.42812329470E+02  0.43400725349E+02  0.00000000000E+00 0. -1.
         11    1    3    3    0    0 -0.24922311166E+01  0.89209396632E+01  0.34878169280E+02  0.36087131681E+02  0.51100000000E-03 0.  1.
        -11    1    3    3    0    0  0.26714578420E+01  0.40077198749E+00  0.60356107240E+01  0.66125564089E+01  0.51100000000E-03 0. -1.
         12    1    3    3    0    0  0.34666749707E+01 -0.32033125949E+01  0.18985494665E+01  0.50875865604E+01  0.00000000000E+00 0. -1.
</event>
<event>
 7    1  0.5411321E-010  0.4778727E+02  0.7816164E-02  0.1312668E+00
        -11   -1    0    0    0    0  0.00000000000E+00  0.00000000000E+00  0.45593999997E+02  0.45594000000E+02  0.51100000000E-03 0. -1.
         11   -1    0    0    0    0 -0.00000000000E+00 -0.00000000000E+00 -0.45593999997E+02  0.45594000000E+02  0.51100000000E-03 0.  1.
    9900012    2    1    2    0    0 -0.20576599061E+00  0.42933110771E+02 -0.63505148766E+01  0.47787269830E+02  0.19999994462E+02 0.  0.
         12    1    1    2    0    0  0.20576599061E+00 -0.42933110771E+02  0.63505148766E+01  0.43400730170E+02  0.00000000000E+00 0. -1.
         11    1    3    3    0    0  0.22026046611E+01  0.35811282335E+02  0.21661339794E+01  0.35944283919E+02  0.51100000000E-03 0.  1.
        -11    1    3    3    0    0 -0.29650925732E+01  0.60368534482E+01 -0.81556834872E+01  0.10571213125E+02  0.51100000000E-03 0. -1.
        -12    1    3    3    0    0  0.55672192148E+00  0.10849749874E+01 -0.36096536879E+00  0.12717727858E+01  0.00000000000E+00 0.  1.
</event>
<event>
 7    1  0.5411321E-010  0.4778728E+02  0.7816164E-02  0.1312668E+00
        -11   -1    0    0    0    0  0.00000000000E+00  0.00000000000E+00  0.45593999997E+02  0.45594000000E+02  0.51100000000E-03 0.  1.
         11   -1    0    0    0    0 -0.00000000000E+00 -0.00000000000E+00 -0.45593999997E+02  0.45594000000E+02  0.51100000000E-03 0. -1.
    9900012    2    1    2    0    0  0.29242655880E+02  0.65739894880E+01  0.31389051377E+02  0.47787276423E+02  0.20000024522E+02 0.  0.
         12    1    1    2    0    0 -0.29242655880E+02 -0.65739894880E+01 -0.31389051377E+02  0.43400723577E+02  0.00000000000E+00 0. -1.
         11    1    3    3    0    0  0.98723892613E+00  0.12045794714E+00 -0.10017574116E+01  0.14116192784E+01  0.51100000000E-03 0. -1.
        -11    1    3    3    0    0  0.14081074588E+02 -0.25245222580E+00  0.25744083440E+02  0.29344475223E+02  0.51100000000E-03 0.  1.
        -12    1    3    3    0    0  0.14174342366E+02  0.67059837666E+01  0.66467253480E+01  0.17031181921E+02  0.00000000000E+00 0.  1.
</event>
<event>
 7    1 -0.5411321E-010  0.4778727E+02  0.7816164E-02  0.1312668E+00
        -11   -1    0    0    0    0  0.00000000000E+00  0.00000000000E+00  0.45593999997E+02  0.45594000000E+02  0.51100000000E-03 0. -1.
         11   -1    0    0    0    0 -0.00000000000E+00 -0.00000000000E+00 -0.45593999997E+02  0.45594000000E+02  0.51100000000E-03 0.  1.
    9900012    2    1    2    0    0  0.20694459274E+02  0.28155786108E+02 -0.25741297967E+02  0.47787270087E+02  0.19999995633E+02 0.  0.
         12    1    1    2    0    0 -0.20694459274E+02 -0.28155786108E+02  0.25741297967E+02  0.43400729913E+02  0.00000000000E+00 0. -1.
         11    1    3    3    0    0  0.15513793016E+02  0.24034727916E+02 -0.17998401043E+02  0.33797756731E+02  0.51100000000E-03 0. -1.
        -11    1    3    3    0    0  0.79128723794E+01  0.33547027052E+01 -0.69221122912E+01  0.11035543411E+02  0.51100000000E-03 0.  1.
         12    1    3    3    0    0 -0.27322061210E+01  0.76635548697E+00 -0.82078463273E+00  0.29539699445E+01  0.00000000000E+00 0. -1.
</event>
<event>
 7    1  0.5411321E-010  0.4778727E+02  0.7816164E-02  0.1312668E+00
        -11   -1    0    0    0    0  0.00000000000E+00  0.00000000000E+00  0.45593999997E+02  0.45594000000E+02  0.51100000000E-03 0. -1.
         11   -1    0    0    0    0 -0.00000000000E+00 -0.00000000000E+00 -0.45593999997E+02  0.45594000000E+02  0.51100000000E-03 0.  1.
    9900012    2    1    2    0    0  0.24083169311E+02 -0.34001576410E+02 -0.12145656395E+02  0.47787271760E+02  0.20000003264E+02 0.  0.
         12    1    1    2    0    0 -0.24083169311E+02  0.34001576410E+02  0.12145656395E+02  0.43400728240E+02  0.00000000000E+00 0. -1.
         11    1    3    3    0    0 -0.89022065629E+00 -0.11188434869E+02 -0.13197258762E+01  0.11301116949E+02  0.51100000000E-03 0.  1.
        -11    1    3    3    0    0  0.17769263842E+02 -0.12542324603E+02 -0.37129279116E+01  0.22064507197E+02  0.51100000000E-03 0. -1.
         12    1    3    3    0    0  0.72041261259E+01 -0.10270816938E+02 -0.71130026075E+01  0.14421647614E+02  0.00000000000E+00 0. -1.
</event>
<event>
 7    1  0.5411321E-010  0.4778728E+02  0.7816164E-02  0.1312668E+00
        -11   -1    0    0    0    0  0.00000000000E+00  0.00000000000E+00  0.45593999997E+02  0.45594000000E+02  0.51100000000E-03 0.  1.
         11   -1    0    0    0    0 -0.00000000000E+00 -0.00000000000E+00 -0.45593999997E+02  0.45594000000E+02  0.51100000000E-03 0. -1.
    9900012    2    1    2    0    0 -0.31284663129E+02 -0.29587620224E+02 -0.54282125183E+01  0.47787275251E+02  0.20000019178E+02 0.  0.
         12    1    1    2    0    0  0.31284663129E+02  0.29587620224E+02  0.54282125183E+01  0.43400724749E+02  0.00000000000E+00 0. -1.
         11    1    3    3    0    0 -0.66593181363E+00  0.11345177614E+01  0.22150130964E+01  0.25762140846E+01  0.51100000000E-03 0. -1.
        -11    1    3    3    0    0 -0.26200110918E+02 -0.24304712551E+02 -0.99291574382E+01  0.37091144928E+02  0.51100000000E-03 0.  1.
        -12    1    3    3    0    0 -0.44186203969E+01 -0.64174254343E+01  0.22859318235E+01  0.81199162384E+01  0.00000000000E+00 0.  1.
</event>
<event>
 7    1  0.5411321E-010  0.4778727E+02  0.7816164E-02  0.1312668E+00
        -11   -1    0    0    0    0  0.00000000000E+00  0.00000000000E+00  0.45593999997E+02  0.45594000000E+02  0.51100000000E-03 0.  1.
         11   -1    0    0    0    0 -0.00000000000E+00 -0.00000000000E+00 -0.45593999997E+02  0.45594000000E+02  0.51100000000E-03 0. -1.
    9900012    2    1    2    0    0 -0.27748492034E+02 -0.62167566429E+01  0.32787133235E+02  0.47787274440E+02  0.20000015483E+02 0.  0.
         12    1    1    2    0    0  0.27748492034E+02  0.62167566429E+01 -0.32787133235E+02  0.43400725560E+02  0.00000000000E+00 0. -1.
         11    1    3    3    0    0 -0.74509734610E+00  0.12603282056E+01 -0.58003926285E+00  0.15748152427E+01  0.51100000000E-03 0. -1.
        -11    1    3    3    0    0 -0.26808607994E+02 -0.29301442256E+01  0.30978587691E+02  0.41072619875E+02  0.51100000000E-03 0.  1.
        -12    1    3    3    0    0 -0.19478669413E+00 -0.45469406230E+01  0.23885848065E+01  0.51398393227E+01  0.00000000000E+00 0.  1.
</event>
<event>
 7    1  0.5597330E-010  0.4778727E+02  0.7816164E-02  0.1312668E+00
        -11   -1    0    0    0    0  0.00000000000E+00  0.00000000000E+00  0.45593999997E+02  0.45594000000E+02  0.51100000000E-03 0. -1.
         11   -1    0    0    0    0 -0.00000000000E+00 -0.00000000000E+00 -0.45593999997E+02  0.45594000000E+02  0.51100000000E-03 0.  1.
    9900012    2    1    2    0    0 -0.14795455349E+02  0.25408702703E+02 -0.31923592254E+02  0.47787269425E+02  0.19999992618E+02 0.  0.
         12    1    1    2    0    0  0.14795455349E+02 -0.25408702703E+02  0.31923592254E+02  0.43400730575E+02  0.00000000000E+00 0. -1.
         11    1    3    3    0    0 -0.17287739112E+01  0.20222845673E+01  0.16473634910E+01  0.31292332671E+01  0.51100000000E-03 0. -1.
        -11    1    3    3    0    0 -0.15445043198E+02  0.19588172016E+02 -0.29089901792E+02  0.38320597971E+02  0.51100000000E-03 0.  1.
        -12    1    3    3    0    0  0.23783617605E+01  0.37982461192E+01 -0.44810539526E+01  0.63374381868E+01  0.00000000000E+00 0.  1.
</event>
<event>
 7    1  0.5411321E-010  0.4778727E+02  0.7816164E-02  0.1312668E+00
        -11   -1    0    0    0    0  0.00000000000E+00  0.00000000000E+00  0.45593999997E+02  0.45594000000E+02  0.51100000000E-03 0. -1.
         11   -1    0    0    0    0 -0.00000000000E+00 -0.00000000000E+00 -0.45593999997E+02  0.45594000000E+02  0.51100000000E-03 0.  1.
    9900012    2    1    2    0    0  0.51646402683E+01 -0.36217598580E+02 -0.23350277851E+02  0.47787269226E+02  0.19999991708E+02 0.  0.
         12    1    1    2    0    0 -0.51646402683E+01  0.36217598580E+02  0.23350277851E+02  0.43400730774E+02  0.00000000000E+00 0. -1.
         11    1    3    3    0    0  0.85846204395E+01 -0.28183999321E+02 -0.21967533763E+02  0.36750592725E+02  0.51100000000E-03 0.  1.
        -11    1    3    3    0    0 -0.22070666857E+01  0.53593394027E+00  0.48276075250E-02  0.22712093937E+01  0.51100000000E-03 0. -1.
        -12    1    3    3    0    0 -0.12129134856E+01 -0.85695331998E+01 -0.13875716959E+01  0.87654671066E+01  0.00000000000E+00 0.  1.
</event>
<event>
 7    1  0.5411321E-010  0.4778727E+02  0.7816164E-02  0.1312668E+00
        -11   -1    0    0    0    0  0.00000000000E+00  0.00000000000E+00  0.45593999997E+02  0.45594000000E+02  0.51100000000E-03 0.  1.
         11   -1    0    0    0    0 -0.00000000000E+00 -0.00000000000E+00 -0.45593999997E+02  0.45594000000E+02  0.51100000000E-03 0. -1.
    9900012    2    1    2    0    0  0.19207106769E+02  0.27849901870E+02  0.27186272243E+02  0.47787269787E+02  0.19999994266E+02 0.  0.
         12    1    1    2    0    0 -0.19207106769E+02 -0.27849901870E+02 -0.27186272243E+02  0.43400730213E+02  0.00000000000E+00 0. -1.
         11    1    3    3    0    0  0.88245073933E+01  0.53054819410E+01  0.14756523157E+02  0.17993750174E+02  0.51100000000E-03 0. -1.
        -11    1    3    3    0    0  0.41802174504E+01  0.59441423811E+01 -0.12921285309E+01  0.73808294236E+01  0.51100000000E-03 0.  1.
        -12    1    3    3    0    0  0.62023819251E+01  0.16600277548E+02  0.13721877616E+02  0.22412690190E+02  0.00000000000E+00 0.  1.
</event>
<event>
 7    1  0.5411321E-010  0.4778727E+02  0.7816164E-02  0.1312668E+00
        -11   -1    0    0    0    0  0.00000000000E+00  0.00000000000E+00  0.45593999997E+02  0.45594000000E+02  0.51100000000E-03 0. -1.
         11   -1    0    0    0    0 -0.00000000000E+00 -0.00000000000E+00 -0.45593999997E+02  0.45594000000E+02  0.51100000000E-03 0.  1.
    9900012    2    1    2    0    0 -0.18806223959E+02  0.33708390182E+02 -0.19841714916E+02  0.47787270985E+02  0.19999999727E+02 0.  0.
         12    1    1    2    0    0  0.18806223959E+02 -0.33708390182E+02  0.19841714916E+02  0.43400729015E+02  0.00000000000E+00 0. -1.
         11    1    3    3    0    0  0.39853087322E+00  0.13968336784E+02 -0.10899687953E+02  0.17722202377E+02  0.51100000000E-03 0. -1.
        -11    1    3    3    0    0 -0.12549045756E+02  0.17452657527E+02 -0.81241813449E+01  0.22979907026E+02  0.51100000000E-03 0.  1.
         12    1    3    3    0    0 -0.66557090763E+01  0.22873958718E+01 -0.81784561762E+00  0.70851615816E+01  0.00000000000E+00 0. -1.
</event>
<event>
 7    1  0.5411321E-010  0.4778727E+02  0.7816164E-02  0.1312668E+00
        -11   -1    0    0    0    0  0.00000000000E+00  0.00000000000E+00  0.45593999997E+02  0.45594000000E+02  0.51100000000E-03 0. -1.
         11   -1    0    0    0    0 -0.00000000000E+00 -0.00000000000E+00 -0.45593999997E+02  0.45594000000E+02  0.51100000000E-03 0.  1.
    9900012    2    1    2    0    0  0.33927502695E+02 -0.16103206211E+02 -0.21753949550E+02  0.47787274079E+02  0.20000013837E+02 0.  0.
         12    1    1    2    0    0 -0.33927502695E+02  0.16103206211E+02  0.21753949550E+02  0.43400725921E+02  0.00000000000E+00 0. -1.
         11    1    3    3    0    0  0.26856220702E+02 -0.90831765810E+01 -0.63739242225E+01  0.29058348154E+02  0.51100000000E-03 0.  1.
        -11    1    3    3    0    0  0.22546178481E+01 -0.43238947672E+01 -0.94075125281E+01  0.10596256878E+02  0.51100000000E-03 0. -1.
         12    1    3    3    0    0  0.48166641453E+01 -0.26961348630E+01 -0.59725127993E+01  0.81326690469E+01  0.00000000000E+00 0. -1.
</event>
<event>
 7    1  0.5411321E-010  0.4778727E+02  0.7816164E-02  0.1312668E+00
        -11   -1    0    0    0    0  0.00000000000E+00  0.00000000000E+00  0.45593999997E+02  0.45594000000E+02  0.51100000000E-03 0.  1.
         11   -1    0    0    0    0 -0.00000000000E+00 -0.00000000000E+00 -0.45593999997E+02  0.45594000000E+02  0.51100000000E-03 0. -1.
    9900012    2    1    2    0    0  0.31113988045E+02  0.15268445862E+02  0.26123128141E+02  0.47787268267E+02  0.19999987338E+02 0.  0.
         12    1    1    2    0    0 -0.31113988045E+02 -0.15268445862E+02 -0.26123128141E+02  0.43400731733E+02  0.00000000000E+00 0. -1.
         11    1    3    3    0    0  0.14692048254E+02  0.71215984527E+01  0.39351277177E+01  0.16794602611E+02  0.51100000000E-03 0. -1.
        -11    1    3    3    0    0  0.10646375810E+01  0.54941776831E+01  0.88938389738E+01  0.10508083248E+02  0.51100000000E-03 0.  1.
        -12    1    3    3    0    0  0.15357302209E+02  0.26526697264E+01  0.13294161449E+02  0.20484582409E+02  0.00000000000E+00 0.  1.
</event>
<event>
 7    1  0.5411321E-010  0.4778730E+02  0.7816164E-02  0.1312668E+00
        -11   -1    0    0    0    0  0.00000000000E+00  0.00000000000E+00  0.45593999997E+02  0.45594000000E+02  0.51100000000E-03 0.  1.
         11   -1    0    0    0    0 -0.00000000000E+00 -0.00000000000E+00 -0.45593999997E+02  0.45594000000E+02  0.51100000000E-03 0. -1.
    9900012    2    1    2    0    0 -0.18288453981E+02 -0.37555291234E+02  0.11779350816E+02  0.47787302375E+02  0.20000142849E+02 0.  0.
         12    1    1    2    0    0  0.18288453981E+02  0.37555291234E+02 -0.11779350816E+02  0.43400697625E+02  0.00000000000E+00 0. -1.
         11    1    3    3    0    0 -0.10563640091E+01 -0.51749954915E-02 -0.25110039781E+01  0.27241646315E+01  0.51100000000E-03 0. -1.
        -11    1    3    3    0    0 -0.10611455425E+02 -0.24913870344E+02  0.14659143874E+02  0.30792765727E+02  0.51100000000E-03 0.  1.
        -12    1    3    3    0    0 -0.66206345475E+01 -0.12636245894E+02 -0.36878907993E+00  0.14270372017E+02  0.00000000000E+00 0.  1.
</event>
<event>
 7    1  0.5411321E-010  0.4778724E+02  0.7816164E-02  0.1312668E+00
        -11   -1    0    0    0    0  0.00000000000E+00  0.00000000000E+00  0.45593999997E+02  0.45594000000E+02  0.51100000000E-03 0.  1.
         11   -1    0    0    0    0 -0.00000000000E+00 -0.00000000000E+00 -0.45593999997E+02  0.45594000000E+02  0.51100000000E-03 0. -1.
    9900012    2    1    2    0    0 -0.36279469143E+02 -0.22865155290E+02 -0.66791167561E+01  0.47787241846E+02  0.19999866871E+02 0.  0.
         12    1    1    2    0    0  0.36279469143E+02  0.22865155290E+02  0.66791167561E+01  0.43400758154E+02  0.00000000000E+00 0. -1.
         11    1    3    3    0    0 -0.70182803875E+01 -0.99425970308E+01 -0.66193176268E+01  0.13853767048E+02  0.51100000000E-03 0. -1.
        -11    1    3    3    0    0 -0.14746022318E+02 -0.42041286377E+00 -0.66294569537E+00  0.14766902804E+02  0.51100000000E-03 0.  1.
        -12    1    3    3    0    0 -0.14515166438E+02 -0.12502145396E+02  0.60314656606E+00  0.19166571994E+02  0.00000000000E+00 0.  1.
</event>
<event>
 7    1  0.5411321E-010  0.4778727E+02  0.7816164E-02  0.1312668E+00
        -11   -1    0    0    0    0  0.00000000000E+00  0.00000000000E+00  0.45593999997E+02  0.45594000000E+02  0.51100000000E-03 0. -1.
         11   -1    0    0    0    0 -0.00000000000E+00 -0.00000000000E+00 -0.45593999997E+02  0.45594000000E+02  0.51100000000E-03 0.  1.
    9900012    2    1    2    0    0  0.64783159627E+00 -0.36121364861E+02 -0.24051003894E+02  0.47787268744E+02  0.19999989511E+02 0.  0.
         12    1    1    2    0    0 -0.64783159627E+00  0.36121364861E+02  0.24051003894E+02  0.43400731256E+02  0.00000000000E+00 0. -1.
         11    1    3    3    0    0  0.16486187831E+01  0.13748251786E+00  0.35052100965E+00  0.16910678798E+01  0.51100000000E-03 0. -1.
        -11    1    3    3    0    0 -0.70594266060E+01 -0.11257902030E+02 -0.68073805689E+01  0.14930381529E+02  0.51100000000E-03 0.  1.
        -12    1    3    3    0    0  0.60586394192E+01 -0.25000945349E+02 -0.17594144335E+02  0.31165819335E+02  0.00000000000E+00 0.  1.
</event>
<event>
 7    1  0.5411321E-010  0.4778727E+02  0.7816164E-02  0.1312668E+00
        -11   -1    0    0    0    0  0.00000000000E+00  0.00000000000E+00  0.45593999997E+02  0.45594000000E+02  0.51100000000E-03 0.  1.
         11   -1    0    0    0    0 -0.00000000000E+00 -0.00000000000E+00 -0.45593999997E+02  0.45594000000E+02  0.51100000000E-03 0. -1.
    9900012    2    1    2    0    0 -0.39747551502E+02 -0.17082099313E+02 -0.34578940257E+01  0.47787274217E+02  0.20000014467E+02 0.  0.
         12    1    1    2    0    0  0.39747551502E+02  0.17082099313E+02  0.34578940257E+01  0.43400725783E+02  0.00000000000E+00 0. -1.
         11    1    3    3    0    0  0.75163081274E+00 -0.60222492301E+00  0.75724565173E+00  0.12251714063E+01  0.51100000000E-03 0. -1.
        -11    1    3    3    0    0 -0.10762628397E+02  0.24809423723E+00 -0.61323168096E+01  0.12389553280E+02  0.51100000000E-03 0.  1.
        -12    1    3    3    0    0 -0.29736553918E+02 -0.16727968627E+02  0.19171771322E+01  0.34172549531E+02  0.00000000000E+00 0.  1.
</event>
<event>
 7    1  0.5411321E-010  0.4778728E+02  0.7816164E-02  0.1312668E+00
        -11   -1    0    0    0    0  0.00000000000E+00  0.00000000000E+00  0.45593999997E+02  0.45594000000E+02  0.51100000000E-03 0.  1.
         11   -1    0    0    0    0 -0.00000000000E+00 -0.00000000000E+00 -0.45593999997E+02  0.45594000000E+02  0.51100000000E-03 0. -1.
    9900012    2    1    2    0    0 -0.59249166593E+01  0.42743458290E+02  0.46384119086E+01  0.47787277321E+02  0.20000028616E+02 0.  0.
         12    1    1    2    0    0  0.59249166593E+01 -0.42743458290E+02 -0.46384119086E+01  0.43400722679E+02  0.00000000000E+00 0. -1.
         11    1    3    3    0    0  0.57018917503E+00  0.43606845337E+00 -0.23727900820E+01  0.24789926231E+01  0.51100000000E-03 0. -1.
        -11    1    3    3    0    0 -0.52877143540E+01  0.32451777376E+02 -0.45861478339E+00  0.32882945515E+02  0.51100000000E-03 0.  1.
        -12    1    3    3    0    0 -0.12073914804E+01  0.98556124611E+01  0.74698167739E+01  0.12425339183E+02  0.00000000000E+00 0.  1.
</event>
<event>
 7    1  0.5411321E-010  0.4778727E+02  0.7816164E-02  0.1312668E+00
        -11   -1    0    0    0    0  0.00000000000E+00  0.00000000000E+00  0.45593999997E+02  0.45594000000E+02  0.51100000000E-03 0.  1.
         11   -1    0    0    0    0 -0.00000000000E+00 -0.00000000000E+00 -0.45593999997E+02  0.45594000000E+02  0.51100000000E-03 0. -1.
    9900012    2    1    2    0    0  0.78378735763E+01  0.22320672167E+02  0.36386520002E+02  0.47787268370E+02  0.19999987805E+02 0.  0.
         12    1    1    2    0    0 -0.78378735763E+01 -0.22320672167E+02 -0.36386520002E+02  0.43400731630E+02  0.00000000000E+00 0. -1.
         11    1    3    3    0    0 -0.85861958785E+00  0.14611863689E+02  0.11948635298E+02  0.18894805471E+02  0.51100000000E-03 0. -1.
        -11    1    3    3    0    0  0.93471235532E+01  0.46787892495E+01  0.11296522003E+02  0.15390620429E+02  0.51100000000E-03 0.  1.
        -12    1    3    3    0    0 -0.65063038902E+00  0.30300192282E+01  0.13141362701E+02  0.13501842469E+02  0.00000000000E+00 0.  1.
</event>
<event>
 7    1  0.5411321E-010  0.4778727E+02  0.7816164E-02  0.1312668E+00
        -11   -1    0    0    0    0  0.00000000000E+00  0.00000000000E+00  0.45593999997E+02  0.45594000000E+02  0.51100000000E-03 0.  1.
         11   -1    0    0    0    0 -0.00000000000E+00 -0.00000000000E+00 -0.45593999997E+02  0.45594000000E+02  0.51100000000E-03 0. -1.
    9900012    2    1    2    0    0  0.10952715520E+02 -0.37251483568E+02  0.19390420398E+02  0.47787269494E+02  0.19999992930E+02 0.  0.
         12    1    1    2    0    0 -0.10952715520E+02  0.37251483568E+02 -0.19390420398E+02  0.43400730506E+02  0.00000000000E+00 0. -1.
         11    1    3    3    0    0  0.32235687942E+01 -0.50651421447E+00  0.75723893880E+01  0.82455462964E+01  0.51100000000E-03 0. -1.
        -11    1    3    3    0    0  0.40412727867E+01 -0.26677273396E+02  0.77320358863E+01  0.28067653639E+02  0.51100000000E-03 0.  1.
         12    1    3    3    0    0  0.36878739388E+01 -0.10067695957E+02  0.40859951232E+01  0.11474069558E+02  0.00000000000E+00 0. -1.
</event>
<event>
 7    1  0.5411321E-010  0.4778727E+02  0.7816164E-02  0.1312668E+00
        -11   -1    0    0    0    0  0.00000000000E+00  0.00000000000E+00  0.45593999997E+02  0.45594000000E+02  0.51100000000E-03 0.  1.
         11   -1    0    0    0    0 -0.00000000000E+00 -0.00000000000E+00 -0.45593999997E+02  0.45594000000E+02  0.51100000000E-03 0. -1.
    9900012    2    1    2    0    0 -0.16559930967E+02 -0.29629238339E+02  0.27046259593E+02  0.47787271479E+02  0.20000001983E+02 0.  0.
         12    1    1    2    0    0  0.16559930967E+02  0.29629238339E+02 -0.27046259593E+02  0.43400728521E+02  0.00000000000E+00 0. -1.
         11    1    3    3    0    0 -0.97686947081E+01 -0.16751027054E+02  0.47863147193E+01  0.19973310004E+02  0.51100000000E-03 0. -1.
        -11    1    3    3    0    0 -0.27163732796E+01 -0.10613132926E+02  0.10546276257E+02  0.15206617554E+02  0.51100000000E-03 0.  1.
         12    1    3    3    0    0 -0.40748629792E+01 -0.22650783582E+01  0.11713668617E+02  0.12607343920E+02  0.00000000000E+00 0. -1.
</event>
<event>
 7    1  0.5411321E-010  0.4778727E+02  0.7816164E-02  0.1312668E+00
        -11   -1    0    0    0    0  0.00000000000E+00  0.00000000000E+00  0.45593999997E+02  0.45594000000E+02  0.51100000000E-03 0. -1.
         11   -1    0    0    0    0 -0.00000000000E+00 -0.00000000000E+00 -0.45593999997E+02  0.45594000000E+02  0.51100000000E-03 0.  1.
    9900012    2    1    2    0    0 -0.32137952008E+00  0.43096224861E+02 -0.51220612089E+01  0.47787269671E+02  0.19999993736E+02 0.  0.
         12    1    1    2    0    0  0.32137952008E+00 -0.43096224861E+02  0.51220612089E+01  0.43400730329E+02  0.00000000000E+00 0. -1.
         11    1    3    3    0    0  0.22831734210E+01  0.18668621425E+02 -0.29242403506E+01  0.19033693511E+02  0.51100000000E-03 0.  1.
        -11    1    3    3    0    0 -0.67894719408E+01  0.22604273302E+02 -0.38199840081E+01  0.23909043871E+02  0.51100000000E-03 0. -1.
        -12    1    3    3    0    0  0.41849189997E+01  0.18233301350E+01  0.16221631499E+01  0.48445322891E+01  0.00000000000E+00 0.  1.
</event>
<event>
 7    1  0.5411321E-010  0.4778727E+02  0.7816164E-02  0.1312668E+00
        -11   -1    0    0    0    0  0.00000000000E+00  0.00000000000E+00  0.45593999997E+02  0.45594000000E+02  0.51100000000E-03 0. -1.
         11   -1    0    0    0    0 -0.00000000000E+00 -0.00000000000E+00 -0.45593999997E+02  0.45594000000E+02  0.51100000000E-03 0.  1.
    9900012    2    1    2    0    0 -0.51173122743E+01  0.19845030278E+02 -0.38257169867E+02  0.47787272381E+02  0.20000006094E+02 0.  0.
         12    1    1    2    0    0  0.51173122743E+01 -0.19845030278E+02  0.38257169867E+02  0.43400727619E+02  0.00000000000E+00 0. -1.
         11    1    3    3    0    0  0.27906481588E+01  0.62421727522E+00 -0.19842417620E+01  0.34806005207E+01  0.51100000000E-03 0. -1.
        -11    1    3    3    0    0 -0.83295842922E+01  0.63790364508E+01 -0.78142556144E+01  0.13081921556E+02  0.51100000000E-03 0.  1.
        -12    1    3    3    0    0  0.42162385898E+00  0.12841776552E+02 -0.28458672490E+02  0.31224750305E+02  0.00000000000E+00 0.  1.
</event>
<event>
 7    1  0.5411321E-010  0.4778728E+02  0.7816164E-02  0.1312668E+00
        -11   -1    0    0    0    0  0.00000000000E+00  0.00000000000E+00  0.45593999997E+02  0.45594000000E+02  0.51100000000E-03 0.  1.
         11   -1    0    0    0    0 -0.00000000000E+00 -0.00000000000E+00 -0.45593999997E+02  0.45594000000E+02  0.51100000000E-03 0. -1.
    9900012    2    1    2    0    0  0.27023058382E+02 -0.20301791029E+02  0.27225251053E+02  0.47787277676E+02  0.20000030238E+02 0.  0.
         12    1    1    2    0    0 -0.27023058382E+02  0.20301791029E+02 -0.27225251053E+02  0.43400722324E+02  0.00000000000E+00 0. -1.
         11    1    3    3    0    0  0.37409592898E+01  0.15101180659E+01  0.13189836365E+01  0.42444023225E+01  0.51100000000E-03 0. -1.
        -11    1    3    3    0    0  0.21198289515E+01 -0.11028495056E+02  0.77035151291E+01  0.13618572744E+02  0.51100000000E-03 0.  1.
        -12    1    3    3    0    0  0.21162270141E+02 -0.10783414039E+02  0.18202752287E+02  0.29924302610E+02  0.00000000000E+00 0.  1.
</event>
<event>
 7    1  0.5411321E-010  0.4778727E+02  0.7816164E-02  0.1312668E+00
        -11   -1    0    0    0    0  0.00000000000E+00  0.00000000000E+00  0.45593999997E+02  0.45594000000E+02  0.51100000000E-03 0.  1.
         11   -1    0    0    0    0 -0.00000000000E+00 -0.00000000000E+00 -0.45593999997E+02  0.45594000000E+02  0.51100000000E-03 0. -1.
    9900012    2    1    2    0    0  0.24768003362E+02 -0.11512449387E+02  0.33728809423E+02  0.47787273433E+02  0.20000010892E+02 0.  0.
         12    1    1    2    0    0 -0.24768003362E+02  0.11512449387E+02 -0.33728809423E+02  0.43400726567E+02  0.00000000000E+00 0. -1.
         11    1    3    3    0    0 -0.20863596136E+00  0.36350876650E+01  0.32971602974E+01  0.49120929943E+01  0.51100000000E-03 0. -1.
        -11    1    3    3    0    0  0.63575367396E+01 -0.59668843796E+01  0.50162670428E+01  0.10059071423E+02  0.51100000000E-03 0.  1.
         12    1    3    3    0    0  0.18619102584E+02 -0.91806526726E+01  0.25415382083E+02  0.32816109016E+02  0.00000000000E+00 0. -1.
</event>
<event>
 7    1  0.5411321E-010  0.4778724E+02  0.7816164E-02  0.1312668E+00
        -11   -1    0    0    0    0  0.00000000000E+00  0.00000000000E+00  0.45593999997E+02  0.45594000000E+02  0.51100000000E-03 0.  1.
         11   -1    0    0    0    0 -0.00000000000E+00 -0.00000000000E+00 -0.45593999997E+02  0.45594000000E+02  0.51100000000E-03 0. -1.
    9900012    2    1    2    0    0 -0.13231520674E+02 -0.32397282839E+02  0.25670395435E+02  0.47787236452E+02  0.19999842280E+02 0.  0.
         12    1    1    2    0    0  0.13231520674E+02  0.32397282839E+02 -0.25670395435E+02  0.43400763548E+02  0.00000000000E+00 0. -1.
         11    1    3    3    0    0 -0.99139253728E+01 -0.15398388087E+02  0.56987590520E+01  0.19179992883E+02  0.51100000000E-03 0. -1.
        -11    1    3    3    0    0  0.14241429891E+01 -0.10611050794E+02  0.17049238438E+02  0.20132041968E+02  0.51100000000E-03 0.  1.
         12    1    3    3    0    0 -0.47417382899E+01 -0.63878439579E+01  0.29223979450E+01  0.84752016017E+01  0.00000000000E+00 0. -1.
</event>
<event>
 7    1  0.5411321E-010  0.4778727E+02  0.7816164E-02  0.1312668E+00
        -11   -1    0    0    0    0  0.00000000000E+00  0.00000000000E+00  0.45593999997E+02  0.45594000000E+02  0.51100000000E-03 0.  1.
         11   -1    0    0    0    0 -0.00000000000E+00 -0.00000000000E+00 -0.45593999997E+02  0.45594000000E+02  0.51100000000E-03 0. -1.
    9900012    2    1    2    0    0 -0.71876916865E+01 -0.69306501177E+01  0.42236554668E+02  0.47787269902E+02  0.19999994791E+02 0.  0.
         12    1    1    2    0    0  0.71876916865E+01  0.69306501177E+01 -0.42236554668E+02  0.43400730098E+02  0.00000000000E+00 0. -1.
         11    1    3    3    0    0 -0.69548085158E+01 -0.25388868950E+01  0.44994563989E+01  0.86637414725E+01  0.51100000000E-03 0. -1.
        -11    1    3    3    0    0  0.10722614509E+01 -0.52515789516E+01  0.37016423231E+02  0.37402465362E+02  0.51100000000E-03 0.  1.
        -12    1    3    3    0    0 -0.13051446217E+01  0.85981572891E+00  0.72067503801E+00  0.17210630673E+01  0.00000000000E+00 0.  1.
</event>
<event>
 7    1  0.5411321E-010  0.4778727E+02  0.7816164E-02  0.1312668E+00
        -11   -1    0    0    0    0  0.00000000000E+00  0.00000000000E+00  0.45593999997E+02  0.45594000000E+02  0.51100000000E-03 0. -1.
         11   -1    0    0    0    0 -0.00000000000E+00 -0.00000000000E+00 -0.45593999997E+02  0.45594000000E+02  0.51100000000E-03 0.  1.
    9900012    2    1    2    0    0  0.19849410047E+02  0.29858626921E+02 -0.24455802368E+02  0.47787274772E+02  0.20000016998E+02 0.  0.
         12    1    1    2    0    0 -0.19849410047E+02 -0.29858626921E+02  0.24455802368E+02  0.43400725228E+02  0.00000000000E+00 0. -1.
         11    1    3    3    0    0  0.51696925616E+01  0.22245256133E+01  0.17766765349E+01  0.59017637327E+01  0.51100000000E-03 0. -1.
        -11    1    3    3    0    0  0.97053824406E+01  0.12402147586E+02 -0.81750848775E+01  0.17743723569E+02  0.51100000000E-03 0.  1.
         12    1    3    3    0    0  0.49743350446E+01  0.15231953721E+02 -0.18057394025E+02  0.24141787471E+02  0.00000000000E+00 0. -1.
</event>
<event>
 7    1  0.5411321E-010  0.4778727E+02  0.7816164E-02  0.1312668E+00
        -11   -1    0    0    0    0  0.00000000000E+00  0.00000000000E+00  0.45593999997E+02  0.45594000000E+02  0.51100000000E-03 0.  1.
         11   -1    0    0    0    0 -0.00000000000E+00 -0.00000000000E+00 -0.45593999997E+02  0.45594000000E+02  0.51100000000E-03 0. -1.
    9900012    2    1    2    0    0 -0.15614805134E+02  0.37751995544E+02 -0.14648812028E+02  0.47787274191E+02  0.20000014347E+02 0.  0.
         12    1    1    2    0    0  0.15614805134E+02 -0.37751995544E+02  0.14648812028E+02  0.43400725809E+02  0.00000000000E+00 0. -1.
         11    1    3    3    0    0 -0.31225446122E+01  0.21977738655E+02 -0.14278209210E+02  0.26393911036E+02  0.51100000000E-03 0. -1.
        -11    1    3    3    0    0 -0.23003207653E+01  0.63474888602E+01  0.25310714767E+01  0.72102991294E+01  0.51100000000E-03 0.  1.
         12    1    3    3    0    0 -0.10191939756E+02  0.94267680284E+01 -0.29016742945E+01  0.14183064026E+02  0.00000000000E+00 0. -1.
</event>
<event>
 7    1  0.5411321E-010  0.4778727E+02  0.7816164E-02  0.1312668E+00
        -11   -1    0    0    0    0  0.00000000000E+00  0.00000000000E+00  0.45593999997E+02  0.45594000000E+02  0.51100000000E-03 0.  1.
         11   -1    0    0    0    0 -0.00000000000E+00 -0.00000000000E+00 -0.45593999997E+02  0.45594000000E+02  0.51100000000E-03 0. -1.
    9900012    2    1    2    0    0 -0.77489326863E+01 -0.10982557870E+02  0.41266946069E+02  0.47787269902E+02  0.19999994792E+02 0.  0.
         12    1    1    2    0    0  0.77489326863E+01  0.10982557870E+02 -0.41266946069E+02  0.43400730098E+02  0.00000000000E+00 0. -1.
         11    1    3    3    0    0 -0.11355381383E+02 -0.34988120347E+01  0.23121736246E+02  0.25996173935E+02  0.51100000000E-03 0. -1.
        -11    1    3    3    0    0 -0.16544584685E+01 -0.55641960117E+01  0.12775586366E+02  0.14032573440E+02  0.51100000000E-03 0.  1.
         12    1    3    3    0    0  0.52609071653E+01 -0.19195498233E+01  0.53696234577E+01  0.77585225271E+01  0.00000000000E+00 0. -1.
</event>
<event>
 7    1  0.5411321E-010  0.4778727E+02  0.7816164E-02  0.1312668E+00
        -11   -1    0    0    0    0  0.00000000000E+00  0.00000000000E+00  0.45593999997E+02  0.45594000000E+02  0.51100000000E-03 0. -1.
         11   -1    0    0    0    0 -0.00000000000E+00 -0.00000000000E+00 -0.45593999997E+02  0.45594000000E+02  0.51100000000E-03 0.  1.
    9900012    2    1    2    0    0 -0.36520253325E+01 -0.36804031622E+02 -0.22710107078E+02  0.47787274244E+02  0.20000014586E+02 0.  0.
         12    1    1    2    0    0  0.36520253325E+01  0.36804031622E+02  0.22710107078E+02  0.43400725756E+02  0.00000000000E+00 0. -1.
         11    1    3    3    0    0 -0.95887280551E+01 -0.11293602543E+02 -0.12059670841E+02  0.19103005658E+02  0.51100000000E-03 0. -1.
        -11    1    3    3    0    0  0.52127305353E+01 -0.17103246752E+02 -0.51327349576E+01  0.18602112179E+02  0.51100000000E-03 0.  1.
         12    1    3    3    0    0  0.72397218723E+00 -0.84071823264E+01 -0.55177012800E+01  0.10082156407E+02  0.00000000000E+00 0. -1.
</event>
<event>
 7    1  0.5411321E-010  0.4778727E+02  0.7816164E-02  0.1312668E+00
        -11   -1    0    0    0    0  0.00000000000E+00  0.00000000000E+00  0.45593999997E+02  0.45594000000E+02  0.51100000000E-03 0.  1.
         11   -1    0    0    0    0 -0.00000000000E+00 -0.00000000000E+00 -0.45593999997E+02  0.45594000000E+02  0.51100000000E-03 0. -1.
    9900012    2    1    2    0    0  0.23897575347E+02  0.84375243986E+01  0.35232617666E+02  0.47787271054E+02  0.20000000046E+02 0.  0.
         12    1    1    2    0    0 -0.23897575347E+02 -0.84375243986E+01 -0.35232617666E+02  0.43400728946E+02  0.00000000000E+00 0. -1.
         11    1    3    3    0    0  0.15739210049E+02  0.65524817595E+01  0.18027499807E+02  0.24812265107E+02  0.51100000000E-03 0. -1.
        -11    1    3    3    0    0 -0.22063832230E+01 -0.32854064956E+00 -0.54970357466E+00  0.22974420920E+01  0.51100000000E-03 0.  1.
        -12    1    3    3    0    0  0.10364748521E+02  0.22135832886E+01  0.17754821433E+02  0.20677563855E+02  0.00000000000E+00 0.  1.
</event>
<event>
 7    1  0.5411321E-010  0.4778727E+02  0.7816164E-02  0.1312668E+00
        -11   -1    0    0    0    0  0.00000000000E+00  0.00000000000E+00  0.45593999997E+02  0.45594000000E+02  0.51100000000E-03 0.  1.
         11   -1    0    0    0    0 -0.00000000000E+00 -0.00000000000E+00 -0.45593999997E+02  0.45594000000E+02  0.51100000000E-03 0. -1.
    9900012    2    1    2    0    0  0.40910185610E+02 -0.48415706486E+01  0.13657932731E+02  0.47787271671E+02  0.20000002857E+02 0.  0.
         12    1    1    2    0    0 -0.40910185610E+02  0.48415706486E+01 -0.13657932731E+02  0.43400728329E+02  0.00000000000E+00 0. -1.
         11    1    3    3    0    0  0.92359121561E-02  0.22107799578E+01  0.34317338157E+01  0.40822090303E+01  0.51100000000E-03 0. -1.
        -11    1    3    3    0    0  0.27979015753E+02 -0.82003938011E+01  0.44082317400E+01  0.29487358111E+02  0.51100000000E-03 0.  1.
        -12    1    3    3    0    0  0.12921933945E+02  0.11480431948E+01  0.58179671757E+01  0.14217704530E+02  0.00000000000E+00 0.  1.
</event>
<event>
 7    1  0.5411321E-010  0.4778727E+02  0.7816164E-02  0.1312668E+00
        -11   -1    0    0    0    0  0.00000000000E+00  0.00000000000E+00  0.45593999997E+02  0.45594000000E+02  0.51100000000E-03 0.  1.
         11   -1    0    0    0    0 -0.00000000000E+00 -0.00000000000E+00 -0.45593999997E+02  0.45594000000E+02  0.51100000000E-03 0. -1.
    9900012    2    1    2    0    0  0.37320901359E+02  0.21745725592E+02 -0.42305238164E+01  0.47787267385E+02  0.19999983316E+02 0.  0.
         12    1    1    2    0    0 -0.37320901359E+02 -0.21745725592E+02  0.42305238164E+01  0.43400732615E+02  0.00000000000E+00 0. -1.
         11    1    3    3    0    0  0.21307805094E+01 -0.24995211102E+01  0.26205026620E+01  0.42017693680E+01  0.51100000000E-03 0. -1.
        -11    1    3    3    0    0  0.44278957780E+01  0.11967387381E+01 -0.11221645126E+01  0.47220438458E+01  0.51100000000E-03 0.  1.
         12    1    3    3    0    0  0.30762225071E+02  0.23048507964E+02 -0.57288619659E+01  0.38863454171E+02  0.00000000000E+00 0. -1.
</event>
<event>
 7    1  0.5411321E-010  0.4778727E+02  0.7816164E-02  0.1312668E+00
        -11   -1    0    0    0    0  0.00000000000E+00  0.00000000000E+00  0.45593999997E+02  0.45594000000E+02  0.51100000000E-03 0. -1.
         11   -1    0    0    0    0 -0.00000000000E+00 -0.00000000000E+00 -0.45593999997E+02  0.45594000000E+02  0.51100000000E-03 0.  1.
    9900012    2    1    2    0    0 -0.17672096596E+02  0.45900279351E+01 -0.39373236263E+02  0.47787273182E+02  0.20000009744E+02 0.  0.
         12    1    1    2    0    0  0.17672096596E+02 -0.45900279351E+01  0.39373236263E+02  0.43400726818E+02  0.00000000000E+00 0. -1.
         11    1    3    3    0    0 -0.94175237444E+01 -0.31403173262E+01 -0.11797861497E+02  0.15418848289E+02  0.51100000000E-03 0. -1.
        -11    1    3    3    0    0  0.23003536552E+01  0.31479070397E+01 -0.21311552876E+01  0.44432835596E+01  0.51100000000E-03 0.  1.
        -12    1    3    3    0    0 -0.10554926507E+02  0.45824382215E+01 -0.25444219478E+02  0.27925141333E+02  0.00000000000E+00 0.  1.
</event>
<event>
 7    1  0.5411321E-010  0.4778727E+02  0.7816164E-02  0.1312668E+00
        -11   -1    0    0    0    0  0.00000000000E+00  0.00000000000E+00  0.45593999997E+02  0.45594000000E+02  0.51100000000E-03 0. -1.
         11   -1    0    0    0    0 -0.00000000000E+00 -0.00000000000E+00 -0.45593999997E+02  0.45594000000E+02  0.51100000000E-03 0.  1.
    9900012    2    1    2    0    0 -0.33531938044E+02 -0.72348353370E+01 -0.26587393128E+02  0.47787272072E+02  0.20000004685E+02 0.  0.
         12    1    1    2    0    0  0.33531938044E+02  0.72348353370E+01  0.26587393128E+02  0.43400727928E+02  0.00000000000E+00 0. -1.
         11    1    3    3    0    0 -0.17056383518E+01 -0.29212104321E+01 -0.49082233308E+00  0.34181251293E+01  0.51100000000E-03 0. -1.
        -11    1    3    3    0    0 -0.11156386060E+02 -0.76096648188E+01 -0.16558924082E+02  0.21367496709E+02  0.51100000000E-03 0.  1.
        -12    1    3    3    0    0 -0.20669913632E+02  0.32960399138E+01 -0.95376467130E+01  0.23001650234E+02  0.00000000000E+00 0.  1.
</event>
<event>
 7    1  0.5411321E-010  0.4778727E+02  0.7816164E-02  0.1312668E+00
        -11   -1    0    0    0    0  0.00000000000E+00  0.00000000000E+00  0.45593999997E+02  0.45594000000E+02  0.51100000000E-03 0.  1.
         11   -1    0    0    0    0 -0.00000000000E+00 -0.00000000000E+00 -0.45593999997E+02  0.45594000000E+02  0.51100000000E-03 0. -1.
    9900012    2    1    2    0    0  0.35129885207E+02 -0.39050394026E+01  0.25184623007E+02  0.47787269552E+02  0.19999993197E+02 0.  0.
         12    1    1    2    0    0 -0.35129885207E+02  0.39050394026E+01 -0.25184623007E+02  0.43400730448E+02  0.00000000000E+00 0. -1.
         11    1    3    3    0    0  0.17454374318E+02  0.62109985163E+01  0.83740508506E+01  0.20331168518E+02  0.51100000000E-03 0. -1.
        -11    1    3    3    0    0  0.16670127308E+02 -0.83690515003E+01  0.11842656494E+02  0.22094856428E+02  0.51100000000E-03 0.  1.
         12    1    3    3    0    0  0.10053835802E+01 -0.17469864185E+01  0.49679156629E+01  0.53612446058E+01  0.00000000000E+00 0. -1.
</event>
<event>
 7    1  0.5411321E-010  0.4778728E+02  0.7816164E-02  0.1312668E+00
        -11   -1    0    0    0    0  0.00000000000E+00  0.00000000000E+00  0.45593999997E+02  0.45594000000E+02  0.51100000000E-03 0. -1.
         11   -1    0    0    0    0 -0.00000000000E+00 -0.00000000000E+00 -0.45593999997E+02  0.45594000000E+02  0.51100000000E-03 0.  1.
    9900012    2    1    2    0    0  0.17207233600E+02  0.11300060080E+02 -0.38207881118E+02  0.47787280818E+02  0.20000044563E+02 0.  0.
         12    1    1    2    0    0 -0.17207233600E+02 -0.11300060080E+02  0.38207881118E+02  0.43400719182E+02  0.00000000000E+00 0. -1.
         11    1    3    3    0    0 -0.14900027049E+01  0.50625888762E+01 -0.11807857205E+02  0.12933499380E+02  0.51100000000E-03 0. -1.
        -11    1    3    3    0    0  0.19928649607E+02  0.62026818676E+01 -0.26358275897E+02  0.33621169612E+02  0.51100000000E-03 0.  1.
         12    1    3    3    0    0 -0.12314133022E+01  0.34789336421E-01 -0.41748015812E-01  0.12326118268E+01  0.00000000000E+00 0. -1.
</event>
<event>
 7    1  0.5411321E-010  0.4778727E+02  0.7816164E-02  0.1312668E+00
        -11   -1    0    0    0    0  0.00000000000E+00  0.00000000000E+00  0.45593999997E+02  0.45594000000E+02  0.51100000000E-03 0. -1.
         11   -1    0    0    0    0 -0.00000000000E+00 -0.00000000000E+00 -0.45593999997E+02  0.45594000000E+02  0.51100000000E-03 0.  1.
    9900012    2    1    2    0    0 -0.15676645078E+02 -0.10133793806E+02 -0.39181274167E+02  0.47787271629E+02  0.20000002665E+02 0.  0.
         12    1    1    2    0    0  0.15676645078E+02  0.10133793806E+02  0.39181274167E+02  0.43400728371E+02  0.00000000000E+00 0. -1.
         11    1    3    3    0    0 -0.11934497371E+02 -0.72306230590E+00 -0.12058848545E+02  0.16981486245E+02  0.51100000000E-03 0. -1.
        -11    1    3    3    0    0 -0.33726605413E+01  0.12892894310E+01 -0.97744176703E+01  0.10419997477E+02  0.51100000000E-03 0.  1.
         12    1    3    3    0    0 -0.36948716526E+00 -0.10700020931E+02 -0.17348007952E+02  0.20385787907E+02  0.00000000000E+00 0. -1.
</event>
<event>
 7    1  0.5411321E-010  0.4778728E+02  0.7816164E-02  0.1312668E+00
        -11   -1    0    0    0    0  0.00000000000E+00  0.00000000000E+00  0.45593999997E+02  0.45594000000E+02  0.51100000000E-03 0. -1.
         11   -1    0    0    0    0 -0.00000000000E+00 -0.00000000000E+00 -0.45593999997E+02  0.45594000000E+02  0.51100000000E-03 0.  1.
    9900012    2    1    2    0    0 -0.14576031700E+02  0.28208702169E+02 -0.29587686005E+02  0.47787277179E+02  0.20000027972E+02 0.  0.
         12    1    1    2    0    0  0.14576031700E+02 -0.28208702169E+02  0.29587686005E+02  0.43400722821E+02  0.00000000000E+00 0. -1.
         11    1    3    3    0    0 -0.68819169358E+01  0.12944347917E+02 -0.26069249777E+02  0.29908572481E+02  0.51100000000E-03 0. -1.
        -11    1    3    3    0    0 -0.53205987155E+01  0.13643153925E+02 -0.31723409857E+01  0.14983596607E+02  0.51100000000E-03 0.  1.
        -12    1    3    3    0    0 -0.23735160490E+01  0.16212003280E+01 -0.34609524300E+00  0.28951080905E+01  0.00000000000E+00 0.  1.
</event>
<event>
 7    1  0.8035341E-010  0.4778728E+02  0.7816164E-02  0.1312668E+00
        -11   -1    0    0    0    0  0.00000000000E+00  0.00000000000E+00  0.45593999997E+02  0.45594000000E+02  0.51100000000E-03 0.  1.
         11   -1    0    0    0    0 -0.00000000000E+00 -0.00000000000E+00 -0.45593999997E+02  0.45594000000E+02  0.51100000000E-03 0. -1.
    9900012    2    1    2    0    0 -0.16038516080E+02 -0.34504944508E+02  0.20875768610E+02  0.47787275252E+02  0.20000019184E+02 0.  0.
         12    1    1    2    0    0  0.16038516080E+02  0.34504944508E+02 -0.20875768610E+02  0.43400724748E+02  0.00000000000E+00 0. -1.
         11    1    3    3    0    0  0.21353386120E+00 -0.21106282419E+01 -0.17774739295E+01  0.27676275249E+01  0.51100000000E-03 0. -1.
        -11    1    3    3    0    0 -0.30527148517E+01 -0.13849574474E+02  0.15836201155E+02  0.21258293637E+02  0.51100000000E-03 0.  1.
        -12    1    3    3    0    0 -0.13199335090E+02 -0.18544741792E+02  0.68170413847E+01  0.23761354090E+02  0.00000000000E+00 0.  1.
</event>
<event>
 7    1  0.5411321E-010  0.4778727E+02  0.7816164E-02  0.1312668E+00
        -11   -1    0    0    0    0  0.00000000000E+00  0.00000000000E+00  0.45593999997E+02  0.45594000000E+02  0.51100000000E-03 0.  1.
         11   -1    0    0    0    0 -0.00000000000E+00 -0.00000000000E+00 -0.45593999997E+02  0.45594000000E+02  0.51100000000E-03 0. -1.
    9900012    2    1    2    0    0 -0.43631021534E+01 -0.42759412613E+02  0.60182456401E+01  0.47787270651E+02  0.19999998206E+02 0.  0.
         12    1    1    2    0    0  0.43631021534E+01  0.42759412613E+02 -0.60182456401E+01  0.43400729349E+02  0.00000000000E+00 0. -1.
         11    1    3    3    0    0 -0.19747793502E+01 -0.39525188554E+02 -0.49250939611E+00  0.39577554870E+02  0.51100000000E-03 0. -1.
        -11    1    3    3    0    0 -0.10821232938E+01 -0.29285849329E+01  0.60197063045E+01  0.67811846152E+01  0.51100000000E-03 0.  1.
         12    1    3    3    0    0 -0.13061995094E+01 -0.30563912629E+00  0.49104873177E+00  0.14285311655E+01  0.00000000000E+00 0. -1.
</event>
<event>
 7    1  0.5411321E-010  0.4778727E+02  0.7816164E-02  0.1312668E+00
        -11   -1    0    0    0    0  0.00000000000E+00  0.00000000000E+00  0.45593999997E+02  0.45594000000E+02  0.51100000000E-03 0.  1.
         11   -1    0    0    0    0 -0.00000000000E+00 -0.00000000000E+00 -0.45593999997E+02  0.45594000000E+02  0.51100000000E-03 0. -1.
    9900012    2    1    2    0    0 -0.35545818569E+02  0.22728987326E+01  0.24798226227E+02  0.47787270624E+02  0.19999998081E+02 0.  0.
         12    1    1    2    0    0  0.35545818569E+02 -0.22728987326E+01 -0.24798226227E+02  0.43400729376E+02  0.00000000000E+00 0. -1.
         11    1    3    3    0    0 -0.28092394748E+01  0.44950577105E+01  0.14629504544E+01  0.54988721153E+01  0.51100000000E-03 0. -1.
        -11    1    3    3    0    0 -0.10209357350E+02 -0.12044436001E+01  0.15129459913E+02  0.18291588761E+02  0.51100000000E-03 0.  1.
         12    1    3    3    0    0 -0.22527221744E+02 -0.10177153778E+01  0.82058158596E+01  0.23996809747E+02  0.00000000000E+00 0. -1.
</event>
<event>
 7    1  0.5411321E-010  0.4778727E+02  0.7816164E-02  0.1312668E+00
        -11   -1    0    0    0    0  0.00000000000E+00  0.00000000000E+00  0.45593999997E+02  0.45594000000E+02  0.51100000000E-03 0.  1.
         11   -1    0    0    0    0 -0.00000000000E+00 -0.00000000000E+00 -0.45593999997E+02  0.45594000000E+02  0.51100000000E-03 0. -1.
    9900012    2    1    2    0    0  0.70986135619E+01 -0.96813661066E+00  0.42805324064E+02  0.47787269923E+02  0.19999994885E+02 0.  0.
         12    1    1    2    0    0 -0.70986135619E+01  0.96813661066E+00 -0.42805324064E+02  0.43400730077E+02  0.00000000000E+00 0. -1.
         11    1    3    3    0    0  0.14549674066E+01 -0.69574267356E+01  0.26138917791E+02  0.27088110685E+02  0.51100000000E-03 0. -1.
        -11    1    3    3    0    0  0.38150112996E+01 -0.32141579231E+00  0.12117226307E+02  0.12707666700E+02  0.51100000000E-03 0.  1.
         12    1    3    3    0    0  0.18286348557E+01  0.63107059173E+01  0.45491799663E+01  0.79914925374E+01  0.00000000000E+00 0. -1.
</event>
<event>
 7    1  0.5411321E-010  0.4778726E+02  0.7816164E-02  0.1312668E+00
        -11   -1    0    0    0    0  0.00000000000E+00  0.00000000000E+00  0.45593999997E+02  0.45594000000E+02  0.51100000000E-03 0.  1.
         11   -1    0    0    0    0 -0.00000000000E+00 -0.00000000000E+00 -0.45593999997E+02  0.45594000000E+02  0.51100000000E-03 0. -1.
    9900012    2    1    2    0    0 -0.11428735098E+02  0.23980451364E+02  0.34321224279E+02  0.47787257269E+02  0.19999937194E+02 0.  0.
         12    1    1    2    0    0  0.11428735098E+02 -0.23980451364E+02 -0.34321224279E+02  0.43400742731E+02  0.00000000000E+00 0. -1.
         11    1    3    3    0    0 -0.62466552620E+01  0.19203678967E+02  0.21588693048E+02  0.29561354090E+02  0.51100000000E-03 0.  1.
        -11    1    3    3    0    0 -0.12057904031E+01  0.39938745906E+00 -0.19895567068E+01  0.23604611815E+01  0.51100000000E-03 0. -1.
         12    1    3    3    0    0 -0.39762894327E+01  0.43773849380E+01  0.14722087938E+02  0.15865441998E+02  0.00000000000E+00 0. -1.
</event>
<event>
 7    1  0.5411321E-010  0.4778727E+02  0.7816164E-02  0.1312668E+00
        -11   -1    0    0    0    0  0.00000000000E+00  0.00000000000E+00  0.45593999997E+02  0.45594000000E+02  0.51100000000E-03 0.  1.
         11   -1    0    0    0    0 -0.00000000000E+00 -0.00000000000E+00 -0.45593999997E+02  0.45594000000E+02  0.51100000000E-03 0. -1.
    9900012    2    1    2    0    0 -0.90797846255E+01 -0.40347285806E+02 -0.13163474943E+02  0.47787273816E+02  0.20000012635E+02 0.  0.
         12    1    1    2    0    0  0.90797846255E+01  0.40347285806E+02  0.13163474943E+02  0.43400726184E+02  0.00000000000E+00 0. -1.
         11    1    3    3    0    0 -0.17390564052E+01 -0.13124332934E+01 -0.30778192678E+01  0.37709110353E+01  0.51100000000E-03 0. -1.
        -11    1    3    3    0    0 -0.37616532868E+01 -0.19703418169E+02 -0.13338362447E+02  0.24089139379E+02  0.51100000000E-03 0.  1.
        -12    1    3    3    0    0 -0.35790749335E+01 -0.19331434343E+02  0.32527067711E+01  0.19927223401E+02  0.00000000000E+00 0.  1.
</event>
<event>
 7    1  0.5411321E-010  0.4778727E+02  0.7816164E-02  0.1312668E+00
        -11   -1    0    0    0    0  0.00000000000E+00  0.00000000000E+00  0.45593999997E+02  0.45594000000E+02  0.51100000000E-03 0.  1.
         11   -1    0    0    0    0 -0.00000000000E+00 -0.00000000000E+00 -0.45593999997E+02  0.45594000000E+02  0.51100000000E-03 0. -1.
    9900012    2    1    2    0    0 -0.10109269490E+02 -0.28214456135E+02  0.31390611137E+02  0.47787270373E+02  0.19999996938E+02 0.  0.
         12    1    1    2    0    0  0.10109269490E+02  0.28214456135E+02 -0.31390611137E+02  0.43400729627E+02  0.00000000000E+00 0. -1.
         11    1    3    3    0    0  0.27574041213E+01 -0.23900818173E+00  0.19077738182E+01  0.33615477985E+01  0.51100000000E-03 0. -1.
        -11    1    3    3    0    0 -0.15365456052E+02 -0.24673234963E+02  0.25220225249E+02  0.38482795183E+02  0.51100000000E-03 0.  1.
        -12    1    3    3    0    0  0.24987824408E+01 -0.33022129898E+01  0.42626120705E+01  0.59429273914E+01  0.00000000000E+00 0.  1.
</event>
<event>
 7    1  0.5411321E-010  0.4778727E+02  0.7816164E-02  0.1312668E+00
        -11   -1    0    0    0    0  0.00000000000E+00  0.00000000000E+00  0.45593999997E+02  0.45594000000E+02  0.51100000000E-03 0.  1.
         11   -1    0    0    0    0 -0.00000000000E+00 -0.00000000000E+00 -0.45593999997E+02  0.45594000000E+02  0.51100000000E-03 0. -1.
    9900012    2    1    2    0    0  0.46146536153E+01 -0.26233239408E+02  0.34265812672E+02  0.47787265030E+02  0.19999972580E+02 0.  0.
         12    1    1    2    0    0 -0.46146536153E+01  0.26233239408E+02 -0.34265812672E+02  0.43400734970E+02  0.00000000000E+00 0. -1.
         11    1    3    3    0    0  0.65968295474E+01 -0.46172513052E+01  0.12485553226E+02  0.14856857316E+02  0.51100000000E-03 0. -1.
        -11    1    3    3    0    0 -0.38872521283E+01 -0.49903538020E+01  0.12569999698E+01  0.64493727884E+01  0.51100000000E-03 0.  1.
        -12    1    3    3    0    0  0.19050761962E+01 -0.16625634301E+02  0.20523259476E+02  0.26481034926E+02  0.00000000000E+00 0.  1.
</event>
<event>
 7    1  0.5411321E-010  0.4778727E+02  0.7816164E-02  0.1312668E+00
        -11   -1    0    0    0    0  0.00000000000E+00  0.00000000000E+00  0.45593999997E+02  0.45594000000E+02  0.51100000000E-03 0. -1.
         11   -1    0    0    0    0 -0.00000000000E+00 -0.00000000000E+00 -0.45593999997E+02  0.45594000000E+02  0.51100000000E-03 0.  1.
    9900012    2    1    2    0    0  0.40542256450E+00 -0.12614940654E+02 -0.41524959670E+02  0.47787269928E+02  0.19999994909E+02 0.  0.
         12    1    1    2    0    0 -0.40542256450E+00  0.12614940654E+02  0.41524959670E+02  0.43400730072E+02  0.00000000000E+00 0. -1.
         11    1    3    3    0    0  0.19292455407E+01 -0.27606050267E+01 -0.19948790450E+01  0.39143928182E+01  0.51100000000E-03 0. -1.
        -11    1    3    3    0    0  0.10261643006E+01 -0.14008165304E+02 -0.27153615988E+02  0.30571237624E+02  0.51100000000E-03 0.  1.
        -12    1    3    3    0    0 -0.25499872769E+01  0.41538296763E+01 -0.12376464637E+02  0.13301639486E+02  0.00000000000E+00 0.  1.
</event>
<event>
 7    1  0.5411321E-010  0.4778728E+02  0.7816164E-02  0.1312668E+00
        -11   -1    0    0    0    0  0.00000000000E+00  0.00000000000E+00  0.45593999997E+02  0.45594000000E+02  0.51100000000E-03 0. -1.
         11   -1    0    0    0    0 -0.00000000000E+00 -0.00000000000E+00 -0.45593999997E+02  0.45594000000E+02  0.51100000000E-03 0.  1.
    9900012    2    1    2    0    0  0.83520930381E+01 -0.33566094512E+02 -0.26214167716E+02  0.47787277104E+02  0.20000027626E+02 0.  0.
         12    1    1    2    0    0 -0.83520930381E+01  0.33566094512E+02  0.26214167716E+02  0.43400722896E+02  0.00000000000E+00 0. -1.
         11    1    3    3    0    0 -0.32861596504E+01 -0.12501259157E+02 -0.29590668253E+01  0.13260331915E+02  0.51100000000E-03 0. -1.
        -11    1    3    3    0    0  0.12477619072E+02 -0.20070418264E+02 -0.19786814993E+02  0.30822568271E+02  0.51100000000E-03 0.  1.
        -12    1    3    3    0    0 -0.83936638342E+00 -0.99441709077E+00 -0.34682858985E+01  0.37043769179E+01  0.00000000000E+00 0.  1.
</event>
<event>
 7    1  0.5411321E-010  0.4778730E+02  0.7816164E-02  0.1312668E+00
        -11   -1    0    0    0    0  0.00000000000E+00  0.00000000000E+00  0.45593999997E+02  0.45594000000E+02  0.51100000000E-03 0.  1.
         11   -1    0    0    0    0 -0.00000000000E+00 -0.00000000000E+00 -0.45593999997E+02  0.45594000000E+02  0.51100000000E-03 0. -1.
    9900012    2    1    2    0    0 -0.12557974487E+02 -0.14965511372E+01  0.41517207342E+02  0.47787298462E+02  0.20000125008E+02 0.  0.
         12    1    1    2    0    0  0.12557974487E+02  0.14965511372E+01 -0.41517207342E+02  0.43400701538E+02  0.00000000000E+00 0. -1.
         11    1    3    3    0    0 -0.76587153660E+01 -0.69875323464E+01  0.10301587368E+02  0.14615205503E+02  0.51100000000E-03 0. -1.
        -11    1    3    3    0    0  0.16082988706E+01  0.26406640169E+01  0.17013265346E+02  0.17291932503E+02  0.51100000000E-03 0.  1.
         12    1    3    3    0    0 -0.65075579921E+01  0.28503171923E+01  0.14202354628E+02  0.15880160456E+02  0.00000000000E+00 0. -1.
</event>
<event>
 7    1  0.5411321E-010  0.4778727E+02  0.7816164E-02  0.1312668E+00
        -11   -1    0    0    0    0  0.00000000000E+00  0.00000000000E+00  0.45593999997E+02  0.45594000000E+02  0.51100000000E-03 0. -1.
         11   -1    0    0    0    0 -0.00000000000E+00 -0.00000000000E+00 -0.45593999997E+02  0.45594000000E+02  0.51100000000E-03 0.  1.
    9900012    2    1    2    0    0 -0.26947982744E+02  0.11022243098E+02 -0.32186017900E+02  0.47787269993E+02  0.19999995206E+02 0.  0.
         12    1    1    2    0    0  0.26947982744E+02 -0.11022243098E+02  0.32186017900E+02  0.43400730007E+02  0.00000000000E+00 0. -1.
         11    1    3    3    0    0 -0.20392524928E+02  0.10055366782E+01 -0.18583349662E+02  0.27608097759E+02  0.51100000000E-03 0. -1.
        -11    1    3    3    0    0  0.75524665195E+00  0.29262513624E+01  0.19672602409E+00  0.30285385801E+01  0.51100000000E-03 0.  1.
        -12    1    3    3    0    0 -0.73107044681E+01  0.70904550572E+01 -0.13799394262E+02  0.17150633654E+02  0.00000000000E+00 0.  1.
</event>
<event>
 7    1  0.5411321E-010  0.4778727E+02  0.7816164E-02  0.1312668E+00
        -11   -1    0    0    0    0  0.00000000000E+00  0.00000000000E+00  0.45593999997E+02  0.45594000000E+02  0.51100000000E-03 0.  1.
         11   -1    0    0    0    0 -0.00000000000E+00 -0.00000000000E+00 -0.45593999997E+02  0.45594000000E+02  0.51100000000E-03 0. -1.
    9900012    2    1    2    0    0  0.17625713635E+01  0.21651178516E+02  0.37573171575E+02  0.47787269463E+02  0.19999992790E+02 0.  0.
         12    1    1    2    0    0 -0.17625713635E+01 -0.21651178516E+02 -0.37573171575E+02  0.43400730537E+02  0.00000000000E+00 0. -1.
         11    1    3    3    0    0  0.25435761718E+01  0.13182096866E+02  0.12892596297E+02  0.18613341910E+02  0.51100000000E-03 0. -1.
        -11    1    3    3    0    0 -0.17173409326E+01 -0.73996961652E+00  0.17120825633E+02  0.17222644556E+02  0.51100000000E-03 0.  1.
        -12    1    3    3    0    0  0.93633612433E+00  0.92090512667E+01  0.75597496453E+01  0.11951282997E+02  0.00000000000E+00 0.  1.
</event>
<event>
 7    1  0.5411321E-010  0.4778727E+02  0.7816164E-02  0.1312668E+00
        -11   -1    0    0    0    0  0.00000000000E+00  0.00000000000E+00  0.45593999997E+02  0.45594000000E+02  0.51100000000E-03 0. -1.
         11   -1    0    0    0    0 -0.00000000000E+00 -0.00000000000E+00 -0.45593999997E+02  0.45594000000E+02  0.51100000000E-03 0.  1.
    9900012    2    1    2    0    0  0.33913220136E+02 -0.25496484685E+02 -0.91348738693E+01  0.47787272449E+02  0.20000006406E+02 0.  0.
         12    1    1    2    0    0 -0.33913220136E+02  0.25496484685E+02  0.91348738693E+01  0.43400727551E+02  0.00000000000E+00 0. -1.
         11    1    3    3    0    0  0.53416114643E+01 -0.11383536873E+02 -0.77865684221E+01  0.14790144449E+02  0.51100000000E-03 0. -1.
        -11    1    3    3    0    0  0.23233516992E+02 -0.74008053952E+01 -0.64461927649E+00  0.24392289080E+02  0.51100000000E-03 0.  1.
        -12    1    3    3    0    0  0.53380916803E+01 -0.67121424168E+01 -0.70368617065E+00  0.86048389199E+01  0.00000000000E+00 0.  1.
</event>
<event>
 7    1  0.5411321E-010  0.4778728E+02  0.7816164E-02  0.1312668E+00
        -11   -1    0    0    0    0  0.00000000000E+00  0.00000000000E+00  0.45593999997E+02  0.45594000000E+02  0.51100000000E-03 0. -1.
         11   -1    0    0    0    0 -0.00000000000E+00 -0.00000000000E+00 -0.45593999997E+02  0.45594000000E+02  0.51100000000E-03 0.  1.
    9900012    2    1    2    0    0  0.14200528440E+02  0.14096581104E+02 -0.38513032752E+02  0.47787282281E+02  0.20000051232E+02 0.  0.
         12    1    1    2    0    0 -0.14200528440E+02 -0.14096581104E+02  0.38513032752E+02  0.43400717719E+02  0.00000000000E+00 0. -1.
         11    1    3    3    0    0  0.17600739041E+01  0.39498339088E-01  0.95001487005E+00  0.20004871360E+01  0.51100000000E-03 0. -1.
        -11    1    3    3    0    0  0.14644833666E+02  0.14726179342E+02 -0.33768884337E+02  0.39644281564E+02  0.51100000000E-03 0.  1.
        -12    1    3    3    0    0 -0.22043791299E+01 -0.66909657751E+00 -0.56941632847E+01  0.61425135809E+01  0.00000000000E+00 0.  1.
</event>
<event>
 7    1  0.5411321E-010  0.4778729E+02  0.7816164E-02  0.1312668E+00
        -11   -1    0    0    0    0  0.00000000000E+00  0.00000000000E+00  0.45593999997E+02  0.45594000000E+02  0.51100000000E-03 0.  1.
         11   -1    0    0    0    0 -0.00000000000E+00 -0.00000000000E+00 -0.45593999997E+02  0.45594000000E+02  0.51100000000E-03 0. -1.
    9900012    2    1    2    0    0 -0.21217978013E+02 -0.29965307885E+01  0.37741757414E+02  0.47787285254E+02  0.20000064788E+02 0.  0.
         12    1    1    2    0    0  0.21217978013E+02  0.29965307885E+01 -0.37741757414E+02  0.43400714746E+02  0.00000000000E+00 0. -1.
         11    1    3    3    0    0 -0.34800225808E+00  0.17884269452E+01  0.41600606949E+01  0.45415505894E+01  0.51100000000E-03 0. -1.
        -11    1    3    3    0    0 -0.31992658367E+00 -0.44405541458E+01  0.14617063566E+02  0.15280033433E+02  0.51100000000E-03 0.  1.
        -12    1    3    3    0    0 -0.20550049171E+02 -0.34440358790E+00  0.18964633153E+02  0.27965701232E+02  0.00000000000E+00 0.  1.
</event>
<event>
 7    1  0.5411321E-010  0.4778727E+02  0.7816164E-02  0.1312668E+00
        -11   -1    0    0    0    0  0.00000000000E+00  0.00000000000E+00  0.45593999997E+02  0.45594000000E+02  0.51100000000E-03 0.  1.
         11   -1    0    0    0    0 -0.00000000000E+00 -0.00000000000E+00 -0.45593999997E+02  0.45594000000E+02  0.51100000000E-03 0. -1.
    9900012    2    1    2    0    0 -0.33776794190E+02  0.25431787902E+02  0.97967114395E+01  0.47787271703E+02  0.20000003003E+02 0.  0.
         12    1    1    2    0    0  0.33776794190E+02 -0.25431787902E+02 -0.97967114395E+01  0.43400728297E+02  0.00000000000E+00 0. -1.
         11    1    3    3    0    0 -0.58085501165E+01  0.19410071945E+01  0.89195331238E+00  0.61888887821E+01  0.51100000000E-03 0. -1.
        -11    1    3    3    0    0 -0.15448585606E+02  0.22156767896E+01  0.60906842689E+01  0.16753043186E+02  0.51100000000E-03 0.  1.
        -12    1    3    3    0    0 -0.12519658468E+02  0.21275103918E+02  0.28140738581E+01  0.24845339735E+02  0.00000000000E+00 0.  1.
</event>
<event>
 7    1  0.5411321E-010  0.4778728E+02  0.7816164E-02  0.1312668E+00
        -11   -1    0    0    0    0  0.00000000000E+00  0.00000000000E+00  0.45593999997E+02  0.45594000000E+02  0.51100000000E-03 0.  1.
         11   -1    0    0    0    0 -0.00000000000E+00 -0.00000000000E+00 -0.45593999997E+02  0.45594000000E+02  0.51100000000E-03 0. -1.
    9900012    2    1    2    0    0  0.26282287816E+02  0.19507102440E+02  0.28501528988E+02  0.47787275892E+02  0.20000022102E+02 0.  0.
         12    1    1    2    0    0 -0.26282287816E+02 -0.19507102440E+02 -0.28501528988E+02  0.43400724108E+02  0.00000000000E+00 0. -1.
         11    1    3    3    0    0  0.45462030135E+00 -0.16637816963E+01  0.24277987652E+01  0.29780960791E+01  0.51100000000E-03 0. -1.
        -11    1    3    3    0    0  0.25444205121E+02  0.19119317475E+02  0.18199459962E+02  0.36663008853E+02  0.51100000000E-03 0.  1.
        -12    1    3    3    0    0  0.38346239338E+00  0.20515666609E+01  0.78742702604E+01  0.81461709598E+01  0.00000000000E+00 0.  1.
</event>
<event>
 7    1  0.5411321E-010  0.4778727E+02  0.7816164E-02  0.1312668E+00
        -11   -1    0    0    0    0  0.00000000000E+00  0.00000000000E+00  0.45593999997E+02  0.45594000000E+02  0.51100000000E-03 0.  1.
         11   -1    0    0    0    0 -0.00000000000E+00 -0.00000000000E+00 -0.45593999997E+02  0.45594000000E+02  0.51100000000E-03 0. -1.
    9900012    2    1    2    0    0 -0.16109737346E+01 -0.17922080771E+02  0.39494650361E+02  0.47787267026E+02  0.19999981679E+02 0.  0.
         12    1    1    2    0    0  0.16109737346E+01  0.17922080771E+02 -0.39494650361E+02  0.43400732974E+02  0.00000000000E+00 0. -1.
         11    1    3    3    0    0 -0.63755389942E+01 -0.15873488276E+02  0.20587517856E+02  0.26766789484E+02  0.51100000000E-03 0. -1.
        -11    1    3    3    0    0  0.55198481463E+01 -0.28096618339E+01  0.18960903735E+02  0.19946899355E+02  0.51100000000E-03 0.  1.
        -12    1    3    3    0    0 -0.75528288666E+00  0.76106933934E+00 -0.53771230410E-01  0.10735781869E+01  0.00000000000E+00 0.  1.
</event>
<event>
 7    1  0.5411321E-010  0.4778724E+02  0.7816164E-02  0.1312668E+00
        -11   -1    0    0    0    0  0.00000000000E+00  0.00000000000E+00  0.45593999997E+02  0.45594000000E+02  0.51100000000E-03 0.  1.
         11   -1    0    0    0    0 -0.00000000000E+00 -0.00000000000E+00 -0.45593999997E+02  0.45594000000E+02  0.51100000000E-03 0. -1.
    9900012    2    1    2    0    0  0.41066482639E+02  0.10654386050E+02 -0.91462796867E+01  0.47787235369E+02  0.19999837341E+02 0.  0.
         12    1    1    2    0    0 -0.41066482639E+02 -0.10654386050E+02  0.91462796867E+01  0.43400764631E+02  0.00000000000E+00 0. -1.
         11    1    3    3    0    0  0.24092603162E+02  0.10683765206E+01 -0.10412357996E+02  0.26268082435E+02  0.51100000000E-03 0. -1.
        -11    1    3    3    0    0  0.12972917664E+02  0.33358631476E+01 -0.17496740151E+01  0.13508735510E+02  0.51100000000E-03 0.  1.
         12    1    3    3    0    0  0.40009618134E+01  0.62501463819E+01  0.30157523248E+01  0.80104174243E+01  0.00000000000E+00 0. -1.
</event>
<event>
 7    1  0.5411321E-010  0.4778727E+02  0.7816164E-02  0.1312668E+00
        -11   -1    0    0    0    0  0.00000000000E+00  0.00000000000E+00  0.45593999997E+02  0.45594000000E+02  0.51100000000E-03 0.  1.
         11   -1    0    0    0    0 -0.00000000000E+00 -0.00000000000E+00 -0.45593999997E+02  0.45594000000E+02  0.51100000000E-03 0. -1.
    9900012    2    1    2    0    0  0.24583317727E+02  0.31076794831E+02  0.17706398527E+02  0.47787271478E+02  0.20000001977E+02 0.  0.
         12    1    1    2    0    0 -0.24583317727E+02 -0.31076794831E+02 -0.17706398527E+02  0.43400728522E+02  0.00000000000E+00 0. -1.
         11    1    3    3    0    0 -0.78354370814E+00 -0.11454047040E+00 -0.57630691222E+00  0.97938255044E+00  0.51100000000E-03 0. -1.
        -11    1    3    3    0    0  0.11942733538E+01  0.11266350718E+02  0.20062551672E+01  0.11505738021E+02  0.51100000000E-03 0.  1.
        -12    1    3    3    0    0  0.24172588082E+02  0.19924984583E+02  0.16276450272E+02  0.35302150907E+02  0.00000000000E+00 0.  1.
</event>
<event>
 7    1  0.5411321E-010  0.4778727E+02  0.7816164E-02  0.1312668E+00
        -11   -1    0    0    0    0  0.00000000000E+00  0.00000000000E+00  0.45593999997E+02  0.45594000000E+02  0.51100000000E-03 0.  1.
         11   -1    0    0    0    0 -0.00000000000E+00 -0.00000000000E+00 -0.45593999997E+02  0.45594000000E+02  0.51100000000E-03 0. -1.
    9900012    2    1    2    0    0  0.34117966206E+02 -0.23791534724E+02  0.12391565116E+02  0.47787266958E+02  0.19999981368E+02 0.  0.
         12    1    1    2    0    0 -0.34117966206E+02  0.23791534724E+02 -0.12391565116E+02  0.43400733042E+02  0.00000000000E+00 0. -1.
         11    1    3    3    0    0  0.19812449151E+02 -0.13803540223E+02  0.12353182441E+02  0.27123273783E+02  0.51100000000E-03 0. -1.
        -11    1    3    3    0    0  0.99383933971E+01 -0.10860189057E+02  0.33703186635E+01  0.15102132890E+02  0.51100000000E-03 0.  1.
         12    1    3    3    0    0  0.43671236585E+01  0.87219455578E+00 -0.33319359892E+01  0.55618602848E+01  0.00000000000E+00 0. -1.
</event>
<event>
 7    1  0.5411321E-010  0.4778727E+02  0.7816164E-02  0.1312668E+00
        -11   -1    0    0    0    0  0.00000000000E+00  0.00000000000E+00  0.45593999997E+02  0.45594000000E+02  0.51100000000E-03 0.  1.
         11   -1    0    0    0    0 -0.00000000000E+00 -0.00000000000E+00 -0.45593999997E+02  0.45594000000E+02  0.51100000000E-03 0. -1.
    9900012    2    1    2    0    0 -0.28315953604E+02 -0.22705632628E+02  0.23796732653E+02  0.47787268825E+02  0.19999989883E+02 0.  0.
         12    1    1    2    0    0  0.28315953604E+02  0.22705632628E+02 -0.23796732653E+02  0.43400731175E+02  0.00000000000E+00 0. -1.
         11    1    3    3    0    0  0.10177685858E+00 -0.42201366051E+01  0.15614900946E+01  0.45009069165E+01  0.51100000000E-03 0. -1.
        -11    1    3    3    0    0 -0.28545436471E+02 -0.14384434447E+02  0.15805613463E+02  0.35659098627E+02  0.51100000000E-03 0.  1.
        -12    1    3    3    0    0  0.12770600839E+00 -0.41010615754E+01  0.64296290951E+01  0.76272632819E+01  0.00000000000E+00 0.  1.
</event>
<event>
 7    1  0.5411321E-010  0.4778727E+02  0.7816164E-02  0.1312668E+00
        -11   -1    0    0    0    0  0.00000000000E+00  0.00000000000E+00  0.45593999997E+02  0.45594000000E+02  0.51100000000E-03 0.  1.
         11   -1    0    0    0    0 -0.00000000000E+00 -0.00000000000E+00 -0.45593999997E+02  0.45594000000E+02  0.51100000000E-03 0. -1.
    9900012    2    1    2    0    0  0.35244847735E+02 -0.23971124688E+02  0.81736902546E+01  0.47787270478E+02  0.19999997418E+02 0.  0.
         12    1    1    2    0    0 -0.35244847735E+02  0.23971124688E+02 -0.81736902546E+01  0.43400729522E+02  0.00000000000E+00 0. -1.
         11    1    3    3    0    0 -0.94838594111E-02  0.44794352367E+00  0.71066292389E+00  0.84011034781E+00  0.51100000000E-03 0. -1.
        -11    1    3    3    0    0  0.23362323005E+02 -0.55612602169E+01  0.48532442515E+01  0.24500606757E+02  0.51100000000E-03 0.  1.
        -12    1    3    3    0    0  0.11892008589E+02 -0.18857807995E+02  0.26097830792E+01  0.22446553374E+02  0.00000000000E+00 0.  1.
</event>
<event>
 7    1  0.5411321E-010  0.4778727E+02  0.7816164E-02  0.1312668E+00
        -11   -1    0    0    0    0  0.00000000000E+00  0.00000000000E+00  0.45593999997E+02  0.45594000000E+02  0.51100000000E-03 0.  1.
         11   -1    0    0    0    0 -0.00000000000E+00 -0.00000000000E+00 -0.45593999997E+02  0.45594000000E+02  0.51100000000E-03 0. -1.
    9900012    2    1    2    0    0 -0.17433776674E+02  0.43870689401E+01 -0.39502405074E+02  0.47787274780E+02  0.20000017034E+02 0.  0.
         12    1    1    2    0    0  0.17433776674E+02 -0.43870689401E+01  0.39502405074E+02  0.43400725220E+02  0.00000000000E+00 0. -1.
         11    1    3    3    0    0 -0.28845001165E+00  0.18174339996E+01 -0.67559570415E+01  0.70020872288E+01  0.51100000000E-03 0. -1.
        -11    1    3    3    0    0 -0.10759665962E+02 -0.61497459550E+01 -0.23475556896E+02  0.26546027175E+02  0.51100000000E-03 0.  1.
        -12    1    3    3    0    0 -0.63856607003E+01  0.87193808955E+01 -0.92708911360E+01  0.14239160377E+02  0.00000000000E+00 0.  1.
</event>
<event>
 7    1  0.5411321E-010  0.4778727E+02  0.7816164E-02  0.1312668E+00
        -11   -1    0    0    0    0  0.00000000000E+00  0.00000000000E+00  0.45593999997E+02  0.45594000000E+02  0.51100000000E-03 0.  1.
         11   -1    0    0    0    0 -0.00000000000E+00 -0.00000000000E+00 -0.45593999997E+02  0.45594000000E+02  0.51100000000E-03 0. -1.
    9900012    2    1    2    0    0  0.48484101020E+00  0.27695927805E+02  0.33411434573E+02  0.47787269038E+02  0.19999990854E+02 0.  0.
         12    1    1    2    0    0 -0.48484101020E+00 -0.27695927805E+02 -0.33411434573E+02  0.43400730962E+02  0.00000000000E+00 0. -1.
         11    1    3    3    0    0  0.65714667994E+00 -0.17780488488E+01  0.71068227395E+01  0.73552857986E+01  0.51100000000E-03 0. -1.
        -11    1    3    3    0    0 -0.28457337718E+01  0.22357625340E+02  0.16058542291E+02  0.27673785291E+02  0.51100000000E-03 0.  1.
        -12    1    3    3    0    0  0.26734281021E+01  0.71163513140E+01  0.10246069543E+02  0.12758197949E+02  0.00000000000E+00 0.  1.
</event>
<event>
 7    1  0.5411321E-010  0.4778727E+02  0.7816164E-02  0.1312668E+00
        -11   -1    0    0    0    0  0.00000000000E+00  0.00000000000E+00  0.45593999997E+02  0.45594000000E+02  0.51100000000E-03 0. -1.
         11   -1    0    0    0    0 -0.00000000000E+00 -0.00000000000E+00 -0.45593999997E+02  0.45594000000E+02  0.51100000000E-03 0.  1.
    9900012    2    1    2    0    0  0.40912371173E+02  0.14481940139E+02  0.27311636793E+00  0.47787270770E+02  0.19999998747E+02 0.  0.
         12    1    1    2    0    0 -0.40912371173E+02 -0.14481940139E+02 -0.27311636793E+00  0.43400729230E+02  0.00000000000E+00 0. -1.
         11    1    3    3    0    0  0.10139745054E+02 -0.18552214438E+01  0.12102724570E+01  0.10378874507E+02  0.51100000000E-03 0. -1.
        -11    1    3    3    0    0  0.22381273749E+02  0.13844020625E+02 -0.64076984988E+01  0.27085732812E+02  0.51100000000E-03 0.  1.
        -12    1    3    3    0    0  0.83913523705E+01  0.24931409577E+01  0.54705424097E+01  0.10322663450E+02  0.00000000000E+00 0.  1.
</event>
<event>
 7    1  0.5411321E-010  0.4778730E+02  0.7816164E-02  0.1312668E+00
        -11   -1    0    0    0    0  0.00000000000E+00  0.00000000000E+00  0.45593999997E+02  0.45594000000E+02  0.51100000000E-03 0.  1.
         11   -1    0    0    0    0 -0.00000000000E+00 -0.00000000000E+00 -0.45593999997E+02  0.45594000000E+02  0.51100000000E-03 0. -1.
    9900012    2    1    2    0    0 -0.21170478467E+01 -0.34038859637E+02  0.26842036985E+02  0.47787299471E+02  0.20000129606E+02 0.  0.
         12    1    1    2    0    0  0.21170478467E+01  0.34038859637E+02 -0.26842036985E+02  0.43400700529E+02  0.00000000000E+00 0. -1.
         11    1    3    3    0    0  0.51207668965E+01 -0.14482071459E+02  0.18113524384E+02  0.23749787646E+02  0.51100000000E-03 0. -1.
        -11    1    3    3    0    0 -0.67618742017E+01 -0.69633960133E+01  0.27460743487E+01  0.10087256879E+02  0.51100000000E-03 0.  1.
        -12    1    3    3    0    0 -0.47594054150E+00 -0.12593392164E+02  0.59824382520E+01  0.13950254946E+02  0.00000000000E+00 0.  1.
</event>
<event>
 7    1  0.5411321E-010  0.4778727E+02  0.7816164E-02  0.1312668E+00
        -11   -1    0    0    0    0  0.00000000000E+00  0.00000000000E+00  0.45593999997E+02  0.45594000000E+02  0.51100000000E-03 0.  1.
         11   -1    0    0    0    0 -0.00000000000E+00 -0.00000000000E+00 -0.45593999997E+02  0.45594000000E+02  0.51100000000E-03 0. -1.
    9900012    2    1    2    0    0 -0.32641723923E+02 -0.27447565643E+02  0.80481235557E+01  0.47787270822E+02  0.19999998986E+02 0.  0.
         12    1    1    2    0    0  0.32641723923E+02  0.27447565643E+02 -0.80481235557E+01  0.43400729178E+02  0.00000000000E+00 0. -1.
         11    1    3    3    0    0 -0.84271717211E+01  0.34407392917E+00  0.49186770878E-01  0.84343363512E+01  0.51100000000E-03 0.  1.
        -11    1    3    3    0    0 -0.10952736092E+02 -0.19994300074E+02  0.73568208440E+01  0.23955318335E+02  0.51100000000E-03 0. -1.
        -12    1    3    3    0    0 -0.13261816110E+02 -0.77973394987E+01  0.64211594082E+00  0.15397616136E+02  0.00000000000E+00 0.  1.
</event>
<event>
 7    1  0.5411321E-010  0.4778727E+02  0.7816164E-02  0.1312668E+00
        -11   -1    0    0    0    0  0.00000000000E+00  0.00000000000E+00  0.45593999997E+02  0.45594000000E+02  0.51100000000E-03 0.  1.
         11   -1    0    0    0    0 -0.00000000000E+00 -0.00000000000E+00 -0.45593999997E+02  0.45594000000E+02  0.51100000000E-03 0. -1.
    9900012    2    1    2    0    0 -0.27481574005E+02  0.40027524775E+00  0.33589074585E+02  0.47787273490E+02  0.20000011152E+02 0.  0.
         12    1    1    2    0    0  0.27481574005E+02 -0.40027524775E+00 -0.33589074585E+02  0.43400726510E+02  0.00000000000E+00 0. -1.
         11    1    3    3    0    0  0.82366463362E+00 -0.21227089837E+01 -0.24822180391E+00  0.22903997868E+01  0.51100000000E-03 0. -1.
        -11    1    3    3    0    0 -0.28753479332E+02  0.35562263425E+01  0.33561804999E+02  0.44337389127E+02  0.51100000000E-03 0.  1.
        -12    1    3    3    0    0  0.44824069273E+00 -0.10332421110E+01  0.27549138941E+00  0.11594845770E+01  0.00000000000E+00 0.  1.
</event>
<event>
 7    1  0.5411321E-010  0.4778728E+02  0.7816164E-02  0.1312668E+00
        -11   -1    0    0    0    0  0.00000000000E+00  0.00000000000E+00  0.45593999997E+02  0.45594000000E+02  0.51100000000E-03 0.  1.
         11   -1    0    0    0    0 -0.00000000000E+00 -0.00000000000E+00 -0.45593999997E+02  0.45594000000E+02  0.51100000000E-03 0. -1.
    9900012    2    1    2    0    0  0.42928245058E+02  0.22382269184E+01 -0.59815586578E+01  0.47787275035E+02  0.20000018195E+02 0.  0.
         12    1    1    2    0    0 -0.42928245058E+02 -0.22382269184E+01  0.59815586578E+01  0.43400724965E+02  0.00000000000E+00 0. -1.
         11    1    3    3    0    0  0.34107036662E+02 -0.44613474606E+01 -0.66112106275E+01  0.35027156283E+02  0.51100000000E-03 0. -1.
        -11    1    3    3    0    0  0.65698290376E+01  0.43522156529E+01 -0.24785981002E+01  0.82612277221E+01  0.51100000000E-03 0.  1.
         12    1    3    3    0    0  0.22513793583E+01  0.23473587261E+01  0.31082500699E+01  0.44988910301E+01  0.00000000000E+00 0. -1.
</event>
<event>
 7    1  0.5411321E-010  0.4778727E+02  0.7816164E-02  0.1312668E+00
        -11   -1    0    0    0    0  0.00000000000E+00  0.00000000000E+00  0.45593999997E+02  0.45594000000E+02  0.51100000000E-03 0.  1.
         11   -1    0    0    0    0 -0.00000000000E+00 -0.00000000000E+00 -0.45593999997E+02  0.45594000000E+02  0.51100000000E-03 0. -1.
    9900012    2    1    2    0    0 -0.28437884375E+02  0.32624273108E+02  0.32506595899E+01  0.47787271305E+02  0.20000001187E+02 0.  0.
         12    1    1    2    0    0  0.28437884375E+02 -0.32624273108E+02 -0.32506595899E+01  0.43400728695E+02  0.00000000000E+00 0. -1.
         11    1    3    3    0    0 -0.59213095087E+00  0.35184476515E+01 -0.31286399080E+01  0.47453641456E+01  0.51100000000E-03 0. -1.
        -11    1    3    3    0    0 -0.28923222645E+01  0.63502494010E+01 -0.35666937756E+01  0.78366128070E+01  0.51100000000E-03 0.  1.
        -12    1    3    3    0    0 -0.24953431159E+02  0.22755576055E+02  0.99459932735E+01  0.35205294352E+02  0.00000000000E+00 0.  1.
</event>
<event>
 7    1  0.5411321E-010  0.4778727E+02  0.7816164E-02  0.1312668E+00
        -11   -1    0    0    0    0  0.00000000000E+00  0.00000000000E+00  0.45593999997E+02  0.45594000000E+02  0.51100000000E-03 0.  1.
         11   -1    0    0    0    0 -0.00000000000E+00 -0.00000000000E+00 -0.45593999997E+02  0.45594000000E+02  0.51100000000E-03 0. -1.
    9900012    2    1    2    0    0 -0.40484204851E+02  0.40959239022E+01  0.15095557638E+02  0.47787270796E+02  0.19999998867E+02 0.  0.
         12    1    1    2    0    0  0.40484204851E+02 -0.40959239022E+01 -0.15095557638E+02  0.43400729204E+02  0.00000000000E+00 0. -1.
         11    1    3    3    0    0 -0.12049878669E+02 -0.42889360624E+01  0.51120966096E+01  0.13774181663E+02  0.51100000000E-03 0. -1.
        -11    1    3    3    0    0 -0.14098191888E+02  0.59868272798E+01 -0.16366540972E+01  0.15403887571E+02  0.51100000000E-03 0.  1.
        -12    1    3    3    0    0 -0.14336134295E+02  0.23980326847E+01  0.11620115125E+02  0.18609201562E+02  0.00000000000E+00 0.  1.
</event>
<event>
 7    1  0.5411321E-010  0.4778727E+02  0.7816164E-02  0.1312668E+00
        -11   -1    0    0    0    0  0.00000000000E+00  0.00000000000E+00  0.45593999997E+02  0.45594000000E+02  0.51100000000E-03 0. -1.
         11   -1    0    0    0    0 -0.00000000000E+00 -0.00000000000E+00 -0.45593999997E+02  0.45594000000E+02  0.51100000000E-03 0.  1.
    9900012    2    1    2    0    0 -0.42538598219E+02 -0.39779318735E+01 -0.76333017280E+01  0.47787267567E+02  0.19999984146E+02 0.  0.
         12    1    1    2    0    0  0.42538598219E+02  0.39779318735E+01  0.76333017280E+01  0.43400732433E+02  0.00000000000E+00 0. -1.
         11    1    3    3    0    0 -0.13041900988E+02 -0.87970610495E+01 -0.33316115318E+00  0.15735007503E+02  0.51100000000E-03 0. -1.
        -11    1    3    3    0    0 -0.18751832674E+02  0.49757011449E+01 -0.64321606752E+00  0.19411402775E+02  0.51100000000E-03 0.  1.
        -12    1    3    3    0    0 -0.10744864557E+02 -0.15657196881E+00 -0.66569245073E+01  0.12640857290E+02  0.00000000000E+00 0.  1.
</event>
<event>
 7    1  0.5411321E-010  0.4778726E+02  0.7816164E-02  0.1312668E+00
        -11   -1    0    0    0    0  0.00000000000E+00  0.00000000000E+00  0.45593999997E+02  0.45594000000E+02  0.51100000000E-03 0.  1.
         11   -1    0    0    0    0 -0.00000000000E+00 -0.00000000000E+00 -0.45593999997E+02  0.45594000000E+02  0.51100000000E-03 0. -1.
    9900012    2    1    2    0    0 -0.93442814570E+01  0.36654085515E+02  0.21278786259E+02  0.47787258928E+02  0.19999944758E+02 0.  0.
         12    1    1    2    0    0  0.93442814570E+01 -0.36654085515E+02 -0.21278786259E+02  0.43400741072E+02  0.00000000000E+00 0. -1.
         11    1    3    3    0    0 -0.28480087225E+01  0.66213766594E-01 -0.88072844296E+00  0.29818150174E+01  0.51100000000E-03 0.  1.
        -11    1    3    3    0    0 -0.79814629179E+01  0.29142704444E+02  0.12960371936E+02  0.32878141882E+02  0.51100000000E-03 0. -1.
        -12    1    3    3    0    0  0.14851901834E+01  0.74451673050E+01  0.91991427657E+01  0.11927302030E+02  0.00000000000E+00 0.  1.
</event>
<event>
 7    1  0.5411321E-010  0.4778727E+02  0.7816164E-02  0.1312668E+00
        -11   -1    0    0    0    0  0.00000000000E+00  0.00000000000E+00  0.45593999997E+02  0.45594000000E+02  0.51100000000E-03 0.  1.
         11   -1    0    0    0    0 -0.00000000000E+00 -0.00000000000E+00 -0.45593999997E+02  0.45594000000E+02  0.51100000000E-03 0. -1.
    9900012    2    1    2    0    0  0.17834294133E+02  0.17845106907E+02  0.35314491394E+02  0.47787272009E+02  0.20000004396E+02 0.  0.
         12    1    1    2    0    0 -0.17834294133E+02 -0.17845106907E+02 -0.35314491394E+02  0.43400727991E+02  0.00000000000E+00 0. -1.
         11    1    3    3    0    0  0.80583865554E+01 -0.15351336834E+01  0.58948578627E+01  0.10101662179E+02  0.51100000000E-03 0. -1.
        -11    1    3    3    0    0  0.42659013759E+00  0.67253868720E+01  0.14560027927E+02  0.16043915396E+02  0.51100000000E-03 0.  1.
         12    1    3    3    0    0  0.93493174404E+01  0.12654853719E+02  0.14859605604E+02  0.21641694433E+02  0.00000000000E+00 0. -1.
</event>
<event>
 7    1  0.5411321E-010  0.4778726E+02  0.7816164E-02  0.1312668E+00
        -11   -1    0    0    0    0  0.00000000000E+00  0.00000000000E+00  0.45593999997E+02  0.45594000000E+02  0.51100000000E-03 0.  1.
         11   -1    0    0    0    0 -0.00000000000E+00 -0.00000000000E+00 -0.45593999997E+02  0.45594000000E+02  0.51100000000E-03 0. -1.
    9900012    2    1    2    0    0 -0.18870473660E+02 -0.81135671418E+01  0.38232178043E+02  0.47787260539E+02  0.19999952100E+02 0.  0.
         12    1    1    2    0    0  0.18870473660E+02  0.81135671418E+01 -0.38232178043E+02  0.43400739461E+02  0.00000000000E+00 0. -1.
         11    1    3    3    0    0 -0.92163832766E+01 -0.27842068801E+01  0.63116700363E+01  0.11512198207E+02  0.51100000000E-03 0. -1.
        -11    1    3    3    0    0 -0.44319354833E+01 -0.70225021516E+01  0.73210259329E+01  0.11070456611E+02  0.51100000000E-03 0.  1.
         12    1    3    3    0    0 -0.52221549001E+01  0.16931418899E+01  0.24599482073E+02  0.25204605721E+02  0.00000000000E+00 0. -1.
</event>
<event>
 7    1  0.5411321E-010  0.4778727E+02  0.7816164E-02  0.1312668E+00
        -11   -1    0    0    0    0  0.00000000000E+00  0.00000000000E+00  0.45593999997E+02  0.45594000000E+02  0.51100000000E-03 0. -1.
         11   -1    0    0    0    0 -0.00000000000E+00 -0.00000000000E+00 -0.45593999997E+02  0.45594000000E+02  0.51100000000E-03 0.  1.
    9900012    2    1    2    0    0  0.88324160692E+00 -0.39615430726E+02 -0.17704820984E+02  0.47787272432E+02  0.20000006325E+02 0.  0.
         12    1    1    2    0    0 -0.88324160692E+00  0.39615430726E+02  0.17704820984E+02  0.43400727568E+02  0.00000000000E+00 0. -1.
         11    1    3    3    0    0 -0.67480621761E+01 -0.25569412691E+02 -0.77799325596E+01  0.27565532090E+02  0.51100000000E-03 0. -1.
        -11    1    3    3    0    0  0.21291363628E+01 -0.62132119750E+01 -0.19226206249E+00  0.65707069376E+01  0.51100000000E-03 0.  1.
         12    1    3    3    0    0  0.55021674202E+01 -0.78328060599E+01 -0.97326263623E+01  0.13651033404E+02  0.00000000000E+00 0. -1.
</event>
<event>
 7    1  0.5411321E-010  0.4778727E+02  0.7816164E-02  0.1312668E+00
        -11   -1    0    0    0    0  0.00000000000E+00  0.00000000000E+00  0.45593999997E+02  0.45594000000E+02  0.51100000000E-03 0.  1.
         11   -1    0    0    0    0 -0.00000000000E+00 -0.00000000000E+00 -0.45593999997E+02  0.45594000000E+02  0.51100000000E-03 0. -1.
    9900012    2    1    2    0    0  0.11413722789E+02 -0.39288093005E+02 -0.14484332874E+02  0.47787271680E+02  0.20000002900E+02 0.  0.
         12    1    1    2    0    0 -0.11413722789E+02  0.39288093005E+02  0.14484332874E+02  0.43400728320E+02  0.00000000000E+00 0. -1.
         11    1    3    3    0    0  0.68116288763E+00 -0.19993797686E+01  0.11401737092E+01  0.24003122061E+01  0.51100000000E-03 0. -1.
        -11    1    3    3    0    0  0.15276299851E+01  0.13034940907E+01  0.11473058218E+01  0.23128037370E+01  0.51100000000E-03 0.  1.
        -12    1    3    3    0    0  0.92049299161E+01 -0.38592207327E+02 -0.16771812405E+02  0.43074155737E+02  0.00000000000E+00 0.  1.
</event>
<event>
 7    1  0.5411321E-010  0.4778727E+02  0.7816164E-02  0.1312668E+00
        -11   -1    0    0    0    0  0.00000000000E+00  0.00000000000E+00  0.45593999997E+02  0.45594000000E+02  0.51100000000E-03 0.  1.
         11   -1    0    0    0    0 -0.00000000000E+00 -0.00000000000E+00 -0.45593999997E+02  0.45594000000E+02  0.51100000000E-03 0. -1.
    9900012    2    1    2    0    0 -0.56447396759E+01 -0.39264108103E+02  0.17609364905E+02  0.47787274160E+02  0.20000014204E+02 0.  0.
         12    1    1    2    0    0  0.56447396759E+01  0.39264108103E+02 -0.17609364905E+02  0.43400725840E+02  0.00000000000E+00 0. -1.
         11    1    3    3    0    0 -0.39303304014E+01 -0.74638309773E+00 -0.10981835378E+01  0.41485650696E+01  0.51100000000E-03 0. -1.
        -11    1    3    3    0    0 -0.36891853102E+01 -0.35704490770E+02  0.16182644451E+02  0.39373833075E+02  0.51100000000E-03 0.  1.
         12    1    3    3    0    0  0.19747760357E+01 -0.28132342353E+01  0.25249039919E+01  0.42648760149E+01  0.00000000000E+00 0. -1.
</event>
<event>
 7    1  0.5411321E-010  0.4778727E+02  0.7816164E-02  0.1312668E+00
        -11   -1    0    0    0    0  0.00000000000E+00  0.00000000000E+00  0.45593999997E+02  0.45594000000E+02  0.51100000000E-03 0.  1.
         11   -1    0    0    0    0 -0.00000000000E+00 -0.00000000000E+00 -0.45593999997E+02  0.45594000000E+02  0.51100000000E-03 0. -1.
    9900012    2    1    2    0    0  0.35290776317E+02 -0.24884033560E+02  0.43553413345E+01  0.47787273999E+02  0.20000013472E+02 0.  0.
         12    1    1    2    0    0 -0.35290776317E+02  0.24884033560E+02 -0.43553413345E+01  0.43400726001E+02  0.00000000000E+00 0. -1.
         11    1    3    3    0    0 -0.16083325890E+01 -0.27982653392E+01 -0.16056453945E+01  0.36048744804E+01  0.51100000000E-03 0. -1.
        -11    1    3    3    0    0  0.26828440585E+02 -0.19992341809E+02  0.52971811700E+01  0.33875051053E+02  0.51100000000E-03 0.  1.
         12    1    3    3    0    0  0.10070668321E+02 -0.20934264113E+01  0.66380555901E+00  0.10307348466E+02  0.00000000000E+00 0. -1.
</event>
<event>
 7    1  0.5411321E-010  0.4778727E+02  0.7816164E-02  0.1312668E+00
        -11   -1    0    0    0    0  0.00000000000E+00  0.00000000000E+00  0.45593999997E+02  0.45594000000E+02  0.51100000000E-03 0.  1.
         11   -1    0    0    0    0 -0.00000000000E+00 -0.00000000000E+00 -0.45593999997E+02  0.45594000000E+02  0.51100000000E-03 0. -1.
    9900012    2    1    2    0    0 -0.11823103528E+02  0.10879597297E+01  0.41745105534E+02  0.47787271095E+02  0.20000000232E+02 0.  0.
         12    1    1    2    0    0  0.11823103528E+02 -0.10879597297E+01 -0.41745105534E+02  0.43400728905E+02  0.00000000000E+00 0. -1.
         11    1    3    3    0    0 -0.14528108470E+01 -0.72896918730E+01  0.18357143317E+02  0.19804923074E+02  0.51100000000E-03 0. -1.
        -11    1    3    3    0    0 -0.71705658764E+01  0.35253794527E+01  0.71022487537E+01  0.10690521638E+02  0.51100000000E-03 0.  1.
         12    1    3    3    0    0 -0.31997268047E+01  0.48522721499E+01  0.16285713463E+02  0.17291826383E+02  0.00000000000E+00 0. -1.
</event>
<event>
 7    1  0.5411321E-010  0.4778727E+02  0.7816164E-02  0.1312668E+00
        -11   -1    0    0    0    0  0.00000000000E+00  0.00000000000E+00  0.45593999997E+02  0.45594000000E+02  0.51100000000E-03 0.  1.
         11   -1    0    0    0    0 -0.00000000000E+00 -0.00000000000E+00 -0.45593999997E+02  0.45594000000E+02  0.51100000000E-03 0. -1.
    9900012    2    1    2    0    0  0.40205589674E+01 -0.39548863413E+02  0.17416823767E+02  0.47787271414E+02  0.20000001684E+02 0.  0.
         12    1    1    2    0    0 -0.40205589674E+01  0.39548863413E+02 -0.17416823767E+02  0.43400728586E+02  0.00000000000E+00 0. -1.
         11    1    3    3    0    0 -0.24118375307E+01 -0.38674232448E+01 -0.24204896389E+01  0.51606872780E+01  0.51100000000E-03 0. -1.
        -11    1    3    3    0    0 -0.90584531191E+00 -0.17877934364E+02  0.13262374114E+02  0.22278502200E+02  0.51100000000E-03 0.  1.
         12    1    3    3    0    0  0.73382418099E+01 -0.17803505805E+02  0.65749392916E+01  0.20348081936E+02  0.00000000000E+00 0. -1.
</event>
<event>
 7    1  0.5411321E-010  0.4778727E+02  0.7816164E-02  0.1312668E+00
        -11   -1    0    0    0    0  0.00000000000E+00  0.00000000000E+00  0.45593999997E+02  0.45594000000E+02  0.51100000000E-03 0. -1.
         11   -1    0    0    0    0 -0.00000000000E+00 -0.00000000000E+00 -0.45593999997E+02  0.45594000000E+02  0.51100000000E-03 0.  1.
    9900012    2    1    2    0    0 -0.28215063984E+02 -0.32556244557E+02 -0.52559005852E+01  0.47787269750E+02  0.19999994097E+02 0.  0.
         12    1    1    2    0    0  0.28215063984E+02  0.32556244557E+02  0.52559005852E+01  0.43400730250E+02  0.00000000000E+00 0. -1.
         11    1    3    3    0    0 -0.25164411557E+02 -0.23448972440E+02 -0.43328258601E+01  0.34668073175E+02  0.51100000000E-03 0. -1.
        -11    1    3    3    0    0  0.11558439185E+00 -0.89585424336E+01 -0.28597725792E+01  0.94046340573E+01  0.51100000000E-03 0.  1.
         12    1    3    3    0    0 -0.31662368193E+01 -0.14872968315E+00  0.19366978541E+01  0.37145625170E+01  0.00000000000E+00 0. -1.
</event>
<event>
 7    1  0.5411321E-010  0.4778727E+02  0.7816164E-02  0.1312668E+00
        -11   -1    0    0    0    0  0.00000000000E+00  0.00000000000E+00  0.45593999997E+02  0.45594000000E+02  0.51100000000E-03 0.  1.
         11   -1    0    0    0    0 -0.00000000000E+00 -0.00000000000E+00 -0.45593999997E+02  0.45594000000E+02  0.51100000000E-03 0. -1.
    9900012    2    1    2    0    0  0.15109337519E+02  0.40616660945E+02 -0.23702534494E+01  0.47787270420E+02  0.19999997155E+02 0.  0.
         12    1    1    2    0    0 -0.15109337519E+02 -0.40616660945E+02  0.23702534494E+01  0.43400729580E+02  0.00000000000E+00 0. -1.
         11    1    3    3    0    0 -0.81790006121E-01  0.22009660825E+01  0.43804015744E+01  0.49029439641E+01  0.51100000000E-03 0. -1.
        -11    1    3    3    0    0  0.14708752197E+02  0.34103172006E+02 -0.32002357523E+01  0.37277543390E+02  0.51100000000E-03 0.  1.
         12    1    3    3    0    0  0.48237532785E+00  0.43125228569E+01 -0.35504192715E+01  0.56067830662E+01  0.00000000000E+00 0. -1.
</event>
<event>
 7    1  0.5411321E-010  0.4778727E+02  0.7816164E-02  0.1312668E+00
        -11   -1    0    0    0    0  0.00000000000E+00  0.00000000000E+00  0.45593999997E+02  0.45594000000E+02  0.51100000000E-03 0.  1.
         11   -1    0    0    0    0 -0.00000000000E+00 -0.00000000000E+00 -0.45593999997E+02  0.45594000000E+02  0.51100000000E-03 0. -1.
    9900012    2    1    2    0    0 -0.95775933308E+01 -0.75625278551E+01  0.41649743893E+02  0.47787270882E+02  0.19999999262E+02 0.  0.
         12    1    1    2    0    0  0.95775933308E+01  0.75625278551E+01 -0.41649743893E+02  0.43400729118E+02  0.00000000000E+00 0. -1.
         11    1    3    3    0    0  0.17328336820E+01  0.16304566811E+01  0.13262624260E+01  0.27239812485E+01  0.51100000000E-03 0. -1.
        -11    1    3    3    0    0 -0.42433205516E+01 -0.11466849101E+02  0.29549895925E+02  0.31979536380E+02  0.51100000000E-03 0.  1.
        -12    1    3    3    0    0 -0.70671064612E+01  0.22738645645E+01  0.10773585542E+02  0.13083753254E+02  0.00000000000E+00 0.  1.
</event>
<event>
 7    1  0.5411321E-010  0.4778726E+02  0.7816164E-02  0.1312668E+00
        -11   -1    0    0    0    0  0.00000000000E+00  0.00000000000E+00  0.45593999997E+02  0.45594000000E+02  0.51100000000E-03 0.  1.
         11   -1    0    0    0    0 -0.00000000000E+00 -0.00000000000E+00 -0.45593999997E+02  0.45594000000E+02  0.51100000000E-03 0. -1.
    9900012    2    1    2    0    0  0.12584603668E+02  0.82414104791E+00  0.41527980468E+02  0.47787255540E+02  0.19999929307E+02 0.  0.
         12    1    1    2    0    0 -0.12584603668E+02 -0.82414104791E+00 -0.41527980468E+02  0.43400744460E+02  0.00000000000E+00 0. -1.
         11    1    3    3    0    0  0.11488644821E+02 -0.60627166984E+00  0.16925232211E+02  0.20465092495E+02  0.51100000000E-03 0. -1.
        -11    1    3    3    0    0 -0.35827212815E+01 -0.35218036769E+01  0.11647999622E+02  0.12685223229E+02  0.51100000000E-03 0.  1.
         12    1    3    3    0    0  0.46786801288E+01  0.49522163946E+01  0.12954748635E+02  0.14636939816E+02  0.00000000000E+00 0. -1.
</event>
<event>
 7    1  0.5411321E-010  0.4778727E+02  0.7816164E-02  0.1312668E+00
        -11   -1    0    0    0    0  0.00000000000E+00  0.00000000000E+00  0.45593999997E+02  0.45594000000E+02  0.51100000000E-03 0.  1.
         11   -1    0    0    0    0 -0.00000000000E+00 -0.00000000000E+00 -0.45593999997E+02  0.45594000000E+02  0.51100000000E-03 0. -1.
    9900012    2    1    2    0    0 -0.42982261689E+02 -0.81825476737E+00 -0.59564389600E+01  0.47787268141E+02  0.19999986763E+02 0.  0.
         12    1    1    2    0    0  0.42982261689E+02  0.81825476737E+00  0.59564389600E+01  0.43400731859E+02  0.00000000000E+00 0. -1.
         11    1    3    3    0    0 -0.18357362481E+02 -0.12339865274E+01 -0.82674497622E+01  0.20170924764E+02  0.51100000000E-03 0. -1.
        -11    1    3    3    0    0 -0.94638040412E+01 -0.13384490800E+01  0.67739008410E+01  0.11714980398E+02  0.51100000000E-03 0.  1.
        -12    1    3    3    0    0 -0.15161095167E+02  0.17541808401E+01 -0.44628900387E+01  0.15901362979E+02  0.00000000000E+00 0.  1.
</event>
<event>
 7    1  0.5411321E-010  0.4778727E+02  0.7816164E-02  0.1312668E+00
        -11   -1    0    0    0    0  0.00000000000E+00  0.00000000000E+00  0.45593999997E+02  0.45594000000E+02  0.51100000000E-03 0.  1.
         11   -1    0    0    0    0 -0.00000000000E+00 -0.00000000000E+00 -0.45593999997E+02  0.45594000000E+02  0.51100000000E-03 0. -1.
    9900012    2    1    2    0    0 -0.32300451981E+02  0.28939437110E+02  0.16772977446E+01  0.47787267908E+02  0.19999985700E+02 0.  0.
         12    1    1    2    0    0  0.32300451981E+02 -0.28939437110E+02 -0.16772977446E+01  0.43400732092E+02  0.00000000000E+00 0. -1.
         11    1    3    3    0    0 -0.12838517773E+02  0.16042891570E+02  0.72136475041E+01  0.21777020437E+02  0.51100000000E-03 0. -1.
        -11    1    3    3    0    0 -0.34617943172E+01  0.28768855983E+01  0.28767799784E+01  0.53419428999E+01  0.51100000000E-03 0.  1.
         12    1    3    3    0    0 -0.16000139890E+02  0.10019659942E+02 -0.84131297380E+01  0.20668304571E+02  0.00000000000E+00 0. -1.
</event>
<event>
 7    1  0.5411321E-010  0.4778727E+02  0.7816164E-02  0.1312668E+00
        -11   -1    0    0    0    0  0.00000000000E+00  0.00000000000E+00  0.45593999997E+02  0.45594000000E+02  0.51100000000E-03 0.  1.
         11   -1    0    0    0    0 -0.00000000000E+00 -0.00000000000E+00 -0.45593999997E+02  0.45594000000E+02  0.51100000000E-03 0. -1.
    9900012    2    1    2    0    0 -0.32011598362E+02 -0.14082329709E+02  0.25701537362E+02  0.47787268871E+02  0.19999990091E+02 0.  0.
         12    1    1    2    0    0  0.32011598362E+02  0.14082329709E+02 -0.25701537362E+02  0.43400731129E+02  0.00000000000E+00 0. -1.
         11    1    3    3    0    0  0.54829477929E+00  0.23422867393E+01  0.36457484660E+01  0.43678846680E+01  0.51100000000E-03 0. -1.
        -11    1    3    3    0    0 -0.15906505880E+02 -0.12647578684E+02  0.11753834856E+02  0.23476175369E+02  0.51100000000E-03 0.  1.
        -12    1    3    3    0    0 -0.16653387262E+02 -0.37770377640E+01  0.10301954040E+02  0.19943208834E+02  0.00000000000E+00 0.  1.
</event>
<event>
 7    1  0.5411321E-010  0.4778727E+02  0.7816164E-02  0.1312668E+00
        -11   -1    0    0    0    0  0.00000000000E+00  0.00000000000E+00  0.45593999997E+02  0.45594000000E+02  0.51100000000E-03 0. -1.
         11   -1    0    0    0    0 -0.00000000000E+00 -0.00000000000E+00 -0.45593999997E+02  0.45594000000E+02  0.51100000000E-03 0.  1.
    9900012    2    1    2    0    0 -0.12779484431E+02 -0.28162677127E+02 -0.30449495219E+02  0.47787270002E+02  0.19999995247E+02 0.  0.
         12    1    1    2    0    0  0.12779484431E+02  0.28162677127E+02  0.30449495219E+02  0.43400729998E+02  0.00000000000E+00 0. -1.
         11    1    3    3    0    0  0.42711650051E+00 -0.30971322460E+01 -0.36779517861E-01  0.31266611022E+01  0.51100000000E-03 0. -1.
        -11    1    3    3    0    0 -0.21374389617E+01 -0.20673499282E+02 -0.18726873339E+02  0.27976025508E+02  0.51100000000E-03 0.  1.
        -12    1    3    3    0    0 -0.11069161970E+02 -0.43920455982E+01 -0.11685842362E+02  0.16684583392E+02  0.00000000000E+00 0.  1.
</event>
<event>
 7    1  0.5411321E-010  0.4778728E+02  0.7816164E-02  0.1312668E+00
        -11   -1    0    0    0    0  0.00000000000E+00  0.00000000000E+00  0.45593999997E+02  0.45594000000E+02  0.51100000000E-03 0. -1.
         11   -1    0    0    0    0 -0.00000000000E+00 -0.00000000000E+00 -0.45593999997E+02  0.45594000000E+02  0.51100000000E-03 0.  1.
    9900012    2    1    2    0    0 -0.14926402498E+02 -0.34308449012E+02 -0.21994445809E+02  0.47787276370E+02  0.20000024283E+02 0.  0.
         12    1    1    2    0    0  0.14926402498E+02  0.34308449012E+02  0.21994445809E+02  0.43400723630E+02  0.00000000000E+00 0. -1.
         11    1    3    3    0    0 -0.22498283454E+01 -0.55987370020E+01 -0.14070985451E+02  0.15310134403E+02  0.51100000000E-03 0. -1.
        -11    1    3    3    0    0 -0.55409303544E+01 -0.10215274433E+02 -0.20376911591E+01  0.11798556117E+02  0.51100000000E-03 0.  1.
         12    1    3    3    0    0 -0.71356437987E+01 -0.18494437577E+02 -0.58857691986E+01  0.20678585850E+02  0.00000000000E+00 0. -1.
</event>
<event>
 7    1  0.5411321E-010  0.4778727E+02  0.7816164E-02  0.1312668E+00
        -11   -1    0    0    0    0  0.00000000000E+00  0.00000000000E+00  0.45593999997E+02  0.45594000000E+02  0.51100000000E-03 0.  1.
         11   -1    0    0    0    0 -0.00000000000E+00 -0.00000000000E+00 -0.45593999997E+02  0.45594000000E+02  0.51100000000E-03 0. -1.
    9900012    2    1    2    0    0 -0.20557252027E+01 -0.17200275996E+02  0.39793818082E+02  0.47787268924E+02  0.19999990331E+02 0.  0.
         12    1    1    2    0    0  0.20557252027E+01  0.17200275996E+02 -0.39793818082E+02  0.43400731076E+02  0.00000000000E+00 0. -1.
         11    1    3    3    0    0  0.91582035245E+00  0.24749851645E+01  0.12508449163E+02  0.12783801438E+02  0.51100000000E-03 0. -1.
        -11    1    3    3    0    0 -0.49808877386E+01 -0.14716748312E+02  0.24395060353E+02  0.28922498050E+02  0.51100000000E-03 0.  1.
         12    1    3    3    0    0  0.20093421835E+01 -0.49585128486E+01  0.28903085659E+01  0.60809694364E+01  0.00000000000E+00 0. -1.
</event>
<event>
 7    1  0.5411321E-010  0.4778725E+02  0.7816164E-02  0.1312668E+00
        -11   -1    0    0    0    0  0.00000000000E+00  0.00000000000E+00  0.45593999997E+02  0.45594000000E+02  0.51100000000E-03 0.  1.
         11   -1    0    0    0    0 -0.00000000000E+00 -0.00000000000E+00 -0.45593999997E+02  0.45594000000E+02  0.51100000000E-03 0. -1.
    9900012    2    1    2    0    0 -0.41998638819E+02 -0.68066847761E+01 -0.85678703944E+01  0.47787250889E+02  0.19999908103E+02 0.  0.
         12    1    1    2    0    0  0.41998638819E+02  0.68066847761E+01  0.85678703944E+01  0.43400749111E+02  0.00000000000E+00 0. -1.
         11    1    3    3    0    0 -0.17764909627E+02  0.57594297677E+01 -0.74301364873E+01  0.20099004299E+02  0.51100000000E-03 0. -1.
        -11    1    3    3    0    0 -0.22314596819E+02 -0.10351936452E+02 -0.16026676190E+00  0.24599380179E+02  0.51100000000E-03 0.  1.
         12    1    3    3    0    0 -0.19191323729E+01 -0.22141780917E+01 -0.97746714518E+00  0.30888664112E+01  0.00000000000E+00 0. -1.
</event>
<event>
 7    1  0.5411321E-010  0.4778727E+02  0.7816164E-02  0.1312668E+00
        -11   -1    0    0    0    0  0.00000000000E+00  0.00000000000E+00  0.45593999997E+02  0.45594000000E+02  0.51100000000E-03 0.  1.
         11   -1    0    0    0    0 -0.00000000000E+00 -0.00000000000E+00 -0.45593999997E+02  0.45594000000E+02  0.51100000000E-03 0. -1.
    9900012    2    1    2    0    0  0.30100210440E+01  0.43201929944E+02  0.28558755648E+01  0.47787274167E+02  0.20000014237E+02 0.  0.
         12    1    1    2    0    0 -0.30100210440E+01 -0.43201929944E+02 -0.28558755648E+01  0.43400725833E+02  0.00000000000E+00 0. -1.
         11    1    3    3    0    0  0.29859293852E+01  0.23843569458E+02  0.95012533837E+01  0.25839996032E+02  0.51100000000E-03 0.  1.
        -11    1    3    3    0    0 -0.11396089156E+01  0.19154210122E+02 -0.48390174314E+01  0.19788849483E+02  0.51100000000E-03 0. -1.
        -12    1    3    3    0    0  0.11637005744E+01  0.20415036380E+00 -0.18063603874E+01  0.21584286523E+01  0.00000000000E+00 0.  1.
</event>
<event>
 7    1  0.5411321E-010  0.4778727E+02  0.7816164E-02  0.1312668E+00
        -11   -1    0    0    0    0  0.00000000000E+00  0.00000000000E+00  0.45593999997E+02  0.45594000000E+02  0.51100000000E-03 0. -1.
         11   -1    0    0    0    0 -0.00000000000E+00 -0.00000000000E+00 -0.45593999997E+02  0.45594000000E+02  0.51100000000E-03 0.  1.
    9900012    2    1    2    0    0 -0.27323031018E+01 -0.41822946567E+02 -0.11269376481E+02  0.47787272056E+02  0.20000004611E+02 0.  0.
         12    1    1    2    0    0  0.27323031018E+01  0.41822946567E+02  0.11269376481E+02  0.43400727944E+02  0.00000000000E+00 0. -1.
         11    1    3    3    0    0  0.80038677257E+00  0.47479954688E+00 -0.17665000465E+01  0.19966412474E+01  0.51100000000E-03 0. -1.
        -11    1    3    3    0    0 -0.63767853640E+01 -0.40853401688E+02 -0.10055650971E+02  0.42553260013E+02  0.51100000000E-03 0.  1.
        -12    1    3    3    0    0  0.28440954896E+01 -0.14443444264E+01  0.55277453679E+00  0.32373707950E+01  0.00000000000E+00 0.  1.
</event>
<event>
 7    1  0.5411321E-010  0.4778727E+02  0.7816164E-02  0.1312668E+00
        -11   -1    0    0    0    0  0.00000000000E+00  0.00000000000E+00  0.45593999997E+02  0.45594000000E+02  0.51100000000E-03 0.  1.
         11   -1    0    0    0    0 -0.00000000000E+00 -0.00000000000E+00 -0.45593999997E+02  0.45594000000E+02  0.51100000000E-03 0. -1.
    9900012    2    1    2    0    0 -0.24843575113E+02 -0.26614867016E+02  0.23623482668E+02  0.47787270697E+02  0.19999998416E+02 0.  0.
         12    1    1    2    0    0  0.24843575113E+02  0.26614867016E+02 -0.23623482668E+02  0.43400729303E+02  0.00000000000E+00 0. -1.
         11    1    3    3    0    0  0.16586645796E+01  0.61413159177E+00  0.41384064208E+01  0.45005259431E+01  0.51100000000E-03 0. -1.
        -11    1    3    3    0    0 -0.14515317281E+02 -0.15284297700E+02  0.14709468621E+02  0.25703553437E+02  0.51100000000E-03 0.  1.
         12    1    3    3    0    0 -0.11986922412E+02 -0.11944700908E+02  0.47756076267E+01  0.17583191317E+02  0.00000000000E+00 0. -1.
</event>
<event>
 7    1  0.5411321E-010  0.4778727E+02  0.7816164E-02  0.1312668E+00
        -11   -1    0    0    0    0  0.00000000000E+00  0.00000000000E+00  0.45593999997E+02  0.45594000000E+02  0.51100000000E-03 0. -1.
         11   -1    0    0    0    0 -0.00000000000E+00 -0.00000000000E+00 -0.45593999997E+02  0.45594000000E+02  0.51100000000E-03 0.  1.
    9900012    2    1    2    0    0  0.18591432932E+02  0.49893903557E+01 -0.38898430705E+02  0.47787270676E+02  0.19999998319E+02 0.  0.
         12    1    1    2    0    0 -0.18591432932E+02 -0.49893903557E+01  0.38898430705E+02  0.43400729324E+02  0.00000000000E+00 0. -1.
         11    1    3    3    0    0  0.39622439418E+01 -0.38240854963E+01 -0.63073586430E+00  0.55426379035E+01  0.51100000000E-03 0. -1.
        -11    1    3    3    0    0  0.10026363407E+02  0.86848307594E+01 -0.27413955020E+02  0.30454542823E+02  0.51100000000E-03 0.  1.
        -12    1    3    3    0    0  0.46028255840E+01  0.12864509266E+00 -0.10853739820E+02  0.11790089949E+02  0.00000000000E+00 0.  1.
</event>
<event>
 7    1  0.5411321E-010  0.4778727E+02  0.7816164E-02  0.1312668E+00
        -11   -1    0    0    0    0  0.00000000000E+00  0.00000000000E+00  0.45593999997E+02  0.45594000000E+02  0.51100000000E-03 0. -1.
         11   -1    0    0    0    0 -0.00000000000E+00 -0.00000000000E+00 -0.45593999997E+02  0.45594000000E+02  0.51100000000E-03 0.  1.
    9900012    2    1    2    0    0  0.25873381819E+02  0.33989360698E+02  0.76755830076E+01  0.47787273026E+02  0.20000009033E+02 0.  0.
         12    1    1    2    0    0 -0.25873381819E+02 -0.33989360698E+02 -0.76755830076E+01  0.43400726974E+02  0.00000000000E+00 0. -1.
         11    1    3    3    0    0  0.15278480570E+02  0.15715513834E+02  0.62054990119E+01  0.22779762111E+02  0.51100000000E-03 0. -1.
        -11    1    3    3    0    0  0.85795757225E+01  0.13966071641E+02 -0.48541980573E+01  0.17094546373E+02  0.51100000000E-03 0.  1.
        -12    1    3    3    0    0  0.20153255262E+01  0.43077752227E+01  0.63242820530E+01  0.79129645413E+01  0.00000000000E+00 0.  1.
</event>
<event>
 7    1  0.5411321E-010  0.4778728E+02  0.7816164E-02  0.1312668E+00
        -11   -1    0    0    0    0  0.00000000000E+00  0.00000000000E+00  0.45593999997E+02  0.45594000000E+02  0.51100000000E-03 0.  1.
         11   -1    0    0    0    0 -0.00000000000E+00 -0.00000000000E+00 -0.45593999997E+02  0.45594000000E+02  0.51100000000E-03 0. -1.
    9900012    2    1    2    0    0  0.33582137039E+02 -0.92860200561E+01  0.25877257495E+02  0.47787279360E+02  0.20000037915E+02 0.  0.
         12    1    1    2    0    0 -0.33582137039E+02  0.92860200561E+01 -0.25877257495E+02  0.43400720640E+02  0.00000000000E+00 0. -1.
         11    1    3    3    0    0  0.96945495671E+00  0.39943423814E+01  0.11973972274E+01  0.42811650697E+01  0.51100000000E-03 0. -1.
        -11    1    3    3    0    0  0.16875492160E+02 -0.82325799919E+01  0.16806749259E+02  0.25199691068E+02  0.51100000000E-03 0.  1.
        -12    1    3    3    0    0  0.15737189922E+02 -0.50477824457E+01  0.78731110082E+01  0.18306423223E+02  0.00000000000E+00 0.  1.
</event>
<event>
 7    1  0.5411321E-010  0.4778727E+02  0.7816164E-02  0.1312668E+00
        -11   -1    0    0    0    0  0.00000000000E+00  0.00000000000E+00  0.45593999997E+02  0.45594000000E+02  0.51100000000E-03 0. -1.
         11   -1    0    0    0    0 -0.00000000000E+00 -0.00000000000E+00 -0.45593999997E+02  0.45594000000E+02  0.51100000000E-03 0.  1.
    9900012    2    1    2    0    0 -0.42127333235E+01 -0.18223131501E+02 -0.39163678408E+02  0.47787270165E+02  0.19999995991E+02 0.  0.
         12    1    1    2    0    0  0.42127333235E+01  0.18223131501E+02  0.39163678408E+02  0.43400729835E+02  0.00000000000E+00 0. -1.
         11    1    3    3    0    0 -0.87163745212E-01 -0.12234236749E+02 -0.11858663636E+02  0.17038546002E+02  0.51100000000E-03 0. -1.
        -11    1    3    3    0    0  0.16051113449E+01  0.30132337064E+01 -0.78218770310E+01  0.85345017634E+01  0.51100000000E-03 0.  1.
        -12    1    3    3    0    0 -0.57306809232E+01 -0.90021284581E+01 -0.19483137740E+02  0.22214222400E+02  0.00000000000E+00 0.  1.
</event>
<event>
 7    1  0.5411321E-010  0.4778728E+02  0.7816164E-02  0.1312668E+00
        -11   -1    0    0    0    0  0.00000000000E+00  0.00000000000E+00  0.45593999997E+02  0.45594000000E+02  0.51100000000E-03 0.  1.
         11   -1    0    0    0    0 -0.00000000000E+00 -0.00000000000E+00 -0.45593999997E+02  0.45594000000E+02  0.51100000000E-03 0. -1.
    9900012    2    1    2    0    0 -0.23172378125E+02 -0.36195787965E+02  0.60439021502E+01  0.47787275034E+02  0.20000018190E+02 0.  0.
         12    1    1    2    0    0  0.23172378125E+02  0.36195787965E+02 -0.60439021502E+01  0.43400724966E+02  0.00000000000E+00 0. -1.
         11    1    3    3    0    0 -0.19335701093E+02 -0.16010411387E+02  0.14274661983E+01  0.25144388431E+02  0.51100000000E-03 0. -1.
        -11    1    3    3    0    0 -0.22620947244E+01 -0.20044644482E+02  0.53947624623E+01  0.20880811939E+02  0.51100000000E-03 0.  1.
        -12    1    3    3    0    0 -0.15745823076E+01 -0.14073209603E+00 -0.77832651039E+00  0.17620746644E+01  0.00000000000E+00 0.  1.
</event>
<event>
 7    1  0.5411321E-010  0.4778728E+02  0.7816164E-02  0.1312668E+00
        -11   -1    0    0    0    0  0.00000000000E+00  0.00000000000E+00  0.45593999997E+02  0.45594000000E+02  0.51100000000E-03 0.  1.
         11   -1    0    0    0    0 -0.00000000000E+00 -0.00000000000E+00 -0.45593999997E+02  0.45594000000E+02  0.51100000000E-03 0. -1.
    9900012    2    1    2    0    0  0.27370508438E+02  0.63882156014E+01  0.33070664607E+02  0.47787275487E+02  0.20000020254E+02 0.  0.
         12    1    1    2    0    0 -0.27370508438E+02 -0.63882156014E+01 -0.33070664607E+02  0.43400724513E+02  0.00000000000E+00 0. -1.
         11    1    3    3    0    0  0.33409948152E+01  0.35463893884E+01 -0.90641225494E+00  0.49558760564E+01  0.51100000000E-03 0. -1.
        -11    1    3    3    0    0  0.18479136123E+02 -0.21536706791E+01  0.23796482924E+02  0.30205783702E+02  0.51100000000E-03 0.  1.
         12    1    3    3    0    0  0.55503775004E+01  0.49954968921E+01  0.10180593938E+02  0.12625615728E+02  0.00000000000E+00 0. -1.
</event>
<event>
 7    1  0.5411321E-010  0.4778727E+02  0.7816164E-02  0.1312668E+00
        -11   -1    0    0    0    0  0.00000000000E+00  0.00000000000E+00  0.45593999997E+02  0.45594000000E+02  0.51100000000E-03 0.  1.
         11   -1    0    0    0    0 -0.00000000000E+00 -0.00000000000E+00 -0.45593999997E+02  0.45594000000E+02  0.51100000000E-03 0. -1.
    9900012    2    1    2    0    0 -0.85132426792E+01 -0.33663672407E+02  0.26036611977E+02  0.47787270696E+02  0.19999998412E+02 0.  0.
         12    1    1    2    0    0  0.85132426792E+01  0.33663672407E+02 -0.26036611977E+02  0.43400729304E+02  0.00000000000E+00 0. -1.
         11    1    3    3    0    0 -0.91065721055E+01 -0.13969348130E+02  0.77741281708E+01  0.18398625268E+02  0.51100000000E-03 0. -1.
        -11    1    3    3    0    0 -0.92440512434E+00 -0.15380203629E+02  0.19303060176E+02  0.24698447743E+02  0.51100000000E-03 0.  1.
        -12    1    3    3    0    0  0.15177345506E+01 -0.43141206494E+01 -0.10405763702E+01  0.46901976851E+01  0.00000000000E+00 0.  1.
</event>
<event>
 7    1  0.5411321E-010  0.4778727E+02  0.7816164E-02  0.1312668E+00
        -11   -1    0    0    0    0  0.00000000000E+00  0.00000000000E+00  0.45593999997E+02  0.45594000000E+02  0.51100000000E-03 0.  1.
         11   -1    0    0    0    0 -0.00000000000E+00 -0.00000000000E+00 -0.45593999997E+02  0.45594000000E+02  0.51100000000E-03 0. -1.
    9900012    2    1    2    0    0  0.27754215667E+01 -0.24277356790E+02  0.35868234495E+02  0.47787271165E+02  0.20000000551E+02 0.  0.
         12    1    1    2    0    0 -0.27754215667E+01  0.24277356790E+02 -0.35868234495E+02  0.43400728835E+02  0.00000000000E+00 0. -1.
         11    1    3    3    0    0  0.37599300394E+01  0.16985944627E+01  0.15366964098E+01  0.44026961248E+01  0.51100000000E-03 0. -1.
        -11    1    3    3    0    0 -0.17527611506E+01 -0.98504919415E+01  0.16789553201E+02  0.19544652980E+02  0.51100000000E-03 0.  1.
         12    1    3    3    0    0  0.76825267783E+00 -0.16125459312E+02  0.17541984884E+02  0.23839922060E+02  0.00000000000E+00 0. -1.
</event>
<event>
 7    1  0.5411321E-010  0.4778725E+02  0.7816164E-02  0.1312668E+00
        -11   -1    0    0    0    0  0.00000000000E+00  0.00000000000E+00  0.45593999997E+02  0.45594000000E+02  0.51100000000E-03 0.  1.
         11   -1    0    0    0    0 -0.00000000000E+00 -0.00000000000E+00 -0.45593999997E+02  0.45594000000E+02  0.51100000000E-03 0. -1.
    9900012    2    1    2    0    0  0.34681409292E+02 -0.50225639187E+01  0.25604659757E+02  0.47787252310E+02  0.19999914583E+02 0.  0.
         12    1    1    2    0    0 -0.34681409292E+02  0.50225639187E+01 -0.25604659757E+02  0.43400747690E+02  0.00000000000E+00 0. -1.
         11    1    3    3    0    0  0.50589905149E+01  0.21640708651E+01 -0.17876213990E+01  0.57855145204E+01  0.51100000000E-03 0. -1.
        -11    1    3    3    0    0  0.91397022589E+01 -0.37956971612E+01  0.14525530769E+02  0.17576476288E+02  0.51100000000E-03 0.  1.
         12    1    3    3    0    0  0.20482716518E+02 -0.33909376225E+01  0.12866750387E+02  0.24425261502E+02  0.00000000000E+00 0. -1.
</event>
<event>
 7    1  0.5411321E-010  0.4778726E+02  0.7816164E-02  0.1312668E+00
        -11   -1    0    0    0    0  0.00000000000E+00  0.00000000000E+00  0.45593999997E+02  0.45594000000E+02  0.51100000000E-03 0.  1.
         11   -1    0    0    0    0 -0.00000000000E+00 -0.00000000000E+00 -0.45593999997E+02  0.45594000000E+02  0.51100000000E-03 0. -1.
    9900012    2    1    2    0    0  0.29560807270E+01 -0.16507732821E+02  0.40029751035E+02  0.47787255489E+02  0.19999929077E+02 0.  0.
         12    1    1    2    0    0 -0.29560807270E+01  0.16507732821E+02 -0.40029751035E+02  0.43400744511E+02  0.00000000000E+00 0. -1.
         11    1    3    3    0    0 -0.54186302636E+01 -0.68529132897E-01  0.16164956988E+02  0.17049108037E+02  0.51100000000E-03 0. -1.
        -11    1    3    3    0    0  0.58664972334E+01 -0.11888309814E+02  0.12407140051E+02  0.18157225133E+02  0.51100000000E-03 0.  1.
        -12    1    3    3    0    0  0.25082137572E+01 -0.45508938740E+01  0.11457653996E+02  0.12580922319E+02  0.00000000000E+00 0.  1.
</event>
<event>
 7    1  0.5411321E-010  0.4778727E+02  0.7816164E-02  0.1312668E+00
        -11   -1    0    0    0    0  0.00000000000E+00  0.00000000000E+00  0.45593999997E+02  0.45594000000E+02  0.51100000000E-03 0. -1.
         11   -1    0    0    0    0 -0.00000000000E+00 -0.00000000000E+00 -0.45593999997E+02  0.45594000000E+02  0.51100000000E-03 0.  1.
    9900012    2    1    2    0    0  0.71566860420E+00 -0.19584156494E+00 -0.43394387949E+02  0.47787269120E+02  0.19999991226E+02 0.  0.
         12    1    1    2    0    0 -0.71566860420E+00  0.19584156494E+00  0.43394387949E+02  0.43400730880E+02  0.00000000000E+00 0. -1.
         11    1    3    3    0    0 -0.74208996907E+00 -0.40179641385E+01 -0.16746506757E+01  0.44157885465E+01  0.51100000000E-03 0. -1.
        -11    1    3    3    0    0  0.30039019493E+01  0.72563181932E+01 -0.23870436224E+02  0.25129172418E+02  0.51100000000E-03 0.  1.
         12    1    3    3    0    0 -0.15461433760E+01 -0.34341956197E+01 -0.17849301049E+02  0.18242308155E+02  0.00000000000E+00 0. -1.
</event>
<event>
 7    1  0.5411321E-010  0.4778727E+02  0.7816164E-02  0.1312668E+00
        -11   -1    0    0    0    0  0.00000000000E+00  0.00000000000E+00  0.45593999997E+02  0.45594000000E+02  0.51100000000E-03 0.  1.
         11   -1    0    0    0    0 -0.00000000000E+00 -0.00000000000E+00 -0.45593999997E+02  0.45594000000E+02  0.51100000000E-03 0. -1.
    9900012    2    1    2    0    0  0.39050332478E+01  0.17090721509E+02  0.39702407949E+02  0.47787271396E+02  0.20000001605E+02 0.  0.
         12    1    1    2    0    0 -0.39050332478E+01 -0.17090721509E+02 -0.39702407949E+02  0.43400728604E+02  0.00000000000E+00 0. -1.
         11    1    3    3    0    0  0.14998418007E+01 -0.42405202947E+01  0.93510338713E+01  0.10376578074E+02  0.51100000000E-03 0. -1.
        -11    1    3    3    0    0  0.14613474862E-01  0.15880367742E+02  0.21058936999E+02  0.26375464374E+02  0.51100000000E-03 0.  1.
         12    1    3    3    0    0  0.23905779722E+01  0.54508740619E+01  0.92924370789E+01  0.11035228948E+02  0.00000000000E+00 0. -1.
</event>
<event>
 7    1  0.5411321E-010  0.4778727E+02  0.7816164E-02  0.1312668E+00
        -11   -1    0    0    0    0  0.00000000000E+00  0.00000000000E+00  0.45593999997E+02  0.45594000000E+02  0.51100000000E-03 0.  1.
         11   -1    0    0    0    0 -0.00000000000E+00 -0.00000000000E+00 -0.45593999997E+02  0.45594000000E+02  0.51100000000E-03 0. -1.
    9900012    2    1    2    0    0  0.15987067292E+02 -0.40286917549E+02  0.22363104787E+01  0.47787272694E+02  0.20000007519E+02 0.  0.
         12    1    1    2    0    0 -0.15987067292E+02  0.40286917549E+02 -0.22363104787E+01  0.43400727306E+02  0.00000000000E+00 0. -1.
         11    1    3    3    0    0  0.26495767765E+01 -0.91534698415E+01 -0.59138853232E+01  0.11215181992E+02  0.51100000000E-03 0. -1.
        -11    1    3    3    0    0  0.14023811189E+02 -0.21235620511E+02  0.37679273462E+01  0.25725787364E+02  0.51100000000E-03 0.  1.
        -12    1    3    3    0    0 -0.68632067388E+00 -0.98978271962E+01  0.43822684557E+01  0.10846303338E+02  0.00000000000E+00 0.  1.
</event>
<event>
 7    1  0.5411321E-010  0.4778728E+02  0.7816164E-02  0.1312668E+00
        -11   -1    0    0    0    0  0.00000000000E+00  0.00000000000E+00  0.45593999997E+02  0.45594000000E+02  0.51100000000E-03 0.  1.
         11   -1    0    0    0    0 -0.00000000000E+00 -0.00000000000E+00 -0.45593999997E+02  0.45594000000E+02  0.51100000000E-03 0. -1.
    9900012    2    1    2    0    0  0.23523864707E+02 -0.22965991898E+02  0.28333968147E+02  0.47787277130E+02  0.20000027748E+02 0.  0.
         12    1    1    2    0    0 -0.23523864707E+02  0.22965991898E+02 -0.28333968147E+02  0.43400722870E+02  0.00000000000E+00 0. -1.
         11    1    3    3    0    0  0.14973416710E+01  0.12112941618E+00 -0.48076035745E-01  0.15030023226E+01  0.51100000000E-03 0. -1.
        -11    1    3    3    0    0 -0.23599731572E+01  0.69553981021E+00  0.24606539910E+01  0.34796648193E+01  0.51100000000E-03 0.  1.
        -12    1    3    3    0    0  0.24386496193E+02 -0.23782661125E+02  0.25921390192E+02  0.42804609988E+02  0.00000000000E+00 0.  1.
</event>
<event>
 7    1  0.5411321E-010  0.4778727E+02  0.7816164E-02  0.1312668E+00
        -11   -1    0    0    0    0  0.00000000000E+00  0.00000000000E+00  0.45593999997E+02  0.45594000000E+02  0.51100000000E-03 0.  1.
         11   -1    0    0    0    0 -0.00000000000E+00 -0.00000000000E+00 -0.45593999997E+02  0.45594000000E+02  0.51100000000E-03 0. -1.
    9900012    2    1    2    0    0 -0.31253129439E+02  0.13980681686E+02  0.26672199205E+02  0.47787265322E+02  0.19999973910E+02 0.  0.
         12    1    1    2    0    0  0.31253129439E+02 -0.13980681686E+02 -0.26672199205E+02  0.43400734678E+02  0.00000000000E+00 0. -1.
         11    1    3    3    0    0 -0.12371390111E+02  0.13015540659E+02  0.13097647970E+02  0.22226200182E+02  0.51100000000E-03 0. -1.
        -11    1    3    3    0    0 -0.13015910973E+02 -0.29614507727E+01  0.45476405929E+01  0.14101956047E+02  0.51100000000E-03 0.  1.
         12    1    3    3    0    0 -0.58658283541E+01  0.39265917999E+01  0.90269106429E+01  0.11459109093E+02  0.00000000000E+00 0. -1.
</event>
<event>
 7    1  0.5411321E-010  0.4778727E+02  0.7816164E-02  0.1312668E+00
        -11   -1    0    0    0    0  0.00000000000E+00  0.00000000000E+00  0.45593999997E+02  0.45594000000E+02  0.51100000000E-03 0.  1.
         11   -1    0    0    0    0 -0.00000000000E+00 -0.00000000000E+00 -0.45593999997E+02  0.45594000000E+02  0.51100000000E-03 0. -1.
    9900012    2    1    2    0    0  0.31303329668E+02  0.10067675324E+01  0.30045149824E+02  0.47787273542E+02  0.20000011387E+02 0.  0.
         12    1    1    2    0    0 -0.31303329668E+02 -0.10067675324E+01 -0.30045149824E+02  0.43400726458E+02  0.00000000000E+00 0. -1.
         11    1    3    3    0    0  0.22224317394E+02  0.68036238942E+01  0.16049111025E+02  0.28245062342E+02  0.51100000000E-03 0.  1.
        -11    1    3    3    0    0  0.18905401335E+01 -0.60833555427E+01  0.55631093035E+01  0.84575139396E+01  0.51100000000E-03 0. -1.
        -12    1    3    3    0    0  0.71884721401E+01  0.28649918090E+00  0.84329294951E+01  0.11084697261E+02  0.00000000000E+00 0.  1.
</event>
<event>
 7    1  0.5411321E-010  0.4778727E+02  0.7816164E-02  0.1312668E+00
        -11   -1    0    0    0    0  0.00000000000E+00  0.00000000000E+00  0.45593999997E+02  0.45594000000E+02  0.51100000000E-03 0.  1.
         11   -1    0    0    0    0 -0.00000000000E+00 -0.00000000000E+00 -0.45593999997E+02  0.45594000000E+02  0.51100000000E-03 0. -1.
    9900012    2    1    2    0    0 -0.35546128699E+02  0.13038088302E+02  0.21215660690E+02  0.47787271083E+02  0.20000000175E+02 0.  0.
         12    1    1    2    0    0  0.35546128699E+02 -0.13038088302E+02 -0.21215660690E+02  0.43400728917E+02  0.00000000000E+00 0. -1.
         11    1    3    3    0    0 -0.47675033802E+01  0.27003061836E+01 -0.36735158749E+01  0.65966249787E+01  0.51100000000E-03 0. -1.
        -11    1    3    3    0    0 -0.23242187649E+02  0.82128037804E+01  0.16217792311E+02  0.29507053738E+02  0.51100000000E-03 0.  1.
         12    1    3    3    0    0 -0.75364376702E+01  0.21249783381E+01  0.86713842535E+01  0.11683592366E+02  0.00000000000E+00 0. -1.
</event>
<event>
 7    1  0.5836104E-010  0.4778728E+02  0.7816164E-02  0.1312668E+00
        -11   -1    0    0    0    0  0.00000000000E+00  0.00000000000E+00  0.45593999997E+02  0.45594000000E+02  0.51100000000E-03 0.  1.
         11   -1    0    0    0    0 -0.00000000000E+00 -0.00000000000E+00 -0.45593999997E+02  0.45594000000E+02  0.51100000000E-03 0. -1.
    9900012    2    1    2    0    0 -0.34406868274E+02 -0.65325306551E+01 -0.25634278443E+02  0.47787276821E+02  0.20000026336E+02 0.  0.
         12    1    1    2    0    0  0.34406868274E+02  0.65325306551E+01  0.25634278443E+02  0.43400723179E+02  0.00000000000E+00 0. -1.
         11    1    3    3    0    0 -0.79434966479E+01 -0.80095302478E+01 -0.85703015108E+01  0.14166925638E+02  0.51100000000E-03 0. -1.
        -11    1    3    3    0    0 -0.27088358830E+02  0.24343260075E+01 -0.17560396546E+02  0.32373950243E+02  0.51100000000E-03 0.  1.
         12    1    3    3    0    0  0.62498720357E+00 -0.95732641473E+00  0.49641961412E+00  0.12464009396E+01  0.00000000000E+00 0. -1.
</event>
<event>
 7    1  0.5411321E-010  0.4778726E+02  0.7816164E-02  0.1312668E+00
        -11   -1    0    0    0    0  0.00000000000E+00  0.00000000000E+00  0.45593999997E+02  0.45594000000E+02  0.51100000000E-03 0.  1.
         11   -1    0    0    0    0 -0.00000000000E+00 -0.00000000000E+00 -0.45593999997E+02  0.45594000000E+02  0.51100000000E-03 0. -1.
    9900012    2    1    2    0    0 -0.10481567244E+02  0.41631038080E+02 -0.63731732543E+01  0.47787263591E+02  0.19999966016E+02 0.  0.
         12    1    1    2    0    0  0.10481567244E+02 -0.41631038080E+02  0.63731732543E+01  0.43400736409E+02  0.00000000000E+00 0. -1.
         11    1    3    3    0    0 -0.46861906826E+00  0.19670418822E+01  0.33545557373E+01  0.39168740155E+01  0.51100000000E-03 0. -1.
        -11    1    3    3    0    0 -0.18148568614E+01  0.29909110094E+02 -0.79820320505E+01  0.31009053645E+02  0.51100000000E-03 0.  1.
         12    1    3    3    0    0 -0.81980913144E+01  0.97548861042E+01 -0.17456969411E+01  0.12861335930E+02  0.00000000000E+00 0. -1.
</event>
<event>
 7    1  0.5411321E-010  0.4778727E+02  0.7816164E-02  0.1312668E+00
        -11   -1    0    0    0    0  0.00000000000E+00  0.00000000000E+00  0.45593999997E+02  0.45594000000E+02  0.51100000000E-03 0.  1.
         11   -1    0    0    0    0 -0.00000000000E+00 -0.00000000000E+00 -0.45593999997E+02  0.45594000000E+02  0.51100000000E-03 0. -1.
    9900012    2    1    2    0    0  0.67394976127E+01 -0.28389795359E+02  0.32128213455E+02  0.47787269495E+02  0.19999992934E+02 0.  0.
         12    1    1    2    0    0 -0.67394976127E+01  0.28389795359E+02 -0.32128213455E+02  0.43400730505E+02  0.00000000000E+00 0. -1.
         11    1    3    3    0    0  0.26917680815E+01  0.84689799998E-01 -0.59940937561E+00  0.27589997513E+01  0.51100000000E-03 0. -1.
        -11    1    3    3    0    0 -0.25997203473E+00 -0.20455812601E+02  0.28262774573E+02  0.34889715984E+02  0.51100000000E-03 0.  1.
        -12    1    3    3    0    0  0.43077015659E+01 -0.80186725580E+01  0.44648482577E+01  0.10138553760E+02  0.00000000000E+00 0.  1.
</event>
<event>
 7    1  0.5411321E-010  0.4778727E+02  0.7816164E-02  0.1312668E+00
        -11   -1    0    0    0    0  0.00000000000E+00  0.00000000000E+00  0.45593999997E+02  0.45594000000E+02  0.51100000000E-03 0.  1.
         11   -1    0    0    0    0 -0.00000000000E+00 -0.00000000000E+00 -0.45593999997E+02  0.45594000000E+02  0.51100000000E-03 0. -1.
    9900012    2    1    2    0    0 -0.15441532009E+02  0.14375476552E+02  0.37927935592E+02  0.47787268035E+02  0.19999986277E+02 0.  0.
         12    1    1    2    0    0  0.15441532009E+02 -0.14375476552E+02 -0.37927935592E+02  0.43400731965E+02  0.00000000000E+00 0. -1.
         11    1    3    3    0    0  0.25407580644E+01  0.20104267537E+01  0.17029976887E+00  0.32444212960E+01  0.51100000000E-03 0. -1.
        -11    1    3    3    0    0 -0.99877588575E+01  0.76530252997E+01  0.12949348959E+02  0.18055740416E+02  0.51100000000E-03 0.  1.
         12    1    3    3    0    0 -0.79945312163E+01  0.47120244982E+01  0.24808286864E+02  0.26487106323E+02  0.00000000000E+00 0. -1.
</event>
<event>
 7    1  0.5411321E-010  0.4778727E+02  0.7816164E-02  0.1312668E+00
        -11   -1    0    0    0    0  0.00000000000E+00  0.00000000000E+00  0.45593999997E+02  0.45594000000E+02  0.51100000000E-03 0. -1.
         11   -1    0    0    0    0 -0.00000000000E+00 -0.00000000000E+00 -0.45593999997E+02  0.45594000000E+02  0.51100000000E-03 0.  1.
    9900012    2    1    2    0    0 -0.97581439284E+01 -0.31055444972E+02 -0.28704726727E+02  0.47787269916E+02  0.19999994854E+02 0.  0.
         12    1    1    2    0    0  0.97581439284E+01  0.31055444972E+02  0.28704726727E+02  0.43400730084E+02  0.00000000000E+00 0. -1.
         11    1    3    3    0    0 -0.24855878642E+01 -0.13243394422E+02 -0.22549270007E+01  0.13662003473E+02  0.51100000000E-03 0. -1.
        -11    1    3    3    0    0 -0.32624071942E+01 -0.31682636474E+01 -0.13243110252E+02  0.14002184281E+02  0.51100000000E-03 0.  1.
        -12    1    3    3    0    0 -0.40101488700E+01 -0.14643786903E+02 -0.13206689475E+02  0.20123082162E+02  0.00000000000E+00 0.  1.
</event>
<event>
 7    1  0.5411321E-010  0.4778727E+02  0.7816164E-02  0.1312668E+00
        -11   -1    0    0    0    0  0.00000000000E+00  0.00000000000E+00  0.45593999997E+02  0.45594000000E+02  0.51100000000E-03 0.  1.
         11   -1    0    0    0    0 -0.00000000000E+00 -0.00000000000E+00 -0.45593999997E+02  0.45594000000E+02  0.51100000000E-03 0. -1.
    9900012    2    1    2    0    0  0.82858545485E+01 -0.13210849791E+02  0.40502363876E+02  0.47787269391E+02  0.19999992462E+02 0.  0.
         12    1    1    2    0    0 -0.82858545485E+01  0.13210849791E+02 -0.40502363876E+02  0.43400730609E+02  0.00000000000E+00 0. -1.
         11    1    3    3    0    0 -0.29734759309E+01 -0.73260146640E+01  0.18783159989E+02  0.20379380496E+02  0.51100000000E-03 0. -1.
        -11    1    3    3    0    0  0.11846984024E+02 -0.81021569221E+01  0.17786652165E+02  0.22855217627E+02  0.51100000000E-03 0.  1.
         12    1    3    3    0    0 -0.58765354455E+00  0.22173217948E+01  0.39325517221E+01  0.45526712683E+01  0.00000000000E+00 0. -1.
</event>
<event>
 7    1  0.5411321E-010  0.4778728E+02  0.7816164E-02  0.1312668E+00
        -11   -1    0    0    0    0  0.00000000000E+00  0.00000000000E+00  0.45593999997E+02  0.45594000000E+02  0.51100000000E-03 0.  1.
         11   -1    0    0    0    0 -0.00000000000E+00 -0.00000000000E+00 -0.45593999997E+02  0.45594000000E+02  0.51100000000E-03 0. -1.
    9900012    2    1    2    0    0 -0.13897322860E+02 -0.25912275495E+02  0.31922426543E+02  0.47787275117E+02  0.20000018568E+02 0.  0.
         12    1    1    2    0    0  0.13897322860E+02  0.25912275495E+02 -0.31922426543E+02  0.43400724883E+02  0.00000000000E+00 0. -1.
         11    1    3    3    0    0 -0.74478728856E+00 -0.12638465535E+01  0.14376094226E+02  0.14450747444E+02  0.51100000000E-03 0. -1.
        -11    1    3    3    0    0 -0.40589633966E+01 -0.97405900413E+01  0.41987063181E+01  0.11357086476E+02  0.51100000000E-03 0.  1.
         12    1    3    3    0    0 -0.90935721748E+01 -0.14907838900E+02  0.13347625998E+02  0.21979441198E+02  0.00000000000E+00 0. -1.
</event>
<event>
 7    1  0.5411321E-010  0.4778727E+02  0.7816164E-02  0.1312668E+00
        -11   -1    0    0    0    0  0.00000000000E+00  0.00000000000E+00  0.45593999997E+02  0.45594000000E+02  0.51100000000E-03 0.  1.
         11   -1    0    0    0    0 -0.00000000000E+00 -0.00000000000E+00 -0.45593999997E+02  0.45594000000E+02  0.51100000000E-03 0. -1.
    9900012    2    1    2    0    0 -0.10547462186E+02 -0.10930217780E+02  0.40655935902E+02  0.47787265636E+02  0.19999975341E+02 0.  0.
         12    1    1    2    0    0  0.10547462186E+02  0.10930217780E+02 -0.40655935902E+02  0.43400734364E+02  0.00000000000E+00 0. -1.
         11    1    3    3    0    0 -0.50589564523E+01  0.74727420288E+00  0.80680024499E+01  0.95521789616E+01  0.51100000000E-03 0. -1.
        -11    1    3    3    0    0 -0.76136966368E+01 -0.27385359315E-01  0.86191207184E+01  0.11500363849E+02  0.51100000000E-03 0.  1.
        -12    1    3    3    0    0  0.21251909032E+01 -0.11650106624E+02  0.23968812733E+02  0.26734722826E+02  0.00000000000E+00 0.  1.
</event>
<event>
 7    1  0.5411321E-010  0.4778727E+02  0.7816164E-02  0.1312668E+00
        -11   -1    0    0    0    0  0.00000000000E+00  0.00000000000E+00  0.45593999997E+02  0.45594000000E+02  0.51100000000E-03 0. -1.
         11   -1    0    0    0    0 -0.00000000000E+00 -0.00000000000E+00 -0.45593999997E+02  0.45594000000E+02  0.51100000000E-03 0.  1.
    9900012    2    1    2    0    0 -0.12856004443E+01  0.17121260357E+02 -0.39860167613E+02  0.47787270895E+02  0.19999999320E+02 0.  0.
         12    1    1    2    0    0  0.12856004443E+01 -0.17121260357E+02  0.39860167613E+02  0.43400729105E+02  0.00000000000E+00 0. -1.
         11    1    3    3    0    0 -0.13576796841E+01 -0.14601560423E+01 -0.13184811843E+01  0.23903436336E+01  0.51100000000E-03 0. -1.
        -11    1    3    3    0    0 -0.33666395068E+00  0.20715031306E+02 -0.29182252841E+02  0.35788681811E+02  0.51100000000E-03 0.  1.
        -12    1    3    3    0    0  0.40874319049E+00 -0.21336149070E+01 -0.93594335872E+01  0.96082454507E+01  0.00000000000E+00 0.  1.
</event>
<event>
 7    1  0.5411321E-010  0.4778726E+02  0.7816164E-02  0.1312668E+00
        -11   -1    0    0    0    0  0.00000000000E+00  0.00000000000E+00  0.45593999997E+02  0.45594000000E+02  0.51100000000E-03 0. -1.
         11   -1    0    0    0    0 -0.00000000000E+00 -0.00000000000E+00 -0.45593999997E+02  0.45594000000E+02  0.51100000000E-03 0.  1.
    9900012    2    1    2    0    0  0.11116572275E+02 -0.40990354396E+02 -0.89351554589E+01  0.47787258811E+02  0.19999944223E+02 0.  0.
         12    1    1    2    0    0 -0.11116572275E+02  0.40990354396E+02  0.89351554589E+01  0.43400741189E+02  0.00000000000E+00 0. -1.
         11    1    3    3    0    0 -0.80405695629E-01  0.10478259319E+01  0.14600959559E+01  0.17989676820E+01  0.51100000000E-03 0. -1.
        -11    1    3    3    0    0  0.11875917921E+02 -0.32081053035E+02 -0.47918834716E+01  0.34542633625E+02  0.51100000000E-03 0.  1.
         12    1    3    3    0    0 -0.67893994989E+00 -0.99571272929E+01 -0.56033679432E+01  0.11445657504E+02  0.00000000000E+00 0. -1.
</event>
<event>
 7    1  0.5411321E-010  0.4778729E+02  0.7816164E-02  0.1312668E+00
        -11   -1    0    0    0    0  0.00000000000E+00  0.00000000000E+00  0.45593999997E+02  0.45594000000E+02  0.51100000000E-03 0.  1.
         11   -1    0    0    0    0 -0.00000000000E+00 -0.00000000000E+00 -0.45593999997E+02  0.45594000000E+02  0.51100000000E-03 0. -1.
    9900012    2    1    2    0    0 -0.51533989020E+01 -0.27216568278E+02  0.33411406877E+02  0.47787294723E+02  0.20000107960E+02 0.  0.
         12    1    1    2    0    0  0.51533989020E+01  0.27216568278E+02 -0.33411406877E+02  0.43400705277E+02  0.00000000000E+00 0. -1.
         11    1    3    3    0    0  0.21797208841E+01  0.20463621591E+01  0.55936767313E+01  0.63425547577E+01  0.51100000000E-03 0. -1.
        -11    1    3    3    0    0 -0.71115231066E+01 -0.16787583693E+02  0.15922716651E+02  0.24205983412E+02  0.51100000000E-03 0.  1.
         12    1    3    3    0    0 -0.22159667959E+00 -0.12475346744E+02  0.11895013494E+02  0.17238756553E+02  0.00000000000E+00 0. -1.
</event>
<event>
 7    1  0.5411321E-010  0.4778727E+02  0.7816164E-02  0.1312668E+00
        -11   -1    0    0    0    0  0.00000000000E+00  0.00000000000E+00  0.45593999997E+02  0.45594000000E+02  0.51100000000E-03 0. -1.
         11   -1    0    0    0    0 -0.00000000000E+00 -0.00000000000E+00 -0.45593999997E+02  0.45594000000E+02  0.51100000000E-03 0.  1.
    9900012    2    1    2    0    0 -0.17603444078E+02 -0.14211448972E+02 -0.37037502556E+02  0.47787272807E+02  0.20000008037E+02 0.  0.
         12    1    1    2    0    0  0.17603444078E+02  0.14211448972E+02  0.37037502556E+02  0.43400727193E+02  0.00000000000E+00 0. -1.
         11    1    3    3    0    0 -0.84814194978E+01 -0.99197720233E+01 -0.70814154470E+01  0.14848663195E+02  0.51100000000E-03 0. -1.
        -11    1    3    3    0    0 -0.14996849144E+01  0.28556829503E+01 -0.78742036458E+01  0.85092340003E+01  0.51100000000E-03 0.  1.
         12    1    3    3    0    0 -0.76223396654E+01 -0.71473598988E+01 -0.22081883463E+02  0.24429375612E+02  0.00000000000E+00 0. -1.
</event>
<event>
 7    1  0.5411321E-010  0.4778728E+02  0.7816164E-02  0.1312668E+00
        -11   -1    0    0    0    0  0.00000000000E+00  0.00000000000E+00  0.45593999997E+02  0.45594000000E+02  0.51100000000E-03 0.  1.
         11   -1    0    0    0    0 -0.00000000000E+00 -0.00000000000E+00 -0.45593999997E+02  0.45594000000E+02  0.51100000000E-03 0. -1.
    9900012    2    1    2    0    0 -0.18828122733E+02  0.27219775244E+02  0.28075044131E+02  0.47787280272E+02  0.20000042070E+02 0.  0.
         12    1    1    2    0    0  0.18828122733E+02 -0.27219775244E+02 -0.28075044131E+02  0.43400719728E+02  0.00000000000E+00 0. -1.
         11    1    3    3    0    0  0.34870301782E+00  0.33551408407E+00 -0.19704840526E+01  0.20290320742E+01  0.51100000000E-03 0. -1.
        -11    1    3    3    0    0 -0.11577382884E+02  0.11293524661E+02  0.19977252332E+02  0.25703503744E+02  0.51100000000E-03 0.  1.
         12    1    3    3    0    0 -0.75994428677E+01  0.15590736499E+02  0.10068275851E+02  0.20054744453E+02  0.00000000000E+00 0. -1.
</event>
<event>
 7    1  0.5411321E-010  0.4778727E+02  0.7816164E-02  0.1312668E+00
        -11   -1    0    0    0    0  0.00000000000E+00  0.00000000000E+00  0.45593999997E+02  0.45594000000E+02  0.51100000000E-03 0.  1.
         11   -1    0    0    0    0 -0.00000000000E+00 -0.00000000000E+00 -0.45593999997E+02  0.45594000000E+02  0.51100000000E-03 0. -1.
    9900012    2    1    2    0    0  0.61854269203E+01 -0.10702337442E+02  0.41603171082E+02  0.47787269856E+02  0.19999994582E+02 0.  0.
         12    1    1    2    0    0 -0.61854269203E+01  0.10702337442E+02 -0.41603171082E+02  0.43400730144E+02  0.00000000000E+00 0. -1.
         11    1    3    3    0    0  0.13842871805E+01  0.74797531094E+00  0.25982334758E+02  0.26029933496E+02  0.51100000000E-03 0. -1.
        -11    1    3    3    0    0  0.68457297459E+00 -0.87399340256E+01  0.14093041110E+02  0.16597255644E+02  0.51100000000E-03 0.  1.
         12    1    3    3    0    0  0.41165667651E+01 -0.27103787271E+01  0.15277952138E+01  0.51600807156E+01  0.00000000000E+00 0. -1.
</event>
<event>
 7    1  0.5411321E-010  0.4778727E+02  0.7816164E-02  0.1312668E+00
        -11   -1    0    0    0    0  0.00000000000E+00  0.00000000000E+00  0.45593999997E+02  0.45594000000E+02  0.51100000000E-03 0. -1.
         11   -1    0    0    0    0 -0.00000000000E+00 -0.00000000000E+00 -0.45593999997E+02  0.45594000000E+02  0.51100000000E-03 0.  1.
    9900012    2    1    2    0    0 -0.95262126460E+01 -0.36909041855E+02 -0.20750833363E+02  0.47787272088E+02  0.20000004759E+02 0.  0.
         12    1    1    2    0    0  0.95262126460E+01  0.36909041855E+02  0.20750833363E+02  0.43400727912E+02  0.00000000000E+00 0. -1.
         11    1    3    3    0    0 -0.10940137919E+02 -0.70823723024E+01 -0.70969184217E+01  0.14839570966E+02  0.51100000000E-03 0. -1.
        -11    1    3    3    0    0 -0.25833535235E-01 -0.13860526596E+02 -0.50352134037E+01  0.14746804371E+02  0.51100000000E-03 0.  1.
         12    1    3    3    0    0  0.14397588082E+01 -0.15966142957E+02 -0.86187015374E+01  0.18200896751E+02  0.00000000000E+00 0. -1.
</event>
<event>
 7    1  0.5411321E-010  0.4778727E+02  0.7816164E-02  0.1312668E+00
        -11   -1    0    0    0    0  0.00000000000E+00  0.00000000000E+00  0.45593999997E+02  0.45594000000E+02  0.51100000000E-03 0.  1.
         11   -1    0    0    0    0 -0.00000000000E+00 -0.00000000000E+00 -0.45593999997E+02  0.45594000000E+02  0.51100000000E-03 0. -1.
    9900012    2    1    2    0    0  0.39499678845E+02 -0.59999145302E+01 -0.16952875658E+02  0.47787267329E+02  0.19999983061E+02 0.  0.
         12    1    1    2    0    0 -0.39499678845E+02  0.59999145302E+01  0.16952875658E+02  0.43400732671E+02  0.00000000000E+00 0. -1.
         11    1    3    3    0    0  0.14258279517E+01 -0.43128784277E+01  0.17571211350E+01  0.48704600013E+01  0.51100000000E-03 0. -1.
        -11    1    3    3    0    0  0.23041602029E+02  0.19221338039E+01 -0.12196223200E+02  0.26141114801E+02  0.51100000000E-03 0.  1.
         12    1    3    3    0    0  0.15032248864E+02 -0.36091699064E+01 -0.65137735937E+01  0.16775692527E+02  0.00000000000E+00 0. -1.
</event>
<event>
 7    1  0.5411321E-010  0.4778727E+02  0.7816164E-02  0.1312668E+00
        -11   -1    0    0    0    0  0.00000000000E+00  0.00000000000E+00  0.45593999997E+02  0.45594000000E+02  0.51100000000E-03 0. -1.
         11   -1    0    0    0    0 -0.00000000000E+00 -0.00000000000E+00 -0.45593999997E+02  0.45594000000E+02  0.51100000000E-03 0.  1.
    9900012    2    1    2    0    0  0.14347309402E+02  0.40584681832E+02 -0.55372740932E+01  0.47787273153E+02  0.20000009612E+02 0.  0.
         12    1    1    2    0    0 -0.14347309402E+02 -0.40584681832E+02  0.55372740932E+01  0.43400726847E+02  0.00000000000E+00 0. -1.
         11    1    3    3    0    0  0.38813314913E+01  0.31583946637E+01 -0.54638252349E+01  0.74090200065E+01  0.51100000000E-03 0. -1.
        -11    1    3    3    0    0  0.10197249949E+02  0.30248824839E+02 -0.40354697440E+01  0.32175461566E+02  0.51100000000E-03 0.  1.
        -12    1    3    3    0    0  0.26872796175E+00  0.71774623295E+01  0.39620208857E+01  0.82027915802E+01  0.00000000000E+00 0.  1.
</event>
<event>
 7    1  0.5411321E-010  0.4778727E+02  0.7816164E-02  0.1312668E+00
        -11   -1    0    0    0    0  0.00000000000E+00  0.00000000000E+00  0.45593999997E+02  0.45594000000E+02  0.51100000000E-03 0.  1.
         11   -1    0    0    0    0 -0.00000000000E+00 -0.00000000000E+00 -0.45593999997E+02  0.45594000000E+02  0.51100000000E-03 0. -1.
    9900012    2    1    2    0    0  0.75433920905E+01 -0.42460908606E+02  0.48776783105E+01  0.47787271094E+02  0.20000000225E+02 0.  0.
         12    1    1    2    0    0 -0.75433920905E+01  0.42460908606E+02 -0.48776783105E+01  0.43400728906E+02  0.00000000000E+00 0. -1.
         11    1    3    3    0    0  0.15057012031E+00 -0.24253712879E+02  0.75289899174E+01  0.25395884494E+02  0.51100000000E-03 0. -1.
        -11    1    3    3    0    0  0.37502093652E+01 -0.15983954371E+02  0.14380476553E+01  0.16480863113E+02  0.51100000000E-03 0.  1.
         12    1    3    3    0    0  0.36426126050E+01 -0.22232413554E+01 -0.40893592622E+01  0.59105234870E+01  0.00000000000E+00 0. -1.
</event>
<event>
 7    1  0.5411321E-010  0.4778727E+02  0.7816164E-02  0.1312668E+00
        -11   -1    0    0    0    0  0.00000000000E+00  0.00000000000E+00  0.45593999997E+02  0.45594000000E+02  0.51100000000E-03 0.  1.
         11   -1    0    0    0    0 -0.00000000000E+00 -0.00000000000E+00 -0.45593999997E+02  0.45594000000E+02  0.51100000000E-03 0. -1.
    9900012    2    1    2    0    0 -0.28027115287E+02 -0.13687978879E+02  0.30178524844E+02  0.47787270527E+02  0.19999997640E+02 0.  0.
         12    1    1    2    0    0  0.28027115287E+02  0.13687978879E+02 -0.30178524844E+02  0.43400729473E+02  0.00000000000E+00 0. -1.
         11    1    3    3    0    0  0.41941006797E+00  0.44723445675E-01  0.57163976380E+01  0.57319374742E+01  0.51100000000E-03 0. -1.
        -11    1    3    3    0    0 -0.17786415804E+02 -0.10299994438E+02  0.78094705510E+01  0.21987139493E+02  0.51100000000E-03 0.  1.
        -12    1    3    3    0    0 -0.10660109551E+02 -0.34327078866E+01  0.16652656655E+02  0.20068193559E+02  0.00000000000E+00 0.  1.
</event>
<event>
 7    1  0.5411321E-010  0.4778727E+02  0.7816164E-02  0.1312668E+00
        -11   -1    0    0    0    0  0.00000000000E+00  0.00000000000E+00  0.45593999997E+02  0.45594000000E+02  0.51100000000E-03 0.  1.
         11   -1    0    0    0    0 -0.00000000000E+00 -0.00000000000E+00 -0.45593999997E+02  0.45594000000E+02  0.51100000000E-03 0. -1.
    9900012    2    1    2    0    0 -0.67815379858E+01  0.13796474564E+02  0.40586837993E+02  0.47787269751E+02  0.19999994103E+02 0.  0.
         12    1    1    2    0    0  0.67815379858E+01 -0.13796474564E+02 -0.40586837993E+02  0.43400730249E+02  0.00000000000E+00 0. -1.
         11    1    3    3    0    0 -0.12145323573E+02  0.73735377570E+01  0.20138811044E+02  0.24646493753E+02  0.51100000000E-03 0. -1.
        -11    1    3    3    0    0  0.58534668533E+01  0.75648234554E+01  0.18576085988E+02  0.20894032618E+02  0.51100000000E-03 0.  1.
        -12    1    3    3    0    0 -0.48968126569E+00 -0.11418866487E+01  0.18719409605E+01  0.22467433810E+01  0.00000000000E+00 0.  1.
</event>
<event>
 7    1  0.5411321E-010  0.4778727E+02  0.7816164E-02  0.1312668E+00
        -11   -1    0    0    0    0  0.00000000000E+00  0.00000000000E+00  0.45593999997E+02  0.45594000000E+02  0.51100000000E-03 0.  1.
         11   -1    0    0    0    0 -0.00000000000E+00 -0.00000000000E+00 -0.45593999997E+02  0.45594000000E+02  0.51100000000E-03 0. -1.
    9900012    2    1    2    0    0  0.36168570285E+02 -0.22282861324E+02  0.88843699931E+01  0.47787269414E+02  0.19999992567E+02 0.  0.
         12    1    1    2    0    0 -0.36168570285E+02  0.22282861324E+02 -0.88843699931E+01  0.43400730586E+02  0.00000000000E+00 0. -1.
         11    1    3    3    0    0  0.13006101993E+02 -0.18529350292E+02  0.88303594727E+01  0.24299604112E+02  0.51100000000E-03 0. -1.
        -11    1    3    3    0    0  0.12457077530E+02 -0.25353714293E+01 -0.58570144575E-01  0.12712604752E+02  0.51100000000E-03 0.  1.
         12    1    3    3    0    0  0.10705390762E+02 -0.12181396020E+01  0.11258066494E+00  0.10775060550E+02  0.00000000000E+00 0. -1.
</event>
<event>
 7    1  0.5411321E-010  0.4778728E+02  0.7816164E-02  0.1312668E+00
        -11   -1    0    0    0    0  0.00000000000E+00  0.00000000000E+00  0.45593999997E+02  0.45594000000E+02  0.51100000000E-03 0.  1.
         11   -1    0    0    0    0 -0.00000000000E+00 -0.00000000000E+00 -0.45593999997E+02  0.45594000000E+02  0.51100000000E-03 0. -1.
    9900012    2    1    2    0    0  0.20742457458E+02  0.86218678769E+01  0.37135382534E+02  0.47787276699E+02  0.20000025783E+02 0.  0.
         12    1    1    2    0    0 -0.20742457458E+02 -0.86218678769E+01 -0.37135382534E+02  0.43400723301E+02  0.00000000000E+00 0. -1.
         11    1    3    3    0    0  0.12174534843E+01  0.64611016892E+01  0.28113254743E+01  0.71506348814E+01  0.51100000000E-03 0. -1.
        -11    1    3    3    0    0  0.20334895768E+02  0.25646138850E+01  0.33950551801E+02  0.39657599500E+02  0.51100000000E-03 0.  1.
        -12    1    3    3    0    0 -0.80989179432E+00 -0.40384769736E+00  0.37350525856E+00  0.97904231744E+00  0.00000000000E+00 0.  1.
</event>
<event>
 7    1  0.5411321E-010  0.4778727E+02  0.7816164E-02  0.1312668E+00
        -11   -1    0    0    0    0  0.00000000000E+00  0.00000000000E+00  0.45593999997E+02  0.45594000000E+02  0.51100000000E-03 0.  1.
         11   -1    0    0    0    0 -0.00000000000E+00 -0.00000000000E+00 -0.45593999997E+02  0.45594000000E+02  0.51100000000E-03 0. -1.
    9900012    2    1    2    0    0 -0.30951535459E+00 -0.35783875808E+02  0.24556903271E+02  0.47787273441E+02  0.20000010927E+02 0.  0.
         12    1    1    2    0    0  0.30951535459E+00  0.35783875808E+02 -0.24556903271E+02  0.43400726559E+02  0.00000000000E+00 0. -1.
         11    1    3    3    0    0 -0.89047698440E-02 -0.72085796847E+01  0.11742722394E+01  0.73036029410E+01  0.51100000000E-03 0. -1.
        -11    1    3    3    0    0  0.69328088813E+01 -0.22601727957E+02  0.16009292055E+02  0.28551696587E+02  0.51100000000E-03 0.  1.
        -12    1    3    3    0    0 -0.72334194661E+01 -0.59735681667E+01  0.73733389760E+01  0.11931973913E+02  0.00000000000E+00 0.  1.
</event>
<event>
 7    1  0.5411321E-010  0.4778727E+02  0.7816164E-02  0.1312668E+00
        -11   -1    0    0    0    0  0.00000000000E+00  0.00000000000E+00  0.45593999997E+02  0.45594000000E+02  0.51100000000E-03 0.  1.
         11   -1    0    0    0    0 -0.00000000000E+00 -0.00000000000E+00 -0.45593999997E+02  0.45594000000E+02  0.51100000000E-03 0. -1.
    9900012    2    1    2    0    0  0.33318572097E+02  0.25453016318E+02  0.11208938028E+02  0.47787267541E+02  0.19999984027E+02 0.  0.
         12    1    1    2    0    0 -0.33318572097E+02 -0.25453016318E+02 -0.11208938028E+02  0.43400732459E+02  0.00000000000E+00 0. -1.
         11    1    3    3    0    0  0.14869569602E+02  0.18682557098E+02 -0.52739507942E+00  0.23883470972E+02  0.51100000000E-03 0. -1.
        -11    1    3    3    0    0  0.15932967622E+02  0.82093054171E+01  0.99771538097E+01  0.20513306683E+02  0.51100000000E-03 0.  1.
         12    1    3    3    0    0  0.25160348727E+01 -0.14388461969E+01  0.17591792982E+01  0.33904898853E+01  0.00000000000E+00 0. -1.
</event>
<event>
 7    1  0.5411321E-010  0.4778727E+02  0.7816164E-02  0.1312668E+00
        -11   -1    0    0    0    0  0.00000000000E+00  0.00000000000E+00  0.45593999997E+02  0.45594000000E+02  0.51100000000E-03 0. -1.
         11   -1    0    0    0    0 -0.00000000000E+00 -0.00000000000E+00 -0.45593999997E+02  0.45594000000E+02  0.51100000000E-03 0.  1.
    9900012    2    1    2    0    0 -0.13470264995E+02 -0.32809194692E+02 -0.25014631583E+02  0.47787273179E+02  0.20000009731E+02 0.  0.
         12    1    1    2    0    0  0.13470264995E+02  0.32809194692E+02  0.25014631583E+02  0.43400726821E+02  0.00000000000E+00 0. -1.
         11    1    3    3    0    0 -0.10809977579E+02 -0.11337836377E+02 -0.30041772423E+01  0.15950775221E+02  0.51100000000E-03 0. -1.
        -11    1    3    3    0    0 -0.53185042015E+01 -0.16465759977E+02 -0.17279510886E+02  0.24453818420E+02  0.51100000000E-03 0.  1.
        -12    1    3    3    0    0  0.26582167858E+01 -0.50055983384E+01 -0.47309434539E+01  0.73826795386E+01  0.00000000000E+00 0.  1.
</event>
<event>
 7    1  0.5411321E-010  0.4778728E+02  0.7816164E-02  0.1312668E+00
        -11   -1    0    0    0    0  0.00000000000E+00  0.00000000000E+00  0.45593999997E+02  0.45594000000E+02  0.51100000000E-03 0.  1.
         11   -1    0    0    0    0 -0.00000000000E+00 -0.00000000000E+00 -0.45593999997E+02  0.45594000000E+02  0.51100000000E-03 0. -1.
    9900012    2    1    2    0    0  0.55162121645E+01 -0.42192238361E+02  0.85445284477E+01  0.47787279488E+02  0.20000038498E+02 0.  0.
         12    1    1    2    0    0 -0.55162121645E+01  0.42192238361E+02 -0.85445284477E+01  0.43400720512E+02  0.00000000000E+00 0. -1.
         11    1    3    3    0    0  0.15014660679E+01 -0.16850296706E+00 -0.10372759415E+01  0.18326852547E+01  0.51100000000E-03 0. -1.
        -11    1    3    3    0    0  0.26255803424E+00 -0.14218165203E+02 -0.40143409088E+01  0.14776335529E+02  0.51100000000E-03 0.  1.
        -12    1    3    3    0    0  0.37521880624E+01 -0.27805570191E+02  0.13596145298E+02  0.31178258704E+02  0.00000000000E+00 0.  1.
</event>
<event>
 7    1  0.5411321E-010  0.4778727E+02  0.7816164E-02  0.1312668E+00
        -11   -1    0    0    0    0  0.00000000000E+00  0.00000000000E+00  0.45593999997E+02  0.45594000000E+02  0.51100000000E-03 0. -1.
         11   -1    0    0    0    0 -0.00000000000E+00 -0.00000000000E+00 -0.45593999997E+02  0.45594000000E+02  0.51100000000E-03 0.  1.
    9900012    2    1    2    0    0  0.40379309931E+02  0.77800830106E+01 -0.13878216658E+02  0.47787271207E+02  0.20000000742E+02 0.  0.
         12    1    1    2    0    0 -0.40379309931E+02 -0.77800830106E+01  0.13878216658E+02  0.43400728793E+02  0.00000000000E+00 0. -1.
         11    1    3    3    0    0  0.80273585820E+01  0.84123326342E+01 -0.22713495165E+00  0.11630022214E+02  0.51100000000E-03 0. -1.
        -11    1    3    3    0    0  0.14999274649E+02  0.13214203433E+01 -0.10639847680E+02  0.18437211032E+02  0.51100000000E-03 0.  1.
         12    1    3    3    0    0  0.17352676699E+02 -0.19536699668E+01 -0.30112340264E+01  0.17720037961E+02  0.00000000000E+00 0. -1.
</event>
<event>
 7    1  0.5411321E-010  0.4778727E+02  0.7816164E-02  0.1312668E+00
        -11   -1    0    0    0    0  0.00000000000E+00  0.00000000000E+00  0.45593999997E+02  0.45594000000E+02  0.51100000000E-03 0. -1.
         11   -1    0    0    0    0 -0.00000000000E+00 -0.00000000000E+00 -0.45593999997E+02  0.45594000000E+02  0.51100000000E-03 0.  1.
    9900012    2    1    2    0    0  0.12613932998E+02  0.24382834994E+02 -0.33615310651E+02  0.47787273529E+02  0.20000011330E+02 0.  0.
         12    1    1    2    0    0 -0.12613932998E+02 -0.24382834994E+02  0.33615310651E+02  0.43400726471E+02  0.00000000000E+00 0. -1.
         11    1    3    3    0    0  0.13356223451E+02  0.18210582149E+02 -0.26146951689E+02  0.34549632270E+02  0.51100000000E-03 0.  1.
        -11    1    3    3    0    0  0.23115317082E+01 -0.12492671409E+01 -0.32241315172E+01  0.41591912109E+01  0.51100000000E-03 0. -1.
         12    1    3    3    0    0 -0.30538221607E+01  0.74215199859E+01 -0.42442274439E+01  0.90784500487E+01  0.00000000000E+00 0. -1.
</event>
<event>
 7    1  0.5411321E-010  0.4778727E+02  0.7816164E-02  0.1312668E+00
        -11   -1    0    0    0    0  0.00000000000E+00  0.00000000000E+00  0.45593999997E+02  0.45594000000E+02  0.51100000000E-03 0.  1.
         11   -1    0    0    0    0 -0.00000000000E+00 -0.00000000000E+00 -0.45593999997E+02  0.45594000000E+02  0.51100000000E-03 0. -1.
    9900012    2    1    2    0    0  0.29787186260E+02  0.26907997784E+02  0.16501712794E+02  0.47787270339E+02  0.19999996782E+02 0.  0.
         12    1    1    2    0    0 -0.29787186260E+02 -0.26907997784E+02 -0.16501712794E+02  0.43400729661E+02  0.00000000000E+00 0. -1.
         11    1    3    3    0    0  0.49527413365E+01  0.28936438850E+01 -0.18932664463E+01  0.60404701619E+01  0.51100000000E-03 0. -1.
        -11    1    3    3    0    0  0.18782057319E+01  0.50969715099E+01  0.90712459147E+01  0.10573281328E+02  0.51100000000E-03 0.  1.
        -12    1    3    3    0    0  0.22956239191E+02  0.18917382389E+02  0.93237333257E+01  0.31173518848E+02  0.00000000000E+00 0.  1.
</event>
<event>
 7    1  0.5411321E-010  0.4778727E+02  0.7816164E-02  0.1312668E+00
        -11   -1    0    0    0    0  0.00000000000E+00  0.00000000000E+00  0.45593999997E+02  0.45594000000E+02  0.51100000000E-03 0.  1.
         11   -1    0    0    0    0 -0.00000000000E+00 -0.00000000000E+00 -0.45593999997E+02  0.45594000000E+02  0.51100000000E-03 0. -1.
    9900012    2    1    2    0    0  0.11905975268E+02 -0.15582106760E+02  0.38717816202E+02  0.47787267407E+02  0.19999983417E+02 0.  0.
         12    1    1    2    0    0 -0.11905975268E+02  0.15582106760E+02 -0.38717816202E+02  0.43400732593E+02  0.00000000000E+00 0. -1.
         11    1    3    3    0    0  0.53253173048E-01 -0.10994354130E+01 -0.22534922438E+01  0.25079516905E+01  0.51100000000E-03 0. -1.
        -11    1    3    3    0    0  0.92098529804E+01 -0.84988039045E+01  0.23673512347E+02  0.26785933749E+02  0.51100000000E-03 0.  1.
         12    1    3    3    0    0  0.26428691147E+01 -0.59838674426E+01  0.17297796099E+02  0.18493381967E+02  0.00000000000E+00 0. -1.
</event>
<event>
 7    1  0.5411321E-010  0.4778727E+02  0.7816164E-02  0.1312668E+00
        -11   -1    0    0    0    0  0.00000000000E+00  0.00000000000E+00  0.45593999997E+02  0.45594000000E+02  0.51100000000E-03 0.  1.
         11   -1    0    0    0    0 -0.00000000000E+00 -0.00000000000E+00 -0.45593999997E+02  0.45594000000E+02  0.51100000000E-03 0. -1.
    9900012    2    1    2    0    0  0.43274886924E+02  0.27332966367E+01  0.18538031417E+01  0.47787270342E+02  0.19999996795E+02 0.  0.
         12    1    1    2    0    0 -0.43274886924E+02 -0.27332966367E+01 -0.18538031417E+01  0.43400729658E+02  0.00000000000E+00 0. -1.
         11    1    3    3    0    0 -0.16561330556E+01 -0.39447560867E+00  0.20733485677E+01  0.26827527370E+01  0.51100000000E-03 0. -1.
        -11    1    3    3    0    0  0.21573906369E+02  0.19639708409E+01 -0.12159042419E+01  0.21697212745E+02  0.51100000000E-03 0.  1.
         12    1    3    3    0    0  0.23357113610E+02  0.11638014045E+01  0.99635881594E+00  0.23407304860E+02  0.00000000000E+00 0. -1.
</event>
<event>
 7    1  0.5411321E-010  0.4778727E+02  0.7816164E-02  0.1312668E+00
        -11   -1    0    0    0    0  0.00000000000E+00  0.00000000000E+00  0.45593999997E+02  0.45594000000E+02  0.51100000000E-03 0.  1.
         11   -1    0    0    0    0 -0.00000000000E+00 -0.00000000000E+00 -0.45593999997E+02  0.45594000000E+02  0.51100000000E-03 0. -1.
    9900012    2    1    2    0    0 -0.37683890893E+02 -0.65060093186E+01  0.20523630278E+02  0.47787272012E+02  0.20000004413E+02 0.  0.
         12    1    1    2    0    0  0.37683890893E+02  0.65060093186E+01 -0.20523630278E+02  0.43400727988E+02  0.00000000000E+00 0. -1.
         11    1    3    3    0    0 -0.78707459520E+01  0.19530431210E+01  0.53203736465E+01  0.96989378425E+01  0.51100000000E-03 0. -1.
        -11    1    3    3    0    0 -0.13889778145E+02 -0.69036948095E+01  0.15715686902E+02  0.22080981727E+02  0.51100000000E-03 0.  1.
        -12    1    3    3    0    0 -0.15923366795E+02 -0.15553576301E+01 -0.51243027066E+00  0.16007352443E+02  0.00000000000E+00 0.  1.
</event>
<event>
 7    1  0.5411321E-010  0.4778727E+02  0.7816164E-02  0.1312668E+00
        -11   -1    0    0    0    0  0.00000000000E+00  0.00000000000E+00  0.45593999997E+02  0.45594000000E+02  0.51100000000E-03 0.  1.
         11   -1    0    0    0    0 -0.00000000000E+00 -0.00000000000E+00 -0.45593999997E+02  0.45594000000E+02  0.51100000000E-03 0. -1.
    9900012    2    1    2    0    0  0.41602124424E+01  0.18322363444E+01  0.43162005646E+02  0.47787272022E+02  0.20000004459E+02 0.  0.
         12    1    1    2    0    0 -0.41602124424E+01 -0.18322363444E+01 -0.43162005646E+02  0.43400727978E+02  0.00000000000E+00 0. -1.
         11    1    3    3    0    0 -0.64009217135E+01  0.28532706029E+01  0.28670997012E+02  0.29515064321E+02  0.51100000000E-03 0. -1.
        -11    1    3    3    0    0  0.92864596682E+01 -0.12511961512E+01  0.14080482380E+02  0.16913420982E+02  0.51100000000E-03 0.  1.
         12    1    3    3    0    0  0.12746744877E+01  0.23016189268E+00  0.41052625363E+00  0.13587867204E+01  0.00000000000E+00 0. -1.
</event>
<event>
 7    1  0.5411321E-010  0.4778727E+02  0.7816164E-02  0.1312668E+00
        -11   -1    0    0    0    0  0.00000000000E+00  0.00000000000E+00  0.45593999997E+02  0.45594000000E+02  0.51100000000E-03 0.  1.
         11   -1    0    0    0    0 -0.00000000000E+00 -0.00000000000E+00 -0.45593999997E+02  0.45594000000E+02  0.51100000000E-03 0. -1.
    9900012    2    1    2    0    0 -0.18149571942E+02 -0.14263939813E+02  0.36752637029E+02  0.47787271098E+02  0.20000000242E+02 0.  0.
         12    1    1    2    0    0  0.18149571942E+02  0.14263939813E+02 -0.36752637029E+02  0.43400728902E+02  0.00000000000E+00 0. -1.
         11    1    3    3    0    0 -0.18681124600E+01  0.41690978827E+01  0.12116744012E+02  0.12949390218E+02  0.51100000000E-03 0.  1.
        -11    1    3    3    0    0 -0.10999022214E+02 -0.11735634606E+02  0.16728981735E+02  0.23206948085E+02  0.51100000000E-03 0. -1.
        -12    1    3    3    0    0 -0.52824372675E+01 -0.66974030895E+01  0.79069112830E+01  0.11630932794E+02  0.00000000000E+00 0.  1.
</event>
<event>
 7    1  0.5411321E-010  0.4778727E+02  0.7816164E-02  0.1312668E+00
        -11   -1    0    0    0    0  0.00000000000E+00  0.00000000000E+00  0.45593999997E+02  0.45594000000E+02  0.51100000000E-03 0. -1.
         11   -1    0    0    0    0 -0.00000000000E+00 -0.00000000000E+00 -0.45593999997E+02  0.45594000000E+02  0.51100000000E-03 0.  1.
    9900012    2    1    2    0    0  0.12699935349E+02  0.34824292817E+02 -0.22574404497E+02  0.47787268826E+02  0.19999989885E+02 0.  0.
         12    1    1    2    0    0 -0.12699935349E+02 -0.34824292817E+02  0.22574404497E+02  0.43400731174E+02  0.00000000000E+00 0. -1.
         11    1    3    3    0    0  0.60272832547E+01  0.10868331999E+02 -0.38735609821E+00  0.12433777740E+02  0.51100000000E-03 0. -1.
        -11    1    3    3    0    0  0.47873887313E+01  0.29730057649E+01 -0.15096445998E+01  0.58341135763E+01  0.51100000000E-03 0.  1.
         12    1    3    3    0    0  0.18852633625E+01  0.20982955053E+02 -0.20677403799E+02  0.29519377510E+02  0.00000000000E+00 0. -1.
</event>
<event>
 7    1  0.5411321E-010  0.4778726E+02  0.7816164E-02  0.1312668E+00
        -11   -1    0    0    0    0  0.00000000000E+00  0.00000000000E+00  0.45593999997E+02  0.45594000000E+02  0.51100000000E-03 0.  1.
         11   -1    0    0    0    0 -0.00000000000E+00 -0.00000000000E+00 -0.45593999997E+02  0.45594000000E+02  0.51100000000E-03 0. -1.
    9900012    2    1    2    0    0  0.61810250723E+01  0.34187391859E+02  0.26012334270E+02  0.47787258448E+02  0.19999942567E+02 0.  0.
         12    1    1    2    0    0 -0.61810250723E+01 -0.34187391859E+02 -0.26012334270E+02  0.43400741552E+02  0.00000000000E+00 0. -1.
         11    1    3    3    0    0  0.27300301276E+01 -0.13038913510E+01  0.51990273872E+01  0.60152375836E+01  0.51100000000E-03 0. -1.
        -11    1    3    3    0    0  0.23674109496E+01  0.25840693317E+02  0.18263230966E+02  0.31731556395E+02  0.51100000000E-03 0.  1.
         12    1    3    3    0    0  0.10835839951E+01  0.96505898938E+01  0.25500759175E+01  0.10040464469E+02  0.00000000000E+00 0. -1.
</event>
<event>
 7    1  0.5411321E-010  0.4778727E+02  0.7816164E-02  0.1312668E+00
        -11   -1    0    0    0    0  0.00000000000E+00  0.00000000000E+00  0.45593999997E+02  0.45594000000E+02  0.51100000000E-03 0. -1.
         11   -1    0    0    0    0 -0.00000000000E+00 -0.00000000000E+00 -0.45593999997E+02  0.45594000000E+02  0.51100000000E-03 0.  1.
    9900012    2    1    2    0    0  0.15091242564E+02  0.18438261367E+02 -0.36275449786E+02  0.47787270264E+02  0.19999996444E+02 0.  0.
         12    1    1    2    0    0 -0.15091242564E+02 -0.18438261367E+02  0.36275449786E+02  0.43400729736E+02  0.00000000000E+00 0. -1.
         11    1    3    3    0    0  0.11693679643E+02  0.10415815970E+02 -0.30015143566E+02  0.33854692577E+02  0.51100000000E-03 0. -1.
        -11    1    3    3    0    0  0.44255870905E+01  0.95581980456E+01 -0.58150851285E+01  0.12031632736E+02  0.51100000000E-03 0.  1.
        -12    1    3    3    0    0 -0.10280241694E+01 -0.15357526481E+01 -0.44522109149E+00  0.19009449517E+01  0.00000000000E+00 0.  1.
</event>
<event>
 7    1  0.5411321E-010  0.4778727E+02  0.7816164E-02  0.1312668E+00
        -11   -1    0    0    0    0  0.00000000000E+00  0.00000000000E+00  0.45593999997E+02  0.45594000000E+02  0.51100000000E-03 0.  1.
         11   -1    0    0    0    0 -0.00000000000E+00 -0.00000000000E+00 -0.45593999997E+02  0.45594000000E+02  0.51100000000E-03 0. -1.
    9900012    2    1    2    0    0  0.56289559919E+01 -0.26075567485E+02  0.34234530588E+02  0.47787269017E+02  0.19999990757E+02 0.  0.
         12    1    1    2    0    0 -0.56289559919E+01  0.26075567485E+02 -0.34234530588E+02  0.43400730983E+02  0.00000000000E+00 0. -1.
         11    1    3    3    0    0 -0.23119921847E+01 -0.21354958930E+02  0.23180328361E+02  0.31602329059E+02  0.51100000000E-03 0. -1.
        -11    1    3    3    0    0  0.41004693427E+01  0.30131414531E+00  0.87712648594E+00  0.42040445024E+01  0.51100000000E-03 0.  1.
        -12    1    3    3    0    0  0.38404788339E+01 -0.50219227008E+01  0.10177075741E+02  0.11980895456E+02  0.00000000000E+00 0.  1.
</event>
<event>
 7    1  0.5411321E-010  0.4778727E+02  0.7816164E-02  0.1312668E+00
        -11   -1    0    0    0    0  0.00000000000E+00  0.00000000000E+00  0.45593999997E+02  0.45594000000E+02  0.51100000000E-03 0.  1.
         11   -1    0    0    0    0 -0.00000000000E+00 -0.00000000000E+00 -0.45593999997E+02  0.45594000000E+02  0.51100000000E-03 0. -1.
    9900012    2    1    2    0    0 -0.28208034381E+02  0.32173582738E+02  0.72657187502E+01  0.47787270758E+02  0.19999998692E+02 0.  0.
         12    1    1    2    0    0  0.28208034381E+02 -0.32173582738E+02 -0.72657187502E+01  0.43400729242E+02  0.00000000000E+00 0. -1.
         11    1    3    3    0    0 -0.11597387097E+02  0.48543022465E+01 -0.40250928024E+01  0.13200947319E+02  0.51100000000E-03 0. -1.
        -11    1    3    3    0    0 -0.92295746709E+01  0.17076083770E+02  0.10163479644E+02  0.21910591144E+02  0.51100000000E-03 0.  1.
        -12    1    3    3    0    0 -0.73810726125E+01  0.10243196721E+02  0.11273319081E+01  0.12675732295E+02  0.00000000000E+00 0.  1.
</event>
<event>
 7    1  0.5411321E-010  0.4778727E+02  0.7816164E-02  0.1312668E+00
        -11   -1    0    0    0    0  0.00000000000E+00  0.00000000000E+00  0.45593999997E+02  0.45594000000E+02  0.51100000000E-03 0.  1.
         11   -1    0    0    0    0 -0.00000000000E+00 -0.00000000000E+00 -0.45593999997E+02  0.45594000000E+02  0.51100000000E-03 0. -1.
    9900012    2    1    2    0    0 -0.20823257433E+02 -0.30785170048E+02  0.22411797260E+02  0.47787269575E+02  0.19999993301E+02 0.  0.
         12    1    1    2    0    0  0.20823257433E+02  0.30785170048E+02 -0.22411797260E+02  0.43400730425E+02  0.00000000000E+00 0. -1.
         11    1    3    3    0    0 -0.12153096601E+02 -0.23084242615E+02  0.52227995215E+01  0.26605594322E+02  0.51100000000E-03 0. -1.
        -11    1    3    3    0    0 -0.45544392518E+01 -0.20287011512E+01  0.98147261443E+01  0.11008514650E+02  0.51100000000E-03 0.  1.
         12    1    3    3    0    0 -0.41157215807E+01 -0.56722262813E+01  0.73742715940E+01  0.10173160603E+02  0.00000000000E+00 0. -1.
</event>
<event>
 7    1  0.5411321E-010  0.4778727E+02  0.7816164E-02  0.1312668E+00
        -11   -1    0    0    0    0  0.00000000000E+00  0.00000000000E+00  0.45593999997E+02  0.45594000000E+02  0.51100000000E-03 0.  1.
         11   -1    0    0    0    0 -0.00000000000E+00 -0.00000000000E+00 -0.45593999997E+02  0.45594000000E+02  0.51100000000E-03 0. -1.
    9900012    2    1    2    0    0 -0.33207183169E+01 -0.42004716097E+02  0.10401916719E+02  0.47787271712E+02  0.20000003042E+02 0.  0.
         12    1    1    2    0    0  0.33207183169E+01  0.42004716097E+02 -0.10401916719E+02  0.43400728288E+02  0.00000000000E+00 0. -1.
         11    1    3    3    0    0  0.38880010709E+01 -0.61854086008E+01 -0.35951781891E-01  0.73059650066E+01  0.51100000000E-03 0. -1.
        -11    1    3    3    0    0 -0.18184005163E+01 -0.29939441460E+02  0.12082617020E+02  0.32336764985E+02  0.51100000000E-03 0.  1.
        -12    1    3    3    0    0 -0.53903188715E+01 -0.58798660360E+01 -0.16447485191E+01  0.81445417200E+01  0.00000000000E+00 0.  1.
</event>
<event>
 7    1  0.5411321E-010  0.4778727E+02  0.7816164E-02  0.1312668E+00
        -11   -1    0    0    0    0  0.00000000000E+00  0.00000000000E+00  0.45593999997E+02  0.45594000000E+02  0.51100000000E-03 0. -1.
         11   -1    0    0    0    0 -0.00000000000E+00 -0.00000000000E+00 -0.45593999997E+02  0.45594000000E+02  0.51100000000E-03 0.  1.
    9900012    2    1    2    0    0  0.31817113739E+02  0.27029677441E+02 -0.11861329627E+02  0.47787270401E+02  0.19999997065E+02 0.  0.
         12    1    1    2    0    0 -0.31817113739E+02 -0.27029677441E+02  0.11861329627E+02  0.43400729599E+02  0.00000000000E+00 0. -1.
         11    1    3    3    0    0  0.37155183019E+01 -0.12577078292E+01 -0.10474322364E+01  0.40600516975E+01  0.51100000000E-03 0. -1.
        -11    1    3    3    0    0  0.29038637402E+02  0.25501202244E+02 -0.12131504990E+02  0.40505890827E+02  0.51100000000E-03 0.  1.
        -12    1    3    3    0    0 -0.93704196560E+00  0.27861830261E+01  0.13176075999E+01  0.32213278765E+01  0.00000000000E+00 0.  1.
</event>
<event>
 7    1  0.5411321E-010  0.4778726E+02  0.7816164E-02  0.1312668E+00
        -11   -1    0    0    0    0  0.00000000000E+00  0.00000000000E+00  0.45593999997E+02  0.45594000000E+02  0.51100000000E-03 0. -1.
         11   -1    0    0    0    0 -0.00000000000E+00 -0.00000000000E+00 -0.45593999997E+02  0.45594000000E+02  0.51100000000E-03 0.  1.
    9900012    2    1    2    0    0  0.29525132612E+02 -0.27942798837E+02 -0.15201659736E+02  0.47787263585E+02  0.19999965991E+02 0.  0.
         12    1    1    2    0    0 -0.29525132612E+02  0.27942798837E+02  0.15201659736E+02  0.43400736415E+02  0.00000000000E+00 0. -1.
         11    1    3    3    0    0  0.10006693164E+02 -0.18459073961E+02 -0.10481734049E+02  0.23467809197E+02  0.51100000000E-03 0. -1.
        -11    1    3    3    0    0  0.18538828819E+02 -0.10244580798E+02 -0.64944458960E+01  0.22154399958E+02  0.51100000000E-03 0.  1.
         12    1    3    3    0    0  0.97961062894E+00  0.76085592225E+00  0.17745202085E+01  0.21650544310E+01  0.00000000000E+00 0. -1.
</event>
<event>
 7    1  0.5411321E-010  0.4778727E+02  0.7816164E-02  0.1312668E+00
        -11   -1    0    0    0    0  0.00000000000E+00  0.00000000000E+00  0.45593999997E+02  0.45594000000E+02  0.51100000000E-03 0.  1.
         11   -1    0    0    0    0 -0.00000000000E+00 -0.00000000000E+00 -0.45593999997E+02  0.45594000000E+02  0.51100000000E-03 0. -1.
    9900012    2    1    2    0    0  0.83519431855E+01  0.19813618319E+02  0.37699986032E+02  0.47787269906E+02  0.19999994811E+02 0.  0.
         12    1    1    2    0    0 -0.83519431855E+01 -0.19813618319E+02 -0.37699986032E+02  0.43400730094E+02  0.00000000000E+00 0. -1.
         11    1    3    3    0    0 -0.50399371560E+01  0.96823481044E+01  0.13498561772E+02  0.17359723544E+02  0.51100000000E-03 0. -1.
        -11    1    3    3    0    0  0.92220537834E+01  0.65938202399E+01  0.21550793814E+02  0.24350799896E+02  0.51100000000E-03 0.  1.
        -12    1    3    3    0    0  0.41698265581E+01  0.35374499747E+01  0.26506304458E+01  0.60767464656E+01  0.00000000000E+00 0.  1.
</event>
<event>
 7    1  0.5411321E-010  0.4778727E+02  0.7816164E-02  0.1312668E+00
        -11   -1    0    0    0    0  0.00000000000E+00  0.00000000000E+00  0.45593999997E+02  0.45594000000E+02  0.51100000000E-03 0. -1.
         11   -1    0    0    0    0 -0.00000000000E+00 -0.00000000000E+00 -0.45593999997E+02  0.45594000000E+02  0.51100000000E-03 0.  1.
    9900012    2    1    2    0    0 -0.19661021038E+02  0.38032318517E+02 -0.71140982525E+01  0.47787269661E+02  0.19999993691E+02 0.  0.
         12    1    1    2    0    0  0.19661021038E+02 -0.38032318517E+02  0.71140982525E+01  0.43400730339E+02  0.00000000000E+00 0. -1.
         11    1    3    3    0    0 -0.13916163551E+01  0.54763740128E+01  0.58460642837E+01  0.81304204244E+01  0.51100000000E-03 0. -1.
        -11    1    3    3    0    0 -0.26319722619E+01  0.51972717590E+01 -0.80305716323E+00  0.58808003530E+01  0.51100000000E-03 0.  1.
         12    1    3    3    0    0 -0.15637432421E+02  0.27358672745E+02 -0.12157105373E+02  0.33776048883E+02  0.00000000000E+00 0. -1.
</event>
<event>
 7    1  0.5411321E-010  0.4778727E+02  0.7816164E-02  0.1312668E+00
        -11   -1    0    0    0    0  0.00000000000E+00  0.00000000000E+00  0.45593999997E+02  0.45594000000E+02  0.51100000000E-03 0.  1.
         11   -1    0    0    0    0 -0.00000000000E+00 -0.00000000000E+00 -0.45593999997E+02  0.45594000000E+02  0.51100000000E-03 0. -1.
    9900012    2    1    2    0    0  0.73242009748E+01  0.79946256594E+01  0.42024580667E+02  0.47787270288E+02  0.19999996550E+02 0.  0.
         12    1    1    2    0    0 -0.73242009748E+01 -0.79946256594E+01 -0.42024580667E+02  0.43400729712E+02  0.00000000000E+00 0. -1.
         11    1    3    3    0    0 -0.46208484200E+01  0.62601101200E+01  0.10518734426E+02  0.13083768304E+02  0.51100000000E-03 0.  1.
        -11    1    3    3    0    0  0.11003136574E+02  0.17925500639E+01  0.18054067802E+02  0.21218661943E+02  0.51100000000E-03 0. -1.
        -12    1    3    3    0    0  0.94191282049E+00 -0.58034524477E-01  0.13451778438E+02  0.13484840040E+02  0.00000000000E+00 0.  1.
</event>
<event>
 7    1  0.5411321E-010  0.4778728E+02  0.7816164E-02  0.1312668E+00
        -11   -1    0    0    0    0  0.00000000000E+00  0.00000000000E+00  0.45593999997E+02  0.45594000000E+02  0.51100000000E-03 0. -1.
         11   -1    0    0    0    0 -0.00000000000E+00 -0.00000000000E+00 -0.45593999997E+02  0.45594000000E+02  0.51100000000E-03 0.  1.
    9900012    2    1    2    0    0 -0.67311920700E+01  0.40358642571E+02 -0.14473899939E+02  0.47787277007E+02  0.20000027184E+02 0.  0.
         12    1    1    2    0    0  0.67311920700E+01 -0.40358642571E+02  0.14473899939E+02  0.43400722993E+02  0.00000000000E+00 0. -1.
         11    1    3    3    0    0 -0.37623499458E+01  0.66252217300E+01 -0.85895083128E+01  0.11481659001E+02  0.51100000000E-03 0. -1.
        -11    1    3    3    0    0 -0.49503544090E+01  0.31890877817E+02 -0.30972404146E+01  0.32421088741E+02  0.51100000000E-03 0.  1.
        -12    1    3    3    0    0  0.19815122848E+01  0.18425430245E+01 -0.27871512120E+01  0.38845292650E+01  0.00000000000E+00 0.  1.
</event>
<event>
 7    1  0.5411321E-010  0.4778727E+02  0.7816164E-02  0.1312668E+00
        -11   -1    0    0    0    0  0.00000000000E+00  0.00000000000E+00  0.45593999997E+02  0.45594000000E+02  0.51100000000E-03 0. -1.
         11   -1    0    0    0    0 -0.00000000000E+00 -0.00000000000E+00 -0.45593999997E+02  0.45594000000E+02  0.51100000000E-03 0.  1.
    9900012    2    1    2    0    0  0.20874137761E+02 -0.17193813718E+02 -0.33945050232E+02  0.47787270827E+02  0.19999999011E+02 0.  0.
         12    1    1    2    0    0 -0.20874137761E+02  0.17193813718E+02  0.33945050232E+02  0.43400729173E+02  0.00000000000E+00 0. -1.
         11    1    3    3    0    0  0.51968740226E+01  0.33439547652E+01 -0.47138560257E+01  0.77723852176E+01  0.51100000000E-03 0. -1.
        -11    1    3    3    0    0  0.11244598266E+02 -0.10095653283E+02 -0.11604283317E+02  0.19053151890E+02  0.51100000000E-03 0.  1.
         12    1    3    3    0    0  0.44326654727E+01 -0.10442115200E+02 -0.17626910889E+02  0.20961733720E+02  0.00000000000E+00 0. -1.
</event>
<event>
 7    1  0.5411321E-010  0.4778727E+02  0.7816164E-02  0.1312668E+00
        -11   -1    0    0    0    0  0.00000000000E+00  0.00000000000E+00  0.45593999997E+02  0.45594000000E+02  0.51100000000E-03 0.  1.
         11   -1    0    0    0    0 -0.00000000000E+00 -0.00000000000E+00 -0.45593999997E+02  0.45594000000E+02  0.51100000000E-03 0. -1.
    9900012    2    1    2    0    0  0.33629508459E+02  0.13271758007E+02  0.24011244534E+02  0.47787271160E+02  0.20000000527E+02 0.  0.
         12    1    1    2    0    0 -0.33629508459E+02 -0.13271758007E+02 -0.24011244534E+02  0.43400728840E+02  0.00000000000E+00 0. -1.
         11    1    3    3    0    0  0.25499865560E+02  0.13884709588E+02  0.14594812750E+02  0.32496720810E+02  0.51100000000E-03 0. -1.
        -11    1    3    3    0    0  0.45228199558E+01  0.34670573212E+01  0.77025343717E+01  0.95815146417E+01  0.51100000000E-03 0.  1.
         12    1    3    3    0    0  0.36068229429E+01 -0.40800089018E+01  0.17138974121E+01  0.57090357083E+01  0.00000000000E+00 0. -1.
</event>
<event>
 7    1  0.5411321E-010  0.4778728E+02  0.7816164E-02  0.1312668E+00
        -11   -1    0    0    0    0  0.00000000000E+00  0.00000000000E+00  0.45593999997E+02  0.45594000000E+02  0.51100000000E-03 0. -1.
         11   -1    0    0    0    0 -0.00000000000E+00 -0.00000000000E+00 -0.45593999997E+02  0.45594000000E+02  0.51100000000E-03 0.  1.
    9900012    2    1    2    0    0 -0.35534060654E+02 -0.14318674143E+02 -0.20394335501E+02  0.47787276316E+02  0.20000024035E+02 0.  0.
         12    1    1    2    0    0  0.35534060654E+02  0.14318674143E+02  0.20394335501E+02  0.43400723684E+02  0.00000000000E+00 0. -1.
         11    1    3    3    0    0 -0.11568314277E+01 -0.45731176353E+01  0.16737858628E+01  0.50053194937E+01  0.51100000000E-03 0. -1.
        -11    1    3    3    0    0 -0.25767476754E+02 -0.42525445287E+01 -0.13230102780E+02  0.29275973307E+02  0.51100000000E-03 0.  1.
         12    1    3    3    0    0 -0.86097524725E+01 -0.54930119790E+01 -0.88380185833E+01  0.13505983515E+02  0.00000000000E+00 0. -1.
</event>
<event>
 7    1  0.5411321E-010  0.4778727E+02  0.7816164E-02  0.1312668E+00
        -11   -1    0    0    0    0  0.00000000000E+00  0.00000000000E+00  0.45593999997E+02  0.45594000000E+02  0.51100000000E-03 0. -1.
         11   -1    0    0    0    0 -0.00000000000E+00 -0.00000000000E+00 -0.45593999997E+02  0.45594000000E+02  0.51100000000E-03 0.  1.
    9900012    2    1    2    0    0  0.24818368474E+02  0.72361978517E+01 -0.34861285796E+02  0.47787271660E+02  0.20000002808E+02 0.  0.
         12    1    1    2    0    0 -0.24818368474E+02 -0.72361978517E+01  0.34861285796E+02  0.43400728340E+02  0.00000000000E+00 0. -1.
         11    1    3    3    0    0  0.10107448602E+01  0.11914928757E+01  0.17457065469E+01  0.23428085825E+01  0.51100000000E-03 0. -1.
        -11    1    3    3    0    0  0.16066774210E+02  0.33158765613E+01 -0.32176294417E+02  0.36117173111E+02  0.51100000000E-03 0.  1.
         12    1    3    3    0    0  0.77408494043E+01  0.27288284147E+01 -0.44306979261E+01  0.93272899670E+01  0.00000000000E+00 0. -1.
</event>
<event>
 7    1  0.5411321E-010  0.4778727E+02  0.7816164E-02  0.1312668E+00
        -11   -1    0    0    0    0  0.00000000000E+00  0.00000000000E+00  0.45593999997E+02  0.45594000000E+02  0.51100000000E-03 0.  1.
         11   -1    0    0    0    0 -0.00000000000E+00 -0.00000000000E+00 -0.45593999997E+02  0.45594000000E+02  0.51100000000E-03 0. -1.
    9900012    2    1    2    0    0 -0.41874304190E+01  0.22110559575E+02  0.37110810080E+02  0.47787266791E+02  0.19999980609E+02 0.  0.
         12    1    1    2    0    0  0.41874304190E+01 -0.22110559575E+02 -0.37110810080E+02  0.43400733209E+02  0.00000000000E+00 0. -1.
         11    1    3    3    0    0 -0.52529014419E+00  0.52175611369E+01  0.19950505064E+02  0.20628173126E+02  0.51100000000E-03 0. -1.
        -11    1    3    3    0    0 -0.76598214494E+01  0.14480561348E+02  0.13372559549E+02  0.21146746103E+02  0.51100000000E-03 0.  1.
        -12    1    3    3    0    0  0.39976811746E+01  0.24124370905E+01  0.37877454669E+01  0.60123475624E+01  0.00000000000E+00 0.  1.
</event>
<event>
 7    1  0.5411321E-010  0.4778726E+02  0.7816164E-02  0.1312668E+00
        -11   -1    0    0    0    0  0.00000000000E+00  0.00000000000E+00  0.45593999997E+02  0.45594000000E+02  0.51100000000E-03 0.  1.
         11   -1    0    0    0    0 -0.00000000000E+00 -0.00000000000E+00 -0.45593999997E+02  0.45594000000E+02  0.51100000000E-03 0. -1.
    9900012    2    1    2    0    0 -0.68190925610E+01  0.49871581715E+01  0.42570558696E+02  0.47787259941E+02  0.19999949375E+02 0.  0.
         12    1    1    2    0    0  0.68190925610E+01 -0.49871581715E+01 -0.42570558696E+02  0.43400740059E+02  0.00000000000E+00 0. -1.
         11    1    3    3    0    0 -0.10705804696E+02  0.31111941121E+01  0.15298345042E+02  0.18929689492E+02  0.51100000000E-03 0. -1.
        -11    1    3    3    0    0  0.35390105326E+01 -0.24599963584E+01  0.19304655291E+02  0.19779936648E+02  0.51100000000E-03 0.  1.
         12    1    3    3    0    0  0.34770160286E+00  0.43359604178E+01  0.79675583634E+01  0.90776338009E+01  0.00000000000E+00 0. -1.
</event>
<event>
 7    1  0.5411321E-010  0.4778727E+02  0.7816164E-02  0.1312668E+00
        -11   -1    0    0    0    0  0.00000000000E+00  0.00000000000E+00  0.45593999997E+02  0.45594000000E+02  0.51100000000E-03 0. -1.
         11   -1    0    0    0    0 -0.00000000000E+00 -0.00000000000E+00 -0.45593999997E+02  0.45594000000E+02  0.51100000000E-03 0.  1.
    9900012    2    1    2    0    0  0.32068272826E+02  0.25199200868E+02 -0.14840795406E+02  0.47787273569E+02  0.20000011510E+02 0.  0.
         12    1    1    2    0    0 -0.32068272826E+02 -0.25199200868E+02  0.14840795406E+02  0.43400726431E+02  0.00000000000E+00 0. -1.
         11    1    3    3    0    0  0.10202255262E+02  0.59962926180E+01 -0.13421992087E+02  0.17893893077E+02  0.51100000000E-03 0. -1.
        -11    1    3    3    0    0  0.25110116493E+01  0.41079778165E+01 -0.22923809982E+01  0.53325108670E+01  0.51100000000E-03 0.  1.
         12    1    3    3    0    0  0.19355005916E+02  0.15094930434E+02  0.87357767996E+00  0.24560869625E+02  0.00000000000E+00 0. -1.
</event>
<event>
 7    1  0.5411321E-010  0.4778728E+02  0.7816164E-02  0.1312668E+00
        -11   -1    0    0    0    0  0.00000000000E+00  0.00000000000E+00  0.45593999997E+02  0.45594000000E+02  0.51100000000E-03 0.  1.
         11   -1    0    0    0    0 -0.00000000000E+00 -0.00000000000E+00 -0.45593999997E+02  0.45594000000E+02  0.51100000000E-03 0. -1.
    9900012    2    1    2    0    0  0.20487726227E+02 -0.31554468684E+02 -0.21637729541E+02  0.47787276970E+02  0.20000027016E+02 0.  0.
         12    1    1    2    0    0 -0.20487726227E+02  0.31554468684E+02  0.21637729541E+02  0.43400723030E+02  0.00000000000E+00 0. -1.
         11    1    3    3    0    0  0.13650236827E+02 -0.10453198573E+02 -0.13612338854E+02  0.21929297644E+02  0.51100000000E-03 0. -1.
        -11    1    3    3    0    0  0.69526545427E+01 -0.15243249224E+02 -0.11050188613E+01  0.16790387698E+02  0.51100000000E-03 0.  1.
        -12    1    3    3    0    0 -0.11516514283E+00 -0.58580208862E+01 -0.69203718263E+01  0.90675916277E+01  0.00000000000E+00 0.  1.
</event>
<event>
 7    1  0.5411321E-010  0.4778727E+02  0.7816164E-02  0.1312668E+00
        -11   -1    0    0    0    0  0.00000000000E+00  0.00000000000E+00  0.45593999997E+02  0.45594000000E+02  0.51100000000E-03 0.  1.
         11   -1    0    0    0    0 -0.00000000000E+00 -0.00000000000E+00 -0.45593999997E+02  0.45594000000E+02  0.51100000000E-03 0. -1.
    9900012    2    1    2    0    0  0.18317262008E+02  0.35440262086E+01  0.39185982851E+02  0.47787268886E+02  0.19999990158E+02 0.  0.
         12    1    1    2    0    0 -0.18317262008E+02 -0.35440262086E+01 -0.39185982851E+02  0.43400731114E+02  0.00000000000E+00 0. -1.
         11    1    3    3    0    0  0.20016912941E+01 -0.19299996708E+01 -0.52936039858E+00  0.28305281237E+01  0.51100000000E-03 0. -1.
        -11    1    3    3    0    0  0.14606112789E+02  0.12242620594E+01  0.36575880742E+02  0.39403456710E+02  0.51100000000E-03 0.  1.
        -12    1    3    3    0    0  0.17094579249E+01  0.42497638200E+01  0.31394625076E+01  0.55532840517E+01  0.00000000000E+00 0.  1.
</event>
<event>
 7    1  0.5411321E-010  0.4778728E+02  0.7816164E-02  0.1312668E+00
        -11   -1    0    0    0    0  0.00000000000E+00  0.00000000000E+00  0.45593999997E+02  0.45594000000E+02  0.51100000000E-03 0. -1.
         11   -1    0    0    0    0 -0.00000000000E+00 -0.00000000000E+00 -0.45593999997E+02  0.45594000000E+02  0.51100000000E-03 0.  1.
    9900012    2    1    2    0    0  0.22789102625E+02 -0.35990945548E+02  0.83025037373E+01  0.47787275027E+02  0.20000018156E+02 0.  0.
         12    1    1    2    0    0 -0.22789102625E+02  0.35990945548E+02 -0.83025037373E+01  0.43400724973E+02  0.00000000000E+00 0. -1.
         11    1    3    3    0    0  0.72560241184E+01 -0.69922239372E+01 -0.61721213281E+01  0.11816774668E+02  0.51100000000E-03 0. -1.
        -11    1    3    3    0    0  0.10792115237E+02 -0.20792023277E+02  0.96537768241E+01  0.25337193816E+02  0.51100000000E-03 0.  1.
         12    1    3    3    0    0  0.47409632698E+01 -0.82066983344E+01  0.48208482413E+01  0.10633306543E+02  0.00000000000E+00 0. -1.
</event>
<event>
 7    1  0.5411321E-010  0.4778728E+02  0.7816164E-02  0.1312668E+00
        -11   -1    0    0    0    0  0.00000000000E+00  0.00000000000E+00  0.45593999997E+02  0.45594000000E+02  0.51100000000E-03 0.  1.
         11   -1    0    0    0    0 -0.00000000000E+00 -0.00000000000E+00 -0.45593999997E+02  0.45594000000E+02  0.51100000000E-03 0. -1.
    9900012    2    1    2    0    0  0.23421826116E+01 -0.42140321104E+02 -0.10115809544E+02  0.47787284742E+02  0.20000062453E+02 0.  0.
         12    1    1    2    0    0 -0.23421826116E+01  0.42140321104E+02  0.10115809544E+02  0.43400715258E+02  0.00000000000E+00 0. -1.
         11    1    3    3    0    0 -0.43024753672E+01 -0.78349081365E+01  0.29034825595E+01  0.93982599999E+01  0.51100000000E-03 0. -1.
        -11    1    3    3    0    0  0.48424748737E+01 -0.12129586144E+02 -0.99400561460E+00  0.13098262112E+02  0.51100000000E-03 0.  1.
         12    1    3    3    0    0  0.18021831051E+01 -0.22175826824E+02 -0.12025286489E+02  0.25290762630E+02  0.00000000000E+00 0. -1.
</event>
<event>
 7    1  0.5411321E-010  0.4778727E+02  0.7816164E-02  0.1312668E+00
        -11   -1    0    0    0    0  0.00000000000E+00  0.00000000000E+00  0.45593999997E+02  0.45594000000E+02  0.51100000000E-03 0.  1.
         11   -1    0    0    0    0 -0.00000000000E+00 -0.00000000000E+00 -0.45593999997E+02  0.45594000000E+02  0.51100000000E-03 0. -1.
    9900012    2    1    2    0    0  0.18450011502E+02  0.12979556643E+02  0.37077643424E+02  0.47787268935E+02  0.19999990383E+02 0.  0.
         12    1    1    2    0    0 -0.18450011502E+02 -0.12979556643E+02 -0.37077643424E+02  0.43400731065E+02  0.00000000000E+00 0. -1.
         11    1    3    3    0    0  0.14489099026E+01  0.57702052395E+01  0.48132060065E+01  0.76525525633E+01  0.51100000000E-03 0. -1.
        -11    1    3    3    0    0  0.12116820178E+02  0.10599809387E+02  0.29435563606E+02  0.33550345682E+02  0.51100000000E-03 0.  1.
        -12    1    3    3    0    0  0.48842814219E+01 -0.33904579840E+01  0.28288738113E+01  0.65843706904E+01  0.00000000000E+00 0.  1.
</event>
<event>
 7    1  0.5411321E-010  0.4778727E+02  0.7816164E-02  0.1312668E+00
        -11   -1    0    0    0    0  0.00000000000E+00  0.00000000000E+00  0.45593999997E+02  0.45594000000E+02  0.51100000000E-03 0.  1.
         11   -1    0    0    0    0 -0.00000000000E+00 -0.00000000000E+00 -0.45593999997E+02  0.45594000000E+02  0.51100000000E-03 0. -1.
    9900012    2    1    2    0    0  0.75323664272E+01 -0.39931981820E+02  0.15242153516E+02  0.47787274662E+02  0.20000016495E+02 0.  0.
         12    1    1    2    0    0 -0.75323664272E+01  0.39931981820E+02 -0.15242153516E+02  0.43400725338E+02  0.00000000000E+00 0. -1.
         11    1    3    3    0    0  0.76832730484E+01 -0.73341140403E+01  0.69217130544E+01  0.12678013463E+02  0.51100000000E-03 0. -1.
        -11    1    3    3    0    0  0.36750655838E+00 -0.32874478283E+02  0.91190388848E+01  0.34117785009E+02  0.51100000000E-03 0.  1.
         12    1    3    3    0    0 -0.51841317957E+00  0.27661050402E+00 -0.79859842286E+00  0.99147619068E+00  0.00000000000E+00 0. -1.
</event>
<event>
 7    1  0.5411321E-010  0.4778727E+02  0.7816164E-02  0.1312668E+00
        -11   -1    0    0    0    0  0.00000000000E+00  0.00000000000E+00  0.45593999997E+02  0.45594000000E+02  0.51100000000E-03 0. -1.
         11   -1    0    0    0    0 -0.00000000000E+00 -0.00000000000E+00 -0.45593999997E+02  0.45594000000E+02  0.51100000000E-03 0.  1.
    9900012    2    1    2    0    0  0.18619909870E+02 -0.27187979393E+02 -0.28244225351E+02  0.47787268063E+02  0.19999986406E+02 0.  0.
         12    1    1    2    0    0 -0.18619909870E+02  0.27187979393E+02  0.28244225351E+02  0.43400731937E+02  0.00000000000E+00 0. -1.
         11    1    3    3    0    0 -0.34366924211E+01 -0.76510757605E+01 -0.58398422952E+01  0.10220253098E+02  0.51100000000E-03 0. -1.
        -11    1    3    3    0    0  0.13185577882E+02 -0.14939557606E+02 -0.12642881397E+02  0.23598565545E+02  0.51100000000E-03 0.  1.
         12    1    3    3    0    0  0.88710244091E+01 -0.45973460264E+01 -0.97615016587E+01  0.13968449420E+02  0.00000000000E+00 0. -1.
</event>
<event>
 7    1  0.5411321E-010  0.4778728E+02  0.7816164E-02  0.1312668E+00
        -11   -1    0    0    0    0  0.00000000000E+00  0.00000000000E+00  0.45593999997E+02  0.45594000000E+02  0.51100000000E-03 0.  1.
         11   -1    0    0    0    0 -0.00000000000E+00 -0.00000000000E+00 -0.45593999997E+02  0.45594000000E+02  0.51100000000E-03 0. -1.
    9900012    2    1    2    0    0 -0.16436114880E+02  0.39717915212E+02  0.59969529020E+01  0.47787284508E+02  0.20000061386E+02 0.  0.
         12    1    1    2    0    0  0.16436114880E+02 -0.39717915212E+02 -0.59969529020E+01  0.43400715492E+02  0.00000000000E+00 0. -1.
         11    1    3    3    0    0 -0.16007516139E+02  0.29554777965E+02  0.74846041225E+01  0.34434644947E+02  0.51100000000E-03 0. -1.
        -11    1    3    3    0    0 -0.22355231069E+01  0.10950835303E+02 -0.60545240238E+00  0.11193075103E+02  0.51100000000E-03 0.  1.
         12    1    3    3    0    0  0.18069243661E+01 -0.78769805613E+00 -0.88219881810E+00  0.21595644577E+01  0.00000000000E+00 0. -1.
</event>
<event>
 7    1  0.5411321E-010  0.4778727E+02  0.7816164E-02  0.1312668E+00
        -11   -1    0    0    0    0  0.00000000000E+00  0.00000000000E+00  0.45593999997E+02  0.45594000000E+02  0.51100000000E-03 0.  1.
         11   -1    0    0    0    0 -0.00000000000E+00 -0.00000000000E+00 -0.45593999997E+02  0.45594000000E+02  0.51100000000E-03 0. -1.
    9900012    2    1    2    0    0  0.16585371960E+02  0.21748436379E+02  0.33697987792E+02  0.47787269255E+02  0.19999991840E+02 0.  0.
         12    1    1    2    0    0 -0.16585371960E+02 -0.21748436379E+02 -0.33697987792E+02  0.43400730745E+02  0.00000000000E+00 0. -1.
         11    1    3    3    0    0  0.42226964215E+01  0.75676499976E+01  0.57971928318E+00  0.86854226300E+01  0.51100000000E-03 0. -1.
        -11    1    3    3    0    0  0.36078068651E+01  0.99882300462E+01  0.21360960372E+02  0.23855222450E+02  0.51100000000E-03 0.  1.
         12    1    3    3    0    0  0.87548686737E+01  0.41925563352E+01  0.11757308137E+02  0.15246624175E+02  0.00000000000E+00 0. -1.
</event>
<event>
 7    1  0.5411321E-010  0.4778727E+02  0.7816164E-02  0.1312668E+00
        -11   -1    0    0    0    0  0.00000000000E+00  0.00000000000E+00  0.45593999997E+02  0.45594000000E+02  0.51100000000E-03 0. -1.
         11   -1    0    0    0    0 -0.00000000000E+00 -0.00000000000E+00 -0.45593999997E+02  0.45594000000E+02  0.51100000000E-03 0.  1.
    9900012    2    1    2    0    0  0.17788987575E+02 -0.14414282286E+02 -0.36870090624E+02  0.47787271948E+02  0.20000004121E+02 0.  0.
         12    1    1    2    0    0 -0.17788987575E+02  0.14414282286E+02  0.36870090624E+02  0.43400728052E+02  0.00000000000E+00 0. -1.
         11    1    3    3    0    0  0.16225130822E+01 -0.14129675740E+01  0.10230960208E+01  0.23823836374E+01  0.51100000000E-03 0. -1.
        -11    1    3    3    0    0  0.65429280807E+01 -0.10925074164E+02 -0.30626617374E+02  0.33168612352E+02  0.51100000000E-03 0.  1.
        -12    1    3    3    0    0  0.96235464121E+01 -0.20762405482E+01 -0.72665692714E+01  0.12236275959E+02  0.00000000000E+00 0.  1.
</event>
<event>
 7    1  0.5411321E-010  0.4778727E+02  0.7816164E-02  0.1312668E+00
        -11   -1    0    0    0    0  0.00000000000E+00  0.00000000000E+00  0.45593999997E+02  0.45594000000E+02  0.51100000000E-03 0.  1.
         11   -1    0    0    0    0 -0.00000000000E+00 -0.00000000000E+00 -0.45593999997E+02  0.45594000000E+02  0.51100000000E-03 0. -1.
    9900012    2    1    2    0    0 -0.87919397709E+01 -0.18998747839E+02  0.38018055578E+02  0.47787272192E+02  0.20000005231E+02 0.  0.
         12    1    1    2    0    0  0.87919397709E+01  0.18998747839E+02 -0.38018055578E+02  0.43400727808E+02  0.00000000000E+00 0. -1.
         11    1    3    3    0    0 -0.32265638964E+01  0.13637475160E+01  0.10071622925E+02  0.10663400511E+02  0.51100000000E-03 0. -1.
        -11    1    3    3    0    0 -0.17120912313E+01 -0.18782711594E+02  0.26859115382E+02  0.32819713445E+02  0.51100000000E-03 0.  1.
         12    1    3    3    0    0 -0.38532846432E+01 -0.15797837610E+01  0.10873172705E+01  0.43041582359E+01  0.00000000000E+00 0. -1.
</event>
<event>
 7    1  0.5411321E-010  0.4778727E+02  0.7816164E-02  0.1312668E+00
        -11   -1    0    0    0    0  0.00000000000E+00  0.00000000000E+00  0.45593999997E+02  0.45594000000E+02  0.51100000000E-03 0.  1.
         11   -1    0    0    0    0 -0.00000000000E+00 -0.00000000000E+00 -0.45593999997E+02  0.45594000000E+02  0.51100000000E-03 0. -1.
    9900012    2    1    2    0    0 -0.22673906359E+02 -0.55938347998E+01  0.36581773225E+02  0.47787272476E+02  0.20000006527E+02 0.  0.
         12    1    1    2    0    0  0.22673906359E+02  0.55938347998E+01 -0.36581773225E+02  0.43400727524E+02  0.00000000000E+00 0. -1.
         11    1    3    3    0    0  0.12258259086E+00 -0.29398428329E+01  0.16295457106E+02  0.16558974151E+02  0.51100000000E-03 0. -1.
        -11    1    3    3    0    0 -0.12014703411E+02 -0.39162103421E+01  0.86448153754E+01  0.15310866554E+02  0.51100000000E-03 0.  1.
         12    1    3    3    0    0 -0.10781785539E+02  0.12622183753E+01  0.11641500743E+02  0.15917431771E+02  0.00000000000E+00 0. -1.
</event>
<event>
 7    1  0.5411321E-010  0.4778727E+02  0.7816164E-02  0.1312668E+00
        -11   -1    0    0    0    0  0.00000000000E+00  0.00000000000E+00  0.45593999997E+02  0.45594000000E+02  0.51100000000E-03 0. -1.
         11   -1    0    0    0    0 -0.00000000000E+00 -0.00000000000E+00 -0.45593999997E+02  0.45594000000E+02  0.51100000000E-03 0.  1.
    9900012    2    1    2    0    0  0.13196293159E+02  0.10358194719E+02 -0.40027351353E+02  0.47787271811E+02  0.20000003497E+02 0.  0.
         12    1    1    2    0    0 -0.13196293159E+02 -0.10358194719E+02  0.40027351353E+02  0.43400728189E+02  0.00000000000E+00 0. -1.
         11    1    3    3    0    0  0.36767512581E+01 -0.46496780282E+01 -0.13750171457E+02  0.14973483928E+02  0.51100000000E-03 0. -1.
        -11    1    3    3    0    0  0.44711273170E+01  0.40790335255E+01 -0.15561392088E+02  0.16696898454E+02  0.51100000000E-03 0.  1.
         12    1    3    3    0    0  0.50484145842E+01  0.10928839222E+02 -0.10715787807E+02  0.16116889429E+02  0.00000000000E+00 0. -1.
</event>
<event>
 7    1  0.5411321E-010  0.4778727E+02  0.7816164E-02  0.1312668E+00
        -11   -1    0    0    0    0  0.00000000000E+00  0.00000000000E+00  0.45593999997E+02  0.45594000000E+02  0.51100000000E-03 0.  1.
         11   -1    0    0    0    0 -0.00000000000E+00 -0.00000000000E+00 -0.45593999997E+02  0.45594000000E+02  0.51100000000E-03 0. -1.
    9900012    2    1    2    0    0  0.16622045397E+02  0.36488961091E+02  0.16609839841E+02  0.47787268967E+02  0.19999990528E+02 0.  0.
         12    1    1    2    0    0 -0.16622045397E+02 -0.36488961091E+02 -0.16609839841E+02  0.43400731033E+02  0.00000000000E+00 0. -1.
         11    1    3    3    0    0  0.15318121253E+02  0.23851254204E+02  0.58117687399E+01  0.28936202619E+02  0.51100000000E-03 0. -1.
        -11    1    3    3    0    0 -0.21761414007E+00  0.93970674463E+01  0.11844703492E+02  0.15121151860E+02  0.51100000000E-03 0.  1.
        -12    1    3    3    0    0  0.15215382839E+01  0.32406394401E+01 -0.10466323907E+01  0.37299144885E+01  0.00000000000E+00 0.  1.
</event>
<event>
 7    1  0.5411321E-010  0.4778727E+02  0.7816164E-02  0.1312668E+00
        -11   -1    0    0    0    0  0.00000000000E+00  0.00000000000E+00  0.45593999997E+02  0.45594000000E+02  0.51100000000E-03 0.  1.
         11   -1    0    0    0    0 -0.00000000000E+00 -0.00000000000E+00 -0.45593999997E+02  0.45594000000E+02  0.51100000000E-03 0. -1.
    9900012    2    1    2    0    0 -0.34851393157E+02  0.23245933738E+02 -0.11341525019E+02  0.47787271549E+02  0.20000002300E+02 0.  0.
         12    1    1    2    0    0  0.34851393157E+02 -0.23245933738E+02  0.11341525019E+02  0.43400728451E+02  0.00000000000E+00 0. -1.
         11    1    3    3    0    0 -0.28098153386E+01 -0.13712095224E+01 -0.30992345864E+01  0.44023326855E+01  0.51100000000E-03 0. -1.
        -11    1    3    3    0    0 -0.29986501637E+02  0.17598609188E+02 -0.93101488197E+01  0.35994168932E+02  0.51100000000E-03 0.  1.
         12    1    3    3    0    0 -0.20550761806E+01  0.70185340733E+01  0.10678583869E+01  0.73907699316E+01  0.00000000000E+00 0. -1.
</event>
<event>
 7    1  0.5411321E-010  0.4778727E+02  0.7816164E-02  0.1312668E+00
        -11   -1    0    0    0    0  0.00000000000E+00  0.00000000000E+00  0.45593999997E+02  0.45594000000E+02  0.51100000000E-03 0. -1.
         11   -1    0    0    0    0 -0.00000000000E+00 -0.00000000000E+00 -0.45593999997E+02  0.45594000000E+02  0.51100000000E-03 0.  1.
    9900012    2    1    2    0    0 -0.13775938324E+02  0.34536969439E+02 -0.22384023406E+02  0.47787271451E+02  0.20000001854E+02 0.  0.
         12    1    1    2    0    0  0.13775938324E+02 -0.34536969439E+02  0.22384023406E+02  0.43400728549E+02  0.00000000000E+00 0. -1.
         11    1    3    3    0    0 -0.14387392035E+02  0.25925698368E+02 -0.20913784443E+02  0.36283953277E+02  0.51100000000E-03 0. -1.
        -11    1    3    3    0    0 -0.11651929955E+01  0.82752928749E+01  0.10274496214E+01  0.84198455964E+01  0.51100000000E-03 0.  1.
         12    1    3    3    0    0  0.17766467069E+01  0.33597819615E+00 -0.24976885846E+01  0.30834725773E+01  0.00000000000E+00 0. -1.
</event>
<event>
 7    1  0.5411321E-010  0.4778727E+02  0.7816164E-02  0.1312668E+00
        -11   -1    0    0    0    0  0.00000000000E+00  0.00000000000E+00  0.45593999997E+02  0.45594000000E+02  0.51100000000E-03 0.  1.
         11   -1    0    0    0    0 -0.00000000000E+00 -0.00000000000E+00 -0.45593999997E+02  0.45594000000E+02  0.51100000000E-03 0. -1.
    9900012    2    1    2    0    0  0.41318225979E+02  0.70936272908E+01  0.11229781598E+02  0.47787270272E+02  0.19999996476E+02 0.  0.
         12    1    1    2    0    0 -0.41318225979E+02 -0.70936272908E+01 -0.11229781598E+02  0.43400729728E+02  0.00000000000E+00 0. -1.
         11    1    3    3    0    0  0.23259573956E+02  0.59357368228E+01  0.77998722120E+01  0.25240419153E+02  0.51100000000E-03 0.  1.
        -11    1    3    3    0    0 -0.72752465174E+00  0.16992184086E+01  0.32652775161E+01  0.37521557587E+01  0.51100000000E-03 0. -1.
        -12    1    3    3    0    0  0.18786176675E+02 -0.54132794065E+00  0.16463186990E+00  0.18794695359E+02  0.00000000000E+00 0.  1.
</event>
<event>
 7    1  0.5411321E-010  0.4778727E+02  0.7816164E-02  0.1312668E+00
        -11   -1    0    0    0    0  0.00000000000E+00  0.00000000000E+00  0.45593999997E+02  0.45594000000E+02  0.51100000000E-03 0.  1.
         11   -1    0    0    0    0 -0.00000000000E+00 -0.00000000000E+00 -0.45593999997E+02  0.45594000000E+02  0.51100000000E-03 0. -1.
    9900012    2    1    2    0    0  0.30133044371E+02  0.56205515250E+01  0.30725110704E+02  0.47787269703E+02  0.19999993886E+02 0.  0.
         12    1    1    2    0    0 -0.30133044371E+02 -0.56205515250E+01 -0.30725110704E+02  0.43400730297E+02  0.00000000000E+00 0. -1.
         11    1    3    3    0    0 -0.10856286146E+01 -0.18159448163E+01  0.40530350328E+01  0.45720168747E+01  0.51100000000E-03 0. -1.
        -11    1    3    3    0    0  0.24667443226E+02  0.10397687945E+02  0.21900519627E+02  0.34586520931E+02  0.51100000000E-03 0.  1.
        -12    1    3    3    0    0  0.65512297590E+01 -0.29611916043E+01  0.47715560448E+01  0.86287318976E+01  0.00000000000E+00 0.  1.
</event>
<event>
 7    1  0.5411321E-010  0.4778727E+02  0.7816164E-02  0.1312668E+00
        -11   -1    0    0    0    0  0.00000000000E+00  0.00000000000E+00  0.45593999997E+02  0.45594000000E+02  0.51100000000E-03 0.  1.
         11   -1    0    0    0    0 -0.00000000000E+00 -0.00000000000E+00 -0.45593999997E+02  0.45594000000E+02  0.51100000000E-03 0. -1.
    9900012    2    1    2    0    0  0.34749059438E+02  0.24340904237E+02  0.91458361577E+01  0.47787273394E+02  0.20000010714E+02 0.  0.
         12    1    1    2    0    0 -0.34749059438E+02 -0.24340904237E+02 -0.91458361577E+01  0.43400726606E+02  0.00000000000E+00 0. -1.
         11    1    3    3    0    0  0.96763650052E+01  0.14943452769E+02  0.41359172054E+01  0.18276887912E+02  0.51100000000E-03 0.  1.
        -11    1    3    3    0    0  0.21492956931E+02  0.45965014500E+01  0.72085861428E+01  0.23130904384E+02  0.51100000000E-03 0. -1.
         12    1    3    3    0    0  0.35797375018E+01  0.48009500182E+01 -0.21986671905E+01  0.63794810975E+01  0.00000000000E+00 0. -1.
</event>
<event>
 7    1  0.5411321E-010  0.4778727E+02  0.7816164E-02  0.1312668E+00
        -11   -1    0    0    0    0  0.00000000000E+00  0.00000000000E+00  0.45593999997E+02  0.45594000000E+02  0.51100000000E-03 0. -1.
         11   -1    0    0    0    0 -0.00000000000E+00 -0.00000000000E+00 -0.45593999997E+02  0.45594000000E+02  0.51100000000E-03 0.  1.
    9900012    2    1    2    0    0  0.35814627008E+02  0.18036534037E+02 -0.16601782067E+02  0.47787271486E+02  0.20000002012E+02 0.  0.
         12    1    1    2    0    0 -0.35814627008E+02 -0.18036534037E+02  0.16601782067E+02  0.43400728514E+02  0.00000000000E+00 0. -1.
         11    1    3    3    0    0  0.57494207105E+01 -0.38225581720E+01 -0.14952472849E+01  0.70642447713E+01  0.51100000000E-03 0. -1.
        -11    1    3    3    0    0  0.21901775041E+02  0.17774175577E+02 -0.14114375030E+02  0.31540840987E+02  0.51100000000E-03 0.  1.
         12    1    3    3    0    0  0.81634312558E+01  0.40849166322E+01 -0.99215975188E+00  0.91821857274E+01  0.00000000000E+00 0. -1.
</event>
<event>
 7    1  0.5411321E-010  0.4778727E+02  0.7816164E-02  0.1312668E+00
        -11   -1    0    0    0    0  0.00000000000E+00  0.00000000000E+00  0.45593999997E+02  0.45594000000E+02  0.51100000000E-03 0.  1.
         11   -1    0    0    0    0 -0.00000000000E+00 -0.00000000000E+00 -0.45593999997E+02  0.45594000000E+02  0.51100000000E-03 0. -1.
    9900012    2    1    2    0    0  0.26930682177E+02 -0.19996656055E+01  0.33975917305E+02  0.47787271184E+02  0.20000000638E+02 0.  0.
         12    1    1    2    0    0 -0.26930682177E+02  0.19996656055E+01 -0.33975917305E+02  0.43400728816E+02  0.00000000000E+00 0. -1.
         11    1    3    3    0    0  0.82957806878E+00 -0.25972533289E+01  0.39387762883E+01  0.47903949250E+01  0.51100000000E-03 0. -1.
        -11    1    3    3    0    0  0.11077239351E+02  0.48683209423E+01  0.22736776316E+02  0.25755907632E+02  0.51100000000E-03 0.  1.
        -12    1    3    3    0    0  0.15023864757E+02 -0.42707332188E+01  0.73003647001E+01  0.17240968627E+02  0.00000000000E+00 0.  1.
</event>
<event>
 7    1  0.5411321E-010  0.4778727E+02  0.7816164E-02  0.1312668E+00
        -11   -1    0    0    0    0  0.00000000000E+00  0.00000000000E+00  0.45593999997E+02  0.45594000000E+02  0.51100000000E-03 0.  1.
         11   -1    0    0    0    0 -0.00000000000E+00 -0.00000000000E+00 -0.45593999997E+02  0.45594000000E+02  0.51100000000E-03 0. -1.
    9900012    2    1    2    0    0  0.12423334512E+02 -0.34547273320E+01  0.41440910972E+02  0.47787268629E+02  0.19999988988E+02 0.  0.
         12    1    1    2    0    0 -0.12423334512E+02  0.34547273320E+01 -0.41440910972E+02  0.43400731371E+02  0.00000000000E+00 0. -1.
         11    1    3    3    0    0  0.25011805067E+01  0.16731361496E+01  0.50037247483E+01  0.58388826089E+01  0.51100000000E-03 0. -1.
        -11    1    3    3    0    0  0.86496308438E+00  0.23397680138E+00  0.29110057094E+02  0.29123844708E+02  0.51100000000E-03 0.  1.
        -12    1    3    3    0    0  0.90571909211E+01 -0.53618402830E+01  0.73271291295E+01  0.12824541313E+02  0.00000000000E+00 0.  1.
</event>
<event>
 7    1  0.5411321E-010  0.4778723E+02  0.7816164E-02  0.1312668E+00
        -11   -1    0    0    0    0  0.00000000000E+00  0.00000000000E+00  0.45593999997E+02  0.45594000000E+02  0.51100000000E-03 0. -1.
         11   -1    0    0    0    0 -0.00000000000E+00 -0.00000000000E+00 -0.45593999997E+02  0.45594000000E+02  0.51100000000E-03 0.  1.
    9900012    2    1    2    0    0  0.86770344093E+00  0.43368958782E+02 -0.14168302856E+01  0.47787229233E+02  0.19999809365E+02 0.  0.
         12    1    1    2    0    0 -0.86770344093E+00 -0.43368958782E+02  0.14168302856E+01  0.43400770767E+02  0.00000000000E+00 0. -1.
         11    1    3    3    0    0  0.44449135606E+01  0.17473623884E+01  0.75381027862E+00  0.48351589503E+01  0.51100000000E-03 0. -1.
        -11    1    3    3    0    0 -0.61079792845E+01  0.30296618330E+02  0.10001391393E+01  0.30922366852E+02  0.51100000000E-03 0.  1.
        -12    1    3    3    0    0  0.25307691649E+01  0.11324978064E+02 -0.31707797036E+01  0.12029703431E+02  0.00000000000E+00 0.  1.
</event>
<event>
 7    1  0.5411321E-010  0.4778727E+02  0.7816164E-02  0.1312668E+00
        -11   -1    0    0    0    0  0.00000000000E+00  0.00000000000E+00  0.45593999997E+02  0.45594000000E+02  0.51100000000E-03 0.  1.
         11   -1    0    0    0    0 -0.00000000000E+00 -0.00000000000E+00 -0.45593999997E+02  0.45594000000E+02  0.51100000000E-03 0. -1.
    9900012    2    1    2    0    0  0.40047959044E+02 -0.13201524945E+02  0.10271527197E+02  0.47787267800E+02  0.19999985209E+02 0.  0.
         12    1    1    2    0    0 -0.40047959044E+02  0.13201524945E+02 -0.10271527197E+02  0.43400732200E+02  0.00000000000E+00 0. -1.
         11    1    3    3    0    0  0.25853994308E+01  0.19629596266E+01 -0.19846286486E+00  0.32522128593E+01  0.51100000000E-03 0. -1.
        -11    1    3    3    0    0  0.30693968288E+01 -0.40597647542E+01 -0.30663464788E+01  0.59418320189E+01  0.51100000000E-03 0.  1.
        -12    1    3    3    0    0  0.34393162785E+02 -0.11104719818E+02  0.13536336541E+02  0.38593222922E+02  0.00000000000E+00 0.  1.
</event>
<event>
 7    1  0.5411321E-010  0.4778727E+02  0.7816164E-02  0.1312668E+00
        -11   -1    0    0    0    0  0.00000000000E+00  0.00000000000E+00  0.45593999997E+02  0.45594000000E+02  0.51100000000E-03 0.  1.
         11   -1    0    0    0    0 -0.00000000000E+00 -0.00000000000E+00 -0.45593999997E+02  0.45594000000E+02  0.51100000000E-03 0. -1.
    9900012    2    1    2    0    0 -0.61286919185E+01  0.34315676186E+02  0.25855312606E+02  0.47787266289E+02  0.19999978317E+02 0.  0.
         12    1    1    2    0    0  0.61286919185E+01 -0.34315676186E+02 -0.25855312606E+02  0.43400733711E+02  0.00000000000E+00 0. -1.
         11    1    3    3    0    0 -0.81423937611E+01  0.23798428912E+02  0.26865985162E+02  0.36802784593E+02  0.51100000000E-03 0. -1.
        -11    1    3    3    0    0  0.19016005689E+01  0.68942245571E+01  0.22410295334E+00  0.71551826924E+01  0.51100000000E-03 0.  1.
         12    1    3    3    0    0  0.11210127365E+00  0.36230227162E+01 -0.12347755088E+01  0.38292990031E+01  0.00000000000E+00 0. -1.
</event>
<event>
 7    1  0.5411321E-010  0.4778730E+02  0.7816164E-02  0.1312668E+00
        -11   -1    0    0    0    0  0.00000000000E+00  0.00000000000E+00  0.45593999997E+02  0.45594000000E+02  0.51100000000E-03 0.  1.
         11   -1    0    0    0    0 -0.00000000000E+00 -0.00000000000E+00 -0.45593999997E+02  0.45594000000E+02  0.51100000000E-03 0. -1.
    9900012    2    1    2    0    0 -0.89970091082E+01  0.41390670674E+02 -0.94597392611E+01  0.47787303478E+02  0.20000147876E+02 0.  0.
         12    1    1    2    0    0  0.89970091082E+01 -0.41390670674E+02  0.94597392611E+01  0.43400696522E+02  0.00000000000E+00 0. -1.
         11    1    3    3    0    0  0.28929145094E+01  0.34780884930E+01  0.31156469578E+01  0.54930237711E+01  0.51100000000E-03 0. -1.
        -11    1    3    3    0    0 -0.11813022062E+02  0.38199254330E+02 -0.12727277990E+02  0.41960864230E+02  0.51100000000E-03 0.  1.
        -12    1    3    3    0    0 -0.76901555200E-01 -0.28667214907E+00  0.15189177092E+00  0.33341547702E+00  0.00000000000E+00 0.  1.
</event>
<event>
 7    1  0.5411321E-010  0.4778727E+02  0.7816164E-02  0.1312668E+00
        -11   -1    0    0    0    0  0.00000000000E+00  0.00000000000E+00  0.45593999997E+02  0.45594000000E+02  0.51100000000E-03 0.  1.
         11   -1    0    0    0    0 -0.00000000000E+00 -0.00000000000E+00 -0.45593999997E+02  0.45594000000E+02  0.51100000000E-03 0. -1.
    9900012    2    1    2    0    0  0.39046997436E+02 -0.22668777156E+01 -0.18810016645E+02  0.47787268790E+02  0.19999989721E+02 0.  0.
         12    1    1    2    0    0 -0.39046997436E+02  0.22668777156E+01  0.18810016645E+02  0.43400731210E+02  0.00000000000E+00 0. -1.
         11    1    3    3    0    0  0.12327281679E+02  0.82379593762E+01 -0.77316609531E+01  0.16721376427E+02  0.51100000000E-03 0. -1.
        -11    1    3    3    0    0  0.24625852379E+02 -0.10442744125E+02 -0.11126947784E+02  0.28970544999E+02  0.51100000000E-03 0.  1.
        -12    1    3    3    0    0  0.20938633785E+01 -0.62092966917E-01  0.48592092098E-01  0.20953473640E+01  0.00000000000E+00 0.  1.
</event>
<event>
 7    1  0.5411321E-010  0.4778727E+02  0.7816164E-02  0.1312668E+00
        -11   -1    0    0    0    0  0.00000000000E+00  0.00000000000E+00  0.45593999997E+02  0.45594000000E+02  0.51100000000E-03 0. -1.
         11   -1    0    0    0    0 -0.00000000000E+00 -0.00000000000E+00 -0.45593999997E+02  0.45594000000E+02  0.51100000000E-03 0.  1.
    9900012    2    1    2    0    0 -0.21497218313E+02  0.28920938933E+02 -0.24188267583E+02  0.47787269676E+02  0.19999993763E+02 0.  0.
         12    1    1    2    0    0  0.21497218313E+02 -0.28920938933E+02  0.24188267583E+02  0.43400730324E+02  0.00000000000E+00 0. -1.
         11    1    3    3    0    0 -0.58743836252E+01  0.46832914593E+01 -0.26825293218E+01  0.79773156947E+01  0.51100000000E-03 0.  1.
        -11    1    3    3    0    0 -0.84364413918E+01  0.18599077700E+02 -0.51277160921E+01  0.21056892155E+02  0.51100000000E-03 0. -1.
        -12    1    3    3    0    0 -0.71863932960E+01  0.56385697733E+01 -0.16378022169E+02  0.18753061827E+02  0.00000000000E+00 0.  1.
</event>
<event>
 7    1  0.5411321E-010  0.4778727E+02  0.7816164E-02  0.1312668E+00
        -11   -1    0    0    0    0  0.00000000000E+00  0.00000000000E+00  0.45593999997E+02  0.45594000000E+02  0.51100000000E-03 0.  1.
         11   -1    0    0    0    0 -0.00000000000E+00 -0.00000000000E+00 -0.45593999997E+02  0.45594000000E+02  0.51100000000E-03 0. -1.
    9900012    2    1    2    0    0 -0.32041098886E+01  0.34391190435E+02  0.26279323787E+02  0.47787272375E+02  0.20000006065E+02 0.  0.
         12    1    1    2    0    0  0.32041098886E+01 -0.34391190435E+02 -0.26279323787E+02  0.43400727625E+02  0.00000000000E+00 0. -1.
         11    1    3    3    0    0 -0.11799343218E+01  0.45496129005E+01 -0.76720105152E+00  0.47623334892E+01  0.51100000000E-03 0. -1.
        -11    1    3    3    0    0 -0.81310672294E+01  0.21466872424E+02  0.20417170573E+02  0.30721356097E+02  0.51100000000E-03 0.  1.
        -12    1    3    3    0    0  0.61068916626E+01  0.83747051098E+01  0.66293542657E+01  0.12303582789E+02  0.00000000000E+00 0.  1.
</event>
<event>
 7    1  0.5411321E-010  0.4778727E+02  0.7816164E-02  0.1312668E+00
        -11   -1    0    0    0    0  0.00000000000E+00  0.00000000000E+00  0.45593999997E+02  0.45594000000E+02  0.51100000000E-03 0.  1.
         11   -1    0    0    0    0 -0.00000000000E+00 -0.00000000000E+00 -0.45593999997E+02  0.45594000000E+02  0.51100000000E-03 0. -1.
    9900012    2    1    2    0    0  0.51637388847E+00 -0.39237125003E+02  0.18541963749E+02  0.47787273737E+02  0.20000012277E+02 0.  0.
         12    1    1    2    0    0 -0.51637388847E+00  0.39237125003E+02 -0.18541963749E+02  0.43400726263E+02  0.00000000000E+00 0. -1.
         11    1    3    3    0    0 -0.40534013630E+01 -0.97775097629E+01 -0.17081563970E+01  0.10721359910E+02  0.51100000000E-03 0. -1.
        -11    1    3    3    0    0  0.58239879169E+01 -0.20751023281E+02  0.10638777571E+02  0.24035544324E+02  0.51100000000E-03 0.  1.
         12    1    3    3    0    0 -0.12542126655E+01 -0.87085919587E+01  0.96113425747E+01  0.13030369504E+02  0.00000000000E+00 0. -1.
</event>
<event>
 7    1  0.5411321E-010  0.4778727E+02  0.7816164E-02  0.1312668E+00
        -11   -1    0    0    0    0  0.00000000000E+00  0.00000000000E+00  0.45593999997E+02  0.45594000000E+02  0.51100000000E-03 0.  1.
         11   -1    0    0    0    0 -0.00000000000E+00 -0.00000000000E+00 -0.45593999997E+02  0.45594000000E+02  0.51100000000E-03 0. -1.
    9900012    2    1    2    0    0  0.36329359897E+02  0.19799705077E+02 -0.13106205927E+02  0.47787270220E+02  0.19999996240E+02 0.  0.
         12    1    1    2    0    0 -0.36329359897E+02 -0.19799705077E+02  0.13106205927E+02  0.43400729780E+02  0.00000000000E+00 0. -1.
         11    1    3    3    0    0  0.24986539073E+02  0.13579543115E+02 -0.11126927431E+02  0.30537512020E+02  0.51100000000E-03 0. -1.
        -11    1    3    3    0    0  0.32742096867E+01  0.58479630522E+01  0.34297040968E+01  0.75287443432E+01  0.51100000000E-03 0.  1.
         12    1    3    3    0    0  0.80686111372E+01  0.37219891021E+00 -0.54089825927E+01  0.97210138566E+01  0.00000000000E+00 0. -1.
</event>
<event>
 7    1  0.5411321E-010  0.4778727E+02  0.7816164E-02  0.1312668E+00
        -11   -1    0    0    0    0  0.00000000000E+00  0.00000000000E+00  0.45593999997E+02  0.45594000000E+02  0.51100000000E-03 0.  1.
         11   -1    0    0    0    0 -0.00000000000E+00 -0.00000000000E+00 -0.45593999997E+02  0.45594000000E+02  0.51100000000E-03 0. -1.
    9900012    2    1    2    0    0 -0.43168664130E+02  0.20431062358E+01  0.39894136871E+01  0.47787271118E+02  0.20000000337E+02 0.  0.
         12    1    1    2    0    0  0.43168664130E+02 -0.20431062358E+01 -0.39894136871E+01  0.43400728882E+02  0.00000000000E+00 0. -1.
         11    1    3    3    0    0 -0.73232084078E+01 -0.61407754200E+01  0.45391366223E+01  0.10580277202E+02  0.51100000000E-03 0. -1.
        -11    1    3    3    0    0 -0.24895013180E+02  0.29832170558E+01 -0.28731796660E-01  0.25073134846E+02  0.51100000000E-03 0.  1.
         12    1    3    3    0    0 -0.10950442542E+02  0.52006645999E+01 -0.52099113856E+00  0.12133859070E+02  0.00000000000E+00 0. -1.
</event>
<event>
 7    1  0.5411321E-010  0.4778728E+02  0.7816164E-02  0.1312668E+00
        -11   -1    0    0    0    0  0.00000000000E+00  0.00000000000E+00  0.45593999997E+02  0.45594000000E+02  0.51100000000E-03 0.  1.
         11   -1    0    0    0    0 -0.00000000000E+00 -0.00000000000E+00 -0.45593999997E+02  0.45594000000E+02  0.51100000000E-03 0. -1.
    9900012    2    1    2    0    0 -0.64239798259E+01  0.29157520787E+02  0.31499116633E+02  0.47787275537E+02  0.20000020483E+02 0.  0.
         12    1    1    2    0    0  0.64239798259E+01 -0.29157520787E+02 -0.31499116633E+02  0.43400724463E+02  0.00000000000E+00 0. -1.
         11    1    3    3    0    0  0.92094561968E+00  0.65737876092E+01  0.55333300736E+01  0.86417918472E+01  0.51100000000E-03 0. -1.
        -11    1    3    3    0    0 -0.16026178907E+01  0.13619494251E+02  0.33011945881E+01  0.14105208036E+02  0.51100000000E-03 0.  1.
        -12    1    3    3    0    0 -0.57423075549E+01  0.89642389264E+01  0.22664591972E+02  0.25040275654E+02  0.00000000000E+00 0.  1.
</event>
<event>
 7    1  0.5411321E-010  0.4778727E+02  0.7816164E-02  0.1312668E+00
        -11   -1    0    0    0    0  0.00000000000E+00  0.00000000000E+00  0.45593999997E+02  0.45594000000E+02  0.51100000000E-03 0. -1.
         11   -1    0    0    0    0 -0.00000000000E+00 -0.00000000000E+00 -0.45593999997E+02  0.45594000000E+02  0.51100000000E-03 0.  1.
    9900012    2    1    2    0    0 -0.28350971513E+02 -0.30492272474E+02  0.12250188537E+02  0.47787269758E+02  0.19999994134E+02 0.  0.
         12    1    1    2    0    0  0.28350971513E+02  0.30492272474E+02 -0.12250188537E+02  0.43400730242E+02  0.00000000000E+00 0. -1.
         11    1    3    3    0    0 -0.15691792604E+02 -0.23519941680E+02  0.68867913655E+01  0.29100651322E+02  0.51100000000E-03 0.  1.
        -11    1    3    3    0    0 -0.17671830360E+01 -0.58315489055E+01  0.47352852634E+01  0.77170477067E+01  0.51100000000E-03 0. -1.
         12    1    3    3    0    0 -0.10891995873E+02 -0.11407818879E+01  0.62811190813E+00  0.10969570729E+02  0.00000000000E+00 0. -1.
</event>
<event>
 7    1  0.5411321E-010  0.4778728E+02  0.7816164E-02  0.1312668E+00
        -11   -1    0    0    0    0  0.00000000000E+00  0.00000000000E+00  0.45593999997E+02  0.45594000000E+02  0.51100000000E-03 0. -1.
         11   -1    0    0    0    0 -0.00000000000E+00 -0.00000000000E+00 -0.45593999997E+02  0.45594000000E+02  0.51100000000E-03 0.  1.
    9900012    2    1    2    0    0 -0.73742953265E+01 -0.38468656410E+02 -0.18692382672E+02  0.47787275035E+02  0.20000018194E+02 0.  0.
         12    1    1    2    0    0  0.73742953265E+01  0.38468656410E+02  0.18692382672E+02  0.43400724965E+02  0.00000000000E+00 0. -1.
         11    1    3    3    0    0 -0.17734710190E+01 -0.11754035039E+02 -0.14854432804E+02  0.19025160009E+02  0.51100000000E-03 0. -1.
        -11    1    3    3    0    0  0.17860288386E+00 -0.18157008104E+02 -0.19200145930E+01  0.18259115493E+02  0.51100000000E-03 0.  1.
        -12    1    3    3    0    0 -0.57794271913E+01 -0.85576132672E+01 -0.19179352744E+01  0.10502999534E+02  0.00000000000E+00 0.  1.
</event>
<event>
 7    1  0.5411321E-010  0.4778727E+02  0.7816164E-02  0.1312668E+00
        -11   -1    0    0    0    0  0.00000000000E+00  0.00000000000E+00  0.45593999997E+02  0.45594000000E+02  0.51100000000E-03 0. -1.
         11   -1    0    0    0    0 -0.00000000000E+00 -0.00000000000E+00 -0.45593999997E+02  0.45594000000E+02  0.51100000000E-03 0.  1.
    9900012    2    1    2    0    0  0.26189070375E+02  0.29768440133E+02 -0.17652069742E+02  0.47787274185E+02  0.20000014319E+02 0.  0.
         12    1    1    2    0    0 -0.26189070375E+02 -0.29768440133E+02  0.17652069742E+02  0.43400725815E+02  0.00000000000E+00 0. -1.
         11    1    3    3    0    0  0.88168748923E+01  0.22030891023E+02 -0.10305860807E+02  0.25870991658E+02  0.51100000000E-03 0. -1.
        -11    1    3    3    0    0  0.10552903885E+02  0.53935832712E+01 -0.85393337554E+01  0.14607352332E+02  0.51100000000E-03 0.  1.
         12    1    3    3    0    0  0.68192915981E+01  0.23439658391E+01  0.11931248209E+01  0.73089301949E+01  0.00000000000E+00 0. -1.
</event>
<event>
 7    1  0.5411321E-010  0.4778728E+02  0.7816164E-02  0.1312668E+00
        -11   -1    0    0    0    0  0.00000000000E+00  0.00000000000E+00  0.45593999997E+02  0.45594000000E+02  0.51100000000E-03 0.  1.
         11   -1    0    0    0    0 -0.00000000000E+00 -0.00000000000E+00 -0.45593999997E+02  0.45594000000E+02  0.51100000000E-03 0. -1.
    9900012    2    1    2    0    0 -0.14649903597E+02  0.80844035146E+01  0.40045544434E+02  0.47787275529E+02  0.20000020445E+02 0.  0.
         12    1    1    2    0    0  0.14649903597E+02 -0.80844035146E+01 -0.40045544434E+02  0.43400724471E+02  0.00000000000E+00 0. -1.
         11    1    3    3    0    0 -0.97700179370E+01  0.19291563205E+01  0.52423407821E+01  0.11254200626E+02  0.51100000000E-03 0. -1.
        -11    1    3    3    0    0 -0.39855138431E+01  0.59177297575E+01  0.34882160704E+02  0.35604339366E+02  0.51100000000E-03 0.  1.
        -12    1    3    3    0    0 -0.89437181696E+00  0.23751743660E+00 -0.78957051836E-01  0.92873553593E+00  0.00000000000E+00 0.  1.
</event>
<event>
 7    1  0.5411321E-010  0.4778725E+02  0.7816164E-02  0.1312668E+00
        -11   -1    0    0    0    0  0.00000000000E+00  0.00000000000E+00  0.45593999997E+02  0.45594000000E+02  0.51100000000E-03 0.  1.
         11   -1    0    0    0    0 -0.00000000000E+00 -0.00000000000E+00 -0.45593999997E+02  0.45594000000E+02  0.51100000000E-03 0. -1.
    9900012    2    1    2    0    0 -0.32183648815E+02  0.27779408742E+02  0.87259578299E+01  0.47787249533E+02  0.19999901920E+02 0.  0.
         12    1    1    2    0    0  0.32183648815E+02 -0.27779408742E+02 -0.87259578299E+01  0.43400750467E+02  0.00000000000E+00 0. -1.
         11    1    3    3    0    0 -0.94963262793E-01  0.27238523279E+01  0.19067812339E+01  0.33262898943E+01  0.51100000000E-03 0. -1.
        -11    1    3    3    0    0 -0.23376973323E+02  0.13277722280E+02  0.11268406665E+02  0.29150605135E+02  0.51100000000E-03 0.  1.
        -12    1    3    3    0    0 -0.87117122286E+01  0.11777834134E+02 -0.44492300685E+01  0.15310354504E+02  0.00000000000E+00 0.  1.
</event>
<event>
 7    1  0.5411321E-010  0.4778727E+02  0.7816164E-02  0.1312668E+00
        -11   -1    0    0    0    0  0.00000000000E+00  0.00000000000E+00  0.45593999997E+02  0.45594000000E+02  0.51100000000E-03 0. -1.
         11   -1    0    0    0    0 -0.00000000000E+00 -0.00000000000E+00 -0.45593999997E+02  0.45594000000E+02  0.51100000000E-03 0.  1.
    9900012    2    1    2    0    0 -0.40871925565E+02 -0.60109001015E+01 -0.13303321292E+02  0.47787267555E+02  0.19999984088E+02 0.  0.
         12    1    1    2    0    0  0.40871925565E+02  0.60109001015E+01  0.13303321292E+02  0.43400732445E+02  0.00000000000E+00 0. -1.
         11    1    3    3    0    0 -0.27427987284E+02 -0.70387510203E+01 -0.12177923666E+02  0.30824346343E+02  0.51100000000E-03 0. -1.
        -11    1    3    3    0    0 -0.80913016870E+01 -0.99473374206E+00 -0.54364479042E+01  0.97986542078E+01  0.51100000000E-03 0.  1.
         12    1    3    3    0    0 -0.53526365935E+01  0.20225846609E+01  0.43110502774E+01  0.71642670042E+01  0.00000000000E+00 0. -1.
</event>
<event>
 7    1  0.5411321E-010  0.4778728E+02  0.7816164E-02  0.1312668E+00
        -11   -1    0    0    0    0  0.00000000000E+00  0.00000000000E+00  0.45593999997E+02  0.45594000000E+02  0.51100000000E-03 0.  1.
         11   -1    0    0    0    0 -0.00000000000E+00 -0.00000000000E+00 -0.45593999997E+02  0.45594000000E+02  0.51100000000E-03 0. -1.
    9900012    2    1    2    0    0  0.32028407641E+02 -0.80076028124E+01  0.28172365890E+02  0.47787276519E+02  0.20000024961E+02 0.  0.
         12    1    1    2    0    0 -0.32028407641E+02  0.80076028124E+01 -0.28172365890E+02  0.43400723481E+02  0.00000000000E+00 0. -1.
         11    1    3    3    0    0  0.51945125819E+00 -0.37314796725E+01  0.18343928907E+01  0.41903183285E+01  0.51100000000E-03 0. -1.
        -11    1    3    3    0    0  0.23494792400E+02  0.32832978180E+01  0.18203424126E+02  0.29902340455E+02  0.51100000000E-03 0.  1.
        -12    1    3    3    0    0  0.80141639832E+01 -0.75594209578E+01  0.81345488727E+01  0.13694617736E+02  0.00000000000E+00 0.  1.
</event>
<event>
 7    1  0.5411321E-010  0.4778726E+02  0.7816164E-02  0.1312668E+00
        -11   -1    0    0    0    0  0.00000000000E+00  0.00000000000E+00  0.45593999997E+02  0.45594000000E+02  0.51100000000E-03 0.  1.
         11   -1    0    0    0    0 -0.00000000000E+00 -0.00000000000E+00 -0.45593999997E+02  0.45594000000E+02  0.51100000000E-03 0. -1.
    9900012    2    1    2    0    0 -0.35031566946E+02  0.17934706016E+02  0.18296439842E+02  0.47787261833E+02  0.19999958000E+02 0.  0.
         12    1    1    2    0    0  0.35031566946E+02 -0.17934706016E+02 -0.18296439842E+02  0.43400738167E+02  0.00000000000E+00 0. -1.
         11    1    3    3    0    0  0.10543233706E+01  0.31001423731E+01  0.34246704553E+01  0.47382326338E+01  0.51100000000E-03 0. -1.
        -11    1    3    3    0    0 -0.33486702069E+02  0.15210481890E+02  0.11034169964E+02  0.38398839590E+02  0.51100000000E-03 0.  1.
        -12    1    3    3    0    0 -0.25991882471E+01 -0.37591824708E+00  0.38375994220E+01  0.46501896087E+01  0.00000000000E+00 0.  1.
</event>
<event>
 7    1  0.5411321E-010  0.4778727E+02  0.7816164E-02  0.1312668E+00
        -11   -1    0    0    0    0  0.00000000000E+00  0.00000000000E+00  0.45593999997E+02  0.45594000000E+02  0.51100000000E-03 0. -1.
         11   -1    0    0    0    0 -0.00000000000E+00 -0.00000000000E+00 -0.45593999997E+02  0.45594000000E+02  0.51100000000E-03 0.  1.
    9900012    2    1    2    0    0 -0.20030270566E+02 -0.33012898526E+02  0.19813135047E+02  0.47787268112E+02  0.19999986630E+02 0.  0.
         12    1    1    2    0    0  0.20030270566E+02  0.33012898526E+02 -0.19813135047E+02  0.43400731888E+02  0.00000000000E+00 0. -1.
         11    1    3    3    0    0  0.26448316895E+01  0.35545516319E+00  0.78669415132E+00  0.27821522223E+01  0.51100000000E-03 0. -1.
        -11    1    3    3    0    0 -0.14788620337E+02 -0.16718631254E+02  0.94094429981E+01  0.24222996105E+02  0.51100000000E-03 0.  1.
         12    1    3    3    0    0 -0.78864819184E+01 -0.16649722435E+02  0.96169978974E+01  0.20782119785E+02  0.00000000000E+00 0. -1.
</event>
<event>
 7    1  0.5411321E-010  0.4778728E+02  0.7816164E-02  0.1312668E+00
        -11   -1    0    0    0    0  0.00000000000E+00  0.00000000000E+00  0.45593999997E+02  0.45594000000E+02  0.51100000000E-03 0.  1.
         11   -1    0    0    0    0 -0.00000000000E+00 -0.00000000000E+00 -0.45593999997E+02  0.45594000000E+02  0.51100000000E-03 0. -1.
    9900012    2    1    2    0    0 -0.34515535505E+02 -0.15854689394E+02 -0.20998314452E+02  0.47787279075E+02  0.20000036616E+02 0.  0.
         12    1    1    2    0    0  0.34515535505E+02  0.15854689394E+02  0.20998314452E+02  0.43400720925E+02  0.00000000000E+00 0. -1.
         11    1    3    3    0    0 -0.34954844213E+02 -0.13281199377E+02 -0.23036330537E+02  0.43919288652E+02  0.51100000000E-03 0. -1.
        -11    1    3    3    0    0  0.43063713384E+00 -0.54207134558E+00  0.16641844910E+01  0.18024427774E+01  0.51100000000E-03 0.  1.
         12    1    3    3    0    0  0.86715745608E-02 -0.20314186721E+01  0.37383159394E+00  0.20655476461E+01  0.00000000000E+00 0. -1.
</event>
<event>
 7    1  0.5411321E-010  0.4778727E+02  0.7816164E-02  0.1312668E+00
        -11   -1    0    0    0    0  0.00000000000E+00  0.00000000000E+00  0.45593999997E+02  0.45594000000E+02  0.51100000000E-03 0.  1.
         11   -1    0    0    0    0 -0.00000000000E+00 -0.00000000000E+00 -0.45593999997E+02  0.45594000000E+02  0.51100000000E-03 0. -1.
    9900012    2    1    2    0    0 -0.21642939770E+02  0.19002899854E+02  0.32466848679E+02  0.47787270653E+02  0.19999998215E+02 0.  0.
         12    1    1    2    0    0  0.21642939770E+02 -0.19002899854E+02 -0.32466848679E+02  0.43400729347E+02  0.00000000000E+00 0. -1.
         11    1    3    3    0    0 -0.52122612579E+01 -0.65860550038E+00  0.14486225764E+01  0.54497647890E+01  0.51100000000E-03 0. -1.
        -11    1    3    3    0    0 -0.80981593688E+01  0.16973554284E+02  0.14895077262E+02  0.23990520151E+02  0.51100000000E-03 0.  1.
        -12    1    3    3    0    0 -0.83325191431E+01  0.26879510698E+01  0.16123148840E+02  0.18346985713E+02  0.00000000000E+00 0.  1.
</event>
<event>
 7    1  0.5411321E-010  0.4778727E+02  0.7816164E-02  0.1312668E+00
        -11   -1    0    0    0    0  0.00000000000E+00  0.00000000000E+00  0.45593999997E+02  0.45594000000E+02  0.51100000000E-03 0.  1.
         11   -1    0    0    0    0 -0.00000000000E+00 -0.00000000000E+00 -0.45593999997E+02  0.45594000000E+02  0.51100000000E-03 0. -1.
    9900012    2    1    2    0    0 -0.41922428270E+02 -0.10701091096E+02 -0.34088101008E+01  0.47787270409E+02  0.19999997103E+02 0.  0.
         12    1    1    2    0    0  0.41922428270E+02  0.10701091096E+02  0.34088101008E+01  0.43400729591E+02  0.00000000000E+00 0. -1.
         11    1    3    3    0    0 -0.12301248091E+02 -0.73955119205E+00 -0.88834817404E+01  0.15191572949E+02  0.51100000000E-03 0. -1.
        -11    1    3    3    0    0 -0.78643004542E+01 -0.34761374626E+01  0.48765381040E+01  0.98849065465E+01  0.51100000000E-03 0.  1.
         12    1    3    3    0    0 -0.21756879725E+02 -0.64854024412E+01  0.59813353565E+00  0.22710790914E+02  0.00000000000E+00 0. -1.
</event>
<event>
 7    1  0.5411321E-010  0.4778728E+02  0.7816164E-02  0.1312668E+00
        -11   -1    0    0    0    0  0.00000000000E+00  0.00000000000E+00  0.45593999997E+02  0.45594000000E+02  0.51100000000E-03 0.  1.
         11   -1    0    0    0    0 -0.00000000000E+00 -0.00000000000E+00 -0.45593999997E+02  0.45594000000E+02  0.51100000000E-03 0. -1.
    9900012    2    1    2    0    0  0.14402610456E+02 -0.40842342446E+02 -0.28443951191E+01  0.47787277563E+02  0.20000029721E+02 0.  0.
         12    1    1    2    0    0 -0.14402610456E+02  0.40842342446E+02  0.28443951191E+01  0.43400722437E+02  0.00000000000E+00 0. -1.
         11    1    3    3    0    0  0.14057607201E+02 -0.28235148926E+02  0.12812786007E+01  0.31567097273E+02  0.51100000000E-03 0. -1.
        -11    1    3    3    0    0  0.33247666924E+01 -0.10605376525E+02 -0.51130523187E+00  0.11126073795E+02  0.51100000000E-03 0.  1.
         12    1    3    3    0    0 -0.29797634366E+01 -0.20018169949E+01 -0.36143684879E+01  0.50941064953E+01  0.00000000000E+00 0. -1.
</event>
<event>
 7    1  0.5411321E-010  0.4778727E+02  0.7816164E-02  0.1312668E+00
        -11   -1    0    0    0    0  0.00000000000E+00  0.00000000000E+00  0.45593999997E+02  0.45594000000E+02  0.51100000000E-03 0.  1.
         11   -1    0    0    0    0 -0.00000000000E+00 -0.00000000000E+00 -0.45593999997E+02  0.45594000000E+02  0.51100000000E-03 0. -1.
    9900012    2    1    2    0    0 -0.20841816685E+02  0.37495154984E+02  0.65844938226E+01  0.47787268106E+02  0.19999986604E+02 0.  0.
         12    1    1    2    0    0  0.20841816685E+02 -0.37495154984E+02 -0.65844938226E+01  0.43400731894E+02  0.00000000000E+00 0. -1.
         11    1    3    3    0    0  0.13849633455E+01 -0.51154700089E+00 -0.19143815131E+01  0.24175732960E+01  0.51100000000E-03 0. -1.
        -11    1    3    3    0    0 -0.12873975463E+02  0.17155535329E+02  0.16472580170E+01  0.21511975638E+02  0.51100000000E-03 0.  1.
         12    1    3    3    0    0 -0.93528045676E+01  0.20851166656E+02  0.68516173188E+01  0.23857719172E+02  0.00000000000E+00 0. -1.
</event>
<event>
 7    1  0.5411321E-010  0.4778727E+02  0.7816164E-02  0.1312668E+00
        -11   -1    0    0    0    0  0.00000000000E+00  0.00000000000E+00  0.45593999997E+02  0.45594000000E+02  0.51100000000E-03 0.  1.
         11   -1    0    0    0    0 -0.00000000000E+00 -0.00000000000E+00 -0.45593999997E+02  0.45594000000E+02  0.51100000000E-03 0. -1.
    9900012    2    1    2    0    0 -0.18294289547E+02  0.26601932299E+02  0.29004818453E+02  0.47787270449E+02  0.19999997284E+02 0.  0.
         12    1    1    2    0    0  0.18294289547E+02 -0.26601932299E+02 -0.29004818453E+02  0.43400729551E+02  0.00000000000E+00 0. -1.
         11    1    3    3    0    0 -0.75676334644E+01  0.27986732226E+01  0.14339679373E+02  0.16453815754E+02  0.51100000000E-03 0. -1.
        -11    1    3    3    0    0 -0.61629972807E+01  0.43580508400E+01  0.25224509485E+01  0.79585112712E+01  0.51100000000E-03 0.  1.
         12    1    3    3    0    0 -0.45636588024E+01  0.19445208236E+02  0.12142688131E+02  0.23374943424E+02  0.00000000000E+00 0. -1.
</event>
<event>
 7    1  0.5411321E-010  0.4778727E+02  0.7816164E-02  0.1312668E+00
        -11   -1    0    0    0    0  0.00000000000E+00  0.00000000000E+00  0.45593999997E+02  0.45594000000E+02  0.51100000000E-03 0.  1.
         11   -1    0    0    0    0 -0.00000000000E+00 -0.00000000000E+00 -0.45593999997E+02  0.45594000000E+02  0.51100000000E-03 0. -1.
    9900012    2    1    2    0    0  0.30522300345E+02  0.18183038431E+02  0.24927690853E+02  0.47787268714E+02  0.19999989373E+02 0.  0.
         12    1    1    2    0    0 -0.30522300345E+02 -0.18183038431E+02 -0.24927690853E+02  0.43400731286E+02  0.00000000000E+00 0. -1.
         11    1    3    3    0    0  0.41188164741E+01 -0.62305944285E+00  0.69195799841E+01  0.80767220848E+01  0.51100000000E-03 0. -1.
        -11    1    3    3    0    0  0.90594263774E+01 -0.50727174451E+00  0.72379552560E+01  0.11606831069E+02  0.51100000000E-03 0.  1.
         12    1    3    3    0    0  0.17344057494E+02  0.19313369619E+02  0.10770155613E+02  0.28103715560E+02  0.00000000000E+00 0. -1.
</event>
<event>
 7    1  0.5411321E-010  0.4778727E+02  0.7816164E-02  0.1312668E+00
        -11   -1    0    0    0    0  0.00000000000E+00  0.00000000000E+00  0.45593999997E+02  0.45594000000E+02  0.51100000000E-03 0.  1.
         11   -1    0    0    0    0 -0.00000000000E+00 -0.00000000000E+00 -0.45593999997E+02  0.45594000000E+02  0.51100000000E-03 0. -1.
    9900012    2    1    2    0    0  0.14771712613E+02 -0.30995252715E+02  0.26546458590E+02  0.47787266734E+02  0.19999980347E+02 0.  0.
         12    1    1    2    0    0 -0.14771712613E+02  0.30995252715E+02 -0.26546458590E+02  0.43400733266E+02  0.00000000000E+00 0. -1.
         11    1    3    3    0    0  0.53782322120E+01 -0.18852898206E+01  0.60168792639E+01  0.82874927313E+01  0.51100000000E-03 0. -1.
        -11    1    3    3    0    0  0.12300887371E+02 -0.19100062903E+02  0.17401120535E+02  0.28616834716E+02  0.51100000000E-03 0.  1.
         12    1    3    3    0    0 -0.29074069697E+01 -0.10009899991E+02  0.31284587911E+01  0.10882939287E+02  0.00000000000E+00 0. -1.
</event>
<event>
 7    1  0.5411321E-010  0.4778727E+02  0.7816164E-02  0.1312668E+00
        -11   -1    0    0    0    0  0.00000000000E+00  0.00000000000E+00  0.45593999997E+02  0.45594000000E+02  0.51100000000E-03 0.  1.
         11   -1    0    0    0    0 -0.00000000000E+00 -0.00000000000E+00 -0.45593999997E+02  0.45594000000E+02  0.51100000000E-03 0. -1.
    9900012    2    1    2    0    0 -0.46888194363E+00 -0.12591894714E+01  0.43379926898E+02  0.47787268831E+02  0.19999989906E+02 0.  0.
         12    1    1    2    0    0  0.46888194363E+00  0.12591894714E+01 -0.43379926898E+02  0.43400731169E+02  0.00000000000E+00 0. -1.
         11    1    3    3    0    0 -0.45080550994E+01  0.62476747519E+01  0.10453891174E+02  0.12986140363E+02  0.51100000000E-03 0.  1.
        -11    1    3    3    0    0  0.53218706446E+01 -0.60141029044E+01  0.17555683304E+02  0.19305277969E+02  0.51100000000E-03 0. -1.
        -12    1    3    3    0    0 -0.12826974888E+01 -0.14927613190E+01  0.15370352419E+02  0.15495850499E+02  0.00000000000E+00 0.  1.
</event>
<event>
 7    1  0.5411321E-010  0.4778727E+02  0.7816164E-02  0.1312668E+00
        -11   -1    0    0    0    0  0.00000000000E+00  0.00000000000E+00  0.45593999997E+02  0.45594000000E+02  0.51100000000E-03 0. -1.
         11   -1    0    0    0    0 -0.00000000000E+00 -0.00000000000E+00 -0.45593999997E+02  0.45594000000E+02  0.51100000000E-03 0.  1.
    9900012    2    1    2    0    0  0.25442017465E+02 -0.12457225010E+02 -0.32880760925E+02  0.47787272510E+02  0.20000006683E+02 0.  0.
         12    1    1    2    0    0 -0.25442017465E+02  0.12457225010E+02  0.32880760925E+02  0.43400727490E+02  0.00000000000E+00 0. -1.
         11    1    3    3    0    0  0.55683782141E+01 -0.98638578980E+01 -0.13148683593E+02  0.17354838203E+02  0.51100000000E-03 0.  1.
        -11    1    3    3    0    0  0.14546079743E+02  0.89361572069E+00 -0.69362896647E+01  0.16139984496E+02  0.51100000000E-03 0. -1.
        -12    1    3    3    0    0  0.53275595079E+01 -0.34869828324E+01 -0.12795787667E+02  0.14292449811E+02  0.00000000000E+00 0.  1.
</event>
<event>
 7    1  0.5411321E-010  0.4778727E+02  0.7816164E-02  0.1312668E+00
        -11   -1    0    0    0    0  0.00000000000E+00  0.00000000000E+00  0.45593999997E+02  0.45594000000E+02  0.51100000000E-03 0.  1.
         11   -1    0    0    0    0 -0.00000000000E+00 -0.00000000000E+00 -0.45593999997E+02  0.45594000000E+02  0.51100000000E-03 0. -1.
    9900012    2    1    2    0    0  0.42594681114E+02  0.58363496611E+01 -0.59374648203E+01  0.47787270454E+02  0.19999997309E+02 0.  0.
         12    1    1    2    0    0 -0.42594681114E+02 -0.58363496611E+01  0.59374648203E+01  0.43400729546E+02  0.00000000000E+00 0. -1.
         11    1    3    3    0    0  0.23245026783E+02 -0.20172755930E+00 -0.93444666359E+01  0.25053762614E+02  0.51100000000E-03 0. -1.
        -11    1    3    3    0    0  0.11735757816E+02 -0.11944890413E+01  0.37206703877E+00  0.11802256129E+02  0.51100000000E-03 0.  1.
         12    1    3    3    0    0  0.76138965155E+01  0.72325662618E+01  0.30349347768E+01  0.10931251711E+02  0.00000000000E+00 0. -1.
</event>
<event>
 7    1  0.5411321E-010  0.4778728E+02  0.7816164E-02  0.1312668E+00
        -11   -1    0    0    0    0  0.00000000000E+00  0.00000000000E+00  0.45593999997E+02  0.45594000000E+02  0.51100000000E-03 0.  1.
         11   -1    0    0    0    0 -0.00000000000E+00 -0.00000000000E+00 -0.45593999997E+02  0.45594000000E+02  0.51100000000E-03 0. -1.
    9900012    2    1    2    0    0 -0.11314982511E+02  0.17760321640E+02  0.37949506013E+02  0.47787275805E+02  0.20000021707E+02 0.  0.
         12    1    1    2    0    0  0.11314982511E+02 -0.17760321640E+02 -0.37949506013E+02  0.43400724195E+02  0.00000000000E+00 0. -1.
         11    1    3    3    0    0  0.80252010274E-01  0.12894347289E+02  0.83362522335E+01  0.15354599765E+02  0.51100000000E-03 0. -1.
        -11    1    3    3    0    0 -0.10249812377E+02  0.33690630469E+01  0.20930810035E+02  0.23547994576E+02  0.51100000000E-03 0.  1.
         12    1    3    3    0    0 -0.11454221442E+01  0.14969113046E+01  0.86824437441E+01  0.88846814637E+01  0.00000000000E+00 0. -1.
</event>
<event>
 7    1  0.5411321E-010  0.4778727E+02  0.7816164E-02  0.1312668E+00
        -11   -1    0    0    0    0  0.00000000000E+00  0.00000000000E+00  0.45593999997E+02  0.45594000000E+02  0.51100000000E-03 0.  1.
         11   -1    0    0    0    0 -0.00000000000E+00 -0.00000000000E+00 -0.45593999997E+02  0.45594000000E+02  0.51100000000E-03 0. -1.
    9900012    2    1    2    0    0 -0.33947036479E+02  0.25048543347E+02  0.10187856040E+02  0.47787271663E+02  0.20000002820E+02 0.  0.
         12    1    1    2    0    0  0.33947036479E+02 -0.25048543347E+02 -0.10187856040E+02  0.43400728337E+02  0.00000000000E+00 0. -1.
         11    1    3    3    0    0 -0.63635594811E+01 -0.19249053433E+01 -0.25957861352E+01  0.71371041586E+01  0.51100000000E-03 0. -1.
        -11    1    3    3    0    0 -0.16809200138E+02  0.16622982458E+02  0.82046078120E+01  0.25023755607E+02  0.51100000000E-03 0.  1.
         12    1    3    3    0    0 -0.10774276860E+02  0.10350466232E+02  0.45790343633E+01  0.15626411898E+02  0.00000000000E+00 0. -1.
</event>
<event>
 7    1  0.5411321E-010  0.4778727E+02  0.7816164E-02  0.1312668E+00
        -11   -1    0    0    0    0  0.00000000000E+00  0.00000000000E+00  0.45593999997E+02  0.45594000000E+02  0.51100000000E-03 0.  1.
         11   -1    0    0    0    0 -0.00000000000E+00 -0.00000000000E+00 -0.45593999997E+02  0.45594000000E+02  0.51100000000E-03 0. -1.
    9900012    2    1    2    0    0  0.15465017402E+02 -0.55268689015E+01  0.40173502536E+02  0.47787270177E+02  0.19999996046E+02 0.  0.
         12    1    1    2    0    0 -0.15465017402E+02  0.55268689015E+01 -0.40173502536E+02  0.43400729823E+02  0.00000000000E+00 0. -1.
         11    1    3    3    0    0  0.14369916172E+02 -0.20121048918E+01  0.12900802807E+02  0.19415812375E+02  0.51100000000E-03 0. -1.
        -11    1    3    3    0    0  0.19049798521E+01 -0.40754593163E+01  0.26967601642E+02  0.27340260706E+02  0.51100000000E-03 0.  1.
        -12    1    3    3    0    0 -0.80987862118E+00  0.56069530659E+00  0.30509808775E+00  0.10311970961E+01  0.00000000000E+00 0.  1.
</event>
<event>
 7    1  0.5411321E-010  0.4778727E+02  0.7816164E-02  0.1312668E+00
        -11   -1    0    0    0    0  0.00000000000E+00  0.00000000000E+00  0.45593999997E+02  0.45594000000E+02  0.51100000000E-03 0.  1.
         11   -1    0    0    0    0 -0.00000000000E+00 -0.00000000000E+00 -0.45593999997E+02  0.45594000000E+02  0.51100000000E-03 0. -1.
    9900012    2    1    2    0    0  0.39127165983E+02  0.74899961602E+01  0.17221735071E+02  0.47787270523E+02  0.19999997622E+02 0.  0.
         12    1    1    2    0    0 -0.39127165983E+02 -0.74899961602E+01 -0.17221735071E+02  0.43400729477E+02  0.00000000000E+00 0. -1.
         11    1    3    3    0    0  0.18425352898E+02  0.74605131361E+01  0.14203686209E+02  0.24431487631E+02  0.51100000000E-03 0. -1.
        -11    1    3    3    0    0  0.19050765842E+02 -0.31853990494E+01  0.37304443539E+01  0.19672179889E+02  0.51100000000E-03 0.  1.
         12    1    3    3    0    0  0.16510472429E+01  0.32148820734E+01 -0.71239549214E+00  0.36836030027E+01  0.00000000000E+00 0. -1.
</event>
<event>
 7    1  0.5411321E-010  0.4778727E+02  0.7816164E-02  0.1312668E+00
        -11   -1    0    0    0    0  0.00000000000E+00  0.00000000000E+00  0.45593999997E+02  0.45594000000E+02  0.51100000000E-03 0. -1.
         11   -1    0    0    0    0 -0.00000000000E+00 -0.00000000000E+00 -0.45593999997E+02  0.45594000000E+02  0.51100000000E-03 0.  1.
    9900012    2    1    2    0    0  0.74787878617E+01  0.36442803800E+02  0.22352026000E+02  0.47787270939E+02  0.19999999521E+02 0.  0.
         12    1    1    2    0    0 -0.74787878617E+01 -0.36442803800E+02 -0.22352026000E+02  0.43400729061E+02  0.00000000000E+00 0. -1.
         11    1    3    3    0    0  0.47433662971E+01  0.20178571592E+02  0.20639120229E+02  0.29251453970E+02  0.51100000000E-03 0. -1.
        -11    1    3    3    0    0 -0.22954377585E+01  0.10719455734E+02  0.76516765450E+00  0.10989142256E+02  0.51100000000E-03 0.  1.
         12    1    3    3    0    0  0.50308593230E+01  0.55447764745E+01  0.94773811707E+00  0.75466747127E+01  0.00000000000E+00 0. -1.
</event>
<event>
 7    1  0.5411321E-010  0.4778727E+02  0.7816164E-02  0.1312668E+00
        -11   -1    0    0    0    0  0.00000000000E+00  0.00000000000E+00  0.45593999997E+02  0.45594000000E+02  0.51100000000E-03 0.  1.
         11   -1    0    0    0    0 -0.00000000000E+00 -0.00000000000E+00 -0.45593999997E+02  0.45594000000E+02  0.51100000000E-03 0. -1.
    9900012    2    1    2    0    0 -0.50532834529E+01  0.53287368463E+01  0.42774900038E+02  0.47787272088E+02  0.20000004757E+02 0.  0.
         12    1    1    2    0    0  0.50532834529E+01 -0.53287368463E+01 -0.42774900038E+02  0.43400727912E+02  0.00000000000E+00 0. -1.
         11    1    3    3    0    0 -0.56051601285E+01 -0.30642030538E+01  0.60463174312E+01  0.87957441505E+01  0.51100000000E-03 0. -1.
        -11    1    3    3    0    0  0.44439987097E+01  0.74121842093E+01  0.19985608673E+02  0.21774162523E+02  0.51100000000E-03 0.  1.
        -12    1    3    3    0    0 -0.38921220341E+01  0.98075569080E+00  0.16742973934E+02  0.17217365414E+02  0.00000000000E+00 0.  1.
</event>
<event>
 7    1  0.5411321E-010  0.4778727E+02  0.7816164E-02  0.1312668E+00
        -11   -1    0    0    0    0  0.00000000000E+00  0.00000000000E+00  0.45593999997E+02  0.45594000000E+02  0.51100000000E-03 0.  1.
         11   -1    0    0    0    0 -0.00000000000E+00 -0.00000000000E+00 -0.45593999997E+02  0.45594000000E+02  0.51100000000E-03 0. -1.
    9900012    2    1    2    0    0 -0.71227525633E+01 -0.11347573170E+02  0.41281020384E+02  0.47787266540E+02  0.19999979461E+02 0.  0.
         12    1    1    2    0    0  0.71227525633E+01  0.11347573170E+02 -0.41281020384E+02  0.43400733460E+02  0.00000000000E+00 0. -1.
         11    1    3    3    0    0 -0.65014319488E+01  0.23168531523E+01  0.52743833138E+01  0.86865151538E+01  0.51100000000E-03 0. -1.
        -11    1    3    3    0    0 -0.25864369337E+01 -0.10333455401E+02  0.30968917531E+02  0.32749714653E+02  0.51100000000E-03 0.  1.
         12    1    3    3    0    0  0.19651163192E+01 -0.33309709216E+01  0.50377195392E+01  0.63510367331E+01  0.00000000000E+00 0. -1.
</event>
<event>
 7    1  0.5411321E-010  0.4778727E+02  0.7816164E-02  0.1312668E+00
        -11   -1    0    0    0    0  0.00000000000E+00  0.00000000000E+00  0.45593999997E+02  0.45594000000E+02  0.51100000000E-03 0. -1.
         11   -1    0    0    0    0 -0.00000000000E+00 -0.00000000000E+00 -0.45593999997E+02  0.45594000000E+02  0.51100000000E-03 0.  1.
    9900012    2    1    2    0    0  0.35187770984E+02  0.20446468804E+02 -0.15079317450E+02  0.47787272723E+02  0.20000007655E+02 0.  0.
         12    1    1    2    0    0 -0.35187770984E+02 -0.20446468804E+02  0.15079317450E+02  0.43400727277E+02  0.00000000000E+00 0. -1.
         11    1    3    3    0    0  0.11689629019E+02  0.24146024666E+01 -0.12403818385E+02  0.17214309236E+02  0.51100000000E-03 0. -1.
        -11    1    3    3    0    0  0.97908434301E+01  0.37165790339E+01 -0.24350299818E+01  0.10751881048E+02  0.51100000000E-03 0.  1.
         12    1    3    3    0    0  0.13707298535E+02  0.14315287304E+02 -0.24046908335E+00  0.19821082440E+02  0.00000000000E+00 0. -1.
</event>
<event>
 7    1  0.5411321E-010  0.4778727E+02  0.7816164E-02  0.1312668E+00
        -11   -1    0    0    0    0  0.00000000000E+00  0.00000000000E+00  0.45593999997E+02  0.45594000000E+02  0.51100000000E-03 0.  1.
         11   -1    0    0    0    0 -0.00000000000E+00 -0.00000000000E+00 -0.45593999997E+02  0.45594000000E+02  0.51100000000E-03 0. -1.
    9900012    2    1    2    0    0 -0.10596190392E+01  0.39114572832E+02  0.18776331914E+02  0.47787271429E+02  0.20000001752E+02 0.  0.
         12    1    1    2    0    0  0.10596190392E+01 -0.39114572832E+02 -0.18776331914E+02  0.43400728571E+02  0.00000000000E+00 0. -1.
         11    1    3    3    0    0  0.27520087865E+01  0.37933744925E+01 -0.15092562342E+01  0.49235248596E+01  0.51100000000E-03 0. -1.
        -11    1    3    3    0    0 -0.63997652521E+01  0.34432420038E+02  0.18899899841E+02  0.39796416412E+02  0.51100000000E-03 0.  1.
        -12    1    3    3    0    0  0.25881374265E+01  0.88877830147E+00  0.13856883072E+01  0.30673301570E+01  0.00000000000E+00 0.  1.
</event>
<event>
 7    1  0.5411321E-010  0.4778727E+02  0.7816164E-02  0.1312668E+00
        -11   -1    0    0    0    0  0.00000000000E+00  0.00000000000E+00  0.45593999997E+02  0.45594000000E+02  0.51100000000E-03 0.  1.
         11   -1    0    0    0    0 -0.00000000000E+00 -0.00000000000E+00 -0.45593999997E+02  0.45594000000E+02  0.51100000000E-03 0. -1.
    9900012    2    1    2    0    0  0.59169118620E+01  0.23854825738E+02  0.35770943914E+02  0.47787274367E+02  0.20000015149E+02 0.  0.
         12    1    1    2    0    0 -0.59169118620E+01 -0.23854825738E+02 -0.35770943914E+02  0.43400725633E+02  0.00000000000E+00 0. -1.
         11    1    3    3    0    0 -0.48162798450E+01  0.10881040509E+02  0.17358538703E+02  0.21045485509E+02  0.51100000000E-03 0.  1.
        -11    1    3    3    0    0  0.66309181952E+01  0.24619408955E+01  0.31046839329E+01  0.77245900648E+01  0.51100000000E-03 0. -1.
        -12    1    3    3    0    0  0.41022735117E+01  0.10511844333E+02  0.15307721278E+02  0.19017198794E+02  0.00000000000E+00 0.  1.
</event>
<event>
 7    1  0.5411321E-010  0.4778727E+02  0.7816164E-02  0.1312668E+00
        -11   -1    0    0    0    0  0.00000000000E+00  0.00000000000E+00  0.45593999997E+02  0.45594000000E+02  0.51100000000E-03 0.  1.
         11   -1    0    0    0    0 -0.00000000000E+00 -0.00000000000E+00 -0.45593999997E+02  0.45594000000E+02  0.51100000000E-03 0. -1.
    9900012    2    1    2    0    0  0.12686959565E+02 -0.36030188316E+02  0.20603150147E+02  0.47787271791E+02  0.20000003405E+02 0.  0.
         12    1    1    2    0    0 -0.12686959565E+02  0.36030188316E+02 -0.20603150147E+02  0.43400728209E+02  0.00000000000E+00 0. -1.
         11    1    3    3    0    0  0.79429346121E+00 -0.10921418993E+02  0.20706631088E+01  0.11144323259E+02  0.51100000000E-03 0. -1.
        -11    1    3    3    0    0  0.60601553766E+01 -0.23533755482E+02  0.10210816016E+02  0.26359512406E+02  0.51100000000E-03 0.  1.
        -12    1    3    3    0    0  0.58325107271E+01 -0.15750138405E+01  0.83216710219E+01  0.10283436127E+02  0.00000000000E+00 0.  1.
</event>
<event>
 7    1  0.5411321E-010  0.4778727E+02  0.7816164E-02  0.1312668E+00
        -11   -1    0    0    0    0  0.00000000000E+00  0.00000000000E+00  0.45593999997E+02  0.45594000000E+02  0.51100000000E-03 0. -1.
         11   -1    0    0    0    0 -0.00000000000E+00 -0.00000000000E+00 -0.45593999997E+02  0.45594000000E+02  0.51100000000E-03 0.  1.
    9900012    2    1    2    0    0 -0.68877136501E+01 -0.37170738823E+02 -0.21319446768E+02  0.47787271499E+02  0.20000002070E+02 0.  0.
         12    1    1    2    0    0  0.68877136501E+01  0.37170738823E+02  0.21319446768E+02  0.43400728501E+02  0.00000000000E+00 0. -1.
         11    1    3    3    0    0  0.52466973810E+01 -0.13975444934E+02 -0.53923346899E+01  0.15871930197E+02  0.51100000000E-03 0. -1.
        -11    1    3    3    0    0  0.79948103254E+00 -0.59261110341E+01 -0.23606439945E+01  0.64288881029E+01  0.51100000000E-03 0.  1.
         12    1    3    3    0    0 -0.12933892064E+02 -0.17269182855E+02 -0.13566468083E+02  0.25486453199E+02  0.00000000000E+00 0. -1.
</event>
<event>
 7    1  0.5411321E-010  0.4778727E+02  0.7816164E-02  0.1312668E+00
        -11   -1    0    0    0    0  0.00000000000E+00  0.00000000000E+00  0.45593999997E+02  0.45594000000E+02  0.51100000000E-03 0.  1.
         11   -1    0    0    0    0 -0.00000000000E+00 -0.00000000000E+00 -0.45593999997E+02  0.45594000000E+02  0.51100000000E-03 0. -1.
    9900012    2    1    2    0    0 -0.40464985751E+02 -0.15396142207E+02  0.30277302138E+01  0.47787269396E+02  0.19999992486E+02 0.  0.
         12    1    1    2    0    0  0.40464985751E+02  0.15396142207E+02 -0.30277302138E+01  0.43400730604E+02  0.00000000000E+00 0. -1.
         11    1    3    3    0    0 -0.10153268708E+02 -0.65366054239E+01 -0.53251948554E+01  0.13197491293E+02  0.51100000000E-03 0. -1.
        -11    1    3    3    0    0 -0.20285365995E+02 -0.11238167467E+02  0.47376204310E+01  0.23669337320E+02  0.51100000000E-03 0.  1.
         12    1    3    3    0    0 -0.10026351049E+02  0.23786306840E+01  0.36153046382E+01  0.10920440784E+02  0.00000000000E+00 0. -1.
</event>
<event>
 7    1  0.5411321E-010  0.4778727E+02  0.7816164E-02  0.1312668E+00
        -11   -1    0    0    0    0  0.00000000000E+00  0.00000000000E+00  0.45593999997E+02  0.45594000000E+02  0.51100000000E-03 0. -1.
         11   -1    0    0    0    0 -0.00000000000E+00 -0.00000000000E+00 -0.45593999997E+02  0.45594000000E+02  0.51100000000E-03 0.  1.
    9900012    2    1    2    0    0 -0.24319665866E+02 -0.34969017337E+02  0.83273544383E+01  0.47787272434E+02  0.20000006335E+02 0.  0.
         12    1    1    2    0    0  0.24319665866E+02  0.34969017337E+02 -0.83273544383E+01  0.43400727566E+02  0.00000000000E+00 0. -1.
         11    1    3    3    0    0 -0.25018418827E+01 -0.13010261157E+02  0.70142061657E+01  0.14990837087E+02  0.51100000000E-03 0. -1.
        -11    1    3    3    0    0 -0.10174576148E+02 -0.44404798271E+01 -0.25979909213E+01  0.11401290189E+02  0.51100000000E-03 0.  1.
        -12    1    3    3    0    0 -0.11643247836E+02 -0.17518276353E+02  0.39111391939E+01  0.21395145158E+02  0.00000000000E+00 0.  1.
</event>
<event>
 7    1  0.5411321E-010  0.4778727E+02  0.7816164E-02  0.1312668E+00
        -11   -1    0    0    0    0  0.00000000000E+00  0.00000000000E+00  0.45593999997E+02  0.45594000000E+02  0.51100000000E-03 0.  1.
         11   -1    0    0    0    0 -0.00000000000E+00 -0.00000000000E+00 -0.45593999997E+02  0.45594000000E+02  0.51100000000E-03 0. -1.
    9900012    2    1    2    0    0  0.21684422402E+02 -0.26024706414E+02  0.27131599358E+02  0.47787271866E+02  0.20000003746E+02 0.  0.
         12    1    1    2    0    0 -0.21684422402E+02  0.26024706414E+02 -0.27131599358E+02  0.43400728134E+02  0.00000000000E+00 0. -1.
         11    1    3    3    0    0  0.34664539397E-01  0.96551216850E+00  0.22471060967E+01  0.24459970255E+01  0.51100000000E-03 0. -1.
        -11    1    3    3    0    0  0.10996000893E+02 -0.15307805584E+02  0.22500833570E+02  0.29351805039E+02  0.51100000000E-03 0.  1.
        -12    1    3    3    0    0  0.10653756969E+02 -0.11682412998E+02  0.23836596917E+01  0.15989469802E+02  0.00000000000E+00 0.  1.
</event>
<event>
 7    1  0.5411321E-010  0.4778727E+02  0.7816164E-02  0.1312668E+00
        -11   -1    0    0    0    0  0.00000000000E+00  0.00000000000E+00  0.45593999997E+02  0.45594000000E+02  0.51100000000E-03 0. -1.
         11   -1    0    0    0    0 -0.00000000000E+00 -0.00000000000E+00 -0.45593999997E+02  0.45594000000E+02  0.51100000000E-03 0.  1.
    9900012    2    1    2    0    0  0.38274637883E+02 -0.12501799352E+01 -0.20423327655E+02  0.47787272271E+02  0.20000005592E+02 0.  0.
         12    1    1    2    0    0 -0.38274637883E+02  0.12501799352E+01  0.20423327655E+02  0.43400727729E+02  0.00000000000E+00 0. -1.
         11    1    3    3    0    0  0.81589426756E+01 -0.16869031176E+01  0.23530939138E+01  0.86574268082E+01  0.51100000000E-03 0. -1.
        -11    1    3    3    0    0  0.11025822473E+02  0.16365518563E+01 -0.14498058465E+02  0.18287721638E+02  0.51100000000E-03 0.  1.
         12    1    3    3    0    0  0.19089872734E+02 -0.11998286739E+01 -0.82783631034E+01  0.20842123825E+02  0.00000000000E+00 0. -1.
</event>
<event>
 7    1  0.5411321E-010  0.4778728E+02  0.7816164E-02  0.1312668E+00
        -11   -1    0    0    0    0  0.00000000000E+00  0.00000000000E+00  0.45593999997E+02  0.45594000000E+02  0.51100000000E-03 0.  1.
         11   -1    0    0    0    0 -0.00000000000E+00 -0.00000000000E+00 -0.45593999997E+02  0.45594000000E+02  0.51100000000E-03 0. -1.
    9900012    2    1    2    0    0 -0.22476270618E+02 -0.29200609276E+02  0.22929553863E+02  0.47787276927E+02  0.20000026819E+02 0.  0.
         12    1    1    2    0    0  0.22476270618E+02  0.29200609276E+02 -0.22929553863E+02  0.43400723073E+02  0.00000000000E+00 0. -1.
         11    1    3    3    0    0 -0.24826848769E+01  0.16668406266E+00  0.79186902893E-01  0.24895338121E+01  0.51100000000E-03 0. -1.
        -11    1    3    3    0    0 -0.20345561611E+02 -0.22042645519E+02  0.12235972671E+02  0.32396591274E+02  0.51100000000E-03 0.  1.
        -12    1    3    3    0    0  0.35197586917E+00 -0.73246478188E+01  0.10614394289E+02  0.12901151840E+02  0.00000000000E+00 0.  1.
</event>
<event>
 7    1  0.5411321E-010  0.4778727E+02  0.7816164E-02  0.1312668E+00
        -11   -1    0    0    0    0  0.00000000000E+00  0.00000000000E+00  0.45593999997E+02  0.45594000000E+02  0.51100000000E-03 0.  1.
         11   -1    0    0    0    0 -0.00000000000E+00 -0.00000000000E+00 -0.45593999997E+02  0.45594000000E+02  0.51100000000E-03 0. -1.
    9900012    2    1    2    0    0  0.38717855560E+02 -0.16044793231E+02  0.11274551607E+02  0.47787271401E+02  0.20000001626E+02 0.  0.
         12    1    1    2    0    0 -0.38717855560E+02  0.16044793231E+02 -0.11274551607E+02  0.43400728599E+02  0.00000000000E+00 0. -1.
         11    1    3    3    0    0  0.78859181122E+01  0.35040514107E+01 -0.24047872341E+00  0.86327232689E+01  0.51100000000E-03 0. -1.
        -11    1    3    3    0    0  0.28348581774E+02 -0.19760426037E+02  0.92161261260E+01  0.35763857549E+02  0.51100000000E-03 0.  1.
         12    1    3    3    0    0  0.24833556736E+01  0.21158139483E+00  0.22989042047E+01  0.33906905832E+01  0.00000000000E+00 0. -1.
</event>
<event>
 7    1  0.5411321E-010  0.4778727E+02  0.7816164E-02  0.1312668E+00
        -11   -1    0    0    0    0  0.00000000000E+00  0.00000000000E+00  0.45593999997E+02  0.45594000000E+02  0.51100000000E-03 0.  1.
         11   -1    0    0    0    0 -0.00000000000E+00 -0.00000000000E+00 -0.45593999997E+02  0.45594000000E+02  0.51100000000E-03 0. -1.
    9900012    2    1    2    0    0 -0.22511096780E+02 -0.51700795377E+01  0.36744306685E+02  0.47787271038E+02  0.19999999969E+02 0.  0.
         12    1    1    2    0    0  0.22511096780E+02  0.51700795377E+01 -0.36744306685E+02  0.43400728962E+02  0.00000000000E+00 0. -1.
         11    1    3    3    0    0 -0.10876356466E+02 -0.58873825599E+00  0.62076322698E+01  0.12537002886E+02  0.51100000000E-03 0. -1.
        -11    1    3    3    0    0 -0.78093792561E+01  0.30119328566E+01  0.20203738741E+02  0.21868909512E+02  0.51100000000E-03 0.  1.
         12    1    3    3    0    0 -0.38253610582E+01 -0.75932741383E+01  0.10332935675E+02  0.13381358639E+02  0.00000000000E+00 0. -1.
</event>
<event>
 7    1  0.5411321E-010  0.4778727E+02  0.7816164E-02  0.1312668E+00
        -11   -1    0    0    0    0  0.00000000000E+00  0.00000000000E+00  0.45593999997E+02  0.45594000000E+02  0.51100000000E-03 0.  1.
         11   -1    0    0    0    0 -0.00000000000E+00 -0.00000000000E+00 -0.45593999997E+02  0.45594000000E+02  0.51100000000E-03 0. -1.
    9900012    2    1    2    0    0  0.38305234887E+02 -0.17493914722E+02  0.10502156000E+02  0.47787270137E+02  0.19999995861E+02 0.  0.
         12    1    1    2    0    0 -0.38305234887E+02  0.17493914722E+02 -0.10502156000E+02  0.43400729863E+02  0.00000000000E+00 0. -1.
         11    1    3    3    0    0 -0.15525802486E+01 -0.24498113845E+01 -0.44532438474E+00  0.29343475112E+01  0.51100000000E-03 0. -1.
        -11    1    3    3    0    0  0.31611625042E-01 -0.13615707395E+01  0.60601114919E+00  0.14906790223E+01  0.51100000000E-03 0.  1.
         12    1    3    3    0    0  0.39826203510E+02 -0.13682532598E+02  0.10341469235E+02  0.43362243603E+02  0.00000000000E+00 0. -1.
</event>
<event>
 7    1  0.5411321E-010  0.4778727E+02  0.7816164E-02  0.1312668E+00
        -11   -1    0    0    0    0  0.00000000000E+00  0.00000000000E+00  0.45593999997E+02  0.45594000000E+02  0.51100000000E-03 0. -1.
         11   -1    0    0    0    0 -0.00000000000E+00 -0.00000000000E+00 -0.45593999997E+02  0.45594000000E+02  0.51100000000E-03 0.  1.
    9900012    2    1    2    0    0  0.18858281776E+02  0.39002427573E+02  0.26075225563E+01  0.47787270490E+02  0.19999997472E+02 0.  0.
         12    1    1    2    0    0 -0.18858281776E+02 -0.39002427573E+02 -0.26075225563E+01  0.43400729510E+02  0.00000000000E+00 0. -1.
         11    1    3    3    0    0  0.14878244303E+02  0.19166758250E+02 -0.39852789599E+01  0.24588802817E+02  0.51100000000E-03 0. -1.
        -11    1    3    3    0    0  0.37180202878E+01  0.10149267148E+02  0.79448965481E+01  0.13414644234E+02  0.51100000000E-03 0.  1.
        -12    1    3    3    0    0  0.26201718504E+00  0.96864021750E+01 -0.13520950320E+01  0.97838234385E+01  0.00000000000E+00 0.  1.
</event>
<event>
 7    1  0.5411321E-010  0.4778727E+02  0.7816164E-02  0.1312668E+00
        -11   -1    0    0    0    0  0.00000000000E+00  0.00000000000E+00  0.45593999997E+02  0.45594000000E+02  0.51100000000E-03 0.  1.
         11   -1    0    0    0    0 -0.00000000000E+00 -0.00000000000E+00 -0.45593999997E+02  0.45594000000E+02  0.51100000000E-03 0. -1.
    9900012    2    1    2    0    0  0.13168986754E+02  0.25959858939E+02  0.32191411867E+02  0.47787268597E+02  0.19999988843E+02 0.  0.
         12    1    1    2    0    0 -0.13168986754E+02 -0.25959858939E+02 -0.32191411867E+02  0.43400731403E+02  0.00000000000E+00 0. -1.
         11    1    3    3    0    0 -0.94818910966E-01 -0.85321684963E+00  0.71015789629E+01  0.71532785242E+01  0.51100000000E-03 0. -1.
        -11    1    3    3    0    0  0.14849887362E+02  0.26306393705E+02  0.23033043721E+02  0.37987716538E+02  0.51100000000E-03 0.  1.
        -12    1    3    3    0    0 -0.15860816964E+01  0.50668208364E+00  0.20567891832E+01  0.26462735357E+01  0.00000000000E+00 0.  1.
</event>
<event>
 7    1  0.5411321E-010  0.4778727E+02  0.7816164E-02  0.1312668E+00
        -11   -1    0    0    0    0  0.00000000000E+00  0.00000000000E+00  0.45593999997E+02  0.45594000000E+02  0.51100000000E-03 0. -1.
         11   -1    0    0    0    0 -0.00000000000E+00 -0.00000000000E+00 -0.45593999997E+02  0.45594000000E+02  0.51100000000E-03 0.  1.
    9900012    2    1    2    0    0  0.12044133044E+02  0.40883502722E+02  0.81915354864E+01  0.47787272020E+02  0.20000004446E+02 0.  0.
         12    1    1    2    0    0 -0.12044133044E+02 -0.40883502722E+02 -0.81915354864E+01  0.43400727980E+02  0.00000000000E+00 0. -1.
         11    1    3    3    0    0  0.54859820976E+01  0.31947323027E+02  0.11242800991E+02  0.34309299359E+02  0.51100000000E-03 0. -1.
        -11    1    3    3    0    0  0.26176534393E+00  0.62179507286E+01 -0.88606785748E+00  0.62862189643E+01  0.51100000000E-03 0.  1.
         12    1    3    3    0    0  0.62963856026E+01  0.27182289667E+01 -0.21651976471E+01  0.71917536960E+01  0.00000000000E+00 0. -1.
</event>
<event>
 7    1  0.5411321E-010  0.4778725E+02  0.7816164E-02  0.1312668E+00
        -11   -1    0    0    0    0  0.00000000000E+00  0.00000000000E+00  0.45593999997E+02  0.45594000000E+02  0.51100000000E-03 0. -1.
         11   -1    0    0    0    0 -0.00000000000E+00 -0.00000000000E+00 -0.45593999997E+02  0.45594000000E+02  0.51100000000E-03 0.  1.
    9900012    2    1    2    0    0  0.30821526507E+02  0.23497479841E+02 -0.19532719402E+02  0.47787249058E+02  0.19999899753E+02 0.  0.
         12    1    1    2    0    0 -0.30821526507E+02 -0.23497479841E+02  0.19532719402E+02  0.43400750942E+02  0.00000000000E+00 0. -1.
         11    1    3    3    0    0  0.48134192602E+01  0.39171891978E+00 -0.12500388813E+01  0.49884913704E+01  0.51100000000E-03 0. -1.
        -11    1    3    3    0    0  0.22671113888E+02  0.14889365321E+02 -0.20083770816E+02  0.33749525257E+02  0.51100000000E-03 0.  1.
        -12    1    3    3    0    0  0.33369933584E+01  0.82163956004E+01  0.18010902947E+01  0.90492324308E+01  0.00000000000E+00 0.  1.
</event>
<event>
 7    1  0.5411321E-010  0.4778733E+02  0.7816164E-02  0.1312667E+00
        -11   -1    0    0    0    0  0.00000000000E+00  0.00000000000E+00  0.45593999997E+02  0.45594000000E+02  0.51100000000E-03 0.  1.
         11   -1    0    0    0    0 -0.00000000000E+00 -0.00000000000E+00 -0.45593999997E+02  0.45594000000E+02  0.51100000000E-03 0. -1.
    9900012    2    1    2    0    0 -0.95118108503E+00  0.31644128227E+01  0.43274702940E+02  0.47787329861E+02  0.20000268168E+02 0.  0.
         12    1    1    2    0    0  0.95118108503E+00 -0.31644128227E+01 -0.43274702940E+02  0.43400670139E+02  0.00000000000E+00 0. -1.
         11    1    3    3    0    0 -0.39241756479E+01 -0.20759194019E+01  0.76262860106E+01  0.88243319552E+01  0.51100000000E-03 0. -1.
        -11    1    3    3    0    0  0.76550169767E+01 -0.19156265776E-01  0.25401180785E+02  0.26529599270E+02  0.51100000000E-03 0.  1.
        -12    1    3    3    0    0 -0.46820224139E+01  0.52594884904E+01  0.10247236144E+02  0.12433398636E+02  0.00000000000E+00 0.  1.
</event>
<event>
 7    1  0.5411321E-010  0.4778727E+02  0.7816164E-02  0.1312668E+00
        -11   -1    0    0    0    0  0.00000000000E+00  0.00000000000E+00  0.45593999997E+02  0.45594000000E+02  0.51100000000E-03 0. -1.
         11   -1    0    0    0    0 -0.00000000000E+00 -0.00000000000E+00 -0.45593999997E+02  0.45594000000E+02  0.51100000000E-03 0.  1.
    9900012    2    1    2    0    0 -0.26834416724E+02 -0.24900219718E+02  0.23313446073E+02  0.47787266933E+02  0.19999981257E+02 0.  0.
         12    1    1    2    0    0  0.26834416724E+02  0.24900219718E+02 -0.23313446073E+02  0.43400733067E+02  0.00000000000E+00 0. -1.
         11    1    3    3    0    0  0.23737881149E+01 -0.10927475700E+00  0.28686207270E+01  0.37250229696E+01  0.51100000000E-03 0. -1.
        -11    1    3    3    0    0 -0.21262537406E+02 -0.21938845505E+02  0.16809661979E+02  0.34870806919E+02  0.51100000000E-03 0.  1.
         12    1    3    3    0    0 -0.79456674322E+01 -0.28520994558E+01  0.36351633673E+01  0.91914370451E+01  0.00000000000E+00 0. -1.
</event>
<event>
 7    1  0.5411321E-010  0.4778727E+02  0.7816164E-02  0.1312668E+00
        -11   -1    0    0    0    0  0.00000000000E+00  0.00000000000E+00  0.45593999997E+02  0.45594000000E+02  0.51100000000E-03 0.  1.
         11   -1    0    0    0    0 -0.00000000000E+00 -0.00000000000E+00 -0.45593999997E+02  0.45594000000E+02  0.51100000000E-03 0. -1.
    9900012    2    1    2    0    0  0.24271836941E+02 -0.13058691865E+02  0.33525691583E+02  0.47787268464E+02  0.19999988233E+02 0.  0.
         12    1    1    2    0    0 -0.24271836941E+02  0.13058691865E+02 -0.33525691583E+02  0.43400731536E+02  0.00000000000E+00 0. -1.
         11    1    3    3    0    0  0.19914159225E+02 -0.62528953473E+01  0.21712434258E+02  0.30118138049E+02  0.51100000000E-03 0. -1.
        -11    1    3    3    0    0  0.16722265066E+01 -0.89800809056E+01  0.10633000677E+02  0.14017806469E+02  0.51100000000E-03 0.  1.
         12    1    3    3    0    0  0.26854512097E+01  0.21742843874E+01  0.11802566486E+01  0.36513239453E+01  0.00000000000E+00 0. -1.
</event>
<event>
 7    1  0.5411321E-010  0.4778727E+02  0.7816164E-02  0.1312668E+00
        -11   -1    0    0    0    0  0.00000000000E+00  0.00000000000E+00  0.45593999997E+02  0.45594000000E+02  0.51100000000E-03 0.  1.
         11   -1    0    0    0    0 -0.00000000000E+00 -0.00000000000E+00 -0.45593999997E+02  0.45594000000E+02  0.51100000000E-03 0. -1.
    9900012    2    1    2    0    0 -0.59334285379E+01  0.40512926833E+02  0.14391693227E+02  0.47787266726E+02  0.19999980311E+02 0.  0.
         12    1    1    2    0    0  0.59334285379E+01 -0.40512926833E+02 -0.14391693227E+02  0.43400733274E+02  0.00000000000E+00 0. -1.
         11    1    3    3    0    0 -0.29444519524E+01  0.72776831663E+01  0.90419151458E+01  0.11974585560E+02  0.51100000000E-03 0. -1.
        -11    1    3    3    0    0  0.29142523269E+01  0.25315712774E+02  0.47088013050E+01  0.25914300876E+02  0.51100000000E-03 0.  1.
        -12    1    3    3    0    0 -0.59032289124E+01  0.79195308923E+01  0.64097677582E+00  0.98983802904E+01  0.00000000000E+00 0.  1.
</event>
<event>
 7    1  0.5411321E-010  0.4778727E+02  0.7816164E-02  0.1312668E+00
        -11   -1    0    0    0    0  0.00000000000E+00  0.00000000000E+00  0.45593999997E+02  0.45594000000E+02  0.51100000000E-03 0. -1.
         11   -1    0    0    0    0 -0.00000000000E+00 -0.00000000000E+00 -0.45593999997E+02  0.45594000000E+02  0.51100000000E-03 0.  1.
    9900012    2    1    2    0    0  0.12094612031E+02 -0.64673724739E+01 -0.41176652185E+02  0.47787271526E+02  0.20000002198E+02 0.  0.
         12    1    1    2    0    0 -0.12094612031E+02  0.64673724739E+01  0.41176652185E+02  0.43400728474E+02  0.00000000000E+00 0. -1.
         11    1    3    3    0    0  0.49851615259E+01 -0.97072586222E+01 -0.19844323953E+02  0.22646851852E+02  0.51100000000E-03 0. -1.
        -11    1    3    3    0    0 -0.84641435123E+00  0.21404101975E+01 -0.14242634403E+02  0.14427418621E+02  0.51100000000E-03 0.  1.
         12    1    3    3    0    0  0.79558648567E+01  0.10994759508E+01 -0.70896938283E+01  0.10713001053E+02  0.00000000000E+00 0. -1.
</event>
<event>
 7    1  0.5411321E-010  0.4778727E+02  0.7816164E-02  0.1312668E+00
        -11   -1    0    0    0    0  0.00000000000E+00  0.00000000000E+00  0.45593999997E+02  0.45594000000E+02  0.51100000000E-03 0.  1.
         11   -1    0    0    0    0 -0.00000000000E+00 -0.00000000000E+00 -0.45593999997E+02  0.45594000000E+02  0.51100000000E-03 0. -1.
    9900012    2    1    2    0    0  0.21028482294E+02 -0.34712077599E+02 -0.15378494570E+02  0.47787268508E+02  0.19999988434E+02 0.  0.
         12    1    1    2    0    0 -0.21028482294E+02  0.34712077599E+02  0.15378494570E+02  0.43400731492E+02  0.00000000000E+00 0. -1.
         11    1    3    3    0    0  0.49244490315E+01 -0.10397076890E+01 -0.52495008993E+01  0.72724445887E+01  0.51100000000E-03 0. -1.
        -11    1    3    3    0    0  0.13598733296E+02 -0.29549275368E+02 -0.40885801656E+01  0.32784168589E+02  0.51100000000E-03 0.  1.
        -12    1    3    3    0    0  0.25052999664E+01 -0.41230945421E+01 -0.60404135048E+01  0.77306553301E+01  0.00000000000E+00 0.  1.
</event>
<event>
 7    1  0.5411321E-010  0.4778732E+02  0.7816164E-02  0.1312668E+00
        -11   -1    0    0    0    0  0.00000000000E+00  0.00000000000E+00  0.45593999997E+02  0.45594000000E+02  0.51100000000E-03 0.  1.
         11   -1    0    0    0    0 -0.00000000000E+00 -0.00000000000E+00 -0.45593999997E+02  0.45594000000E+02  0.51100000000E-03 0. -1.
    9900012    2    1    2    0    0 -0.82802087086E+01  0.18358573896E+01  0.42563915719E+02  0.47787318555E+02  0.20000216616E+02 0.  0.
         12    1    1    2    0    0  0.82802087086E+01 -0.18358573896E+01 -0.42563915719E+02  0.43400681445E+02  0.00000000000E+00 0. -1.
         11    1    3    3    0    0 -0.27511172435E+01 -0.23647399398E+01  0.20292065900E+02  0.20613795861E+02  0.51100000000E-03 0. -1.
        -11    1    3    3    0    0 -0.74257969788E+01  0.12766318103E+01  0.39196016473E+01  0.84932636179E+01  0.51100000000E-03 0.  1.
        -12    1    3    3    0    0  0.18967055136E+01  0.29239655191E+01  0.18352248172E+02  0.18680259075E+02  0.00000000000E+00 0.  1.
</event>
<event>
 7    1  0.5411321E-010  0.4778727E+02  0.7816164E-02  0.1312668E+00
        -11   -1    0    0    0    0  0.00000000000E+00  0.00000000000E+00  0.45593999997E+02  0.45594000000E+02  0.51100000000E-03 0.  1.
         11   -1    0    0    0    0 -0.00000000000E+00 -0.00000000000E+00 -0.45593999997E+02  0.45594000000E+02  0.51100000000E-03 0. -1.
    9900012    2    1    2    0    0 -0.14939435477E+02  0.35603623064E+02  0.19819660761E+02  0.47787266592E+02  0.19999979698E+02 0.  0.
         12    1    1    2    0    0  0.14939435477E+02 -0.35603623064E+02 -0.19819660761E+02  0.43400733408E+02  0.00000000000E+00 0. -1.
         11    1    3    3    0    0 -0.60665756364E+00  0.71723349656E+00  0.51094706303E+01  0.51951080519E+01  0.51100000000E-03 0. -1.
        -11    1    3    3    0    0 -0.16206801851E+02  0.31360207777E+02  0.10590770820E+02  0.36854951972E+02  0.51100000000E-03 0.  1.
        -12    1    3    3    0    0  0.18740239372E+01  0.35261817914E+01  0.41194193110E+01  0.57372065679E+01  0.00000000000E+00 0.  1.
</event>
<event>
 7    1  0.5411321E-010  0.4778727E+02  0.7816164E-02  0.1312668E+00
        -11   -1    0    0    0    0  0.00000000000E+00  0.00000000000E+00  0.45593999997E+02  0.45594000000E+02  0.51100000000E-03 0.  1.
         11   -1    0    0    0    0 -0.00000000000E+00 -0.00000000000E+00 -0.45593999997E+02  0.45594000000E+02  0.51100000000E-03 0. -1.
    9900012    2    1    2    0    0  0.30707112475E+00 -0.24035827373E+02  0.36135962834E+02  0.47787273046E+02  0.20000009128E+02 0.  0.
         12    1    1    2    0    0 -0.30707112475E+00  0.24035827373E+02 -0.36135962834E+02  0.43400726954E+02  0.00000000000E+00 0. -1.
         11    1    3    3    0    0 -0.83449866344E+00 -0.14774405312E+02  0.92106605436E+01  0.17430310044E+02  0.51100000000E-03 0. -1.
        -11    1    3    3    0    0 -0.17761911078E+01 -0.10633607273E+02  0.20115326427E+02  0.22822243887E+02  0.51100000000E-03 0.  1.
         12    1    3    3    0    0  0.29177608960E+01  0.13721852109E+01  0.68099758626E+01  0.75347191155E+01  0.00000000000E+00 0. -1.
</event>
<event>
 7    1  0.5411321E-010  0.4778728E+02  0.7816164E-02  0.1312668E+00
        -11   -1    0    0    0    0  0.00000000000E+00  0.00000000000E+00  0.45593999997E+02  0.45594000000E+02  0.51100000000E-03 0.  1.
         11   -1    0    0    0    0 -0.00000000000E+00 -0.00000000000E+00 -0.45593999997E+02  0.45594000000E+02  0.51100000000E-03 0. -1.
    9900012    2    1    2    0    0  0.20326467119E+02  0.27150086008E+02  0.27080069797E+02  0.47787278623E+02  0.20000034556E+02 0.  0.
         12    1    1    2    0    0 -0.20326467119E+02 -0.27150086008E+02 -0.27080069797E+02  0.43400721377E+02  0.00000000000E+00 0. -1.
         11    1    3    3    0    0  0.49599593962E+01 -0.67453706301E+00  0.99824924497E+01  0.11167199883E+02  0.51100000000E-03 0. -1.
        -11    1    3    3    0    0  0.14321161891E+00  0.29605001393E+00  0.14480552735E+01  0.14849308115E+01  0.51100000000E-03 0.  1.
         12    1    3    3    0    0  0.15223296104E+02  0.27528573057E+02  0.15649522074E+02  0.35135147929E+02  0.00000000000E+00 0. -1.
</event>
<event>
 7    1  0.5411321E-010  0.4778727E+02  0.7816164E-02  0.1312668E+00
        -11   -1    0    0    0    0  0.00000000000E+00  0.00000000000E+00  0.45593999997E+02  0.45594000000E+02  0.51100000000E-03 0. -1.
         11   -1    0    0    0    0 -0.00000000000E+00 -0.00000000000E+00 -0.45593999997E+02  0.45594000000E+02  0.51100000000E-03 0.  1.
    9900012    2    1    2    0    0  0.26604885006E+02 -0.34164967013E+02  0.29255182752E+01  0.47787268044E+02  0.19999986318E+02 0.  0.
         12    1    1    2    0    0 -0.26604885006E+02  0.34164967013E+02 -0.29255182752E+01  0.43400731956E+02  0.00000000000E+00 0. -1.
         11    1    3    3    0    0 -0.31645939462E+00 -0.26281705532E+01 -0.16064574992E+01  0.30964710499E+01  0.51100000000E-03 0. -1.
        -11    1    3    3    0    0  0.22388152534E+02 -0.25588432320E+02 -0.29300911211E+01  0.34125982429E+02  0.51100000000E-03 0.  1.
        -12    1    3    3    0    0  0.45331918664E+01 -0.59483641399E+01  0.74620668955E+01  0.10564814565E+02  0.00000000000E+00 0.  1.
</event>
<event>
 7    1  0.5411321E-010  0.4778727E+02  0.7816164E-02  0.1312668E+00
        -11   -1    0    0    0    0  0.00000000000E+00  0.00000000000E+00  0.45593999997E+02  0.45594000000E+02  0.51100000000E-03 0. -1.
         11   -1    0    0    0    0 -0.00000000000E+00 -0.00000000000E+00 -0.45593999997E+02  0.45594000000E+02  0.51100000000E-03 0.  1.
    9900012    2    1    2    0    0 -0.34213619567E+02  0.60150736480E+01 -0.26016737773E+02  0.47787268218E+02  0.19999987115E+02 0.  0.
         12    1    1    2    0    0  0.34213619567E+02 -0.60150736480E+01  0.26016737773E+02  0.43400731782E+02  0.00000000000E+00 0. -1.
         11    1    3    3    0    0 -0.91085696927E+01  0.30994347149E+01 -0.40194152791E+00  0.96298543422E+01  0.51100000000E-03 0. -1.
        -11    1    3    3    0    0 -0.35662518328E+01  0.49158422667E+01 -0.91084420163E+01  0.10947482521E+02  0.51100000000E-03 0.  1.
        -12    1    3    3    0    0 -0.21538798041E+02 -0.20002033336E+01 -0.16506354228E+02  0.27209931355E+02  0.00000000000E+00 0.  1.
</event>
<event>
 7    1  0.5411321E-010  0.4778727E+02  0.7816164E-02  0.1312668E+00
        -11   -1    0    0    0    0  0.00000000000E+00  0.00000000000E+00  0.45593999997E+02  0.45594000000E+02  0.51100000000E-03 0. -1.
         11   -1    0    0    0    0 -0.00000000000E+00 -0.00000000000E+00 -0.45593999997E+02  0.45594000000E+02  0.51100000000E-03 0.  1.
    9900012    2    1    2    0    0  0.34615301127E+01  0.14108175713E+02 -0.40897435910E+02  0.47787273316E+02  0.20000010356E+02 0.  0.
         12    1    1    2    0    0 -0.34615301127E+01 -0.14108175713E+02  0.40897435910E+02  0.43400726684E+02  0.00000000000E+00 0. -1.
         11    1    3    3    0    0  0.21177952122E+01 -0.25254516182E+00 -0.23733695793E+01  0.31908806058E+01  0.51100000000E-03 0. -1.
        -11    1    3    3    0    0  0.56495391383E+01  0.33441884976E+01 -0.28015488027E+02  0.28774441069E+02  0.51100000000E-03 0.  1.
        -12    1    3    3    0    0 -0.43058042378E+01  0.11016532377E+02 -0.10508578304E+02  0.15821951641E+02  0.00000000000E+00 0.  1.
</event>
<event>
 7    1  0.5411321E-010  0.4778727E+02  0.7816164E-02  0.1312668E+00
        -11   -1    0    0    0    0  0.00000000000E+00  0.00000000000E+00  0.45593999997E+02  0.45594000000E+02  0.51100000000E-03 0.  1.
         11   -1    0    0    0    0 -0.00000000000E+00 -0.00000000000E+00 -0.45593999997E+02  0.45594000000E+02  0.51100000000E-03 0. -1.
    9900012    2    1    2    0    0  0.37143244001E+00  0.42829422616E+02 -0.70089980157E+01  0.47787268936E+02  0.19999990387E+02 0.  0.
         12    1    1    2    0    0 -0.37143244001E+00 -0.42829422616E+02  0.70089980157E+01  0.43400731064E+02  0.00000000000E+00 0. -1.
         11    1    3    3    0    0  0.98328129395E+00 -0.15245341891E+01  0.13703437979E+01  0.22735190745E+01  0.51100000000E-03 0. -1.
        -11    1    3    3    0    0 -0.12124864552E+01  0.23378838150E+02 -0.72187151614E+01  0.24497960027E+02  0.51100000000E-03 0.  1.
        -12    1    3    3    0    0  0.60063760121E+00  0.20975118656E+02 -0.11606266521E+01  0.21015789835E+02  0.00000000000E+00 0.  1.
</event>
<event>
 7    1  0.5411321E-010  0.4778727E+02  0.7816164E-02  0.1312668E+00
        -11   -1    0    0    0    0  0.00000000000E+00  0.00000000000E+00  0.45593999997E+02  0.45594000000E+02  0.51100000000E-03 0.  1.
         11   -1    0    0    0    0 -0.00000000000E+00 -0.00000000000E+00 -0.45593999997E+02  0.45594000000E+02  0.51100000000E-03 0. -1.
    9900012    2    1    2    0    0  0.41067885496E+02 -0.12737253262E+02 -0.59003708133E+01  0.47787271717E+02  0.20000003066E+02 0.  0.
         12    1    1    2    0    0 -0.41067885496E+02  0.12737253262E+02  0.59003708133E+01  0.43400728283E+02  0.00000000000E+00 0. -1.
         11    1    3    3    0    0  0.22616549889E+02 -0.15472902167E+02 -0.13974779983E+01  0.27438512630E+02  0.51100000000E-03 0. -1.
        -11    1    3    3    0    0  0.18087594048E+02  0.36005360999E+01 -0.31610469138E+01  0.18711417276E+02  0.51100000000E-03 0.  1.
         12    1    3    3    0    0  0.36374155978E+00 -0.86488719497E+00 -0.13418459011E+01  0.16373418106E+01  0.00000000000E+00 0. -1.
</event>
<event>
 7    1  0.5411321E-010  0.4778728E+02  0.7816164E-02  0.1312668E+00
        -11   -1    0    0    0    0  0.00000000000E+00  0.00000000000E+00  0.45593999997E+02  0.45594000000E+02  0.51100000000E-03 0.  1.
         11   -1    0    0    0    0 -0.00000000000E+00 -0.00000000000E+00 -0.45593999997E+02  0.45594000000E+02  0.51100000000E-03 0. -1.
    9900012    2    1    2    0    0 -0.48582244821E+00 -0.19937680546E+02  0.38547056750E+02  0.47787277505E+02  0.20000029457E+02 0.  0.
         12    1    1    2    0    0  0.48582244821E+00  0.19937680546E+02 -0.38547056750E+02  0.43400722495E+02  0.00000000000E+00 0. -1.
         11    1    3    3    0    0  0.33565936678E+01 -0.43552438306E+01  0.95593690809E+01  0.11027982924E+02  0.51100000000E-03 0. -1.
        -11    1    3    3    0    0  0.20752098769E+01 -0.30677934416E+01  0.19802707558E+02  0.20146093406E+02  0.51100000000E-03 0.  1.
        -12    1    3    3    0    0 -0.59176259929E+01 -0.12514643274E+02  0.91849801106E+01  0.16613201175E+02  0.00000000000E+00 0.  1.
</event>
<event>
 7    1  0.5411321E-010  0.4778727E+02  0.7816164E-02  0.1312668E+00
        -11   -1    0    0    0    0  0.00000000000E+00  0.00000000000E+00  0.45593999997E+02  0.45594000000E+02  0.51100000000E-03 0.  1.
         11   -1    0    0    0    0 -0.00000000000E+00 -0.00000000000E+00 -0.45593999997E+02  0.45594000000E+02  0.51100000000E-03 0. -1.
    9900012    2    1    2    0    0  0.50281913260E+01  0.12622973193E+02  0.41218944875E+02  0.47787267554E+02  0.19999984087E+02 0.  0.
         12    1    1    2    0    0 -0.50281913260E+01 -0.12622973193E+02 -0.41218944875E+02  0.43400732446E+02  0.00000000000E+00 0. -1.
         11    1    3    3    0    0  0.15641009600E+01  0.97040976228E+00 -0.15203275335E+01  0.23873631877E+01  0.51100000000E-03 0. -1.
        -11    1    3    3    0    0  0.10819333549E+00  0.88893652073E+01  0.37749215708E+02  0.38781900500E+02  0.51100000000E-03 0.  1.
        -12    1    3    3    0    0  0.33558970305E+01  0.27631982235E+01  0.49900567001E+01  0.66180038661E+01  0.00000000000E+00 0.  1.
</event>
<event>
 7    1  0.5411321E-010  0.4778728E+02  0.7816164E-02  0.1312668E+00
        -11   -1    0    0    0    0  0.00000000000E+00  0.00000000000E+00  0.45593999997E+02  0.45594000000E+02  0.51100000000E-03 0. -1.
         11   -1    0    0    0    0 -0.00000000000E+00 -0.00000000000E+00 -0.45593999997E+02  0.45594000000E+02  0.51100000000E-03 0.  1.
    9900012    2    1    2    0    0 -0.15453831616E+02  0.35767481045E+02 -0.19117770340E+02  0.47787277025E+02  0.20000027270E+02 0.  0.
         12    1    1    2    0    0  0.15453831616E+02 -0.35767481045E+02  0.19117770340E+02  0.43400722975E+02  0.00000000000E+00 0. -1.
         11    1    3    3    0    0 -0.29221872057E+01  0.25839197166E+01  0.74677165311E+00  0.39715849897E+01  0.51100000000E-03 0. -1.
        -11    1    3    3    0    0 -0.72184903729E+01  0.17263995520E+02 -0.12522959103E+01  0.18754209925E+02  0.51100000000E-03 0.  1.
        -12    1    3    3    0    0 -0.53131540377E+01  0.15919565808E+02 -0.18612246083E+02  0.25061482111E+02  0.00000000000E+00 0.  1.
</event>
<event>
 7    1  0.5411321E-010  0.4778727E+02  0.7816164E-02  0.1312668E+00
        -11   -1    0    0    0    0  0.00000000000E+00  0.00000000000E+00  0.45593999997E+02  0.45594000000E+02  0.51100000000E-03 0. -1.
         11   -1    0    0    0    0 -0.00000000000E+00 -0.00000000000E+00 -0.45593999997E+02  0.45594000000E+02  0.51100000000E-03 0.  1.
    9900012    2    1    2    0    0 -0.20781850009E+02  0.46214018261E+01 -0.37820374031E+02  0.47787270323E+02  0.19999996710E+02 0.  0.
         12    1    1    2    0    0  0.20781850009E+02 -0.46214018261E+01  0.37820374031E+02  0.43400729677E+02  0.00000000000E+00 0. -1.
         11    1    3    3    0    0  0.14619214365E+01 -0.34282819497E+00  0.12462595854E+01  0.19513863465E+01  0.51100000000E-03 0. -1.
        -11    1    3    3    0    0 -0.19705217825E+02  0.17094475308E+01 -0.33543036427E+02  0.38940378958E+02  0.51100000000E-03 0.  1.
        -12    1    3    3    0    0 -0.25385536207E+01  0.32547824903E+01 -0.55235971900E+01  0.68955050186E+01  0.00000000000E+00 0.  1.
</event>
<event>
 7    1  0.5411321E-010  0.4778727E+02  0.7816164E-02  0.1312668E+00
        -11   -1    0    0    0    0  0.00000000000E+00  0.00000000000E+00  0.45593999997E+02  0.45594000000E+02  0.51100000000E-03 0.  1.
         11   -1    0    0    0    0 -0.00000000000E+00 -0.00000000000E+00 -0.45593999997E+02  0.45594000000E+02  0.51100000000E-03 0. -1.
    9900012    2    1    2    0    0  0.72809781922E+00 -0.39776824732E+02  0.17346390662E+02  0.47787272112E+02  0.20000004869E+02 0.  0.
         12    1    1    2    0    0 -0.72809781922E+00  0.39776824732E+02 -0.17346390662E+02  0.43400727888E+02  0.00000000000E+00 0. -1.
         11    1    3    3    0    0 -0.15974482552E+00 -0.23023458340E+00 -0.11200638562E+01  0.11545863657E+01  0.51100000000E-03 0. -1.
        -11    1    3    3    0    0  0.45094387409E+01 -0.30419264583E+01  0.54711091931E+01  0.77150107194E+01  0.51100000000E-03 0.  1.
        -12    1    3    3    0    0 -0.36215960961E+01 -0.36504663690E+02  0.12995345325E+02  0.38917675027E+02  0.00000000000E+00 0.  1.
</event>
<event>
 7    1  0.5411321E-010  0.4778729E+02  0.7816164E-02  0.1312668E+00
        -11   -1    0    0    0    0  0.00000000000E+00  0.00000000000E+00  0.45593999997E+02  0.45594000000E+02  0.51100000000E-03 0. -1.
         11   -1    0    0    0    0 -0.00000000000E+00 -0.00000000000E+00 -0.45593999997E+02  0.45594000000E+02  0.51100000000E-03 0.  1.
    9900012    2    1    2    0    0 -0.31298480506E+02 -0.14847004949E+01 -0.30030365305E+02  0.47787285053E+02  0.20000063871E+02 0.  0.
         12    1    1    2    0    0  0.31298480506E+02  0.14847004949E+01  0.30030365305E+02  0.43400714947E+02  0.00000000000E+00 0. -1.
         11    1    3    3    0    0 -0.19515381890E+02  0.30833964219E+01 -0.95140064726E+01  0.21928834516E+02  0.51100000000E-03 0. -1.
        -11    1    3    3    0    0 -0.11401783490E+02 -0.58012153689E+01 -0.20906605148E+02  0.24510016434E+02  0.51100000000E-03 0.  1.
        -12    1    3    3    0    0 -0.38131512655E+00  0.12331184521E+01  0.39024631651E+00  0.13484341030E+01  0.00000000000E+00 0.  1.
</event>
<event>
 7    1  0.5411321E-010  0.4778727E+02  0.7816164E-02  0.1312668E+00
        -11   -1    0    0    0    0  0.00000000000E+00  0.00000000000E+00  0.45593999997E+02  0.45594000000E+02  0.51100000000E-03 0.  1.
         11   -1    0    0    0    0 -0.00000000000E+00 -0.00000000000E+00 -0.45593999997E+02  0.45594000000E+02  0.51100000000E-03 0. -1.
    9900012    2    1    2    0    0 -0.19004648394E+02 -0.38730468684E+02 -0.47325744194E+01  0.47787272751E+02  0.20000007781E+02 0.  0.
         12    1    1    2    0    0  0.19004648394E+02  0.38730468684E+02  0.47325744194E+01  0.43400727249E+02  0.00000000000E+00 0. -1.
         11    1    3    3    0    0 -0.52015479256E+00 -0.35558973244E+01 -0.57211587951E+01  0.67562286084E+01  0.51100000000E-03 0. -1.
        -11    1    3    3    0    0 -0.79370436185E+01 -0.25498823109E+02  0.56401519590E+00  0.26711509780E+02  0.51100000000E-03 0.  1.
         12    1    3    3    0    0 -0.10547449983E+02 -0.96757482514E+01  0.42456917980E+00  0.14319534363E+02  0.00000000000E+00 0. -1.
</event>
<event>
 7    1  0.5411321E-010  0.4778728E+02  0.7816164E-02  0.1312668E+00
        -11   -1    0    0    0    0  0.00000000000E+00  0.00000000000E+00  0.45593999997E+02  0.45594000000E+02  0.51100000000E-03 0. -1.
         11   -1    0    0    0    0 -0.00000000000E+00 -0.00000000000E+00 -0.45593999997E+02  0.45594000000E+02  0.51100000000E-03 0.  1.
    9900012    2    1    2    0    0  0.33095830060E+02 -0.29139359624E+01 -0.27924861335E+02  0.47787275689E+02  0.20000021176E+02 0.  0.
         12    1    1    2    0    0 -0.33095830060E+02  0.29139359624E+01  0.27924861335E+02  0.43400724311E+02  0.00000000000E+00 0. -1.
         11    1    3    3    0    0  0.10252514613E+02  0.57299900635E+01 -0.17319229012E+02  0.20926120899E+02  0.51100000000E-03 0. -1.
        -11    1    3    3    0    0  0.19715621971E+02 -0.62934435814E+01 -0.96430820585E+01  0.22832043572E+02  0.51100000000E-03 0.  1.
         12    1    3    3    0    0  0.31276934748E+01 -0.23504824446E+01 -0.96255026451E+00  0.40291112179E+01  0.00000000000E+00 0. -1.
</event>
<event>
 7    1  0.5411321E-010  0.4778727E+02  0.7816164E-02  0.1312668E+00
        -11   -1    0    0    0    0  0.00000000000E+00  0.00000000000E+00  0.45593999997E+02  0.45594000000E+02  0.51100000000E-03 0. -1.
         11   -1    0    0    0    0 -0.00000000000E+00 -0.00000000000E+00 -0.45593999997E+02  0.45594000000E+02  0.51100000000E-03 0.  1.
    9900012    2    1    2    0    0 -0.24890489483E+02 -0.26725286942E+02  0.23448789866E+02  0.47787272183E+02  0.20000005192E+02 0.  0.
         12    1    1    2    0    0  0.24890489483E+02  0.26725286942E+02 -0.23448789866E+02  0.43400727817E+02  0.00000000000E+00 0. -1.
         11    1    3    3    0    0 -0.15494735390E+02 -0.76013730363E+01  0.48991206923E+01  0.17940710149E+02  0.51100000000E-03 0. -1.
        -11    1    3    3    0    0 -0.10810567258E+02 -0.18734745364E+02  0.18351037610E+02  0.28365817985E+02  0.51100000000E-03 0.  1.
        -12    1    3    3    0    0  0.14148131640E+01 -0.38916854147E+00  0.19863156320E+00  0.14807440497E+01  0.00000000000E+00 0.  1.
</event>
<event>
 7    1  0.5411321E-010  0.4778727E+02  0.7816164E-02  0.1312668E+00
        -11   -1    0    0    0    0  0.00000000000E+00  0.00000000000E+00  0.45593999997E+02  0.45594000000E+02  0.51100000000E-03 0. -1.
         11   -1    0    0    0    0 -0.00000000000E+00 -0.00000000000E+00 -0.45593999997E+02  0.45594000000E+02  0.51100000000E-03 0.  1.
    9900012    2    1    2    0    0 -0.12639352917E+02 -0.29481665466E+02 -0.29235279142E+02  0.47787269737E+02  0.19999994041E+02 0.  0.
         12    1    1    2    0    0  0.12639352917E+02  0.29481665466E+02  0.29235279142E+02  0.43400730263E+02  0.00000000000E+00 0. -1.
         11    1    3    3    0    0  0.79938592047E+00 -0.11011591035E+02 -0.62678490585E+01  0.12695671981E+02  0.51100000000E-03 0. -1.
        -11    1    3    3    0    0 -0.14227020996E+02 -0.11003252972E+02 -0.20305189087E+02  0.27125272469E+02  0.51100000000E-03 0.  1.
        -12    1    3    3    0    0  0.78828215882E+00 -0.74668214590E+01 -0.26622409967E+01  0.79663252876E+01  0.00000000000E+00 0.  1.
</event>
<event>
 7    1  0.5411321E-010  0.4778727E+02  0.7816164E-02  0.1312668E+00
        -11   -1    0    0    0    0  0.00000000000E+00  0.00000000000E+00  0.45593999997E+02  0.45594000000E+02  0.51100000000E-03 0.  1.
         11   -1    0    0    0    0 -0.00000000000E+00 -0.00000000000E+00 -0.45593999997E+02  0.45594000000E+02  0.51100000000E-03 0. -1.
    9900012    2    1    2    0    0  0.13131805395E+02  0.35688238288E+01  0.41212165059E+02  0.47787269991E+02  0.19999995197E+02 0.  0.
         12    1    1    2    0    0 -0.13131805395E+02 -0.35688238288E+01 -0.41212165059E+02  0.43400730009E+02  0.00000000000E+00 0. -1.
         11    1    3    3    0    0  0.13102709095E+02 -0.22127180697E+01  0.33122057208E+02  0.35688202264E+02  0.51100000000E-03 0. -1.
        -11    1    3    3    0    0 -0.20838800942E+01  0.63885344702E+01  0.67487304975E+01  0.95237226185E+01  0.51100000000E-03 0.  1.
         12    1    3    3    0    0  0.21129763940E+01 -0.60699257174E+00  0.13413773540E+01  0.25753451088E+01  0.00000000000E+00 0. -1.
</event>
<event>
 7    1  0.5411321E-010  0.4778727E+02  0.7816164E-02  0.1312668E+00
        -11   -1    0    0    0    0  0.00000000000E+00  0.00000000000E+00  0.45593999997E+02  0.45594000000E+02  0.51100000000E-03 0.  1.
         11   -1    0    0    0    0 -0.00000000000E+00 -0.00000000000E+00 -0.45593999997E+02  0.45594000000E+02  0.51100000000E-03 0. -1.
    9900012    2    1    2    0    0  0.34199016783E+02  0.10938599791E+02  0.24380274929E+02  0.47787268210E+02  0.19999987075E+02 0.  0.
         12    1    1    2    0    0 -0.34199016783E+02 -0.10938599791E+02 -0.24380274929E+02  0.43400731790E+02  0.00000000000E+00 0. -1.
         11    1    3    3    0    0  0.22145855979E+02  0.10550570370E+01  0.13470592845E+02  0.25942416122E+02  0.51100000000E-03 0. -1.
        -11    1    3    3    0    0  0.90641567570E+01  0.29107521985E+01  0.10606531183E+02  0.14252365420E+02  0.51100000000E-03 0.  1.
         12    1    3    3    0    0  0.29890040471E+01  0.69727905559E+01  0.30315090139E+00  0.75924866676E+01  0.00000000000E+00 0. -1.
</event>
<event>
 7    1  0.5411321E-010  0.4778727E+02  0.7816164E-02  0.1312668E+00
        -11   -1    0    0    0    0  0.00000000000E+00  0.00000000000E+00  0.45593999997E+02  0.45594000000E+02  0.51100000000E-03 0.  1.
         11   -1    0    0    0    0 -0.00000000000E+00 -0.00000000000E+00 -0.45593999997E+02  0.45594000000E+02  0.51100000000E-03 0. -1.
    9900012    2    1    2    0    0 -0.28891276055E+01 -0.13607725606E+02  0.41110899687E+02  0.47787270426E+02  0.19999997180E+02 0.  0.
         12    1    1    2    0    0  0.28891276055E+01  0.13607725606E+02 -0.41110899687E+02  0.43400729574E+02  0.00000000000E+00 0. -1.
         11    1    3    3    0    0  0.10858444208E+01 -0.35735319678E+01  0.11816251698E+01  0.39173239762E+01  0.51100000000E-03 0.  1.
        -11    1    3    3    0    0 -0.67128603928E+01  0.10083743168E+01  0.15514430235E+02  0.16934487273E+02  0.51100000000E-03 0. -1.
        -12    1    3    3    0    0  0.27378883665E+01 -0.11042567955E+02  0.24414844282E+02  0.26935459176E+02  0.00000000000E+00 0.  1.
</event>
<event>
 7    1  0.5411321E-010  0.4778727E+02  0.7816164E-02  0.1312668E+00
        -11   -1    0    0    0    0  0.00000000000E+00  0.00000000000E+00  0.45593999997E+02  0.45594000000E+02  0.51100000000E-03 0. -1.
         11   -1    0    0    0    0 -0.00000000000E+00 -0.00000000000E+00 -0.45593999997E+02  0.45594000000E+02  0.51100000000E-03 0.  1.
    9900012    2    1    2    0    0 -0.14875593074E+02  0.23102430569E+02 -0.33594905094E+02  0.47787271714E+02  0.20000003052E+02 0.  0.
         12    1    1    2    0    0  0.14875593074E+02 -0.23102430569E+02  0.33594905094E+02  0.43400728286E+02  0.00000000000E+00 0. -1.
         11    1    3    3    0    0 -0.11277827819E+02  0.10511924772E+02 -0.25767534458E+02  0.30027583903E+02  0.51100000000E-03 0.  1.
        -11    1    3    3    0    0 -0.19987702325E+01 -0.22840105185E+00 -0.36765179692E+01  0.41909466856E+01  0.51100000000E-03 0. -1.
         12    1    3    3    0    0 -0.15989950218E+01  0.12818906848E+02 -0.41508526670E+01  0.13568741125E+02  0.00000000000E+00 0. -1.
</event>
<event>
 7    1  0.5411321E-010  0.4778727E+02  0.7816164E-02  0.1312668E+00
        -11   -1    0    0    0    0  0.00000000000E+00  0.00000000000E+00  0.45593999997E+02  0.45594000000E+02  0.51100000000E-03 0.  1.
         11   -1    0    0    0    0 -0.00000000000E+00 -0.00000000000E+00 -0.45593999997E+02  0.45594000000E+02  0.51100000000E-03 0. -1.
    9900012    2    1    2    0    0 -0.38884373096E+02 -0.15844080938E+02  0.10981531805E+02  0.47787269446E+02  0.19999992711E+02 0.  0.
         12    1    1    2    0    0  0.38884373096E+02  0.15844080938E+02 -0.10981531805E+02  0.43400730554E+02  0.00000000000E+00 0. -1.
         11    1    3    3    0    0 -0.17379448559E+02 -0.10423339480E+02 -0.39299013154E+01  0.20643046353E+02  0.51100000000E-03 0. -1.
        -11    1    3    3    0    0 -0.14728857448E+02 -0.45388972414E+01  0.12673404763E+02  0.19953847209E+02  0.51100000000E-03 0.  1.
         12    1    3    3    0    0 -0.67760670890E+01 -0.88184421664E+00  0.22380283578E+01  0.71903758836E+01  0.00000000000E+00 0. -1.
</event>
<event>
 7    1  0.5411321E-010  0.4778727E+02  0.7816164E-02  0.1312668E+00
        -11   -1    0    0    0    0  0.00000000000E+00  0.00000000000E+00  0.45593999997E+02  0.45594000000E+02  0.51100000000E-03 0. -1.
         11   -1    0    0    0    0 -0.00000000000E+00 -0.00000000000E+00 -0.45593999997E+02  0.45594000000E+02  0.51100000000E-03 0.  1.
    9900012    2    1    2    0    0 -0.19951038402E+02  0.50151307782E+01 -0.38215540098E+02  0.47787274488E+02  0.20000015699E+02 0.  0.
         12    1    1    2    0    0  0.19951038402E+02 -0.50151307782E+01  0.38215540098E+02  0.43400725512E+02  0.00000000000E+00 0. -1.
         11    1    3    3    0    0 -0.10836639501E+02  0.29249893276E+01 -0.56567941448E+01  0.12569313366E+02  0.51100000000E-03 0. -1.
        -11    1    3    3    0    0  0.20274639900E+01  0.83740388484E+00 -0.60606869573E+01  0.64454466216E+01  0.51100000000E-03 0.  1.
         12    1    3    3    0    0 -0.11141862891E+02  0.12527375658E+01 -0.26498058995E+02  0.28772514499E+02  0.00000000000E+00 0. -1.
</event>
<event>
 7    1  0.5411321E-010  0.4778727E+02  0.7816164E-02  0.1312668E+00
        -11   -1    0    0    0    0  0.00000000000E+00  0.00000000000E+00  0.45593999997E+02  0.45594000000E+02  0.51100000000E-03 0.  1.
         11   -1    0    0    0    0 -0.00000000000E+00 -0.00000000000E+00 -0.45593999997E+02  0.45594000000E+02  0.51100000000E-03 0. -1.
    9900012    2    1    2    0    0  0.28313350182E+01  0.64550448665E+01  0.42824515714E+02  0.47787271799E+02  0.20000003440E+02 0.  0.
         12    1    1    2    0    0 -0.28313350182E+01 -0.64550448665E+01 -0.42824515714E+02  0.43400728201E+02  0.00000000000E+00 0. -1.
         11    1    3    3    0    0  0.83591398525E+01 -0.24374282994E+01  0.11721978835E+02  0.14602091078E+02  0.51100000000E-03 0. -1.
        -11    1    3    3    0    0  0.75022367811E+00  0.17731254392E+01  0.34776964402E+01  0.39750700851E+01  0.51100000000E-03 0.  1.
         12    1    3    3    0    0 -0.62780285124E+01  0.71193477267E+01  0.27624840439E+02  0.29210110635E+02  0.00000000000E+00 0. -1.
</event>
<event>
 7    1  0.5411321E-010  0.4778727E+02  0.7816164E-02  0.1312668E+00
        -11   -1    0    0    0    0  0.00000000000E+00  0.00000000000E+00  0.45593999997E+02  0.45594000000E+02  0.51100000000E-03 0.  1.
         11   -1    0    0    0    0 -0.00000000000E+00 -0.00000000000E+00 -0.45593999997E+02  0.45594000000E+02  0.51100000000E-03 0. -1.
    9900012    2    1    2    0    0 -0.32816094994E+02  0.59696950109E+01  0.27768502905E+02  0.47787273016E+02  0.20000008988E+02 0.  0.
         12    1    1    2    0    0  0.32816094994E+02 -0.59696950109E+01 -0.27768502905E+02  0.43400726984E+02  0.00000000000E+00 0. -1.
         11    1    3    3    0    0 -0.14456809410E+02  0.11915617314E+02  0.11560998324E+02  0.22014494243E+02  0.51100000000E-03 0. -1.
        -11    1    3    3    0    0 -0.15170823662E+02 -0.47836734510E+01  0.15684141757E+02  0.22338973234E+02  0.51100000000E-03 0.  1.
         12    1    3    3    0    0 -0.31884619226E+01 -0.11622488521E+01  0.52336282424E+00  0.34338055379E+01  0.00000000000E+00 0. -1.
</event>
<event>
 7    1  0.5411321E-010  0.4778727E+02  0.7816164E-02  0.1312668E+00
        -11   -1    0    0    0    0  0.00000000000E+00  0.00000000000E+00  0.45593999997E+02  0.45594000000E+02  0.51100000000E-03 0.  1.
         11   -1    0    0    0    0 -0.00000000000E+00 -0.00000000000E+00 -0.45593999997E+02  0.45594000000E+02  0.51100000000E-03 0. -1.
    9900012    2    1    2    0    0 -0.21721886398E+02 -0.19794559577E+02  0.31936784182E+02  0.47787272801E+02  0.20000008011E+02 0.  0.
         12    1    1    2    0    0  0.21721886398E+02  0.19794559577E+02 -0.31936784182E+02  0.43400727199E+02  0.00000000000E+00 0. -1.
         11    1    3    3    0    0  0.29538506369E+01 -0.37499027721E-01  0.51455049475E+01  0.59331999114E+01  0.51100000000E-03 0. -1.
        -11    1    3    3    0    0 -0.20135168503E+02 -0.18709514062E+02  0.23270243312E+02  0.36013541220E+02  0.51100000000E-03 0.  1.
         12    1    3    3    0    0 -0.45405685314E+01 -0.10475464863E+01  0.35210359217E+01  0.58405316702E+01  0.00000000000E+00 0. -1.
</event>
<event>
 7    1  0.5411321E-010  0.4778727E+02  0.7816164E-02  0.1312668E+00
        -11   -1    0    0    0    0  0.00000000000E+00  0.00000000000E+00  0.45593999997E+02  0.45594000000E+02  0.51100000000E-03 0.  1.
         11   -1    0    0    0    0 -0.00000000000E+00 -0.00000000000E+00 -0.45593999997E+02  0.45594000000E+02  0.51100000000E-03 0. -1.
    9900012    2    1    2    0    0 -0.55808286375E+01 -0.34582180284E+02  0.25623241316E+02  0.47787270317E+02  0.19999996684E+02 0.  0.
         12    1    1    2    0    0  0.55808286375E+01  0.34582180284E+02 -0.25623241316E+02  0.43400729683E+02  0.00000000000E+00 0. -1.
         11    1    3    3    0    0 -0.30382469845E+00  0.58302585471E+00 -0.11301256891E+01  0.13074451916E+01  0.51100000000E-03 0. -1.
        -11    1    3    3    0    0  0.40290372980E+01 -0.54238124909E+01  0.35923094769E+01  0.76521612061E+01  0.51100000000E-03 0.  1.
        -12    1    3    3    0    0 -0.93060412371E+01 -0.29741393648E+02  0.23161057528E+02  0.38827663919E+02  0.00000000000E+00 0.  1.
</event>
<event>
 7    1  0.5411321E-010  0.4778727E+02  0.7816164E-02  0.1312668E+00
        -11   -1    0    0    0    0  0.00000000000E+00  0.00000000000E+00  0.45593999997E+02  0.45594000000E+02  0.51100000000E-03 0.  1.
         11   -1    0    0    0    0 -0.00000000000E+00 -0.00000000000E+00 -0.45593999997E+02  0.45594000000E+02  0.51100000000E-03 0. -1.
    9900012    2    1    2    0    0  0.39079441031E+02 -0.18462525302E+02 -0.39440796675E+01  0.47787270556E+02  0.19999997773E+02 0.  0.
         12    1    1    2    0    0 -0.39079441031E+02  0.18462525302E+02  0.39440796675E+01  0.43400729444E+02  0.00000000000E+00 0. -1.
         11    1    3    3    0    0  0.42230678630E+01  0.17949953615E+01  0.21905633317E+01  0.50847692666E+01  0.51100000000E-03 0.  1.
        -11    1    3    3    0    0 -0.31766192367E+00  0.98510281528E+00 -0.70981162528E+00  0.12550575520E+01  0.51100000000E-03 0. -1.
         12    1    3    3    0    0  0.35174035092E+02 -0.21242623479E+02 -0.54248313739E+01  0.41447443737E+02  0.00000000000E+00 0. -1.
</event>
<event>
 7    1  0.5411321E-010  0.4778727E+02  0.7816164E-02  0.1312668E+00
        -11   -1    0    0    0    0  0.00000000000E+00  0.00000000000E+00  0.45593999997E+02  0.45594000000E+02  0.51100000000E-03 0. -1.
         11   -1    0    0    0    0 -0.00000000000E+00 -0.00000000000E+00 -0.45593999997E+02  0.45594000000E+02  0.51100000000E-03 0.  1.
    9900012    2    1    2    0    0  0.41679373149E+02  0.26095707961E+01 -0.11817083466E+02  0.47787268814E+02  0.19999989830E+02 0.  0.
         12    1    1    2    0    0 -0.41679373149E+02 -0.26095707961E+01  0.11817083466E+02  0.43400731186E+02  0.00000000000E+00 0. -1.
         11    1    3    3    0    0  0.66203490084E+01 -0.25318849235E+01 -0.84745383966E+01  0.11047952912E+02  0.51100000000E-03 0. -1.
        -11    1    3    3    0    0  0.21503208223E+02  0.68261708488E+01  0.44071866609E+00  0.22564990706E+02  0.51100000000E-03 0.  1.
         12    1    3    3    0    0  0.13555815918E+02 -0.16847151292E+01 -0.37832637358E+01  0.14174325196E+02  0.00000000000E+00 0. -1.
</event>
<event>
 7    1  0.5411321E-010  0.4778727E+02  0.7816164E-02  0.1312668E+00
        -11   -1    0    0    0    0  0.00000000000E+00  0.00000000000E+00  0.45593999997E+02  0.45594000000E+02  0.51100000000E-03 0. -1.
         11   -1    0    0    0    0 -0.00000000000E+00 -0.00000000000E+00 -0.45593999997E+02  0.45594000000E+02  0.51100000000E-03 0.  1.
    9900012    2    1    2    0    0  0.16016604627E+02  0.36490435767E+02 -0.17191274295E+02  0.47787269152E+02  0.19999991370E+02 0.  0.
         12    1    1    2    0    0 -0.16016604627E+02 -0.36490435767E+02  0.17191274295E+02  0.43400730848E+02  0.00000000000E+00 0. -1.
         11    1    3    3    0    0 -0.14720738781E+01  0.14418228199E+01 -0.43046407999E+00  0.21050306724E+01  0.51100000000E-03 0. -1.
        -11    1    3    3    0    0  0.10885335761E+02  0.59567253030E+01 -0.26823796644E+01  0.12695206650E+02  0.51100000000E-03 0.  1.
        -12    1    3    3    0    0  0.66033427443E+01  0.29091887644E+02 -0.14078430551E+02  0.32987031829E+02  0.00000000000E+00 0.  1.
</event>
<event>
 7    1  0.5411321E-010  0.4778727E+02  0.7816164E-02  0.1312668E+00
        -11   -1    0    0    0    0  0.00000000000E+00  0.00000000000E+00  0.45593999997E+02  0.45594000000E+02  0.51100000000E-03 0.  1.
         11   -1    0    0    0    0 -0.00000000000E+00 -0.00000000000E+00 -0.45593999997E+02  0.45594000000E+02  0.51100000000E-03 0. -1.
    9900012    2    1    2    0    0  0.41076365578E+02 -0.76012531622E+01  0.11771850310E+02  0.47787270531E+02  0.19999997660E+02 0.  0.
         12    1    1    2    0    0 -0.41076365578E+02  0.76012531622E+01 -0.11771850310E+02  0.43400729469E+02  0.00000000000E+00 0. -1.
         11    1    3    3    0    0  0.29708616868E+01  0.92310716045E+00 -0.96756210637E+00  0.32579629652E+01  0.51100000000E-03 0.  1.
        -11    1    3    3    0    0  0.58770919014E+01  0.46702768751E+01  0.44673924935E+01  0.87355189462E+01  0.51100000000E-03 0. -1.
        -12    1    3    3    0    0  0.32228411989E+02 -0.13194637198E+02  0.82720199232E+01  0.35793788620E+02  0.00000000000E+00 0.  1.
</event>
<event>
 7    1  0.5411321E-010  0.4778727E+02  0.7816164E-02  0.1312668E+00
        -11   -1    0    0    0    0  0.00000000000E+00  0.00000000000E+00  0.45593999997E+02  0.45594000000E+02  0.51100000000E-03 0. -1.
         11   -1    0    0    0    0 -0.00000000000E+00 -0.00000000000E+00 -0.45593999997E+02  0.45594000000E+02  0.51100000000E-03 0.  1.
    9900012    2    1    2    0    0  0.41331506209E+02 -0.47889918292E+01  0.12344851896E+02  0.47787271705E+02  0.20000003011E+02 0.  0.
         12    1    1    2    0    0 -0.41331506209E+02  0.47889918292E+01 -0.12344851896E+02  0.43400728295E+02  0.00000000000E+00 0. -1.
         11    1    3    3    0    0  0.41221121455E+01  0.22886021613E+01 -0.23790675010E+01  0.52810482698E+01  0.51100000000E-03 0. -1.
        -11    1    3    3    0    0  0.27181217767E+02 -0.90662242131E+01  0.14869283527E+02  0.32281738083E+02  0.51100000000E-03 0.  1.
        -12    1    3    3    0    0  0.10028176296E+02  0.19886302226E+01 -0.14536412979E+00  0.10224485352E+02  0.00000000000E+00 0.  1.
</event>
<event>
 7    1  0.5411321E-010  0.4778727E+02  0.7816164E-02  0.1312668E+00
        -11   -1    0    0    0    0  0.00000000000E+00  0.00000000000E+00  0.45593999997E+02  0.45594000000E+02  0.51100000000E-03 0. -1.
         11   -1    0    0    0    0 -0.00000000000E+00 -0.00000000000E+00 -0.45593999997E+02  0.45594000000E+02  0.51100000000E-03 0.  1.
    9900012    2    1    2    0    0 -0.10146306213E+02  0.12112113055E+02 -0.40422424086E+02  0.47787272109E+02  0.20000004856E+02 0.  0.
         12    1    1    2    0    0  0.10146306213E+02 -0.12112113055E+02  0.40422424086E+02  0.43400727891E+02  0.00000000000E+00 0. -1.
         11    1    3    3    0    0 -0.19861673818E+01 -0.14994792195E+00 -0.25340924482E+01  0.32231925237E+01  0.51100000000E-03 0. -1.
        -11    1    3    3    0    0 -0.10715320447E+02  0.13551107106E+02 -0.19913402635E+02  0.26362742666E+02  0.51100000000E-03 0.  1.
        -12    1    3    3    0    0  0.25551816157E+01 -0.12890461293E+01 -0.17974929003E+02  0.18201336920E+02  0.00000000000E+00 0.  1.
</event>
<event>
 7    1  0.5411321E-010  0.4778727E+02  0.7816164E-02  0.1312668E+00
        -11   -1    0    0    0    0  0.00000000000E+00  0.00000000000E+00  0.45593999997E+02  0.45594000000E+02  0.51100000000E-03 0.  1.
         11   -1    0    0    0    0 -0.00000000000E+00 -0.00000000000E+00 -0.45593999997E+02  0.45594000000E+02  0.51100000000E-03 0. -1.
    9900012    2    1    2    0    0  0.14396438265E+02 -0.35314587202E+02  0.20718239982E+02  0.47787274523E+02  0.20000015860E+02 0.  0.
         12    1    1    2    0    0 -0.14396438265E+02  0.35314587202E+02 -0.20718239982E+02  0.43400725477E+02  0.00000000000E+00 0. -1.
         11    1    3    3    0    0  0.56725906754E+00 -0.13035458138E+02  0.15460577587E+02  0.20230531662E+02  0.51100000000E-03 0. -1.
        -11    1    3    3    0    0  0.82472392992E+01 -0.18649829442E+02  0.38932303983E+01  0.20760306777E+02  0.51100000000E-03 0.  1.
        -12    1    3    3    0    0  0.55819398985E+01 -0.36292996214E+01  0.13644319965E+01  0.67964360841E+01  0.00000000000E+00 0.  1.
</event>
<event>
 7    1  0.5659013E-010  0.4778727E+02  0.7816164E-02  0.1312668E+00
        -11   -1    0    0    0    0  0.00000000000E+00  0.00000000000E+00  0.45593999997E+02  0.45594000000E+02  0.51100000000E-03 0. -1.
         11   -1    0    0    0    0 -0.00000000000E+00 -0.00000000000E+00 -0.45593999997E+02  0.45594000000E+02  0.51100000000E-03 0.  1.
    9900012    2    1    2    0    0  0.35375316416E+02 -0.85010394403E+01 -0.23663105922E+02  0.47787271147E+02  0.20000000468E+02 0.  0.
         12    1    1    2    0    0 -0.35375316416E+02  0.85010394403E+01  0.23663105922E+02  0.43400728853E+02  0.00000000000E+00 0. -1.
         11    1    3    3    0    0  0.15764547862E+01  0.29575832753E+01 -0.27213115914E+01  0.43171802791E+01  0.51100000000E-03 0. -1.
        -11    1    3    3    0    0  0.17884126572E+02 -0.12814378495E+02 -0.13822536687E+02  0.25982932864E+02  0.51100000000E-03 0.  1.
        -12    1    3    3    0    0  0.15914735057E+02  0.13557557791E+01 -0.71192576436E+01  0.17487158004E+02  0.00000000000E+00 0.  1.
</event>
<event>
 7    1  0.5411321E-010  0.4778727E+02  0.7816164E-02  0.1312668E+00
        -11   -1    0    0    0    0  0.00000000000E+00  0.00000000000E+00  0.45593999997E+02  0.45594000000E+02  0.51100000000E-03 0.  1.
         11   -1    0    0    0    0 -0.00000000000E+00 -0.00000000000E+00 -0.45593999997E+02  0.45594000000E+02  0.51100000000E-03 0. -1.
    9900012    2    1    2    0    0 -0.29740393021E+02 -0.30543510631E+02  0.81379406395E+01  0.47787273087E+02  0.20000009312E+02 0.  0.
         12    1    1    2    0    0  0.29740393021E+02  0.30543510631E+02 -0.81379406395E+01  0.43400726913E+02  0.00000000000E+00 0. -1.
         11    1    3    3    0    0 -0.17523539686E+01 -0.97547567651E+01 -0.17353110626E+01  0.10061676238E+02  0.51100000000E-03 0. -1.
        -11    1    3    3    0    0 -0.19781094153E+02 -0.20053046277E+02  0.74287911109E+01  0.29130796222E+02  0.51100000000E-03 0.  1.
         12    1    3    3    0    0 -0.82069448992E+01 -0.73570758986E+00  0.24444605913E+01  0.85948006270E+01  0.00000000000E+00 0. -1.
</event>
<event>
 7    1  0.5411321E-010  0.4778726E+02  0.7816164E-02  0.1312668E+00
        -11   -1    0    0    0    0  0.00000000000E+00  0.00000000000E+00  0.45593999997E+02  0.45594000000E+02  0.51100000000E-03 0.  1.
         11   -1    0    0    0    0 -0.00000000000E+00 -0.00000000000E+00 -0.45593999997E+02  0.45594000000E+02  0.51100000000E-03 0. -1.
    9900012    2    1    2    0    0  0.19282170508E+02  0.29346852682E+02  0.25506550721E+02  0.47787262777E+02  0.19999962307E+02 0.  0.
         12    1    1    2    0    0 -0.19282170508E+02 -0.29346852682E+02 -0.25506550721E+02  0.43400737223E+02  0.00000000000E+00 0. -1.
         11    1    3    3    0    0  0.76114309967E+01  0.66604949187E+01 -0.47728292348E+00  0.10125407332E+02  0.51100000000E-03 0. -1.
        -11    1    3    3    0    0  0.68100110497E+01  0.64653347187E+01  0.14228840374E+02  0.17048070336E+02  0.51100000000E-03 0.  1.
         12    1    3    3    0    0  0.48607284614E+01  0.16221023044E+02  0.11754993270E+02  0.20613785110E+02  0.00000000000E+00 0. -1.
</event>
<event>
 7    1  0.5411321E-010  0.4778727E+02  0.7816164E-02  0.1312668E+00
        -11   -1    0    0    0    0  0.00000000000E+00  0.00000000000E+00  0.45593999997E+02  0.45594000000E+02  0.51100000000E-03 0. -1.
         11   -1    0    0    0    0 -0.00000000000E+00 -0.00000000000E+00 -0.45593999997E+02  0.45594000000E+02  0.51100000000E-03 0.  1.
    9900012    2    1    2    0    0 -0.31669375331E+02 -0.24991191190E+02 -0.16003563845E+02  0.47787273892E+02  0.20000012983E+02 0.  0.
         12    1    1    2    0    0  0.31669375331E+02  0.24991191190E+02  0.16003563845E+02  0.43400726108E+02  0.00000000000E+00 0. -1.
         11    1    3    3    0    0 -0.30410461734E+00 -0.60427658686E+00  0.28438088662E+01  0.29231624896E+01  0.51100000000E-03 0. -1.
        -11    1    3    3    0    0 -0.21874775280E+02 -0.21784488426E+02 -0.14192861514E+02  0.33978037727E+02  0.51100000000E-03 0.  1.
        -12    1    3    3    0    0 -0.94904954337E+01 -0.26024261774E+01 -0.46545111973E+01  0.10886073676E+02  0.00000000000E+00 0.  1.
</event>
<event>
 7    1  0.5411321E-010  0.4778727E+02  0.7816164E-02  0.1312668E+00
        -11   -1    0    0    0    0  0.00000000000E+00  0.00000000000E+00  0.45593999997E+02  0.45594000000E+02  0.51100000000E-03 0.  1.
         11   -1    0    0    0    0 -0.00000000000E+00 -0.00000000000E+00 -0.45593999997E+02  0.45594000000E+02  0.51100000000E-03 0. -1.
    9900012    2    1    2    0    0 -0.18894008614E+02  0.35818018573E+02  0.15611190969E+02  0.47787270749E+02  0.19999998655E+02 0.  0.
         12    1    1    2    0    0  0.18894008614E+02 -0.35818018573E+02 -0.15611190969E+02  0.43400729251E+02  0.00000000000E+00 0. -1.
         11    1    3    3    0    0 -0.74244337456E+01  0.15538555843E+02 -0.24756014026E+01  0.17398204985E+02  0.51100000000E-03 0. -1.
        -11    1    3    3    0    0 -0.27389229378E+01  0.96353165728E+01  0.42846083557E+01  0.10894902172E+02  0.51100000000E-03 0.  1.
         12    1    3    3    0    0 -0.87306519308E+01  0.10644146157E+02  0.13802184016E+02  0.19494163592E+02  0.00000000000E+00 0. -1.
</event>
<event>
 7    1  0.5411321E-010  0.4778727E+02  0.7816164E-02  0.1312668E+00
        -11   -1    0    0    0    0  0.00000000000E+00  0.00000000000E+00  0.45593999997E+02  0.45594000000E+02  0.51100000000E-03 0.  1.
         11   -1    0    0    0    0 -0.00000000000E+00 -0.00000000000E+00 -0.45593999997E+02  0.45594000000E+02  0.51100000000E-03 0. -1.
    9900012    2    1    2    0    0 -0.15341398585E+02 -0.69932845781E+00  0.40592804812E+02  0.47787269899E+02  0.19999994776E+02 0.  0.
         12    1    1    2    0    0  0.15341398585E+02  0.69932845781E+00 -0.40592804812E+02  0.43400730101E+02  0.00000000000E+00 0. -1.
         11    1    3    3    0    0 -0.41155426167E+00  0.35541583937E+01  0.73739959130E+00  0.36531051472E+01  0.51100000000E-03 0. -1.
        -11    1    3    3    0    0 -0.11429333772E+02 -0.67180143881E+01  0.36034717369E+02  0.38396122772E+02  0.51100000000E-03 0.  1.
         12    1    3    3    0    0 -0.35005105518E+01  0.24645275366E+01  0.38206878517E+01  0.57380419798E+01  0.00000000000E+00 0. -1.
</event>
<event>
 7    1  0.5411321E-010  0.4778726E+02  0.7816164E-02  0.1312668E+00
        -11   -1    0    0    0    0  0.00000000000E+00  0.00000000000E+00  0.45593999997E+02  0.45594000000E+02  0.51100000000E-03 0.  1.
         11   -1    0    0    0    0 -0.00000000000E+00 -0.00000000000E+00 -0.45593999997E+02  0.45594000000E+02  0.51100000000E-03 0. -1.
    9900012    2    1    2    0    0  0.32692786838E+02 -0.20873876644E+02  0.19470153730E+02  0.47787263558E+02  0.19999965867E+02 0.  0.
         12    1    1    2    0    0 -0.32692786838E+02  0.20873876644E+02 -0.19470153730E+02  0.43400736442E+02  0.00000000000E+00 0. -1.
         11    1    3    3    0    0  0.11435536403E+02 -0.66575727434E+00  0.62890115915E+00  0.11472150735E+02  0.51100000000E-03 0. -1.
        -11    1    3    3    0    0  0.18482120686E+02 -0.19858632225E+02  0.13536586796E+02  0.30318199835E+02  0.51100000000E-03 0.  1.
         12    1    3    3    0    0  0.27751297498E+01 -0.34948714464E+00  0.53046657756E+01  0.59969129878E+01  0.00000000000E+00 0. -1.
</event>
<event>
 7    1  0.5411321E-010  0.4778727E+02  0.7816164E-02  0.1312668E+00
        -11   -1    0    0    0    0  0.00000000000E+00  0.00000000000E+00  0.45593999997E+02  0.45594000000E+02  0.51100000000E-03 0. -1.
         11   -1    0    0    0    0 -0.00000000000E+00 -0.00000000000E+00 -0.45593999997E+02  0.45594000000E+02  0.51100000000E-03 0.  1.
    9900012    2    1    2    0    0  0.28454787670E+02  0.17755021696E+02 -0.27544648260E+02  0.47787269769E+02  0.19999994186E+02 0.  0.
         12    1    1    2    0    0 -0.28454787670E+02 -0.17755021696E+02  0.27544648260E+02  0.43400730231E+02  0.00000000000E+00 0. -1.
         11    1    3    3    0    0 -0.16123876136E+01  0.43714308815E+01 -0.64923364881E+01  0.79912223786E+01  0.51100000000E-03 0. -1.
        -11    1    3    3    0    0  0.19429573813E+02  0.91321819096E+01 -0.93387962515E+01  0.23411924327E+02  0.51100000000E-03 0.  1.
         12    1    3    3    0    0  0.10637601470E+02  0.42514089051E+01 -0.11713515521E+02  0.16384123064E+02  0.00000000000E+00 0. -1.
</event>
<event>
 7    1  0.5411321E-010  0.4778727E+02  0.7816164E-02  0.1312668E+00
        -11   -1    0    0    0    0  0.00000000000E+00  0.00000000000E+00  0.45593999997E+02  0.45594000000E+02  0.51100000000E-03 0.  1.
         11   -1    0    0    0    0 -0.00000000000E+00 -0.00000000000E+00 -0.45593999997E+02  0.45594000000E+02  0.51100000000E-03 0. -1.
    9900012    2    1    2    0    0 -0.29487257773E+02 -0.31330386869E+00  0.31843782755E+02  0.47787273849E+02  0.20000012788E+02 0.  0.
         12    1    1    2    0    0  0.29487257773E+02  0.31330386869E+00 -0.31843782755E+02  0.43400726151E+02  0.00000000000E+00 0. -1.
         11    1    3    3    0    0  0.41790352016E+00 -0.95776190161E+00 -0.44494033137E+00  0.11357479350E+01  0.51100000000E-03 0. -1.
        -11    1    3    3    0    0 -0.14411707601E+02 -0.54840246397E+01  0.22656909344E+02  0.27406338382E+02  0.51100000000E-03 0.  1.
        -12    1    3    3    0    0 -0.15493453692E+02  0.61284826726E+01  0.96318137427E+01  0.19245187533E+02  0.00000000000E+00 0.  1.
</event>
<event>
 7    1  0.5411321E-010  0.4778726E+02  0.7816164E-02  0.1312668E+00
        -11   -1    0    0    0    0  0.00000000000E+00  0.00000000000E+00  0.45593999997E+02  0.45594000000E+02  0.51100000000E-03 0.  1.
         11   -1    0    0    0    0 -0.00000000000E+00 -0.00000000000E+00 -0.45593999997E+02  0.45594000000E+02  0.51100000000E-03 0. -1.
    9900012    2    1    2    0    0 -0.10322103663E+02 -0.11612876213E+02  0.40524309669E+02  0.47787258162E+02  0.19999941264E+02 0.  0.
         12    1    1    2    0    0  0.10322103663E+02  0.11612876213E+02 -0.40524309669E+02  0.43400741838E+02  0.00000000000E+00 0. -1.
         11    1    3    3    0    0 -0.27769290873E+01 -0.14443136962E+02  0.20616803002E+02  0.25325246431E+02  0.51100000000E-03 0.  1.
        -11    1    3    3    0    0 -0.57984716101E+01  0.35011189068E+01  0.19362606139E+02  0.20513181697E+02  0.51100000000E-03 0. -1.
         12    1    3    3    0    0 -0.17467029651E+01 -0.67085815757E+00  0.54490052763E+00  0.19488300339E+01  0.00000000000E+00 0. -1.
</event>
<event>
 7    1  0.5411321E-010  0.4778727E+02  0.7816164E-02  0.1312668E+00
        -11   -1    0    0    0    0  0.00000000000E+00  0.00000000000E+00  0.45593999997E+02  0.45594000000E+02  0.51100000000E-03 0.  1.
         11   -1    0    0    0    0 -0.00000000000E+00 -0.00000000000E+00 -0.45593999997E+02  0.45594000000E+02  0.51100000000E-03 0. -1.
    9900012    2    1    2    0    0  0.26934785762E+02 -0.24042128053E+02  0.24085610939E+02  0.47787271208E+02  0.20000000747E+02 0.  0.
         12    1    1    2    0    0 -0.26934785762E+02  0.24042128053E+02 -0.24085610939E+02  0.43400728792E+02  0.00000000000E+00 0. -1.
         11    1    3    3    0    0  0.63340826486E+01 -0.78921429149E+01 -0.14787166729E+01  0.10227078080E+02  0.51100000000E-03 0. -1.
        -11    1    3    3    0    0  0.19628317419E+02 -0.11636480339E+02  0.22300810229E+02  0.31906185239E+02  0.51100000000E-03 0.  1.
         12    1    3    3    0    0  0.97238569501E+00 -0.45135047987E+01  0.32635173827E+01  0.56540078895E+01  0.00000000000E+00 0. -1.
</event>
<event>
 7    1  0.5411321E-010  0.4778727E+02  0.7816164E-02  0.1312668E+00
        -11   -1    0    0    0    0  0.00000000000E+00  0.00000000000E+00  0.45593999997E+02  0.45594000000E+02  0.51100000000E-03 0. -1.
         11   -1    0    0    0    0 -0.00000000000E+00 -0.00000000000E+00 -0.45593999997E+02  0.45594000000E+02  0.51100000000E-03 0.  1.
    9900012    2    1    2    0    0 -0.14451362288E+02 -0.39849284440E+02 -0.93175026022E+01  0.47787271929E+02  0.20000004032E+02 0.  0.
         12    1    1    2    0    0  0.14451362288E+02  0.39849284440E+02  0.93175026022E+01  0.43400728071E+02  0.00000000000E+00 0. -1.
         11    1    3    3    0    0  0.29996530030E+01 -0.17097288365E+01 -0.19082274764E+01  0.39449237249E+01  0.51100000000E-03 0. -1.
        -11    1    3    3    0    0 -0.18134661930E+02 -0.36562411718E+02 -0.53530225209E+01  0.41162249262E+02  0.51100000000E-03 0.  1.
        -12    1    3    3    0    0  0.68364663895E+00 -0.15771438855E+01 -0.20562526048E+01  0.26800989417E+01  0.00000000000E+00 0.  1.
</event>
<event>
 7    1  0.5411321E-010  0.4778727E+02  0.7816164E-02  0.1312668E+00
        -11   -1    0    0    0    0  0.00000000000E+00  0.00000000000E+00  0.45593999997E+02  0.45594000000E+02  0.51100000000E-03 0.  1.
         11   -1    0    0    0    0 -0.00000000000E+00 -0.00000000000E+00 -0.45593999997E+02  0.45594000000E+02  0.51100000000E-03 0. -1.
    9900012    2    1    2    0    0 -0.29815837473E+02 -0.28103331467E+02  0.14312299029E+02  0.47787270660E+02  0.19999998246E+02 0.  0.
         12    1    1    2    0    0  0.29815837473E+02  0.28103331467E+02 -0.14312299029E+02  0.43400729340E+02  0.00000000000E+00 0. -1.
         11    1    3    3    0    0 -0.10212407524E+02 -0.28561940747E+00  0.49629445022E+01  0.11358066044E+02  0.51100000000E-03 0. -1.
        -11    1    3    3    0    0 -0.11081085622E+02 -0.81210071233E+01  0.32399297009E+01  0.14115181897E+02  0.51100000000E-03 0.  1.
         12    1    3    3    0    0 -0.85223443274E+01 -0.19696704936E+02  0.61094248261E+01  0.22314022718E+02  0.00000000000E+00 0. -1.
</event>
<event>
 7    1  0.5411321E-010  0.4778727E+02  0.7816164E-02  0.1312668E+00
        -11   -1    0    0    0    0  0.00000000000E+00  0.00000000000E+00  0.45593999997E+02  0.45594000000E+02  0.51100000000E-03 0. -1.
         11   -1    0    0    0    0 -0.00000000000E+00 -0.00000000000E+00 -0.45593999997E+02  0.45594000000E+02  0.51100000000E-03 0.  1.
    9900012    2    1    2    0    0  0.27692139596E+02 -0.97894129916E+01 -0.31952091425E+02  0.47787270184E+02  0.19999996077E+02 0.  0.
         12    1    1    2    0    0 -0.27692139596E+02  0.97894129916E+01  0.31952091425E+02  0.43400729816E+02  0.00000000000E+00 0. -1.
         11    1    3    3    0    0 -0.10422356442E+01 -0.49970432085E+00 -0.46608320482E+01  0.48020115773E+01  0.51100000000E-03 0. -1.
        -11    1    3    3    0    0  0.26913405947E+02 -0.68484333529E+01 -0.28421386474E+02  0.39736729463E+02  0.51100000000E-03 0.  1.
        -12    1    3    3    0    0  0.18209692927E+01 -0.24412753178E+01  0.11301270966E+01  0.32485291436E+01  0.00000000000E+00 0.  1.
</event>
<event>
 7    1  0.5411321E-010  0.4778727E+02  0.7816164E-02  0.1312668E+00
        -11   -1    0    0    0    0  0.00000000000E+00  0.00000000000E+00  0.45593999997E+02  0.45594000000E+02  0.51100000000E-03 0. -1.
         11   -1    0    0    0    0 -0.00000000000E+00 -0.00000000000E+00 -0.45593999997E+02  0.45594000000E+02  0.51100000000E-03 0.  1.
    9900012    2    1    2    0    0  0.29603978603E+02 -0.95695542652E+01 -0.30259730929E+02  0.47787271505E+02  0.20000002101E+02 0.  0.
         12    1    1    2    0    0 -0.29603978603E+02  0.95695542652E+01  0.30259730929E+02  0.43400728495E+02  0.00000000000E+00 0. -1.
         11    1    3    3    0    0 -0.96956417297E+00 -0.10424001374E+01 -0.12163375198E+01  0.18724662761E+01  0.51100000000E-03 0.  1.
        -11    1    3    3    0    0  0.91470941204E+01 -0.10333624284E+02 -0.14099464007E+02  0.19729369155E+02  0.51100000000E-03 0. -1.
        -12    1    3    3    0    0  0.21426448656E+02  0.18064701565E+01 -0.14943929402E+02  0.26185436074E+02  0.00000000000E+00 0.  1.
</event>
<event>
 7    1  0.5411321E-010  0.4778727E+02  0.7816164E-02  0.1312668E+00
        -11   -1    0    0    0    0  0.00000000000E+00  0.00000000000E+00  0.45593999997E+02  0.45594000000E+02  0.51100000000E-03 0.  1.
         11   -1    0    0    0    0 -0.00000000000E+00 -0.00000000000E+00 -0.45593999997E+02  0.45594000000E+02  0.51100000000E-03 0. -1.
    9900012    2    1    2    0    0  0.25832618361E+01 -0.23915255019E+02  0.36124927510E+02  0.47787273601E+02  0.20000011657E+02 0.  0.
         12    1    1    2    0    0 -0.25832618361E+01  0.23915255019E+02 -0.36124927510E+02  0.43400726399E+02  0.00000000000E+00 0. -1.
         11    1    3    3    0    0 -0.22442382605E+01 -0.56884452624E+01  0.98099411829E+00  0.61933322690E+01  0.51100000000E-03 0. -1.
        -11    1    3    3    0    0  0.24623182326E+01 -0.81465246572E+01  0.27323929861E+02  0.28618630617E+02  0.51100000000E-03 0.  1.
        -12    1    3    3    0    0  0.23651818639E+01 -0.10080285099E+02  0.78200035310E+01  0.12975310715E+02  0.00000000000E+00 0.  1.
</event>
<event>
 7    1  0.5411321E-010  0.4778727E+02  0.7816164E-02  0.1312668E+00
        -11   -1    0    0    0    0  0.00000000000E+00  0.00000000000E+00  0.45593999997E+02  0.45594000000E+02  0.51100000000E-03 0.  1.
         11   -1    0    0    0    0 -0.00000000000E+00 -0.00000000000E+00 -0.45593999997E+02  0.45594000000E+02  0.51100000000E-03 0. -1.
    9900012    2    1    2    0    0 -0.11850992236E+02 -0.31922894700E+02  0.26909222176E+02  0.47787268887E+02  0.19999990164E+02 0.  0.
         12    1    1    2    0    0  0.11850992236E+02  0.31922894700E+02 -0.26909222176E+02  0.43400731113E+02  0.00000000000E+00 0. -1.
         11    1    3    3    0    0  0.24410777100E+01 -0.41434958961E+01  0.12141703039E+02  0.13059416970E+02  0.51100000000E-03 0. -1.
        -11    1    3    3    0    0 -0.54644528669E+01 -0.14000837674E+02  0.62145006946E+01  0.16263570329E+02  0.51100000000E-03 0.  1.
         12    1    3    3    0    0 -0.88276170795E+01 -0.13778561129E+02  0.85530184424E+01  0.18464281588E+02  0.00000000000E+00 0. -1.
</event>
<event>
 7    1  0.5411321E-010  0.4778727E+02  0.7816164E-02  0.1312668E+00
        -11   -1    0    0    0    0  0.00000000000E+00  0.00000000000E+00  0.45593999997E+02  0.45594000000E+02  0.51100000000E-03 0. -1.
         11   -1    0    0    0    0 -0.00000000000E+00 -0.00000000000E+00 -0.45593999997E+02  0.45594000000E+02  0.51100000000E-03 0.  1.
    9900012    2    1    2    0    0  0.14536612070E+02  0.49480415269E+01 -0.40593437044E+02  0.47787270323E+02  0.19999996712E+02 0.  0.
         12    1    1    2    0    0 -0.14536612070E+02 -0.49480415269E+01  0.40593437044E+02  0.43400729677E+02  0.00000000000E+00 0. -1.
         11    1    3    3    0    0 -0.19478514805E+01 -0.40286391300E+01 -0.73940718110E+01  0.86427054119E+01  0.51100000000E-03 0. -1.
        -11    1    3    3    0    0  0.21333867444E+01  0.19016957048E+01 -0.73425175153E+00  0.29507476087E+01  0.51100000000E-03 0.  1.
         12    1    3    3    0    0  0.14351076806E+02  0.70749849521E+01 -0.32465113481E+02  0.36193817303E+02  0.00000000000E+00 0. -1.
</event>
<event>
 7    1  0.5411321E-010  0.4778727E+02  0.7816164E-02  0.1312668E+00
        -11   -1    0    0    0    0  0.00000000000E+00  0.00000000000E+00  0.45593999997E+02  0.45594000000E+02  0.51100000000E-03 0.  1.
         11   -1    0    0    0    0 -0.00000000000E+00 -0.00000000000E+00 -0.45593999997E+02  0.45594000000E+02  0.51100000000E-03 0. -1.
    9900012    2    1    2    0    0  0.80472412674E+01  0.30919109472E+02  0.29374709491E+02  0.47787274427E+02  0.20000015422E+02 0.  0.
         12    1    1    2    0    0 -0.80472412674E+01 -0.30919109472E+02 -0.29374709491E+02  0.43400725573E+02  0.00000000000E+00 0. -1.
         11    1    3    3    0    0  0.47181245805E+01  0.42930113775E+01  0.14406074795E+02  0.15755178117E+02  0.51100000000E-03 0. -1.
        -11    1    3    3    0    0  0.13158791382E+01  0.19216076844E+02  0.14902609571E+02  0.24353170624E+02  0.51100000000E-03 0.  1.
         12    1    3    3    0    0  0.20132375487E+01  0.74100212512E+01  0.66025125778E-01  0.76789256858E+01  0.00000000000E+00 0. -1.
</event>
<event>
 7    1  0.5411321E-010  0.4778727E+02  0.7816164E-02  0.1312668E+00
        -11   -1    0    0    0    0  0.00000000000E+00  0.00000000000E+00  0.45593999997E+02  0.45594000000E+02  0.51100000000E-03 0.  1.
         11   -1    0    0    0    0 -0.00000000000E+00 -0.00000000000E+00 -0.45593999997E+02  0.45594000000E+02  0.51100000000E-03 0. -1.
    9900012    2    1    2    0    0  0.11414511759E+02 -0.32843156044E+02  0.25974204869E+02  0.47787270787E+02  0.19999998827E+02 0.  0.
         12    1    1    2    0    0 -0.11414511759E+02  0.32843156044E+02 -0.25974204869E+02  0.43400729213E+02  0.00000000000E+00 0. -1.
         11    1    3    3    0    0 -0.39298608301E+01 -0.17323954238E+01  0.26128117631E+01  0.50271050933E+01  0.51100000000E-03 0. -1.
        -11    1    3    3    0    0  0.78030383275E+01 -0.19090182002E+02  0.87828666870E+01  0.22415646400E+02  0.51100000000E-03 0.  1.
         12    1    3    3    0    0  0.75413342620E+01 -0.12020578619E+02  0.14578526419E+02  0.20344519294E+02  0.00000000000E+00 0. -1.
</event>
<event>
 7    1  0.5411321E-010  0.4778728E+02  0.7816164E-02  0.1312668E+00
        -11   -1    0    0    0    0  0.00000000000E+00  0.00000000000E+00  0.45593999997E+02  0.45594000000E+02  0.51100000000E-03 0.  1.
         11   -1    0    0    0    0 -0.00000000000E+00 -0.00000000000E+00 -0.45593999997E+02  0.45594000000E+02  0.51100000000E-03 0. -1.
    9900012    2    1    2    0    0  0.17538279057E+02 -0.14407059987E+02  0.36992809235E+02  0.47787279443E+02  0.20000038293E+02 0.  0.
         12    1    1    2    0    0 -0.17538279057E+02  0.14407059987E+02 -0.36992809235E+02  0.43400720557E+02  0.00000000000E+00 0. -1.
         11    1    3    3    0    0 -0.25196310614E+01 -0.60622924375E+01  0.12679763163E+02  0.14278526689E+02  0.51100000000E-03 0. -1.
        -11    1    3    3    0    0  0.13670913216E+02 -0.40541755363E+01  0.20364314187E+02  0.24860319788E+02  0.51100000000E-03 0.  1.
        -12    1    3    3    0    0  0.63869969025E+01 -0.42905920129E+01  0.39487318854E+01  0.86484329653E+01  0.00000000000E+00 0.  1.
</event>
<event>
 7    1  0.5411321E-010  0.4778727E+02  0.7816164E-02  0.1312668E+00
        -11   -1    0    0    0    0  0.00000000000E+00  0.00000000000E+00  0.45593999997E+02  0.45594000000E+02  0.51100000000E-03 0.  1.
         11   -1    0    0    0    0 -0.00000000000E+00 -0.00000000000E+00 -0.45593999997E+02  0.45594000000E+02  0.51100000000E-03 0. -1.
    9900012    2    1    2    0    0 -0.16830408765E+02  0.16810935455E+02  0.36300870202E+02  0.47787269735E+02  0.19999994030E+02 0.  0.
         12    1    1    2    0    0  0.16830408765E+02 -0.16810935455E+02 -0.36300870202E+02  0.43400730265E+02  0.00000000000E+00 0. -1.
         11    1    3    3    0    0 -0.72055468153E+01  0.11546304102E+02  0.70368445783E+01  0.15321691330E+02  0.51100000000E-03 0. -1.
        -11    1    3    3    0    0 -0.10354799227E+02  0.67574928851E+01  0.26452776967E+02  0.29199914155E+02  0.51100000000E-03 0.  1.
         12    1    3    3    0    0  0.72993727728E+00 -0.14928615322E+01  0.28112486566E+01  0.32656642498E+01  0.00000000000E+00 0. -1.
</event>
<event>
 7    1  0.5411321E-010  0.4778727E+02  0.7816164E-02  0.1312668E+00
        -11   -1    0    0    0    0  0.00000000000E+00  0.00000000000E+00  0.45593999997E+02  0.45594000000E+02  0.51100000000E-03 0. -1.
         11   -1    0    0    0    0 -0.00000000000E+00 -0.00000000000E+00 -0.45593999997E+02  0.45594000000E+02  0.51100000000E-03 0.  1.
    9900012    2    1    2    0    0 -0.15792523768E+02  0.39597102622E+02 -0.81418295889E+01  0.47787265766E+02  0.19999975934E+02 0.  0.
         12    1    1    2    0    0  0.15792523768E+02 -0.39597102622E+02  0.81418295889E+01  0.43400734234E+02  0.00000000000E+00 0. -1.
         11    1    3    3    0    0 -0.82517511631E+01  0.18300054686E+02  0.31962114338E+01  0.20327301015E+02  0.51100000000E-03 0. -1.
        -11    1    3    3    0    0 -0.30557551491E+01  0.13846514001E+02 -0.12220376783E+02  0.18719006344E+02  0.51100000000E-03 0.  1.
        -12    1    3    3    0    0 -0.44850174557E+01  0.74505339345E+01  0.88233576033E+00  0.87409584074E+01  0.00000000000E+00 0.  1.
</event>
<event>
 7    1  0.5411321E-010  0.4778727E+02  0.7816164E-02  0.1312668E+00
        -11   -1    0    0    0    0  0.00000000000E+00  0.00000000000E+00  0.45593999997E+02  0.45594000000E+02  0.51100000000E-03 0. -1.
         11   -1    0    0    0    0 -0.00000000000E+00 -0.00000000000E+00 -0.45593999997E+02  0.45594000000E+02  0.51100000000E-03 0.  1.
    9900012    2    1    2    0    0  0.10728907911E+02 -0.41818992495E+02 -0.44368395922E+01  0.47787272543E+02  0.20000006831E+02 0.  0.
         12    1    1    2    0    0 -0.10728907911E+02  0.41818992495E+02  0.44368395922E+01  0.43400727457E+02  0.00000000000E+00 0. -1.
         11    1    3    3    0    0 -0.89596788560E+00  0.43048557729E-02 -0.78887632015E+00  0.11937768189E+01  0.51100000000E-03 0. -1.
        -11    1    3    3    0    0 -0.49144969254E+00 -0.19381698103E+02  0.43409909129E+01  0.19867962818E+02  0.51100000000E-03 0.  1.
        -12    1    3    3    0    0  0.12116325489E+02 -0.22441599247E+02 -0.79889541849E+01  0.26725532906E+02  0.00000000000E+00 0.  1.
</event>
<event>
 7    1  0.5411321E-010  0.4778727E+02  0.7816164E-02  0.1312668E+00
        -11   -1    0    0    0    0  0.00000000000E+00  0.00000000000E+00  0.45593999997E+02  0.45594000000E+02  0.51100000000E-03 0. -1.
         11   -1    0    0    0    0 -0.00000000000E+00 -0.00000000000E+00 -0.45593999997E+02  0.45594000000E+02  0.51100000000E-03 0.  1.
    9900012    2    1    2    0    0 -0.19322724628E+02  0.14967443183E+02 -0.35864063729E+02  0.47787272936E+02  0.20000008626E+02 0.  0.
         12    1    1    2    0    0  0.19322724628E+02 -0.14967443183E+02  0.35864063729E+02  0.43400727064E+02  0.00000000000E+00 0. -1.
         11    1    3    3    0    0 -0.72497108430E+01  0.34516122047E+01 -0.28098182278E+02  0.29222932463E+02  0.51100000000E-03 0. -1.
        -11    1    3    3    0    0 -0.77504795194E+01  0.83011281250E+01 -0.62740943719E+01  0.12974703133E+02  0.51100000000E-03 0.  1.
         12    1    3    3    0    0 -0.43225342658E+01  0.32147028536E+01 -0.14917870788E+01  0.55896373410E+01  0.00000000000E+00 0. -1.
</event>
<event>
 7    1  0.5411321E-010  0.4778727E+02  0.7816164E-02  0.1312668E+00
        -11   -1    0    0    0    0  0.00000000000E+00  0.00000000000E+00  0.45593999997E+02  0.45594000000E+02  0.51100000000E-03 0.  1.
         11   -1    0    0    0    0 -0.00000000000E+00 -0.00000000000E+00 -0.45593999997E+02  0.45594000000E+02  0.51100000000E-03 0. -1.
    9900012    2    1    2    0    0  0.39903262327E+02  0.13020327511E+02  0.11037390036E+02  0.47787271301E+02  0.20000001169E+02 0.  0.
         12    1    1    2    0    0 -0.39903262327E+02 -0.13020327511E+02 -0.11037390036E+02  0.43400728699E+02  0.00000000000E+00 0. -1.
         11    1    3    3    0    0  0.79999703834E+01  0.10249302599E+02  0.16899639978E+01  0.13111205454E+02  0.51100000000E-03 0. -1.
        -11    1    3    3    0    0  0.24292943777E+02 -0.19034118648E+01  0.79794676980E+01  0.25640631799E+02  0.51100000000E-03 0.  1.
        -12    1    3    3    0    0  0.76103481669E+01  0.46744367768E+01  0.13679583397E+01  0.90354340472E+01  0.00000000000E+00 0.  1.
</event>
<event>
 7    1  0.5411321E-010  0.4778727E+02  0.7816164E-02  0.1312668E+00
        -11   -1    0    0    0    0  0.00000000000E+00  0.00000000000E+00  0.45593999997E+02  0.45594000000E+02  0.51100000000E-03 0.  1.
         11   -1    0    0    0    0 -0.00000000000E+00 -0.00000000000E+00 -0.45593999997E+02  0.45594000000E+02  0.51100000000E-03 0. -1.
    9900012    2    1    2    0    0 -0.10000871586E+02 -0.28020664595E+02  0.31598237198E+02  0.47787266471E+02  0.19999979147E+02 0.  0.
         12    1    1    2    0    0  0.10000871586E+02  0.28020664595E+02 -0.31598237198E+02  0.43400733529E+02  0.00000000000E+00 0. -1.
         11    1    3    3    0    0  0.29259953612E+01 -0.67076415485E+01  0.51250656656E+01  0.89342152613E+01  0.51100000000E-03 0. -1.
        -11    1    3    3    0    0 -0.10472779291E+02 -0.12814686800E+02  0.24854842581E+02  0.29860651431E+02  0.51100000000E-03 0.  1.
        -12    1    3    3    0    0 -0.24540876559E+01 -0.84983362470E+01  0.16183289512E+01  0.89923997790E+01  0.00000000000E+00 0.  1.
</event>
<event>
 7    1  0.5411321E-010  0.4778727E+02  0.7816164E-02  0.1312668E+00
        -11   -1    0    0    0    0  0.00000000000E+00  0.00000000000E+00  0.45593999997E+02  0.45594000000E+02  0.51100000000E-03 0.  1.
         11   -1    0    0    0    0 -0.00000000000E+00 -0.00000000000E+00 -0.45593999997E+02  0.45594000000E+02  0.51100000000E-03 0. -1.
    9900012    2    1    2    0    0 -0.27871927802E+02  0.31297792538E+02  0.11279507187E+02  0.47787268905E+02  0.19999990247E+02 0.  0.
         12    1    1    2    0    0  0.27871927802E+02 -0.31297792538E+02 -0.11279507187E+02  0.43400731095E+02  0.00000000000E+00 0. -1.
         11    1    3    3    0    0 -0.38306485920E+01  0.85199954316E+01  0.90478997227E+01  0.13004948306E+02  0.51100000000E-03 0. -1.
        -11    1    3    3    0    0 -0.13801527092E+02  0.13366600749E+02 -0.38632463722E+01  0.19597776365E+02  0.51100000000E-03 0.  1.
        -12    1    3    3    0    0 -0.10239752118E+02  0.94111963581E+01  0.60948538366E+01  0.15184544235E+02  0.00000000000E+00 0.  1.
</event>
<event>
 7    1  0.5411321E-010  0.4778727E+02  0.7816164E-02  0.1312668E+00
        -11   -1    0    0    0    0  0.00000000000E+00  0.00000000000E+00  0.45593999997E+02  0.45594000000E+02  0.51100000000E-03 0. -1.
         11   -1    0    0    0    0 -0.00000000000E+00 -0.00000000000E+00 -0.45593999997E+02  0.45594000000E+02  0.51100000000E-03 0.  1.
    9900012    2    1    2    0    0  0.28034715144E+02  0.32501560373E+02  0.64285922617E+01  0.47787268689E+02  0.19999989262E+02 0.  0.
         12    1    1    2    0    0 -0.28034715144E+02 -0.32501560373E+02 -0.64285922617E+01  0.43400731311E+02  0.00000000000E+00 0. -1.
         11    1    3    3    0    0  0.36958559448E+01  0.18618780195E+02  0.18297681380E+01  0.19070038773E+02  0.51100000000E-03 0. -1.
        -11    1    3    3    0    0  0.16465628276E+02  0.71335914721E+01  0.35703171359E+01  0.18296234763E+02  0.51100000000E-03 0.  1.
         12    1    3    3    0    0  0.78732309231E+01  0.67491887056E+01  0.10285069877E+01  0.10420995153E+02  0.00000000000E+00 0. -1.
</event>
<event>
 7    1  0.5411321E-010  0.4778725E+02  0.7816164E-02  0.1312668E+00
        -11   -1    0    0    0    0  0.00000000000E+00  0.00000000000E+00  0.45593999997E+02  0.45594000000E+02  0.51100000000E-03 0.  1.
         11   -1    0    0    0    0 -0.00000000000E+00 -0.00000000000E+00 -0.45593999997E+02  0.45594000000E+02  0.51100000000E-03 0. -1.
    9900012    2    1    2    0    0 -0.35931432340E+01 -0.48171551455E+01  0.42982661106E+02  0.47787253258E+02  0.19999918904E+02 0.  0.
         12    1    1    2    0    0  0.35931432340E+01  0.48171551455E+01 -0.42982661106E+02  0.43400746742E+02  0.00000000000E+00 0. -1.
         11    1    3    3    0    0  0.38624123758E+01  0.89042460314E-01  0.20132141664E+02  0.20499494778E+02  0.51100000000E-03 0. -1.
        -11    1    3    3    0    0 -0.89906882918E+01 -0.33100919175E+00  0.94639432785E+01  0.13057881363E+02  0.51100000000E-03 0.  1.
        -12    1    3    3    0    0  0.15351326820E+01 -0.45751884141E+01  0.13386576164E+02  0.14229877117E+02  0.00000000000E+00 0.  1.
</event>
<event>
 7    1  0.5411321E-010  0.4778727E+02  0.7816164E-02  0.1312668E+00
        -11   -1    0    0    0    0  0.00000000000E+00  0.00000000000E+00  0.45593999997E+02  0.45594000000E+02  0.51100000000E-03 0.  1.
         11   -1    0    0    0    0 -0.00000000000E+00 -0.00000000000E+00 -0.45593999997E+02  0.45594000000E+02  0.51100000000E-03 0. -1.
    9900012    2    1    2    0    0  0.40519248921E+02  0.60517750202E+01  0.14324439140E+02  0.47787273385E+02  0.20000010673E+02 0.  0.
         12    1    1    2    0    0 -0.40519248921E+02 -0.60517750202E+01 -0.14324439140E+02  0.43400726615E+02  0.00000000000E+00 0. -1.
         11    1    3    3    0    0  0.15375040292E+01 -0.36560999738E+00  0.15929666490E+01  0.22439100508E+01  0.51100000000E-03 0. -1.
        -11    1    3    3    0    0  0.14163182461E+02 -0.66368333508E+01  0.35804187547E+01  0.16045644053E+02  0.51100000000E-03 0.  1.
        -12    1    3    3    0    0  0.24818562430E+02  0.13054218368E+02  0.91510537359E+01  0.29497719281E+02  0.00000000000E+00 0.  1.
</event>
<event>
 7    1  0.5411321E-010  0.4778727E+02  0.7816164E-02  0.1312668E+00
        -11   -1    0    0    0    0  0.00000000000E+00  0.00000000000E+00  0.45593999997E+02  0.45594000000E+02  0.51100000000E-03 0.  1.
         11   -1    0    0    0    0 -0.00000000000E+00 -0.00000000000E+00 -0.45593999997E+02  0.45594000000E+02  0.51100000000E-03 0. -1.
    9900012    2    1    2    0    0 -0.11875749275E+02 -0.13242635841E+02  0.39588164877E+02  0.47787267020E+02  0.19999981652E+02 0.  0.
         12    1    1    2    0    0  0.11875749275E+02  0.13242635841E+02 -0.39588164877E+02  0.43400732980E+02  0.00000000000E+00 0. -1.
         11    1    3    3    0    0 -0.90614892104E+01 -0.66112464152E+01  0.16082864435E+02  0.19608102778E+02  0.51100000000E-03 0. -1.
        -11    1    3    3    0    0 -0.11892430240E+01  0.14438990077E+01  0.18385765902E+02  0.18480679949E+02  0.51100000000E-03 0.  1.
        -12    1    3    3    0    0 -0.16250170406E+01 -0.80752884337E+01  0.51195345399E+01  0.96984842926E+01  0.00000000000E+00 0.  1.
</event>
<event>
 7    1  0.5411321E-010  0.4778728E+02  0.7816164E-02  0.1312668E+00
        -11   -1    0    0    0    0  0.00000000000E+00  0.00000000000E+00  0.45593999997E+02  0.45594000000E+02  0.51100000000E-03 0.  1.
         11   -1    0    0    0    0 -0.00000000000E+00 -0.00000000000E+00 -0.45593999997E+02  0.45594000000E+02  0.51100000000E-03 0. -1.
    9900012    2    1    2    0    0  0.11415524777E+01  0.27123841788E+02  0.33861732871E+02  0.47787275485E+02  0.20000020248E+02 0.  0.
         12    1    1    2    0    0 -0.11415524777E+01 -0.27123841788E+02 -0.33861732871E+02  0.43400724515E+02  0.00000000000E+00 0. -1.
         11    1    3    3    0    0  0.48394561370E+01  0.64258728427E+01  0.61297849390E+01  0.10113675947E+02  0.51100000000E-03 0. -1.
        -11    1    3    3    0    0 -0.84348996762E+01  0.15391961274E+02  0.23719018141E+02  0.29506809828E+02  0.51100000000E-03 0.  1.
        -12    1    3    3    0    0  0.47369960169E+01  0.53060076713E+01  0.40129297909E+01  0.81667897107E+01  0.00000000000E+00 0.  1.
</event>
<event>
 7    1  0.5411321E-010  0.4778727E+02  0.7816164E-02  0.1312668E+00
        -11   -1    0    0    0    0  0.00000000000E+00  0.00000000000E+00  0.45593999997E+02  0.45594000000E+02  0.51100000000E-03 0. -1.
         11   -1    0    0    0    0 -0.00000000000E+00 -0.00000000000E+00 -0.45593999997E+02  0.45594000000E+02  0.51100000000E-03 0.  1.
    9900012    2    1    2    0    0 -0.10330345583E+02 -0.38546899954E+02 -0.17060005321E+02  0.47787270542E+02  0.19999997711E+02 0.  0.
         12    1    1    2    0    0  0.10330345583E+02  0.38546899954E+02  0.17060005321E+02  0.43400729458E+02  0.00000000000E+00 0. -1.
         11    1    3    3    0    0 -0.67037564902E+01 -0.85521912202E+01  0.32906390753E+01  0.11353793707E+02  0.51100000000E-03 0. -1.
        -11    1    3    3    0    0 -0.29601980945E+01 -0.23669661342E+02 -0.16358402369E+02  0.28924262638E+02  0.51100000000E-03 0.  1.
         12    1    3    3    0    0 -0.66639099800E+00 -0.63250473912E+01 -0.39922420273E+01  0.75092141978E+01  0.00000000000E+00 0. -1.
</event>
<event>
 7    1  0.5411321E-010  0.4778727E+02  0.7816164E-02  0.1312668E+00
        -11   -1    0    0    0    0  0.00000000000E+00  0.00000000000E+00  0.45593999997E+02  0.45594000000E+02  0.51100000000E-03 0.  1.
         11   -1    0    0    0    0 -0.00000000000E+00 -0.00000000000E+00 -0.45593999997E+02  0.45594000000E+02  0.51100000000E-03 0. -1.
    9900012    2    1    2    0    0  0.11850987523E+02  0.96039743424E+01  0.40631772741E+02  0.47787272074E+02  0.20000004695E+02 0.  0.
         12    1    1    2    0    0 -0.11850987523E+02 -0.96039743424E+01 -0.40631772741E+02  0.43400727926E+02  0.00000000000E+00 0. -1.
         11    1    3    3    0    0  0.15842951655E+01  0.34046337163E+01 -0.18150503185E+00  0.37595832550E+01  0.51100000000E-03 0. -1.
        -11    1    3    3    0    0  0.57647844665E+01  0.10437135721E+01  0.33510603454E+02  0.34018856860E+02  0.51100000000E-03 0.  1.
        -12    1    3    3    0    0  0.45019078913E+01  0.51556270539E+01  0.73026743185E+01  0.10008831959E+02  0.00000000000E+00 0.  1.
</event>
<event>
 7    1  0.5411321E-010  0.4778724E+02  0.7816164E-02  0.1312668E+00
        -11   -1    0    0    0    0  0.00000000000E+00  0.00000000000E+00  0.45593999997E+02  0.45594000000E+02  0.51100000000E-03 0.  1.
         11   -1    0    0    0    0 -0.00000000000E+00 -0.00000000000E+00 -0.45593999997E+02  0.45594000000E+02  0.51100000000E-03 0. -1.
    9900012    2    1    2    0    0 -0.40342360446E+02  0.14619334463E+02 -0.65111107070E+01  0.47787244832E+02  0.19999880488E+02 0.  0.
         12    1    1    2    0    0  0.40342360446E+02 -0.14619334463E+02  0.65111107070E+01  0.43400755168E+02  0.00000000000E+00 0. -1.
         11    1    3    3    0    0 -0.59016761447E+01  0.21352980692E+01  0.32915042451E+01  0.70868384783E+01  0.51100000000E-03 0. -1.
        -11    1    3    3    0    0 -0.35185501153E+02  0.10800741364E+02 -0.11105940890E+02  0.38444992245E+02  0.51100000000E-03 0.  1.
        -12    1    3    3    0    0  0.74481685188E+00  0.16832950299E+01  0.13033259383E+01  0.22554141087E+01  0.00000000000E+00 0.  1.
</event>
<event>
 7    1  0.5411321E-010  0.4778727E+02  0.7816164E-02  0.1312668E+00
        -11   -1    0    0    0    0  0.00000000000E+00  0.00000000000E+00  0.45593999997E+02  0.45594000000E+02  0.51100000000E-03 0.  1.
         11   -1    0    0    0    0 -0.00000000000E+00 -0.00000000000E+00 -0.45593999997E+02  0.45594000000E+02  0.51100000000E-03 0. -1.
    9900012    2    1    2    0    0 -0.24728489126E+02  0.34104792253E+02  0.10439747224E+02  0.47787270154E+02  0.19999995938E+02 0.  0.
         12    1    1    2    0    0  0.24728489126E+02 -0.34104792253E+02 -0.10439747224E+02  0.43400729846E+02  0.00000000000E+00 0. -1.
         11    1    3    3    0    0 -0.21772201282E+01  0.22231526793E+00 -0.19692334925E+01  0.29440775082E+01  0.51100000000E-03 0. -1.
        -11    1    3    3    0    0 -0.24397591736E+02  0.32905552264E+02  0.11381786966E+02  0.42515443396E+02  0.51100000000E-03 0.  1.
        -12    1    3    3    0    0  0.18463227387E+01  0.97692472165E+00  0.10271937510E+01  0.23277492497E+01  0.00000000000E+00 0.  1.
</event>
<event>
 7    1  0.5411321E-010  0.4778727E+02  0.7816164E-02  0.1312668E+00
        -11   -1    0    0    0    0  0.00000000000E+00  0.00000000000E+00  0.45593999997E+02  0.45594000000E+02  0.51100000000E-03 0.  1.
         11   -1    0    0    0    0 -0.00000000000E+00 -0.00000000000E+00 -0.45593999997E+02  0.45594000000E+02  0.51100000000E-03 0. -1.
    9900012    2    1    2    0    0 -0.25331967464E+02 -0.25009263900E+02  0.24828436236E+02  0.47787273020E+02  0.20000009008E+02 0.  0.
         12    1    1    2    0    0  0.25331967464E+02  0.25009263900E+02 -0.24828436236E+02  0.43400726980E+02  0.00000000000E+00 0. -1.
         11    1    3    3    0    0 -0.23030695144E+01  0.27769273656E+01  0.10012225374E+01  0.37440488261E+01  0.51100000000E-03 0. -1.
        -11    1    3    3    0    0 -0.12114937138E+02 -0.20831311367E+02  0.15293107408E+02  0.28541099656E+02  0.51100000000E-03 0.  1.
        -12    1    3    3    0    0 -0.10913960812E+02 -0.69548798989E+01  0.85341062905E+01  0.15502124538E+02  0.00000000000E+00 0.  1.
</event>
<event>
 7    1  0.5411321E-010  0.4778727E+02  0.7816164E-02  0.1312668E+00
        -11   -1    0    0    0    0  0.00000000000E+00  0.00000000000E+00  0.45593999997E+02  0.45594000000E+02  0.51100000000E-03 0.  1.
         11   -1    0    0    0    0 -0.00000000000E+00 -0.00000000000E+00 -0.45593999997E+02  0.45594000000E+02  0.51100000000E-03 0. -1.
    9900012    2    1    2    0    0 -0.46828294710E+01  0.43133041821E+02 -0.11113959408E+01  0.47787269712E+02  0.19999993923E+02 0.  0.
         12    1    1    2    0    0  0.46828294710E+01 -0.43133041821E+02  0.11113959408E+01  0.43400730288E+02  0.00000000000E+00 0. -1.
         11    1    3    3    0    0  0.68529699622E+01  0.16487804040E+02 -0.13570941089E+01  0.17906774808E+02  0.51100000000E-03 0. -1.
        -11    1    3    3    0    0 -0.10796116264E+02  0.20462652187E+02 -0.20897988281E+01  0.23230228589E+02  0.51100000000E-03 0.  1.
        -12    1    3    3    0    0 -0.73968316907E+00  0.61825855946E+01  0.23354969962E+01  0.66502663138E+01  0.00000000000E+00 0.  1.
</event>
<event>
 7    1  0.5411321E-010  0.4778728E+02  0.7816164E-02  0.1312668E+00
        -11   -1    0    0    0    0  0.00000000000E+00  0.00000000000E+00  0.45593999997E+02  0.45594000000E+02  0.51100000000E-03 0.  1.
         11   -1    0    0    0    0 -0.00000000000E+00 -0.00000000000E+00 -0.45593999997E+02  0.45594000000E+02  0.51100000000E-03 0. -1.
    9900012    2    1    2    0    0 -0.16557999494E+02 -0.11918871220E+02  0.38306604548E+02  0.47787276615E+02  0.20000025397E+02 0.  0.
         12    1    1    2    0    0  0.16557999494E+02  0.11918871220E+02 -0.38306604548E+02  0.43400723385E+02  0.00000000000E+00 0. -1.
         11    1    3    3    0    0 -0.64500821339E+01 -0.66992500969E+01  0.25333226570E+02  0.26986216483E+02  0.51100000000E-03 0. -1.
        -11    1    3    3    0    0 -0.12440434029E+02 -0.31664445496E+01  0.86604833189E+01  0.15485307278E+02  0.51100000000E-03 0.  1.
        -12    1    3    3    0    0  0.23325166694E+01 -0.20531765736E+01  0.43128946592E+01  0.53157528532E+01  0.00000000000E+00 0.  1.
</event>
<event>
 7    1  0.5411321E-010  0.4778727E+02  0.7816164E-02  0.1312668E+00
        -11   -1    0    0    0    0  0.00000000000E+00  0.00000000000E+00  0.45593999997E+02  0.45594000000E+02  0.51100000000E-03 0.  1.
         11   -1    0    0    0    0 -0.00000000000E+00 -0.00000000000E+00 -0.45593999997E+02  0.45594000000E+02  0.51100000000E-03 0. -1.
    9900012    2    1    2    0    0  0.31596205568E+02  0.16347862178E+02  0.24860618982E+02  0.47787272123E+02  0.20000004917E+02 0.  0.
         12    1    1    2    0    0 -0.31596205568E+02 -0.16347862178E+02 -0.24860618982E+02  0.43400727877E+02  0.00000000000E+00 0. -1.
         11    1    3    3    0    0  0.18575025102E+02  0.22925262549E+01  0.11402248024E+02  0.21915713413E+02  0.51100000000E-03 0. -1.
        -11    1    3    3    0    0  0.45469956212E+01  0.76475918439E+01  0.22351911839E+00  0.89000444520E+01  0.51100000000E-03 0.  1.
        -12    1    3    3    0    0  0.84741848454E+01  0.64077440790E+01  0.13234851840E+02  0.16971514258E+02  0.00000000000E+00 0.  1.
</event>
<event>
 7    1  0.5411321E-010  0.4778727E+02  0.7816164E-02  0.1312668E+00
        -11   -1    0    0    0    0  0.00000000000E+00  0.00000000000E+00  0.45593999997E+02  0.45594000000E+02  0.51100000000E-03 0.  1.
         11   -1    0    0    0    0 -0.00000000000E+00 -0.00000000000E+00 -0.45593999997E+02  0.45594000000E+02  0.51100000000E-03 0. -1.
    9900012    2    1    2    0    0  0.14001428720E+02  0.26797188509E+02  0.31136698488E+02  0.47787270618E+02  0.19999998054E+02 0.  0.
         12    1    1    2    0    0 -0.14001428720E+02 -0.26797188509E+02 -0.31136698488E+02  0.43400729382E+02  0.00000000000E+00 0. -1.
         11    1    3    3    0    0 -0.18503530514E+01 -0.15492192935E+01  0.40869909240E+01  0.47463019192E+01  0.51100000000E-03 0. -1.
        -11    1    3    3    0    0  0.13017297214E+02  0.22479076409E+02  0.16934576299E+02  0.31008688744E+02  0.51100000000E-03 0.  1.
         12    1    3    3    0    0  0.28344845579E+01  0.58673313936E+01  0.10115131265E+02  0.12032279955E+02  0.00000000000E+00 0. -1.
</event>
<event>
 7    1  0.5411321E-010  0.4778727E+02  0.7816164E-02  0.1312668E+00
        -11   -1    0    0    0    0  0.00000000000E+00  0.00000000000E+00  0.45593999997E+02  0.45594000000E+02  0.51100000000E-03 0.  1.
         11   -1    0    0    0    0 -0.00000000000E+00 -0.00000000000E+00 -0.45593999997E+02  0.45594000000E+02  0.51100000000E-03 0. -1.
    9900012    2    1    2    0    0  0.31071016466E+02 -0.28785871338E+02  0.94651505345E+01  0.47787268121E+02  0.19999986673E+02 0.  0.
         12    1    1    2    0    0 -0.31071016466E+02  0.28785871338E+02 -0.94651505345E+01  0.43400731879E+02  0.00000000000E+00 0. -1.
         11    1    3    3    0    0  0.10377833376E+02 -0.19688355540E+01 -0.26726971377E+01  0.10895827149E+02  0.51100000000E-03 0. -1.
        -11    1    3    3    0    0  0.38895731334E+01 -0.10215838709E+01  0.91903211105E+00  0.41251706689E+01  0.51100000000E-03 0.  1.
         12    1    3    3    0    0  0.16803609957E+02 -0.25795451913E+02  0.11218815561E+02  0.32766270304E+02  0.00000000000E+00 0. -1.
</event>
<event>
 7    1  0.5411321E-010  0.4778727E+02  0.7816164E-02  0.1312668E+00
        -11   -1    0    0    0    0  0.00000000000E+00  0.00000000000E+00  0.45593999997E+02  0.45594000000E+02  0.51100000000E-03 0. -1.
         11   -1    0    0    0    0 -0.00000000000E+00 -0.00000000000E+00 -0.45593999997E+02  0.45594000000E+02  0.51100000000E-03 0.  1.
    9900012    2    1    2    0    0 -0.35551705524E+02 -0.18369505643E+02 -0.16800617412E+02  0.47787271335E+02  0.20000001326E+02 0.  0.
         12    1    1    2    0    0  0.35551705524E+02  0.18369505643E+02  0.16800617412E+02  0.43400728665E+02  0.00000000000E+00 0. -1.
         11    1    3    3    0    0 -0.39115492843E+01  0.39887444277E+01 -0.12247968062E+01  0.57193030512E+01  0.51100000000E-03 0. -1.
        -11    1    3    3    0    0 -0.10021213004E+02 -0.95503283994E+01 -0.70339389054E+01  0.15527710050E+02  0.51100000000E-03 0.  1.
         12    1    3    3    0    0 -0.21618943235E+02 -0.12807921672E+02 -0.85418817001E+01  0.26540258234E+02  0.00000000000E+00 0. -1.
</event>
<event>
 7    1  0.5411321E-010  0.4778727E+02  0.7816164E-02  0.1312668E+00
        -11   -1    0    0    0    0  0.00000000000E+00  0.00000000000E+00  0.45593999997E+02  0.45594000000E+02  0.51100000000E-03 0.  1.
         11   -1    0    0    0    0 -0.00000000000E+00 -0.00000000000E+00 -0.45593999997E+02  0.45594000000E+02  0.51100000000E-03 0. -1.
    9900012    2    1    2    0    0  0.21375187470E+02 -0.24824517307E+02  0.28468722237E+02  0.47787269076E+02  0.19999991027E+02 0.  0.
         12    1    1    2    0    0 -0.21375187470E+02  0.24824517307E+02 -0.28468722237E+02  0.43400730924E+02  0.00000000000E+00 0. -1.
         11    1    3    3    0    0  0.78231383964E+01 -0.18227347232E+02  0.20234279165E+02  0.28334850187E+02  0.51100000000E-03 0. -1.
        -11    1    3    3    0    0  0.11952116428E+02 -0.26580282969E+01  0.89161097845E+01  0.15146458843E+02  0.51100000000E-03 0.  1.
         12    1    3    3    0    0  0.15999326454E+01 -0.39391417775E+01 -0.68166671300E+00  0.43059600464E+01  0.00000000000E+00 0. -1.
</event>
<event>
 7    1  0.5411321E-010  0.4778728E+02  0.7816164E-02  0.1312668E+00
        -11   -1    0    0    0    0  0.00000000000E+00  0.00000000000E+00  0.45593999997E+02  0.45594000000E+02  0.51100000000E-03 0.  1.
         11   -1    0    0    0    0 -0.00000000000E+00 -0.00000000000E+00 -0.45593999997E+02  0.45594000000E+02  0.51100000000E-03 0. -1.
    9900012    2    1    2    0    0 -0.20009166881E+02  0.11679951989E+02  0.36699247912E+02  0.47787276100E+02  0.20000023052E+02 0.  0.
         12    1    1    2    0    0  0.20009166881E+02 -0.11679951989E+02 -0.36699247912E+02  0.43400723900E+02  0.00000000000E+00 0. -1.
         11    1    3    3    0    0 -0.11370128205E+02  0.12609494706E+01  0.96964424348E+01  0.14996359729E+02  0.51100000000E-03 0. -1.
        -11    1    3    3    0    0 -0.86803946663E+01  0.51104132658E+00  0.12569285639E+02  0.15283892061E+02  0.51100000000E-03 0.  1.
         12    1    3    3    0    0  0.41355990495E-01  0.99079611914E+01  0.14433519838E+02  0.17507024310E+02  0.00000000000E+00 0. -1.
</event>
<event>
 7    1  0.5411321E-010  0.4778727E+02  0.7816164E-02  0.1312668E+00
        -11   -1    0    0    0    0  0.00000000000E+00  0.00000000000E+00  0.45593999997E+02  0.45594000000E+02  0.51100000000E-03 0.  1.
         11   -1    0    0    0    0 -0.00000000000E+00 -0.00000000000E+00 -0.45593999997E+02  0.45594000000E+02  0.51100000000E-03 0. -1.
    9900012    2    1    2    0    0  0.28130161089E+02  0.75346405578E+01  0.32179908876E+02  0.47787270669E+02  0.19999998288E+02 0.  0.
         12    1    1    2    0    0 -0.28130161089E+02 -0.75346405578E+01 -0.32179908876E+02  0.43400729331E+02  0.00000000000E+00 0. -1.
         11    1    3    3    0    0  0.13551009580E+02 -0.28972680796E+01  0.54412740402E+01  0.14887292783E+02  0.51100000000E-03 0.  1.
        -11    1    3    3    0    0  0.10581959219E+02  0.10679946666E+02  0.19447986995E+02  0.24581768043E+02  0.51100000000E-03 0. -1.
        -12    1    3    3    0    0  0.39971922902E+01 -0.24803802849E+00  0.72906478405E+01  0.83182098436E+01  0.00000000000E+00 0.  1.
</event>
<event>
 7    1  0.5411321E-010  0.4778726E+02  0.7816164E-02  0.1312668E+00
        -11   -1    0    0    0    0  0.00000000000E+00  0.00000000000E+00  0.45593999997E+02  0.45594000000E+02  0.51100000000E-03 0. -1.
         11   -1    0    0    0    0 -0.00000000000E+00 -0.00000000000E+00 -0.45593999997E+02  0.45594000000E+02  0.51100000000E-03 0.  1.
    9900012    2    1    2    0    0 -0.21321161867E+02  0.30371400564E-01 -0.37802533953E+02  0.47787257621E+02  0.19999938798E+02 0.  0.
         12    1    1    2    0    0  0.21321161867E+02 -0.30371400564E-01  0.37802533953E+02  0.43400742379E+02  0.00000000000E+00 0. -1.
         11    1    3    3    0    0 -0.14365136071E+02 -0.43826692344E+01 -0.30747049509E+02  0.34219087915E+02  0.51100000000E-03 0. -1.
        -11    1    3    3    0    0 -0.21094481583E+00 -0.63225836464E-01 -0.52747901342E+01  0.52793850439E+01  0.51100000000E-03 0.  1.
         12    1    3    3    0    0 -0.67450809801E+01  0.44762664714E+01 -0.17806943097E+01  0.82887846622E+01  0.00000000000E+00 0. -1.
</event>
<event>
 7    1  0.5411321E-010  0.4778727E+02  0.7816164E-02  0.1312668E+00
        -11   -1    0    0    0    0  0.00000000000E+00  0.00000000000E+00  0.45593999997E+02  0.45594000000E+02  0.51100000000E-03 0.  1.
         11   -1    0    0    0    0 -0.00000000000E+00 -0.00000000000E+00 -0.45593999997E+02  0.45594000000E+02  0.51100000000E-03 0. -1.
    9900012    2    1    2    0    0  0.16423200259E+02 -0.35366148517E+02  0.19056173192E+02  0.47787266084E+02  0.19999977386E+02 0.  0.
         12    1    1    2    0    0 -0.16423200259E+02  0.35366148517E+02 -0.19056173192E+02  0.43400733916E+02  0.00000000000E+00 0. -1.
         11    1    3    3    0    0  0.33951830386E+01 -0.25495894700E+01 -0.30341268450E+01  0.52185822120E+01  0.51100000000E-03 0. -1.
        -11    1    3    3    0    0  0.13383384876E+02 -0.27337056783E+02  0.16065390156E+02  0.34416949682E+02  0.51100000000E-03 0.  1.
         12    1    3    3    0    0 -0.35536765560E+00 -0.54795022643E+01  0.60249098818E+01  0.81517341909E+01  0.00000000000E+00 0. -1.
</event>
<event>
 7    1  0.5411321E-010  0.4778727E+02  0.7816164E-02  0.1312668E+00
        -11   -1    0    0    0    0  0.00000000000E+00  0.00000000000E+00  0.45593999997E+02  0.45594000000E+02  0.51100000000E-03 0.  1.
         11   -1    0    0    0    0 -0.00000000000E+00 -0.00000000000E+00 -0.45593999997E+02  0.45594000000E+02  0.51100000000E-03 0. -1.
    9900012    2    1    2    0    0  0.25177386441E+02  0.42564836476E+01  0.35094228962E+02  0.47787270197E+02  0.19999996135E+02 0.  0.
         12    1    1    2    0    0 -0.25177386441E+02 -0.42564836476E+01 -0.35094228962E+02  0.43400729803E+02  0.00000000000E+00 0. -1.
         11    1    3    3    0    0  0.11399396673E+02  0.26196918512E+01  0.59092595423E+01  0.13104517485E+02  0.51100000000E-03 0. -1.
        -11    1    3    3    0    0  0.10945106012E+02 -0.43886266911E+01  0.21442711698E+02  0.24471315353E+02  0.51100000000E-03 0.  1.
        -12    1    3    3    0    0  0.28328837554E+01  0.60254184875E+01  0.77422577212E+01  0.10211437359E+02  0.00000000000E+00 0.  1.
</event>
<event>
 7    1  0.5411321E-010  0.4778722E+02  0.7816164E-02  0.1312668E+00
        -11   -1    0    0    0    0  0.00000000000E+00  0.00000000000E+00  0.45593999997E+02  0.45594000000E+02  0.51100000000E-03 0. -1.
         11   -1    0    0    0    0 -0.00000000000E+00 -0.00000000000E+00 -0.45593999997E+02  0.45594000000E+02  0.51100000000E-03 0.  1.
    9900012    2    1    2    0    0  0.55723504854E+01  0.12579366850E+02 -0.41162318612E+02  0.47787216208E+02  0.19999749977E+02 0.  0.
         12    1    1    2    0    0 -0.55723504854E+01 -0.12579366850E+02  0.41162318612E+02  0.43400783792E+02  0.00000000000E+00 0. -1.
         11    1    3    3    0    0 -0.56735576120E+01  0.30191781031E+01 -0.64452913664E+01  0.91020038152E+01  0.51100000000E-03 0. -1.
        -11    1    3    3    0    0  0.50577304838E+01  0.92090515332E+01 -0.17812834911E+02  0.20680530835E+02  0.51100000000E-03 0.  1.
         12    1    3    3    0    0  0.61881776136E+01  0.35113721323E+00 -0.16904192334E+02  0.18004681558E+02  0.00000000000E+00 0. -1.
</event>
<event>
 7    1  0.5411321E-010  0.4778727E+02  0.7816164E-02  0.1312668E+00
        -11   -1    0    0    0    0  0.00000000000E+00  0.00000000000E+00  0.45593999997E+02  0.45594000000E+02  0.51100000000E-03 0.  1.
         11   -1    0    0    0    0 -0.00000000000E+00 -0.00000000000E+00 -0.45593999997E+02  0.45594000000E+02  0.51100000000E-03 0. -1.
    9900012    2    1    2    0    0  0.23676215370E+02 -0.38807243931E+01  0.36166284237E+02  0.47787270610E+02  0.19999998018E+02 0.  0.
         12    1    1    2    0    0 -0.23676215370E+02  0.38807243931E+01 -0.36166284237E+02  0.43400729390E+02  0.00000000000E+00 0. -1.
         11    1    3    3    0    0  0.58526354889E+01  0.66259732091E+01  0.12203186833E+02  0.15068995729E+02  0.51100000000E-03 0. -1.
        -11    1    3    3    0    0  0.84349142741E+01 -0.63248323854E+01  0.62977955308E+01  0.12280615307E+02  0.51100000000E-03 0.  1.
        -12    1    3    3    0    0  0.93886656069E+01 -0.41818652168E+01  0.17665301873E+02  0.20437659574E+02  0.00000000000E+00 0.  1.
</event>
<event>
 7    1  0.5411321E-010  0.4778727E+02  0.7816164E-02  0.1312668E+00
        -11   -1    0    0    0    0  0.00000000000E+00  0.00000000000E+00  0.45593999997E+02  0.45594000000E+02  0.51100000000E-03 0.  1.
         11   -1    0    0    0    0 -0.00000000000E+00 -0.00000000000E+00 -0.45593999997E+02  0.45594000000E+02  0.51100000000E-03 0. -1.
    9900012    2    1    2    0    0 -0.77632428669E+01 -0.20348978080E+02  0.37540307959E+02  0.47787267629E+02  0.19999984426E+02 0.  0.
         12    1    1    2    0    0  0.77632428669E+01  0.20348978080E+02 -0.37540307959E+02  0.43400732371E+02  0.00000000000E+00 0. -1.
         11    1    3    3    0    0 -0.97262036229E+01 -0.94607915009E+01  0.13956738256E+02  0.19465255091E+02  0.51100000000E-03 0.  1.
        -11    1    3    3    0    0  0.60767933861E+01 -0.66423032163E+01  0.18293830217E+02  0.20389012584E+02  0.51100000000E-03 0. -1.
         12    1    3    3    0    0 -0.41138326301E+01 -0.42458833632E+01  0.52897394860E+01  0.79329999541E+01  0.00000000000E+00 0. -1.
</event>
<event>
 7    1  0.5411321E-010  0.4778727E+02  0.7816164E-02  0.1312668E+00
        -11   -1    0    0    0    0  0.00000000000E+00  0.00000000000E+00  0.45593999997E+02  0.45594000000E+02  0.51100000000E-03 0. -1.
         11   -1    0    0    0    0 -0.00000000000E+00 -0.00000000000E+00 -0.45593999997E+02  0.45594000000E+02  0.51100000000E-03 0.  1.
    9900012    2    1    2    0    0  0.18649465297E+02 -0.16774995266E+02 -0.35417792868E+02  0.47787273351E+02  0.20000010515E+02 0.  0.
         12    1    1    2    0    0 -0.18649465297E+02  0.16774995266E+02  0.35417792868E+02  0.43400726649E+02  0.00000000000E+00 0. -1.
         11    1    3    3    0    0  0.58855979992E+01 -0.70007275253E+00  0.89040005546E+00  0.59935947633E+01  0.51100000000E-03 0. -1.
        -11    1    3    3    0    0  0.75234956994E+01 -0.84080201073E+01 -0.17574010986E+02  0.20884052578E+02  0.51100000000E-03 0.  1.
         12    1    3    3    0    0  0.52403715982E+01 -0.76669024063E+01 -0.18734181937E+02  0.20909626009E+02  0.00000000000E+00 0. -1.
</event>
<event>
 7    1  0.5411321E-010  0.4778727E+02  0.7816164E-02  0.1312668E+00
        -11   -1    0    0    0    0  0.00000000000E+00  0.00000000000E+00  0.45593999997E+02  0.45594000000E+02  0.51100000000E-03 0. -1.
         11   -1    0    0    0    0 -0.00000000000E+00 -0.00000000000E+00 -0.45593999997E+02  0.45594000000E+02  0.51100000000E-03 0.  1.
    9900012    2    1    2    0    0 -0.10461834614E+02 -0.16279255772E+02 -0.38847896557E+02  0.47787271678E+02  0.20000002891E+02 0.  0.
         12    1    1    2    0    0  0.10461834614E+02  0.16279255772E+02  0.38847896557E+02  0.43400728322E+02  0.00000000000E+00 0. -1.
         11    1    3    3    0    0  0.32534448718E+01 -0.54433411584E+01 -0.19733770414E+02  0.20727676220E+02  0.51100000000E-03 0. -1.
        -11    1    3    3    0    0 -0.26846835591E+01 -0.42094513316E+01 -0.10347954349E+02  0.11489437140E+02  0.51100000000E-03 0.  1.
         12    1    3    3    0    0 -0.11030595927E+02 -0.66264632817E+01 -0.87661717939E+01  0.15570158318E+02  0.00000000000E+00 0. -1.
</event>
<event>
 7    1  0.5411321E-010  0.4778727E+02  0.7816164E-02  0.1312668E+00
        -11   -1    0    0    0    0  0.00000000000E+00  0.00000000000E+00  0.45593999997E+02  0.45594000000E+02  0.51100000000E-03 0.  1.
         11   -1    0    0    0    0 -0.00000000000E+00 -0.00000000000E+00 -0.45593999997E+02  0.45594000000E+02  0.51100000000E-03 0. -1.
    9900012    2    1    2    0    0 -0.10477498409E+02  0.40216286885E+02  0.12509813438E+02  0.47787272633E+02  0.20000007245E+02 0.  0.
         12    1    1    2    0    0  0.10477498409E+02 -0.40216286885E+02 -0.12509813438E+02  0.43400727367E+02  0.00000000000E+00 0. -1.
         11    1    3    3    0    0  0.13373249467E+01  0.69740107838E+01  0.80016428143E+01  0.10698203233E+02  0.51100000000E-03 0. -1.
        -11    1    3    3    0    0 -0.63024159906E+01  0.28411025387E+02  0.57233182687E+01  0.29659116358E+02  0.51100000000E-03 0.  1.
         12    1    3    3    0    0 -0.55124073649E+01  0.48312507133E+01 -0.12151476448E+01  0.74299530423E+01  0.00000000000E+00 0. -1.
</event>
<event>
 7    1  0.5411321E-010  0.4778727E+02  0.7816164E-02  0.1312668E+00
        -11   -1    0    0    0    0  0.00000000000E+00  0.00000000000E+00  0.45593999997E+02  0.45594000000E+02  0.51100000000E-03 0. -1.
         11   -1    0    0    0    0 -0.00000000000E+00 -0.00000000000E+00 -0.45593999997E+02  0.45594000000E+02  0.51100000000E-03 0.  1.
    9900012    2    1    2    0    0  0.42907218805E+01 -0.42511039868E+02  0.76173810348E+01  0.47787270758E+02  0.19999998693E+02 0.  0.
         12    1    1    2    0    0 -0.42907218805E+01  0.42511039868E+02 -0.76173810348E+01  0.43400729242E+02  0.00000000000E+00 0. -1.
         11    1    3    3    0    0 -0.11352911178E+01 -0.40380132057E+01  0.68239292342E+01  0.80100216620E+01  0.51100000000E-03 0. -1.
        -11    1    3    3    0    0  0.23817195866E+00 -0.47849679660E+01  0.29459675806E+01  0.56241772345E+01  0.51100000000E-03 0.  1.
         12    1    3    3    0    0  0.51878410396E+01 -0.33688058696E+02 -0.21525157800E+01  0.34153071861E+02  0.00000000000E+00 0. -1.
</event>
<event>
 7    1  0.5411321E-010  0.4778727E+02  0.7816164E-02  0.1312668E+00
        -11   -1    0    0    0    0  0.00000000000E+00  0.00000000000E+00  0.45593999997E+02  0.45594000000E+02  0.51100000000E-03 0. -1.
         11   -1    0    0    0    0 -0.00000000000E+00 -0.00000000000E+00 -0.45593999997E+02  0.45594000000E+02  0.51100000000E-03 0.  1.
    9900012    2    1    2    0    0  0.18110152500E+02 -0.36299704724E+02 -0.15426510661E+02  0.47787269386E+02  0.19999992439E+02 0.  0.
         12    1    1    2    0    0 -0.18110152500E+02  0.36299704724E+02  0.15426510661E+02  0.43400730614E+02  0.00000000000E+00 0. -1.
         11    1    3    3    0    0  0.12701035280E+02 -0.11159910630E+02 -0.41017911733E+01  0.17397833012E+02  0.51100000000E-03 0. -1.
        -11    1    3    3    0    0 -0.33708141797E+00 -0.20134494888E+02 -0.57329992470E+01  0.20937497197E+02  0.51100000000E-03 0.  1.
        -12    1    3    3    0    0  0.57461986378E+01 -0.50052992072E+01 -0.55917202410E+01  0.94519391763E+01  0.00000000000E+00 0.  1.
</event>
<event>
 7    1  0.5411321E-010  0.4778727E+02  0.7816164E-02  0.1312668E+00
        -11   -1    0    0    0    0  0.00000000000E+00  0.00000000000E+00  0.45593999997E+02  0.45594000000E+02  0.51100000000E-03 0.  1.
         11   -1    0    0    0    0 -0.00000000000E+00 -0.00000000000E+00 -0.45593999997E+02  0.45594000000E+02  0.51100000000E-03 0. -1.
    9900012    2    1    2    0    0  0.15331772107E+02  0.32989431684E+02  0.23669757520E+02  0.47787271206E+02  0.20000000738E+02 0.  0.
         12    1    1    2    0    0 -0.15331772107E+02 -0.32989431684E+02 -0.23669757520E+02  0.43400728794E+02  0.00000000000E+00 0. -1.
         11    1    3    3    0    0  0.89835886745E+01  0.61149325137E+01 -0.64122445437E-01  0.10867445747E+02  0.51100000000E-03 0. -1.
        -11    1    3    3    0    0 -0.59457057962E+00  0.37146457651E+01  0.53786537394E+01  0.65636897888E+01  0.51100000000E-03 0.  1.
         12    1    3    3    0    0  0.69427540124E+01  0.23159853405E+02  0.18355226226E+02  0.30356135670E+02  0.00000000000E+00 0. -1.
</event>
<event>
 7    1  0.5411321E-010  0.4778727E+02  0.7816164E-02  0.1312668E+00
        -11   -1    0    0    0    0  0.00000000000E+00  0.00000000000E+00  0.45593999997E+02  0.45594000000E+02  0.51100000000E-03 0. -1.
         11   -1    0    0    0    0 -0.00000000000E+00 -0.00000000000E+00 -0.45593999997E+02  0.45594000000E+02  0.51100000000E-03 0.  1.
    9900012    2    1    2    0    0  0.38159673435E+01 -0.37635440965E+02 -0.21275227777E+02  0.47787270278E+02  0.19999996507E+02 0.  0.
         12    1    1    2    0    0 -0.38159673435E+01  0.37635440965E+02  0.21275227777E+02  0.43400729722E+02  0.00000000000E+00 0. -1.
         11    1    3    3    0    0  0.41575354149E+01 -0.41134735329E+00  0.22081037603E+00  0.41836664368E+01  0.51100000000E-03 0. -1.
        -11    1    3    3    0    0  0.58428390670E+00 -0.28777687555E+02 -0.12984655314E+02  0.31576858022E+02  0.51100000000E-03 0.  1.
         12    1    3    3    0    0 -0.92585197808E+00 -0.84464060573E+01 -0.85113828391E+01  0.12026745819E+02  0.00000000000E+00 0. -1.
</event>
<event>
 7    1  0.5411321E-010  0.4778732E+02  0.7816164E-02  0.1312668E+00
        -11   -1    0    0    0    0  0.00000000000E+00  0.00000000000E+00  0.45593999997E+02  0.45594000000E+02  0.51100000000E-03 0. -1.
         11   -1    0    0    0    0 -0.00000000000E+00 -0.00000000000E+00 -0.45593999997E+02  0.45594000000E+02  0.51100000000E-03 0.  1.
    9900012    2    1    2    0    0 -0.39085808104E+02 -0.18387911475E+02  0.42193661483E+01  0.47787323344E+02  0.20000238452E+02 0.  0.
         12    1    1    2    0    0  0.39085808104E+02  0.18387911475E+02 -0.42193661483E+01  0.43400676656E+02  0.00000000000E+00 0. -1.
         11    1    3    3    0    0 -0.16370134649E+02 -0.75003801065E+00  0.26238829281E+01  0.16596042520E+02  0.51100000000E-03 0. -1.
        -11    1    3    3    0    0 -0.23682878576E+02 -0.18330662128E+02  0.17041806514E+01  0.29996602202E+02  0.51100000000E-03 0.  1.
         12    1    3    3    0    0  0.96720512073E+00  0.69278866414E+00 -0.10869743126E+00  0.11946786222E+01  0.00000000000E+00 0. -1.
</event>
<event>
 7    1  0.5411321E-010  0.4778727E+02  0.7816164E-02  0.1312668E+00
        -11   -1    0    0    0    0  0.00000000000E+00  0.00000000000E+00  0.45593999997E+02  0.45594000000E+02  0.51100000000E-03 0.  1.
         11   -1    0    0    0    0 -0.00000000000E+00 -0.00000000000E+00 -0.45593999997E+02  0.45594000000E+02  0.51100000000E-03 0. -1.
    9900012    2    1    2    0    0 -0.20463633100E+02  0.70399659348E+01  0.37620501859E+02  0.47787267747E+02  0.19999984964E+02 0.  0.
         12    1    1    2    0    0  0.20463633100E+02 -0.70399659348E+01 -0.37620501859E+02  0.43400732253E+02  0.00000000000E+00 0. -1.
         11    1    3    3    0    0 -0.21426730182E+01  0.10249882148E+02  0.11253557602E+02  0.15371847341E+02  0.51100000000E-03 0.  1.
        -11    1    3    3    0    0 -0.11644408501E+02 -0.34947794083E+01  0.16375343015E+02  0.20395038406E+02  0.51100000000E-03 0. -1.
        -12    1    3    3    0    0 -0.66765515806E+01  0.28486319491E+00  0.99916012419E+01  0.12020382000E+02  0.00000000000E+00 0.  1.
</event>
<event>
 7    1  0.5411321E-010  0.4778727E+02  0.7816164E-02  0.1312668E+00
        -11   -1    0    0    0    0  0.00000000000E+00  0.00000000000E+00  0.45593999997E+02  0.45594000000E+02  0.51100000000E-03 0.  1.
         11   -1    0    0    0    0 -0.00000000000E+00 -0.00000000000E+00 -0.45593999997E+02  0.45594000000E+02  0.51100000000E-03 0. -1.
    9900012    2    1    2    0    0  0.95079742242E+01 -0.24997434976E+02  0.34181129624E+02  0.47787274757E+02  0.20000016926E+02 0.  0.
         12    1    1    2    0    0 -0.95079742242E+01  0.24997434976E+02 -0.34181129624E+02  0.43400725243E+02  0.00000000000E+00 0. -1.
         11    1    3    3    0    0 -0.10534039092E+00 -0.12146573354E+01  0.31140427448E+00  0.12583568348E+01  0.51100000000E-03 0. -1.
        -11    1    3    3    0    0  0.12664172308E+02 -0.15164334995E+02  0.31331640542E+02  0.37040653550E+02  0.51100000000E-03 0.  1.
        -12    1    3    3    0    0 -0.30508576926E+01 -0.86184426457E+01  0.25380848077E+01  0.94882643718E+01  0.00000000000E+00 0.  1.
</event>
<event>
 7    1  0.5411321E-010  0.4778729E+02  0.7816164E-02  0.1312668E+00
        -11   -1    0    0    0    0  0.00000000000E+00  0.00000000000E+00  0.45593999997E+02  0.45594000000E+02  0.51100000000E-03 0.  1.
         11   -1    0    0    0    0 -0.00000000000E+00 -0.00000000000E+00 -0.45593999997E+02  0.45594000000E+02  0.51100000000E-03 0. -1.
    9900012    2    1    2    0    0 -0.21838090195E+02  0.36826240252E+02 -0.71096752319E+01  0.47787289909E+02  0.20000086010E+02 0.  0.
         12    1    1    2    0    0  0.21838090195E+02 -0.36826240252E+02  0.71096752319E+01  0.43400710091E+02  0.00000000000E+00 0. -1.
         11    1    3    3    0    0 -0.64212197929E+01  0.18576068633E+02 -0.96472664249E+01  0.21894568715E+02  0.51100000000E-03 0. -1.
        -11    1    3    3    0    0  0.11693761503E+01  0.30514714334E+01  0.46325251584E+00  0.33005335394E+01  0.51100000000E-03 0.  1.
         12    1    3    3    0    0 -0.16586246553E+02  0.15198700186E+02  0.20743386772E+01  0.22592187654E+02  0.00000000000E+00 0. -1.
</event>
<event>
 7    1  0.5411321E-010  0.4778727E+02  0.7816164E-02  0.1312668E+00
        -11   -1    0    0    0    0  0.00000000000E+00  0.00000000000E+00  0.45593999997E+02  0.45594000000E+02  0.51100000000E-03 0.  1.
         11   -1    0    0    0    0 -0.00000000000E+00 -0.00000000000E+00 -0.45593999997E+02  0.45594000000E+02  0.51100000000E-03 0. -1.
    9900012    2    1    2    0    0  0.21326441905E+02  0.80336625862E+01  0.36935977105E+02  0.47787271163E+02  0.20000000541E+02 0.  0.
         12    1    1    2    0    0 -0.21326441905E+02 -0.80336625862E+01 -0.36935977105E+02  0.43400728837E+02  0.00000000000E+00 0. -1.
         11    1    3    3    0    0  0.16691874303E+02  0.10780210341E+02  0.15736378842E+02  0.25346897681E+02  0.51100000000E-03 0.  1.
        -11    1    3    3    0    0  0.41991743844E+01 -0.41309194660E+01  0.16375465884E+02  0.17402684975E+02  0.51100000000E-03 0. -1.
        -12    1    3    3    0    0  0.43539321799E+00  0.13843717113E+01  0.48241323790E+01  0.50376885076E+01  0.00000000000E+00 0.  1.
</event>
<event>
 7    1  0.5411321E-010  0.4778727E+02  0.7816164E-02  0.1312668E+00
        -11   -1    0    0    0    0  0.00000000000E+00  0.00000000000E+00  0.45593999997E+02  0.45594000000E+02  0.51100000000E-03 0. -1.
         11   -1    0    0    0    0 -0.00000000000E+00 -0.00000000000E+00 -0.45593999997E+02  0.45594000000E+02  0.51100000000E-03 0.  1.
    9900012    2    1    2    0    0  0.19933061431E+02 -0.21511315223E+01 -0.38492456986E+02  0.47787267867E+02  0.19999985514E+02 0.  0.
         12    1    1    2    0    0 -0.19933061431E+02  0.21511315223E+01  0.38492456986E+02  0.43400732133E+02  0.00000000000E+00 0. -1.
         11    1    3    3    0    0  0.12807520354E+01  0.65382297410E+00 -0.58159419475E+01  0.59910759681E+01  0.51100000000E-03 0. -1.
        -11    1    3    3    0    0  0.13548246484E+02 -0.94199415653E+01 -0.27174213090E+02  0.31791950855E+02  0.51100000000E-03 0.  1.
        -12    1    3    3    0    0  0.51040629114E+01  0.66149870689E+01 -0.55023019488E+01  0.10004241044E+02  0.00000000000E+00 0.  1.
</event>
<event>
 7    1  0.5411321E-010  0.4778727E+02  0.7816164E-02  0.1312668E+00
        -11   -1    0    0    0    0  0.00000000000E+00  0.00000000000E+00  0.45593999997E+02  0.45594000000E+02  0.51100000000E-03 0. -1.
         11   -1    0    0    0    0 -0.00000000000E+00 -0.00000000000E+00 -0.45593999997E+02  0.45594000000E+02  0.51100000000E-03 0.  1.
    9900012    2    1    2    0    0 -0.17450874522E+01 -0.38929132148E+02  0.19107598603E+02  0.47787274380E+02  0.20000015207E+02 0.  0.
         12    1    1    2    0    0  0.17450874522E+01  0.38929132148E+02 -0.19107598603E+02  0.43400725620E+02  0.00000000000E+00 0. -1.
         11    1    3    3    0    0 -0.85281510048E+00  0.14596606338E+01  0.15143068520E+01  0.22695876861E+01  0.51100000000E-03 0. -1.
        -11    1    3    3    0    0  0.13372227656E+01 -0.33468421918E+02  0.98891261964E+01  0.34924464886E+02  0.51100000000E-03 0.  1.
         12    1    3    3    0    0 -0.22294951173E+01 -0.69203708637E+01  0.77041655547E+01  0.10593221808E+02  0.00000000000E+00 0. -1.
</event>
<event>
 7    1  0.5411321E-010  0.4778727E+02  0.7816164E-02  0.1312668E+00
        -11   -1    0    0    0    0  0.00000000000E+00  0.00000000000E+00  0.45593999997E+02  0.45594000000E+02  0.51100000000E-03 0.  1.
         11   -1    0    0    0    0 -0.00000000000E+00 -0.00000000000E+00 -0.45593999997E+02  0.45594000000E+02  0.51100000000E-03 0. -1.
    9900012    2    1    2    0    0  0.28411603505E+02  0.73973632448E+00  0.32800260299E+02  0.47787268448E+02  0.19999988162E+02 0.  0.
         12    1    1    2    0    0 -0.28411603505E+02 -0.73973632448E+00 -0.32800260299E+02  0.43400731552E+02  0.00000000000E+00 0. -1.
         11    1    3    3    0    0  0.19742010828E+02  0.44206709955E+01  0.18030580086E+02  0.27099652066E+02  0.51100000000E-03 0. -1.
        -11    1    3    3    0    0  0.60761870845E+01 -0.75470564304E+01  0.11276907766E+02  0.14867641348E+02  0.51100000000E-03 0.  1.
        -12    1    3    3    0    0  0.25934055926E+01  0.38661217594E+01  0.34927724467E+01  0.58199750335E+01  0.00000000000E+00 0.  1.
</event>
<event>
 7    1  0.5544218E-010  0.4778727E+02  0.7816164E-02  0.1312668E+00
        -11   -1    0    0    0    0  0.00000000000E+00  0.00000000000E+00  0.45593999997E+02  0.45594000000E+02  0.51100000000E-03 0. -1.
         11   -1    0    0    0    0 -0.00000000000E+00 -0.00000000000E+00 -0.45593999997E+02  0.45594000000E+02  0.51100000000E-03 0.  1.
    9900012    2    1    2    0    0 -0.26270159118E+01 -0.30251985871E+02 -0.31008698967E+02  0.47787271050E+02  0.20000000027E+02 0.  0.
         12    1    1    2    0    0  0.26270159118E+01  0.30251985871E+02  0.31008698967E+02  0.43400728950E+02  0.00000000000E+00 0. -1.
         11    1    3    3    0    0  0.15117154423E+01 -0.69906692980E+01  0.30698089431E+00  0.71588391757E+01  0.51100000000E-03 0. -1.
        -11    1    3    3    0    0 -0.73073575609E+01 -0.20163494811E+02 -0.25612944943E+02  0.33406390802E+02  0.51100000000E-03 0.  1.
        -12    1    3    3    0    0  0.31686262068E+01 -0.30978217624E+01 -0.57027349183E+01  0.72220410729E+01  0.00000000000E+00 0.  1.
</event>
<event>
 7    1  0.5411321E-010  0.4778727E+02  0.7816164E-02  0.1312668E+00
        -11   -1    0    0    0    0  0.00000000000E+00  0.00000000000E+00  0.45593999997E+02  0.45594000000E+02  0.51100000000E-03 0. -1.
         11   -1    0    0    0    0 -0.00000000000E+00 -0.00000000000E+00 -0.45593999997E+02  0.45594000000E+02  0.51100000000E-03 0.  1.
    9900012    2    1    2    0    0  0.55858690418E+01  0.27050005733E+02 -0.33477134272E+02  0.47787271179E+02  0.20000000616E+02 0.  0.
         12    1    1    2    0    0 -0.55858690418E+01 -0.27050005733E+02  0.33477134272E+02  0.43400728821E+02  0.00000000000E+00 0. -1.
         11    1    3    3    0    0  0.74004107154E+01  0.98629798621E+01 -0.61063797676E+01  0.13759808307E+02  0.51100000000E-03 0. -1.
        -11    1    3    3    0    0 -0.45921350149E+01  0.16655514670E+02 -0.22163756431E+02  0.28102063489E+02  0.51100000000E-03 0.  1.
        -12    1    3    3    0    0  0.27775933413E+01  0.53151120067E+00 -0.52069980729E+01  0.59253993838E+01  0.00000000000E+00 0.  1.
</event>
<event>
 7    1 -0.2043092E-009  0.4778727E+02  0.7816164E-02  0.1312668E+00
        -11   -1    0    0    0    0  0.00000000000E+00  0.00000000000E+00  0.45593999997E+02  0.45594000000E+02  0.51100000000E-03 0.  1.
         11   -1    0    0    0    0 -0.00000000000E+00 -0.00000000000E+00 -0.45593999997E+02  0.45594000000E+02  0.51100000000E-03 0. -1.
    9900012    2    1    2    0    0 -0.12585108097E+01 -0.15358563372E+02  0.40572825423E+02  0.47787268657E+02  0.19999989115E+02 0.  0.
         12    1    1    2    0    0  0.12585108097E+01  0.15358563372E+02 -0.40572825423E+02  0.43400731343E+02  0.00000000000E+00 0. -1.
         11    1    3    3    0    0  0.26029227689E+01 -0.17703043552E+01 -0.70632383786E+00  0.32261553088E+01  0.51100000000E-03 0. -1.
        -11    1    3    3    0    0 -0.41067738921E+01 -0.56441499099E+01  0.94123309112E+01  0.11718105369E+02  0.51100000000E-03 0.  1.
         12    1    3    3    0    0  0.24534031347E+00 -0.79441091072E+01  0.31866818349E+02  0.32843007979E+02  0.00000000000E+00 0. -1.
</event>
<event>
 7    1  0.5465937E-010  0.4778727E+02  0.7816164E-02  0.1312668E+00
        -11   -1    0    0    0    0  0.00000000000E+00  0.00000000000E+00  0.45593999997E+02  0.45594000000E+02  0.51100000000E-03 0. -1.
         11   -1    0    0    0    0 -0.00000000000E+00 -0.00000000000E+00 -0.45593999997E+02  0.45594000000E+02  0.51100000000E-03 0.  1.
    9900012    2    1    2    0    0 -0.59766017614E+01 -0.14251426030E+02 -0.40556139415E+02  0.47787270089E+02  0.19999995645E+02 0.  0.
         12    1    1    2    0    0  0.59766017614E+01  0.14251426030E+02  0.40556139415E+02  0.43400729911E+02  0.00000000000E+00 0. -1.
         11    1    3    3    0    0 -0.50049564568E+01  0.80407147307E+00 -0.28330400305E+01  0.58070849954E+01  0.51100000000E-03 0. -1.
        -11    1    3    3    0    0  0.17697852914E+01 -0.12445203874E+02 -0.18362599926E+02  0.22253096768E+02  0.51100000000E-03 0.  1.
        -12    1    3    3    0    0 -0.27414305960E+01 -0.26102936289E+01 -0.19360499459E+02  0.19727088326E+02  0.00000000000E+00 0.  1.
</event>
<event>
 7    1  0.5411321E-010  0.4778727E+02  0.7816164E-02  0.1312668E+00
        -11   -1    0    0    0    0  0.00000000000E+00  0.00000000000E+00  0.45593999997E+02  0.45594000000E+02  0.51100000000E-03 0. -1.
         11   -1    0    0    0    0 -0.00000000000E+00 -0.00000000000E+00 -0.45593999997E+02  0.45594000000E+02  0.51100000000E-03 0.  1.
    9900012    2    1    2    0    0  0.38807663280E+02  0.17976249499E+02 -0.73785719953E+01  0.47787267287E+02  0.19999982869E+02 0.  0.
         12    1    1    2    0    0 -0.38807663280E+02 -0.17976249499E+02  0.73785719953E+01  0.43400732713E+02  0.00000000000E+00 0. -1.
         11    1    3    3    0    0  0.24245117060E+02  0.59976903886E+01  0.36307227498E+01  0.25238465469E+02  0.51100000000E-03 0. -1.
        -11    1    3    3    0    0  0.15891298618E+01  0.33111995788E+01 -0.40422348274E+01  0.54615967472E+01  0.51100000000E-03 0.  1.
         12    1    3    3    0    0  0.12973416358E+02  0.86673595321E+01 -0.69670599177E+01  0.17087205071E+02  0.00000000000E+00 0. -1.
</event>
<event>
 7    1  0.5411321E-010  0.4778728E+02  0.7816164E-02  0.1312668E+00
        -11   -1    0    0    0    0  0.00000000000E+00  0.00000000000E+00  0.45593999997E+02  0.45594000000E+02  0.51100000000E-03 0. -1.
         11   -1    0    0    0    0 -0.00000000000E+00 -0.00000000000E+00 -0.45593999997E+02  0.45594000000E+02  0.51100000000E-03 0.  1.
    9900012    2    1    2    0    0  0.30838944869E+02 -0.11816567542E+02 -0.28159381910E+02  0.47787279054E+02  0.20000036517E+02 0.  0.
         12    1    1    2    0    0 -0.30838944869E+02  0.11816567542E+02  0.28159381910E+02  0.43400720946E+02  0.00000000000E+00 0. -1.
         11    1    3    3    0    0  0.27913321297E+02 -0.75057211990E+01 -0.22682612617E+02  0.36742213760E+02  0.51100000000E-03 0. -1.
        -11    1    3    3    0    0  0.52839840638E+01 -0.15196611348E+01 -0.16193916450E+01  0.57316914704E+01  0.51100000000E-03 0.  1.
         12    1    3    3    0    0 -0.23583604916E+01 -0.27911852084E+01 -0.38573776474E+01  0.53133738237E+01  0.00000000000E+00 0. -1.
</event>
<event>
 7    1  0.5411321E-010  0.4778727E+02  0.7816164E-02  0.1312668E+00
        -11   -1    0    0    0    0  0.00000000000E+00  0.00000000000E+00  0.45593999997E+02  0.45594000000E+02  0.51100000000E-03 0. -1.
         11   -1    0    0    0    0 -0.00000000000E+00 -0.00000000000E+00 -0.45593999997E+02  0.45594000000E+02  0.51100000000E-03 0.  1.
    9900012    2    1    2    0    0 -0.75800847184E+01 -0.27285245032E+02 -0.32888923848E+02  0.47787267372E+02  0.19999983255E+02 0.  0.
         12    1    1    2    0    0  0.75800847184E+01  0.27285245032E+02  0.32888923848E+02  0.43400732628E+02  0.00000000000E+00 0. -1.
         11    1    3    3    0    0  0.50187321891E+01 -0.13774875666E+02 -0.97502512854E+01  0.17606881404E+02  0.51100000000E-03 0. -1.
        -11    1    3    3    0    0 -0.83391574975E+01 -0.12237573272E+02 -0.19147562323E+02  0.24205968077E+02  0.51100000000E-03 0.  1.
         12    1    3    3    0    0 -0.42596594100E+01 -0.12727960940E+01 -0.39911102395E+01  0.59744178905E+01  0.00000000000E+00 0. -1.
</event>
<event>
 7    1  0.5411321E-010  0.4778727E+02  0.7816164E-02  0.1312668E+00
        -11   -1    0    0    0    0  0.00000000000E+00  0.00000000000E+00  0.45593999997E+02  0.45594000000E+02  0.51100000000E-03 0. -1.
         11   -1    0    0    0    0 -0.00000000000E+00 -0.00000000000E+00 -0.45593999997E+02  0.45594000000E+02  0.51100000000E-03 0.  1.
    9900012    2    1    2    0    0  0.12545456500E+01 -0.10034785843E+02 -0.42206071887E+02  0.47787270561E+02  0.19999997795E+02 0.  0.
         12    1    1    2    0    0 -0.12545456500E+01  0.10034785843E+02  0.42206071887E+02  0.43400729439E+02  0.00000000000E+00 0. -1.
         11    1    3    3    0    0 -0.82960876558E+00 -0.92432509660E+00  0.17122995601E+01  0.21153244746E+01  0.51100000000E-03 0. -1.
        -11    1    3    3    0    0  0.33075460921E+01 -0.68999690181E+01 -0.17088864867E+02  0.18723747924E+02  0.51100000000E-03 0.  1.
         12    1    3    3    0    0 -0.12233916765E+01 -0.22104917280E+01 -0.26829506580E+02  0.26948198163E+02  0.00000000000E+00 0. -1.
</event>
<event>
 7    1  0.5411321E-010  0.4778726E+02  0.7816164E-02  0.1312668E+00
        -11   -1    0    0    0    0  0.00000000000E+00  0.00000000000E+00  0.45593999997E+02  0.45594000000E+02  0.51100000000E-03 0.  1.
         11   -1    0    0    0    0 -0.00000000000E+00 -0.00000000000E+00 -0.45593999997E+02  0.45594000000E+02  0.51100000000E-03 0. -1.
    9900012    2    1    2    0    0  0.25533680508E+02  0.16676901561E+02  0.30879385748E+02  0.47787258645E+02  0.19999943468E+02 0.  0.
         12    1    1    2    0    0 -0.25533680508E+02 -0.16676901561E+02 -0.30879385748E+02  0.43400741355E+02  0.00000000000E+00 0. -1.
         11    1    3    3    0    0  0.18131356550E+02  0.16852540638E+02  0.17776074376E+02  0.30475285672E+02  0.51100000000E-03 0. -1.
        -11    1    3    3    0    0  0.32478331599E+01  0.34501461368E+01  0.24925452809E+01  0.53539434847E+01  0.51100000000E-03 0.  1.
         12    1    3    3    0    0  0.41544907974E+01 -0.36257852138E+01  0.10610766091E+02  0.11958029489E+02  0.00000000000E+00 0. -1.
</event>
<event>
 7    1  0.5411321E-010  0.4778730E+02  0.7816164E-02  0.1312668E+00
        -11   -1    0    0    0    0  0.00000000000E+00  0.00000000000E+00  0.45593999997E+02  0.45594000000E+02  0.51100000000E-03 0.  1.
         11   -1    0    0    0    0 -0.00000000000E+00 -0.00000000000E+00 -0.45593999997E+02  0.45594000000E+02  0.51100000000E-03 0. -1.
    9900012    2    1    2    0    0 -0.31754826352E+02  0.13477502469E+02  0.26336449902E+02  0.47787301124E+02  0.20000137146E+02 0.  0.
         12    1    1    2    0    0  0.31754826352E+02 -0.13477502469E+02 -0.26336449902E+02  0.43400698876E+02  0.00000000000E+00 0. -1.
         11    1    3    3    0    0 -0.11631776015E+02  0.11935382104E+02  0.19450393865E+02  0.25613851350E+02  0.51100000000E-03 0.  1.
        -11    1    3    3    0    0 -0.11578290163E+02 -0.17704216208E+01  0.23434272961E+01  0.11944992573E+02  0.51100000000E-03 0. -1.
        -12    1    3    3    0    0 -0.85447601739E+01  0.33125419853E+01  0.45426287410E+01  0.10228457201E+02  0.00000000000E+00 0.  1.
</event>
<event>
 7    1  0.5411321E-010  0.4778728E+02  0.7816164E-02  0.1312668E+00
        -11   -1    0    0    0    0  0.00000000000E+00  0.00000000000E+00  0.45593999997E+02  0.45594000000E+02  0.51100000000E-03 0.  1.
         11   -1    0    0    0    0 -0.00000000000E+00 -0.00000000000E+00 -0.45593999997E+02  0.45594000000E+02  0.51100000000E-03 0. -1.
    9900012    2    1    2    0    0 -0.21585227970E+02 -0.17143284877E+02  0.33523253917E+02  0.47787276088E+02  0.20000022996E+02 0.  0.
         12    1    1    2    0    0  0.21585227970E+02  0.17143284877E+02 -0.33523253917E+02  0.43400723912E+02  0.00000000000E+00 0. -1.
         11    1    3    3    0    0 -0.84452979156E+01 -0.16712756549E+02  0.11218914687E+02  0.21828956351E+02  0.51100000000E-03 0. -1.
        -11    1    3    3    0    0 -0.98699159070E+01 -0.39401877319E+00  0.15064321681E+02  0.18014002298E+02  0.51100000000E-03 0.  1.
        -12    1    3    3    0    0 -0.32700141475E+01 -0.36509554554E-01  0.72400175488E+01  0.79443174395E+01  0.00000000000E+00 0.  1.
</event>
<event>
 7    1  0.5411321E-010  0.4778727E+02  0.7816164E-02  0.1312668E+00
        -11   -1    0    0    0    0  0.00000000000E+00  0.00000000000E+00  0.45593999997E+02  0.45594000000E+02  0.51100000000E-03 0.  1.
         11   -1    0    0    0    0 -0.00000000000E+00 -0.00000000000E+00 -0.45593999997E+02  0.45594000000E+02  0.51100000000E-03 0. -1.
    9900012    2    1    2    0    0  0.25171812876E+02 -0.12783030758E+02  0.32963574638E+02  0.47787270839E+02  0.19999999062E+02 0.  0.
         12    1    1    2    0    0 -0.25171812876E+02  0.12783030758E+02 -0.32963574638E+02  0.43400729161E+02  0.00000000000E+00 0. -1.
         11    1    3    3    0    0  0.31576548305E+01  0.30944454602E+01  0.11755373852E+01  0.45747420845E+01  0.51100000000E-03 0. -1.
        -11    1    3    3    0    0  0.21886735146E+02 -0.17263255423E+02  0.30107776968E+02  0.41030810343E+02  0.51100000000E-03 0.  1.
        -12    1    3    3    0    0  0.12742289899E+00  0.13857792052E+01  0.16802602850E+01  0.21817184113E+01  0.00000000000E+00 0.  1.
</event>
<event>
 7    1  0.5411321E-010  0.4778729E+02  0.7816164E-02  0.1312668E+00
        -11   -1    0    0    0    0  0.00000000000E+00  0.00000000000E+00  0.45593999997E+02  0.45594000000E+02  0.51100000000E-03 0.  1.
         11   -1    0    0    0    0 -0.00000000000E+00 -0.00000000000E+00 -0.45593999997E+02  0.45594000000E+02  0.51100000000E-03 0. -1.
    9900012    2    1    2    0    0 -0.32165992146E+02  0.82195718190E+00  0.29125502069E+02  0.47787291076E+02  0.20000091331E+02 0.  0.
         12    1    1    2    0    0  0.32165992146E+02 -0.82195718190E+00 -0.29125502069E+02  0.43400708924E+02  0.00000000000E+00 0. -1.
         11    1    3    3    0    0 -0.12622891278E+02 -0.84422505397E+00  0.22568904951E+02  0.25872873267E+02  0.51100000000E-03 0. -1.
        -11    1    3    3    0    0 -0.19295472742E+02  0.72566825992E-01  0.59646624640E+01  0.20196478229E+02  0.51100000000E-03 0.  1.
         12    1    3    3    0    0 -0.24762812550E+00  0.15936154099E+01  0.59193465404E+00  0.17179395792E+01  0.00000000000E+00 0. -1.
</event>
<event>
 7    1  0.5411321E-010  0.4778727E+02  0.7816164E-02  0.1312668E+00
        -11   -1    0    0    0    0  0.00000000000E+00  0.00000000000E+00  0.45593999997E+02  0.45594000000E+02  0.51100000000E-03 0.  1.
         11   -1    0    0    0    0 -0.00000000000E+00 -0.00000000000E+00 -0.45593999997E+02  0.45594000000E+02  0.51100000000E-03 0. -1.
    9900012    2    1    2    0    0 -0.42065269225E+02  0.10668392593E+02 -0.56743920874E+00  0.47787268869E+02  0.19999990079E+02 0.  0.
         12    1    1    2    0    0  0.42065269225E+02 -0.10668392593E+02  0.56743920874E+00  0.43400731131E+02  0.00000000000E+00 0. -1.
         11    1    3    3    0    0 -0.28361144649E+01 -0.18995334929E+01 -0.28026484176E+01  0.44166289365E+01  0.51100000000E-03 0. -1.
        -11    1    3    3    0    0 -0.26319543281E+02  0.14734555928E+02  0.26020421858E+01  0.30275338490E+02  0.51100000000E-03 0.  1.
        -12    1    3    3    0    0 -0.12909611479E+02 -0.21666298422E+01 -0.36683297696E+00  0.13095301442E+02  0.00000000000E+00 0.  1.
</event>
<event>
 7    1  0.5411321E-010  0.4778727E+02  0.7816164E-02  0.1312668E+00
        -11   -1    0    0    0    0  0.00000000000E+00  0.00000000000E+00  0.45593999997E+02  0.45594000000E+02  0.51100000000E-03 0.  1.
         11   -1    0    0    0    0 -0.00000000000E+00 -0.00000000000E+00 -0.45593999997E+02  0.45594000000E+02  0.51100000000E-03 0. -1.
    9900012    2    1    2    0    0 -0.22390078096E+02 -0.33703416828E+02  0.15696728830E+02  0.47787271907E+02  0.20000003934E+02 0.  0.
         12    1    1    2    0    0  0.22390078096E+02  0.33703416828E+02 -0.15696728830E+02  0.43400728093E+02  0.00000000000E+00 0. -1.
         11    1    3    3    0    0 -0.23683722110E+01 -0.75092731388E+01 -0.23922680534E+01  0.82292962460E+01  0.51100000000E-03 0. -1.
        -11    1    3    3    0    0 -0.13582415067E+02 -0.20638861696E+02  0.18767037254E+02  0.31026541842E+02  0.51100000000E-03 0.  1.
        -12    1    3    3    0    0 -0.64392908180E+01 -0.55552819933E+01 -0.67804037000E+00  0.85314338190E+01  0.00000000000E+00 0.  1.
</event>
<event>
 7    1  0.5411321E-010  0.4778724E+02  0.7816164E-02  0.1312668E+00
        -11   -1    0    0    0    0  0.00000000000E+00  0.00000000000E+00  0.45593999997E+02  0.45594000000E+02  0.51100000000E-03 0.  1.
         11   -1    0    0    0    0 -0.00000000000E+00 -0.00000000000E+00 -0.45593999997E+02  0.45594000000E+02  0.51100000000E-03 0. -1.
    9900012    2    1    2    0    0 -0.35084960475E+01  0.27330838833E+02  0.33531198151E+02  0.47787244876E+02  0.19999880689E+02 0.  0.
         12    1    1    2    0    0  0.35084960475E+01 -0.27330838833E+02 -0.33531198151E+02  0.43400755124E+02  0.00000000000E+00 0. -1.
         11    1    3    3    0    0 -0.32710033050E+01 -0.15143777234E+01  0.11637391290E+01  0.37877554741E+01  0.51100000000E-03 0. -1.
        -11    1    3    3    0    0 -0.13806258444E+01  0.21497680508E+02  0.28163133965E+02  0.35457277249E+02  0.51100000000E-03 0.  1.
         12    1    3    3    0    0  0.11431331019E+01  0.73475360492E+01  0.42043250574E+01  0.85422121532E+01  0.00000000000E+00 0. -1.
</event>
<event>
 7    1  0.5411321E-010  0.4778727E+02  0.7816164E-02  0.1312668E+00
        -11   -1    0    0    0    0  0.00000000000E+00  0.00000000000E+00  0.45593999997E+02  0.45594000000E+02  0.51100000000E-03 0.  1.
         11   -1    0    0    0    0 -0.00000000000E+00 -0.00000000000E+00 -0.45593999997E+02  0.45594000000E+02  0.51100000000E-03 0. -1.
    9900012    2    1    2    0    0 -0.38561291783E+02  0.16112207739E+02  0.11706699709E+02  0.47787270971E+02  0.19999999666E+02 0.  0.
         12    1    1    2    0    0  0.38561291783E+02 -0.16112207739E+02 -0.11706699709E+02  0.43400729029E+02  0.00000000000E+00 0. -1.
         11    1    3    3    0    0 -0.10445396633E+02  0.11115552308E+02  0.30377202133E+01  0.15552799050E+02  0.51100000000E-03 0. -1.
        -11    1    3    3    0    0 -0.19792888942E+02  0.12043568580E+01  0.11161122507E+02  0.22754770577E+02  0.51100000000E-03 0.  1.
        -12    1    3    3    0    0 -0.83230062068E+01  0.37922985726E+01 -0.24921430113E+01  0.94797013439E+01  0.00000000000E+00 0.  1.
</event>
<event>
 7    1  0.5411321E-010  0.4778727E+02  0.7816164E-02  0.1312668E+00
        -11   -1    0    0    0    0  0.00000000000E+00  0.00000000000E+00  0.45593999997E+02  0.45594000000E+02  0.51100000000E-03 0.  1.
         11   -1    0    0    0    0 -0.00000000000E+00 -0.00000000000E+00 -0.45593999997E+02  0.45594000000E+02  0.51100000000E-03 0. -1.
    9900012    2    1    2    0    0 -0.13677552383E+02 -0.10603225971E+01  0.41175523680E+02  0.47787268744E+02  0.19999989512E+02 0.  0.
         12    1    1    2    0    0  0.13677552383E+02  0.10603225971E+01 -0.41175523680E+02  0.43400731256E+02  0.00000000000E+00 0. -1.
         11    1    3    3    0    0 -0.34462432033E+01  0.54085612281E+00  0.16603387836E+01  0.38633978179E+01  0.51100000000E-03 0.  1.
        -11    1    3    3    0    0  0.28502158060E+01  0.39208353963E+01  0.79365377702E+01  0.92997479743E+01  0.51100000000E-03 0. -1.
        -12    1    3    3    0    0 -0.13081524986E+02 -0.55220141163E+01  0.31578647126E+02  0.34624122952E+02  0.00000000000E+00 0.  1.
</event>
<event>
 7    1  0.5411321E-010  0.4778727E+02  0.7816164E-02  0.1312668E+00
        -11   -1    0    0    0    0  0.00000000000E+00  0.00000000000E+00  0.45593999997E+02  0.45594000000E+02  0.51100000000E-03 0.  1.
         11   -1    0    0    0    0 -0.00000000000E+00 -0.00000000000E+00 -0.45593999997E+02  0.45594000000E+02  0.51100000000E-03 0. -1.
    9900012    2    1    2    0    0 -0.39555594538E+02 -0.52479964840E+01  0.17071522264E+02  0.47787269605E+02  0.19999993438E+02 0.  0.
         12    1    1    2    0    0  0.39555594538E+02  0.52479964840E+01 -0.17071522264E+02  0.43400730395E+02  0.00000000000E+00 0. -1.
         11    1    3    3    0    0 -0.28907363889E+01 -0.59865016767E+01  0.36048101179E+00  0.66576652076E+01  0.51100000000E-03 0. -1.
        -11    1    3    3    0    0 -0.27499308494E+02 -0.30660481015E+00  0.16139135863E+02  0.31886951576E+02  0.51100000000E-03 0.  1.
         12    1    3    3    0    0 -0.91655496553E+01  0.10451100029E+01  0.57190538948E+00  0.92426528213E+01  0.00000000000E+00 0. -1.
</event>
<event>
 7    1  0.5411321E-010  0.4778726E+02  0.7816164E-02  0.1312668E+00
        -11   -1    0    0    0    0  0.00000000000E+00  0.00000000000E+00  0.45593999997E+02  0.45594000000E+02  0.51100000000E-03 0. -1.
         11   -1    0    0    0    0 -0.00000000000E+00 -0.00000000000E+00 -0.45593999997E+02  0.45594000000E+02  0.51100000000E-03 0.  1.
    9900012    2    1    2    0    0  0.19710554663E+02  0.37908835721E+02  0.76182960157E+01  0.47787260086E+02  0.19999950037E+02 0.  0.
         12    1    1    2    0    0 -0.19710554663E+02 -0.37908835721E+02 -0.76182960157E+01  0.43400739914E+02  0.00000000000E+00 0. -1.
         11    1    3    3    0    0 -0.17463141202E+01  0.15948509690E+02  0.53491639506E+01  0.16912070529E+02  0.51100000000E-03 0. -1.
        -11    1    3    3    0    0  0.12420771346E+02  0.11252442152E+02  0.18004234896E+01  0.16856290820E+02  0.51100000000E-03 0.  1.
         12    1    3    3    0    0  0.90360974377E+01  0.10707883878E+02  0.46870857544E+00  0.14018898737E+02  0.00000000000E+00 0. -1.
</event>
<event>
 7    1  0.5411321E-010  0.4778727E+02  0.7816164E-02  0.1312668E+00
        -11   -1    0    0    0    0  0.00000000000E+00  0.00000000000E+00  0.45593999997E+02  0.45594000000E+02  0.51100000000E-03 0.  1.
         11   -1    0    0    0    0 -0.00000000000E+00 -0.00000000000E+00 -0.45593999997E+02  0.45594000000E+02  0.51100000000E-03 0. -1.
    9900012    2    1    2    0    0 -0.24736036559E+02 -0.58264523230E+01  0.35182439654E+02  0.47787272917E+02  0.20000008538E+02 0.  0.
         12    1    1    2    0    0  0.24736036559E+02  0.58264523230E+01 -0.35182439654E+02  0.43400727083E+02  0.00000000000E+00 0. -1.
         11    1    3    3    0    0 -0.10193386765E+02 -0.48404867808E+00  0.32027649550E+01  0.10695659890E+02  0.51100000000E-03 0. -1.
        -11    1    3    3    0    0 -0.15055645720E+02 -0.22558239881E+01  0.29088628627E+02  0.32831532489E+02  0.51100000000E-03 0.  1.
        -12    1    3    3    0    0  0.51299592638E+00 -0.30865796568E+01  0.28910460721E+01  0.42600805379E+01  0.00000000000E+00 0.  1.
</event>
<event>
 7    1  0.5411321E-010  0.4778727E+02  0.7816164E-02  0.1312668E+00
        -11   -1    0    0    0    0  0.00000000000E+00  0.00000000000E+00  0.45593999997E+02  0.45594000000E+02  0.51100000000E-03 0.  1.
         11   -1    0    0    0    0 -0.00000000000E+00 -0.00000000000E+00 -0.45593999997E+02  0.45594000000E+02  0.51100000000E-03 0. -1.
    9900012    2    1    2    0    0 -0.13000377494E+02 -0.10857096071E+02  0.39959186630E+02  0.47787274819E+02  0.20000017210E+02 0.  0.
         12    1    1    2    0    0  0.13000377494E+02  0.10857096071E+02 -0.39959186630E+02  0.43400725181E+02  0.00000000000E+00 0. -1.
         11    1    3    3    0    0 -0.34271099824E+01 -0.36090550205E+01  0.75549106121E-01  0.49775565191E+01  0.51100000000E-03 0. -1.
        -11    1    3    3    0    0 -0.77248989688E+01 -0.75671468524E+01  0.19156581733E+02  0.21997963531E+02  0.51100000000E-03 0.  1.
         12    1    3    3    0    0 -0.18483685432E+01  0.31910580207E+00  0.20727055791E+02  0.20811754769E+02  0.00000000000E+00 0. -1.
</event>
<event>
 7    1  0.5411321E-010  0.4778727E+02  0.7816164E-02  0.1312668E+00
        -11   -1    0    0    0    0  0.00000000000E+00  0.00000000000E+00  0.45593999997E+02  0.45594000000E+02  0.51100000000E-03 0.  1.
         11   -1    0    0    0    0 -0.00000000000E+00 -0.00000000000E+00 -0.45593999997E+02  0.45594000000E+02  0.51100000000E-03 0. -1.
    9900012    2    1    2    0    0  0.11671310758E+02  0.30839198651E+02  0.28219633427E+02  0.47787269834E+02  0.19999994480E+02 0.  0.
         12    1    1    2    0    0 -0.11671310758E+02 -0.30839198651E+02 -0.28219633427E+02  0.43400730166E+02  0.00000000000E+00 0. -1.
         11    1    3    3    0    0 -0.19724559113E+01  0.43163521435E+01  0.92467879388E+01  0.10393486691E+02  0.51100000000E-03 0. -1.
        -11    1    3    3    0    0  0.58759174055E+01  0.52740338389E+01  0.44590009844E-01  0.78958107133E+01  0.51100000000E-03 0.  1.
        -12    1    3    3    0    0  0.77678492642E+01  0.21248812668E+02  0.18928255478E+02  0.29497972429E+02  0.00000000000E+00 0.  1.
</event>
<event>
 7    1  0.5411321E-010  0.4778727E+02  0.7816164E-02  0.1312668E+00
        -11   -1    0    0    0    0  0.00000000000E+00  0.00000000000E+00  0.45593999997E+02  0.45594000000E+02  0.51100000000E-03 0.  1.
         11   -1    0    0    0    0 -0.00000000000E+00 -0.00000000000E+00 -0.45593999997E+02  0.45594000000E+02  0.51100000000E-03 0. -1.
    9900012    2    1    2    0    0  0.31491888202E+02 -0.44652722749E+01  0.29528722688E+02  0.47787272557E+02  0.20000006895E+02 0.  0.
         12    1    1    2    0    0 -0.31491888202E+02  0.44652722749E+01 -0.29528722688E+02  0.43400727443E+02  0.00000000000E+00 0. -1.
         11    1    3    3    0    0  0.88526814313E+01 -0.10983639795E+01 -0.72679000577E+00  0.89501170902E+01  0.51100000000E-03 0. -1.
        -11    1    3    3    0    0  0.26214754812E+01 -0.37311901876E-01  0.27714330312E+00  0.26363487152E+01  0.51100000000E-03 0.  1.
         12    1    3    3    0    0  0.20017731289E+02 -0.33295963935E+01  0.29978369391E+02  0.36200806751E+02  0.00000000000E+00 0. -1.
</event>
<event>
 7    1  0.5411321E-010  0.4778727E+02  0.7816164E-02  0.1312668E+00
        -11   -1    0    0    0    0  0.00000000000E+00  0.00000000000E+00  0.45593999997E+02  0.45594000000E+02  0.51100000000E-03 0. -1.
         11   -1    0    0    0    0 -0.00000000000E+00 -0.00000000000E+00 -0.45593999997E+02  0.45594000000E+02  0.51100000000E-03 0.  1.
    9900012    2    1    2    0    0  0.42076399171E+02  0.10481073131E+02  0.18295394389E+01  0.47787268718E+02  0.19999989395E+02 0.  0.
         12    1    1    2    0    0 -0.42076399171E+02 -0.10481073131E+02 -0.18295394389E+01  0.43400731282E+02  0.00000000000E+00 0. -1.
         11    1    3    3    0    0  0.31471405530E+01 -0.28541216686E+01  0.19160588784E+01  0.46606636916E+01  0.51100000000E-03 0. -1.
        -11    1    3    3    0    0  0.13456077806E+02  0.47216416209E+01  0.61383237976E+01  0.15525429103E+02  0.51100000000E-03 0.  1.
        -12    1    3    3    0    0  0.25473180812E+02  0.86135531790E+01 -0.62248432372E+01  0.27601175924E+02  0.00000000000E+00 0.  1.
</event>
<event>
 7    1  0.5411321E-010  0.4778727E+02  0.7816164E-02  0.1312668E+00
        -11   -1    0    0    0    0  0.00000000000E+00  0.00000000000E+00  0.45593999997E+02  0.45594000000E+02  0.51100000000E-03 0.  1.
         11   -1    0    0    0    0 -0.00000000000E+00 -0.00000000000E+00 -0.45593999997E+02  0.45594000000E+02  0.51100000000E-03 0. -1.
    9900012    2    1    2    0    0  0.34482255281E+02 -0.16392663208E+02  0.20636809234E+02  0.47787271530E+02  0.20000002215E+02 0.  0.
         12    1    1    2    0    0 -0.34482255281E+02  0.16392663208E+02 -0.20636809234E+02  0.43400728470E+02  0.00000000000E+00 0. -1.
         11    1    3    3    0    0  0.20409111856E+01  0.80444834065E+00 -0.96873410403E+00  0.23981037562E+01  0.51100000000E-03 0. -1.
        -11    1    3    3    0    0  0.28990910831E+02 -0.18636743586E+02  0.22960620597E+02  0.41412452484E+02  0.51100000000E-03 0.  1.
        -12    1    3    3    0    0  0.34504332649E+01  0.14396320369E+01 -0.13550772594E+01  0.39767152898E+01  0.00000000000E+00 0.  1.
</event>
<event>
 7    1  0.5411321E-010  0.4778727E+02  0.7816164E-02  0.1312668E+00
        -11   -1    0    0    0    0  0.00000000000E+00  0.00000000000E+00  0.45593999997E+02  0.45594000000E+02  0.51100000000E-03 0. -1.
         11   -1    0    0    0    0 -0.00000000000E+00 -0.00000000000E+00 -0.45593999997E+02  0.45594000000E+02  0.51100000000E-03 0.  1.
    9900012    2    1    2    0    0  0.26013501975E+02  0.34737939513E+02  0.44346904786E+00  0.47787269690E+02  0.19999993824E+02 0.  0.
         12    1    1    2    0    0 -0.26013501975E+02 -0.34737939513E+02 -0.44346904786E+00  0.43400730310E+02  0.00000000000E+00 0. -1.
         11    1    3    3    0    0  0.30020387321E+01  0.13964167539E+02 -0.33756354784E+01  0.14676686504E+02  0.51100000000E-03 0. -1.
        -11    1    3    3    0    0  0.17614808815E+02  0.18247142377E+02  0.70612825651E+01  0.26326819144E+02  0.51100000000E-03 0.  1.
        -12    1    3    3    0    0  0.53966544278E+01  0.25266295979E+01 -0.32421780389E+01  0.67837640417E+01  0.00000000000E+00 0.  1.
</event>
<event>
 7    1  0.5411321E-010  0.4778727E+02  0.7816164E-02  0.1312668E+00
        -11   -1    0    0    0    0  0.00000000000E+00  0.00000000000E+00  0.45593999997E+02  0.45594000000E+02  0.51100000000E-03 0. -1.
         11   -1    0    0    0    0 -0.00000000000E+00 -0.00000000000E+00 -0.45593999997E+02  0.45594000000E+02  0.51100000000E-03 0.  1.
    9900012    2    1    2    0    0 -0.16384377475E+02  0.23333486195E+02 -0.32721916715E+02  0.47787271472E+02  0.20000001949E+02 0.  0.
         12    1    1    2    0    0  0.16384377475E+02 -0.23333486195E+02  0.32721916715E+02  0.43400728528E+02  0.00000000000E+00 0. -1.
         11    1    3    3    0    0  0.21089231464E+01  0.48183377640E+01 -0.65546303972E+01  0.84039940237E+01  0.51100000000E-03 0. -1.
        -11    1    3    3    0    0 -0.12660477763E+02  0.80989847333E+01 -0.22188776433E+02  0.26799683781E+02  0.51100000000E-03 0.  1.
        -12    1    3    3    0    0 -0.58328228587E+01  0.10416163698E+02 -0.39785098845E+01  0.12583593667E+02  0.00000000000E+00 0.  1.
</event>
<event>
 7    1  0.5411321E-010  0.4778724E+02  0.7816164E-02  0.1312668E+00
        -11   -1    0    0    0    0  0.00000000000E+00  0.00000000000E+00  0.45593999997E+02  0.45594000000E+02  0.51100000000E-03 0. -1.
         11   -1    0    0    0    0 -0.00000000000E+00 -0.00000000000E+00 -0.45593999997E+02  0.45594000000E+02  0.51100000000E-03 0.  1.
    9900012    2    1    2    0    0 -0.18226157929E+02 -0.36170058186E+02 -0.15593590307E+02  0.47787239630E+02  0.19999856767E+02 0.  0.
         12    1    1    2    0    0  0.18226157929E+02  0.36170058186E+02  0.15593590307E+02  0.43400760370E+02  0.00000000000E+00 0. -1.
         11    1    3    3    0    0 -0.10216606467E+02 -0.28289014276E+02 -0.21744523724E+01  0.30155855481E+02  0.51100000000E-03 0.  1.
        -11    1    3    3    0    0 -0.11069086840E+01 -0.15292757634E+01 -0.12402804182E+01  0.22588109642E+01  0.51100000000E-03 0. -1.
         12    1    3    3    0    0 -0.69026427782E+01 -0.63517681469E+01 -0.12178857516E+02  0.15372573184E+02  0.00000000000E+00 0. -1.
</event>
<event>
 7    1  0.5411321E-010  0.4778727E+02  0.7816164E-02  0.1312668E+00
        -11   -1    0    0    0    0  0.00000000000E+00  0.00000000000E+00  0.45593999997E+02  0.45594000000E+02  0.51100000000E-03 0.  1.
         11   -1    0    0    0    0 -0.00000000000E+00 -0.00000000000E+00 -0.45593999997E+02  0.45594000000E+02  0.51100000000E-03 0. -1.
    9900012    2    1    2    0    0 -0.31758688789E+02 -0.27260160803E+02  0.11484442110E+02  0.47787273149E+02  0.20000009593E+02 0.  0.
         12    1    1    2    0    0  0.31758688789E+02  0.27260160803E+02 -0.11484442110E+02  0.43400726851E+02  0.00000000000E+00 0. -1.
         11    1    3    3    0    0 -0.54284213511E+01 -0.12041288543E+01 -0.35624038608E+01  0.66036661175E+01  0.51100000000E-03 0. -1.
        -11    1    3    3    0    0 -0.20489225569E+02 -0.13682110740E+02  0.91089615383E+01  0.26267502723E+02  0.51100000000E-03 0.  1.
         12    1    3    3    0    0 -0.58410418697E+01 -0.12373921209E+02  0.59378844326E+01  0.14916104308E+02  0.00000000000E+00 0. -1.
</event>
<event>
 7    1  0.5411321E-010  0.4778727E+02  0.7816164E-02  0.1312668E+00
        -11   -1    0    0    0    0  0.00000000000E+00  0.00000000000E+00  0.45593999997E+02  0.45594000000E+02  0.51100000000E-03 0.  1.
         11   -1    0    0    0    0 -0.00000000000E+00 -0.00000000000E+00 -0.45593999997E+02  0.45594000000E+02  0.51100000000E-03 0. -1.
    9900012    2    1    2    0    0 -0.35908857117E+02 -0.72068798121E+01  0.23286015391E+02  0.47787266724E+02  0.19999980303E+02 0.  0.
         12    1    1    2    0    0  0.35908857117E+02  0.72068798121E+01 -0.23286015391E+02  0.43400733276E+02  0.00000000000E+00 0. -1.
         11    1    3    3    0    0 -0.93730147200E+00 -0.10994079096E+01 -0.50147697334E+00  0.15292845442E+01  0.51100000000E-03 0. -1.
        -11    1    3    3    0    0 -0.12715978248E+02  0.26840015563E+01  0.71260767797E+00  0.13015674286E+02  0.51100000000E-03 0.  1.
        -12    1    3    3    0    0 -0.22255577397E+02 -0.87914734587E+01  0.23074884686E+02  0.33242307894E+02  0.00000000000E+00 0.  1.
</event>
<event>
 7    1  0.5411321E-010  0.4778727E+02  0.7816164E-02  0.1312668E+00
        -11   -1    0    0    0    0  0.00000000000E+00  0.00000000000E+00  0.45593999997E+02  0.45594000000E+02  0.51100000000E-03 0.  1.
         11   -1    0    0    0    0 -0.00000000000E+00 -0.00000000000E+00 -0.45593999997E+02  0.45594000000E+02  0.51100000000E-03 0. -1.
    9900012    2    1    2    0    0  0.13737472496E+01  0.35384575740E+02  0.25093180297E+02  0.47787273287E+02  0.20000010225E+02 0.  0.
         12    1    1    2    0    0 -0.13737472496E+01 -0.35384575740E+02 -0.25093180297E+02  0.43400726713E+02  0.00000000000E+00 0. -1.
         11    1    3    3    0    0 -0.42660143171E+01  0.21661765434E+02  0.75053961065E+01  0.23318703456E+02  0.51100000000E-03 0. -1.
        -11    1    3    3    0    0  0.23533266484E+01  0.13514706741E+02  0.14217501169E+02  0.19756588379E+02  0.51100000000E-03 0.  1.
         12    1    3    3    0    0  0.32864349183E+01  0.20810356437E+00  0.33702830211E+01  0.47119814524E+01  0.00000000000E+00 0. -1.
</event>
<event>
 7    1  0.5411321E-010  0.4778728E+02  0.7816164E-02  0.1312668E+00
        -11   -1    0    0    0    0  0.00000000000E+00  0.00000000000E+00  0.45593999997E+02  0.45594000000E+02  0.51100000000E-03 0.  1.
         11   -1    0    0    0    0 -0.00000000000E+00 -0.00000000000E+00 -0.45593999997E+02  0.45594000000E+02  0.51100000000E-03 0. -1.
    9900012    2    1    2    0    0  0.32683482122E+02  0.27786023945E+02 -0.65840120984E+01  0.47787281739E+02  0.20000048761E+02 0.  0.
         12    1    1    2    0    0 -0.32683482122E+02 -0.27786023945E+02  0.65840120984E+01  0.43400718261E+02  0.00000000000E+00 0. -1.
         11    1    3    3    0    0  0.19884655113E+02  0.17677809611E+02  0.50255904580E+01  0.27076946307E+02  0.51100000000E-03 0. -1.
        -11    1    3    3    0    0  0.42710465926E+01  0.16217001937E+01 -0.10161564427E+01  0.46802056250E+01  0.51100000000E-03 0.  1.
         12    1    3    3    0    0  0.85277804165E+01  0.84865141399E+01 -0.10593446114E+02  0.16030129807E+02  0.00000000000E+00 0. -1.
</event>
<event>
 7    1  0.5411321E-010  0.4778728E+02  0.7816164E-02  0.1312668E+00
        -11   -1    0    0    0    0  0.00000000000E+00  0.00000000000E+00  0.45593999997E+02  0.45594000000E+02  0.51100000000E-03 0. -1.
         11   -1    0    0    0    0 -0.00000000000E+00 -0.00000000000E+00 -0.45593999997E+02  0.45594000000E+02  0.51100000000E-03 0.  1.
    9900012    2    1    2    0    0 -0.28174914495E+02 -0.21732695293E+02 -0.24849283276E+02  0.47787277300E+02  0.20000028523E+02 0.  0.
         12    1    1    2    0    0  0.28174914495E+02  0.21732695293E+02  0.24849283276E+02  0.43400722700E+02  0.00000000000E+00 0. -1.
         11    1    3    3    0    0 -0.15450011323E+02 -0.20302275118E+02 -0.21684464318E+02  0.33482849608E+02  0.51100000000E-03 0. -1.
        -11    1    3    3    0    0 -0.39173400767E+01  0.21193859827E+01 -0.10065884249E+01  0.45662425185E+01  0.51100000000E-03 0.  1.
        -12    1    3    3    0    0 -0.88075630959E+01 -0.35498061577E+01 -0.21582305331E+01  0.97381851738E+01  0.00000000000E+00 0.  1.
</event>
<event>
 7    1  0.5411321E-010  0.4778727E+02  0.7816164E-02  0.1312668E+00
        -11   -1    0    0    0    0  0.00000000000E+00  0.00000000000E+00  0.45593999997E+02  0.45594000000E+02  0.51100000000E-03 0.  1.
         11   -1    0    0    0    0 -0.00000000000E+00 -0.00000000000E+00 -0.45593999997E+02  0.45594000000E+02  0.51100000000E-03 0. -1.
    9900012    2    1    2    0    0  0.68454113183E+01  0.12694978687E+02  0.40934104001E+02  0.47787274080E+02  0.20000013841E+02 0.  0.
         12    1    1    2    0    0 -0.68454113183E+01 -0.12694978687E+02 -0.40934104001E+02  0.43400725920E+02  0.00000000000E+00 0. -1.
         11    1    3    3    0    0  0.71728582296E+00 -0.15314338665E+01  0.54882052022E+00  0.17779181263E+01  0.51100000000E-03 0. -1.
        -11    1    3    3    0    0  0.50645860161E+00  0.21933382511E+00  0.22917689082E+02  0.22924333813E+02  0.51100000000E-03 0.  1.
        -12    1    3    3    0    0  0.56216668938E+01  0.14007078728E+02  0.17467594399E+02  0.23085022141E+02  0.00000000000E+00 0.  1.
</event>
<event>
 7    1  0.5411321E-010  0.4778727E+02  0.7816164E-02  0.1312668E+00
        -11   -1    0    0    0    0  0.00000000000E+00  0.00000000000E+00  0.45593999997E+02  0.45594000000E+02  0.51100000000E-03 0. -1.
         11   -1    0    0    0    0 -0.00000000000E+00 -0.00000000000E+00 -0.45593999997E+02  0.45594000000E+02  0.51100000000E-03 0.  1.
    9900012    2    1    2    0    0 -0.13348761307E+02  0.29328010836E+02 -0.29074071595E+02  0.47787270891E+02  0.19999999302E+02 0.  0.
         12    1    1    2    0    0  0.13348761307E+02 -0.29328010836E+02  0.29074071595E+02  0.43400729109E+02  0.00000000000E+00 0. -1.
         11    1    3    3    0    0 -0.90397413012E+01  0.18965633914E+01 -0.67169860471E+01  0.11420673242E+02  0.51100000000E-03 0. -1.
        -11    1    3    3    0    0 -0.12519354945E+00  0.73008060597E+01 -0.99863990203E+01  0.12371160342E+02  0.51100000000E-03 0.  1.
         12    1    3    3    0    0 -0.41838264562E+01  0.20130641385E+02 -0.12370686528E+02  0.23995437307E+02  0.00000000000E+00 0. -1.
</event>
<event>
 7    1  0.5411321E-010  0.4778727E+02  0.7816164E-02  0.1312668E+00
        -11   -1    0    0    0    0  0.00000000000E+00  0.00000000000E+00  0.45593999997E+02  0.45594000000E+02  0.51100000000E-03 0.  1.
         11   -1    0    0    0    0 -0.00000000000E+00 -0.00000000000E+00 -0.45593999997E+02  0.45594000000E+02  0.51100000000E-03 0. -1.
    9900012    2    1    2    0    0 -0.12658772773E+02 -0.33850825072E+02  0.24031242376E+02  0.47787268481E+02  0.19999988314E+02 0.  0.
         12    1    1    2    0    0  0.12658772773E+02  0.33850825072E+02 -0.24031242376E+02  0.43400731519E+02  0.00000000000E+00 0. -1.
         11    1    3    3    0    0  0.30490944579E+01 -0.16486420745E+02  0.80965751191E+01  0.18618635152E+02  0.51100000000E-03 0. -1.
        -11    1    3    3    0    0 -0.11897177825E+02 -0.13557563819E+02  0.15468950705E+02  0.23762129810E+02  0.51100000000E-03 0.  1.
        -12    1    3    3    0    0 -0.38106894065E+01 -0.38068405082E+01  0.46571655202E+00  0.54065035203E+01  0.00000000000E+00 0.  1.
</event>
<event>
 7    1  0.5411321E-010  0.4778727E+02  0.7816164E-02  0.1312668E+00
        -11   -1    0    0    0    0  0.00000000000E+00  0.00000000000E+00  0.45593999997E+02  0.45594000000E+02  0.51100000000E-03 0. -1.
         11   -1    0    0    0    0 -0.00000000000E+00 -0.00000000000E+00 -0.45593999997E+02  0.45594000000E+02  0.51100000000E-03 0.  1.
    9900012    2    1    2    0    0  0.33319192326E+02 -0.25882459668E+02 -0.10176090432E+02  0.47787272907E+02  0.20000008492E+02 0.  0.
         12    1    1    2    0    0 -0.33319192326E+02  0.25882459668E+02  0.10176090432E+02  0.43400727093E+02  0.00000000000E+00 0. -1.
         11    1    3    3    0    0  0.24796403145E+01  0.27780728985E+01 -0.10592906883E+01  0.38714857797E+01  0.51100000000E-03 0. -1.
        -11    1    3    3    0    0  0.25718283464E+02 -0.27291540542E+02 -0.67175524275E+01  0.38097031385E+02  0.51100000000E-03 0.  1.
        -12    1    3    3    0    0  0.51212685477E+01 -0.13689920243E+01 -0.23992473165E+01  0.58187557421E+01  0.00000000000E+00 0.  1.
</event>
<event>
 7    1  0.5411321E-010  0.4778727E+02  0.7816164E-02  0.1312668E+00
        -11   -1    0    0    0    0  0.00000000000E+00  0.00000000000E+00  0.45593999997E+02  0.45594000000E+02  0.51100000000E-03 0.  1.
         11   -1    0    0    0    0 -0.00000000000E+00 -0.00000000000E+00 -0.45593999997E+02  0.45594000000E+02  0.51100000000E-03 0. -1.
    9900012    2    1    2    0    0  0.28722171249E+02 -0.22569817827E+02  0.23436364226E+02  0.47787274590E+02  0.20000016165E+02 0.  0.
         12    1    1    2    0    0 -0.28722171249E+02  0.22569817827E+02 -0.23436364226E+02  0.43400725410E+02  0.00000000000E+00 0. -1.
         11    1    3    3    0    0  0.49759207465E+01 -0.41501499073E+01 -0.25728820098E+01  0.69716033755E+01  0.51100000000E-03 0. -1.
        -11    1    3    3    0    0  0.78276690090E+01 -0.10808390346E+02  0.14718640528E+02  0.19867865594E+02  0.51100000000E-03 0.  1.
        -12    1    3    3    0    0  0.15918581494E+02 -0.76112775732E+01  0.11290605708E+02  0.20947805621E+02  0.00000000000E+00 0.  1.
</event>
<event>
 7    1  0.5411321E-010  0.4778726E+02  0.7816164E-02  0.1312668E+00
        -11   -1    0    0    0    0  0.00000000000E+00  0.00000000000E+00  0.45593999997E+02  0.45594000000E+02  0.51100000000E-03 0.  1.
         11   -1    0    0    0    0 -0.00000000000E+00 -0.00000000000E+00 -0.45593999997E+02  0.45594000000E+02  0.51100000000E-03 0. -1.
    9900012    2    1    2    0    0 -0.52837567224E+01 -0.38481975331E+02 -0.19360872554E+02  0.47787263871E+02  0.19999967294E+02 0.  0.
         12    1    1    2    0    0  0.52837567224E+01  0.38481975331E+02  0.19360872554E+02  0.43400736129E+02  0.00000000000E+00 0. -1.
         11    1    3    3    0    0 -0.26811277802E+01 -0.23519197501E+01 -0.10138341702E+01  0.37078069894E+01  0.51100000000E-03 0. -1.
        -11    1    3    3    0    0 -0.30530787183E+01 -0.30683148146E+02 -0.71992628557E+01  0.31663958308E+02  0.51100000000E-03 0.  1.
        -12    1    3    3    0    0  0.45044977614E+00 -0.54469074346E+01 -0.11147775528E+02  0.12415498574E+02  0.00000000000E+00 0.  1.
</event>
<event>
 7    1  0.5411321E-010  0.4778728E+02  0.7816164E-02  0.1312668E+00
        -11   -1    0    0    0    0  0.00000000000E+00  0.00000000000E+00  0.45593999997E+02  0.45594000000E+02  0.51100000000E-03 0. -1.
         11   -1    0    0    0    0 -0.00000000000E+00 -0.00000000000E+00 -0.45593999997E+02  0.45594000000E+02  0.51100000000E-03 0.  1.
    9900012    2    1    2    0    0  0.26951867711E+02 -0.63369770690E+01 -0.33422473706E+02  0.47787283415E+02  0.20000056401E+02 0.  0.
         12    1    1    2    0    0 -0.26951867711E+02  0.63369770690E+01  0.33422473706E+02  0.43400716585E+02  0.00000000000E+00 0. -1.
         11    1    3    3    0    0  0.21196428621E+01  0.14911428022E+01 -0.11041686020E+02  0.11341746917E+02  0.51100000000E-03 0.  1.
        -11    1    3    3    0    0  0.19536401908E+02 -0.94413780119E+01 -0.12292973809E+02  0.24938480780E+02  0.51100000000E-03 0. -1.
         12    1    3    3    0    0  0.52958229402E+01  0.16132581407E+01 -0.10087813878E+02  0.11507055717E+02  0.00000000000E+00 0. -1.
</event>
<event>
 7    1  0.5411321E-010  0.4778727E+02  0.7816164E-02  0.1312668E+00
        -11   -1    0    0    0    0  0.00000000000E+00  0.00000000000E+00  0.45593999997E+02  0.45594000000E+02  0.51100000000E-03 0.  1.
         11   -1    0    0    0    0 -0.00000000000E+00 -0.00000000000E+00 -0.45593999997E+02  0.45594000000E+02  0.51100000000E-03 0. -1.
    9900012    2    1    2    0    0 -0.27486759977E+02 -0.84565595078E+01  0.32505197002E+02  0.47787271839E+02  0.20000003624E+02 0.  0.
         12    1    1    2    0    0  0.27486759977E+02  0.84565595078E+01 -0.32505197002E+02  0.43400728161E+02  0.00000000000E+00 0. -1.
         11    1    3    3    0    0 -0.11698898282E+02  0.29847963620E+01  0.18762434183E+02  0.22311480611E+02  0.51100000000E-03 0. -1.
        -11    1    3    3    0    0 -0.83417515364E+00 -0.13741804078E+01  0.53590422339E+01  0.55949579003E+01  0.51100000000E-03 0.  1.
         12    1    3    3    0    0 -0.14953686542E+02 -0.10067175462E+02  0.83837205854E+01  0.19880833328E+02  0.00000000000E+00 0. -1.
</event>
<event>
 7    1  0.5411321E-010  0.4778727E+02  0.7816164E-02  0.1312668E+00
        -11   -1    0    0    0    0  0.00000000000E+00  0.00000000000E+00  0.45593999997E+02  0.45594000000E+02  0.51100000000E-03 0. -1.
         11   -1    0    0    0    0 -0.00000000000E+00 -0.00000000000E+00 -0.45593999997E+02  0.45594000000E+02  0.51100000000E-03 0.  1.
    9900012    2    1    2    0    0  0.19201100119E+00  0.29824765765E+02 -0.31528877554E+02  0.47787266815E+02  0.19999980716E+02 0.  0.
         12    1    1    2    0    0 -0.19201100119E+00 -0.29824765765E+02  0.31528877554E+02  0.43400733185E+02  0.00000000000E+00 0. -1.
         11    1    3    3    0    0  0.29078165161E+01 -0.16360005561E+01 -0.22640406708E+01  0.40320931451E+01  0.51100000000E-03 0. -1.
        -11    1    3    3    0    0 -0.37324558280E+01  0.85677286390E+01 -0.60350654901E+01  0.11124711963E+02  0.51100000000E-03 0.  1.
         12    1    3    3    0    0  0.10166503131E+01  0.22893037682E+02 -0.23229771393E+02  0.32630461706E+02  0.00000000000E+00 0. -1.
</event>
<event>
 7    1  0.5411321E-010  0.4778727E+02  0.7816164E-02  0.1312668E+00
        -11   -1    0    0    0    0  0.00000000000E+00  0.00000000000E+00  0.45593999997E+02  0.45594000000E+02  0.51100000000E-03 0. -1.
         11   -1    0    0    0    0 -0.00000000000E+00 -0.00000000000E+00 -0.45593999997E+02  0.45594000000E+02  0.51100000000E-03 0.  1.
    9900012    2    1    2    0    0  0.74192538000E+01 -0.42591086547E+02 -0.38180372515E+01  0.47787269722E+02  0.19999993971E+02 0.  0.
         12    1    1    2    0    0 -0.74192538000E+01  0.42591086547E+02  0.38180372515E+01  0.43400730278E+02  0.00000000000E+00 0. -1.
         11    1    3    3    0    0 -0.80057653324E-01  0.15487037784E+00 -0.37827655605E+00  0.41651827783E+00  0.51100000000E-03 0. -1.
        -11    1    3    3    0    0  0.35637356265E+01 -0.43114702456E+02 -0.26728242584E+01  0.43344224174E+02  0.51100000000E-03 0.  1.
        -12    1    3    3    0    0  0.39355758268E+01  0.36874553136E+00 -0.76693643698E+00  0.40265272697E+01  0.00000000000E+00 0.  1.
</event>
<event>
 7    1  0.5411321E-010  0.4778727E+02  0.7816164E-02  0.1312668E+00
        -11   -1    0    0    0    0  0.00000000000E+00  0.00000000000E+00  0.45593999997E+02  0.45594000000E+02  0.51100000000E-03 0.  1.
         11   -1    0    0    0    0 -0.00000000000E+00 -0.00000000000E+00 -0.45593999997E+02  0.45594000000E+02  0.51100000000E-03 0. -1.
    9900012    2    1    2    0    0 -0.19237314333E+02 -0.37807739055E+02  0.91719323062E+01  0.47787265704E+02  0.19999975651E+02 0.  0.
         12    1    1    2    0    0  0.19237314333E+02  0.37807739055E+02 -0.91719323062E+01  0.43400734296E+02  0.00000000000E+00 0. -1.
         11    1    3    3    0    0 -0.95886069073E+00 -0.92604526331E+01 -0.49960785779E+01  0.10565803245E+02  0.51100000000E-03 0. -1.
        -11    1    3    3    0    0 -0.59872255860E+01 -0.14867297546E+02  0.64364808892E+01  0.17271702089E+02  0.51100000000E-03 0.  1.
         12    1    3    3    0    0 -0.12291228057E+02 -0.13679988876E+02  0.77315299950E+01  0.19949760370E+02  0.00000000000E+00 0. -1.
</event>
<event>
 7    1  0.5411321E-010  0.4778728E+02  0.7816164E-02  0.1312668E+00
        -11   -1    0    0    0    0  0.00000000000E+00  0.00000000000E+00  0.45593999997E+02  0.45594000000E+02  0.51100000000E-03 0. -1.
         11   -1    0    0    0    0 -0.00000000000E+00 -0.00000000000E+00 -0.45593999997E+02  0.45594000000E+02  0.51100000000E-03 0.  1.
    9900012    2    1    2    0    0  0.23842664913E+02 -0.30445776327E+02 -0.19702910997E+02  0.47787278024E+02  0.20000031822E+02 0.  0.
         12    1    1    2    0    0 -0.23842664913E+02  0.30445776327E+02  0.19702910997E+02  0.43400721976E+02  0.00000000000E+00 0. -1.
         11    1    3    3    0    0  0.21960737727E+02 -0.14370529230E+02 -0.10956855380E+02  0.28440091279E+02  0.51100000000E-03 0. -1.
        -11    1    3    3    0    0  0.39478709303E+01 -0.11387593197E+02 -0.69845545805E+01  0.13930074180E+02  0.51100000000E-03 0.  1.
         12    1    3    3    0    0 -0.20659437449E+01 -0.46876538999E+01 -0.17615010369E+01  0.54171125653E+01  0.00000000000E+00 0. -1.
</event>
<event>
 7    1  0.5411321E-010  0.4778727E+02  0.7816164E-02  0.1312668E+00
        -11   -1    0    0    0    0  0.00000000000E+00  0.00000000000E+00  0.45593999997E+02  0.45594000000E+02  0.51100000000E-03 0.  1.
         11   -1    0    0    0    0 -0.00000000000E+00 -0.00000000000E+00 -0.45593999997E+02  0.45594000000E+02  0.51100000000E-03 0. -1.
    9900012    2    1    2    0    0  0.13997609618E+02 -0.35455711183E+02  0.20750484827E+02  0.47787272459E+02  0.20000006448E+02 0.  0.
         12    1    1    2    0    0 -0.13997609618E+02  0.35455711183E+02 -0.20750484827E+02  0.43400727541E+02  0.00000000000E+00 0. -1.
         11    1    3    3    0    0  0.17921391096E+01  0.98538099955E+00 -0.11139413713E+01  0.23288632297E+01  0.51100000000E-03 0. -1.
        -11    1    3    3    0    0  0.99113729606E+01 -0.28554723708E+02  0.11750543690E+02  0.32429659839E+02  0.51100000000E-03 0.  1.
        -12    1    3    3    0    0  0.22940975482E+01 -0.78863684754E+01  0.10113882508E+02  0.13028749390E+02  0.00000000000E+00 0.  1.
</event>
<event>
 7    1  0.5411321E-010  0.4778728E+02  0.7816164E-02  0.1312668E+00
        -11   -1    0    0    0    0  0.00000000000E+00  0.00000000000E+00  0.45593999997E+02  0.45594000000E+02  0.51100000000E-03 0.  1.
         11   -1    0    0    0    0 -0.00000000000E+00 -0.00000000000E+00 -0.45593999997E+02  0.45594000000E+02  0.51100000000E-03 0. -1.
    9900012    2    1    2    0    0 -0.94889347898E+01  0.41485840240E+01  0.42147027494E+02  0.47787279276E+02  0.20000037529E+02 0.  0.
         12    1    1    2    0    0  0.94889347898E+01 -0.41485840240E+01 -0.42147027494E+02  0.43400720724E+02  0.00000000000E+00 0. -1.
         11    1    3    3    0    0 -0.37892532597E+01 -0.14684587070E+01 -0.41402207198E+00  0.40848776943E+01  0.51100000000E-03 0. -1.
        -11    1    3    3    0    0 -0.35389257881E+01 -0.20270188587E+00  0.19545255151E+02  0.19864090288E+02  0.51100000000E-03 0.  1.
         12    1    3    3    0    0 -0.21607557420E+01  0.58197446169E+01  0.23015794414E+02  0.23838311293E+02  0.00000000000E+00 0. -1.
</event>
<event>
 7    1  0.5411321E-010  0.4778727E+02  0.7816164E-02  0.1312668E+00
        -11   -1    0    0    0    0  0.00000000000E+00  0.00000000000E+00  0.45593999997E+02  0.45594000000E+02  0.51100000000E-03 0. -1.
         11   -1    0    0    0    0 -0.00000000000E+00 -0.00000000000E+00 -0.45593999997E+02  0.45594000000E+02  0.51100000000E-03 0.  1.
    9900012    2    1    2    0    0  0.21339871563E+02 -0.16444032438E+01 -0.37756180479E+02  0.47787270228E+02  0.19999996279E+02 0.  0.
         12    1    1    2    0    0 -0.21339871563E+02  0.16444032438E+01  0.37756180479E+02  0.43400729772E+02  0.00000000000E+00 0. -1.
         11    1    3    3    0    0  0.11556858007E+02  0.51581071511E+01 -0.10357751770E+02  0.16353900402E+02  0.51100000000E-03 0. -1.
        -11    1    3    3    0    0  0.60730382633E+01  0.59081957435E+00 -0.17502036973E+02  0.18535160102E+02  0.51100000000E-03 0.  1.
         12    1    3    3    0    0  0.37099752922E+01 -0.73933299693E+01 -0.98963917364E+01  0.12898209725E+02  0.00000000000E+00 0. -1.
</event>
<event>
 7    1  0.5411321E-010  0.4778726E+02  0.7816164E-02  0.1312668E+00
        -11   -1    0    0    0    0  0.00000000000E+00  0.00000000000E+00  0.45593999997E+02  0.45594000000E+02  0.51100000000E-03 0.  1.
         11   -1    0    0    0    0 -0.00000000000E+00 -0.00000000000E+00 -0.45593999997E+02  0.45594000000E+02  0.51100000000E-03 0. -1.
    9900012    2    1    2    0    0  0.74958075822E-01 -0.34369093667E+02  0.26502524072E+02  0.47787262675E+02  0.19999961840E+02 0.  0.
         12    1    1    2    0    0 -0.74958075822E-01  0.34369093667E+02 -0.26502524072E+02  0.43400737325E+02  0.00000000000E+00 0. -1.
         11    1    3    3    0    0  0.18109411945E+01 -0.18655513974E+02  0.71792063098E+01  0.20071091478E+02  0.51100000000E-03 0. -1.
        -11    1    3    3    0    0 -0.67858883691E+01 -0.66922554450E+01  0.93285925489E+01  0.13336311450E+02  0.51100000000E-03 0.  1.
        -12    1    3    3    0    0  0.50499052504E+01 -0.90213242478E+01  0.99947252135E+01  0.14379859746E+02  0.00000000000E+00 0.  1.
</event>
<event>
 7    1  0.5411321E-010  0.4778727E+02  0.7816164E-02  0.1312668E+00
        -11   -1    0    0    0    0  0.00000000000E+00  0.00000000000E+00  0.45593999997E+02  0.45594000000E+02  0.51100000000E-03 0.  1.
         11   -1    0    0    0    0 -0.00000000000E+00 -0.00000000000E+00 -0.45593999997E+02  0.45594000000E+02  0.51100000000E-03 0. -1.
    9900012    2    1    2    0    0  0.40644308588E+02 -0.78179545550E+01  0.13059232143E+02  0.47787265235E+02  0.19999973511E+02 0.  0.
         12    1    1    2    0    0 -0.40644308588E+02  0.78179545550E+01 -0.13059232143E+02  0.43400734765E+02  0.00000000000E+00 0. -1.
         11    1    3    3    0    0  0.12798619292E+02 -0.38122166145E+01 -0.42242600613E+01  0.14006499370E+02  0.51100000000E-03 0. -1.
        -11    1    3    3    0    0  0.87540665603E+01 -0.38291230392E+01  0.84022938948E+01  0.12723773322E+02  0.51100000000E-03 0.  1.
         12    1    3    3    0    0  0.19091622736E+02 -0.17661490129E+00  0.88811983094E+01  0.21056992542E+02  0.00000000000E+00 0. -1.
</event>
<event>
 7    1  0.5411321E-010  0.4778727E+02  0.7816164E-02  0.1312668E+00
        -11   -1    0    0    0    0  0.00000000000E+00  0.00000000000E+00  0.45593999997E+02  0.45594000000E+02  0.51100000000E-03 0. -1.
         11   -1    0    0    0    0 -0.00000000000E+00 -0.00000000000E+00 -0.45593999997E+02  0.45594000000E+02  0.51100000000E-03 0.  1.
    9900012    2    1    2    0    0 -0.22499196127E+02 -0.35537378846E+02 -0.10700674640E+02  0.47787267756E+02  0.19999985005E+02 0.  0.
         12    1    1    2    0    0  0.22499196127E+02  0.35537378846E+02  0.10700674640E+02  0.43400732244E+02  0.00000000000E+00 0. -1.
         11    1    3    3    0    0 -0.16316848012E+02 -0.28858570124E+02 -0.45518536797E+01  0.33463053818E+02  0.51100000000E-03 0. -1.
        -11    1    3    3    0    0  0.12395933582E+01  0.13080150298E+01 -0.19108531683E+01  0.26265671710E+01  0.51100000000E-03 0.  1.
        -12    1    3    3    0    0 -0.74219414734E+01 -0.79868237515E+01 -0.42379677921E+01  0.11697646767E+02  0.00000000000E+00 0.  1.
</event>
<event>
 7    1  0.5411321E-010  0.4778726E+02  0.7816164E-02  0.1312668E+00
        -11   -1    0    0    0    0  0.00000000000E+00  0.00000000000E+00  0.45593999997E+02  0.45594000000E+02  0.51100000000E-03 0.  1.
         11   -1    0    0    0    0 -0.00000000000E+00 -0.00000000000E+00 -0.45593999997E+02  0.45594000000E+02  0.51100000000E-03 0. -1.
    9900012    2    1    2    0    0  0.20107975618E+02  0.37823947477E+02 -0.69744380432E+01  0.47787257239E+02  0.19999937055E+02 0.  0.
         12    1    1    2    0    0 -0.20107975618E+02 -0.37823947477E+02  0.69744380432E+01  0.43400742761E+02  0.00000000000E+00 0. -1.
         11    1    3    3    0    0 -0.12320387611E+01  0.15248484417E+01  0.25886599366E+01  0.32471899863E+01  0.51100000000E-03 0. -1.
        -11    1    3    3    0    0  0.16193322187E+02  0.31970182449E+02 -0.44931356308E+01  0.36117925152E+02  0.51100000000E-03 0.  1.
        -12    1    3    3    0    0  0.51466921927E+01  0.43289165865E+01 -0.50699623490E+01  0.84221421004E+01  0.00000000000E+00 0.  1.
</event>
<event>
 7    1  0.5411321E-010  0.4778727E+02  0.7816164E-02  0.1312668E+00
        -11   -1    0    0    0    0  0.00000000000E+00  0.00000000000E+00  0.45593999997E+02  0.45594000000E+02  0.51100000000E-03 0.  1.
         11   -1    0    0    0    0 -0.00000000000E+00 -0.00000000000E+00 -0.45593999997E+02  0.45594000000E+02  0.51100000000E-03 0. -1.
    9900012    2    1    2    0    0 -0.21658992098E+02  0.82067406354E+01  0.36703688075E+02  0.47787271333E+02  0.20000001314E+02 0.  0.
         12    1    1    2    0    0  0.21658992098E+02 -0.82067406354E+01 -0.36703688075E+02  0.43400728667E+02  0.00000000000E+00 0. -1.
         11    1    3    3    0    0 -0.78681492526E+01  0.11018091067E+02  0.17426730469E+02  0.22068009392E+02  0.51100000000E-03 0. -1.
        -11    1    3    3    0    0 -0.92447360077E+01 -0.24189155387E+01  0.51117729149E+01  0.10837274511E+02  0.51100000000E-03 0.  1.
        -12    1    3    3    0    0 -0.45461068381E+01 -0.39243489327E+00  0.14165184690E+02  0.14881987429E+02  0.00000000000E+00 0.  1.
</event>
<event>
 7    1  0.5411321E-010  0.4778727E+02  0.7816164E-02  0.1312668E+00
        -11   -1    0    0    0    0  0.00000000000E+00  0.00000000000E+00  0.45593999997E+02  0.45594000000E+02  0.51100000000E-03 0. -1.
         11   -1    0    0    0    0 -0.00000000000E+00 -0.00000000000E+00 -0.45593999997E+02  0.45594000000E+02  0.51100000000E-03 0.  1.
    9900012    2    1    2    0    0  0.11507062826E+00  0.26270889177E+02 -0.34546352434E+02  0.47787270445E+02  0.19999997267E+02 0.  0.
         12    1    1    2    0    0 -0.11507062826E+00 -0.26270889177E+02  0.34546352434E+02  0.43400729555E+02  0.00000000000E+00 0. -1.
         11    1    3    3    0    0  0.25585066249E+01 -0.78273522345E+00 -0.51766878460E+00  0.27251810603E+01  0.51100000000E-03 0. -1.
        -11    1    3    3    0    0 -0.38550141350E+01  0.22826905813E+02 -0.20867590077E+02  0.31167051173E+02  0.51100000000E-03 0.  1.
        -12    1    3    3    0    0  0.14115781383E+01  0.42267185874E+01 -0.13161093573E+02  0.13895038211E+02  0.00000000000E+00 0.  1.
</event>
<event>
 7    1  0.5411321E-010  0.4778727E+02  0.7816164E-02  0.1312668E+00
        -11   -1    0    0    0    0  0.00000000000E+00  0.00000000000E+00  0.45593999997E+02  0.45594000000E+02  0.51100000000E-03 0.  1.
         11   -1    0    0    0    0 -0.00000000000E+00 -0.00000000000E+00 -0.45593999997E+02  0.45594000000E+02  0.51100000000E-03 0. -1.
    9900012    2    1    2    0    0  0.36620430600E+02  0.11238834663E+01  0.23265943968E+02  0.47787271895E+02  0.20000003877E+02 0.  0.
         12    1    1    2    0    0 -0.36620430600E+02 -0.11238834663E+01 -0.23265943968E+02  0.43400728105E+02  0.00000000000E+00 0. -1.
         11    1    3    3    0    0  0.13917327597E+02 -0.24159477480E+01  0.61660511572E+01  0.15412624633E+02  0.51100000000E-03 0. -1.
        -11    1    3    3    0    0  0.58344684554E+01  0.58580568662E+01  0.35086957760E-01  0.82679552345E+01  0.51100000000E-03 0.  1.
        -12    1    3    3    0    0  0.16868634548E+02 -0.23182256519E+01  0.17064805853E+02  0.24106692027E+02  0.00000000000E+00 0.  1.
</event>
<event>
 7    1  0.5411321E-010  0.4778727E+02  0.7816164E-02  0.1312668E+00
        -11   -1    0    0    0    0  0.00000000000E+00  0.00000000000E+00  0.45593999997E+02  0.45594000000E+02  0.51100000000E-03 0.  1.
         11   -1    0    0    0    0 -0.00000000000E+00 -0.00000000000E+00 -0.45593999997E+02  0.45594000000E+02  0.51100000000E-03 0. -1.
    9900012    2    1    2    0    0 -0.18199824717E+02  0.22151490384E+02  0.32583754851E+02  0.47787271594E+02  0.20000002508E+02 0.  0.
         12    1    1    2    0    0  0.18199824717E+02 -0.22151490384E+02 -0.32583754851E+02  0.43400728406E+02  0.00000000000E+00 0. -1.
         11    1    3    3    0    0 -0.61504573463E+01  0.24283842498E+01  0.89795535910E+01  0.11151572023E+02  0.51100000000E-03 0. -1.
        -11    1    3    3    0    0  0.11647790909E+01 -0.18043446638E+01  0.44295660781E+01  0.49227457681E+01  0.51100000000E-03 0.  1.
        -12    1    3    3    0    0 -0.13214146462E+02  0.21527450798E+02  0.19174635182E+02  0.31712953803E+02  0.00000000000E+00 0.  1.
</event>
<event>
 7    1  0.5411321E-010  0.4778727E+02  0.7816164E-02  0.1312668E+00
        -11   -1    0    0    0    0  0.00000000000E+00  0.00000000000E+00  0.45593999997E+02  0.45594000000E+02  0.51100000000E-03 0.  1.
         11   -1    0    0    0    0 -0.00000000000E+00 -0.00000000000E+00 -0.45593999997E+02  0.45594000000E+02  0.51100000000E-03 0. -1.
    9900012    2    1    2    0    0 -0.56462156636E+01 -0.42742315063E+02 -0.49837542245E+01  0.47787273573E+02  0.20000011528E+02 0.  0.
         12    1    1    2    0    0  0.56462156636E+01  0.42742315063E+02  0.49837542245E+01  0.43400726427E+02  0.00000000000E+00 0. -1.
         11    1    3    3    0    0  0.19829746060E+01 -0.14980026434E+02 -0.78792459083E+01  0.17041593136E+02  0.51100000000E-03 0. -1.
        -11    1    3    3    0    0 -0.27376565258E+01 -0.14807252018E+02  0.65541923058E+01  0.16422755939E+02  0.51100000000E-03 0.  1.
         12    1    3    3    0    0 -0.48915337438E+01 -0.12955036610E+02 -0.36587006220E+01  0.14322924498E+02  0.00000000000E+00 0. -1.
</event>
<event>
 7    1  0.5411321E-010  0.4778727E+02  0.7816164E-02  0.1312668E+00
        -11   -1    0    0    0    0  0.00000000000E+00  0.00000000000E+00  0.45593999997E+02  0.45594000000E+02  0.51100000000E-03 0. -1.
         11   -1    0    0    0    0 -0.00000000000E+00 -0.00000000000E+00 -0.45593999997E+02  0.45594000000E+02  0.51100000000E-03 0.  1.
    9900012    2    1    2    0    0 -0.36584580324E+02 -0.22303765084E+02  0.69089427845E+01  0.47787274835E+02  0.20000017284E+02 0.  0.
         12    1    1    2    0    0  0.36584580324E+02  0.22303765084E+02 -0.69089427845E+01  0.43400725165E+02  0.00000000000E+00 0. -1.
         11    1    3    3    0    0 -0.46368039099E+01 -0.41494198479E+01 -0.60979472662E+01  0.87122096334E+01  0.51100000000E-03 0.  1.
        -11    1    3    3    0    0 -0.16675831064E+02 -0.92912253639E+01  0.81907204473E+01  0.20772532637E+02  0.51100000000E-03 0. -1.
        -12    1    3    3    0    0 -0.15271945351E+02 -0.88631198719E+01  0.48161696034E+01  0.18302532565E+02  0.00000000000E+00 0.  1.
</event>
<event>
 7    1  0.5411321E-010  0.4778727E+02  0.7816164E-02  0.1312668E+00
        -11   -1    0    0    0    0  0.00000000000E+00  0.00000000000E+00  0.45593999997E+02  0.45594000000E+02  0.51100000000E-03 0. -1.
         11   -1    0    0    0    0 -0.00000000000E+00 -0.00000000000E+00 -0.45593999997E+02  0.45594000000E+02  0.51100000000E-03 0.  1.
    9900012    2    1    2    0    0  0.36585424975E+02  0.56792048268E+01  0.22646775611E+02  0.47787272660E+02  0.20000007367E+02 0.  0.
         12    1    1    2    0    0 -0.36585424975E+02 -0.56792048268E+01 -0.22646775611E+02  0.43400727340E+02  0.00000000000E+00 0. -1.
         11    1    3    3    0    0  0.89852527772E+01 -0.26631282747E+01  0.34948628352E+00  0.93781213791E+01  0.51100000000E-03 0. -1.
        -11    1    3    3    0    0  0.24383752022E+02  0.28397131471E+01  0.19893598723E+02  0.31597256271E+02  0.51100000000E-03 0.  1.
        -12    1    3    3    0    0  0.32164201761E+01  0.55026199544E+01  0.24036906038E+01  0.68118950103E+01  0.00000000000E+00 0.  1.
</event>
<event>
 7    1  0.5411321E-010  0.4778727E+02  0.7816164E-02  0.1312668E+00
        -11   -1    0    0    0    0  0.00000000000E+00  0.00000000000E+00  0.45593999997E+02  0.45594000000E+02  0.51100000000E-03 0. -1.
         11   -1    0    0    0    0 -0.00000000000E+00 -0.00000000000E+00 -0.45593999997E+02  0.45594000000E+02  0.51100000000E-03 0.  1.
    9900012    2    1    2    0    0  0.33085002434E+02 -0.59977755906E+01 -0.27441440646E+02  0.47787270020E+02  0.19999995327E+02 0.  0.
         12    1    1    2    0    0 -0.33085002434E+02  0.59977755906E+01  0.27441440646E+02  0.43400729980E+02  0.00000000000E+00 0. -1.
         11    1    3    3    0    0  0.62903906407E+01 -0.64334001069E+01 -0.14345447232E+02  0.16933679692E+02  0.51100000000E-03 0. -1.
        -11    1    3    3    0    0  0.11226590805E+02 -0.91658908552E+00 -0.96937706158E+01  0.14860877015E+02  0.51100000000E-03 0.  1.
         12    1    3    3    0    0  0.15568020989E+02  0.13522136018E+01 -0.34022227977E+01  0.15992713313E+02  0.00000000000E+00 0. -1.
</event>
<event>
 7    1  0.5411321E-010  0.4778727E+02  0.7816164E-02  0.1312668E+00
        -11   -1    0    0    0    0  0.00000000000E+00  0.00000000000E+00  0.45593999997E+02  0.45594000000E+02  0.51100000000E-03 0.  1.
         11   -1    0    0    0    0 -0.00000000000E+00 -0.00000000000E+00 -0.45593999997E+02  0.45594000000E+02  0.51100000000E-03 0. -1.
    9900012    2    1    2    0    0 -0.58535966778E+01  0.86891944097E+00  0.42995392124E+02  0.47787270064E+02  0.19999995531E+02 0.  0.
         12    1    1    2    0    0  0.58535966778E+01 -0.86891944097E+00 -0.42995392124E+02  0.43400729936E+02  0.00000000000E+00 0. -1.
         11    1    3    3    0    0 -0.60671752511E+01 -0.73806713767E+00  0.30757391838E+01  0.68421875461E+01  0.51100000000E-03 0. -1.
        -11    1    3    3    0    0 -0.14531270615E+01 -0.34664825279E+01  0.17294497450E+02  0.17698240638E+02  0.51100000000E-03 0.  1.
         12    1    3    3    0    0  0.16667056348E+01  0.50734691065E+01  0.22625155490E+02  0.23246841880E+02  0.00000000000E+00 0. -1.
</event>
<event>
 7    1  0.5411321E-010  0.4778727E+02  0.7816164E-02  0.1312668E+00
        -11   -1    0    0    0    0  0.00000000000E+00  0.00000000000E+00  0.45593999997E+02  0.45594000000E+02  0.51100000000E-03 0. -1.
         11   -1    0    0    0    0 -0.00000000000E+00 -0.00000000000E+00 -0.45593999997E+02  0.45594000000E+02  0.51100000000E-03 0.  1.
    9900012    2    1    2    0    0  0.20243238667E+02  0.11176628155E+01 -0.38374277308E+02  0.47787273729E+02  0.20000012242E+02 0.  0.
         12    1    1    2    0    0 -0.20243238667E+02 -0.11176628155E+01  0.38374277308E+02  0.43400726271E+02  0.00000000000E+00 0. -1.
         11    1    3    3    0    0  0.80466791023E-01  0.30282977676E+01 -0.93400159559E+01  0.98190101635E+01  0.51100000000E-03 0. -1.
        -11    1    3    3    0    0  0.20707979295E+02 -0.35330338072E+00 -0.29683863275E+02  0.36194985412E+02  0.51100000000E-03 0.  1.
        -12    1    3    3    0    0 -0.54520741905E+00 -0.15573315714E+01  0.64960192305E+00  0.17732781540E+01  0.00000000000E+00 0.  1.
</event>
<event>
 7    1  0.5411321E-010  0.4778727E+02  0.7816164E-02  0.1312668E+00
        -11   -1    0    0    0    0  0.00000000000E+00  0.00000000000E+00  0.45593999997E+02  0.45594000000E+02  0.51100000000E-03 0. -1.
         11   -1    0    0    0    0 -0.00000000000E+00 -0.00000000000E+00 -0.45593999997E+02  0.45594000000E+02  0.51100000000E-03 0.  1.
    9900012    2    1    2    0    0  0.29818967821E+02  0.20497048396E+02 -0.23965044110E+02  0.47787272195E+02  0.20000005246E+02 0.  0.
         12    1    1    2    0    0 -0.29818967821E+02 -0.20497048396E+02  0.23965044110E+02  0.43400727805E+02  0.00000000000E+00 0. -1.
         11    1    3    3    0    0  0.20255276586E+02  0.10076705057E+02 -0.19876438836E+02  0.30114598378E+02  0.51100000000E-03 0.  1.
        -11    1    3    3    0    0  0.53393310631E+01  0.11610767483E+02 -0.34539902431E+01  0.13238142868E+02  0.51100000000E-03 0. -1.
         12    1    3    3    0    0  0.42243601713E+01 -0.11904241444E+01 -0.63461503105E+00  0.44345309490E+01  0.00000000000E+00 0. -1.
</event>
<event>
 7    1  0.5411321E-010  0.4778727E+02  0.7816164E-02  0.1312668E+00
        -11   -1    0    0    0    0  0.00000000000E+00  0.00000000000E+00  0.45593999997E+02  0.45594000000E+02  0.51100000000E-03 0.  1.
         11   -1    0    0    0    0 -0.00000000000E+00 -0.00000000000E+00 -0.45593999997E+02  0.45594000000E+02  0.51100000000E-03 0. -1.
    9900012    2    1    2    0    0 -0.37393698165E+02 -0.80492649276E+01  0.20507174409E+02  0.47787268087E+02  0.19999986517E+02 0.  0.
         12    1    1    2    0    0  0.37393698165E+02  0.80492649276E+01 -0.20507174409E+02  0.43400731913E+02  0.00000000000E+00 0. -1.
         11    1    3    3    0    0 -0.20141645056E+02  0.28439727335E+01  0.14318738059E+02  0.24875697102E+02  0.51100000000E-03 0. -1.
        -11    1    3    3    0    0 -0.16295028374E+02 -0.78942537248E+01  0.73701778334E+01  0.19549084713E+02  0.51100000000E-03 0.  1.
         12    1    3    3    0    0 -0.95702473545E+00 -0.29989839363E+01 -0.11817414835E+01  0.33624862718E+01  0.00000000000E+00 0. -1.
</event>
<event>
 7    1  0.5411321E-010  0.4778727E+02  0.7816164E-02  0.1312668E+00
        -11   -1    0    0    0    0  0.00000000000E+00  0.00000000000E+00  0.45593999997E+02  0.45594000000E+02  0.51100000000E-03 0.  1.
         11   -1    0    0    0    0 -0.00000000000E+00 -0.00000000000E+00 -0.45593999997E+02  0.45594000000E+02  0.51100000000E-03 0. -1.
    9900012    2    1    2    0    0 -0.35027351763E+02 -0.79217320170E+01  0.24371165928E+02  0.47787274909E+02  0.20000017622E+02 0.  0.
         12    1    1    2    0    0  0.35027351763E+02  0.79217320170E+01 -0.24371165928E+02  0.43400725091E+02  0.00000000000E+00 0. -1.
         11    1    3    3    0    0 -0.25879284369E+02 -0.46505213414E+00  0.10085879632E+02  0.27779103678E+02  0.51100000000E-03 0. -1.
        -11    1    3    3    0    0 -0.10141618867E+02 -0.66440558556E+01  0.10595717212E+02  0.16101712174E+02  0.51100000000E-03 0.  1.
         12    1    3    3    0    0  0.99355147254E+00 -0.81262402725E+00  0.36895690838E+01  0.39064590568E+01  0.00000000000E+00 0. -1.
</event>
<event>
 7    1  0.5411321E-010  0.4778727E+02  0.7816164E-02  0.1312668E+00
        -11   -1    0    0    0    0  0.00000000000E+00  0.00000000000E+00  0.45593999997E+02  0.45594000000E+02  0.51100000000E-03 0.  1.
         11   -1    0    0    0    0 -0.00000000000E+00 -0.00000000000E+00 -0.45593999997E+02  0.45594000000E+02  0.51100000000E-03 0. -1.
    9900012    2    1    2    0    0 -0.46356249045E+01  0.10317678287E+02  0.41900832498E+02  0.47787271117E+02  0.20000000332E+02 0.  0.
         12    1    1    2    0    0  0.46356249045E+01 -0.10317678287E+02 -0.41900832498E+02  0.43400728883E+02  0.00000000000E+00 0. -1.
         11    1    3    3    0    0 -0.15490211855E+01 -0.34452398075E+01  0.69194433399E+01  0.78833901565E+01  0.51100000000E-03 0. -1.
        -11    1    3    3    0    0 -0.27139342540E+01  0.12640160615E+02  0.36057218591E+02  0.38304857554E+02  0.51100000000E-03 0.  1.
        -12    1    3    3    0    0 -0.37266946496E+00  0.11227574793E+01 -0.10758294320E+01  0.15990234064E+01  0.00000000000E+00 0.  1.
</event>
<event>
 7    1  0.5411321E-010  0.4778728E+02  0.7816164E-02  0.1312668E+00
        -11   -1    0    0    0    0  0.00000000000E+00  0.00000000000E+00  0.45593999997E+02  0.45594000000E+02  0.51100000000E-03 0.  1.
         11   -1    0    0    0    0 -0.00000000000E+00 -0.00000000000E+00 -0.45593999997E+02  0.45594000000E+02  0.51100000000E-03 0. -1.
    9900012    2    1    2    0    0  0.31520310309E+02 -0.19123289363E+02  0.22899617524E+02  0.47787278338E+02  0.20000033253E+02 0.  0.
         12    1    1    2    0    0 -0.31520310309E+02  0.19123289363E+02 -0.22899617524E+02  0.43400721662E+02  0.00000000000E+00 0. -1.
         11    1    3    3    0    0  0.86806881313E+01 -0.39836071452E+01  0.15326826921E+02  0.18059210837E+02  0.51100000000E-03 0. -1.
        -11    1    3    3    0    0  0.72372720030E+01 -0.31148816014E+01  0.61188681625E+01  0.99760283324E+01  0.51100000000E-03 0.  1.
         12    1    3    3    0    0  0.15602350175E+02 -0.12024800617E+02  0.14539224404E+01  0.19752039169E+02  0.00000000000E+00 0. -1.
</event>
<event>
 7    1  0.5411321E-010  0.4778727E+02  0.7816164E-02  0.1312668E+00
        -11   -1    0    0    0    0  0.00000000000E+00  0.00000000000E+00  0.45593999997E+02  0.45594000000E+02  0.51100000000E-03 0.  1.
         11   -1    0    0    0    0 -0.00000000000E+00 -0.00000000000E+00 -0.45593999997E+02  0.45594000000E+02  0.51100000000E-03 0. -1.
    9900012    2    1    2    0    0 -0.65984132131E+01  0.34356905502E+02  0.25684378513E+02  0.47787270603E+02  0.19999997985E+02 0.  0.
         12    1    1    2    0    0  0.65984132131E+01 -0.34356905502E+02 -0.25684378513E+02  0.43400729397E+02  0.00000000000E+00 0. -1.
         11    1    3    3    0    0 -0.32593932381E+01  0.95237231437E+01  0.79789009436E+01  0.12844757971E+02  0.51100000000E-03 0.  1.
        -11    1    3    3    0    0 -0.92008186895E+01  0.16312092528E+02  0.68307208166E+01  0.19934848240E+02  0.51100000000E-03 0. -1.
        -12    1    3    3    0    0  0.58617987145E+01  0.85210898303E+01  0.10874756753E+02  0.15007664392E+02  0.00000000000E+00 0.  1.
</event>
<event>
 7    1  0.5411321E-010  0.4778727E+02  0.7816164E-02  0.1312668E+00
        -11   -1    0    0    0    0  0.00000000000E+00  0.00000000000E+00  0.45593999997E+02  0.45594000000E+02  0.51100000000E-03 0.  1.
         11   -1    0    0    0    0 -0.00000000000E+00 -0.00000000000E+00 -0.45593999997E+02  0.45594000000E+02  0.51100000000E-03 0. -1.
    9900012    2    1    2    0    0  0.54746563354E+01 -0.11221526733E+02  0.41565958850E+02  0.47787268907E+02  0.19999990256E+02 0.  0.
         12    1    1    2    0    0 -0.54746563354E+01  0.11221526733E+02 -0.41565958850E+02  0.43400731093E+02  0.00000000000E+00 0. -1.
         11    1    3    3    0    0  0.30222669169E+01 -0.23076176222E+00  0.30124355484E+02  0.30276461846E+02  0.51100000000E-03 0. -1.
        -11    1    3    3    0    0  0.46686554655E+01 -0.93836892970E+01  0.85202700969E+01  0.13507219235E+02  0.51100000000E-03 0.  1.
         12    1    3    3    0    0 -0.22162660470E+01 -0.16070756740E+01  0.29213332693E+01  0.40035878263E+01  0.00000000000E+00 0. -1.
</event>
<event>
 7    1  0.5411321E-010  0.4778727E+02  0.7816164E-02  0.1312668E+00
        -11   -1    0    0    0    0  0.00000000000E+00  0.00000000000E+00  0.45593999997E+02  0.45594000000E+02  0.51100000000E-03 0.  1.
         11   -1    0    0    0    0 -0.00000000000E+00 -0.00000000000E+00 -0.45593999997E+02  0.45594000000E+02  0.51100000000E-03 0. -1.
    9900012    2    1    2    0    0 -0.61401060456E+01 -0.11440637884E+01  0.42948965126E+02  0.47787269712E+02  0.19999993924E+02 0.  0.
         12    1    1    2    0    0  0.61401060456E+01  0.11440637884E+01 -0.42948965126E+02  0.43400730288E+02  0.00000000000E+00 0. -1.
         11    1    3    3    0    0  0.40593208855E+01 -0.28461478926E+01  0.15652757774E+02  0.16419119041E+02  0.51100000000E-03 0. -1.
        -11    1    3    3    0    0 -0.85561023214E+01 -0.12975191217E+01  0.80459774732E+01  0.11816437558E+02  0.51100000000E-03 0.  1.
        -12    1    3    3    0    0 -0.16433246097E+01  0.29996032259E+01  0.19250229878E+02  0.19551713113E+02  0.00000000000E+00 0.  1.
</event>
<event>
 7    1  0.5411321E-010  0.4778728E+02  0.7816164E-02  0.1312668E+00
        -11   -1    0    0    0    0  0.00000000000E+00  0.00000000000E+00  0.45593999997E+02  0.45594000000E+02  0.51100000000E-03 0. -1.
         11   -1    0    0    0    0 -0.00000000000E+00 -0.00000000000E+00 -0.45593999997E+02  0.45594000000E+02  0.51100000000E-03 0.  1.
    9900012    2    1    2    0    0 -0.20148602051E+02  0.90347528705E+01 -0.37363484635E+02  0.47787275258E+02  0.20000019213E+02 0.  0.
         12    1    1    2    0    0  0.20148602051E+02 -0.90347528705E+01  0.37363484635E+02  0.43400724742E+02  0.00000000000E+00 0. -1.
         11    1    3    3    0    0 -0.42190996537E+01 -0.50611871623E+01 -0.11248920875E+02  0.13036665160E+02  0.51100000000E-03 0. -1.
        -11    1    3    3    0    0 -0.14338365938E+02  0.12595636965E+02 -0.26366847518E+02  0.32549185191E+02  0.51100000000E-03 0.  1.
         12    1    3    3    0    0 -0.15911364589E+01  0.15003030682E+01  0.25228375805E+00  0.22014249071E+01  0.00000000000E+00 0. -1.
</event>
<event>
 7    1  0.5411321E-010  0.4778727E+02  0.7816164E-02  0.1312668E+00
        -11   -1    0    0    0    0  0.00000000000E+00  0.00000000000E+00  0.45593999997E+02  0.45594000000E+02  0.51100000000E-03 0.  1.
         11   -1    0    0    0    0 -0.00000000000E+00 -0.00000000000E+00 -0.45593999997E+02  0.45594000000E+02  0.51100000000E-03 0. -1.
    9900012    2    1    2    0    0 -0.35476203419E+01  0.10859487538E+02  0.41870147254E+02  0.47787270620E+02  0.19999998064E+02 0.  0.
         12    1    1    2    0    0  0.35476203419E+01 -0.10859487538E+02 -0.41870147254E+02  0.43400729380E+02  0.00000000000E+00 0. -1.
         11    1    3    3    0    0 -0.41252156377E+01 -0.29174758587E+01  0.67623661122E+01  0.84414847710E+01  0.51100000000E-03 0. -1.
        -11    1    3    3    0    0  0.50550042686E+01  0.10159206153E+02  0.27915101559E+02  0.30133294429E+02  0.51100000000E-03 0.  1.
        -12    1    3    3    0    0 -0.44774089728E+01  0.36177572434E+01  0.71926795827E+01  0.92124914198E+01  0.00000000000E+00 0.  1.
</event>
<event>
 7    1  0.5411321E-010  0.4778725E+02  0.7816164E-02  0.1312668E+00
        -11   -1    0    0    0    0  0.00000000000E+00  0.00000000000E+00  0.45593999997E+02  0.45594000000E+02  0.51100000000E-03 0.  1.
         11   -1    0    0    0    0 -0.00000000000E+00 -0.00000000000E+00 -0.45593999997E+02  0.45594000000E+02  0.51100000000E-03 0. -1.
    9900012    2    1    2    0    0 -0.10907734039E+02 -0.95745878891E+00  0.41996778606E+02  0.47787253434E+02  0.19999919706E+02 0.  0.
         12    1    1    2    0    0  0.10907734039E+02  0.95745878891E+00 -0.41996778606E+02  0.43400746566E+02  0.00000000000E+00 0. -1.
         11    1    3    3    0    0 -0.50272676788E+01  0.20201081392E+01  0.93201318417E+01  0.10780496974E+02  0.51100000000E-03 0. -1.
        -11    1    3    3    0    0 -0.15708754459E+01  0.48451435818E+01  0.24071594487E+02  0.24604567206E+02  0.51100000000E-03 0.  1.
        -12    1    3    3    0    0 -0.43095909139E+01 -0.78227105099E+01  0.86050522777E+01  0.12402189253E+02  0.00000000000E+00 0.  1.
</event>
<event>
 7    1  0.5411321E-010  0.4778725E+02  0.7816164E-02  0.1312668E+00
        -11   -1    0    0    0    0  0.00000000000E+00  0.00000000000E+00  0.45593999997E+02  0.45594000000E+02  0.51100000000E-03 0.  1.
         11   -1    0    0    0    0 -0.00000000000E+00 -0.00000000000E+00 -0.45593999997E+02  0.45594000000E+02  0.51100000000E-03 0. -1.
    9900012    2    1    2    0    0  0.97953699964E+01 -0.14018553062E+02  0.39889294662E+02  0.47787251943E+02  0.19999912908E+02 0.  0.
         12    1    1    2    0    0 -0.97953699964E+01  0.14018553062E+02 -0.39889294662E+02  0.43400748057E+02  0.00000000000E+00 0. -1.
         11    1    3    3    0    0  0.98721526391E+00  0.27438270656E+01  0.14580066025E+00  0.29196641993E+01  0.51100000000E-03 0. -1.
        -11    1    3    3    0    0  0.61268716646E+01 -0.31215602976E+01  0.14551543041E+02  0.16094412081E+02  0.51100000000E-03 0.  1.
         12    1    3    3    0    0  0.26812830679E+01 -0.13640819830E+02  0.25191950960E+02  0.28773175663E+02  0.00000000000E+00 0. -1.
</event>
<event>
 7    1  0.5411321E-010  0.4778726E+02  0.7816164E-02  0.1312668E+00
        -11   -1    0    0    0    0  0.00000000000E+00  0.00000000000E+00  0.45593999997E+02  0.45594000000E+02  0.51100000000E-03 0.  1.
         11   -1    0    0    0    0 -0.00000000000E+00 -0.00000000000E+00 -0.45593999997E+02  0.45594000000E+02  0.51100000000E-03 0. -1.
    9900012    2    1    2    0    0 -0.52461037912E+01 -0.10926559031E+02  0.41673892492E+02  0.47787255621E+02  0.19999929677E+02 0.  0.
         12    1    1    2    0    0  0.52461037912E+01  0.10926559031E+02 -0.41673892492E+02  0.43400744379E+02  0.00000000000E+00 0. -1.
         11    1    3    3    0    0 -0.11430224141E+02 -0.46545439127E+01  0.22494505697E+02  0.25657700399E+02  0.51100000000E-03 0. -1.
        -11    1    3    3    0    0 -0.92108705766E+00 -0.31099508524E+01  0.62476197995E+01  0.70393855621E+01  0.51100000000E-03 0.  1.
         12    1    3    3    0    0  0.71052074079E+01 -0.31620642654E+01  0.12931766995E+02  0.15090169659E+02  0.00000000000E+00 0. -1.
</event>
<event>
 7    1  0.5411321E-010  0.4778727E+02  0.7816164E-02  0.1312668E+00
        -11   -1    0    0    0    0  0.00000000000E+00  0.00000000000E+00  0.45593999997E+02  0.45594000000E+02  0.51100000000E-03 0. -1.
         11   -1    0    0    0    0 -0.00000000000E+00 -0.00000000000E+00 -0.45593999997E+02  0.45594000000E+02  0.51100000000E-03 0.  1.
    9900012    2    1    2    0    0 -0.27250864250E+01 -0.42319402313E+02  0.92339197595E+01  0.47787272100E+02  0.20000004813E+02 0.  0.
         12    1    1    2    0    0  0.27250864250E+01  0.42319402313E+02 -0.92339197595E+01  0.43400727900E+02  0.00000000000E+00 0. -1.
         11    1    3    3    0    0  0.17274483634E+01 -0.96470605292E+01  0.92930469891E+01  0.13505945998E+02  0.51100000000E-03 0. -1.
        -11    1    3    3    0    0 -0.39635104170E+01 -0.15994851174E+02  0.43122883842E+01  0.17033511390E+02  0.51100000000E-03 0.  1.
         12    1    3    3    0    0 -0.48902437146E+00 -0.16677490609E+02 -0.43714156138E+01  0.17247814712E+02  0.00000000000E+00 0. -1.
</event>
<event>
 7    1  0.5411321E-010  0.4778727E+02  0.7816164E-02  0.1312668E+00
        -11   -1    0    0    0    0  0.00000000000E+00  0.00000000000E+00  0.45593999997E+02  0.45594000000E+02  0.51100000000E-03 0.  1.
         11   -1    0    0    0    0 -0.00000000000E+00 -0.00000000000E+00 -0.45593999997E+02  0.45594000000E+02  0.51100000000E-03 0. -1.
    9900012    2    1    2    0    0  0.39209266788E+02 -0.64157293169E+01  0.17466970633E+02  0.47787271345E+02  0.20000001371E+02 0.  0.
         12    1    1    2    0    0 -0.39209266788E+02  0.64157293169E+01 -0.17466970633E+02  0.43400728655E+02  0.00000000000E+00 0. -1.
         11    1    3    3    0    0  0.95529449943E+01 -0.97937586749E+01  0.35208443697E+01  0.14127024187E+02  0.51100000000E-03 0. -1.
        -11    1    3    3    0    0  0.15321191948E+02  0.23345263944E+01  0.34897009300E+01  0.15886061471E+02  0.51100000000E-03 0.  1.
         12    1    3    3    0    0  0.14335129845E+02  0.10435029635E+01  0.10456425333E+02  0.17774185687E+02  0.00000000000E+00 0. -1.
</event>
<event>
 7    1  0.5411321E-010  0.4778727E+02  0.7816164E-02  0.1312668E+00
        -11   -1    0    0    0    0  0.00000000000E+00  0.00000000000E+00  0.45593999997E+02  0.45594000000E+02  0.51100000000E-03 0. -1.
         11   -1    0    0    0    0 -0.00000000000E+00 -0.00000000000E+00 -0.45593999997E+02  0.45594000000E+02  0.51100000000E-03 0.  1.
    9900012    2    1    2    0    0 -0.82132009739E+01 -0.37527705960E+02 -0.20194992284E+02  0.47787273068E+02  0.20000009228E+02 0.  0.
         12    1    1    2    0    0  0.82132009739E+01  0.37527705960E+02  0.20194992284E+02  0.43400726932E+02  0.00000000000E+00 0. -1.
         11    1    3    3    0    0  0.39813000699E+01 -0.63906025510E+01 -0.23316457030E+01  0.78820760690E+01  0.51100000000E-03 0. -1.
        -11    1    3    3    0    0 -0.11312482022E+02 -0.25398843426E+02 -0.19395565112E+02  0.33900758740E+02  0.51100000000E-03 0.  1.
         12    1    3    3    0    0 -0.88201902130E+00 -0.57382599829E+01  0.15322185307E+01  0.60044382594E+01  0.00000000000E+00 0. -1.
</event>
<event>
 7    1  0.5411321E-010  0.4778727E+02  0.7816164E-02  0.1312668E+00
        -11   -1    0    0    0    0  0.00000000000E+00  0.00000000000E+00  0.45593999997E+02  0.45594000000E+02  0.51100000000E-03 0. -1.
         11   -1    0    0    0    0 -0.00000000000E+00 -0.00000000000E+00 -0.45593999997E+02  0.45594000000E+02  0.51100000000E-03 0.  1.
    9900012    2    1    2    0    0  0.24502756512E+02  0.25996997468E+02 -0.24645377907E+02  0.47787267215E+02  0.19999982541E+02 0.  0.
         12    1    1    2    0    0 -0.24502756512E+02 -0.25996997468E+02  0.24645377907E+02  0.43400732785E+02  0.00000000000E+00 0. -1.
         11    1    3    3    0    0  0.25407148095E+01 -0.21984854020E+01 -0.15182794238E+01  0.36869692806E+01  0.51100000000E-03 0. -1.
        -11    1    3    3    0    0  0.21769782013E+02  0.24148628640E+02 -0.23371813685E+02  0.40041495343E+02  0.51100000000E-03 0.  1.
        -12    1    3    3    0    0  0.19225968912E+00  0.40468542307E+01  0.24471520137E+00  0.40588025922E+01  0.00000000000E+00 0.  1.
</event>
<event>
 7    1  0.5411321E-010  0.4778727E+02  0.7816164E-02  0.1312668E+00
        -11   -1    0    0    0    0  0.00000000000E+00  0.00000000000E+00  0.45593999997E+02  0.45594000000E+02  0.51100000000E-03 0.  1.
         11   -1    0    0    0    0 -0.00000000000E+00 -0.00000000000E+00 -0.45593999997E+02  0.45594000000E+02  0.51100000000E-03 0. -1.
    9900012    2    1    2    0    0 -0.30076114424E+02  0.72779503421E+01  0.30431596827E+02  0.47787270681E+02  0.19999998341E+02 0.  0.
         12    1    1    2    0    0  0.30076114424E+02 -0.72779503421E+01 -0.30431596827E+02  0.43400729319E+02  0.00000000000E+00 0. -1.
         11    1    3    3    0    0  0.10260551284E+01  0.13278984956E+01  0.53573571241E+00  0.17615665062E+01  0.51100000000E-03 0. -1.
        -11    1    3    3    0    0 -0.20593244996E+02  0.10864285759E+02  0.18205243260E+02  0.29555800224E+02  0.51100000000E-03 0.  1.
        -12    1    3    3    0    0 -0.10508924556E+02 -0.49142339129E+01  0.11690617855E+02  0.16469903950E+02  0.00000000000E+00 0.  1.
</event>
<event>
 7    1  0.5411321E-010  0.4778727E+02  0.7816164E-02  0.1312668E+00
        -11   -1    0    0    0    0  0.00000000000E+00  0.00000000000E+00  0.45593999997E+02  0.45594000000E+02  0.51100000000E-03 0.  1.
         11   -1    0    0    0    0 -0.00000000000E+00 -0.00000000000E+00 -0.45593999997E+02  0.45594000000E+02  0.51100000000E-03 0. -1.
    9900012    2    1    2    0    0 -0.48411174094E+01  0.12083560812E+02  0.41402590122E+02  0.47787270415E+02  0.19999997132E+02 0.  0.
         12    1    1    2    0    0  0.48411174094E+01 -0.12083560812E+02 -0.41402590122E+02  0.43400729585E+02  0.00000000000E+00 0. -1.
         11    1    3    3    0    0 -0.47915824810E+01  0.20274832811E+01  0.50042891124E+01  0.72189238054E+01  0.51100000000E-03 0. -1.
        -11    1    3    3    0    0 -0.55890396940E+01  0.14529366466E+01  0.53306014527E+01  0.78589885933E+01  0.51100000000E-03 0.  1.
        -12    1    3    3    0    0  0.55395047656E+01  0.86031408842E+01  0.31067699557E+02  0.32709358017E+02  0.00000000000E+00 0.  1.
</event>
<event>
 7    1  0.5411321E-010  0.4778731E+02  0.7816164E-02  0.1312668E+00
        -11   -1    0    0    0    0  0.00000000000E+00  0.00000000000E+00  0.45593999997E+02  0.45594000000E+02  0.51100000000E-03 0.  1.
         11   -1    0    0    0    0 -0.00000000000E+00 -0.00000000000E+00 -0.45593999997E+02  0.45594000000E+02  0.51100000000E-03 0. -1.
    9900012    2    1    2    0    0  0.56104019820E+01  0.13667073107E+02  0.40808759033E+02  0.47787305173E+02  0.20000155604E+02 0.  0.
         12    1    1    2    0    0 -0.56104019820E+01 -0.13667073107E+02 -0.40808759033E+02  0.43400694827E+02  0.00000000000E+00 0. -1.
         11    1    3    3    0    0 -0.61261659825E+01  0.86188431233E+01  0.16530076538E+02  0.19622889620E+02  0.51100000000E-03 0. -1.
        -11    1    3    3    0    0  0.10906666923E+02  0.20305491856E+01  0.17897301717E+02  0.21056873518E+02  0.51100000000E-03 0.  1.
         12    1    3    3    0    0  0.82990104189E+00  0.30176807978E+01  0.63813807782E+01  0.71075420345E+01  0.00000000000E+00 0. -1.
</event>
<event>
 7    1  0.5411321E-010  0.4778728E+02  0.7816164E-02  0.1312668E+00
        -11   -1    0    0    0    0  0.00000000000E+00  0.00000000000E+00  0.45593999997E+02  0.45594000000E+02  0.51100000000E-03 0.  1.
         11   -1    0    0    0    0 -0.00000000000E+00 -0.00000000000E+00 -0.45593999997E+02  0.45594000000E+02  0.51100000000E-03 0. -1.
    9900012    2    1    2    0    0  0.21693704844E+02  0.32033845887E+02  0.19668216345E+02  0.47787275969E+02  0.20000022454E+02 0.  0.
         12    1    1    2    0    0 -0.21693704844E+02 -0.32033845887E+02 -0.19668216345E+02  0.43400724031E+02  0.00000000000E+00 0. -1.
         11    1    3    3    0    0 -0.14791447689E+01  0.44238583747E+01 -0.21579918886E+00  0.46695783233E+01  0.51100000000E-03 0. -1.
        -11    1    3    3    0    0  0.20766062973E+02  0.24716836013E+02  0.12107012811E+02  0.34477980123E+02  0.51100000000E-03 0.  1.
        -12    1    3    3    0    0  0.24067866408E+01  0.28931515000E+01  0.77770027224E+01  0.86397175232E+01  0.00000000000E+00 0.  1.
</event>
<event>
 7    1  0.5411321E-010  0.4778729E+02  0.7816164E-02  0.1312668E+00
        -11   -1    0    0    0    0  0.00000000000E+00  0.00000000000E+00  0.45593999997E+02  0.45594000000E+02  0.51100000000E-03 0.  1.
         11   -1    0    0    0    0 -0.00000000000E+00 -0.00000000000E+00 -0.45593999997E+02  0.45594000000E+02  0.51100000000E-03 0. -1.
    9900012    2    1    2    0    0 -0.26732491665E+02  0.28630996090E+02  0.18688550097E+02  0.47787286268E+02  0.20000069410E+02 0.  0.
         12    1    1    2    0    0  0.26732491665E+02 -0.28630996090E+02 -0.18688550097E+02  0.43400713732E+02  0.00000000000E+00 0. -1.
         11    1    3    3    0    0 -0.53140044253E+01 -0.58739937533E+00  0.41350385904E+01  0.67588627345E+01  0.51100000000E-03 0. -1.
        -11    1    3    3    0    0 -0.22203712210E+02  0.22587345534E+02  0.11663882191E+02  0.33752617116E+02  0.51100000000E-03 0.  1.
        -12    1    3    3    0    0  0.78522496935E+00  0.66310499314E+01  0.28896293151E+01  0.72758064175E+01  0.00000000000E+00 0.  1.
</event>
<event>
 7    1  0.5411321E-010  0.4778727E+02  0.7816164E-02  0.1312668E+00
        -11   -1    0    0    0    0  0.00000000000E+00  0.00000000000E+00  0.45593999997E+02  0.45594000000E+02  0.51100000000E-03 0.  1.
         11   -1    0    0    0    0 -0.00000000000E+00 -0.00000000000E+00 -0.45593999997E+02  0.45594000000E+02  0.51100000000E-03 0. -1.
    9900012    2    1    2    0    0  0.20210435895E+02 -0.35374140064E+02  0.14961003949E+02  0.47787272546E+02  0.20000006847E+02 0.  0.
         12    1    1    2    0    0 -0.20210435895E+02  0.35374140064E+02 -0.14961003949E+02  0.43400727454E+02  0.00000000000E+00 0. -1.
         11    1    3    3    0    0  0.72091501596E+01 -0.13568142851E+02  0.56241554600E+00  0.15374740907E+02  0.51100000000E-03 0. -1.
        -11    1    3    3    0    0  0.30789927599E+01 -0.13466360892E+02  0.13664180198E+02  0.19430205681E+02  0.51100000000E-03 0.  1.
        -12    1    3    3    0    0  0.99222929755E+01 -0.83396363218E+01  0.73440820579E+00  0.12982325958E+02  0.00000000000E+00 0.  1.
</event>
<event>
 7    1  0.5411321E-010  0.4778727E+02  0.7816164E-02  0.1312668E+00
        -11   -1    0    0    0    0  0.00000000000E+00  0.00000000000E+00  0.45593999997E+02  0.45594000000E+02  0.51100000000E-03 0. -1.
         11   -1    0    0    0    0 -0.00000000000E+00 -0.00000000000E+00 -0.45593999997E+02  0.45594000000E+02  0.51100000000E-03 0.  1.
    9900012    2    1    2    0    0 -0.20568451304E+02 -0.36426317338E+02 -0.11562247883E+02  0.47787270053E+02  0.19999995478E+02 0.  0.
         12    1    1    2    0    0  0.20568451304E+02  0.36426317338E+02  0.11562247883E+02  0.43400729947E+02  0.00000000000E+00 0. -1.
         11    1    3    3    0    0 -0.11116106970E+01 -0.76776243075E+01 -0.91289401358E+01  0.11979947480E+02  0.51100000000E-03 0. -1.
        -11    1    3    3    0    0 -0.85259079291E+01 -0.76389436910E+01 -0.36186925347E+01  0.12005811203E+02  0.51100000000E-03 0.  1.
         12    1    3    3    0    0 -0.10930932678E+02 -0.21109749339E+02  0.11853847870E+01  0.23801511370E+02  0.00000000000E+00 0. -1.
</event>
<event>
 7    1  0.5411321E-010  0.4778727E+02  0.7816164E-02  0.1312668E+00
        -11   -1    0    0    0    0  0.00000000000E+00  0.00000000000E+00  0.45593999997E+02  0.45594000000E+02  0.51100000000E-03 0.  1.
         11   -1    0    0    0    0 -0.00000000000E+00 -0.00000000000E+00 -0.45593999997E+02  0.45594000000E+02  0.51100000000E-03 0. -1.
    9900012    2    1    2    0    0 -0.13491913581E+02 -0.27900620849E+02  0.30383332105E+02  0.47787271370E+02  0.20000001484E+02 0.  0.
         12    1    1    2    0    0  0.13491913581E+02  0.27900620849E+02 -0.30383332105E+02  0.43400728630E+02  0.00000000000E+00 0. -1.
         11    1    3    3    0    0 -0.49884443639E+01 -0.53200907095E+01  0.16943772568E+02  0.18446662880E+02  0.51100000000E-03 0. -1.
        -11    1    3    3    0    0 -0.79386178526E+01 -0.22370718245E+02  0.14716035579E+02  0.27929059985E+02  0.51100000000E-03 0.  1.
        -12    1    3    3    0    0 -0.56485136493E+00 -0.20981189424E+00 -0.12764760422E+01  0.14115485049E+01  0.00000000000E+00 0.  1.
</event>
<event>
 7    1  0.5411321E-010  0.4778727E+02  0.7816164E-02  0.1312668E+00
        -11   -1    0    0    0    0  0.00000000000E+00  0.00000000000E+00  0.45593999997E+02  0.45594000000E+02  0.51100000000E-03 0.  1.
         11   -1    0    0    0    0 -0.00000000000E+00 -0.00000000000E+00 -0.45593999997E+02  0.45594000000E+02  0.51100000000E-03 0. -1.
    9900012    2    1    2    0    0 -0.86360747466E+01 -0.36895497562E+02  0.21160422603E+02  0.47787274060E+02  0.20000013750E+02 0.  0.
         12    1    1    2    0    0  0.86360747466E+01  0.36895497562E+02 -0.21160422603E+02  0.43400725940E+02  0.00000000000E+00 0. -1.
         11    1    3    3    0    0  0.63545668691E+00  0.20059743372E+01  0.25805047883E+01  0.33296761803E+01  0.51100000000E-03 0. -1.
        -11    1    3    3    0    0 -0.83092654212E+01 -0.28875942646E+02  0.16082635831E+02  0.34081008363E+02  0.51100000000E-03 0.  1.
        -12    1    3    3    0    0 -0.96226601230E+00 -0.10025529253E+02  0.24972819838E+01  0.10376589517E+02  0.00000000000E+00 0.  1.
</event>
<event>
 7    1  0.5411321E-010  0.4778727E+02  0.7816164E-02  0.1312668E+00
        -11   -1    0    0    0    0  0.00000000000E+00  0.00000000000E+00  0.45593999997E+02  0.45594000000E+02  0.51100000000E-03 0. -1.
         11   -1    0    0    0    0 -0.00000000000E+00 -0.00000000000E+00 -0.45593999997E+02  0.45594000000E+02  0.51100000000E-03 0.  1.
    9900012    2    1    2    0    0 -0.12430728564E+02  0.17584246094E+02 -0.37681488304E+02  0.47787270926E+02  0.19999999462E+02 0.  0.
         12    1    1    2    0    0  0.12430728564E+02 -0.17584246094E+02  0.37681488304E+02  0.43400729074E+02  0.00000000000E+00 0. -1.
         11    1    3    3    0    0 -0.36157062528E+01 -0.15583441624E+01 -0.15756186301E+01  0.42407950390E+01  0.51100000000E-03 0. -1.
        -11    1    3    3    0    0 -0.67502780113E+01  0.19999748940E+02 -0.35375780890E+02  0.41194685151E+02  0.51100000000E-03 0.  1.
        -12    1    3    3    0    0 -0.20647442996E+01 -0.85715868417E+00 -0.73008878437E+00  0.23517907359E+01  0.00000000000E+00 0.  1.
</event>
<event>
 7    1  0.5411321E-010  0.4778727E+02  0.7816164E-02  0.1312668E+00
        -11   -1    0    0    0    0  0.00000000000E+00  0.00000000000E+00  0.45593999997E+02  0.45594000000E+02  0.51100000000E-03 0.  1.
         11   -1    0    0    0    0 -0.00000000000E+00 -0.00000000000E+00 -0.45593999997E+02  0.45594000000E+02  0.51100000000E-03 0. -1.
    9900012    2    1    2    0    0 -0.13872008174E+02 -0.19338299708E+02  0.36293536971E+02  0.47787271063E+02  0.20000000086E+02 0.  0.
         12    1    1    2    0    0  0.13872008174E+02  0.19338299708E+02 -0.36293536971E+02  0.43400728937E+02  0.00000000000E+00 0. -1.
         11    1    3    3    0    0  0.19614485205E+01 -0.15493027942E+01  0.12169114144E+02  0.12423162188E+02  0.51100000000E-03 0.  1.
        -11    1    3    3    0    0 -0.10654175318E+02 -0.10806569266E+02  0.82699270203E+01  0.17282508041E+02  0.51100000000E-03 0. -1.
         12    1    3    3    0    0 -0.51792813768E+01 -0.69824276472E+01  0.15854495807E+02  0.18081600834E+02  0.00000000000E+00 0. -1.
</event>
<event>
 7    1  0.5411321E-010  0.4778727E+02  0.7816164E-02  0.1312668E+00
        -11   -1    0    0    0    0  0.00000000000E+00  0.00000000000E+00  0.45593999997E+02  0.45594000000E+02  0.51100000000E-03 0.  1.
         11   -1    0    0    0    0 -0.00000000000E+00 -0.00000000000E+00 -0.45593999997E+02  0.45594000000E+02  0.51100000000E-03 0. -1.
    9900012    2    1    2    0    0 -0.45576142226E+01 -0.21498197436E+02  0.37425643480E+02  0.47787272698E+02  0.20000007541E+02 0.  0.
         12    1    1    2    0    0  0.45576142226E+01  0.21498197436E+02 -0.37425643480E+02  0.43400727302E+02  0.00000000000E+00 0. -1.
         11    1    3    3    0    0 -0.51697473561E+01 -0.42999180884E+01  0.20583851304E+02  0.21654341784E+02  0.51100000000E-03 0. -1.
        -11    1    3    3    0    0  0.45249459086E+01 -0.14410037222E+02  0.13705909098E+02  0.20395495892E+02  0.51100000000E-03 0.  1.
        -12    1    3    3    0    0 -0.39128127752E+01 -0.27882421251E+01  0.31358830779E+01  0.57374350227E+01  0.00000000000E+00 0.  1.
</event>
<event>
 7    1  0.5411321E-010  0.4778727E+02  0.7816164E-02  0.1312668E+00
        -11   -1    0    0    0    0  0.00000000000E+00  0.00000000000E+00  0.45593999997E+02  0.45594000000E+02  0.51100000000E-03 0.  1.
         11   -1    0    0    0    0 -0.00000000000E+00 -0.00000000000E+00 -0.45593999997E+02  0.45594000000E+02  0.51100000000E-03 0. -1.
    9900012    2    1    2    0    0 -0.18067403246E+02 -0.98326787115E+01  0.38216628685E+02  0.47787270297E+02  0.19999996591E+02 0.  0.
         12    1    1    2    0    0  0.18067403246E+02  0.98326787115E+01 -0.38216628685E+02  0.43400729703E+02  0.00000000000E+00 0. -1.
         11    1    3    3    0    0 -0.14989037377E+01 -0.95473775967E+00  0.16862750480E+00  0.17851252340E+01  0.51100000000E-03 0. -1.
        -11    1    3    3    0    0 -0.10985503266E+02 -0.13287571213E+02  0.33148286305E+02  0.37363748687E+02  0.51100000000E-03 0.  1.
        -12    1    3    3    0    0 -0.55829962425E+01  0.44096302610E+01  0.48997148759E+01  0.86383963759E+01  0.00000000000E+00 0.  1.
</event>
<event>
 7    1  0.5411321E-010  0.4778727E+02  0.7816164E-02  0.1312668E+00
        -11   -1    0    0    0    0  0.00000000000E+00  0.00000000000E+00  0.45593999997E+02  0.45594000000E+02  0.51100000000E-03 0. -1.
         11   -1    0    0    0    0 -0.00000000000E+00 -0.00000000000E+00 -0.45593999997E+02  0.45594000000E+02  0.51100000000E-03 0.  1.
    9900012    2    1    2    0    0  0.15774715846E+02  0.13109851735E+02 -0.38248053933E+02  0.47787268414E+02  0.19999988009E+02 0.  0.
         12    1    1    2    0    0 -0.15774715846E+02 -0.13109851735E+02  0.38248053933E+02  0.43400731586E+02  0.00000000000E+00 0. -1.
         11    1    3    3    0    0  0.32717957155E+01 -0.35432264938E+01 -0.80119858081E+01  0.93515249045E+01  0.51100000000E-03 0. -1.
        -11    1    3    3    0    0  0.13925489565E+02  0.16872630374E+02 -0.26098268692E+02  0.34054728663E+02  0.51100000000E-03 0.  1.
        -12    1    3    3    0    0 -0.14225694348E+01 -0.21955214499E+00 -0.41377994328E+01  0.43810148467E+01  0.00000000000E+00 0.  1.
</event>
<event>
 7    1  0.5411321E-010  0.4778727E+02  0.7816164E-02  0.1312668E+00
        -11   -1    0    0    0    0  0.00000000000E+00  0.00000000000E+00  0.45593999997E+02  0.45594000000E+02  0.51100000000E-03 0. -1.
         11   -1    0    0    0    0 -0.00000000000E+00 -0.00000000000E+00 -0.45593999997E+02  0.45594000000E+02  0.51100000000E-03 0.  1.
    9900012    2    1    2    0    0 -0.13117551846E+02  0.21596885821E+02 -0.35286369576E+02  0.47787268192E+02  0.19999986997E+02 0.  0.
         12    1    1    2    0    0  0.13117551846E+02 -0.21596885821E+02  0.35286369576E+02  0.43400731808E+02  0.00000000000E+00 0. -1.
         11    1    3    3    0    0 -0.85225311603E+01  0.15881301729E+02 -0.17032491875E+02  0.24798287475E+02  0.51100000000E-03 0.  1.
        -11    1    3    3    0    0 -0.21152208262E+01 -0.17201665676E+01 -0.13605454500E+02  0.13875933286E+02  0.51100000000E-03 0. -1.
         12    1    3    3    0    0 -0.24797998596E+01  0.74357506599E+01 -0.46484232012E+01  0.91130474309E+01  0.00000000000E+00 0. -1.
</event>
<event>
 7    1  0.5411321E-010  0.4778727E+02  0.7816164E-02  0.1312668E+00
        -11   -1    0    0    0    0  0.00000000000E+00  0.00000000000E+00  0.45593999997E+02  0.45594000000E+02  0.51100000000E-03 0.  1.
         11   -1    0    0    0    0 -0.00000000000E+00 -0.00000000000E+00 -0.45593999997E+02  0.45594000000E+02  0.51100000000E-03 0. -1.
    9900012    2    1    2    0    0  0.32102576082E+02 -0.24621742845E+02  0.15710433426E+02  0.47787270395E+02  0.19999997038E+02 0.  0.
         12    1    1    2    0    0 -0.32102576082E+02  0.24621742845E+02 -0.15710433426E+02  0.43400729605E+02  0.00000000000E+00 0. -1.
         11    1    3    3    0    0  0.19046331192E+01  0.25564595589E+01  0.33260164781E+01  0.46071139197E+01  0.51100000000E-03 0. -1.
        -11    1    3    3    0    0  0.20467067078E+02 -0.14396654947E+02  0.50820732528E+01  0.25534133571E+02  0.51100000000E-03 0.  1.
         12    1    3    3    0    0  0.97308758848E+01 -0.12781547457E+02  0.73023436952E+01  0.17646022904E+02  0.00000000000E+00 0. -1.
</event>
<event>
 7    1  0.5411321E-010  0.4778727E+02  0.7816164E-02  0.1312668E+00
        -11   -1    0    0    0    0  0.00000000000E+00  0.00000000000E+00  0.45593999997E+02  0.45594000000E+02  0.51100000000E-03 0. -1.
         11   -1    0    0    0    0 -0.00000000000E+00 -0.00000000000E+00 -0.45593999997E+02  0.45594000000E+02  0.51100000000E-03 0.  1.
    9900012    2    1    2    0    0  0.57628949886E+01  0.42973245983E+02 -0.19267502417E+01  0.47787271948E+02  0.20000004120E+02 0.  0.
         12    1    1    2    0    0 -0.57628949886E+01 -0.42973245983E+02  0.19267502417E+01  0.43400728052E+02  0.00000000000E+00 0. -1.
         11    1    3    3    0    0 -0.13712385429E+01  0.33745018983E+02  0.25555265634E+01  0.33869415667E+02  0.51100000000E-03 0.  1.
        -11    1    3    3    0    0  0.27908824872E+01  0.31266936492E-01 -0.20419572097E+01  0.34582643314E+01  0.51100000000E-03 0. -1.
        -12    1    3    3    0    0  0.43432510443E+01  0.91969600629E+01 -0.24403195955E+01  0.10459591950E+02  0.00000000000E+00 0.  1.
</event>
<event>
 7    1  0.5411321E-010  0.4778727E+02  0.7816164E-02  0.1312668E+00
        -11   -1    0    0    0    0  0.00000000000E+00  0.00000000000E+00  0.45593999997E+02  0.45594000000E+02  0.51100000000E-03 0. -1.
         11   -1    0    0    0    0 -0.00000000000E+00 -0.00000000000E+00 -0.45593999997E+02  0.45594000000E+02  0.51100000000E-03 0.  1.
    9900012    2    1    2    0    0  0.36604034367E+02  0.22005448623E+02 -0.77154356952E+01  0.47787273635E+02  0.20000011809E+02 0.  0.
         12    1    1    2    0    0 -0.36604034367E+02 -0.22005448623E+02  0.77154356952E+01  0.43400726365E+02  0.00000000000E+00 0. -1.
         11    1    3    3    0    0  0.27028443533E+01  0.12745176328E+01  0.36349867750E+00  0.30102980491E+01  0.51100000000E-03 0. -1.
        -11    1    3    3    0    0  0.14821952222E+02  0.93828570909E+01  0.59415975633E+01  0.18521092212E+02  0.51100000000E-03 0.  1.
        -12    1    3    3    0    0  0.19079237792E+02  0.11348073900E+02 -0.14020531936E+02  0.26255883374E+02  0.00000000000E+00 0.  1.
</event>
<event>
 7    1  0.5411321E-010  0.4778727E+02  0.7816164E-02  0.1312668E+00
        -11   -1    0    0    0    0  0.00000000000E+00  0.00000000000E+00  0.45593999997E+02  0.45594000000E+02  0.51100000000E-03 0. -1.
         11   -1    0    0    0    0 -0.00000000000E+00 -0.00000000000E+00 -0.45593999997E+02  0.45594000000E+02  0.51100000000E-03 0.  1.
    9900012    2    1    2    0    0  0.37977766073E+01  0.17705909359E+02 -0.39442373365E+02  0.47787272471E+02  0.20000006503E+02 0.  0.
         12    1    1    2    0    0 -0.37977766073E+01 -0.17705909359E+02  0.39442373365E+02  0.43400727529E+02  0.00000000000E+00 0. -1.
         11    1    3    3    0    0  0.17951861056E+01 -0.11396214111E+01 -0.32710254073E+01  0.39014148191E+01  0.51100000000E-03 0. -1.
        -11    1    3    3    0    0 -0.68686553660E+01  0.59873396026E+01 -0.11308075621E+02  0.14522370212E+02  0.51100000000E-03 0.  1.
        -12    1    3    3    0    0  0.88712458676E+01  0.12858191168E+02 -0.24863272337E+02  0.29363487440E+02  0.00000000000E+00 0.  1.
</event>
<event>
 7    1  0.5411321E-010  0.4778728E+02  0.7816164E-02  0.1312668E+00
        -11   -1    0    0    0    0  0.00000000000E+00  0.00000000000E+00  0.45593999997E+02  0.45594000000E+02  0.51100000000E-03 0. -1.
         11   -1    0    0    0    0 -0.00000000000E+00 -0.00000000000E+00 -0.45593999997E+02  0.45594000000E+02  0.51100000000E-03 0.  1.
    9900012    2    1    2    0    0 -0.14133116596E+02  0.35628822577E+02 -0.20358404100E+02  0.47787278803E+02  0.20000035374E+02 0.  0.
         12    1    1    2    0    0  0.14133116596E+02 -0.35628822577E+02  0.20358404100E+02  0.43400721197E+02  0.00000000000E+00 0. -1.
         11    1    3    3    0    0 -0.91262603615E+01  0.14940064816E+02 -0.34140509733E+01  0.17836757250E+02  0.51100000000E-03 0. -1.
        -11    1    3    3    0    0  0.15648889266E+01  0.94557276021E+01 -0.13377279735E+02  0.16456344527E+02  0.51100000000E-03 0.  1.
        -12    1    3    3    0    0 -0.65717451609E+01  0.11233030159E+02 -0.35670733924E+01  0.13494177025E+02  0.00000000000E+00 0.  1.
</event>
<event>
 7    1  0.5411321E-010  0.4778727E+02  0.7816164E-02  0.1312668E+00
        -11   -1    0    0    0    0  0.00000000000E+00  0.00000000000E+00  0.45593999997E+02  0.45594000000E+02  0.51100000000E-03 0. -1.
         11   -1    0    0    0    0 -0.00000000000E+00 -0.00000000000E+00 -0.45593999997E+02  0.45594000000E+02  0.51100000000E-03 0.  1.
    9900012    2    1    2    0    0 -0.35873953395E+02 -0.24424260715E+02 -0.37154825721E+00  0.47787273142E+02  0.20000009564E+02 0.  0.
         12    1    1    2    0    0  0.35873953395E+02  0.24424260715E+02  0.37154825721E+00  0.43400726858E+02  0.00000000000E+00 0. -1.
         11    1    3    3    0    0 -0.11443135345E+01 -0.46779317202E+01 -0.19035284281E+01  0.51784089624E+01  0.51100000000E-03 0. -1.
        -11    1    3    3    0    0 -0.11769388730E+02 -0.46300026342E+01  0.71825326319E+01  0.14544559489E+02  0.51100000000E-03 0.  1.
        -12    1    3    3    0    0 -0.22960251131E+02 -0.15116326361E+02 -0.56505524610E+01  0.28064304690E+02  0.00000000000E+00 0.  1.
</event>
<event>
 7    1  0.5411321E-010  0.4778727E+02  0.7816164E-02  0.1312668E+00
        -11   -1    0    0    0    0  0.00000000000E+00  0.00000000000E+00  0.45593999997E+02  0.45594000000E+02  0.51100000000E-03 0.  1.
         11   -1    0    0    0    0 -0.00000000000E+00 -0.00000000000E+00 -0.45593999997E+02  0.45594000000E+02  0.51100000000E-03 0. -1.
    9900012    2    1    2    0    0  0.23938617693E+02  0.34664120930E+02  0.10438628193E+02  0.47787266649E+02  0.19999979957E+02 0.  0.
         12    1    1    2    0    0 -0.23938617693E+02 -0.34664120930E+02 -0.10438628193E+02  0.43400733351E+02  0.00000000000E+00 0. -1.
         11    1    3    3    0    0  0.67853287122E+01  0.83640605253E+01 -0.31056062008E+01  0.11209058138E+02  0.51100000000E-03 0. -1.
        -11    1    3    3    0    0  0.13053085225E+02  0.26379616506E+02  0.13720679241E+02  0.32473438992E+02  0.51100000000E-03 0.  1.
         12    1    3    3    0    0  0.41002037560E+01 -0.79556101201E-01 -0.17644484789E+00  0.41047695183E+01  0.00000000000E+00 0. -1.
</event>
<event>
 7    1  0.5411321E-010  0.4778727E+02  0.7816164E-02  0.1312668E+00
        -11   -1    0    0    0    0  0.00000000000E+00  0.00000000000E+00  0.45593999997E+02  0.45594000000E+02  0.51100000000E-03 0. -1.
         11   -1    0    0    0    0 -0.00000000000E+00 -0.00000000000E+00 -0.45593999997E+02  0.45594000000E+02  0.51100000000E-03 0.  1.
    9900012    2    1    2    0    0  0.80762355840E+00  0.24202894435E+02 -0.36016535288E+02  0.47787272252E+02  0.20000005507E+02 0.  0.
         12    1    1    2    0    0 -0.80762355840E+00 -0.24202894435E+02  0.36016535288E+02  0.43400727748E+02  0.00000000000E+00 0. -1.
         11    1    3    3    0    0 -0.67678891496E+01  0.59463895233E+01 -0.72057639919E+01  0.11536329870E+02  0.51100000000E-03 0. -1.
        -11    1    3    3    0    0  0.22114887236E+01  0.15858060353E+02 -0.19369810272E+02  0.25130823917E+02  0.51100000000E-03 0.  1.
         12    1    3    3    0    0  0.53640239844E+01  0.23984445588E+01 -0.94409610247E+01  0.11120118465E+02  0.00000000000E+00 0. -1.
</event>
<event>
 7    1  0.5411321E-010  0.4778727E+02  0.7816164E-02  0.1312668E+00
        -11   -1    0    0    0    0  0.00000000000E+00  0.00000000000E+00  0.45593999997E+02  0.45594000000E+02  0.51100000000E-03 0.  1.
         11   -1    0    0    0    0 -0.00000000000E+00 -0.00000000000E+00 -0.45593999997E+02  0.45594000000E+02  0.51100000000E-03 0. -1.
    9900012    2    1    2    0    0  0.37061937903E+02  0.36940852608E+01  0.22279799203E+02  0.47787274666E+02  0.20000016511E+02 0.  0.
         12    1    1    2    0    0 -0.37061937903E+02 -0.36940852608E+01 -0.22279799203E+02  0.43400725334E+02  0.00000000000E+00 0. -1.
         11    1    3    3    0    0 -0.75577699633E-02  0.87469210685E+00 -0.34726730434E+00  0.94113667629E+00  0.51100000000E-03 0. -1.
        -11    1    3    3    0    0  0.18399956020E+02  0.97255663946E+01  0.14393933637E+02  0.25304749535E+02  0.51100000000E-03 0.  1.
        -12    1    3    3    0    0  0.18669539653E+02 -0.69061732407E+01  0.82331328696E+01  0.21541388454E+02  0.00000000000E+00 0.  1.
</event>
<event>
 7    1  0.5411321E-010  0.4778726E+02  0.7816164E-02  0.1312668E+00
        -11   -1    0    0    0    0  0.00000000000E+00  0.00000000000E+00  0.45593999997E+02  0.45594000000E+02  0.51100000000E-03 0.  1.
         11   -1    0    0    0    0 -0.00000000000E+00 -0.00000000000E+00 -0.45593999997E+02  0.45594000000E+02  0.51100000000E-03 0. -1.
    9900012    2    1    2    0    0  0.33255596372E+01  0.42933761513E+02  0.54089639729E+01  0.47787261345E+02  0.19999955774E+02 0.  0.
         12    1    1    2    0    0 -0.33255596372E+01 -0.42933761513E+02 -0.54089639729E+01  0.43400738655E+02  0.00000000000E+00 0. -1.
         11    1    3    3    0    0 -0.62672370734E+01  0.61658349042E+01  0.25386620149E+00  0.87954663839E+01  0.51100000000E-03 0. -1.
        -11    1    3    3    0    0  0.99410697154E+01  0.25898812979E+02  0.29697076968E+01  0.27899687183E+02  0.51100000000E-03 0.  1.
        -12    1    3    3    0    0 -0.34827300479E+00  0.10869113630E+02  0.21853900746E+01  0.11092107778E+02  0.00000000000E+00 0.  1.
</event>
<event>
 7    1  0.5411321E-010  0.4778727E+02  0.7816164E-02  0.1312668E+00
        -11   -1    0    0    0    0  0.00000000000E+00  0.00000000000E+00  0.45593999997E+02  0.45594000000E+02  0.51100000000E-03 0.  1.
         11   -1    0    0    0    0 -0.00000000000E+00 -0.00000000000E+00 -0.45593999997E+02  0.45594000000E+02  0.51100000000E-03 0. -1.
    9900012    2    1    2    0    0  0.26011839695E+02 -0.33408745121E+02  0.95322448013E+01  0.47787265608E+02  0.19999975212E+02 0.  0.
         12    1    1    2    0    0 -0.26011839695E+02  0.33408745121E+02 -0.95322448013E+01  0.43400734392E+02  0.00000000000E+00 0. -1.
         11    1    3    3    0    0  0.87427881974E+01 -0.11422460930E+02 -0.57111006720E+00  0.14395663448E+02  0.51100000000E-03 0. -1.
        -11    1    3    3    0    0  0.11021674050E+02 -0.47384893128E+01  0.90302631151E+01  0.15015866009E+02  0.51100000000E-03 0.  1.
        -12    1    3    3    0    0  0.62473774476E+01 -0.17247794878E+02  0.10730917534E+01  0.18375736150E+02  0.00000000000E+00 0.  1.
</event>
<event>
 7    1  0.5411321E-010  0.4778727E+02  0.7816164E-02  0.1312668E+00
        -11   -1    0    0    0    0  0.00000000000E+00  0.00000000000E+00  0.45593999997E+02  0.45594000000E+02  0.51100000000E-03 0.  1.
         11   -1    0    0    0    0 -0.00000000000E+00 -0.00000000000E+00 -0.45593999997E+02  0.45594000000E+02  0.51100000000E-03 0. -1.
    9900012    2    1    2    0    0  0.22742593786E+02 -0.26001866549E+02  0.26273573176E+02  0.47787270933E+02  0.19999999490E+02 0.  0.
         12    1    1    2    0    0 -0.22742593786E+02  0.26001866549E+02 -0.26273573176E+02  0.43400729067E+02  0.00000000000E+00 0. -1.
         11    1    3    3    0    0  0.20365006193E+01  0.26182214799E+01  0.54800855390E+01  0.64057596166E+01  0.51100000000E-03 0. -1.
        -11    1    3    3    0    0  0.13906416389E+02 -0.22948173101E+02  0.14338029356E+02  0.30423447397E+02  0.51100000000E-03 0.  1.
        -12    1    3    3    0    0  0.67996767773E+01 -0.56719149279E+01  0.64554582811E+01  0.10958063919E+02  0.00000000000E+00 0.  1.
</event>
<event>
 7    1  0.5411321E-010  0.4778727E+02  0.7816164E-02  0.1312668E+00
        -11   -1    0    0    0    0  0.00000000000E+00  0.00000000000E+00  0.45593999997E+02  0.45594000000E+02  0.51100000000E-03 0.  1.
         11   -1    0    0    0    0 -0.00000000000E+00 -0.00000000000E+00 -0.45593999997E+02  0.45594000000E+02  0.51100000000E-03 0. -1.
    9900012    2    1    2    0    0 -0.37671259534E+02 -0.16391592953E+02  0.13993395234E+02  0.47787271612E+02  0.20000002589E+02 0.  0.
         12    1    1    2    0    0  0.37671259534E+02  0.16391592953E+02 -0.13993395234E+02  0.43400728388E+02  0.00000000000E+00 0. -1.
         11    1    3    3    0    0 -0.17820402078E+02 -0.14157692562E+01  0.87101062679E+01  0.19885599922E+02  0.51100000000E-03 0.  1.
        -11    1    3    3    0    0 -0.16026606206E+02 -0.16731913510E+02  0.40878941649E+01  0.23527003956E+02  0.51100000000E-03 0. -1.
         12    1    3    3    0    0 -0.38242512497E+01  0.17560898128E+01  0.11953948012E+01  0.43746677340E+01  0.00000000000E+00 0. -1.
</event>
<event>
 7    1  0.5411321E-010  0.4778727E+02  0.7816164E-02  0.1312668E+00
        -11   -1    0    0    0    0  0.00000000000E+00  0.00000000000E+00  0.45593999997E+02  0.45594000000E+02  0.51100000000E-03 0.  1.
         11   -1    0    0    0    0 -0.00000000000E+00 -0.00000000000E+00 -0.45593999997E+02  0.45594000000E+02  0.51100000000E-03 0. -1.
    9900012    2    1    2    0    0  0.13480266603E+02  0.17507665291E+02  0.37354882590E+02  0.47787272068E+02  0.20000004669E+02 0.  0.
         12    1    1    2    0    0 -0.13480266603E+02 -0.17507665291E+02 -0.37354882590E+02  0.43400727932E+02  0.00000000000E+00 0. -1.
         11    1    3    3    0    0 -0.30201105647E+01  0.18191883826E+01  0.93974145621E+01  0.10037027195E+02  0.51100000000E-03 0. -1.
        -11    1    3    3    0    0  0.97777809415E+01  0.14105292281E+02  0.13891846867E+02  0.22080481881E+02  0.51100000000E-03 0.  1.
        -12    1    3    3    0    0  0.67225962266E+01  0.15831846284E+01  0.14065621162E+02  0.15669762993E+02  0.00000000000E+00 0.  1.
</event>
<event>
 7    1  0.5411321E-010  0.4778726E+02  0.7816164E-02  0.1312668E+00
        -11   -1    0    0    0    0  0.00000000000E+00  0.00000000000E+00  0.45593999997E+02  0.45594000000E+02  0.51100000000E-03 0.  1.
         11   -1    0    0    0    0 -0.00000000000E+00 -0.00000000000E+00 -0.45593999997E+02  0.45594000000E+02  0.51100000000E-03 0. -1.
    9900012    2    1    2    0    0  0.14105217779E+02  0.39597244611E+02  0.10803937820E+02  0.47787262428E+02  0.19999960715E+02 0.  0.
         12    1    1    2    0    0 -0.14105217779E+02 -0.39597244611E+02 -0.10803937820E+02  0.43400737572E+02  0.00000000000E+00 0. -1.
         11    1    3    3    0    0 -0.39808010688E+01  0.37824494244E+01  0.25365098809E+01  0.60487671004E+01  0.51100000000E-03 0. -1.
        -11    1    3    3    0    0  0.14876474977E+02  0.22869269479E+02  0.78723300353E+01  0.28395185767E+02  0.51100000000E-03 0.  1.
         12    1    3    3    0    0  0.32095438701E+01  0.12945525707E+02  0.39509790346E+00  0.13343309561E+02  0.00000000000E+00 0. -1.
</event>
<event>
 7    1  0.5411321E-010  0.4778727E+02  0.7816164E-02  0.1312668E+00
        -11   -1    0    0    0    0  0.00000000000E+00  0.00000000000E+00  0.45593999997E+02  0.45594000000E+02  0.51100000000E-03 0. -1.
         11   -1    0    0    0    0 -0.00000000000E+00 -0.00000000000E+00 -0.45593999997E+02  0.45594000000E+02  0.51100000000E-03 0.  1.
    9900012    2    1    2    0    0 -0.21910139601E+02 -0.36895350864E+02 -0.65040011012E+01  0.47787272321E+02  0.20000005822E+02 0.  0.
         12    1    1    2    0    0  0.21910139601E+02  0.36895350864E+02  0.65040011012E+01  0.43400727679E+02  0.00000000000E+00 0. -1.
         11    1    3    3    0    0  0.13393858893E+01 -0.69144351227E+01  0.76089103337E+00  0.70839482672E+01  0.51100000000E-03 0. -1.
        -11    1    3    3    0    0 -0.21039761183E+02 -0.19865306531E+02 -0.87800285145E+01  0.30238896394E+02  0.51100000000E-03 0.  1.
        -12    1    3    3    0    0 -0.22097643080E+01 -0.10115609210E+02  0.15151363799E+01  0.10464427660E+02  0.00000000000E+00 0.  1.
</event>
<event>
 7    1  0.5411321E-010  0.4778727E+02  0.7816164E-02  0.1312668E+00
        -11   -1    0    0    0    0  0.00000000000E+00  0.00000000000E+00  0.45593999997E+02  0.45594000000E+02  0.51100000000E-03 0.  1.
         11   -1    0    0    0    0 -0.00000000000E+00 -0.00000000000E+00 -0.45593999997E+02  0.45594000000E+02  0.51100000000E-03 0. -1.
    9900012    2    1    2    0    0  0.18849701661E+01  0.41525874941E+02  0.12476841262E+02  0.47787274545E+02  0.20000015961E+02 0.  0.
         12    1    1    2    0    0 -0.18849701661E+01 -0.41525874941E+02 -0.12476841262E+02  0.43400725455E+02  0.00000000000E+00 0. -1.
         11    1    3    3    0    0  0.33256171303E+00  0.37934737788E+02  0.89675546489E+01  0.38981687560E+02  0.51100000000E-03 0. -1.
        -11    1    3    3    0    0  0.18882116091E+01  0.51948025419E+01  0.42840757761E+01  0.69931839706E+01  0.51100000000E-03 0.  1.
         12    1    3    3    0    0 -0.33580315599E+00 -0.16036653896E+01 -0.77478916257E+00  0.18124030147E+01  0.00000000000E+00 0. -1.
</event>
<event>
 7    1  0.5411321E-010  0.4778727E+02  0.7816164E-02  0.1312668E+00
        -11   -1    0    0    0    0  0.00000000000E+00  0.00000000000E+00  0.45593999997E+02  0.45594000000E+02  0.51100000000E-03 0.  1.
         11   -1    0    0    0    0 -0.00000000000E+00 -0.00000000000E+00 -0.45593999997E+02  0.45594000000E+02  0.51100000000E-03 0. -1.
    9900012    2    1    2    0    0 -0.24053668325E+02  0.21463040016E+02  0.29058262487E+02  0.47787266534E+02  0.19999979436E+02 0.  0.
         12    1    1    2    0    0  0.24053668325E+02 -0.21463040016E+02 -0.29058262487E+02  0.43400733466E+02  0.00000000000E+00 0. -1.
         11    1    3    3    0    0 -0.33098121999E+01  0.12087656219E+02  0.27442034737E+01  0.12829533999E+02  0.51100000000E-03 0. -1.
        -11    1    3    3    0    0 -0.11313272447E+02  0.69234706553E+01  0.15548326842E+02  0.20437099776E+02  0.51100000000E-03 0.  1.
         12    1    3    3    0    0 -0.94305836778E+01  0.24519131414E+01  0.10765732171E+02  0.14520632759E+02  0.00000000000E+00 0. -1.
</event>
<event>
 7    1  0.5411321E-010  0.4778727E+02  0.7816164E-02  0.1312668E+00
        -11   -1    0    0    0    0  0.00000000000E+00  0.00000000000E+00  0.45593999997E+02  0.45594000000E+02  0.51100000000E-03 0.  1.
         11   -1    0    0    0    0 -0.00000000000E+00 -0.00000000000E+00 -0.45593999997E+02  0.45594000000E+02  0.51100000000E-03 0. -1.
    9900012    2    1    2    0    0  0.18825544153E+02 -0.11915499240E+02  0.37245711022E+02  0.47787271615E+02  0.20000002602E+02 0.  0.
         12    1    1    2    0    0 -0.18825544153E+02  0.11915499240E+02 -0.37245711022E+02  0.43400728385E+02  0.00000000000E+00 0. -1.
         11    1    3    3    0    0  0.49115182966E+01 -0.11659890178E+02  0.15806685648E+02  0.20246662993E+02  0.51100000000E-03 0. -1.
        -11    1    3    3    0    0  0.13677490886E+02 -0.26815205745E+01  0.20769826348E+02  0.25012996548E+02  0.51100000000E-03 0.  1.
         12    1    3    3    0    0  0.23653497096E+00  0.24259115125E+01  0.66919902613E+00  0.25276120738E+01  0.00000000000E+00 0. -1.
</event>
<event>
 7    1  0.5411321E-010  0.4778727E+02  0.7816164E-02  0.1312668E+00
        -11   -1    0    0    0    0  0.00000000000E+00  0.00000000000E+00  0.45593999997E+02  0.45594000000E+02  0.51100000000E-03 0.  1.
         11   -1    0    0    0    0 -0.00000000000E+00 -0.00000000000E+00 -0.45593999997E+02  0.45594000000E+02  0.51100000000E-03 0. -1.
    9900012    2    1    2    0    0  0.34166263023E+02  0.12309508579E+02  0.23764801531E+02  0.47787270488E+02  0.19999997461E+02 0.  0.
         12    1    1    2    0    0 -0.34166263023E+02 -0.12309508579E+02 -0.23764801531E+02  0.43400729512E+02  0.00000000000E+00 0. -1.
         11    1    3    3    0    0  0.19435165328E+02  0.16347985864E+02  0.15598013307E+02  0.29804031817E+02  0.51100000000E-03 0. -1.
        -11    1    3    3    0    0  0.14644232597E+02 -0.38055906891E+01  0.86580556776E+01  0.17432670398E+02  0.51100000000E-03 0.  1.
         12    1    3    3    0    0  0.86865097867E-01 -0.23288659568E+00 -0.49126745359E+00  0.55056827246E+00  0.00000000000E+00 0. -1.
</event>
<event>
 7    1  0.5411321E-010  0.4778729E+02  0.7816164E-02  0.1312668E+00
        -11   -1    0    0    0    0  0.00000000000E+00  0.00000000000E+00  0.45593999997E+02  0.45594000000E+02  0.51100000000E-03 0.  1.
         11   -1    0    0    0    0 -0.00000000000E+00 -0.00000000000E+00 -0.45593999997E+02  0.45594000000E+02  0.51100000000E-03 0. -1.
    9900012    2    1    2    0    0 -0.10828746565E+02 -0.65542894231E+01  0.41513866415E+02  0.47787290711E+02  0.20000089668E+02 0.  0.
         12    1    1    2    0    0  0.10828746565E+02  0.65542894231E+01 -0.41513866415E+02  0.43400709289E+02  0.00000000000E+00 0. -1.
         11    1    3    3    0    0 -0.96933306961E+01  0.28458299105E+01  0.13762996124E+02  0.17072769852E+02  0.51100000000E-03 0. -1.
        -11    1    3    3    0    0  0.35927714371E+01 -0.25996975453E+01  0.13747161844E+02  0.14444753129E+02  0.51100000000E-03 0.  1.
        -12    1    3    3    0    0 -0.47281873063E+01 -0.68004217883E+01  0.14003708447E+02  0.16269767730E+02  0.00000000000E+00 0.  1.
</event>
<event>
 7    1  0.5411321E-010  0.4778727E+02  0.7816164E-02  0.1312668E+00
        -11   -1    0    0    0    0  0.00000000000E+00  0.00000000000E+00  0.45593999997E+02  0.45594000000E+02  0.51100000000E-03 0.  1.
         11   -1    0    0    0    0 -0.00000000000E+00 -0.00000000000E+00 -0.45593999997E+02  0.45594000000E+02  0.51100000000E-03 0. -1.
    9900012    2    1    2    0    0  0.13077542999E+02 -0.71092878745E+01  0.40768364902E+02  0.47787266345E+02  0.19999978574E+02 0.  0.
         12    1    1    2    0    0 -0.13077542999E+02  0.71092878745E+01 -0.40768364902E+02  0.43400733655E+02  0.00000000000E+00 0. -1.
         11    1    3    3    0    0  0.10115737415E+01 -0.99699696210E+01  0.10434638322E+02  0.14467385833E+02  0.51100000000E-03 0. -1.
        -11    1    3    3    0    0  0.33500850623E+01  0.17454325096E+01  0.16534395206E+02  0.16960419502E+02  0.51100000000E-03 0.  1.
         12    1    3    3    0    0  0.87158841957E+01  0.11152492368E+01  0.13799331374E+02  0.16359461010E+02  0.00000000000E+00 0. -1.
</event>
<event>
 7    1  0.5411321E-010  0.4778728E+02  0.7816164E-02  0.1312668E+00
        -11   -1    0    0    0    0  0.00000000000E+00  0.00000000000E+00  0.45593999997E+02  0.45594000000E+02  0.51100000000E-03 0.  1.
         11   -1    0    0    0    0 -0.00000000000E+00 -0.00000000000E+00 -0.45593999997E+02  0.45594000000E+02  0.51100000000E-03 0. -1.
    9900012    2    1    2    0    0  0.32503701747E+02 -0.16006933728E+02  0.23893730241E+02  0.47787275357E+02  0.20000019664E+02 0.  0.
         12    1    1    2    0    0 -0.32503701747E+02  0.16006933728E+02 -0.23893730241E+02  0.43400724643E+02  0.00000000000E+00 0. -1.
         11    1    3    3    0    0  0.19253129262E+01  0.37963487357E+00 -0.29437356835E+01  0.35378711871E+01  0.51100000000E-03 0. -1.
        -11    1    3    3    0    0  0.29903811324E+02 -0.14611213981E+02  0.25363468700E+02  0.41845322922E+02  0.51100000000E-03 0.  1.
        -12    1    3    3    0    0  0.67457749667E+00 -0.17753546203E+01  0.14739972251E+01  0.24040812479E+01  0.00000000000E+00 0.  1.
</event>
<event>
 7    1  0.5411321E-010  0.4778727E+02  0.7816164E-02  0.1312668E+00
        -11   -1    0    0    0    0  0.00000000000E+00  0.00000000000E+00  0.45593999997E+02  0.45594000000E+02  0.51100000000E-03 0. -1.
         11   -1    0    0    0    0 -0.00000000000E+00 -0.00000000000E+00 -0.45593999997E+02  0.45594000000E+02  0.51100000000E-03 0.  1.
    9900012    2    1    2    0    0  0.42318274145E+02  0.75662059538E+01 -0.59614917210E+01  0.47787272095E+02  0.20000004792E+02 0.  0.
         12    1    1    2    0    0 -0.42318274145E+02 -0.75662059538E+01  0.59614917210E+01  0.43400727905E+02  0.00000000000E+00 0. -1.
         11    1    3    3    0    0  0.26000865346E+01  0.31716397258E+01 -0.54103217413E+00  0.41367214811E+01  0.51100000000E-03 0. -1.
        -11    1    3    3    0    0  0.29667698091E+02  0.81636040261E+01 -0.94443447644E+01  0.32187146332E+02  0.51100000000E-03 0.  1.
        -12    1    3    3    0    0  0.10050489519E+02 -0.37690377980E+01  0.40238852175E+01  0.11463404282E+02  0.00000000000E+00 0.  1.
</event>
<event>
 7    1  0.5411321E-010  0.4778727E+02  0.7816164E-02  0.1312668E+00
        -11   -1    0    0    0    0  0.00000000000E+00  0.00000000000E+00  0.45593999997E+02  0.45594000000E+02  0.51100000000E-03 0. -1.
         11   -1    0    0    0    0 -0.00000000000E+00 -0.00000000000E+00 -0.45593999997E+02  0.45594000000E+02  0.51100000000E-03 0.  1.
    9900012    2    1    2    0    0 -0.43108698671E+02 -0.22169765323E+01  0.45109273240E+01  0.47787270151E+02  0.19999995928E+02 0.  0.
         12    1    1    2    0    0  0.43108698671E+02  0.22169765323E+01 -0.45109273240E+01  0.43400729849E+02  0.00000000000E+00 0. -1.
         11    1    3    3    0    0 -0.24921626005E+02  0.70792449145E+01 -0.78264981668E+00  0.25919407637E+02  0.51100000000E-03 0. -1.
        -11    1    3    3    0    0 -0.16675367623E+02 -0.64515755850E+01  0.36391492621E+01  0.18246482415E+02  0.51100000000E-03 0.  1.
         12    1    3    3    0    0 -0.15117050433E+01 -0.28446458619E+01  0.16544278786E+01  0.36213800992E+01  0.00000000000E+00 0. -1.
</event>
<event>
 7    1  0.5411321E-010  0.4778727E+02  0.7816164E-02  0.1312668E+00
        -11   -1    0    0    0    0  0.00000000000E+00  0.00000000000E+00  0.45593999997E+02  0.45594000000E+02  0.51100000000E-03 0.  1.
         11   -1    0    0    0    0 -0.00000000000E+00 -0.00000000000E+00 -0.45593999997E+02  0.45594000000E+02  0.51100000000E-03 0. -1.
    9900012    2    1    2    0    0 -0.36689021864E+02 -0.18757298283E+02  0.13627274153E+02  0.47787272298E+02  0.20000005717E+02 0.  0.
         12    1    1    2    0    0  0.36689021864E+02  0.18757298283E+02 -0.13627274153E+02  0.43400727702E+02  0.00000000000E+00 0. -1.
         11    1    3    3    0    0  0.20085883635E+00  0.16959201845E+01 -0.11487747507E+01  0.20581965974E+01  0.51100000000E-03 0. -1.
        -11    1    3    3    0    0 -0.33453162553E+02 -0.20943485753E+02  0.11906454923E+02  0.41225081557E+02  0.51100000000E-03 0.  1.
        -12    1    3    3    0    0 -0.34367181470E+01  0.49026728571E+00  0.28695939805E+01  0.45039941437E+01  0.00000000000E+00 0.  1.
</event>
<event>
 7    1  0.5411321E-010  0.4778728E+02  0.7816164E-02  0.1312668E+00
        -11   -1    0    0    0    0  0.00000000000E+00  0.00000000000E+00  0.45593999997E+02  0.45594000000E+02  0.51100000000E-03 0.  1.
         11   -1    0    0    0    0 -0.00000000000E+00 -0.00000000000E+00 -0.45593999997E+02  0.45594000000E+02  0.51100000000E-03 0. -1.
    9900012    2    1    2    0    0  0.16640894956E+01 -0.22089625321E+02  0.37321602555E+02  0.47787276988E+02  0.20000027099E+02 0.  0.
         12    1    1    2    0    0 -0.16640894956E+01  0.22089625321E+02 -0.37321602555E+02  0.43400723012E+02  0.00000000000E+00 0. -1.
         11    1    3    3    0    0  0.43792928209E-01  0.12740326627E+01 -0.11165130877E+01  0.16946028392E+01  0.51100000000E-03 0. -1.
        -11    1    3    3    0    0  0.11275854451E+01 -0.18709906434E+02  0.21516143825E+02  0.28535530362E+02  0.51100000000E-03 0.  1.
         12    1    3    3    0    0  0.49271112226E+00 -0.46537515505E+01  0.16921971818E+02  0.17557143787E+02  0.00000000000E+00 0. -1.
</event>
<event>
 7    1  0.5411321E-010  0.4778727E+02  0.7816164E-02  0.1312668E+00
        -11   -1    0    0    0    0  0.00000000000E+00  0.00000000000E+00  0.45593999997E+02  0.45594000000E+02  0.51100000000E-03 0.  1.
         11   -1    0    0    0    0 -0.00000000000E+00 -0.00000000000E+00 -0.45593999997E+02  0.45594000000E+02  0.51100000000E-03 0. -1.
    9900012    2    1    2    0    0 -0.34482339721E+02  0.49276080889E+01 -0.25890355910E+02  0.47787267250E+02  0.19999982701E+02 0.  0.
         12    1    1    2    0    0  0.34482339721E+02 -0.49276080889E+01  0.25890355910E+02  0.43400732750E+02  0.00000000000E+00 0. -1.
         11    1    3    3    0    0 -0.23937428648E+00  0.68323782856E-01 -0.20447711968E+01  0.20598683688E+01  0.51100000000E-03 0. -1.
        -11    1    3    3    0    0 -0.24546256592E+02  0.87215542586E+01 -0.23807170726E+02  0.35289737880E+02  0.51100000000E-03 0.  1.
        -12    1    3    3    0    0 -0.96967088419E+01 -0.38622699525E+01 -0.38413986315E-01  0.10437661002E+02  0.00000000000E+00 0.  1.
</event>
<event>
 7    1  0.5411321E-010  0.4778727E+02  0.7816164E-02  0.1312668E+00
        -11   -1    0    0    0    0  0.00000000000E+00  0.00000000000E+00  0.45593999997E+02  0.45594000000E+02  0.51100000000E-03 0. -1.
         11   -1    0    0    0    0 -0.00000000000E+00 -0.00000000000E+00 -0.45593999997E+02  0.45594000000E+02  0.51100000000E-03 0.  1.
    9900012    2    1    2    0    0 -0.11269283212E+02 -0.36681476302E+02 -0.20275500328E+02  0.47787270037E+02  0.19999995405E+02 0.  0.
         12    1    1    2    0    0  0.11269283212E+02  0.36681476302E+02  0.20275500328E+02  0.43400729963E+02  0.00000000000E+00 0. -1.
         11    1    3    3    0    0 -0.34197701196E+01 -0.59403568419E+01 -0.13425456606E+02  0.15074002534E+02  0.51100000000E-03 0. -1.
        -11    1    3    3    0    0 -0.36932881270E+01 -0.22004215908E+02 -0.48921282044E+01  0.22842040485E+02  0.51100000000E-03 0.  1.
         12    1    3    3    0    0 -0.41562249655E+01 -0.87369035520E+01 -0.19579155182E+01  0.98712270168E+01  0.00000000000E+00 0. -1.
</event>
<event>
 7    1  0.5411321E-010  0.4778727E+02  0.7816164E-02  0.1312668E+00
        -11   -1    0    0    0    0  0.00000000000E+00  0.00000000000E+00  0.45593999997E+02  0.45594000000E+02  0.51100000000E-03 0.  1.
         11   -1    0    0    0    0 -0.00000000000E+00 -0.00000000000E+00 -0.45593999997E+02  0.45594000000E+02  0.51100000000E-03 0. -1.
    9900012    2    1    2    0    0 -0.16184436169E+02 -0.12563361758E+02  0.38260286243E+02  0.47787268023E+02  0.19999986222E+02 0.  0.
         12    1    1    2    0    0  0.16184436169E+02  0.12563361758E+02 -0.38260286243E+02  0.43400731977E+02  0.00000000000E+00 0. -1.
         11    1    3    3    0    0 -0.29951021129E+01 -0.21151935510E+01 -0.19186219947E+01  0.41383319157E+01  0.51100000000E-03 0. -1.
        -11    1    3    3    0    0 -0.11941522111E+02 -0.10260935379E+02  0.36224924998E+02  0.39498505497E+02  0.51100000000E-03 0.  1.
         12    1    3    3    0    0 -0.12478119456E+01 -0.18723282813E+00  0.39539832398E+01  0.41504306095E+01  0.00000000000E+00 0. -1.
</event>
<event>
 7    1  0.5411321E-010  0.4778727E+02  0.7816164E-02  0.1312668E+00
        -11   -1    0    0    0    0  0.00000000000E+00  0.00000000000E+00  0.45593999997E+02  0.45594000000E+02  0.51100000000E-03 0.  1.
         11   -1    0    0    0    0 -0.00000000000E+00 -0.00000000000E+00 -0.45593999997E+02  0.45594000000E+02  0.51100000000E-03 0. -1.
    9900012    2    1    2    0    0  0.10337971292E+01  0.42490440090E+02  0.87816317307E+01  0.47787270843E+02  0.19999999081E+02 0.  0.
         12    1    1    2    0    0 -0.10337971292E+01 -0.42490440090E+02 -0.87816317307E+01  0.43400729157E+02  0.00000000000E+00 0. -1.
         11    1    3    3    0    0  0.33150453775E+01  0.14144401877E+02 -0.25780667756E+01  0.14754662276E+02  0.51100000000E-03 0. -1.
        -11    1    3    3    0    0 -0.71836652085E+01  0.19412077711E+02  0.61823901325E+01  0.21602216435E+02  0.51100000000E-03 0.  1.
        -12    1    3    3    0    0  0.49024169603E+01  0.89339605014E+01  0.51773083738E+01  0.11430392132E+02  0.00000000000E+00 0.  1.
</event>
<event>
 7    1  0.5411321E-010  0.4778727E+02  0.7816164E-02  0.1312668E+00
        -11   -1    0    0    0    0  0.00000000000E+00  0.00000000000E+00  0.45593999997E+02  0.45594000000E+02  0.51100000000E-03 0.  1.
         11   -1    0    0    0    0 -0.00000000000E+00 -0.00000000000E+00 -0.45593999997E+02  0.45594000000E+02  0.51100000000E-03 0. -1.
    9900012    2    1    2    0    0  0.46480748598E+01 -0.36381776320E+02 -0.23203127899E+02  0.47787269679E+02  0.19999993776E+02 0.  0.
         12    1    1    2    0    0 -0.46480748598E+01  0.36381776320E+02  0.23203127899E+02  0.43400730321E+02  0.00000000000E+00 0. -1.
         11    1    3    3    0    0 -0.13805936664E+01 -0.27063762194E+02 -0.13609015309E+02  0.30324223995E+02  0.51100000000E-03 0. -1.
        -11    1    3    3    0    0  0.73336918031E+01 -0.76681010132E+01 -0.37530117512E+01  0.11254683740E+02  0.51100000000E-03 0.  1.
         12    1    3    3    0    0 -0.13050232769E+01 -0.16499131129E+01 -0.58411008385E+01  0.62083619449E+01  0.00000000000E+00 0. -1.
</event>
<event>
 7    1  0.5411321E-010  0.4778727E+02  0.7816164E-02  0.1312668E+00
        -11   -1    0    0    0    0  0.00000000000E+00  0.00000000000E+00  0.45593999997E+02  0.45594000000E+02  0.51100000000E-03 0. -1.
         11   -1    0    0    0    0 -0.00000000000E+00 -0.00000000000E+00 -0.45593999997E+02  0.45594000000E+02  0.51100000000E-03 0.  1.
    9900012    2    1    2    0    0 -0.19479353846E+02 -0.24726189413E+01 -0.38704837755E+02  0.47787268021E+02  0.19999986214E+02 0.  0.
         12    1    1    2    0    0  0.19479353846E+02  0.24726189413E+01  0.38704837755E+02  0.43400731979E+02  0.00000000000E+00 0. -1.
         11    1    3    3    0    0 -0.17314170530E+01  0.19456108839E+01 -0.23884088026E+02  0.24025671017E+02  0.51100000000E-03 0. -1.
        -11    1    3    3    0    0 -0.10946603599E+02 -0.39232155073E+01 -0.10647133755E+02  0.15766458313E+02  0.51100000000E-03 0.  1.
         12    1    3    3    0    0 -0.68013331942E+01 -0.49501431788E+00 -0.41736159738E+01  0.79951386911E+01  0.00000000000E+00 0. -1.
</event>
<event>
 7    1  0.5411321E-010  0.4778727E+02  0.7816164E-02  0.1312668E+00
        -11   -1    0    0    0    0  0.00000000000E+00  0.00000000000E+00  0.45593999997E+02  0.45594000000E+02  0.51100000000E-03 0. -1.
         11   -1    0    0    0    0 -0.00000000000E+00 -0.00000000000E+00 -0.45593999997E+02  0.45594000000E+02  0.51100000000E-03 0.  1.
    9900012    2    1    2    0    0  0.11051253351E+02  0.41799278395E+02 -0.37832950811E+01  0.47787271934E+02  0.20000004056E+02 0.  0.
         12    1    1    2    0    0 -0.11051253351E+02 -0.41799278395E+02  0.37832950811E+01  0.43400728066E+02  0.00000000000E+00 0. -1.
         11    1    3    3    0    0  0.28154187300E+01  0.61317431998E+01  0.24276660944E+01  0.71706638619E+01  0.51100000000E-03 0. -1.
        -11    1    3    3    0    0  0.12776441196E+02  0.31149666038E+02 -0.43600439000E+01  0.33949213937E+02  0.51100000000E-03 0.  1.
        -12    1    3    3    0    0 -0.45406065745E+01  0.45178691575E+01 -0.18509172755E+01  0.66673941348E+01  0.00000000000E+00 0.  1.
</event>
<event>
 7    1  0.5411321E-010  0.4778727E+02  0.7816164E-02  0.1312668E+00
        -11   -1    0    0    0    0  0.00000000000E+00  0.00000000000E+00  0.45593999997E+02  0.45594000000E+02  0.51100000000E-03 0.  1.
         11   -1    0    0    0    0 -0.00000000000E+00 -0.00000000000E+00 -0.45593999997E+02  0.45594000000E+02  0.51100000000E-03 0. -1.
    9900012    2    1    2    0    0  0.16838504952E+02 -0.91136410496E+01  0.38949064208E+02  0.47787270688E+02  0.19999998373E+02 0.  0.
         12    1    1    2    0    0 -0.16838504952E+02  0.91136410496E+01 -0.38949064208E+02  0.43400729312E+02  0.00000000000E+00 0. -1.
         11    1    3    3    0    0 -0.71568373536E+00 -0.12333905383E+00  0.13387097585E+02  0.13406781782E+02  0.51100000000E-03 0.  1.
        -11    1    3    3    0    0  0.19297505116E+02 -0.79915460222E+01  0.24124722458E+02  0.31910198143E+02  0.51100000000E-03 0. -1.
         12    1    3    3    0    0 -0.17433164292E+01 -0.99875597354E+00  0.14372441644E+01  0.24702907633E+01  0.00000000000E+00 0. -1.
</event>
<event>
 7    1  0.5411321E-010  0.4778727E+02  0.7816164E-02  0.1312668E+00
        -11   -1    0    0    0    0  0.00000000000E+00  0.00000000000E+00  0.45593999997E+02  0.45594000000E+02  0.51100000000E-03 0.  1.
         11   -1    0    0    0    0 -0.00000000000E+00 -0.00000000000E+00 -0.45593999997E+02  0.45594000000E+02  0.51100000000E-03 0. -1.
    9900012    2    1    2    0    0  0.24295190522E+02 -0.23120094481E+02  0.27546837792E+02  0.47787270471E+02  0.19999997384E+02 0.  0.
         12    1    1    2    0    0 -0.24295190522E+02  0.23120094481E+02 -0.27546837792E+02  0.43400729529E+02  0.00000000000E+00 0. -1.
         11    1    3    3    0    0  0.21060329472E+02 -0.19600978627E+02  0.21221665069E+02  0.35750453272E+02  0.51100000000E-03 0. -1.
        -11    1    3    3    0    0  0.25580296904E+01 -0.62334881440E+01  0.22694550685E+01  0.71098746057E+01  0.51100000000E-03 0.  1.
         12    1    3    3    0    0  0.67683135979E+00  0.27143722901E+01  0.40557176545E+01  0.49269425927E+01  0.00000000000E+00 0. -1.
</event>
<event>
 7    1  0.5411321E-010  0.4778727E+02  0.7816164E-02  0.1312668E+00
        -11   -1    0    0    0    0  0.00000000000E+00  0.00000000000E+00  0.45593999997E+02  0.45594000000E+02  0.51100000000E-03 0.  1.
         11   -1    0    0    0    0 -0.00000000000E+00 -0.00000000000E+00 -0.45593999997E+02  0.45594000000E+02  0.51100000000E-03 0. -1.
    9900012    2    1    2    0    0  0.18693514200E+02 -0.19764018267E+02  0.33816555217E+02  0.47787270767E+02  0.19999998734E+02 0.  0.
         12    1    1    2    0    0 -0.18693514200E+02  0.19764018267E+02 -0.33816555217E+02  0.43400729233E+02  0.00000000000E+00 0. -1.
         11    1    3    3    0    0  0.11972473948E+02 -0.22077183749E+01  0.19761105306E+02  0.23210244205E+02  0.51100000000E-03 0.  1.
        -11    1    3    3    0    0  0.13898305078E+01 -0.13202060884E+02  0.90611956971E+01  0.16072688267E+02  0.51100000000E-03 0. -1.
        -12    1    3    3    0    0  0.53312097437E+01 -0.43542390088E+01  0.49942542139E+01  0.85043382947E+01  0.00000000000E+00 0.  1.
</event>
<event>
 7    1  0.5411321E-010  0.4778727E+02  0.7816164E-02  0.1312668E+00
        -11   -1    0    0    0    0  0.00000000000E+00  0.00000000000E+00  0.45593999997E+02  0.45594000000E+02  0.51100000000E-03 0.  1.
         11   -1    0    0    0    0 -0.00000000000E+00 -0.00000000000E+00 -0.45593999997E+02  0.45594000000E+02  0.51100000000E-03 0. -1.
    9900012    2    1    2    0    0 -0.96641048252E+01 -0.39335258860E+02  0.15587358285E+02  0.47787271320E+02  0.20000001258E+02 0.  0.
         12    1    1    2    0    0  0.96641048252E+01  0.39335258860E+02 -0.15587358285E+02  0.43400728680E+02  0.00000000000E+00 0. -1.
         11    1    3    3    0    0 -0.21292934480E+01  0.14656650150E+01  0.23099397131E+01  0.34666823136E+01  0.51100000000E-03 0. -1.
        -11    1    3    3    0    0 -0.48961935442E-01 -0.11125704115E+02  0.44608027766E+00  0.11134750882E+02  0.51100000000E-03 0.  1.
         12    1    3    3    0    0 -0.74858494418E+01 -0.29675219759E+02  0.12831338294E+02  0.33185838125E+02  0.00000000000E+00 0. -1.
</event>
<event>
 7    1  0.5411321E-010  0.4778727E+02  0.7816164E-02  0.1312668E+00
        -11   -1    0    0    0    0  0.00000000000E+00  0.00000000000E+00  0.45593999997E+02  0.45594000000E+02  0.51100000000E-03 0.  1.
         11   -1    0    0    0    0 -0.00000000000E+00 -0.00000000000E+00 -0.45593999997E+02  0.45594000000E+02  0.51100000000E-03 0. -1.
    9900012    2    1    2    0    0  0.11770833140E+02 -0.30570560441E+02  0.28469484471E+02  0.47787271613E+02  0.20000002592E+02 0.  0.
         12    1    1    2    0    0 -0.11770833140E+02  0.30570560441E+02 -0.28469484471E+02  0.43400728387E+02  0.00000000000E+00 0. -1.
         11    1    3    3    0    0  0.67765172592E+01 -0.64357288430E+01  0.14062465986E+02  0.16884689567E+02  0.51100000000E-03 0. -1.
        -11    1    3    3    0    0 -0.11736799364E+01 -0.19603152390E+02  0.95443577060E+01  0.21834740037E+02  0.51100000000E-03 0.  1.
        -12    1    3    3    0    0  0.61679958168E+01 -0.45316792081E+01  0.48626607791E+01  0.90678420086E+01  0.00000000000E+00 0.  1.
</event>
<event>
 7    1  0.5411321E-010  0.4778727E+02  0.7816164E-02  0.1312668E+00
        -11   -1    0    0    0    0  0.00000000000E+00  0.00000000000E+00  0.45593999997E+02  0.45594000000E+02  0.51100000000E-03 0.  1.
         11   -1    0    0    0    0 -0.00000000000E+00 -0.00000000000E+00 -0.45593999997E+02  0.45594000000E+02  0.51100000000E-03 0. -1.
    9900012    2    1    2    0    0  0.11690295886E+02  0.39963058912E+02  0.12243934652E+02  0.47787273840E+02  0.20000012745E+02 0.  0.
         12    1    1    2    0    0 -0.11690295886E+02 -0.39963058912E+02 -0.12243934652E+02  0.43400726160E+02  0.00000000000E+00 0. -1.
         11    1    3    3    0    0 -0.15813678077E+01  0.21958642325E+00  0.37827412921E+01  0.41058585320E+01  0.51100000000E-03 0. -1.
        -11    1    3    3    0    0  0.87547193912E+01  0.26181299736E+02  0.98698997097E+01  0.29317579846E+02  0.51100000000E-03 0.  1.
         12    1    3    3    0    0  0.45169443026E+01  0.13562172753E+02 -0.14087063500E+01  0.14363835462E+02  0.00000000000E+00 0. -1.
</event>
<event>
 7    1  0.5411321E-010  0.4778727E+02  0.7816164E-02  0.1312668E+00
        -11   -1    0    0    0    0  0.00000000000E+00  0.00000000000E+00  0.45593999997E+02  0.45594000000E+02  0.51100000000E-03 0.  1.
         11   -1    0    0    0    0 -0.00000000000E+00 -0.00000000000E+00 -0.45593999997E+02  0.45594000000E+02  0.51100000000E-03 0. -1.
    9900012    2    1    2    0    0 -0.30398417246E+02 -0.12491895358E+01  0.30951554194E+02  0.47787274746E+02  0.20000016876E+02 0.  0.
         12    1    1    2    0    0  0.30398417246E+02  0.12491895358E+01 -0.30951554194E+02  0.43400725254E+02  0.00000000000E+00 0. -1.
         11    1    3    3    0    0  0.92657219349E+00  0.32697551180E+00 -0.85517434392E-01  0.98628723391E+00  0.51100000000E-03 0. -1.
        -11    1    3    3    0    0 -0.82099556667E+01  0.52096634527E+01  0.14946858031E+02  0.17831223475E+02  0.51100000000E-03 0.  1.
        -12    1    3    3    0    0 -0.23115033773E+02 -0.67858285003E+01  0.16090213597E+02  0.28969764037E+02  0.00000000000E+00 0.  1.
</event>
<event>
 7    1  0.5411321E-010  0.4778727E+02  0.7816164E-02  0.1312668E+00
        -11   -1    0    0    0    0  0.00000000000E+00  0.00000000000E+00  0.45593999997E+02  0.45594000000E+02  0.51100000000E-03 0. -1.
         11   -1    0    0    0    0 -0.00000000000E+00 -0.00000000000E+00 -0.45593999997E+02  0.45594000000E+02  0.51100000000E-03 0.  1.
    9900012    2    1    2    0    0 -0.37965359127E+01  0.40466123168E+02 -0.15221776961E+02  0.47787270709E+02  0.19999998470E+02 0.  0.
         12    1    1    2    0    0  0.37965359127E+01 -0.40466123168E+02  0.15221776961E+02  0.43400729291E+02  0.00000000000E+00 0. -1.
         11    1    3    3    0    0 -0.77524846779E+01  0.32979937256E+02 -0.13397984747E+02  0.36431899150E+02  0.51100000000E-03 0.  1.
        -11    1    3    3    0    0  0.25572676570E+01  0.21301516307E+01  0.26368331266E+01  0.42461809945E+01  0.51100000000E-03 0. -1.
        -12    1    3    3    0    0  0.13986811082E+01  0.53560342807E+01 -0.44606253400E+01  0.71091905645E+01  0.00000000000E+00 0.  1.
</event>
<event>
 7    1  0.5411321E-010  0.4778727E+02  0.7816164E-02  0.1312668E+00
        -11   -1    0    0    0    0  0.00000000000E+00  0.00000000000E+00  0.45593999997E+02  0.45594000000E+02  0.51100000000E-03 0.  1.
         11   -1    0    0    0    0 -0.00000000000E+00 -0.00000000000E+00 -0.45593999997E+02  0.45594000000E+02  0.51100000000E-03 0. -1.
    9900012    2    1    2    0    0 -0.33587172904E+02 -0.10290767964E+02  0.25487746529E+02  0.47787270604E+02  0.19999997993E+02 0.  0.
         12    1    1    2    0    0  0.33587172904E+02  0.10290767964E+02 -0.25487746529E+02  0.43400729396E+02  0.00000000000E+00 0. -1.
         11    1    3    3    0    0 -0.11185419336E+02 -0.59984982438E+01  0.26250709222E+01  0.12960963873E+02  0.51100000000E-03 0.  1.
        -11    1    3    3    0    0 -0.18536960464E+01  0.32275832971E+01  0.65509776984E+01  0.75345067548E+01  0.51100000000E-03 0. -1.
        -12    1    3    3    0    0 -0.20548057521E+02 -0.75198530172E+01  0.16311697909E+02  0.27291799976E+02  0.00000000000E+00 0.  1.
</event>
<event>
 7    1  0.5411321E-010  0.4778727E+02  0.7816164E-02  0.1312668E+00
        -11   -1    0    0    0    0  0.00000000000E+00  0.00000000000E+00  0.45593999997E+02  0.45594000000E+02  0.51100000000E-03 0.  1.
         11   -1    0    0    0    0 -0.00000000000E+00 -0.00000000000E+00 -0.45593999997E+02  0.45594000000E+02  0.51100000000E-03 0. -1.
    9900012    2    1    2    0    0  0.35697249423E+02 -0.10331127040E+02  0.22418685895E+02  0.47787270979E+02  0.19999999703E+02 0.  0.
         12    1    1    2    0    0 -0.35697249423E+02  0.10331127040E+02 -0.22418685895E+02  0.43400729021E+02  0.00000000000E+00 0. -1.
         11    1    3    3    0    0  0.28922255269E+02 -0.95641039617E+01  0.11857186118E+02  0.32688863506E+02  0.51100000000E-03 0. -1.
        -11    1    3    3    0    0 -0.17573467730E+00 -0.33614995983E+01  0.34977408918E+01  0.48543541108E+01  0.51100000000E-03 0.  1.
        -12    1    3    3    0    0  0.69507288314E+01  0.25944765205E+01  0.70637588852E+01  0.10244053362E+02  0.00000000000E+00 0.  1.
</event>
<event>
 7    1  0.5411321E-010  0.4778727E+02  0.7816164E-02  0.1312668E+00
        -11   -1    0    0    0    0  0.00000000000E+00  0.00000000000E+00  0.45593999997E+02  0.45594000000E+02  0.51100000000E-03 0.  1.
         11   -1    0    0    0    0 -0.00000000000E+00 -0.00000000000E+00 -0.45593999997E+02  0.45594000000E+02  0.51100000000E-03 0. -1.
    9900012    2    1    2    0    0 -0.28291621074E+02 -0.31937597864E+02  0.79496623092E+01  0.47787272919E+02  0.20000008547E+02 0.  0.
         12    1    1    2    0    0  0.28291621074E+02  0.31937597864E+02 -0.79496623092E+01  0.43400727081E+02  0.00000000000E+00 0. -1.
         11    1    3    3    0    0 -0.64518651442E+01  0.75723519861E+00  0.36025866397E+01  0.74282299199E+01  0.51100000000E-03 0.  1.
        -11    1    3    3    0    0 -0.11139790142E+02 -0.11053971808E+02 -0.64498076714E+00  0.15706725234E+02  0.51100000000E-03 0. -1.
         12    1    3    3    0    0 -0.10699965788E+02 -0.21640861255E+02  0.49920564367E+01  0.24652317765E+02  0.00000000000E+00 0. -1.
</event>
<event>
 7    1  0.5411321E-010  0.4778727E+02  0.7816164E-02  0.1312668E+00
        -11   -1    0    0    0    0  0.00000000000E+00  0.00000000000E+00  0.45593999997E+02  0.45594000000E+02  0.51100000000E-03 0. -1.
         11   -1    0    0    0    0 -0.00000000000E+00 -0.00000000000E+00 -0.45593999997E+02  0.45594000000E+02  0.51100000000E-03 0.  1.
    9900012    2    1    2    0    0  0.21844010292E+02 -0.37472523182E+02 -0.15075780289E+01  0.47787267624E+02  0.19999984405E+02 0.  0.
         12    1    1    2    0    0 -0.21844010292E+02  0.37472523182E+02  0.15075780289E+01  0.43400732376E+02  0.00000000000E+00 0. -1.
         11    1    3    3    0    0  0.16367584709E+02 -0.15327187382E+02  0.64353798665E+01  0.23328836588E+02  0.51100000000E-03 0. -1.
        -11    1    3    3    0    0  0.35507217753E+01 -0.12600075064E+02 -0.64959629763E+01  0.14613933488E+02  0.51100000000E-03 0.  1.
         12    1    3    3    0    0  0.19257038074E+01 -0.95452607362E+01 -0.14469949191E+01  0.98444975480E+01  0.00000000000E+00 0. -1.
</event>
<event>
 7    1  0.5411321E-010  0.4778727E+02  0.7816164E-02  0.1312668E+00
        -11   -1    0    0    0    0  0.00000000000E+00  0.00000000000E+00  0.45593999997E+02  0.45594000000E+02  0.51100000000E-03 0.  1.
         11   -1    0    0    0    0 -0.00000000000E+00 -0.00000000000E+00 -0.45593999997E+02  0.45594000000E+02  0.51100000000E-03 0. -1.
    9900012    2    1    2    0    0  0.77113808737E+01 -0.37456359155E+02  0.20522649281E+02  0.47787269941E+02  0.19999994968E+02 0.  0.
         12    1    1    2    0    0 -0.77113808737E+01  0.37456359155E+02 -0.20522649281E+02  0.43400730059E+02  0.00000000000E+00 0. -1.
         11    1    3    3    0    0  0.34926107862E+01 -0.12771320074E+02  0.45429119025E+01  0.13997963972E+02  0.51100000000E-03 0. -1.
        -11    1    3    3    0    0  0.87244180930E+01 -0.18846155511E+02  0.16310171148E+02  0.26406717550E+02  0.51100000000E-03 0.  1.
         12    1    3    3    0    0 -0.45056480055E+01 -0.58388835701E+01 -0.33043376886E+00  0.73825884194E+01  0.00000000000E+00 0. -1.
</event>
<event>
 7    1  0.5411321E-010  0.4778725E+02  0.7816164E-02  0.1312668E+00
        -11   -1    0    0    0    0  0.00000000000E+00  0.00000000000E+00  0.45593999997E+02  0.45594000000E+02  0.51100000000E-03 0.  1.
         11   -1    0    0    0    0 -0.00000000000E+00 -0.00000000000E+00 -0.45593999997E+02  0.45594000000E+02  0.51100000000E-03 0. -1.
    9900012    2    1    2    0    0 -0.36186429078E+01 -0.24778363022E+02  0.35448031119E+02  0.47787253915E+02  0.19999921899E+02 0.  0.
         12    1    1    2    0    0  0.36186429078E+01  0.24778363022E+02 -0.35448031119E+02  0.43400746085E+02  0.00000000000E+00 0. -1.
         11    1    3    3    0    0 -0.49170497806E+01 -0.36878680190E+01  0.15267733975E+02  0.16458476542E+02  0.51100000000E-03 0. -1.
        -11    1    3    3    0    0  0.44414450064E+01 -0.71729644184E+01  0.29042844756E+01  0.89225960835E+01  0.51100000000E-03 0.  1.
        -12    1    3    3    0    0 -0.31430381336E+01 -0.13917530584E+02  0.17276012668E+02  0.22406181290E+02  0.00000000000E+00 0.  1.
</event>
<event>
 7    1  0.5411321E-010  0.4778727E+02  0.7816164E-02  0.1312668E+00
        -11   -1    0    0    0    0  0.00000000000E+00  0.00000000000E+00  0.45593999997E+02  0.45594000000E+02  0.51100000000E-03 0.  1.
         11   -1    0    0    0    0 -0.00000000000E+00 -0.00000000000E+00 -0.45593999997E+02  0.45594000000E+02  0.51100000000E-03 0. -1.
    9900012    2    1    2    0    0 -0.21871123442E+02 -0.83264223646E+01  0.36550628471E+02  0.47787265079E+02  0.19999972803E+02 0.  0.
         12    1    1    2    0    0  0.21871123442E+02  0.83264223646E+01 -0.36550628471E+02  0.43400734921E+02  0.00000000000E+00 0. -1.
         11    1    3    3    0    0 -0.34972175170E+01 -0.18968638691E+01  0.16599044554E+01  0.43109054689E+01  0.51100000000E-03 0. -1.
        -11    1    3    3    0    0 -0.82517929276E+01 -0.46649701227E+01  0.29559000392E+01  0.99293191141E+01  0.51100000000E-03 0.  1.
        -12    1    3    3    0    0 -0.10122112998E+02 -0.17645883728E+01  0.31934823976E+02  0.33547040496E+02  0.00000000000E+00 0.  1.
</event>
<event>
 7    1  0.5411321E-010  0.4778727E+02  0.7816164E-02  0.1312668E+00
        -11   -1    0    0    0    0  0.00000000000E+00  0.00000000000E+00  0.45593999997E+02  0.45594000000E+02  0.51100000000E-03 0. -1.
         11   -1    0    0    0    0 -0.00000000000E+00 -0.00000000000E+00 -0.45593999997E+02  0.45594000000E+02  0.51100000000E-03 0.  1.
    9900012    2    1    2    0    0 -0.25458533841E+02  0.61379307316E+01 -0.34609426743E+02  0.47787267766E+02  0.19999985051E+02 0.  0.
         12    1    1    2    0    0  0.25458533841E+02 -0.61379307316E+01  0.34609426743E+02  0.43400732234E+02  0.00000000000E+00 0. -1.
         11    1    3    3    0    0 -0.66948095067E+01  0.27369043173E+01  0.34679126577E-01  0.72327257985E+01  0.51100000000E-03 0. -1.
        -11    1    3    3    0    0 -0.13512586426E+02 -0.18371133561E+01 -0.21423927651E+02  0.25395858987E+02  0.51100000000E-03 0.  1.
        -12    1    3    3    0    0 -0.52511379079E+01  0.52381397704E+01 -0.13220178218E+02  0.15158682981E+02  0.00000000000E+00 0.  1.
</event>
<event>
 7    1  0.5411321E-010  0.4778727E+02  0.7816164E-02  0.1312668E+00
        -11   -1    0    0    0    0  0.00000000000E+00  0.00000000000E+00  0.45593999997E+02  0.45594000000E+02  0.51100000000E-03 0.  1.
         11   -1    0    0    0    0 -0.00000000000E+00 -0.00000000000E+00 -0.45593999997E+02  0.45594000000E+02  0.51100000000E-03 0. -1.
    9900012    2    1    2    0    0 -0.34742268181E+02  0.15369433394E+02  0.20985201952E+02  0.47787269797E+02  0.19999994314E+02 0.  0.
         12    1    1    2    0    0  0.34742268181E+02 -0.15369433394E+02 -0.20985201952E+02  0.43400730203E+02  0.00000000000E+00 0. -1.
         11    1    3    3    0    0 -0.14168881875E+02 -0.24374959091E+01  0.50610640398E+01  0.15241816472E+02  0.51100000000E-03 0. -1.
        -11    1    3    3    0    0 -0.16310057797E+02  0.96657672930E+01  0.87193080273E+01  0.20867950916E+02  0.51100000000E-03 0.  1.
         12    1    3    3    0    0 -0.42633285082E+01  0.81411620099E+01  0.72048298845E+01  0.11677502409E+02  0.00000000000E+00 0. -1.
</event>
<event>
 7    1  0.5411321E-010  0.4778727E+02  0.7816164E-02  0.1312668E+00
        -11   -1    0    0    0    0  0.00000000000E+00  0.00000000000E+00  0.45593999997E+02  0.45594000000E+02  0.51100000000E-03 0.  1.
         11   -1    0    0    0    0 -0.00000000000E+00 -0.00000000000E+00 -0.45593999997E+02  0.45594000000E+02  0.51100000000E-03 0. -1.
    9900012    2    1    2    0    0 -0.34251046689E+02 -0.13878854886E+02  0.22756672051E+02  0.47787274948E+02  0.20000017797E+02 0.  0.
         12    1    1    2    0    0  0.34251046689E+02  0.13878854886E+02 -0.22756672051E+02  0.43400725052E+02  0.00000000000E+00 0. -1.
         11    1    3    3    0    0 -0.11003397460E+02 -0.47492713917E+01  0.94136418328E+00  0.12021501620E+02  0.51100000000E-03 0. -1.
        -11    1    3    3    0    0 -0.20413479283E+02 -0.82398170964E+01  0.23621657401E+02  0.32289122330E+02  0.51100000000E-03 0.  1.
        -12    1    3    3    0    0 -0.28341699461E+01 -0.88976639738E+00 -0.18063495329E+01  0.34766509978E+01  0.00000000000E+00 0.  1.
</event>
<event>
 7    1  0.5411321E-010  0.4778727E+02  0.7816164E-02  0.1312668E+00
        -11   -1    0    0    0    0  0.00000000000E+00  0.00000000000E+00  0.45593999997E+02  0.45594000000E+02  0.51100000000E-03 0. -1.
         11   -1    0    0    0    0 -0.00000000000E+00 -0.00000000000E+00 -0.45593999997E+02  0.45594000000E+02  0.51100000000E-03 0.  1.
    9900012    2    1    2    0    0  0.13809981406E+02  0.24428349629E+02 -0.33108358992E+02  0.47787270891E+02  0.19999999300E+02 0.  0.
         12    1    1    2    0    0 -0.13809981406E+02 -0.24428349629E+02  0.33108358992E+02  0.43400729109E+02  0.00000000000E+00 0. -1.
         11    1    3    3    0    0 -0.17445893901E+01  0.10177922081E+02 -0.36358369221E+01  0.10947739511E+02  0.51100000000E-03 0. -1.
        -11    1    3    3    0    0  0.11612412884E+02  0.10830745145E+02 -0.16711871931E+02  0.23052978921E+02  0.51100000000E-03 0.  1.
         12    1    3    3    0    0  0.39421579118E+01  0.34196824030E+01 -0.12760650139E+02  0.13786552459E+02  0.00000000000E+00 0. -1.
</event>
<event>
 7    1  0.5411321E-010  0.4778726E+02  0.7816164E-02  0.1312668E+00
        -11   -1    0    0    0    0  0.00000000000E+00  0.00000000000E+00  0.45593999997E+02  0.45594000000E+02  0.51100000000E-03 0.  1.
         11   -1    0    0    0    0 -0.00000000000E+00 -0.00000000000E+00 -0.45593999997E+02  0.45594000000E+02  0.51100000000E-03 0. -1.
    9900012    2    1    2    0    0  0.23270988472E+01 -0.24244520568E+02  0.35922301974E+02  0.47787263304E+02  0.19999964710E+02 0.  0.
         12    1    1    2    0    0 -0.23270988472E+01  0.24244520568E+02 -0.35922301974E+02  0.43400736696E+02  0.00000000000E+00 0. -1.
         11    1    3    3    0    0  0.44627631998E+01 -0.19633002263E+02  0.31270729061E+02  0.37191793846E+02  0.51100000000E-03 0.  1.
        -11    1    3    3    0    0  0.97191656741E+00  0.18066661969E+01 -0.53457500239E-01  0.20521994363E+01  0.51100000000E-03 0. -1.
        -12    1    3    3    0    0 -0.31075809200E+01 -0.64181845019E+01  0.47050304130E+01  0.85432700216E+01  0.00000000000E+00 0.  1.
</event>
<event>
 7    1  0.5411321E-010  0.4778727E+02  0.7816164E-02  0.1312668E+00
        -11   -1    0    0    0    0  0.00000000000E+00  0.00000000000E+00  0.45593999997E+02  0.45594000000E+02  0.51100000000E-03 0. -1.
         11   -1    0    0    0    0 -0.00000000000E+00 -0.00000000000E+00 -0.45593999997E+02  0.45594000000E+02  0.51100000000E-03 0.  1.
    9900012    2    1    2    0    0 -0.41471233466E+02  0.86167333873E+01 -0.94610813395E+01  0.47787270057E+02  0.19999995498E+02 0.  0.
         12    1    1    2    0    0  0.41471233466E+02 -0.86167333873E+01  0.94610813395E+01  0.43400729943E+02  0.00000000000E+00 0. -1.
         11    1    3    3    0    0 -0.64250701897E+01  0.35291762725E+01  0.37020442646E+01  0.82122922563E+01  0.51100000000E-03 0. -1.
        -11    1    3    3    0    0 -0.28475044430E+02  0.70666358984E+01 -0.14267468170E+02  0.32624011809E+02  0.51100000000E-03 0.  1.
        -12    1    3    3    0    0 -0.65711188460E+01 -0.19790787836E+01  0.11043425660E+01  0.69509659921E+01  0.00000000000E+00 0.  1.
</event>
<event>
 7    1  0.5411321E-010  0.4778727E+02  0.7816164E-02  0.1312668E+00
        -11   -1    0    0    0    0  0.00000000000E+00  0.00000000000E+00  0.45593999997E+02  0.45594000000E+02  0.51100000000E-03 0.  1.
         11   -1    0    0    0    0 -0.00000000000E+00 -0.00000000000E+00 -0.45593999997E+02  0.45594000000E+02  0.51100000000E-03 0. -1.
    9900012    2    1    2    0    0 -0.25819876825E+02  0.22638883052E+02  0.26541255836E+02  0.47787270438E+02  0.19999997237E+02 0.  0.
         12    1    1    2    0    0  0.25819876825E+02 -0.22638883052E+02 -0.26541255836E+02  0.43400729562E+02  0.00000000000E+00 0. -1.
         11    1    3    3    0    0 -0.18752930618E+02  0.12569137110E+02  0.17773293450E+02  0.28732308901E+02  0.51100000000E-03 0. -1.
        -11    1    3    3    0    0 -0.86168224180E+01  0.11480396908E+02  0.90060796322E+01  0.16945754995E+02  0.51100000000E-03 0.  1.
         12    1    3    3    0    0  0.15498762106E+01 -0.14106509660E+01 -0.23811724626E+00  0.21092065425E+01  0.00000000000E+00 0. -1.
</event>
<event>
 7    1  0.5411321E-010  0.4778727E+02  0.7816164E-02  0.1312668E+00
        -11   -1    0    0    0    0  0.00000000000E+00  0.00000000000E+00  0.45593999997E+02  0.45594000000E+02  0.51100000000E-03 0. -1.
         11   -1    0    0    0    0 -0.00000000000E+00 -0.00000000000E+00 -0.45593999997E+02  0.45594000000E+02  0.51100000000E-03 0.  1.
    9900012    2    1    2    0    0 -0.32190479319E+02 -0.22803795235E+02  0.18093736844E+02  0.47787270180E+02  0.19999996060E+02 0.  0.
         12    1    1    2    0    0  0.32190479319E+02  0.22803795235E+02 -0.18093736844E+02  0.43400729820E+02  0.00000000000E+00 0. -1.
         11    1    3    3    0    0 -0.34458348670E+00  0.10492457919E+01 -0.40547129555E+00  0.11764615352E+01  0.51100000000E-03 0. -1.
        -11    1    3    3    0    0 -0.13512020652E+02 -0.20943050492E+01  0.22874705519E+01  0.13863381172E+02  0.51100000000E-03 0.  1.
        -12    1    3    3    0    0 -0.18333875181E+02 -0.21758735978E+02  0.16211737587E+02  0.32747427473E+02  0.00000000000E+00 0.  1.
</event>
<event>
 7    1  0.5411321E-010  0.4778727E+02  0.7816164E-02  0.1312668E+00
        -11   -1    0    0    0    0  0.00000000000E+00  0.00000000000E+00  0.45593999997E+02  0.45594000000E+02  0.51100000000E-03 0.  1.
         11   -1    0    0    0    0 -0.00000000000E+00 -0.00000000000E+00 -0.45593999997E+02  0.45594000000E+02  0.51100000000E-03 0. -1.
    9900012    2    1    2    0    0 -0.12326769995E+02  0.27914029690E+02  0.30862290277E+02  0.47787271053E+02  0.20000000038E+02 0.  0.
         12    1    1    2    0    0  0.12326769995E+02 -0.27914029690E+02 -0.30862290277E+02  0.43400728947E+02  0.00000000000E+00 0. -1.
         11    1    3    3    0    0 -0.60883473689E+01  0.22956672868E+02  0.16164703825E+02  0.28729330881E+02  0.51100000000E-03 0. -1.
        -11    1    3    3    0    0 -0.85355196923E+00 -0.22835337890E+01  0.62035333021E+01  0.66653509451E+01  0.51100000000E-03 0.  1.
        -12    1    3    3    0    0 -0.53848706567E+01  0.72408906103E+01  0.84940531502E+01  0.12392589227E+02  0.00000000000E+00 0.  1.
</event>
<event>
 7    1  0.5411321E-010  0.4778727E+02  0.7816164E-02  0.1312668E+00
        -11   -1    0    0    0    0  0.00000000000E+00  0.00000000000E+00  0.45593999997E+02  0.45594000000E+02  0.51100000000E-03 0.  1.
         11   -1    0    0    0    0 -0.00000000000E+00 -0.00000000000E+00 -0.45593999997E+02  0.45594000000E+02  0.51100000000E-03 0. -1.
    9900012    2    1    2    0    0 -0.29940002639E+02  0.26569995159E+02  0.16770651281E+02  0.47787272527E+02  0.20000006761E+02 0.  0.
         12    1    1    2    0    0  0.29940002639E+02 -0.26569995159E+02 -0.16770651281E+02  0.43400727473E+02  0.00000000000E+00 0. -1.
         11    1    3    3    0    0 -0.98532243531E+01  0.12444774295E+02  0.47388266258E+00  0.15880270856E+02  0.51100000000E-03 0. -1.
        -11    1    3    3    0    0 -0.16730719799E+02  0.10867302547E+02  0.63851650116E+01  0.20947209411E+02  0.51100000000E-03 0.  1.
         12    1    3    3    0    0 -0.33560584872E+01  0.32579183171E+01  0.99116036071E+01  0.10959792261E+02  0.00000000000E+00 0. -1.
</event>
<event>
 7    1  0.5411321E-010  0.4778726E+02  0.7816164E-02  0.1312668E+00
        -11   -1    0    0    0    0  0.00000000000E+00  0.00000000000E+00  0.45593999997E+02  0.45594000000E+02  0.51100000000E-03 0. -1.
         11   -1    0    0    0    0 -0.00000000000E+00 -0.00000000000E+00 -0.45593999997E+02  0.45594000000E+02  0.51100000000E-03 0.  1.
    9900012    2    1    2    0    0 -0.15563267719E+02  0.27115571034E+02 -0.30102399736E+02  0.47787263088E+02  0.19999963724E+02 0.  0.
         12    1    1    2    0    0  0.15563267719E+02 -0.27115571034E+02  0.30102399736E+02  0.43400736912E+02  0.00000000000E+00 0. -1.
         11    1    3    3    0    0 -0.14931000514E+00  0.68832005081E+01 -0.44173448860E+01  0.81800781668E+01  0.51100000000E-03 0. -1.
        -11    1    3    3    0    0 -0.12471031850E+02  0.20362741903E+02 -0.14268073079E+02  0.27816286647E+02  0.51100000000E-03 0.  1.
        -12    1    3    3    0    0 -0.29429258645E+01 -0.13037137677E+00 -0.11416981771E+02  0.11790898274E+02  0.00000000000E+00 0.  1.
</event>
<event>
 7    1  0.5411321E-010  0.4778730E+02  0.7816164E-02  0.1312668E+00
        -11   -1    0    0    0    0  0.00000000000E+00  0.00000000000E+00  0.45593999997E+02  0.45594000000E+02  0.51100000000E-03 0.  1.
         11   -1    0    0    0    0 -0.00000000000E+00 -0.00000000000E+00 -0.45593999997E+02  0.45594000000E+02  0.51100000000E-03 0. -1.
    9900012    2    1    2    0    0 -0.54649082441E+01  0.36999448100E+02  0.22018092360E+02  0.47787299856E+02  0.20000131362E+02 0.  0.
         12    1    1    2    0    0  0.54649082441E+01 -0.36999448100E+02 -0.22018092360E+02  0.43400700144E+02  0.00000000000E+00 0. -1.
         11    1    3    3    0    0 -0.53568889002E+01  0.89439425089E+01  0.10327720145E+02  0.14674882281E+02  0.51100000000E-03 0. -1.
        -11    1    3    3    0    0  0.32133984442E+01  0.25477668041E+02  0.12899857402E+02  0.28737498493E+02  0.51100000000E-03 0.  1.
         12    1    3    3    0    0 -0.33214177881E+01  0.25778375505E+01 -0.12094851872E+01  0.43749190825E+01  0.00000000000E+00 0. -1.
</event>
<event>
 7    1  0.5411321E-010  0.4778727E+02  0.7816164E-02  0.1312668E+00
        -11   -1    0    0    0    0  0.00000000000E+00  0.00000000000E+00  0.45593999997E+02  0.45594000000E+02  0.51100000000E-03 0.  1.
         11   -1    0    0    0    0 -0.00000000000E+00 -0.00000000000E+00 -0.45593999997E+02  0.45594000000E+02  0.51100000000E-03 0. -1.
    9900012    2    1    2    0    0 -0.27936532396E+02 -0.26108586148E+02  0.20530833675E+02  0.47787271385E+02  0.20000001552E+02 0.  0.
         12    1    1    2    0    0  0.27936532396E+02  0.26108586148E+02 -0.20530833675E+02  0.43400728615E+02  0.00000000000E+00 0. -1.
         11    1    3    3    0    0 -0.20036076586E+01 -0.68682793718E+00 -0.33545760688E+01  0.39672858641E+01  0.51100000000E-03 0. -1.
        -11    1    3    3    0    0 -0.91809156298E+01 -0.10818306626E+02  0.12193225946E+02  0.18708279699E+02  0.51100000000E-03 0.  1.
         12    1    3    3    0    0 -0.16752009107E+02 -0.14603451585E+02  0.11692183798E+02  0.25111705822E+02  0.00000000000E+00 0. -1.
</event>
<event>
 7    1  0.5411321E-010  0.4778727E+02  0.7816164E-02  0.1312668E+00
        -11   -1    0    0    0    0  0.00000000000E+00  0.00000000000E+00  0.45593999997E+02  0.45594000000E+02  0.51100000000E-03 0. -1.
         11   -1    0    0    0    0 -0.00000000000E+00 -0.00000000000E+00 -0.45593999997E+02  0.45594000000E+02  0.51100000000E-03 0.  1.
    9900012    2    1    2    0    0  0.26017224549E+02  0.21712007338E+02  0.27116709911E+02  0.47787271985E+02  0.20000004287E+02 0.  0.
         12    1    1    2    0    0 -0.26017224549E+02 -0.21712007338E+02 -0.27116709911E+02  0.43400728015E+02  0.00000000000E+00 0. -1.
         11    1    3    3    0    0  0.99996577619E+01  0.14245267399E+02  0.21698527798E+02  0.27816306503E+02  0.51100000000E-03 0.  1.
        -11    1    3    3    0    0  0.97729858131E+01  0.51193182249E+01 -0.51276279430E+00  0.11044527909E+02  0.51100000000E-03 0. -1.
         12    1    3    3    0    0  0.62445809741E+01  0.23474217140E+01  0.59309449067E+01  0.89264375723E+01  0.00000000000E+00 0. -1.
</event>
<event>
 7    1  0.5411321E-010  0.4778727E+02  0.7816164E-02  0.1312668E+00
        -11   -1    0    0    0    0  0.00000000000E+00  0.00000000000E+00  0.45593999997E+02  0.45594000000E+02  0.51100000000E-03 0.  1.
         11   -1    0    0    0    0 -0.00000000000E+00 -0.00000000000E+00 -0.45593999997E+02  0.45594000000E+02  0.51100000000E-03 0. -1.
    9900012    2    1    2    0    0  0.20694265691E+01 -0.31215137218E+02  0.30082489009E+02  0.47787268868E+02  0.19999990076E+02 0.  0.
         12    1    1    2    0    0 -0.20694265691E+01  0.31215137218E+02 -0.30082489009E+02  0.43400731132E+02  0.00000000000E+00 0. -1.
         11    1    3    3    0    0 -0.43932618945E+01 -0.23322954408E+02  0.18430354050E+02  0.30048941796E+02  0.51100000000E-03 0. -1.
        -11    1    3    3    0    0  0.73721831074E+00 -0.65309443386E+01  0.93281639968E+01  0.11411019613E+02  0.51100000000E-03 0.  1.
         12    1    3    3    0    0  0.57254701529E+01 -0.13612384705E+01  0.23239709625E+01  0.63273074589E+01  0.00000000000E+00 0. -1.
</event>
<event>
 7    1  0.5411321E-010  0.4778727E+02  0.7816164E-02  0.1312668E+00
        -11   -1    0    0    0    0  0.00000000000E+00  0.00000000000E+00  0.45593999997E+02  0.45594000000E+02  0.51100000000E-03 0. -1.
         11   -1    0    0    0    0 -0.00000000000E+00 -0.00000000000E+00 -0.45593999997E+02  0.45594000000E+02  0.51100000000E-03 0.  1.
    9900012    2    1    2    0    0  0.28895936195E+02 -0.11089952901E+02 -0.30424676756E+02  0.47787272591E+02  0.20000007051E+02 0.  0.
         12    1    1    2    0    0 -0.28895936195E+02  0.11089952901E+02  0.30424676756E+02  0.43400727409E+02  0.00000000000E+00 0. -1.
         11    1    3    3    0    0  0.19076803374E+02 -0.12023780315E+02 -0.96228723133E+01  0.24517246825E+02  0.51100000000E-03 0. -1.
        -11    1    3    3    0    0  0.61033474037E+00 -0.25759182566E+00 -0.23271472796E+00  0.70215272532E+00  0.51100000000E-03 0.  1.
         12    1    3    3    0    0  0.92087980806E+01  0.11914192398E+01 -0.20569089715E+02  0.22567873041E+02  0.00000000000E+00 0. -1.
</event>
<event>
 7    1  0.5411321E-010  0.4778727E+02  0.7816164E-02  0.1312668E+00
        -11   -1    0    0    0    0  0.00000000000E+00  0.00000000000E+00  0.45593999997E+02  0.45594000000E+02  0.51100000000E-03 0. -1.
         11   -1    0    0    0    0 -0.00000000000E+00 -0.00000000000E+00 -0.45593999997E+02  0.45594000000E+02  0.51100000000E-03 0.  1.
    9900012    2    1    2    0    0 -0.58928055254E+01  0.39116835101E+02 -0.17854170721E+02  0.47787270082E+02  0.19999995611E+02 0.  0.
         12    1    1    2    0    0  0.58928055254E+01 -0.39116835101E+02  0.17854170721E+02  0.43400729918E+02  0.00000000000E+00 0. -1.
         11    1    3    3    0    0 -0.42203011486E+01  0.96434340579E+01  0.27835192549E+01  0.10888284618E+02  0.51100000000E-03 0. -1.
        -11    1    3    3    0    0 -0.74895151492E-01  0.27436368719E+02 -0.16492796954E+02  0.32012064747E+02  0.51100000000E-03 0.  1.
        -12    1    3    3    0    0 -0.15976092253E+01  0.20370323241E+01 -0.41448930221E+01  0.48869207167E+01  0.00000000000E+00 0.  1.
</event>
<event>
 7    1  0.5411321E-010  0.4778727E+02  0.7816164E-02  0.1312668E+00
        -11   -1    0    0    0    0  0.00000000000E+00  0.00000000000E+00  0.45593999997E+02  0.45594000000E+02  0.51100000000E-03 0.  1.
         11   -1    0    0    0    0 -0.00000000000E+00 -0.00000000000E+00 -0.45593999997E+02  0.45594000000E+02  0.51100000000E-03 0. -1.
    9900012    2    1    2    0    0 -0.41228216699E+02  0.13547889016E+02 -0.55858162508E+00  0.47787272329E+02  0.20000005856E+02 0.  0.
         12    1    1    2    0    0  0.41228216699E+02 -0.13547889016E+02  0.55858162508E+00  0.43400727671E+02  0.00000000000E+00 0. -1.
         11    1    3    3    0    0 -0.17799729170E+00 -0.52187183253E+00  0.87978621001E+00  0.10382953731E+01  0.51100000000E-03 0. -1.
        -11    1    3    3    0    0 -0.24240818936E+02 -0.46403331143E+00  0.17111499856E+01  0.24305568582E+02  0.51100000000E-03 0.  1.
        -12    1    3    3    0    0 -0.16809400471E+02  0.14533794160E+02 -0.31495178207E+01  0.22443408373E+02  0.00000000000E+00 0.  1.
</event>
<event>
 7    1  0.5411321E-010  0.4778727E+02  0.7816164E-02  0.1312668E+00
        -11   -1    0    0    0    0  0.00000000000E+00  0.00000000000E+00  0.45593999997E+02  0.45594000000E+02  0.51100000000E-03 0.  1.
         11   -1    0    0    0    0 -0.00000000000E+00 -0.00000000000E+00 -0.45593999997E+02  0.45594000000E+02  0.51100000000E-03 0. -1.
    9900012    2    1    2    0    0  0.25617232383E+02 -0.49766377710E+01  0.34678722640E+02  0.47787270486E+02  0.19999997452E+02 0.  0.
         12    1    1    2    0    0 -0.25617232383E+02  0.49766377710E+01 -0.34678722640E+02  0.43400729514E+02  0.00000000000E+00 0. -1.
         11    1    3    3    0    0  0.14480481675E+01  0.48515719777E+01  0.38101833816E+01  0.63365678259E+01  0.51100000000E-03 0. -1.
        -11    1    3    3    0    0  0.17706738956E+02 -0.70539664159E+01  0.27963751879E+02  0.33841667601E+02  0.51100000000E-03 0.  1.
         12    1    3    3    0    0  0.64624452590E+01 -0.27742433328E+01  0.29047873796E+01  0.76090350581E+01  0.00000000000E+00 0. -1.
</event>
<event>
 7    1  0.5411321E-010  0.4778727E+02  0.7816164E-02  0.1312668E+00
        -11   -1    0    0    0    0  0.00000000000E+00  0.00000000000E+00  0.45593999997E+02  0.45594000000E+02  0.51100000000E-03 0.  1.
         11   -1    0    0    0    0 -0.00000000000E+00 -0.00000000000E+00 -0.45593999997E+02  0.45594000000E+02  0.51100000000E-03 0. -1.
    9900012    2    1    2    0    0  0.31331315406E+02 -0.62265771405E+01  0.29380295200E+02  0.47787270351E+02  0.19999996840E+02 0.  0.
         12    1    1    2    0    0 -0.31331315406E+02  0.62265771405E+01 -0.29380295200E+02  0.43400729649E+02  0.00000000000E+00 0. -1.
         11    1    3    3    0    0  0.54406203359E+01 -0.70479769914E+00  0.15631643111E+02  0.16566392367E+02  0.51100000000E-03 0. -1.
        -11    1    3    3    0    0  0.19550126417E+02 -0.37644283766E+00  0.75162714360E+01  0.20948591568E+02  0.51100000000E-03 0.  1.
        -12    1    3    3    0    0  0.63405686533E+01 -0.51453366037E+01  0.62323806534E+01  0.10272286416E+02  0.00000000000E+00 0.  1.
</event>
<event>
 7    1  0.5411321E-010  0.4778726E+02  0.7816164E-02  0.1312668E+00
        -11   -1    0    0    0    0  0.00000000000E+00  0.00000000000E+00  0.45593999997E+02  0.45594000000E+02  0.51100000000E-03 0.  1.
         11   -1    0    0    0    0 -0.00000000000E+00 -0.00000000000E+00 -0.45593999997E+02  0.45594000000E+02  0.51100000000E-03 0. -1.
    9900012    2    1    2    0    0 -0.10733629114E+02 -0.20590698394E+02  0.36666564268E+02  0.47787255887E+02  0.19999930892E+02 0.  0.
         12    1    1    2    0    0  0.10733629114E+02  0.20590698394E+02 -0.36666564268E+02  0.43400744113E+02  0.00000000000E+00 0. -1.
         11    1    3    3    0    0 -0.51892220338E+01 -0.21033179076E+01 -0.39929008803E+00  0.56135019704E+01  0.51100000000E-03 0. -1.
        -11    1    3    3    0    0 -0.42456328529E+00 -0.47279522546E+01  0.14457717786E+02  0.15217075617E+02  0.51100000000E-03 0.  1.
         12    1    3    3    0    0 -0.51198437946E+01 -0.13759428232E+02  0.22608136571E+02  0.26956678300E+02  0.00000000000E+00 0. -1.
</event>
<event>
 7    1  0.5411321E-010  0.4778729E+02  0.7816164E-02  0.1312668E+00
        -11   -1    0    0    0    0  0.00000000000E+00  0.00000000000E+00  0.45593999997E+02  0.45594000000E+02  0.51100000000E-03 0.  1.
         11   -1    0    0    0    0 -0.00000000000E+00 -0.00000000000E+00 -0.45593999997E+02  0.45594000000E+02  0.51100000000E-03 0. -1.
    9900012    2    1    2    0    0 -0.27844184568E+02  0.32614896202E+02  0.66777074365E+01  0.47787287504E+02  0.20000075047E+02 0.  0.
         12    1    1    2    0    0  0.27844184568E+02 -0.32614896202E+02 -0.66777074365E+01  0.43400712496E+02  0.00000000000E+00 0. -1.
         11    1    3    3    0    0 -0.38368559300E+01  0.62917832382E+01  0.70712686321E+01  0.10213267845E+02  0.51100000000E-03 0. -1.
        -11    1    3    3    0    0 -0.18826254996E+02  0.26034717814E+02  0.11846389917E+01  0.32150237614E+02  0.51100000000E-03 0.  1.
        -12    1    3    3    0    0 -0.51810736421E+01  0.28839514992E+00 -0.15782001874E+01  0.54237820457E+01  0.00000000000E+00 0.  1.
</event>
<event>
 7    1  0.5411321E-010  0.4778728E+02  0.7816164E-02  0.1312668E+00
        -11   -1    0    0    0    0  0.00000000000E+00  0.00000000000E+00  0.45593999997E+02  0.45594000000E+02  0.51100000000E-03 0.  1.
         11   -1    0    0    0    0 -0.00000000000E+00 -0.00000000000E+00 -0.45593999997E+02  0.45594000000E+02  0.51100000000E-03 0. -1.
    9900012    2    1    2    0    0  0.78091845139E+01 -0.14989696283E+02  0.39974341651E+02  0.47787281712E+02  0.20000048640E+02 0.  0.
         12    1    1    2    0    0 -0.78091845139E+01  0.14989696283E+02 -0.39974341651E+02  0.43400718288E+02  0.00000000000E+00 0. -1.
         11    1    3    3    0    0 -0.27239982779E+01 -0.16492903094E+01  0.10488579428E+02  0.10961324000E+02  0.51100000000E-03 0. -1.
        -11    1    3    3    0    0  0.13498754541E+02 -0.12119154117E+02  0.20978543424E+02  0.27734266804E+02  0.51100000000E-03 0.  1.
        -12    1    3    3    0    0 -0.29655717494E+01 -0.12212518569E+01  0.85072187987E+01  0.90916909091E+01  0.00000000000E+00 0.  1.
</event>
<event>
 7    1  0.5411321E-010  0.4778727E+02  0.7816164E-02  0.1312668E+00
        -11   -1    0    0    0    0  0.00000000000E+00  0.00000000000E+00  0.45593999997E+02  0.45594000000E+02  0.51100000000E-03 0.  1.
         11   -1    0    0    0    0 -0.00000000000E+00 -0.00000000000E+00 -0.45593999997E+02  0.45594000000E+02  0.51100000000E-03 0. -1.
    9900012    2    1    2    0    0  0.20857853244E+02 -0.84692531444E+00  0.38050700721E+02  0.47787272474E+02  0.20000006517E+02 0.  0.
         12    1    1    2    0    0 -0.20857853244E+02  0.84692531444E+00 -0.38050700721E+02  0.43400727526E+02  0.00000000000E+00 0. -1.
         11    1    3    3    0    0  0.76428735456E-01  0.10801736446E+01 -0.13525450557E+01  0.17326265734E+01  0.51100000000E-03 0. -1.
        -11    1    3    3    0    0  0.17540392826E+02 -0.57841611566E+01  0.27472054540E+02  0.33103408914E+02  0.51100000000E-03 0.  1.
        -12    1    3    3    0    0  0.32410316821E+01  0.38570621975E+01  0.11931191237E+02  0.12951236987E+02  0.00000000000E+00 0.  1.
</event>
<event>
 7    1  0.5411321E-010  0.4778727E+02  0.7816164E-02  0.1312668E+00
        -11   -1    0    0    0    0  0.00000000000E+00  0.00000000000E+00  0.45593999997E+02  0.45594000000E+02  0.51100000000E-03 0.  1.
         11   -1    0    0    0    0 -0.00000000000E+00 -0.00000000000E+00 -0.45593999997E+02  0.45594000000E+02  0.51100000000E-03 0. -1.
    9900012    2    1    2    0    0  0.40921468207E+02  0.98155539585E+01  0.10616578304E+02  0.47787269654E+02  0.19999993658E+02 0.  0.
         12    1    1    2    0    0 -0.40921468207E+02 -0.98155539585E+01 -0.10616578304E+02  0.43400730346E+02  0.00000000000E+00 0. -1.
         11    1    3    3    0    0  0.31028139356E+02  0.85159543321E+01  0.97105501848E+01  0.33608952605E+02  0.51100000000E-03 0.  1.
        -11    1    3    3    0    0 -0.29965278693E+00  0.35470133536E+01  0.11404644117E+01  0.37378810654E+01  0.51100000000E-03 0. -1.
         12    1    3    3    0    0  0.10192981638E+02 -0.22474137272E+01 -0.23443629289E+00  0.10440435983E+02  0.00000000000E+00 0. -1.
</event>
<event>
 7    1  0.5411321E-010  0.4778727E+02  0.7816164E-02  0.1312668E+00
        -11   -1    0    0    0    0  0.00000000000E+00  0.00000000000E+00  0.45593999997E+02  0.45594000000E+02  0.51100000000E-03 0.  1.
         11   -1    0    0    0    0 -0.00000000000E+00 -0.00000000000E+00 -0.45593999997E+02  0.45594000000E+02  0.51100000000E-03 0. -1.
    9900012    2    1    2    0    0  0.25602289482E+02 -0.75228416812E+01  0.34227954596E+02  0.47787271325E+02  0.20000001281E+02 0.  0.
         12    1    1    2    0    0 -0.25602289482E+02  0.75228416812E+01 -0.34227954596E+02  0.43400728675E+02  0.00000000000E+00 0. -1.
         11    1    3    3    0    0  0.19425729038E+02 -0.73881463076E+01  0.27357452058E+02  0.34356569065E+02  0.51100000000E-03 0. -1.
        -11    1    3    3    0    0 -0.23662089213E+01  0.26469368196E-01  0.35446386059E+01  0.42619371646E+01  0.51100000000E-03 0.  1.
         12    1    3    3    0    0  0.85427693649E+01 -0.16116474180E+00  0.33258639319E+01  0.91687650962E+01  0.00000000000E+00 0. -1.
</event>
<event>
 7    1  0.5411321E-010  0.4778728E+02  0.7816164E-02  0.1312668E+00
        -11   -1    0    0    0    0  0.00000000000E+00  0.00000000000E+00  0.45593999997E+02  0.45594000000E+02  0.51100000000E-03 0.  1.
         11   -1    0    0    0    0 -0.00000000000E+00 -0.00000000000E+00 -0.45593999997E+02  0.45594000000E+02  0.51100000000E-03 0. -1.
    9900012    2    1    2    0    0  0.53609320440E+01  0.38517374229E+02  0.19269021222E+02  0.47787275481E+02  0.20000020229E+02 0.  0.
         12    1    1    2    0    0 -0.53609320440E+01 -0.38517374229E+02 -0.19269021222E+02  0.43400724519E+02  0.00000000000E+00 0. -1.
         11    1    3    3    0    0  0.41017814177E+01  0.24730389209E+01 -0.81166795351E+00  0.48579149263E+01  0.51100000000E-03 0. -1.
        -11    1    3    3    0    0 -0.51361119599E+01  0.16741328209E+02  0.10824877860E+02  0.20587124550E+02  0.51100000000E-03 0.  1.
        -12    1    3    3    0    0  0.63952625862E+01  0.19303007099E+02  0.92558113148E+01  0.22342236005E+02  0.00000000000E+00 0.  1.
</event>
<event>
 7    1  0.5411321E-010  0.4778727E+02  0.7816164E-02  0.1312668E+00
        -11   -1    0    0    0    0  0.00000000000E+00  0.00000000000E+00  0.45593999997E+02  0.45594000000E+02  0.51100000000E-03 0.  1.
         11   -1    0    0    0    0 -0.00000000000E+00 -0.00000000000E+00 -0.45593999997E+02  0.45594000000E+02  0.51100000000E-03 0. -1.
    9900012    2    1    2    0    0 -0.67714264553E+01  0.78917535401E+01  0.42136582320E+02  0.47787267751E+02  0.19999984982E+02 0.  0.
         12    1    1    2    0    0  0.67714264553E+01 -0.78917535401E+01 -0.42136582320E+02  0.43400732249E+02  0.00000000000E+00 0. -1.
         11    1    3    3    0    0  0.20445855411E+01  0.31283306105E+01  0.28920049963E+01  0.47255132635E+01  0.51100000000E-03 0. -1.
        -11    1    3    3    0    0 -0.24562987188E+01 -0.36458684727E+01  0.30186718758E+01  0.53327423031E+01  0.51100000000E-03 0.  1.
        -12    1    3    3    0    0 -0.63597132776E+01  0.84092914023E+01  0.36225905448E+02  0.37729012184E+02  0.00000000000E+00 0.  1.
</event>
<event>
 7    1  0.5411321E-010  0.4778727E+02  0.7816164E-02  0.1312668E+00
        -11   -1    0    0    0    0  0.00000000000E+00  0.00000000000E+00  0.45593999997E+02  0.45594000000E+02  0.51100000000E-03 0.  1.
         11   -1    0    0    0    0 -0.00000000000E+00 -0.00000000000E+00 -0.45593999997E+02  0.45594000000E+02  0.51100000000E-03 0. -1.
    9900012    2    1    2    0    0 -0.26698930961E+02  0.17152307833E+02  0.29607241862E+02  0.47787270177E+02  0.19999996047E+02 0.  0.
         12    1    1    2    0    0  0.26698930961E+02 -0.17152307833E+02 -0.29607241862E+02  0.43400729823E+02  0.00000000000E+00 0. -1.
         11    1    3    3    0    0 -0.47506925734E+01  0.59277594029E+01  0.15680043301E+02  0.17423293881E+02  0.51100000000E-03 0. -1.
        -11    1    3    3    0    0 -0.56061608844E+01  0.63899093533E+01  0.23682456183E+00  0.85038854378E+01  0.51100000000E-03 0.  1.
         12    1    3    3    0    0 -0.16342077503E+02  0.48346390768E+01  0.13690373999E+02  0.21860090859E+02  0.00000000000E+00 0. -1.
</event>
<event>
 7    1  0.5411321E-010  0.4778728E+02  0.7816164E-02  0.1312668E+00
        -11   -1    0    0    0    0  0.00000000000E+00  0.00000000000E+00  0.45593999997E+02  0.45594000000E+02  0.51100000000E-03 0. -1.
         11   -1    0    0    0    0 -0.00000000000E+00 -0.00000000000E+00 -0.45593999997E+02  0.45594000000E+02  0.51100000000E-03 0.  1.
    9900012    2    1    2    0    0 -0.68722539756E+01 -0.20236936728E+02 -0.37773808662E+02  0.47787284525E+02  0.20000061464E+02 0.  0.
         12    1    1    2    0    0  0.68722539756E+01  0.20236936728E+02  0.37773808662E+02  0.43400715475E+02  0.00000000000E+00 0. -1.
         11    1    3    3    0    0 -0.34370039903E+01 -0.11013392685E+02 -0.43658019730E+01  0.12335641126E+02  0.51100000000E-03 0. -1.
        -11    1    3    3    0    0 -0.54003571661E+01 -0.61026346008E+01 -0.21891742049E+02  0.23359246066E+02  0.51100000000E-03 0.  1.
         12    1    3    3    0    0  0.19651071809E+01 -0.31209094427E+01 -0.11516264641E+02  0.12092397333E+02  0.00000000000E+00 0. -1.
</event>
<event>
 7    1  0.5411321E-010  0.4778726E+02  0.7816164E-02  0.1312668E+00
        -11   -1    0    0    0    0  0.00000000000E+00  0.00000000000E+00  0.45593999997E+02  0.45594000000E+02  0.51100000000E-03 0.  1.
         11   -1    0    0    0    0 -0.00000000000E+00 -0.00000000000E+00 -0.45593999997E+02  0.45594000000E+02  0.51100000000E-03 0. -1.
    9900012    2    1    2    0    0  0.17097326249E+01 -0.24313146345E+02  0.35910612529E+02  0.47787258497E+02  0.19999942790E+02 0.  0.
         12    1    1    2    0    0 -0.17097326249E+01  0.24313146345E+02 -0.35910612529E+02  0.43400741503E+02  0.00000000000E+00 0. -1.
         11    1    3    3    0    0 -0.33580482363E+01 -0.68997537143E+01  0.11647899500E+01  0.77614319017E+01  0.51100000000E-03 0. -1.
        -11    1    3    3    0    0  0.59238229556E+01 -0.64176459830E+01  0.17434169177E+02  0.19499438800E+02  0.51100000000E-03 0.  1.
         12    1    3    3    0    0 -0.85604209447E+00 -0.10995746648E+02  0.17311653401E+02  0.20526387795E+02  0.00000000000E+00 0. -1.
</event>
<event>
 7    1  0.5411321E-010  0.4778726E+02  0.7816164E-02  0.1312668E+00
        -11   -1    0    0    0    0  0.00000000000E+00  0.00000000000E+00  0.45593999997E+02  0.45594000000E+02  0.51100000000E-03 0.  1.
         11   -1    0    0    0    0 -0.00000000000E+00 -0.00000000000E+00 -0.45593999997E+02  0.45594000000E+02  0.51100000000E-03 0. -1.
    9900012    2    1    2    0    0 -0.43047525748E+02 -0.58855830669E+00  0.54943788532E+01  0.47787261840E+02  0.19999958032E+02 0.  0.
         12    1    1    2    0    0  0.43047525748E+02  0.58855830669E+00 -0.54943788532E+01  0.43400738160E+02  0.00000000000E+00 0. -1.
         11    1    3    3    0    0 -0.39198598783E+00 -0.29405016013E+01  0.69909983463E+00  0.30477768162E+01  0.51100000000E-03 0. -1.
        -11    1    3    3    0    0 -0.31751981365E+02 -0.34062562615E+01  0.14682861176E+01  0.31967902132E+02  0.51100000000E-03 0.  1.
         12    1    3    3    0    0 -0.10903558395E+02  0.57581995560E+01  0.33269929010E+01  0.12771582892E+02  0.00000000000E+00 0. -1.
</event>
<event>
 7    1  0.5411321E-010  0.4778728E+02  0.7816164E-02  0.1312668E+00
        -11   -1    0    0    0    0  0.00000000000E+00  0.00000000000E+00  0.45593999997E+02  0.45594000000E+02  0.51100000000E-03 0. -1.
         11   -1    0    0    0    0 -0.00000000000E+00 -0.00000000000E+00 -0.45593999997E+02  0.45594000000E+02  0.51100000000E-03 0.  1.
    9900012    2    1    2    0    0 -0.42780800610E+02  0.24865235925E+01 -0.68733667534E+01  0.47787275686E+02  0.20000021163E+02 0.  0.
         12    1    1    2    0    0  0.42780800610E+02 -0.24865235925E+01  0.68733667534E+01  0.43400724314E+02  0.00000000000E+00 0. -1.
         11    1    3    3    0    0 -0.12055444491E+02  0.54361583839E+01 -0.84671243721E+01  0.15702794504E+02  0.51100000000E-03 0. -1.
        -11    1    3    3    0    0 -0.28521099888E+02 -0.29443805835E+00  0.20852438169E+01  0.28598742536E+02  0.51100000000E-03 0.  1.
         12    1    3    3    0    0 -0.22042562312E+01 -0.26551967331E+01 -0.49148619815E+00  0.34857386459E+01  0.00000000000E+00 0. -1.
</event>
<event>
 7    1  0.5411321E-010  0.4778727E+02  0.7816164E-02  0.1312668E+00
        -11   -1    0    0    0    0  0.00000000000E+00  0.00000000000E+00  0.45593999997E+02  0.45594000000E+02  0.51100000000E-03 0. -1.
         11   -1    0    0    0    0 -0.00000000000E+00 -0.00000000000E+00 -0.45593999997E+02  0.45594000000E+02  0.51100000000E-03 0.  1.
    9900012    2    1    2    0    0  0.50648487575E+01 -0.40344338612E+02  0.15175797583E+02  0.47787272088E+02  0.20000004760E+02 0.  0.
         12    1    1    2    0    0 -0.50648487575E+01  0.40344338612E+02 -0.15175797583E+02  0.43400727912E+02  0.00000000000E+00 0. -1.
         11    1    3    3    0    0 -0.12207707253E+01 -0.76384686458E+01  0.85752860059E+01  0.11548680217E+02  0.51100000000E-03 0. -1.
        -11    1    3    3    0    0  0.64137569976E+01 -0.20501239937E+02 -0.15899495831E+01  0.21539848136E+02  0.51100000000E-03 0.  1.
        -12    1    3    3    0    0 -0.12813751477E+00 -0.12204630029E+02  0.81904611604E+01  0.14698743735E+02  0.00000000000E+00 0.  1.
</event>
<event>
 7    1  0.5411321E-010  0.4778727E+02  0.7816164E-02  0.1312668E+00
        -11   -1    0    0    0    0  0.00000000000E+00  0.00000000000E+00  0.45593999997E+02  0.45594000000E+02  0.51100000000E-03 0.  1.
         11   -1    0    0    0    0 -0.00000000000E+00 -0.00000000000E+00 -0.45593999997E+02  0.45594000000E+02  0.51100000000E-03 0. -1.
    9900012    2    1    2    0    0 -0.11483796998E+02  0.10935342788E+02  0.40400049455E+02  0.47787270613E+02  0.19999998034E+02 0.  0.
         12    1    1    2    0    0  0.11483796998E+02 -0.10935342788E+02 -0.40400049455E+02  0.43400729387E+02  0.00000000000E+00 0. -1.
         11    1    3    3    0    0 -0.65292934334E+01 -0.13246402320E+01  0.17575203973E+02  0.18795588297E+02  0.51100000000E-03 0. -1.
        -11    1    3    3    0    0 -0.38368556558E+01  0.12745041137E+02  0.23906802403E+02  0.27362250206E+02  0.51100000000E-03 0.  1.
         12    1    3    3    0    0 -0.11176479085E+01 -0.48505811696E+00 -0.10819569213E+01  0.16294321108E+01  0.00000000000E+00 0. -1.
</event>
<event>
 7    1  0.5411321E-010  0.4778726E+02  0.7816164E-02  0.1312668E+00
        -11   -1    0    0    0    0  0.00000000000E+00  0.00000000000E+00  0.45593999997E+02  0.45594000000E+02  0.51100000000E-03 0. -1.
         11   -1    0    0    0    0 -0.00000000000E+00 -0.00000000000E+00 -0.45593999997E+02  0.45594000000E+02  0.51100000000E-03 0.  1.
    9900012    2    1    2    0    0 -0.36987924029E+02 -0.20051828111E+02 -0.10650894353E+02  0.47787264003E+02  0.19999967896E+02 0.  0.
         12    1    1    2    0    0  0.36987924029E+02  0.20051828111E+02  0.10650894353E+02  0.43400735997E+02  0.00000000000E+00 0. -1.
         11    1    3    3    0    0 -0.24118503865E+02 -0.14225384034E+02 -0.34412214357E+01  0.28211802226E+02  0.51100000000E-03 0.  1.
        -11    1    3    3    0    0 -0.17876263469E+01  0.32526643139E+01 -0.25789803828E+01  0.45195766583E+01  0.51100000000E-03 0. -1.
         12    1    3    3    0    0 -0.11081793816E+02 -0.90791083904E+01 -0.46306925345E+01  0.15055885118E+02  0.00000000000E+00 0. -1.
</event>
<event>
 7    1  0.5411321E-010  0.4778727E+02  0.7816164E-02  0.1312668E+00
        -11   -1    0    0    0    0  0.00000000000E+00  0.00000000000E+00  0.45593999997E+02  0.45594000000E+02  0.51100000000E-03 0. -1.
         11   -1    0    0    0    0 -0.00000000000E+00 -0.00000000000E+00 -0.45593999997E+02  0.45594000000E+02  0.51100000000E-03 0.  1.
    9900012    2    1    2    0    0 -0.16689358438E+02  0.23588186612E+02 -0.32383420282E+02  0.47787272565E+02  0.20000006934E+02 0.  0.
         12    1    1    2    0    0  0.16689358438E+02 -0.23588186612E+02  0.32383420282E+02  0.43400727435E+02  0.00000000000E+00 0. -1.
         11    1    3    3    0    0 -0.96609521277E+01  0.97878167806E+01 -0.47598562424E+01  0.14553061020E+02  0.51100000000E-03 0. -1.
        -11    1    3    3    0    0 -0.65372464899E+01  0.14238800832E+02 -0.19184111345E+02  0.24769117246E+02  0.51100000000E-03 0.  1.
         12    1    3    3    0    0 -0.49115982084E+00 -0.43843100037E+00 -0.84394526940E+01  0.84650942987E+01  0.00000000000E+00 0. -1.
</event>
<event>
 7    1  0.5411321E-010  0.4778727E+02  0.7816164E-02  0.1312668E+00
        -11   -1    0    0    0    0  0.00000000000E+00  0.00000000000E+00  0.45593999997E+02  0.45594000000E+02  0.51100000000E-03 0.  1.
         11   -1    0    0    0    0 -0.00000000000E+00 -0.00000000000E+00 -0.45593999997E+02  0.45594000000E+02  0.51100000000E-03 0. -1.
    9900012    2    1    2    0    0  0.51982165797E+01  0.36503967503E+01  0.42933395098E+02  0.47787271127E+02  0.20000000378E+02 0.  0.
         12    1    1    2    0    0 -0.51982165797E+01 -0.36503967503E+01 -0.42933395098E+02  0.43400728873E+02  0.00000000000E+00 0. -1.
         11    1    3    3    0    0 -0.37494598018E+01 -0.28149298090E+01  0.25688764724E+01  0.53461579874E+01  0.51100000000E-03 0. -1.
        -11    1    3    3    0    0  0.52459552418E+01  0.44298873145E+01  0.34711315615E+02  0.35383885880E+02  0.51100000000E-03 0.  1.
        -12    1    3    3    0    0  0.37017211397E+01  0.20354392448E+01  0.56532030109E+01  0.70572272599E+01  0.00000000000E+00 0.  1.
</event>
<event>
 7    1  0.5411321E-010  0.4778728E+02  0.7816164E-02  0.1312668E+00
        -11   -1    0    0    0    0  0.00000000000E+00  0.00000000000E+00  0.45593999997E+02  0.45594000000E+02  0.51100000000E-03 0.  1.
         11   -1    0    0    0    0 -0.00000000000E+00 -0.00000000000E+00 -0.45593999997E+02  0.45594000000E+02  0.51100000000E-03 0. -1.
    9900012    2    1    2    0    0 -0.38430065373E+02 -0.96174844612E+01  0.17727283994E+02  0.47787279617E+02  0.20000039085E+02 0.  0.
         12    1    1    2    0    0  0.38430065373E+02  0.96174844612E+01 -0.17727283994E+02  0.43400720383E+02  0.00000000000E+00 0. -1.
         11    1    3    3    0    0 -0.82696733808E+01 -0.77519579271E+01  0.84405240349E+01  0.14132331576E+02  0.51100000000E-03 0. -1.
        -11    1    3    3    0    0 -0.29590223209E+02  0.71862061762E-01  0.10380468782E+02  0.31358262167E+02  0.51100000000E-03 0.  1.
         12    1    3    3    0    0 -0.57016878320E+00 -0.19373885959E+01 -0.10937088232E+01  0.22966858738E+01  0.00000000000E+00 0. -1.
</event>
<event>
 7    1  0.5411321E-010  0.4778727E+02  0.7816164E-02  0.1312668E+00
        -11   -1    0    0    0    0  0.00000000000E+00  0.00000000000E+00  0.45593999997E+02  0.45594000000E+02  0.51100000000E-03 0. -1.
         11   -1    0    0    0    0 -0.00000000000E+00 -0.00000000000E+00 -0.45593999997E+02  0.45594000000E+02  0.51100000000E-03 0.  1.
    9900012    2    1    2    0    0 -0.20022945272E+01  0.95499259360E-01 -0.43354416974E+02  0.47787265275E+02  0.19999973696E+02 0.  0.
         12    1    1    2    0    0  0.20022945272E+01 -0.95499259360E-01  0.43354416974E+02  0.43400734725E+02  0.00000000000E+00 0. -1.
         11    1    3    3    0    0 -0.34471765900E+01  0.40577371476E+01 -0.15627523391E+02  0.16509625822E+02  0.51100000000E-03 0. -1.
        -11    1    3    3    0    0  0.32594190146E+01 -0.87932707260E-01 -0.38654230939E-01  0.32608340780E+01  0.51100000000E-03 0.  1.
        -12    1    3    3    0    0 -0.18145369518E+01 -0.38743051810E+01 -0.27688239353E+02  0.28016805375E+02  0.00000000000E+00 0.  1.
</event>
<event>
 7    1  0.5411321E-010  0.4778727E+02  0.7816164E-02  0.1312668E+00
        -11   -1    0    0    0    0  0.00000000000E+00  0.00000000000E+00  0.45593999997E+02  0.45594000000E+02  0.51100000000E-03 0.  1.
         11   -1    0    0    0    0 -0.00000000000E+00 -0.00000000000E+00 -0.45593999997E+02  0.45594000000E+02  0.51100000000E-03 0. -1.
    9900012    2    1    2    0    0  0.27603431891E+01 -0.92486864059E+01  0.42313895148E+02  0.47787269392E+02  0.19999992464E+02 0.  0.
         12    1    1    2    0    0 -0.27603431891E+01  0.92486864059E+01 -0.42313895148E+02  0.43400730608E+02  0.00000000000E+00 0. -1.
         11    1    3    3    0    0  0.48902811110E+01 -0.43571485917E+01  0.20828188109E+01  0.68729708027E+01  0.51100000000E-03 0. -1.
        -11    1    3    3    0    0  0.74489501472E+00 -0.42980968741E+01  0.27879371196E+02  0.28218572676E+02  0.51100000000E-03 0.  1.
         12    1    3    3    0    0 -0.28748329366E+01 -0.59344094010E+00  0.12351705141E+02  0.12695725913E+02  0.00000000000E+00 0. -1.
</event>
<event>
 7    1  0.5411321E-010  0.4778727E+02  0.7816164E-02  0.1312668E+00
        -11   -1    0    0    0    0  0.00000000000E+00  0.00000000000E+00  0.45593999997E+02  0.45594000000E+02  0.51100000000E-03 0.  1.
         11   -1    0    0    0    0 -0.00000000000E+00 -0.00000000000E+00 -0.45593999997E+02  0.45594000000E+02  0.51100000000E-03 0. -1.
    9900012    2    1    2    0    0  0.28741685671E+02 -0.31276328410E+01  0.32369067886E+02  0.47787272608E+02  0.20000007127E+02 0.  0.
         12    1    1    2    0    0 -0.28741685671E+02  0.31276328410E+01 -0.32369067886E+02  0.43400727392E+02  0.00000000000E+00 0. -1.
         11    1    3    3    0    0  0.65255284411E+01  0.27118436912E+01  0.19549636405E+02  0.20787614136E+02  0.51100000000E-03 0.  1.
        -11    1    3    3    0    0  0.15873658285E+02 -0.62749256089E+01  0.72392374318E+01  0.18540611576E+02  0.51100000000E-03 0. -1.
        -12    1    3    3    0    0  0.63424989448E+01  0.43544907667E+00  0.55801940493E+01  0.84590468961E+01  0.00000000000E+00 0.  1.
</event>
<event>
 7    1  0.5411321E-010  0.4778728E+02  0.7816164E-02  0.1312668E+00
        -11   -1    0    0    0    0  0.00000000000E+00  0.00000000000E+00  0.45593999997E+02  0.45594000000E+02  0.51100000000E-03 0. -1.
         11   -1    0    0    0    0 -0.00000000000E+00 -0.00000000000E+00 -0.45593999997E+02  0.45594000000E+02  0.51100000000E-03 0.  1.
    9900012    2    1    2    0    0 -0.58494526446E+01 -0.11923638483E+02 -0.41318676249E+02  0.47787282750E+02  0.20000053368E+02 0.  0.
         12    1    1    2    0    0  0.58494526446E+01  0.11923638483E+02  0.41318676249E+02  0.43400717250E+02  0.00000000000E+00 0. -1.
         11    1    3    3    0    0  0.38341151154E+01  0.35112487681E+01 -0.70259250058E+01  0.87403048619E+01  0.51100000000E-03 0. -1.
        -11    1    3    3    0    0 -0.93230281179E+01 -0.12150202110E+02 -0.29274158954E+02  0.33038199820E+02  0.51100000000E-03 0.  1.
         12    1    3    3    0    0 -0.36053964217E+00 -0.32846851407E+01 -0.50185922891E+01  0.60087780681E+01  0.00000000000E+00 0. -1.
</event>
<event>
 7    1  0.5411321E-010  0.4778729E+02  0.7816164E-02  0.1312668E+00
        -11   -1    0    0    0    0  0.00000000000E+00  0.00000000000E+00  0.45593999997E+02  0.45594000000E+02  0.51100000000E-03 0. -1.
         11   -1    0    0    0    0 -0.00000000000E+00 -0.00000000000E+00 -0.45593999997E+02  0.45594000000E+02  0.51100000000E-03 0.  1.
    9900012    2    1    2    0    0  0.39537208209E+02 -0.16822908724E+02  0.61172659688E+01  0.47787285330E+02  0.20000065133E+02 0.  0.
         12    1    1    2    0    0 -0.39537208209E+02  0.16822908724E+02 -0.61172659688E+01  0.43400714670E+02  0.00000000000E+00 0. -1.
         11    1    3    3    0    0  0.16047525315E+02 -0.14615481406E+02 -0.25878715393E+01  0.21859378875E+02  0.51100000000E-03 0. -1.
        -11    1    3    3    0    0  0.21177703928E+02 -0.38162375280E+01  0.69688576310E+01  0.22619102313E+02  0.51100000000E-03 0.  1.
        -12    1    3    3    0    0  0.23119789667E+01  0.16088102095E+01  0.17362798770E+01  0.33088041411E+01  0.00000000000E+00 0.  1.
</event>
<event>
 7    1  0.5411321E-010  0.4778725E+02  0.7816164E-02  0.1312668E+00
        -11   -1    0    0    0    0  0.00000000000E+00  0.00000000000E+00  0.45593999997E+02  0.45594000000E+02  0.51100000000E-03 0. -1.
         11   -1    0    0    0    0 -0.00000000000E+00 -0.00000000000E+00 -0.45593999997E+02  0.45594000000E+02  0.51100000000E-03 0.  1.
    9900012    2    1    2    0    0 -0.12430089452E+02 -0.37185158924E+02 -0.18611348412E+02  0.47787245885E+02  0.19999885288E+02 0.  0.
         12    1    1    2    0    0  0.12430089452E+02  0.37185158924E+02  0.18611348412E+02  0.43400754115E+02  0.00000000000E+00 0. -1.
         11    1    3    3    0    0 -0.47049465537E+01 -0.63841206232E+01  0.56380259898E+00  0.79505592154E+01  0.51100000000E-03 0. -1.
        -11    1    3    3    0    0 -0.23596271199E+00 -0.26043418786E+02 -0.14436780507E+02  0.29778112300E+02  0.51100000000E-03 0.  1.
        -12    1    3    3    0    0 -0.74891801866E+01 -0.47576195148E+01 -0.47383705045E+01  0.10058574370E+02  0.00000000000E+00 0.  1.
</event>
<event>
 7    1  0.5411321E-010  0.4778727E+02  0.7816164E-02  0.1312668E+00
        -11   -1    0    0    0    0  0.00000000000E+00  0.00000000000E+00  0.45593999997E+02  0.45594000000E+02  0.51100000000E-03 0. -1.
         11   -1    0    0    0    0 -0.00000000000E+00 -0.00000000000E+00 -0.45593999997E+02  0.45594000000E+02  0.51100000000E-03 0.  1.
    9900012    2    1    2    0    0  0.10129633408E+02 -0.29499344744E+02 -0.30179504572E+02  0.47787270634E+02  0.19999998128E+02 0.  0.
         12    1    1    2    0    0 -0.10129633408E+02  0.29499344744E+02  0.30179504572E+02  0.43400729366E+02  0.00000000000E+00 0. -1.
         11    1    3    3    0    0  0.10943667279E+02 -0.12453593047E+02 -0.12990553401E+02  0.21062058570E+02  0.51100000000E-03 0.  1.
        -11    1    3    3    0    0 -0.18350725399E+01 -0.87697598093E+01 -0.16788675450E+01  0.91156335399E+01  0.51100000000E-03 0. -1.
         12    1    3    3    0    0  0.10210386687E+01 -0.82759918879E+01 -0.15510083626E+02  0.17609578524E+02  0.00000000000E+00 0. -1.
</event>
<event>
 7    1  0.5411321E-010  0.4778726E+02  0.7816164E-02  0.1312668E+00
        -11   -1    0    0    0    0  0.00000000000E+00  0.00000000000E+00  0.45593999997E+02  0.45594000000E+02  0.51100000000E-03 0.  1.
         11   -1    0    0    0    0 -0.00000000000E+00 -0.00000000000E+00 -0.45593999997E+02  0.45594000000E+02  0.51100000000E-03 0. -1.
    9900012    2    1    2    0    0  0.11028100813E+02 -0.30420782038E+02 -0.28923710661E+02  0.47787262382E+02  0.19999960505E+02 0.  0.
         12    1    1    2    0    0 -0.11028100813E+02  0.30420782038E+02  0.28923710661E+02  0.43400737618E+02  0.00000000000E+00 0. -1.
         11    1    3    3    0    0  0.15199583423E+01 -0.42722035646E+01 -0.13365789830E+02  0.14114047425E+02  0.51100000000E-03 0. -1.
        -11    1    3    3    0    0  0.11764905290E+02 -0.19176393648E+02 -0.12452831111E+02  0.25714199827E+02  0.51100000000E-03 0.  1.
        -12    1    3    3    0    0 -0.22567628196E+01 -0.69721848260E+01 -0.31050897200E+01  0.79590151300E+01  0.00000000000E+00 0.  1.
</event>
<event>
 7    1  0.5411321E-010  0.4778727E+02  0.7816164E-02  0.1312668E+00
        -11   -1    0    0    0    0  0.00000000000E+00  0.00000000000E+00  0.45593999997E+02  0.45594000000E+02  0.51100000000E-03 0.  1.
         11   -1    0    0    0    0 -0.00000000000E+00 -0.00000000000E+00 -0.45593999997E+02  0.45594000000E+02  0.51100000000E-03 0. -1.
    9900012    2    1    2    0    0 -0.24386952887E+02  0.33327644458E+02  0.13347962396E+02  0.47787268942E+02  0.19999990413E+02 0.  0.
         12    1    1    2    0    0  0.24386952887E+02 -0.33327644458E+02 -0.13347962396E+02  0.43400731058E+02  0.00000000000E+00 0. -1.
         11    1    3    3    0    0 -0.41601441212E+01  0.91273220082E+01 -0.50195655562E+01  0.11216543353E+02  0.51100000000E-03 0. -1.
        -11    1    3    3    0    0 -0.13103142706E+02  0.14784191665E+02  0.10386233384E+02  0.22319016916E+02  0.51100000000E-03 0.  1.
         12    1    3    3    0    0 -0.71236660605E+01  0.94161307854E+01  0.79812945679E+01  0.14251708673E+02  0.00000000000E+00 0. -1.
</event>
<event>
 7    1  0.5411321E-010  0.4778728E+02  0.7816164E-02  0.1312668E+00
        -11   -1    0    0    0    0  0.00000000000E+00  0.00000000000E+00  0.45593999997E+02  0.45594000000E+02  0.51100000000E-03 0.  1.
         11   -1    0    0    0    0 -0.00000000000E+00 -0.00000000000E+00 -0.45593999997E+02  0.45594000000E+02  0.51100000000E-03 0. -1.
    9900012    2    1    2    0    0  0.31933585918E+01 -0.40296071670E+02  0.15800375741E+02  0.47787276450E+02  0.20000024645E+02 0.  0.
         12    1    1    2    0    0 -0.31933585918E+01  0.40296071670E+02 -0.15800375741E+02  0.43400723550E+02  0.00000000000E+00 0. -1.
         11    1    3    3    0    0 -0.28901255480E+01 -0.49471699588E+01  0.41531887525E+01  0.70764605107E+01  0.51100000000E-03 0. -1.
        -11    1    3    3    0    0  0.35182179241E+01 -0.42421438089E+00  0.29930421255E+01  0.46385468229E+01  0.51100000000E-03 0.  1.
        -12    1    3    3    0    0  0.25652662157E+01 -0.34924687330E+02  0.86541448625E+01  0.36072269116E+02  0.00000000000E+00 0.  1.
</event>
<event>
 7    1  0.5411321E-010  0.4778727E+02  0.7816164E-02  0.1312668E+00
        -11   -1    0    0    0    0  0.00000000000E+00  0.00000000000E+00  0.45593999997E+02  0.45594000000E+02  0.51100000000E-03 0.  1.
         11   -1    0    0    0    0 -0.00000000000E+00 -0.00000000000E+00 -0.45593999997E+02  0.45594000000E+02  0.51100000000E-03 0. -1.
    9900012    2    1    2    0    0 -0.67010860448E+01 -0.22943375137E+02  0.36225961668E+02  0.47787270564E+02  0.19999997808E+02 0.  0.
         12    1    1    2    0    0  0.67010860448E+01  0.22943375137E+02 -0.36225961668E+02  0.43400729436E+02  0.00000000000E+00 0. -1.
         11    1    3    3    0    0 -0.65257796777E+01  0.81370322176E+00  0.60813591751E+01  0.89571671310E+01  0.51100000000E-03 0. -1.
        -11    1    3    3    0    0 -0.14375205327E+01 -0.22523798294E+02  0.28908907631E+02  0.36675780776E+02  0.51100000000E-03 0.  1.
        -12    1    3    3    0    0  0.12622141656E+01 -0.12332800644E+01  0.12356948619E+01  0.21543226566E+01  0.00000000000E+00 0.  1.
</event>
<event>
 7    1  0.5411321E-010  0.4778727E+02  0.7816164E-02  0.1312668E+00
        -11   -1    0    0    0    0  0.00000000000E+00  0.00000000000E+00  0.45593999997E+02  0.45594000000E+02  0.51100000000E-03 0.  1.
         11   -1    0    0    0    0 -0.00000000000E+00 -0.00000000000E+00 -0.45593999997E+02  0.45594000000E+02  0.51100000000E-03 0. -1.
    9900012    2    1    2    0    0  0.18030415033E+02 -0.23310427260E+02  0.31861442054E+02  0.47787269878E+02  0.19999994683E+02 0.  0.
         12    1    1    2    0    0 -0.18030415033E+02  0.23310427260E+02 -0.31861442054E+02  0.43400730122E+02  0.00000000000E+00 0. -1.
         11    1    3    3    0    0  0.12256655788E+02 -0.12167143216E+02  0.78127464432E+01  0.18955315677E+02  0.51100000000E-03 0. -1.
        -11    1    3    3    0    0  0.73455862437E+01 -0.54160058483E+01  0.18832968471E+02  0.20927767637E+02  0.51100000000E-03 0.  1.
         12    1    3    3    0    0 -0.15718269979E+01 -0.57272781952E+01  0.52157271406E+01  0.79041865642E+01  0.00000000000E+00 0. -1.
</event>
<event>
 7    1  0.5411321E-010  0.4778727E+02  0.7816164E-02  0.1312668E+00
        -11   -1    0    0    0    0  0.00000000000E+00  0.00000000000E+00  0.45593999997E+02  0.45594000000E+02  0.51100000000E-03 0.  1.
         11   -1    0    0    0    0 -0.00000000000E+00 -0.00000000000E+00 -0.45593999997E+02  0.45594000000E+02  0.51100000000E-03 0. -1.
    9900012    2    1    2    0    0 -0.13572596855E+02 -0.16924409843E+02  0.37589523303E+02  0.47787270789E+02  0.19999998834E+02 0.  0.
         12    1    1    2    0    0  0.13572596855E+02  0.16924409843E+02 -0.37589523303E+02  0.43400729211E+02  0.00000000000E+00 0. -1.
         11    1    3    3    0    0 -0.96834607560E+01 -0.15827592899E+02  0.34810035892E+02  0.39446428334E+02  0.51100000000E-03 0. -1.
        -11    1    3    3    0    0 -0.39629989936E+01 -0.84103203341E+00  0.48123722534E+01  0.62905979740E+01  0.51100000000E-03 0.  1.
         12    1    3    3    0    0  0.73862894143E-01 -0.25578491025E+00 -0.20328848429E+01  0.20502444811E+01  0.00000000000E+00 0. -1.
</event>
<event>
 7    1  0.5411321E-010  0.4778727E+02  0.7816164E-02  0.1312668E+00
        -11   -1    0    0    0    0  0.00000000000E+00  0.00000000000E+00  0.45593999997E+02  0.45594000000E+02  0.51100000000E-03 0. -1.
         11   -1    0    0    0    0 -0.00000000000E+00 -0.00000000000E+00 -0.45593999997E+02  0.45594000000E+02  0.51100000000E-03 0.  1.
    9900012    2    1    2    0    0 -0.73060199420E+01 -0.39555496934E+02 -0.16297486446E+02  0.47787270403E+02  0.19999997075E+02 0.  0.
         12    1    1    2    0    0  0.73060199420E+01  0.39555496934E+02  0.16297486446E+02  0.43400729597E+02  0.00000000000E+00 0. -1.
         11    1    3    3    0    0 -0.10859127463E+02 -0.20746455374E+02 -0.44364442485E+01  0.23833130253E+02  0.51100000000E-03 0. -1.
        -11    1    3    3    0    0 -0.23175419297E+01 -0.71914517176E+01 -0.26451530466E+01  0.80052990765E+01  0.51100000000E-03 0.  1.
         12    1    3    3    0    0  0.58706494509E+01 -0.11617589843E+02 -0.92158891509E+01  0.15948841073E+02  0.00000000000E+00 0. -1.
</event>
<event>
 7    1  0.5411321E-010  0.4778725E+02  0.7816164E-02  0.1312668E+00
        -11   -1    0    0    0    0  0.00000000000E+00  0.00000000000E+00  0.45593999997E+02  0.45594000000E+02  0.51100000000E-03 0. -1.
         11   -1    0    0    0    0 -0.00000000000E+00 -0.00000000000E+00 -0.45593999997E+02  0.45594000000E+02  0.51100000000E-03 0.  1.
    9900012    2    1    2    0    0 -0.33392269036E+01  0.14201170714E+02 -0.40875437173E+02  0.47787250582E+02  0.19999906704E+02 0.  0.
         12    1    1    2    0    0  0.33392269036E+01 -0.14201170714E+02  0.40875437173E+02  0.43400749418E+02  0.00000000000E+00 0. -1.
         11    1    3    3    0    0  0.10462095243E+01  0.65692054329E+01 -0.31304733875E+02  0.32003677564E+02  0.51100000000E-03 0. -1.
        -11    1    3    3    0    0  0.21746559694E+00  0.12322172336E+01 -0.75399809929E+01  0.76430991248E+01  0.51100000000E-03 0.  1.
         12    1    3    3    0    0 -0.46029020248E+01  0.63997480479E+01 -0.20307223051E+01  0.81404738932E+01  0.00000000000E+00 0. -1.
</event>
<event>
 7    1  0.5411321E-010  0.4778727E+02  0.7816164E-02  0.1312668E+00
        -11   -1    0    0    0    0  0.00000000000E+00  0.00000000000E+00  0.45593999997E+02  0.45594000000E+02  0.51100000000E-03 0.  1.
         11   -1    0    0    0    0 -0.00000000000E+00 -0.00000000000E+00 -0.45593999997E+02  0.45594000000E+02  0.51100000000E-03 0. -1.
    9900012    2    1    2    0    0 -0.41562635338E+01 -0.22011647777E+02  0.37173061720E+02  0.47787266342E+02  0.19999978559E+02 0.  0.
         12    1    1    2    0    0  0.41562635338E+01  0.22011647777E+02 -0.37173061720E+02  0.43400733658E+02  0.00000000000E+00 0. -1.
         11    1    3    3    0    0 -0.63445341792E+01 -0.21513333709E+02  0.18974579648E+02  0.29378756174E+02  0.51100000000E-03 0. -1.
        -11    1    3    3    0    0  0.63844478316E+00 -0.66072593078E+00  0.11248880778E+02  0.11286340838E+02  0.51100000000E-03 0.  1.
         12    1    3    3    0    0  0.15498258622E+01  0.16241186323E+00  0.69496012942E+01  0.71221693299E+01  0.00000000000E+00 0. -1.
</event>
<event>
 7    1  0.5411321E-010  0.4778727E+02  0.7816164E-02  0.1312668E+00
        -11   -1    0    0    0    0  0.00000000000E+00  0.00000000000E+00  0.45593999997E+02  0.45594000000E+02  0.51100000000E-03 0. -1.
         11   -1    0    0    0    0 -0.00000000000E+00 -0.00000000000E+00 -0.45593999997E+02  0.45594000000E+02  0.51100000000E-03 0.  1.
    9900012    2    1    2    0    0 -0.39105348334E+02  0.18302440995E+02  0.44063094141E+01  0.47787272156E+02  0.20000005068E+02 0.  0.
         12    1    1    2    0    0  0.39105348334E+02 -0.18302440995E+02 -0.44063094141E+01  0.43400727844E+02  0.00000000000E+00 0. -1.
         11    1    3    3    0    0 -0.25576778341E+02  0.14010910639E+01  0.12416745248E+01  0.25645202327E+02  0.51100000000E-03 0. -1.
        -11    1    3    3    0    0 -0.97117707774E+01  0.12570999871E+02  0.80439328860E+00  0.15905834722E+02  0.51100000000E-03 0.  1.
         12    1    3    3    0    0 -0.38167992155E+01  0.43303500606E+01  0.23602416006E+01  0.62362351072E+01  0.00000000000E+00 0. -1.
</event>
<event>
 7    1  0.5411321E-010  0.4778727E+02  0.7816164E-02  0.1312668E+00
        -11   -1    0    0    0    0  0.00000000000E+00  0.00000000000E+00  0.45593999997E+02  0.45594000000E+02  0.51100000000E-03 0. -1.
         11   -1    0    0    0    0 -0.00000000000E+00 -0.00000000000E+00 -0.45593999997E+02  0.45594000000E+02  0.51100000000E-03 0.  1.
    9900012    2    1    2    0    0  0.39869611314E+02  0.68235156046E+01 -0.15731405221E+02  0.47787269801E+02  0.19999994333E+02 0.  0.
         12    1    1    2    0    0 -0.39869611314E+02 -0.68235156046E+01  0.15731405221E+02  0.43400730199E+02  0.00000000000E+00 0. -1.
         11    1    3    3    0    0  0.84845683338E+01 -0.41562000715E+01 -0.80602519029E+00  0.94821714662E+01  0.51100000000E-03 0. -1.
        -11    1    3    3    0    0  0.24641838703E+02  0.10533494689E+02 -0.16358228957E+02  0.31396916726E+02  0.51100000000E-03 0.  1.
        -12    1    3    3    0    0  0.67432042779E+01  0.44622098698E+00  0.14328489269E+01  0.69081816095E+01  0.00000000000E+00 0.  1.
</event>
<event>
 7    1  0.5411321E-010  0.4778727E+02  0.7816164E-02  0.1312668E+00
        -11   -1    0    0    0    0  0.00000000000E+00  0.00000000000E+00  0.45593999997E+02  0.45594000000E+02  0.51100000000E-03 0.  1.
         11   -1    0    0    0    0 -0.00000000000E+00 -0.00000000000E+00 -0.45593999997E+02  0.45594000000E+02  0.51100000000E-03 0. -1.
    9900012    2    1    2    0    0  0.30300181427E+02 -0.13081275950E+02  0.28185149757E+02  0.47787269110E+02  0.19999991178E+02 0.  0.
         12    1    1    2    0    0 -0.30300181427E+02  0.13081275950E+02 -0.28185149757E+02  0.43400730890E+02  0.00000000000E+00 0. -1.
         11    1    3    3    0    0  0.25748543380E+00  0.47311725307E+00 -0.46749125573E+00  0.71322297992E+00  0.51100000000E-03 0. -1.
        -11    1    3    3    0    0  0.16647805340E+02  0.16015936066E+01  0.95853002789E+01  0.19276734849E+02  0.51100000000E-03 0.  1.
        -12    1    3    3    0    0  0.13394890653E+02 -0.15155986810E+02  0.19067340734E+02  0.27797311281E+02  0.00000000000E+00 0.  1.
</event>
<event>
 7    1  0.5411321E-010  0.4778727E+02  0.7816164E-02  0.1312668E+00
        -11   -1    0    0    0    0  0.00000000000E+00  0.00000000000E+00  0.45593999997E+02  0.45594000000E+02  0.51100000000E-03 0.  1.
         11   -1    0    0    0    0 -0.00000000000E+00 -0.00000000000E+00 -0.45593999997E+02  0.45594000000E+02  0.51100000000E-03 0. -1.
    9900012    2    1    2    0    0  0.69534519589E+01 -0.40608295045E+01  0.42647186602E+02  0.47787270104E+02  0.19999995713E+02 0.  0.
         12    1    1    2    0    0 -0.69534519589E+01  0.40608295045E+01 -0.42647186602E+02  0.43400729896E+02  0.00000000000E+00 0. -1.
         11    1    3    3    0    0  0.70547134025E+01  0.40222600819E+01  0.86118279549E+01  0.11836855087E+02  0.51100000000E-03 0. -1.
        -11    1    3    3    0    0 -0.20155421635E+01 -0.62163486287E+01  0.11262373703E+02  0.13021000813E+02  0.51100000000E-03 0.  1.
        -12    1    3    3    0    0  0.19142807199E+01 -0.18667409578E+01  0.22772984945E+02  0.22929414205E+02  0.00000000000E+00 0.  1.
</event>
<event>
 7    1  0.5411321E-010  0.4778727E+02  0.7816164E-02  0.1312668E+00
        -11   -1    0    0    0    0  0.00000000000E+00  0.00000000000E+00  0.45593999997E+02  0.45594000000E+02  0.51100000000E-03 0. -1.
         11   -1    0    0    0    0 -0.00000000000E+00 -0.00000000000E+00 -0.45593999997E+02  0.45594000000E+02  0.51100000000E-03 0.  1.
    9900012    2    1    2    0    0 -0.27533003877E+02  0.75635197612E+01 -0.32685623233E+02  0.47787273050E+02  0.20000009143E+02 0.  0.
         12    1    1    2    0    0  0.27533003877E+02 -0.75635197612E+01  0.32685623233E+02  0.43400726950E+02  0.00000000000E+00 0. -1.
         11    1    3    3    0    0 -0.59699462525E+00 -0.96652442863E+00 -0.91190424538E+01  0.91895325012E+01  0.51100000000E-03 0. -1.
        -11    1    3    3    0    0 -0.23189188098E+02  0.23169211899E+01 -0.17595158141E+02  0.29200961606E+02  0.51100000000E-03 0.  1.
         12    1    3    3    0    0 -0.37468211538E+01  0.62131230000E+01 -0.59714226380E+01  0.93967789424E+01  0.00000000000E+00 0. -1.
</event>
<event>
 7    1  0.5411321E-010  0.4778727E+02  0.7816164E-02  0.1312668E+00
        -11   -1    0    0    0    0  0.00000000000E+00  0.00000000000E+00  0.45593999997E+02  0.45594000000E+02  0.51100000000E-03 0.  1.
         11   -1    0    0    0    0 -0.00000000000E+00 -0.00000000000E+00 -0.45593999997E+02  0.45594000000E+02  0.51100000000E-03 0. -1.
    9900012    2    1    2    0    0  0.11105322469E+02  0.11182962778E+01  0.41940964400E+02  0.47787271106E+02  0.20000000281E+02 0.  0.
         12    1    1    2    0    0 -0.11105322469E+02 -0.11182962778E+01 -0.41940964400E+02  0.43400728894E+02  0.00000000000E+00 0. -1.
         11    1    3    3    0    0  0.32262353626E+00  0.24842692999E+01  0.75911326097E-01  0.25062806489E+01  0.51100000000E-03 0. -1.
        -11    1    3    3    0    0  0.82361336807E+01 -0.44499486922E+01  0.39585757971E+02  0.40677612710E+02  0.51100000000E-03 0.  1.
        -12    1    3    3    0    0  0.25465652517E+01  0.30839756701E+01  0.22792951028E+01  0.46033777470E+01  0.00000000000E+00 0.  1.
</event>
<event>
 7    1  0.5411321E-010  0.4778727E+02  0.7816164E-02  0.1312668E+00
        -11   -1    0    0    0    0  0.00000000000E+00  0.00000000000E+00  0.45593999997E+02  0.45594000000E+02  0.51100000000E-03 0. -1.
         11   -1    0    0    0    0 -0.00000000000E+00 -0.00000000000E+00 -0.45593999997E+02  0.45594000000E+02  0.51100000000E-03 0.  1.
    9900012    2    1    2    0    0 -0.43074391939E+02 -0.37341753992E+01 -0.37784002767E+01  0.47787267109E+02  0.19999982058E+02 0.  0.
         12    1    1    2    0    0  0.43074391939E+02  0.37341753992E+01  0.37784002767E+01  0.43400732891E+02  0.00000000000E+00 0. -1.
         11    1    3    3    0    0 -0.12162055834E+02  0.39920445380E+01  0.34304912351E+01  0.13252180654E+02  0.51100000000E-03 0. -1.
        -11    1    3    3    0    0 -0.18525305006E+02 -0.83090137401E+01 -0.86137956429E+01  0.22055024610E+02  0.51100000000E-03 0.  1.
        -12    1    3    3    0    0 -0.12387031099E+02  0.58279380293E+00  0.14049041311E+01  0.12480061846E+02  0.00000000000E+00 0.  1.
</event>
<event>
 7    1  0.5411321E-010  0.4778727E+02  0.7816164E-02  0.1312668E+00
        -11   -1    0    0    0    0  0.00000000000E+00  0.00000000000E+00  0.45593999997E+02  0.45594000000E+02  0.51100000000E-03 0.  1.
         11   -1    0    0    0    0 -0.00000000000E+00 -0.00000000000E+00 -0.45593999997E+02  0.45594000000E+02  0.51100000000E-03 0. -1.
    9900012    2    1    2    0    0  0.16139972176E+02 -0.15677524690E+01  0.40257504757E+02  0.47787271447E+02  0.20000001837E+02 0.  0.
         12    1    1    2    0    0 -0.16139972176E+02  0.15677524690E+01 -0.40257504757E+02  0.43400728553E+02  0.00000000000E+00 0. -1.
         11    1    3    3    0    0  0.44520192738E+00 -0.48780595621E+01  0.58284801175E+01  0.76134650842E+01  0.51100000000E-03 0. -1.
        -11    1    3    3    0    0  0.13948542410E+02  0.18024461028E+01  0.14827104760E+02  0.20436577089E+02  0.51100000000E-03 0.  1.
        -12    1    3    3    0    0  0.17462278393E+01  0.15078609902E+01  0.19601919880E+02  0.19737229274E+02  0.00000000000E+00 0.  1.
</event>
<event>
 7    1  0.5411321E-010  0.4778728E+02  0.7816164E-02  0.1312668E+00
        -11   -1    0    0    0    0  0.00000000000E+00  0.00000000000E+00  0.45593999997E+02  0.45594000000E+02  0.51100000000E-03 0.  1.
         11   -1    0    0    0    0 -0.00000000000E+00 -0.00000000000E+00 -0.45593999997E+02  0.45594000000E+02  0.51100000000E-03 0. -1.
    9900012    2    1    2    0    0  0.18294216670E+02 -0.19934612614E+02  0.33934577050E+02  0.47787278079E+02  0.20000032074E+02 0.  0.
         12    1    1    2    0    0 -0.18294216670E+02  0.19934612614E+02 -0.33934577050E+02  0.43400721921E+02  0.00000000000E+00 0. -1.
         11    1    3    3    0    0  0.10186895836E+02 -0.18009891661E+02  0.19721570207E+02  0.28584425411E+02  0.51100000000E-03 0. -1.
        -11    1    3    3    0    0  0.52321189559E+01 -0.31415492527E+01  0.17414125561E+01  0.63464098850E+01  0.51100000000E-03 0.  1.
         12    1    3    3    0    0  0.28752018781E+01  0.12168282993E+01  0.12471594288E+02  0.12856442783E+02  0.00000000000E+00 0. -1.
</event>
<event>
 7    1  0.5411321E-010  0.4778727E+02  0.7816164E-02  0.1312668E+00
        -11   -1    0    0    0    0  0.00000000000E+00  0.00000000000E+00  0.45593999997E+02  0.45594000000E+02  0.51100000000E-03 0.  1.
         11   -1    0    0    0    0 -0.00000000000E+00 -0.00000000000E+00 -0.45593999997E+02  0.45594000000E+02  0.51100000000E-03 0. -1.
    9900012    2    1    2    0    0  0.22056371632E+02 -0.23870763542E+02  0.28763286315E+02  0.47787268194E+02  0.19999987004E+02 0.  0.
         12    1    1    2    0    0 -0.22056371632E+02  0.23870763542E+02 -0.28763286315E+02  0.43400731806E+02  0.00000000000E+00 0. -1.
         11    1    3    3    0    0 -0.68841885933E-01  0.21883925247E+01  0.65550606554E+01  0.69110506802E+01  0.51100000000E-03 0. -1.
        -11    1    3    3    0    0  0.21948854009E+02 -0.25532123171E+02  0.21398359088E+02  0.39894000525E+02  0.51100000000E-03 0.  1.
        -12    1    3    3    0    0  0.17635950821E+00 -0.52703289573E+00  0.80986657159E+00  0.98221698880E+00  0.00000000000E+00 0.  1.
</event>
<event>
 7    1  0.5411321E-010  0.4778727E+02  0.7816164E-02  0.1312668E+00
        -11   -1    0    0    0    0  0.00000000000E+00  0.00000000000E+00  0.45593999997E+02  0.45594000000E+02  0.51100000000E-03 0.  1.
         11   -1    0    0    0    0 -0.00000000000E+00 -0.00000000000E+00 -0.45593999997E+02  0.45594000000E+02  0.51100000000E-03 0. -1.
    9900012    2    1    2    0    0  0.53819272076E+01 -0.38492829234E+02  0.19312180611E+02  0.47787270019E+02  0.19999995325E+02 0.  0.
         12    1    1    2    0    0 -0.53819272076E+01  0.38492829234E+02 -0.19312180611E+02  0.43400729981E+02  0.00000000000E+00 0. -1.
         11    1    3    3    0    0 -0.42288295088E+01 -0.13558236417E+02  0.25309026803E+01  0.14426165201E+02  0.51100000000E-03 0. -1.
        -11    1    3    3    0    0 -0.68359765055E+00 -0.12599467955E+02  0.57120957747E+01  0.13850701676E+02  0.51100000000E-03 0.  1.
         12    1    3    3    0    0  0.10294354367E+02 -0.12335124861E+02  0.11069182156E+02  0.19510403143E+02  0.00000000000E+00 0. -1.
</event>
<event>
 7    1  0.5411321E-010  0.4778727E+02  0.7816164E-02  0.1312668E+00
        -11   -1    0    0    0    0  0.00000000000E+00  0.00000000000E+00  0.45593999997E+02  0.45594000000E+02  0.51100000000E-03 0. -1.
         11   -1    0    0    0    0 -0.00000000000E+00 -0.00000000000E+00 -0.45593999997E+02  0.45594000000E+02  0.51100000000E-03 0.  1.
    9900012    2    1    2    0    0  0.17966069561E+02 -0.30928148480E+02  0.24582382073E+02  0.47787268068E+02  0.19999986427E+02 0.  0.
         12    1    1    2    0    0 -0.17966069561E+02  0.30928148480E+02 -0.24582382073E+02  0.43400731932E+02  0.00000000000E+00 0. -1.
         11    1    3    3    0    0  0.97521530397E+01 -0.25076440369E+01  0.72132753554E+01  0.12386448609E+02  0.51100000000E-03 0. -1.
        -11    1    3    3    0    0 -0.12071712002E+01 -0.10194105845E+02  0.47268484644E+01  0.11301334122E+02  0.51100000000E-03 0.  1.
         12    1    3    3    0    0  0.94210877219E+01 -0.18226398598E+02  0.12642258254E+02  0.24099485336E+02  0.00000000000E+00 0. -1.
</event>
<event>
 7    1  0.5411321E-010  0.4778727E+02  0.7816164E-02  0.1312668E+00
        -11   -1    0    0    0    0  0.00000000000E+00  0.00000000000E+00  0.45593999997E+02  0.45594000000E+02  0.51100000000E-03 0.  1.
         11   -1    0    0    0    0 -0.00000000000E+00 -0.00000000000E+00 -0.45593999997E+02  0.45594000000E+02  0.51100000000E-03 0. -1.
    9900012    2    1    2    0    0 -0.26974736414E+01 -0.34526352225E+02 -0.26158702604E+02  0.47787273232E+02  0.20000009975E+02 0.  0.
         12    1    1    2    0    0  0.26974736414E+01  0.34526352225E+02  0.26158702604E+02  0.43400726768E+02  0.00000000000E+00 0. -1.
         11    1    3    3    0    0 -0.17096715513E+01 -0.14002510107E+02 -0.17349139422E+02  0.22360364600E+02  0.51100000000E-03 0. -1.
        -11    1    3    3    0    0 -0.12116709880E+01 -0.13597738716E+02 -0.11641048719E+02  0.17941032866E+02  0.51100000000E-03 0.  1.
         12    1    3    3    0    0  0.22386889789E+00 -0.69261034025E+01  0.28314855374E+01  0.74858757654E+01  0.00000000000E+00 0. -1.
</event>
<event>
 7    1  0.5411321E-010  0.4778728E+02  0.7816164E-02  0.1312668E+00
        -11   -1    0    0    0    0  0.00000000000E+00  0.00000000000E+00  0.45593999997E+02  0.45594000000E+02  0.51100000000E-03 0. -1.
         11   -1    0    0    0    0 -0.00000000000E+00 -0.00000000000E+00 -0.45593999997E+02  0.45594000000E+02  0.51100000000E-03 0.  1.
    9900012    2    1    2    0    0 -0.29634425458E+02 -0.31708335322E+02 -0.68893778300E-01  0.47787280565E+02  0.20000043410E+02 0.  0.
         12    1    1    2    0    0  0.29634425458E+02  0.31708335322E+02  0.68893778300E-01  0.43400719435E+02  0.00000000000E+00 0. -1.
         11    1    3    3    0    0 -0.10124992331E+01  0.19211084471E+01  0.64198581547E+00  0.22644995940E+01  0.51100000000E-03 0. -1.
        -11    1    3    3    0    0 -0.27393258380E+02 -0.30264046576E+02  0.22393116061E+01  0.40881751877E+02  0.51100000000E-03 0.  1.
         12    1    3    3    0    0 -0.12286678450E+01 -0.33653971931E+01 -0.29501911999E+01  0.46410290945E+01  0.00000000000E+00 0. -1.
</event>
<event>
 7    1  0.5411321E-010  0.4778727E+02  0.7816164E-02  0.1312668E+00
        -11   -1    0    0    0    0  0.00000000000E+00  0.00000000000E+00  0.45593999997E+02  0.45594000000E+02  0.51100000000E-03 0.  1.
         11   -1    0    0    0    0 -0.00000000000E+00 -0.00000000000E+00 -0.45593999997E+02  0.45594000000E+02  0.51100000000E-03 0. -1.
    9900012    2    1    2    0    0  0.41823234502E+02 -0.11475776552E+02 -0.16573420872E+01  0.47787272190E+02  0.20000005221E+02 0.  0.
         12    1    1    2    0    0 -0.41823234502E+02  0.11475776552E+02  0.16573420872E+01  0.43400727810E+02  0.00000000000E+00 0. -1.
         11    1    3    3    0    0  0.17104492756E+02  0.27045655169E+01 -0.55798772592E+01  0.18193773044E+02  0.51100000000E-03 0. -1.
        -11    1    3    3    0    0  0.15393519367E+02 -0.12129439945E+02  0.41930003908E+01  0.20041581884E+02  0.51100000000E-03 0.  1.
         12    1    3    3    0    0  0.93252223793E+01 -0.20509021240E+01 -0.27046521878E+00  0.95519172620E+01  0.00000000000E+00 0. -1.
</event>
<event>
 7    1  0.5411321E-010  0.4778727E+02  0.7816164E-02  0.1312668E+00
        -11   -1    0    0    0    0  0.00000000000E+00  0.00000000000E+00  0.45593999997E+02  0.45594000000E+02  0.51100000000E-03 0.  1.
         11   -1    0    0    0    0 -0.00000000000E+00 -0.00000000000E+00 -0.45593999997E+02  0.45594000000E+02  0.51100000000E-03 0. -1.
    9900012    2    1    2    0    0  0.35690765459E+01  0.42913044120E+02  0.54180832471E+01  0.47787270869E+02  0.19999999198E+02 0.  0.
         12    1    1    2    0    0 -0.35690765459E+01 -0.42913044120E+02 -0.54180832471E+01  0.43400729131E+02  0.00000000000E+00 0. -1.
         11    1    3    3    0    0  0.37405093169E+01  0.21340187867E+01  0.32749132521E+01  0.54102221028E+01  0.51100000000E-03 0.  1.
        -11    1    3    3    0    0 -0.25258820655E+01  0.37807397560E+02  0.40958973396E+01  0.38112409603E+02  0.51100000000E-03 0. -1.
         12    1    3    3    0    0  0.23544492945E+01  0.29716277738E+01 -0.19527273446E+01  0.42646391628E+01  0.00000000000E+00 0. -1.
</event>
<event>
 7    1  0.5411321E-010  0.4778728E+02  0.7816164E-02  0.1312668E+00
        -11   -1    0    0    0    0  0.00000000000E+00  0.00000000000E+00  0.45593999997E+02  0.45594000000E+02  0.51100000000E-03 0.  1.
         11   -1    0    0    0    0 -0.00000000000E+00 -0.00000000000E+00 -0.45593999997E+02  0.45594000000E+02  0.51100000000E-03 0. -1.
    9900012    2    1    2    0    0 -0.16343075779E+02  0.34755843121E+02  0.20212814941E+02  0.47787278292E+02  0.20000033045E+02 0.  0.
         12    1    1    2    0    0  0.16343075779E+02 -0.34755843121E+02 -0.20212814941E+02  0.43400721708E+02  0.00000000000E+00 0. -1.
         11    1    3    3    0    0 -0.89603930719E+01  0.21720283349E+01  0.11249189096E+01  0.92882610809E+01  0.51100000000E-03 0. -1.
        -11    1    3    3    0    0 -0.33646036651E+01  0.14788829090E+02  0.79374634718E+01  0.17118216914E+02  0.51100000000E-03 0.  1.
         12    1    3    3    0    0 -0.40180790415E+01  0.17794985695E+02  0.11150432560E+02  0.21380800297E+02  0.00000000000E+00 0. -1.
</event>
<event>
 7    1  0.5411321E-010  0.4778727E+02  0.7816164E-02  0.1312668E+00
        -11   -1    0    0    0    0  0.00000000000E+00  0.00000000000E+00  0.45593999997E+02  0.45594000000E+02  0.51100000000E-03 0.  1.
         11   -1    0    0    0    0 -0.00000000000E+00 -0.00000000000E+00 -0.45593999997E+02  0.45594000000E+02  0.51100000000E-03 0. -1.
    9900012    2    1    2    0    0  0.11001701372E+01  0.29709685495E+02  0.31618782215E+02  0.47787272180E+02  0.20000005176E+02 0.  0.
         12    1    1    2    0    0 -0.11001701372E+01 -0.29709685495E+02 -0.31618782215E+02  0.43400727820E+02  0.00000000000E+00 0. -1.
         11    1    3    3    0    0  0.20717410845E+01 -0.16500303080E+01 -0.62109973714E+00  0.27203816429E+01  0.51100000000E-03 0. -1.
        -11    1    3    3    0    0  0.10998110815E+00  0.14085790763E+02  0.16224258716E+02  0.21485999357E+02  0.51100000000E-03 0.  1.
         12    1    3    3    0    0 -0.10815520554E+01  0.17273925040E+02  0.16015623237E+02  0.23580891179E+02  0.00000000000E+00 0. -1.
</event>
<event>
 7    1  0.5411321E-010  0.4778727E+02  0.7816164E-02  0.1312668E+00
        -11   -1    0    0    0    0  0.00000000000E+00  0.00000000000E+00  0.45593999997E+02  0.45594000000E+02  0.51100000000E-03 0.  1.
         11   -1    0    0    0    0 -0.00000000000E+00 -0.00000000000E+00 -0.45593999997E+02  0.45594000000E+02  0.51100000000E-03 0. -1.
    9900012    2    1    2    0    0 -0.10174978455E+02 -0.30012831292E+02  0.29653383897E+02  0.47787269531E+02  0.19999993099E+02 0.  0.
         12    1    1    2    0    0  0.10174978455E+02  0.30012831292E+02 -0.29653383897E+02  0.43400730469E+02  0.00000000000E+00 0. -1.
         11    1    3    3    0    0 -0.98493446120E+01 -0.23509534724E+02  0.12234746364E+02  0.28273606616E+02  0.51100000000E-03 0. -1.
        -11    1    3    3    0    0 -0.42399475246E+00 -0.30328903066E+01  0.18833457396E+01  0.35951615538E+01  0.51100000000E-03 0.  1.
         12    1    3    3    0    0  0.98360909781E-01 -0.34704062616E+01  0.15535291793E+02  0.15918501361E+02  0.00000000000E+00 0. -1.
</event>
<event>
 7    1  0.5411321E-010  0.4778727E+02  0.7816164E-02  0.1312668E+00
        -11   -1    0    0    0    0  0.00000000000E+00  0.00000000000E+00  0.45593999997E+02  0.45594000000E+02  0.51100000000E-03 0. -1.
         11   -1    0    0    0    0 -0.00000000000E+00 -0.00000000000E+00 -0.45593999997E+02  0.45594000000E+02  0.51100000000E-03 0.  1.
    9900012    2    1    2    0    0  0.42907952435E+02 -0.27509058984E+01  0.59129910852E+01  0.47787270409E+02  0.19999997103E+02 0.  0.
         12    1    1    2    0    0 -0.42907952435E+02  0.27509058984E+01 -0.59129910852E+01  0.43400729591E+02  0.00000000000E+00 0. -1.
         11    1    3    3    0    0  0.41159991359E+01  0.58420953389E+00  0.62935226971E+01  0.75426240703E+01  0.51100000000E-03 0. -1.
        -11    1    3    3    0    0  0.29822134984E+01  0.40513603604E+00 -0.28640180353E+01  0.41545555870E+01  0.51100000000E-03 0.  1.
         12    1    3    3    0    0  0.35809739801E+02 -0.37402514683E+01  0.24834864233E+01  0.36090090752E+02  0.00000000000E+00 0. -1.
</event>
<event>
 7    1  0.5411321E-010  0.4778727E+02  0.7816164E-02  0.1312668E+00
        -11   -1    0    0    0    0  0.00000000000E+00  0.00000000000E+00  0.45593999997E+02  0.45594000000E+02  0.51100000000E-03 0.  1.
         11   -1    0    0    0    0 -0.00000000000E+00 -0.00000000000E+00 -0.45593999997E+02  0.45594000000E+02  0.51100000000E-03 0. -1.
    9900012    2    1    2    0    0 -0.74460234337E+01 -0.31042788196E+02  0.29402811660E+02  0.47787270773E+02  0.19999998760E+02 0.  0.
         12    1    1    2    0    0  0.74460234337E+01  0.31042788196E+02 -0.29402811660E+02  0.43400729227E+02  0.00000000000E+00 0. -1.
         11    1    3    3    0    0 -0.60356423160E+01 -0.10103152271E+02  0.89286739285E+01  0.14772402728E+02  0.51100000000E-03 0. -1.
        -11    1    3    3    0    0  0.35925404050E-01 -0.18781280596E+02  0.82426107051E+01  0.20510446679E+02  0.51100000000E-03 0.  1.
        -12    1    3    3    0    0 -0.14463065217E+01 -0.21583553282E+01  0.12231527027E+02  0.12504421365E+02  0.00000000000E+00 0.  1.
</event>
<event>
 7    1  0.5411321E-010  0.4778727E+02  0.7816164E-02  0.1312668E+00
        -11   -1    0    0    0    0  0.00000000000E+00  0.00000000000E+00  0.45593999997E+02  0.45594000000E+02  0.51100000000E-03 0.  1.
         11   -1    0    0    0    0 -0.00000000000E+00 -0.00000000000E+00 -0.45593999997E+02  0.45594000000E+02  0.51100000000E-03 0. -1.
    9900012    2    1    2    0    0  0.38335596870E+02  0.29338143226E+01  0.20134497984E+02  0.47787271170E+02  0.20000000573E+02 0.  0.
         12    1    1    2    0    0 -0.38335596870E+02 -0.29338143226E+01 -0.20134497984E+02  0.43400728830E+02  0.00000000000E+00 0. -1.
         11    1    3    3    0    0  0.10736633854E+02 -0.68186741423E+01  0.60175482534E+01  0.14070554745E+02  0.51100000000E-03 0. -1.
        -11    1    3    3    0    0  0.24234872922E+02  0.69835227556E+01  0.14894634091E+02  0.29290762718E+02  0.51100000000E-03 0.  1.
         12    1    3    3    0    0  0.33640900942E+01  0.27689657093E+01 -0.77768435972E+00  0.44259537079E+01  0.00000000000E+00 0. -1.
</event>
<event>
 7    1  0.5411321E-010  0.4778727E+02  0.7816164E-02  0.1312668E+00
        -11   -1    0    0    0    0  0.00000000000E+00  0.00000000000E+00  0.45593999997E+02  0.45594000000E+02  0.51100000000E-03 0.  1.
         11   -1    0    0    0    0 -0.00000000000E+00 -0.00000000000E+00 -0.45593999997E+02  0.45594000000E+02  0.51100000000E-03 0. -1.
    9900012    2    1    2    0    0 -0.33917581833E+01  0.18885610331E+02  0.38928819638E+02  0.47787270748E+02  0.19999998649E+02 0.  0.
         12    1    1    2    0    0  0.33917581833E+01 -0.18885610331E+02 -0.38928819638E+02  0.43400729252E+02  0.00000000000E+00 0. -1.
         11    1    3    3    0    0 -0.74023915262E+01  0.20009560189E+02  0.23426991632E+02  0.31685988014E+02  0.51100000000E-03 0. -1.
        -11    1    3    3    0    0  0.93050541172E+00  0.48773262767E-02  0.54164763519E+01  0.54958239092E+01  0.51100000000E-03 0.  1.
         12    1    3    3    0    0  0.30801279312E+01 -0.11288271837E+01  0.10085351655E+02  0.10605458825E+02  0.00000000000E+00 0. -1.
</event>
<event>
 7    1  0.5411321E-010  0.4778732E+02  0.7816164E-02  0.1312668E+00
        -11   -1    0    0    0    0  0.00000000000E+00  0.00000000000E+00  0.45593999997E+02  0.45594000000E+02  0.51100000000E-03 0. -1.
         11   -1    0    0    0    0 -0.00000000000E+00 -0.00000000000E+00 -0.45593999997E+02  0.45594000000E+02  0.51100000000E-03 0.  1.
    9900012    2    1    2    0    0  0.22167305978E+02  0.36636751961E+02 -0.70695264531E+01  0.47787317369E+02  0.20000211211E+02 0.  0.
         12    1    1    2    0    0 -0.22167305978E+02 -0.36636751961E+02  0.70695264531E+01  0.43400682631E+02  0.00000000000E+00 0. -1.
         11    1    3    3    0    0  0.66907526539E+01  0.61537048020E+01  0.28144352673E+01  0.95160548549E+01  0.51100000000E-03 0. -1.
        -11    1    3    3    0    0  0.42171999880E+01  0.21799129334E+02 -0.92054646520E+01  0.24035960459E+02  0.51100000000E-03 0.  1.
        -12    1    3    3    0    0  0.11259353336E+02  0.86839178246E+01 -0.67849706843E+00  0.14235302055E+02  0.00000000000E+00 0.  1.
</event>
<event>
 7    1  0.5411321E-010  0.4778726E+02  0.7816164E-02  0.1312668E+00
        -11   -1    0    0    0    0  0.00000000000E+00  0.00000000000E+00  0.45593999997E+02  0.45594000000E+02  0.51100000000E-03 0.  1.
         11   -1    0    0    0    0 -0.00000000000E+00 -0.00000000000E+00 -0.45593999997E+02  0.45594000000E+02  0.51100000000E-03 0. -1.
    9900012    2    1    2    0    0 -0.21780645855E+02  0.12180205857E+01  0.37519910833E+02  0.47787264788E+02  0.19999971476E+02 0.  0.
         12    1    1    2    0    0  0.21780645855E+02 -0.12180205857E+01 -0.37519910833E+02  0.43400735212E+02  0.00000000000E+00 0. -1.
         11    1    3    3    0    0 -0.17522150145E+02  0.41283084820E+01  0.13584289537E+02  0.22552197213E+02  0.51100000000E-03 0. -1.
        -11    1    3    3    0    0 -0.35365761635E+01 -0.13055379596E+01  0.22868449919E+02  0.23177096502E+02  0.51100000000E-03 0.  1.
        -12    1    3    3    0    0 -0.72191954619E+00 -0.16047499368E+01  0.10671713770E+01  0.20579710733E+01  0.00000000000E+00 0.  1.
</event>
<event>
 7    1  0.5411321E-010  0.4778727E+02  0.7816164E-02  0.1312668E+00
        -11   -1    0    0    0    0  0.00000000000E+00  0.00000000000E+00  0.45593999997E+02  0.45594000000E+02  0.51100000000E-03 0. -1.
         11   -1    0    0    0    0 -0.00000000000E+00 -0.00000000000E+00 -0.45593999997E+02  0.45594000000E+02  0.51100000000E-03 0.  1.
    9900012    2    1    2    0    0 -0.38185107807E+02 -0.20626411968E+02 -0.26790948240E+00  0.47787272997E+02  0.20000008902E+02 0.  0.
         12    1    1    2    0    0  0.38185107807E+02  0.20626411968E+02  0.26790948240E+00  0.43400727003E+02  0.00000000000E+00 0. -1.
         11    1    3    3    0    0 -0.17688152640E+02 -0.51898924672E+01  0.86284471988E+01  0.20353275632E+02  0.51100000000E-03 0. -1.
        -11    1    3    3    0    0 -0.84981689045E+01 -0.87674951280E+01 -0.37428388512E+01  0.12770931386E+02  0.51100000000E-03 0.  1.
         12    1    3    3    0    0 -0.11998786262E+02 -0.66690243732E+01 -0.51535178300E+01  0.14663065978E+02  0.00000000000E+00 0. -1.
</event>
<event>
 7    1  0.5411321E-010  0.4778722E+02  0.7816164E-02  0.1312668E+00
        -11   -1    0    0    0    0  0.00000000000E+00  0.00000000000E+00  0.45593999997E+02  0.45594000000E+02  0.51100000000E-03 0. -1.
         11   -1    0    0    0    0 -0.00000000000E+00 -0.00000000000E+00 -0.45593999997E+02  0.45594000000E+02  0.51100000000E-03 0.  1.
    9900012    2    1    2    0    0  0.94719009619E+01 -0.36022397796E+02 -0.22277744195E+02  0.47787217320E+02  0.19999755048E+02 0.  0.
         12    1    1    2    0    0 -0.94719009619E+01  0.36022397796E+02  0.22277744195E+02  0.43400782680E+02  0.00000000000E+00 0. -1.
         11    1    3    3    0    0  0.36688721955E+01 -0.37366490551E+01 -0.64274124682E+01  0.82906453697E+01  0.51100000000E-03 0. -1.
        -11    1    3    3    0    0  0.55026176533E+01 -0.21199228531E+02 -0.23538657610E+01  0.22027863619E+02  0.51100000000E-03 0.  1.
        -12    1    3    3    0    0  0.30041111310E+00 -0.11086520210E+02 -0.13496465966E+02  0.17468708331E+02  0.00000000000E+00 0.  1.
</event>
<event>
 7    1  0.5411321E-010  0.4778727E+02  0.7816164E-02  0.1312668E+00
        -11   -1    0    0    0    0  0.00000000000E+00  0.00000000000E+00  0.45593999997E+02  0.45594000000E+02  0.51100000000E-03 0.  1.
         11   -1    0    0    0    0 -0.00000000000E+00 -0.00000000000E+00 -0.45593999997E+02  0.45594000000E+02  0.51100000000E-03 0. -1.
    9900012    2    1    2    0    0  0.34206535206E+02  0.26711708486E+02 -0.14423551466E+00  0.47787271608E+02  0.20000002570E+02 0.  0.
         12    1    1    2    0    0 -0.34206535206E+02 -0.26711708486E+02  0.14423551466E+00  0.43400728392E+02  0.00000000000E+00 0. -1.
         11    1    3    3    0    0  0.95171337921E+00  0.96563808687E+00 -0.35307378171E+01  0.37821059035E+01  0.51100000000E-03 0. -1.
        -11    1    3    3    0    0  0.29556971781E+02  0.26865807486E+02  0.37838981759E+01  0.40121117611E+02  0.51100000000E-03 0.  1.
        -12    1    3    3    0    0  0.36978500467E+01 -0.11197370870E+01 -0.39739587340E+00  0.38840480935E+01  0.00000000000E+00 0.  1.
</event>
<event>
 7    1  0.5411321E-010  0.4778727E+02  0.7816164E-02  0.1312668E+00
        -11   -1    0    0    0    0  0.00000000000E+00  0.00000000000E+00  0.45593999997E+02  0.45594000000E+02  0.51100000000E-03 0. -1.
         11   -1    0    0    0    0 -0.00000000000E+00 -0.00000000000E+00 -0.45593999997E+02  0.45594000000E+02  0.51100000000E-03 0.  1.
    9900012    2    1    2    0    0  0.34768370490E+02 -0.97425853889E+01  0.24080397650E+02  0.47787272961E+02  0.20000008738E+02 0.  0.
         12    1    1    2    0    0 -0.34768370490E+02  0.97425853889E+01 -0.24080397650E+02  0.43400727039E+02  0.00000000000E+00 0. -1.
         11    1    3    3    0    0 -0.10598395770E+01 -0.92470723614E+00 -0.17093926765E+01  0.22136772540E+01  0.51100000000E-03 0. -1.
        -11    1    3    3    0    0  0.22317449345E+02 -0.61347452996E+01  0.11953754785E+02  0.26049873299E+02  0.51100000000E-03 0.  1.
         12    1    3    3    0    0  0.13510760721E+02 -0.26831328532E+01  0.13836035541E+02  0.19523722408E+02  0.00000000000E+00 0. -1.
</event>
<event>
 7    1  0.5411321E-010  0.4778727E+02  0.7816164E-02  0.1312668E+00
        -11   -1    0    0    0    0  0.00000000000E+00  0.00000000000E+00  0.45593999997E+02  0.45594000000E+02  0.51100000000E-03 0.  1.
         11   -1    0    0    0    0 -0.00000000000E+00 -0.00000000000E+00 -0.45593999997E+02  0.45594000000E+02  0.51100000000E-03 0. -1.
    9900012    2    1    2    0    0  0.27697817258E+02  0.13133420267E+02  0.30724058758E+02  0.47787267340E+02  0.19999983112E+02 0.  0.
         12    1    1    2    0    0 -0.27697817258E+02 -0.13133420267E+02 -0.30724058758E+02  0.43400732660E+02  0.00000000000E+00 0. -1.
         11    1    3    3    0    0  0.13289457971E+01  0.78264774036E+01  0.88978616596E+01  0.11924419812E+02  0.51100000000E-03 0. -1.
        -11    1    3    3    0    0  0.22862591129E+02  0.12542680259E+01  0.19264528664E+02  0.29923123605E+02  0.51100000000E-03 0.  1.
         12    1    3    3    0    0  0.35062803325E+01  0.40526748378E+01  0.25616684350E+01  0.59397239230E+01  0.00000000000E+00 0. -1.
</event>
<event>
 7    1  0.5411321E-010  0.4778726E+02  0.7816164E-02  0.1312668E+00
        -11   -1    0    0    0    0  0.00000000000E+00  0.00000000000E+00  0.45593999997E+02  0.45594000000E+02  0.51100000000E-03 0. -1.
         11   -1    0    0    0    0 -0.00000000000E+00 -0.00000000000E+00 -0.45593999997E+02  0.45594000000E+02  0.51100000000E-03 0.  1.
    9900012    2    1    2    0    0  0.43129885649E+02  0.23397120402E+01  0.42382706679E+01  0.47787260067E+02  0.19999949948E+02 0.  0.
         12    1    1    2    0    0 -0.43129885649E+02 -0.23397120402E+01 -0.42382706679E+01  0.43400739933E+02  0.00000000000E+00 0. -1.
         11    1    3    3    0    0  0.74723327617E+01  0.55692338666E+01  0.56368113954E+01  0.10891545608E+02  0.51100000000E-03 0. -1.
        -11    1    3    3    0    0  0.31663274828E+02 -0.86095069394E+00  0.95549226002E+00  0.31689385836E+02  0.51100000000E-03 0.  1.
        -12    1    3    3    0    0  0.39942780591E+01 -0.23685711324E+01 -0.23540329876E+01  0.52063286229E+01  0.00000000000E+00 0.  1.
</event>
<event>
 7    1  0.5411321E-010  0.4778727E+02  0.7816164E-02  0.1312668E+00
        -11   -1    0    0    0    0  0.00000000000E+00  0.00000000000E+00  0.45593999997E+02  0.45594000000E+02  0.51100000000E-03 0. -1.
         11   -1    0    0    0    0 -0.00000000000E+00 -0.00000000000E+00 -0.45593999997E+02  0.45594000000E+02  0.51100000000E-03 0.  1.
    9900012    2    1    2    0    0  0.57313741399E-01 -0.43056523006E+02 -0.54548661188E+01  0.47787273940E+02  0.20000013200E+02 0.  0.
         12    1    1    2    0    0 -0.57313741399E-01  0.43056523006E+02  0.54548661188E+01  0.43400726060E+02  0.00000000000E+00 0. -1.
         11    1    3    3    0    0 -0.37156241721E+01 -0.65687018784E+01 -0.65089230404E+01  0.99659313044E+01  0.51100000000E-03 0. -1.
        -11    1    3    3    0    0  0.61237536944E+01 -0.32261539871E+02  0.19807077047E+01  0.32897272189E+02  0.51100000000E-03 0.  1.
        -12    1    3    3    0    0 -0.23508157809E+01 -0.42262812559E+01 -0.92665078307E+00  0.49240704466E+01  0.00000000000E+00 0.  1.
</event>
<event>
 7    1  0.5411321E-010  0.4778722E+02  0.7816164E-02  0.1312668E+00
        -11   -1    0    0    0    0  0.00000000000E+00  0.00000000000E+00  0.45593999997E+02  0.45594000000E+02  0.51100000000E-03 0. -1.
         11   -1    0    0    0    0 -0.00000000000E+00 -0.00000000000E+00 -0.45593999997E+02  0.45594000000E+02  0.51100000000E-03 0.  1.
    9900012    2    1    2    0    0 -0.18985843776E+02 -0.34942433055E+02  0.17383659720E+02  0.47787222161E+02  0.19999777122E+02 0.  0.
         12    1    1    2    0    0  0.18985843776E+02  0.34942433055E+02 -0.17383659720E+02  0.43400777839E+02  0.00000000000E+00 0. -1.
         11    1    3    3    0    0 -0.85033439715E+01 -0.75086942132E+01  0.12656246025E+02  0.16996114591E+02  0.51100000000E-03 0. -1.
        -11    1    3    3    0    0 -0.10209098550E+02 -0.15984436077E+02  0.32668195485E+01  0.19245778761E+02  0.51100000000E-03 0.  1.
         12    1    3    3    0    0 -0.27340125524E+00 -0.11449302765E+02  0.14605941466E+01  0.11545328809E+02  0.00000000000E+00 0. -1.
</event>
<event>
 7    1  0.5411321E-010  0.4778728E+02  0.7816164E-02  0.1312668E+00
        -11   -1    0    0    0    0  0.00000000000E+00  0.00000000000E+00  0.45593999997E+02  0.45594000000E+02  0.51100000000E-03 0. -1.
         11   -1    0    0    0    0 -0.00000000000E+00 -0.00000000000E+00 -0.45593999997E+02  0.45594000000E+02  0.51100000000E-03 0.  1.
    9900012    2    1    2    0    0 -0.17607096855E+02  0.18852251500E+02 -0.34902798933E+02  0.47787278581E+02  0.20000034364E+02 0.  0.
         12    1    1    2    0    0  0.17607096855E+02 -0.18852251500E+02  0.34902798933E+02  0.43400721419E+02  0.00000000000E+00 0. -1.
         11    1    3    3    0    0 -0.60256768531E+01 -0.15747727566E+01 -0.42404596721E+01  0.75345994761E+01  0.51100000000E-03 0. -1.
        -11    1    3    3    0    0 -0.77827396323E+01  0.31648365950E+01 -0.96540286985E+01  0.12797948946E+02  0.51100000000E-03 0.  1.
         12    1    3    3    0    0 -0.37986803698E+01  0.17262187661E+02 -0.21008310563E+02  0.27454730159E+02  0.00000000000E+00 0. -1.
</event>
<event>
 7    1  0.5411321E-010  0.4778727E+02  0.7816164E-02  0.1312668E+00
        -11   -1    0    0    0    0  0.00000000000E+00  0.00000000000E+00  0.45593999997E+02  0.45594000000E+02  0.51100000000E-03 0. -1.
         11   -1    0    0    0    0 -0.00000000000E+00 -0.00000000000E+00 -0.45593999997E+02  0.45594000000E+02  0.51100000000E-03 0.  1.
    9900012    2    1    2    0    0 -0.32543068471E+02  0.25037180924E+02 -0.14061009825E+02  0.47787265773E+02  0.19999975967E+02 0.  0.
         12    1    1    2    0    0  0.32543068471E+02 -0.25037180924E+02  0.14061009825E+02  0.43400734227E+02  0.00000000000E+00 0. -1.
         11    1    3    3    0    0 -0.21024484485E+02  0.37067446627E+01 -0.67000833919E+01  0.22375433439E+02  0.51100000000E-03 0. -1.
        -11    1    3    3    0    0 -0.11414675793E+02  0.20647416925E+02 -0.68985050057E+01  0.24580480482E+02  0.51100000000E-03 0.  1.
        -12    1    3    3    0    0 -0.10390819255E+00  0.68301933672E+00 -0.46242142767E+00  0.83135185306E+00  0.00000000000E+00 0.  1.
</event>
<event>
 7    1  0.5411321E-010  0.4778727E+02  0.7816164E-02  0.1312668E+00
        -11   -1    0    0    0    0  0.00000000000E+00  0.00000000000E+00  0.45593999997E+02  0.45594000000E+02  0.51100000000E-03 0.  1.
         11   -1    0    0    0    0 -0.00000000000E+00 -0.00000000000E+00 -0.45593999997E+02  0.45594000000E+02  0.51100000000E-03 0. -1.
    9900012    2    1    2    0    0 -0.10282981253E+02 -0.19116125485E+02  0.37582671898E+02  0.47787272080E+02  0.20000004720E+02 0.  0.
         12    1    1    2    0    0  0.10282981253E+02  0.19116125485E+02 -0.37582671898E+02  0.43400727920E+02  0.00000000000E+00 0. -1.
         11    1    3    3    0    0 -0.81842383519E+00  0.29890976496E+01  0.99592754343E+00  0.32552103258E+01  0.51100000000E-03 0. -1.
        -11    1    3    3    0    0  0.75926941433E+00 -0.36184003173E+01  0.94095438795E+01  0.10109838138E+02  0.51100000000E-03 0.  1.
         12    1    3    3    0    0 -0.10223826832E+02 -0.18486822818E+02  0.27177200475E+02  0.34422223616E+02  0.00000000000E+00 0. -1.
</event>
<event>
 7    1  0.5411321E-010  0.4778727E+02  0.7816164E-02  0.1312668E+00
        -11   -1    0    0    0    0  0.00000000000E+00  0.00000000000E+00  0.45593999997E+02  0.45594000000E+02  0.51100000000E-03 0. -1.
         11   -1    0    0    0    0 -0.00000000000E+00 -0.00000000000E+00 -0.45593999997E+02  0.45594000000E+02  0.51100000000E-03 0.  1.
    9900012    2    1    2    0    0  0.18792656353E+02  0.11617267534E+01  0.39103834127E+02  0.47787269761E+02  0.19999994150E+02 0.  0.
         12    1    1    2    0    0 -0.18792656353E+02 -0.11617267534E+01 -0.39103834127E+02  0.43400730239E+02  0.00000000000E+00 0. -1.
         11    1    3    3    0    0  0.18219523122E+01 -0.10428390692E+01  0.82901359397E+01  0.85518055235E+01  0.51100000000E-03 0. -1.
        -11    1    3    3    0    0  0.11931227760E+02 -0.13151288628E+01  0.30834493034E+02  0.33088513426E+02  0.51100000000E-03 0.  1.
        -12    1    3    3    0    0  0.50394762804E+01  0.35196946854E+01 -0.20794847147E-01  0.61469508120E+01  0.00000000000E+00 0.  1.
</event>
<event>
 7    1  0.1005814E-009  0.4778728E+02  0.7816164E-02  0.1312668E+00
        -11   -1    0    0    0    0  0.00000000000E+00  0.00000000000E+00  0.45593999997E+02  0.45594000000E+02  0.51100000000E-03 0. -1.
         11   -1    0    0    0    0 -0.00000000000E+00 -0.00000000000E+00 -0.45593999997E+02  0.45594000000E+02  0.51100000000E-03 0.  1.
    9900012    2    1    2    0    0 -0.16441947518E+02  0.39781025250E+02  0.55457458886E+01  0.47787275288E+02  0.20000019346E+02 0.  0.
         12    1    1    2    0    0  0.16441947518E+02 -0.39781025250E+02 -0.55457458886E+01  0.43400724712E+02  0.00000000000E+00 0. -1.
         11    1    3    3    0    0 -0.57293146598E+01  0.90855056859E+00  0.22093618008E+01  0.62073980406E+01  0.51100000000E-03 0. -1.
        -11    1    3    3    0    0 -0.28017441928E+01  0.21636147725E+02 -0.19164736772E+01  0.21900811184E+02  0.51100000000E-03 0.  1.
        -12    1    3    3    0    0 -0.79108886658E+01  0.17236326956E+02  0.52528577649E+01  0.19679066063E+02  0.00000000000E+00 0.  1.
</event>
<event>
 7    1  0.5411321E-010  0.4778727E+02  0.7816164E-02  0.1312668E+00
        -11   -1    0    0    0    0  0.00000000000E+00  0.00000000000E+00  0.45593999997E+02  0.45594000000E+02  0.51100000000E-03 0.  1.
         11   -1    0    0    0    0 -0.00000000000E+00 -0.00000000000E+00 -0.45593999997E+02  0.45594000000E+02  0.51100000000E-03 0. -1.
    9900012    2    1    2    0    0 -0.12196859252E+01 -0.31826992029E+01  0.43266686897E+02  0.47787269556E+02  0.19999993215E+02 0.  0.
         12    1    1    2    0    0  0.12196859252E+01  0.31826992029E+01 -0.43266686897E+02  0.43400730444E+02  0.00000000000E+00 0. -1.
         11    1    3    3    0    0 -0.16650483897E+01  0.37883638898E+01  0.12429066602E+02  0.13099839082E+02  0.51100000000E-03 0. -1.
        -11    1    3    3    0    0 -0.84412781178E+00 -0.25210326245E+01 -0.74958421231E+00  0.27622516194E+01  0.51100000000E-03 0.  1.
        -12    1    3    3    0    0  0.12894902763E+01 -0.44500304681E+01  0.31587204507E+02  0.31925178855E+02  0.00000000000E+00 0.  1.
</event>
<event>
 7    1  0.5411321E-010  0.4778730E+02  0.7816164E-02  0.1312668E+00
        -11   -1    0    0    0    0  0.00000000000E+00  0.00000000000E+00  0.45593999997E+02  0.45594000000E+02  0.51100000000E-03 0.  1.
         11   -1    0    0    0    0 -0.00000000000E+00 -0.00000000000E+00 -0.45593999997E+02  0.45594000000E+02  0.51100000000E-03 0. -1.
    9900012    2    1    2    0    0  0.21834672960E+01  0.31221457129E+02  0.30067819303E+02  0.47787301015E+02  0.20000136649E+02 0.  0.
         12    1    1    2    0    0 -0.21834672960E+01 -0.31221457129E+02 -0.30067819303E+02  0.43400698985E+02  0.00000000000E+00 0. -1.
         11    1    3    3    0    0 -0.47509360221E+01  0.20474237829E+02  0.11659016846E+02  0.24035358992E+02  0.51100000000E-03 0.  1.
        -11    1    3    3    0    0  0.39944829788E+01  0.30466710755E+01  0.12884516279E+02  0.13829275430E+02  0.51100000000E-03 0. -1.
        -12    1    3    3    0    0  0.29399203393E+01  0.77005482243E+01  0.55242861777E+01  0.99226665937E+01  0.00000000000E+00 0.  1.
</event>
<event>
 7    1  0.5411321E-010  0.4778727E+02  0.7816164E-02  0.1312668E+00
        -11   -1    0    0    0    0  0.00000000000E+00  0.00000000000E+00  0.45593999997E+02  0.45594000000E+02  0.51100000000E-03 0.  1.
         11   -1    0    0    0    0 -0.00000000000E+00 -0.00000000000E+00 -0.45593999997E+02  0.45594000000E+02  0.51100000000E-03 0. -1.
    9900012    2    1    2    0    0 -0.30241583291E+02 -0.26751640392E+02  0.15919160977E+02  0.47787270630E+02  0.19999998111E+02 0.  0.
         12    1    1    2    0    0  0.30241583291E+02  0.26751640392E+02 -0.15919160977E+02  0.43400729370E+02  0.00000000000E+00 0. -1.
         11    1    3    3    0    0 -0.25632837375E+02 -0.20009354535E+02  0.99158523607E+01  0.33996187273E+02  0.51100000000E-03 0. -1.
        -11    1    3    3    0    0 -0.42141382872E+01  0.43186184159E+00  0.49728279997E+01  0.65325710658E+01  0.51100000000E-03 0.  1.
         12    1    3    3    0    0 -0.39460762892E+00 -0.71741476985E+01  0.10304806167E+01  0.72585122912E+01  0.00000000000E+00 0. -1.
</event>
<event>
 7    1  0.5411321E-010  0.4778727E+02  0.7816164E-02  0.1312668E+00
        -11   -1    0    0    0    0  0.00000000000E+00  0.00000000000E+00  0.45593999997E+02  0.45594000000E+02  0.51100000000E-03 0.  1.
         11   -1    0    0    0    0 -0.00000000000E+00 -0.00000000000E+00 -0.45593999997E+02  0.45594000000E+02  0.51100000000E-03 0. -1.
    9900012    2    1    2    0    0 -0.41792499789E+02  0.10782008072E+02  0.45561448844E+01  0.47787271977E+02  0.20000004252E+02 0.  0.
         12    1    1    2    0    0  0.41792499789E+02 -0.10782008072E+02 -0.45561448844E+01  0.43400728023E+02  0.00000000000E+00 0. -1.
         11    1    3    3    0    0 -0.31875562484E+02  0.96824553174E+01  0.32802303939E+01  0.33474786576E+02  0.51100000000E-03 0. -1.
        -11    1    3    3    0    0 -0.11509752352E+02 -0.10449520160E+01  0.13796656075E+01  0.11639149512E+02  0.51100000000E-03 0.  1.
         12    1    3    3    0    0  0.15928150459E+01  0.21445047705E+01 -0.10375111700E+00  0.26733358890E+01  0.00000000000E+00 0. -1.
</event>
<event>
 7    1  0.5411321E-010  0.4778727E+02  0.7816164E-02  0.1312668E+00
        -11   -1    0    0    0    0  0.00000000000E+00  0.00000000000E+00  0.45593999997E+02  0.45594000000E+02  0.51100000000E-03 0. -1.
         11   -1    0    0    0    0 -0.00000000000E+00 -0.00000000000E+00 -0.45593999997E+02  0.45594000000E+02  0.51100000000E-03 0.  1.
    9900012    2    1    2    0    0  0.30572365977E+02 -0.26477637812E+02 -0.15744469248E+02  0.47787272155E+02  0.20000005063E+02 0.  0.
         12    1    1    2    0    0 -0.30572365977E+02  0.26477637812E+02  0.15744469248E+02  0.43400727845E+02  0.00000000000E+00 0. -1.
         11    1    3    3    0    0  0.75024447278E+01 -0.40464934153E+00  0.18543474894E+01  0.77387998330E+01  0.51100000000E-03 0. -1.
        -11    1    3    3    0    0  0.13948065811E+02 -0.89885668755E+01 -0.75668505987E+01  0.18237327178E+02  0.51100000000E-03 0.  1.
         12    1    3    3    0    0  0.91218554383E+01 -0.17084421595E+02 -0.10031966139E+02  0.21811145144E+02  0.00000000000E+00 0. -1.
</event>
<event>
 7    1  0.5411321E-010  0.4778726E+02  0.7816164E-02  0.1312668E+00
        -11   -1    0    0    0    0  0.00000000000E+00  0.00000000000E+00  0.45593999997E+02  0.45594000000E+02  0.51100000000E-03 0.  1.
         11   -1    0    0    0    0 -0.00000000000E+00 -0.00000000000E+00 -0.45593999997E+02  0.45594000000E+02  0.51100000000E-03 0. -1.
    9900012    2    1    2    0    0 -0.40860329090E+02  0.13688063806E+02  0.51666953701E+01  0.47787258934E+02  0.19999944782E+02 0.  0.
         12    1    1    2    0    0  0.40860329090E+02 -0.13688063806E+02 -0.51666953701E+01  0.43400741066E+02  0.00000000000E+00 0. -1.
         11    1    3    3    0    0 -0.16471834892E+02  0.44426833387E+01 -0.17305627682E+01  0.17147991944E+02  0.51100000000E-03 0. -1.
        -11    1    3    3    0    0 -0.13045839288E+02 -0.17475568324E+01 -0.55480165607E+00  0.13174053391E+02  0.51100000000E-03 0.  1.
        -12    1    3    3    0    0 -0.11342654910E+02  0.10992937300E+02  0.74520597943E+01  0.17465213599E+02  0.00000000000E+00 0.  1.
</event>
<event>
 7    1  0.5411321E-010  0.4778727E+02  0.7816164E-02  0.1312668E+00
        -11   -1    0    0    0    0  0.00000000000E+00  0.00000000000E+00  0.45593999997E+02  0.45594000000E+02  0.51100000000E-03 0. -1.
         11   -1    0    0    0    0 -0.00000000000E+00 -0.00000000000E+00 -0.45593999997E+02  0.45594000000E+02  0.51100000000E-03 0.  1.
    9900012    2    1    2    0    0 -0.22459326573E+02  0.24349732347E+02 -0.28040909025E+02  0.47787269656E+02  0.19999993668E+02 0.  0.
         12    1    1    2    0    0  0.22459326573E+02 -0.24349732347E+02  0.28040909025E+02  0.43400730344E+02  0.00000000000E+00 0. -1.
         11    1    3    3    0    0  0.84775192275E+00  0.51767792149E+01 -0.91739091448E+01  0.10567797103E+02  0.51100000000E-03 0. -1.
        -11    1    3    3    0    0 -0.12391439374E+02  0.33693740217E+01 -0.67137654918E+01  0.14490517534E+02  0.51100000000E-03 0.  1.
        -12    1    3    3    0    0 -0.10915639122E+02  0.15803579110E+02 -0.12153234388E+02  0.22728955018E+02  0.00000000000E+00 0.  1.
</event>
<event>
 7    1  0.5411321E-010  0.4778727E+02  0.7816164E-02  0.1312668E+00
        -11   -1    0    0    0    0  0.00000000000E+00  0.00000000000E+00  0.45593999997E+02  0.45594000000E+02  0.51100000000E-03 0.  1.
         11   -1    0    0    0    0 -0.00000000000E+00 -0.00000000000E+00 -0.45593999997E+02  0.45594000000E+02  0.51100000000E-03 0. -1.
    9900012    2    1    2    0    0 -0.24561722674E+02  0.30533791680E+02  0.18655634979E+02  0.47787269919E+02  0.19999994871E+02 0.  0.
         12    1    1    2    0    0  0.24561722674E+02 -0.30533791680E+02 -0.18655634979E+02  0.43400730081E+02  0.00000000000E+00 0. -1.
         11    1    3    3    0    0  0.95725284524E+00  0.48442485301E-01  0.56149073404E+00  0.11108338263E+01  0.51100000000E-03 0. -1.
        -11    1    3    3    0    0 -0.10694414811E+02  0.30478594998E+01  0.86597446593E+01  0.14094365311E+02  0.51100000000E-03 0.  1.
        -12    1    3    3    0    0 -0.14824560708E+02  0.27437489695E+02  0.94343995859E+01  0.32582070783E+02  0.00000000000E+00 0.  1.
</event>
<event>
 7    1  0.5411321E-010  0.4778727E+02  0.7816164E-02  0.1312668E+00
        -11   -1    0    0    0    0  0.00000000000E+00  0.00000000000E+00  0.45593999997E+02  0.45594000000E+02  0.51100000000E-03 0.  1.
         11   -1    0    0    0    0 -0.00000000000E+00 -0.00000000000E+00 -0.45593999997E+02  0.45594000000E+02  0.51100000000E-03 0. -1.
    9900012    2    1    2    0    0 -0.15029992034E+02 -0.40639325959E+02  0.24834737972E+01  0.47787272851E+02  0.20000008237E+02 0.  0.
         12    1    1    2    0    0  0.15029992034E+02  0.40639325959E+02 -0.24834737972E+01  0.43400727149E+02  0.00000000000E+00 0. -1.
         11    1    3    3    0    0 -0.11536291137E+01 -0.88033964797E+01  0.52052591554E+01  0.10292005288E+02  0.51100000000E-03 0. -1.
        -11    1    3    3    0    0 -0.13139724310E+02 -0.28853169935E+02 -0.67642311630E+01  0.32417782061E+02  0.51100000000E-03 0.  1.
        -12    1    3    3    0    0 -0.73663861004E+00 -0.29827595446E+01  0.40424458048E+01  0.50774855025E+01  0.00000000000E+00 0.  1.
</event>
<event>
 7    1  0.5411321E-010  0.4778730E+02  0.7816164E-02  0.1312668E+00
        -11   -1    0    0    0    0  0.00000000000E+00  0.00000000000E+00  0.45593999997E+02  0.45594000000E+02  0.51100000000E-03 0.  1.
         11   -1    0    0    0    0 -0.00000000000E+00 -0.00000000000E+00 -0.45593999997E+02  0.45594000000E+02  0.51100000000E-03 0. -1.
    9900012    2    1    2    0    0 -0.43112142841E+02 -0.35976997265E+01  0.34670018053E+01  0.47787304094E+02  0.20000150684E+02 0.  0.
         12    1    1    2    0    0  0.43112142841E+02  0.35976997265E+01 -0.34670018053E+01  0.43400695906E+02  0.00000000000E+00 0. -1.
         11    1    3    3    0    0 -0.20961305896E+02 -0.16325584406E+01 -0.35789054572E+01  0.21327216332E+02  0.51100000000E-03 0. -1.
        -11    1    3    3    0    0 -0.16662577405E+02  0.34205496680E+01  0.78399190006E+01  0.18729815162E+02  0.51100000000E-03 0.  1.
         12    1    3    3    0    0 -0.54882595396E+01 -0.53856909539E+01 -0.79401173813E+00  0.77302725997E+01  0.00000000000E+00 0. -1.
</event>
<event>
 7    1  0.5411321E-010  0.4778727E+02  0.7816164E-02  0.1312668E+00
        -11   -1    0    0    0    0  0.00000000000E+00  0.00000000000E+00  0.45593999997E+02  0.45594000000E+02  0.51100000000E-03 0. -1.
         11   -1    0    0    0    0 -0.00000000000E+00 -0.00000000000E+00 -0.45593999997E+02  0.45594000000E+02  0.51100000000E-03 0.  1.
    9900012    2    1    2    0    0  0.60976536841E+00 -0.33034504740E+02 -0.28142013995E+02  0.47787271101E+02  0.20000000260E+02 0.  0.
         12    1    1    2    0    0 -0.60976536841E+00  0.33034504740E+02  0.28142013995E+02  0.43400728899E+02  0.00000000000E+00 0. -1.
         11    1    3    3    0    0 -0.77684328304E+01 -0.14328500581E+02 -0.58167842046E+01  0.17305763673E+02  0.51100000000E-03 0. -1.
        -11    1    3    3    0    0  0.70896142964E+01 -0.14763024779E+02 -0.15846907938E+02  0.22788901310E+02  0.51100000000E-03 0.  1.
         12    1    3    3    0    0  0.12885839024E+01 -0.39429793802E+01 -0.64783218526E+01  0.76926061184E+01  0.00000000000E+00 0. -1.
</event>
<event>
 7    1  0.5411321E-010  0.4778727E+02  0.7816164E-02  0.1312668E+00
        -11   -1    0    0    0    0  0.00000000000E+00  0.00000000000E+00  0.45593999997E+02  0.45594000000E+02  0.51100000000E-03 0.  1.
         11   -1    0    0    0    0 -0.00000000000E+00 -0.00000000000E+00 -0.45593999997E+02  0.45594000000E+02  0.51100000000E-03 0. -1.
    9900012    2    1    2    0    0 -0.87786704533E+01  0.30875379511E+02  0.29210773400E+02  0.47787269620E+02  0.19999993507E+02 0.  0.
         12    1    1    2    0    0  0.87786704533E+01 -0.30875379511E+02 -0.29210773400E+02  0.43400730380E+02  0.00000000000E+00 0. -1.
         11    1    3    3    0    0 -0.53688092666E+01  0.10194694773E+02  0.42393191424E+01  0.12277122688E+02  0.51100000000E-03 0. -1.
        -11    1    3    3    0    0 -0.27837029392E+01  0.11807535429E+02  0.23565221461E+02  0.26504462977E+02  0.51100000000E-03 0.  1.
        -12    1    3    3    0    0 -0.62615824749E+00  0.88731493091E+01  0.14062327967E+01  0.90056839546E+01  0.00000000000E+00 0.  1.
</event>
<event>
 7    1  0.5411321E-010  0.4778727E+02  0.7816164E-02  0.1312668E+00
        -11   -1    0    0    0    0  0.00000000000E+00  0.00000000000E+00  0.45593999997E+02  0.45594000000E+02  0.51100000000E-03 0.  1.
         11   -1    0    0    0    0 -0.00000000000E+00 -0.00000000000E+00 -0.45593999997E+02  0.45594000000E+02  0.51100000000E-03 0. -1.
    9900012    2    1    2    0    0 -0.87046902792E+01 -0.32656445396E+02  0.27228813375E+02  0.47787270322E+02  0.19999996706E+02 0.  0.
         12    1    1    2    0    0  0.87046902792E+01  0.32656445396E+02 -0.27228813375E+02  0.43400729678E+02  0.00000000000E+00 0. -1.
         11    1    3    3    0    0  0.22295920269E+01 -0.53337745893E+01  0.20915494272E+00  0.57848057899E+01  0.51100000000E-03 0. -1.
        -11    1    3    3    0    0 -0.12685870965E+02 -0.15897033714E+02  0.19735435405E+02  0.28339626214E+02  0.51100000000E-03 0.  1.
        -12    1    3    3    0    0  0.17515886587E+01 -0.11425637093E+02  0.72842230271E+01  0.13662838318E+02  0.00000000000E+00 0.  1.
</event>
