<event>
 7    1  0.2500839E-011  0.5052886E+02  0.7816164E-02  0.1300439E+00
        -11   -1    0    0    0    0  0.00000000000E+00  0.00000000000E+00  0.45593999997E+02  0.45594000000E+02  0.51100000000E-03 0.  1.
         11   -1    0    0    0    0 -0.00000000000E+00 -0.00000000000E+00 -0.45593999997E+02  0.45594000000E+02  0.51100000000E-03 0. -1.
    9900012    2    1    2    0    0  0.25732800602E+02  0.21455631566E+02  0.23035720528E+02  0.50528861138E+02  0.30000003916E+02 0.  0.
         12    1    1    2    0    0 -0.25732800602E+02 -0.21455631566E+02 -0.23035720528E+02  0.40659138862E+02  0.00000000000E+00 0. -1.
         11    1    3    3    0    0  0.13456145965E+02  0.17912068558E+01  0.18156052897E+01  0.13695718640E+02  0.51100000000E-03 0. -1.
        -11    1    3    3    0    0 -0.52236307065E+00  0.82308659272E+01 -0.14762559376E+01  0.83785051736E+01  0.51100000000E-03 0.  1.
        -12    1    3    3    0    0  0.12799017707E+02  0.11433558783E+02  0.22696371176E+02  0.28454637324E+02  0.00000000000E+00 0.  1.
</event>
<event>
 7    1  0.2500839E-011  0.5052886E+02  0.7816164E-02  0.1300439E+00
        -11   -1    0    0    0    0  0.00000000000E+00  0.00000000000E+00  0.45593999997E+02  0.45594000000E+02  0.51100000000E-03 0. -1.
         11   -1    0    0    0    0 -0.00000000000E+00 -0.00000000000E+00 -0.45593999997E+02  0.45594000000E+02  0.51100000000E-03 0.  1.
    9900012    2    1    2    0    0 -0.39606436269E+02 -0.89740400965E+01  0.19905183351E+01  0.50528863845E+02  0.30000012143E+02 0.  0.
         12    1    1    2    0    0  0.39606436269E+02  0.89740400965E+01 -0.19905183351E+01  0.40659136155E+02  0.00000000000E+00 0. -1.
         11    1    3    3    0    0 -0.28900854159E+01 -0.12042320501E+01 -0.22920757461E+01  0.38802551499E+01  0.51100000000E-03 0.  1.
        -11    1    3    3    0    0 -0.32536198051E+02 -0.12094530927E+02  0.12122434863E+02  0.36767312782E+02  0.51100000000E-03 0. -1.
         12    1    3    3    0    0 -0.41801528031E+01  0.43247228805E+01 -0.78398407815E+01  0.98812959134E+01  0.00000000000E+00 0. -1.
</event>
<event>
 7    1  0.2500839E-011  0.5052886E+02  0.7816164E-02  0.1300439E+00
        -11   -1    0    0    0    0  0.00000000000E+00  0.00000000000E+00  0.45593999997E+02  0.45594000000E+02  0.51100000000E-03 0.  1.
         11   -1    0    0    0    0 -0.00000000000E+00 -0.00000000000E+00 -0.45593999997E+02  0.45594000000E+02  0.51100000000E-03 0. -1.
    9900012    2    1    2    0    0  0.11526701229E+02  0.34578672891E+02  0.18017101329E+02  0.50528863260E+02  0.30000010364E+02 0.  0.
         12    1    1    2    0    0 -0.11526701229E+02 -0.34578672891E+02 -0.18017101329E+02  0.40659136740E+02  0.00000000000E+00 0. -1.
         11    1    3    3    0    0 -0.22752708584E+01 -0.11425533845E+01  0.19087862558E+01  0.31820985131E+01  0.51100000000E-03 0. -1.
        -11    1    3    3    0    0  0.11941532312E+02  0.13941124911E+02 -0.26442941136E+01  0.18545820267E+02  0.51100000000E-03 0.  1.
        -12    1    3    3    0    0  0.18604397753E+01  0.21780101365E+02  0.18752609187E+02  0.28800944480E+02  0.00000000000E+00 0.  1.
</event>
<event>
 7    1  0.2500839E-011  0.5052886E+02  0.7816164E-02  0.1300439E+00
        -11   -1    0    0    0    0  0.00000000000E+00  0.00000000000E+00  0.45593999997E+02  0.45594000000E+02  0.51100000000E-03 0.  1.
         11   -1    0    0    0    0 -0.00000000000E+00 -0.00000000000E+00 -0.45593999997E+02  0.45594000000E+02  0.51100000000E-03 0. -1.
    9900012    2    1    2    0    0 -0.36587634055E+01 -0.40443203631E+02 -0.20314480114E+01  0.50528855265E+02  0.29999986062E+02 0.  0.
         12    1    1    2    0    0  0.36587634055E+01  0.40443203631E+02  0.20314480114E+01  0.40659144735E+02  0.00000000000E+00 0. -1.
         11    1    3    3    0    0  0.51929325609E+01 -0.35228482833E+01 -0.43955516781E+01  0.76614543935E+01  0.51100000000E-03 0. -1.
        -11    1    3    3    0    0  0.42130871895E+01 -0.23167455560E+02 -0.11497972467E+01  0.23575477403E+02  0.51100000000E-03 0.  1.
         12    1    3    3    0    0 -0.13064783156E+02 -0.13752899788E+02  0.35139009133E+01  0.19291923468E+02  0.00000000000E+00 0. -1.
</event>
<event>
 7    1  0.2500839E-011  0.5052886E+02  0.7816164E-02  0.1300439E+00
        -11   -1    0    0    0    0  0.00000000000E+00  0.00000000000E+00  0.45593999997E+02  0.45594000000E+02  0.51100000000E-03 0. -1.
         11   -1    0    0    0    0 -0.00000000000E+00 -0.00000000000E+00 -0.45593999997E+02  0.45594000000E+02  0.51100000000E-03 0.  1.
    9900012    2    1    2    0    0 -0.31818821197E+02 -0.84160157787E+01 -0.23872558820E+02  0.50528858733E+02  0.29999996604E+02 0.  0.
         12    1    1    2    0    0  0.31818821197E+02  0.84160157787E+01  0.23872558820E+02  0.40659141267E+02  0.00000000000E+00 0. -1.
         11    1    3    3    0    0  0.21927145469E+01 -0.55286616950E+01 -0.33942082264E+00  0.59572899861E+01  0.51100000000E-03 0. -1.
        -11    1    3    3    0    0 -0.13000174911E+02 -0.74109815737E+01 -0.39062527231E+01  0.15465639534E+02  0.51100000000E-03 0.  1.
        -12    1    3    3    0    0 -0.21011360833E+02  0.45236274900E+01 -0.19626885274E+02  0.29105929212E+02  0.00000000000E+00 0.  1.
</event>
<event>
 7    1  0.2500839E-011  0.5052886E+02  0.7816164E-02  0.1300439E+00
        -11   -1    0    0    0    0  0.00000000000E+00  0.00000000000E+00  0.45593999997E+02  0.45594000000E+02  0.51100000000E-03 0.  1.
         11   -1    0    0    0    0 -0.00000000000E+00 -0.00000000000E+00 -0.45593999997E+02  0.45594000000E+02  0.51100000000E-03 0. -1.
    9900012    2    1    2    0    0  0.23201668368E+02 -0.33389186048E+02 -0.10301424046E+00  0.50528858692E+02  0.29999996479E+02 0.  0.
         12    1    1    2    0    0 -0.23201668368E+02  0.33389186048E+02  0.10301424046E+00  0.40659141308E+02  0.00000000000E+00 0. -1.
         11    1    3    3    0    0  0.11984443634E+02 -0.25912347486E+02 -0.74677209534E+01  0.29510057573E+02  0.51100000000E-03 0. -1.
        -11    1    3    3    0    0  0.47127715476E+00  0.18222315366E+01 -0.29218969174E+01  0.34756455209E+01  0.51100000000E-03 0.  1.
        -12    1    3    3    0    0  0.10745947579E+02 -0.92990700979E+01  0.10286603630E+02  0.17543155597E+02  0.00000000000E+00 0.  1.
</event>
<event>
 7    1  0.2500839E-011  0.5052886E+02  0.7816164E-02  0.1300439E+00
        -11   -1    0    0    0    0  0.00000000000E+00  0.00000000000E+00  0.45593999997E+02  0.45594000000E+02  0.51100000000E-03 0. -1.
         11   -1    0    0    0    0 -0.00000000000E+00 -0.00000000000E+00 -0.45593999997E+02  0.45594000000E+02  0.51100000000E-03 0.  1.
    9900012    2    1    2    0    0 -0.18173224931E+02 -0.29837097411E+02 -0.20800171735E+02  0.50528860431E+02  0.30000001765E+02 0.  0.
         12    1    1    2    0    0  0.18173224931E+02  0.29837097411E+02  0.20800171735E+02  0.40659139569E+02  0.00000000000E+00 0. -1.
         11    1    3    3    0    0  0.31981060454E+01 -0.16166406679E+02 -0.97288082672E+01  0.19137144451E+02  0.51100000000E-03 0.  1.
        -11    1    3    3    0    0 -0.80016493051E+01 -0.13729685520E+02 -0.46354324413E+01  0.16553485743E+02  0.51100000000E-03 0. -1.
         12    1    3    3    0    0 -0.13369681671E+02  0.58994787203E-01 -0.64359310266E+01  0.14838230236E+02  0.00000000000E+00 0. -1.
</event>
<event>
 7    1  0.2500839E-011  0.5052885E+02  0.7816164E-02  0.1300439E+00
        -11   -1    0    0    0    0  0.00000000000E+00  0.00000000000E+00  0.45593999997E+02  0.45594000000E+02  0.51100000000E-03 0. -1.
         11   -1    0    0    0    0 -0.00000000000E+00 -0.00000000000E+00 -0.45593999997E+02  0.45594000000E+02  0.51100000000E-03 0.  1.
    9900012    2    1    2    0    0  0.35993603420E+02 -0.18904249970E+02  0.50612970415E+00  0.50528851935E+02  0.29999975941E+02 0.  0.
         12    1    1    2    0    0 -0.35993603420E+02  0.18904249970E+02 -0.50612970415E+00  0.40659148065E+02  0.00000000000E+00 0. -1.
         11    1    3    3    0    0 -0.40195444551E+01 -0.63406903890E+01 -0.16367090645E+01  0.76837431671E+01  0.51100000000E-03 0. -1.
        -11    1    3    3    0    0  0.15049579449E+02 -0.48494495758E+00  0.55928073675E+00  0.15067773837E+02  0.51100000000E-03 0.  1.
        -12    1    3    3    0    0  0.24963568427E+02 -0.12078614623E+02  0.15835580319E+01  0.27777334930E+02  0.00000000000E+00 0.  1.
</event>
<event>
 7    1  0.2500839E-011  0.5052886E+02  0.7816164E-02  0.1300439E+00
        -11   -1    0    0    0    0  0.00000000000E+00  0.00000000000E+00  0.45593999997E+02  0.45594000000E+02  0.51100000000E-03 0.  1.
         11   -1    0    0    0    0 -0.00000000000E+00 -0.00000000000E+00 -0.45593999997E+02  0.45594000000E+02  0.51100000000E-03 0. -1.
    9900012    2    1    2    0    0 -0.46251777559E+01  0.38779325229E+02  0.11310925387E+02  0.50528863664E+02  0.30000011592E+02 0.  0.
         12    1    1    2    0    0  0.46251777559E+01 -0.38779325229E+02 -0.11310925387E+02  0.40659136336E+02  0.00000000000E+00 0. -1.
         11    1    3    3    0    0 -0.14526687855E-01  0.13713126439E+02  0.11947817070E+02  0.18187918538E+02  0.51100000000E-03 0.  1.
        -11    1    3    3    0    0  0.28505620201E+01 -0.19197539501E+01 -0.25466819469E+01  0.42774698432E+01  0.51100000000E-03 0. -1.
        -12    1    3    3    0    0 -0.74612130882E+01  0.26985952741E+02  0.19097902639E+01  0.28063475282E+02  0.00000000000E+00 0.  1.
</event>
<event>
 7    1  0.2500839E-011  0.5052890E+02  0.7816164E-02  0.1300439E+00
        -11   -1    0    0    0    0  0.00000000000E+00  0.00000000000E+00  0.45593999997E+02  0.45594000000E+02  0.51100000000E-03 0.  1.
         11   -1    0    0    0    0 -0.00000000000E+00 -0.00000000000E+00 -0.45593999997E+02  0.45594000000E+02  0.51100000000E-03 0. -1.
    9900012    2    1    2    0    0  0.36738295527E+02 -0.77674153868E+01  0.15592544391E+02  0.50528898428E+02  0.30000117263E+02 0.  0.
         12    1    1    2    0    0 -0.36738295527E+02  0.77674153868E+01 -0.15592544391E+02  0.40659101572E+02  0.00000000000E+00 0. -1.
         11    1    3    3    0    0  0.22041755987E+01 -0.41795655015E+01  0.85934686935E+01  0.98068783157E+01  0.51100000000E-03 0. -1.
        -11    1    3    3    0    0  0.18535938996E+02 -0.30542914601E+01  0.13820564008E+02  0.23322043661E+02  0.51100000000E-03 0.  1.
         12    1    3    3    0    0  0.15998180933E+02 -0.53355842518E+00 -0.68214883103E+01  0.17399976452E+02  0.00000000000E+00 0. -1.
</event>
<event>
 7    1  0.2500839E-011  0.5052886E+02  0.7816164E-02  0.1300439E+00
        -11   -1    0    0    0    0  0.00000000000E+00  0.00000000000E+00  0.45593999997E+02  0.45594000000E+02  0.51100000000E-03 0. -1.
         11   -1    0    0    0    0 -0.00000000000E+00 -0.00000000000E+00 -0.45593999997E+02  0.45594000000E+02  0.51100000000E-03 0.  1.
    9900012    2    1    2    0    0  0.29038954493E+02  0.28315994482E+02 -0.28476624928E+01  0.50528860766E+02  0.30000002785E+02 0.  0.
         12    1    1    2    0    0 -0.29038954493E+02 -0.28315994482E+02  0.28476624928E+01  0.40659139234E+02  0.00000000000E+00 0. -1.
         11    1    3    3    0    0  0.19773293901E+02  0.13596888885E+02  0.56771651977E+01  0.24659455468E+02  0.51100000000E-03 0. -1.
        -11    1    3    3    0    0  0.80187697898E+01  0.18545405965E+02 -0.82865032988E+01  0.21838014757E+02  0.51100000000E-03 0.  1.
         12    1    3    3    0    0  0.12468908021E+01 -0.38263003677E+01 -0.23832439174E+00  0.40313905407E+01  0.00000000000E+00 0. -1.
</event>
<event>
 7    1  0.2500839E-011  0.5052886E+02  0.7816164E-02  0.1300439E+00
        -11   -1    0    0    0    0  0.00000000000E+00  0.00000000000E+00  0.45593999997E+02  0.45594000000E+02  0.51100000000E-03 0.  1.
         11   -1    0    0    0    0 -0.00000000000E+00 -0.00000000000E+00 -0.45593999997E+02  0.45594000000E+02  0.51100000000E-03 0. -1.
    9900012    2    1    2    0    0  0.12148761902E+02  0.18196449093E+02  0.34270431451E+02  0.50528860226E+02  0.30000001142E+02 0.  0.
         12    1    1    2    0    0 -0.12148761902E+02 -0.18196449093E+02 -0.34270431451E+02  0.40659139774E+02  0.00000000000E+00 0. -1.
         11    1    3    3    0    0  0.15659515823E+02  0.56458012805E+01  0.18203409616E+02  0.24666974476E+02  0.51100000000E-03 0. -1.
        -11    1    3    3    0    0  0.14954801054E+01  0.11474857622E+02  0.17090951054E+02  0.20639995794E+02  0.51100000000E-03 0.  1.
        -12    1    3    3    0    0 -0.50062340266E+01  0.10757901898E+01 -0.10239292183E+01  0.52218899554E+01  0.00000000000E+00 0.  1.
</event>
<event>
 7    1  0.2500839E-011  0.5052886E+02  0.7816164E-02  0.1300439E+00
        -11   -1    0    0    0    0  0.00000000000E+00  0.00000000000E+00  0.45593999997E+02  0.45594000000E+02  0.51100000000E-03 0. -1.
         11   -1    0    0    0    0 -0.00000000000E+00 -0.00000000000E+00 -0.45593999997E+02  0.45594000000E+02  0.51100000000E-03 0.  1.
    9900012    2    1    2    0    0  0.15728891863E+02  0.30894605396E+02  0.21243612349E+02  0.50528858993E+02  0.29999997394E+02 0.  0.
         12    1    1    2    0    0 -0.15728891863E+02 -0.30894605396E+02 -0.21243612349E+02  0.40659141007E+02  0.00000000000E+00 0. -1.
         11    1    3    3    0    0 -0.74738932236E-01 -0.25216478933E+01  0.72396370858E+01  0.76665924243E+01  0.51100000000E-03 0. -1.
        -11    1    3    3    0    0  0.99464602533E+01  0.90640133938E+01  0.11480580744E+02  0.17688757584E+02  0.51100000000E-03 0.  1.
        -12    1    3    3    0    0  0.58571705416E+01  0.24352239896E+02  0.25233945192E+01  0.25173508985E+02  0.00000000000E+00 0.  1.
</event>
<event>
 7    1  0.2500839E-011  0.5052888E+02  0.7816164E-02  0.1300439E+00
        -11   -1    0    0    0    0  0.00000000000E+00  0.00000000000E+00  0.45593999997E+02  0.45594000000E+02  0.51100000000E-03 0.  1.
         11   -1    0    0    0    0 -0.00000000000E+00 -0.00000000000E+00 -0.45593999997E+02  0.45594000000E+02  0.51100000000E-03 0. -1.
    9900012    2    1    2    0    0 -0.47341770129E+01  0.64765417819E+01  0.39859826284E+02  0.50528883226E+02  0.30000071053E+02 0.  0.
         12    1    1    2    0    0  0.47341770129E+01 -0.64765417819E+01 -0.39859826284E+02  0.40659116774E+02  0.00000000000E+00 0. -1.
         11    1    3    3    0    0 -0.37232922008E-01 -0.19748670801E+01  0.35760535996E+02  0.35815044622E+02  0.51100000000E-03 0. -1.
        -11    1    3    3    0    0  0.27362535510E+01  0.38609553306E+01  0.36312672661E+01  0.59649108777E+01  0.51100000000E-03 0.  1.
        -12    1    3    3    0    0 -0.74331976419E+01  0.45904535314E+01  0.46802302227E+00  0.87489277261E+01  0.00000000000E+00 0.  1.
</event>
<event>
 7    1  0.2500839E-011  0.5052887E+02  0.7816164E-02  0.1300439E+00
        -11   -1    0    0    0    0  0.00000000000E+00  0.00000000000E+00  0.45593999997E+02  0.45594000000E+02  0.51100000000E-03 0.  1.
         11   -1    0    0    0    0 -0.00000000000E+00 -0.00000000000E+00 -0.45593999997E+02  0.45594000000E+02  0.51100000000E-03 0. -1.
    9900012    2    1    2    0    0 -0.35884041588E+02 -0.18958460579E+02 -0.24651806776E+01  0.50528870841E+02  0.30000033408E+02 0.  0.
         12    1    1    2    0    0  0.35884041588E+02  0.18958460579E+02  0.24651806776E+01  0.40659129159E+02  0.00000000000E+00 0. -1.
         11    1    3    3    0    0 -0.15959672040E+02 -0.11674716755E+02  0.14886634964E+01  0.19829933490E+02  0.51100000000E-03 0. -1.
        -11    1    3    3    0    0 -0.10068923955E+02 -0.43052235212E+01  0.89840315821E+01  0.14164427376E+02  0.51100000000E-03 0.  1.
         12    1    3    3    0    0 -0.98554455929E+01 -0.29785203034E+01 -0.12937875756E+02  0.16534509975E+02  0.00000000000E+00 0. -1.
</event>
<event>
 7    1  0.2500839E-011  0.5052884E+02  0.7816164E-02  0.1300439E+00
        -11   -1    0    0    0    0  0.00000000000E+00  0.00000000000E+00  0.45593999997E+02  0.45594000000E+02  0.51100000000E-03 0. -1.
         11   -1    0    0    0    0 -0.00000000000E+00 -0.00000000000E+00 -0.45593999997E+02  0.45594000000E+02  0.51100000000E-03 0.  1.
    9900012    2    1    2    0    0  0.30857666359E+02  0.22491396048E+02  0.13968138808E+02  0.50528839027E+02  0.29999936705E+02 0.  0.
         12    1    1    2    0    0 -0.30857666359E+02 -0.22491396048E+02 -0.13968138808E+02  0.40659160973E+02  0.00000000000E+00 0. -1.
         11    1    3    3    0    0  0.63908814960E+01  0.12464186874E+02 -0.22977362908E+01  0.14194326791E+02  0.51100000000E-03 0.  1.
        -11    1    3    3    0    0  0.23148349002E+02  0.90245331673E+01  0.55062339692E+01  0.25448121212E+02  0.51100000000E-03 0. -1.
         12    1    3    3    0    0  0.13184358602E+01  0.10026760071E+01  0.10759641130E+02  0.10886391024E+02  0.00000000000E+00 0. -1.
</event>
<event>
 7    1  0.2500839E-011  0.5052885E+02  0.7816164E-02  0.1300439E+00
        -11   -1    0    0    0    0  0.00000000000E+00  0.00000000000E+00  0.45593999997E+02  0.45594000000E+02  0.51100000000E-03 0.  1.
         11   -1    0    0    0    0 -0.00000000000E+00 -0.00000000000E+00 -0.45593999997E+02  0.45594000000E+02  0.51100000000E-03 0. -1.
    9900012    2    1    2    0    0 -0.15724575259E+02  0.36110473930E+02  0.10096439790E+02  0.50528847391E+02  0.29999962128E+02 0.  0.
         12    1    1    2    0    0  0.15724575259E+02 -0.36110473930E+02 -0.10096439790E+02  0.40659152609E+02  0.00000000000E+00 0. -1.
         11    1    3    3    0    0 -0.18846378424E+02  0.24353882603E+02  0.20211207427E+01  0.30860695178E+02  0.51100000000E-03 0. -1.
        -11    1    3    3    0    0  0.14911215364E+01  0.10503984242E+02 -0.72189092213E+00  0.10633825989E+02  0.51100000000E-03 0.  1.
        -12    1    3    3    0    0  0.16306816286E+01  0.12526070842E+01  0.87972099689E+01  0.90343262238E+01  0.00000000000E+00 0.  1.
</event>
<event>
 7    1  0.2500839E-011  0.5052886E+02  0.7816164E-02  0.1300439E+00
        -11   -1    0    0    0    0  0.00000000000E+00  0.00000000000E+00  0.45593999997E+02  0.45594000000E+02  0.51100000000E-03 0.  1.
         11   -1    0    0    0    0 -0.00000000000E+00 -0.00000000000E+00 -0.45593999997E+02  0.45594000000E+02  0.51100000000E-03 0. -1.
    9900012    2    1    2    0    0 -0.27789386650E+02  0.19430008949E+02  0.22436369945E+02  0.50528856447E+02  0.29999989655E+02 0.  0.
         12    1    1    2    0    0  0.27789386650E+02 -0.19430008949E+02 -0.22436369945E+02  0.40659143553E+02  0.00000000000E+00 0. -1.
         11    1    3    3    0    0  0.24114883254E+01  0.83699710465E+01  0.63963880846E+01  0.10806732719E+02  0.51100000000E-03 0. -1.
        -11    1    3    3    0    0 -0.23742662338E+02  0.14316464387E+02  0.78905181558E+01  0.28825950886E+02  0.51100000000E-03 0.  1.
         12    1    3    3    0    0 -0.64582126377E+01 -0.32564264845E+01  0.81494637051E+01  0.10896172842E+02  0.00000000000E+00 0. -1.
</event>
<event>
 7    1  0.2500839E-011  0.5052887E+02  0.7816164E-02  0.1300439E+00
        -11   -1    0    0    0    0  0.00000000000E+00  0.00000000000E+00  0.45593999997E+02  0.45594000000E+02  0.51100000000E-03 0.  1.
         11   -1    0    0    0    0 -0.00000000000E+00 -0.00000000000E+00 -0.45593999997E+02  0.45594000000E+02  0.51100000000E-03 0. -1.
    9900012    2    1    2    0    0  0.13112686258E+02 -0.21488927744E+02  0.31928802888E+02  0.50528868057E+02  0.30000024945E+02 0.  0.
         12    1    1    2    0    0 -0.13112686258E+02  0.21488927744E+02 -0.31928802888E+02  0.40659131943E+02  0.00000000000E+00 0. -1.
         11    1    3    3    0    0 -0.15883272468E+01  0.16969842777E+01 -0.66756370577E-01  0.23252947675E+01  0.51100000000E-03 0. -1.
        -11    1    3    3    0    0  0.13737294984E+02 -0.19644229295E+02  0.35691900085E+02  0.42994426965E+02  0.51100000000E-03 0.  1.
         12    1    3    3    0    0  0.96371852139E+00 -0.35416827264E+01 -0.36963408265E+01  0.52091463244E+01  0.00000000000E+00 0. -1.
</event>
<event>
 7    1  0.2500839E-011  0.5052883E+02  0.7816164E-02  0.1300439E+00
        -11   -1    0    0    0    0  0.00000000000E+00  0.00000000000E+00  0.45593999997E+02  0.45594000000E+02  0.51100000000E-03 0.  1.
         11   -1    0    0    0    0 -0.00000000000E+00 -0.00000000000E+00 -0.45593999997E+02  0.45594000000E+02  0.51100000000E-03 0. -1.
    9900012    2    1    2    0    0 -0.35350442316E+02 -0.19596599833E+02  0.44145166675E+01  0.50528825705E+02  0.29999896212E+02 0.  0.
         12    1    1    2    0    0  0.35350442316E+02  0.19596599833E+02 -0.44145166675E+01  0.40659174295E+02  0.00000000000E+00 0. -1.
         11    1    3    3    0    0 -0.60485724908E+01 -0.23469635520E+01  0.42900459232E+01  0.77780435442E+01  0.51100000000E-03 0. -1.
        -11    1    3    3    0    0 -0.19740163537E+00 -0.13201234294E+02 -0.16883932760E+01  0.13310230141E+02  0.51100000000E-03 0.  1.
         12    1    3    3    0    0 -0.29104468190E+02 -0.40484019876E+01  0.18128640204E+01  0.29440552020E+02  0.00000000000E+00 0. -1.
</event>
<event>
 7    1  0.2500839E-011  0.5052885E+02  0.7816164E-02  0.1300439E+00
        -11   -1    0    0    0    0  0.00000000000E+00  0.00000000000E+00  0.45593999997E+02  0.45594000000E+02  0.51100000000E-03 0. -1.
         11   -1    0    0    0    0 -0.00000000000E+00 -0.00000000000E+00 -0.45593999997E+02  0.45594000000E+02  0.51100000000E-03 0.  1.
    9900012    2    1    2    0    0  0.41310846627E+01  0.19764182609E+02 -0.35291329108E+02  0.50528847465E+02  0.29999962353E+02 0.  0.
         12    1    1    2    0    0 -0.41310846627E+01 -0.19764182609E+02  0.35291329108E+02  0.40659152535E+02  0.00000000000E+00 0. -1.
         11    1    3    3    0    0 -0.45160706267E+01  0.16306605888E+02 -0.13484303159E+02  0.21636236305E+02  0.51100000000E-03 0. -1.
        -11    1    3    3    0    0  0.22480402484E+01  0.97248481424E+01 -0.10913484855E+02  0.14789540503E+02  0.51100000000E-03 0.  1.
         12    1    3    3    0    0  0.63991150411E+01 -0.62672714213E+01 -0.10893541095E+02  0.14103070657E+02  0.00000000000E+00 0. -1.
</event>
<event>
 7    1  0.2500839E-011  0.5052886E+02  0.7816164E-02  0.1300439E+00
        -11   -1    0    0    0    0  0.00000000000E+00  0.00000000000E+00  0.45593999997E+02  0.45594000000E+02  0.51100000000E-03 0.  1.
         11   -1    0    0    0    0 -0.00000000000E+00 -0.00000000000E+00 -0.45593999997E+02  0.45594000000E+02  0.51100000000E-03 0. -1.
    9900012    2    1    2    0    0 -0.21821256411E+02  0.69507832197E+01  0.33595908476E+02  0.50528859760E+02  0.29999999726E+02 0.  0.
         12    1    1    2    0    0  0.21821256411E+02 -0.69507832197E+01 -0.33595908476E+02  0.40659140240E+02  0.00000000000E+00 0. -1.
         11    1    3    3    0    0  0.50066107871E+01 -0.41840369435E+01  0.12857236533E+02  0.14418073666E+02  0.51100000000E-03 0. -1.
        -11    1    3    3    0    0 -0.12837874808E+02  0.39686181488E+01  0.12552756000E+02  0.18388383372E+02  0.51100000000E-03 0.  1.
        -12    1    3    3    0    0 -0.13989992390E+02  0.71662020144E+01  0.81859159440E+01  0.17722402722E+02  0.00000000000E+00 0.  1.
</event>
<event>
 7    1  0.2500839E-011  0.5052885E+02  0.7816164E-02  0.1300439E+00
        -11   -1    0    0    0    0  0.00000000000E+00  0.00000000000E+00  0.45593999997E+02  0.45594000000E+02  0.51100000000E-03 0.  1.
         11   -1    0    0    0    0 -0.00000000000E+00 -0.00000000000E+00 -0.45593999997E+02  0.45594000000E+02  0.51100000000E-03 0. -1.
    9900012    2    1    2    0    0 -0.34141978019E+02 -0.13800124183E+02  0.17235081213E+02  0.50528854474E+02  0.29999983660E+02 0.  0.
         12    1    1    2    0    0  0.34141978019E+02  0.13800124183E+02 -0.17235081213E+02  0.40659145526E+02  0.00000000000E+00 0. -1.
         11    1    3    3    0    0 -0.90949713408E+01 -0.32567664249E+01  0.12166648245E+02  0.15535519335E+02  0.51100000000E-03 0. -1.
        -11    1    3    3    0    0 -0.16769860404E+02  0.43006908309E+01  0.49155537076E+01  0.17996856062E+02  0.51100000000E-03 0.  1.
        -12    1    3    3    0    0 -0.82771462735E+01 -0.14844048589E+02  0.15287926000E+00  0.16996479077E+02  0.00000000000E+00 0.  1.
</event>
<event>
 7    1  0.2500839E-011  0.5052875E+02  0.7816164E-02  0.1300439E+00
        -11   -1    0    0    0    0  0.00000000000E+00  0.00000000000E+00  0.45593999997E+02  0.45594000000E+02  0.51100000000E-03 0.  1.
         11   -1    0    0    0    0 -0.00000000000E+00 -0.00000000000E+00 -0.45593999997E+02  0.45594000000E+02  0.51100000000E-03 0. -1.
    9900012    2    1    2    0    0 -0.30042863644E+02 -0.75010264270E+01  0.26350249580E+02  0.50528748822E+02  0.29999662518E+02 0.  0.
         12    1    1    2    0    0  0.30042863644E+02  0.75010264270E+01 -0.26350249580E+02  0.40659251178E+02  0.00000000000E+00 0. -1.
         11    1    3    3    0    0 -0.14746062642E+02 -0.11143740615E+01  0.71766183627E+00  0.14805513560E+02  0.51100000000E-03 0. -1.
        -11    1    3    3    0    0 -0.14324286054E+02  0.32103623564E+01  0.11672707673E+02  0.18754831434E+02  0.51100000000E-03 0.  1.
        -12    1    3    3    0    0 -0.97251494792E+00 -0.95970147219E+01  0.13959880071E+02  0.16968403828E+02  0.00000000000E+00 0.  1.
</event>
<event>
 7    1  0.2500839E-011  0.5052887E+02  0.7816164E-02  0.1300439E+00
        -11   -1    0    0    0    0  0.00000000000E+00  0.00000000000E+00  0.45593999997E+02  0.45594000000E+02  0.51100000000E-03 0.  1.
         11   -1    0    0    0    0 -0.00000000000E+00 -0.00000000000E+00 -0.45593999997E+02  0.45594000000E+02  0.51100000000E-03 0. -1.
    9900012    2    1    2    0    0 -0.15430848335E+02 -0.14383368485E+02  0.34758778149E+02  0.50528867843E+02  0.30000024296E+02 0.  0.
         12    1    1    2    0    0  0.15430848335E+02  0.14383368485E+02 -0.34758778149E+02  0.40659132157E+02  0.00000000000E+00 0. -1.
         11    1    3    3    0    0 -0.14370769590E+02 -0.75258010121E+01  0.19971478838E+02  0.25729684544E+02  0.51100000000E-03 0. -1.
        -11    1    3    3    0    0 -0.23763423737E+01 -0.10225668183E+02  0.17411246645E+02  0.20331325654E+02  0.51100000000E-03 0.  1.
         12    1    3    3    0    0  0.13162636292E+01  0.33681007102E+01 -0.26239473331E+01  0.44678576457E+01  0.00000000000E+00 0. -1.
</event>
<event>
 7    1  0.2500839E-011  0.5052886E+02  0.7816164E-02  0.1300439E+00
        -11   -1    0    0    0    0  0.00000000000E+00  0.00000000000E+00  0.45593999997E+02  0.45594000000E+02  0.51100000000E-03 0.  1.
         11   -1    0    0    0    0 -0.00000000000E+00 -0.00000000000E+00 -0.45593999997E+02  0.45594000000E+02  0.51100000000E-03 0. -1.
    9900012    2    1    2    0    0 -0.64340832994E+01 -0.69266743353E+01  0.39544774992E+02  0.50528862351E+02  0.30000007601E+02 0.  0.
         12    1    1    2    0    0  0.64340832994E+01  0.69266743353E+01 -0.39544774992E+02  0.40659137649E+02  0.00000000000E+00 0. -1.
         11    1    3    3    0    0  0.59881477686E+01  0.54738540529E+00  0.27699016882E+02  0.28344189545E+02  0.51100000000E-03 0. -1.
        -11    1    3    3    0    0 -0.20393597492E+01 -0.51565096845E+01  0.99326013381E+01  0.11375638440E+02  0.51100000000E-03 0.  1.
         12    1    3    3    0    0 -0.10382871319E+02 -0.23175500560E+01  0.19131567717E+01  0.10809034366E+02  0.00000000000E+00 0. -1.
</event>
<event>
 7    1  0.2500839E-011  0.5052886E+02  0.7816164E-02  0.1300439E+00
        -11   -1    0    0    0    0  0.00000000000E+00  0.00000000000E+00  0.45593999997E+02  0.45594000000E+02  0.51100000000E-03 0.  1.
         11   -1    0    0    0    0 -0.00000000000E+00 -0.00000000000E+00 -0.45593999997E+02  0.45594000000E+02  0.51100000000E-03 0. -1.
    9900012    2    1    2    0    0 -0.81711966975E+01 -0.31969725085E+02  0.23755711751E+02  0.50528860581E+02  0.30000002222E+02 0.  0.
         12    1    1    2    0    0  0.81711966975E+01  0.31969725085E+02 -0.23755711751E+02  0.40659139419E+02  0.00000000000E+00 0. -1.
         11    1    3    3    0    0 -0.32737396487E+01 -0.16967286121E+02  0.17092188982E+02  0.24305330569E+02  0.51100000000E-03 0. -1.
        -11    1    3    3    0    0  0.10187226503E+01 -0.18348418659E+02  0.62641376129E+01  0.19414986052E+02  0.51100000000E-03 0.  1.
         12    1    3    3    0    0 -0.59161796991E+01  0.33459796946E+01  0.39938515600E+00  0.68085439597E+01  0.00000000000E+00 0. -1.
</event>
<event>
 7    1  0.2500839E-011  0.5052886E+02  0.7816164E-02  0.1300439E+00
        -11   -1    0    0    0    0  0.00000000000E+00  0.00000000000E+00  0.45593999997E+02  0.45594000000E+02  0.51100000000E-03 0.  1.
         11   -1    0    0    0    0 -0.00000000000E+00 -0.00000000000E+00 -0.45593999997E+02  0.45594000000E+02  0.51100000000E-03 0. -1.
    9900012    2    1    2    0    0  0.34453692344E+02  0.13500404967E+02  0.16847777152E+02  0.50528862708E+02  0.30000008687E+02 0.  0.
         12    1    1    2    0    0 -0.34453692344E+02 -0.13500404967E+02 -0.16847777152E+02  0.40659137292E+02  0.00000000000E+00 0. -1.
         11    1    3    3    0    0  0.27214617299E+02  0.98986445050E+01  0.40599415458E+01  0.29242121731E+02  0.51100000000E-03 0. -1.
        -11    1    3    3    0    0  0.93998428057E+01  0.43168559019E+00  0.14337154569E+02  0.17149268166E+02  0.51100000000E-03 0.  1.
        -12    1    3    3    0    0 -0.21607677607E+01  0.31700748717E+01 -0.15493189634E+01  0.41374728106E+01  0.00000000000E+00 0.  1.
</event>
<event>
 7    1  0.2500839E-011  0.5052886E+02  0.7816164E-02  0.1300439E+00
        -11   -1    0    0    0    0  0.00000000000E+00  0.00000000000E+00  0.45593999997E+02  0.45594000000E+02  0.51100000000E-03 0.  1.
         11   -1    0    0    0    0 -0.00000000000E+00 -0.00000000000E+00 -0.45593999997E+02  0.45594000000E+02  0.51100000000E-03 0. -1.
    9900012    2    1    2    0    0  0.20717815023E+02 -0.10886123328E+02  0.33248005320E+02  0.50528863288E+02  0.30000010449E+02 0.  0.
         12    1    1    2    0    0 -0.20717815023E+02  0.10886123328E+02 -0.33248005320E+02  0.40659136712E+02  0.00000000000E+00 0. -1.
         11    1    3    3    0    0  0.18537186428E+02 -0.62077486798E+00  0.83491041776E+01  0.20340112658E+02  0.51100000000E-03 0. -1.
        -11    1    3    3    0    0 -0.34891971025E+01  0.39780893648E+00  0.12066569034E+02  0.12567212773E+02  0.51100000000E-03 0.  1.
        -12    1    3    3    0    0  0.56698256976E+01 -0.10663157397E+02  0.12832332108E+02  0.17621537857E+02  0.00000000000E+00 0.  1.
</event>
<event>
 7    1  0.2500839E-011  0.5052881E+02  0.7816164E-02  0.1300439E+00
        -11   -1    0    0    0    0  0.00000000000E+00  0.00000000000E+00  0.45593999997E+02  0.45594000000E+02  0.51100000000E-03 0. -1.
         11   -1    0    0    0    0 -0.00000000000E+00 -0.00000000000E+00 -0.45593999997E+02  0.45594000000E+02  0.51100000000E-03 0.  1.
    9900012    2    1    2    0    0 -0.10131063850E+02  0.31432790694E+02 -0.23717311933E+02  0.50528810745E+02  0.29999850739E+02 0.  0.
         12    1    1    2    0    0  0.10131063850E+02 -0.31432790694E+02  0.23717311933E+02  0.40659189255E+02  0.00000000000E+00 0. -1.
         11    1    3    3    0    0 -0.15005961123E+02  0.16640447540E+02 -0.28873310050E+01  0.22592477601E+02  0.51100000000E-03 0. -1.
        -11    1    3    3    0    0 -0.38252851717E-01  0.53378054259E+01 -0.14710703269E+02  0.15649230683E+02  0.51100000000E-03 0.  1.
        -12    1    3    3    0    0  0.49131501245E+01  0.94545377287E+01 -0.61192776591E+01  0.12287102461E+02  0.00000000000E+00 0.  1.
</event>
<event>
 7    1  0.2500839E-011  0.5052886E+02  0.7816164E-02  0.1300439E+00
        -11   -1    0    0    0    0  0.00000000000E+00  0.00000000000E+00  0.45593999997E+02  0.45594000000E+02  0.51100000000E-03 0. -1.
         11   -1    0    0    0    0 -0.00000000000E+00 -0.00000000000E+00 -0.45593999997E+02  0.45594000000E+02  0.51100000000E-03 0.  1.
    9900012    2    1    2    0    0 -0.14007795807E+02 -0.23272240795E+02 -0.30254753259E+02  0.50528860440E+02  0.30000001793E+02 0.  0.
         12    1    1    2    0    0  0.14007795807E+02  0.23272240795E+02  0.30254753259E+02  0.40659139560E+02  0.00000000000E+00 0. -1.
         11    1    3    3    0    0 -0.71778041566E+01 -0.88359542367E+01 -0.76313086201E+01  0.13705175347E+02  0.51100000000E-03 0. -1.
        -11    1    3    3    0    0  0.76948298150E+01 -0.12099639458E+02 -0.10870801840E+02  0.17994054957E+02  0.51100000000E-03 0.  1.
         12    1    3    3    0    0 -0.14524821465E+02 -0.23366471001E+01 -0.11752642799E+02  0.18829630135E+02  0.00000000000E+00 0. -1.
</event>
<event>
 7    1  0.2500839E-011  0.5052886E+02  0.7816164E-02  0.1300439E+00
        -11   -1    0    0    0    0  0.00000000000E+00  0.00000000000E+00  0.45593999997E+02  0.45594000000E+02  0.51100000000E-03 0. -1.
         11   -1    0    0    0    0 -0.00000000000E+00 -0.00000000000E+00 -0.45593999997E+02  0.45594000000E+02  0.51100000000E-03 0.  1.
    9900012    2    1    2    0    0  0.27557388493E+02 -0.29808451319E+02 -0.22830878446E+01  0.50528856862E+02  0.29999990919E+02 0.  0.
         12    1    1    2    0    0 -0.27557388493E+02  0.29808451319E+02  0.22830878446E+01  0.40659143138E+02  0.00000000000E+00 0. -1.
         11    1    3    3    0    0  0.97523746749E+01 -0.12699874423E+02  0.11558225498E+02  0.19748118874E+02  0.51100000000E-03 0. -1.
        -11    1    3    3    0    0 -0.18423166214E+01 -0.16781433612E+01 -0.93618583604E+00  0.26620931342E+01  0.51100000000E-03 0.  1.
        -12    1    3    3    0    0  0.19647330439E+02 -0.15430433535E+02 -0.12905127506E+02  0.28118644854E+02  0.00000000000E+00 0.  1.
</event>
<event>
 7    1  0.2500839E-011  0.5052886E+02  0.7816164E-02  0.1300439E+00
        -11   -1    0    0    0    0  0.00000000000E+00  0.00000000000E+00  0.45593999997E+02  0.45594000000E+02  0.51100000000E-03 0.  1.
         11   -1    0    0    0    0 -0.00000000000E+00 -0.00000000000E+00 -0.45593999997E+02  0.45594000000E+02  0.51100000000E-03 0. -1.
    9900012    2    1    2    0    0  0.42222311000E+01  0.29058614603E+02  0.28123569234E+02  0.50528862471E+02  0.30000007967E+02 0.  0.
         12    1    1    2    0    0 -0.42222311000E+01 -0.29058614603E+02 -0.28123569234E+02  0.40659137529E+02  0.00000000000E+00 0. -1.
         11    1    3    3    0    0  0.76832979358E+00 -0.38577531999E+01 -0.10659027207E+01  0.40753821041E+01  0.51100000000E-03 0. -1.
        -11    1    3    3    0    0 -0.51693480566E+01  0.94872731936E+01  0.58940434033E+01  0.12307325456E+02  0.51100000000E-03 0.  1.
        -12    1    3    3    0    0  0.86232493631E+01  0.23429094609E+02  0.23295428552E+02  0.34146154911E+02  0.00000000000E+00 0.  1.
</event>
<event>
 7    1  0.2500839E-011  0.5052886E+02  0.7816164E-02  0.1300439E+00
        -11   -1    0    0    0    0  0.00000000000E+00  0.00000000000E+00  0.45593999997E+02  0.45594000000E+02  0.51100000000E-03 0.  1.
         11   -1    0    0    0    0 -0.00000000000E+00 -0.00000000000E+00 -0.45593999997E+02  0.45594000000E+02  0.51100000000E-03 0. -1.
    9900012    2    1    2    0    0  0.25683711964E+02  0.11916143153E+02  0.29180784328E+02  0.50528859553E+02  0.29999999097E+02 0.  0.
         12    1    1    2    0    0 -0.25683711964E+02 -0.11916143153E+02 -0.29180784328E+02  0.40659140447E+02  0.00000000000E+00 0. -1.
         11    1    3    3    0    0  0.18205201660E+02  0.11803361750E+02  0.82388532577E+01  0.23208348053E+02  0.51100000000E-03 0. -1.
        -11    1    3    3    0    0  0.37582260401E+01  0.76089076237E+01  0.14333143808E+02  0.16657093080E+02  0.51100000000E-03 0.  1.
         12    1    3    3    0    0  0.37202842635E+01 -0.74961262208E+01  0.66087872630E+01  0.10663418420E+02  0.00000000000E+00 0. -1.
</event>
<event>
 7    1  0.2500839E-011  0.5052889E+02  0.7816164E-02  0.1300439E+00
        -11   -1    0    0    0    0  0.00000000000E+00  0.00000000000E+00  0.45593999997E+02  0.45594000000E+02  0.51100000000E-03 0. -1.
         11   -1    0    0    0    0 -0.00000000000E+00 -0.00000000000E+00 -0.45593999997E+02  0.45594000000E+02  0.51100000000E-03 0.  1.
    9900012    2    1    2    0    0 -0.23499440560E+02 -0.17284750157E+02 -0.28322724178E+02  0.50528892786E+02  0.30000100111E+02 0.  0.
         12    1    1    2    0    0  0.23499440560E+02  0.17284750157E+02  0.28322724178E+02  0.40659107214E+02  0.00000000000E+00 0. -1.
         11    1    3    3    0    0 -0.60977573000E+01 -0.83283525389E+01 -0.95792819055E+01  0.14082142670E+02  0.51100000000E-03 0.  1.
        -11    1    3    3    0    0 -0.78978635211E+01 -0.16876933887E+02 -0.89685614252E+01  0.20679512565E+02  0.51100000000E-03 0. -1.
         12    1    3    3    0    0 -0.95038197389E+01  0.79205362686E+01 -0.97748808470E+01  0.15767237551E+02  0.00000000000E+00 0. -1.
</event>
<event>
 7    1  0.2500839E-011  0.5052886E+02  0.7816164E-02  0.1300439E+00
        -11   -1    0    0    0    0  0.00000000000E+00  0.00000000000E+00  0.45593999997E+02  0.45594000000E+02  0.51100000000E-03 0.  1.
         11   -1    0    0    0    0 -0.00000000000E+00 -0.00000000000E+00 -0.45593999997E+02  0.45594000000E+02  0.51100000000E-03 0. -1.
    9900012    2    1    2    0    0  0.18960110001E+02 -0.62513196186E+01  0.35420345619E+02  0.50528860167E+02  0.30000000962E+02 0.  0.
         12    1    1    2    0    0 -0.18960110001E+02  0.62513196186E+01 -0.35420345619E+02  0.40659139833E+02  0.00000000000E+00 0. -1.
         11    1    3    3    0    0  0.71578764374E+01  0.28738132476E+01  0.39400639675E+01  0.86612990945E+01  0.51100000000E-03 0. -1.
        -11    1    3    3    0    0  0.85788662800E+01  0.69952886476E+01  0.11000794590E+02  0.15606040234E+02  0.51100000000E-03 0.  1.
        -12    1    3    3    0    0  0.32233672837E+01 -0.16120421514E+02  0.20479487062E+02  0.26261520838E+02  0.00000000000E+00 0.  1.
</event>
<event>
 7    1  0.2500839E-011  0.5052887E+02  0.7816164E-02  0.1300439E+00
        -11   -1    0    0    0    0  0.00000000000E+00  0.00000000000E+00  0.45593999997E+02  0.45594000000E+02  0.51100000000E-03 0.  1.
         11   -1    0    0    0    0 -0.00000000000E+00 -0.00000000000E+00 -0.45593999997E+02  0.45594000000E+02  0.51100000000E-03 0. -1.
    9900012    2    1    2    0    0  0.36245706914E+01 -0.39314197091E+02  0.97170734971E+01  0.50528866672E+02  0.30000020736E+02 0.  0.
         12    1    1    2    0    0 -0.36245706914E+01  0.39314197091E+02 -0.97170734971E+01  0.40659133328E+02  0.00000000000E+00 0. -1.
         11    1    3    3    0    0 -0.28306140218E+01 -0.27743538570E+02  0.14368854147E+02  0.31371647676E+02  0.51100000000E-03 0. -1.
        -11    1    3    3    0    0  0.52087060390E+01 -0.11129760903E+02  0.19344187165E+01  0.12439621071E+02  0.51100000000E-03 0.  1.
        -12    1    3    3    0    0  0.12464786743E+01 -0.44089761831E+00 -0.65861993663E+01  0.67175979255E+01  0.00000000000E+00 0.  1.
</event>
<event>
 7    1  0.2500839E-011  0.5052886E+02  0.7816164E-02  0.1300439E+00
        -11   -1    0    0    0    0  0.00000000000E+00  0.00000000000E+00  0.45593999997E+02  0.45594000000E+02  0.51100000000E-03 0.  1.
         11   -1    0    0    0    0 -0.00000000000E+00 -0.00000000000E+00 -0.45593999997E+02  0.45594000000E+02  0.51100000000E-03 0. -1.
    9900012    2    1    2    0    0  0.18555914225E+02  0.15506274371E+02  0.32686373292E+02  0.50528862078E+02  0.30000006772E+02 0.  0.
         12    1    1    2    0    0 -0.18555914225E+02 -0.15506274371E+02 -0.32686373292E+02  0.40659137922E+02  0.00000000000E+00 0. -1.
         11    1    3    3    0    0  0.13814233791E+02  0.71389471420E+01  0.12420706551E+01  0.15599370542E+02  0.51100000000E-03 0. -1.
        -11    1    3    3    0    0  0.50937473191E+01 -0.14153139796E+01  0.89020388463E+01  0.10353534242E+02  0.51100000000E-03 0.  1.
         12    1    3    3    0    0 -0.35206688546E+00  0.97826412088E+01  0.22542263791E+02  0.24575957294E+02  0.00000000000E+00 0. -1.
</event>
<event>
 7    1  0.2500839E-011  0.5052884E+02  0.7816164E-02  0.1300439E+00
        -11   -1    0    0    0    0  0.00000000000E+00  0.00000000000E+00  0.45593999997E+02  0.45594000000E+02  0.51100000000E-03 0. -1.
         11   -1    0    0    0    0 -0.00000000000E+00 -0.00000000000E+00 -0.45593999997E+02  0.45594000000E+02  0.51100000000E-03 0.  1.
    9900012    2    1    2    0    0 -0.73802126091E+01 -0.14870748381E+02 -0.37115498352E+02  0.50528844653E+02  0.29999953807E+02 0.  0.
         12    1    1    2    0    0  0.73802126091E+01  0.14870748381E+02  0.37115498352E+02  0.40659155347E+02  0.00000000000E+00 0. -1.
         11    1    3    3    0    0 -0.55891722458E+01  0.17829006111E+01 -0.69720919703E+01  0.91119508167E+01  0.51100000000E-03 0.  1.
        -11    1    3    3    0    0 -0.84438932932E+00 -0.22357910022E+02 -0.26010797074E+02  0.34309629823E+02  0.51100000000E-03 0. -1.
         12    1    3    3    0    0 -0.94665103396E+00  0.57042610291E+01 -0.41326093082E+01  0.71072640139E+01  0.00000000000E+00 0. -1.
</event>
<event>
 7    1  0.2500839E-011  0.5052886E+02  0.7816164E-02  0.1300439E+00
        -11   -1    0    0    0    0  0.00000000000E+00  0.00000000000E+00  0.45593999997E+02  0.45594000000E+02  0.51100000000E-03 0.  1.
         11   -1    0    0    0    0 -0.00000000000E+00 -0.00000000000E+00 -0.45593999997E+02  0.45594000000E+02  0.51100000000E-03 0. -1.
    9900012    2    1    2    0    0  0.39879538636E+02 -0.77013628600E+01 -0.18646757264E+01  0.50528860716E+02  0.30000002634E+02 0.  0.
         12    1    1    2    0    0 -0.39879538636E+02  0.77013628600E+01  0.18646757264E+01  0.40659139284E+02  0.00000000000E+00 0. -1.
         11    1    3    3    0    0  0.18667875253E+02  0.15686159335E+01  0.50948697114E+01  0.19414113939E+02  0.51100000000E-03 0. -1.
        -11    1    3    3    0    0  0.35057864096E+01 -0.62388172891E+01  0.56913785034E+01  0.91435862246E+01  0.51100000000E-03 0.  1.
         12    1    3    3    0    0  0.17705876973E+02 -0.30311615043E+01 -0.12650923941E+02  0.21971160553E+02  0.00000000000E+00 0. -1.
</event>
<event>
 7    1  0.2500839E-011  0.5052888E+02  0.7816164E-02  0.1300439E+00
        -11   -1    0    0    0    0  0.00000000000E+00  0.00000000000E+00  0.45593999997E+02  0.45594000000E+02  0.51100000000E-03 0. -1.
         11   -1    0    0    0    0 -0.00000000000E+00 -0.00000000000E+00 -0.45593999997E+02  0.45594000000E+02  0.51100000000E-03 0.  1.
    9900012    2    1    2    0    0 -0.16090454810E+02 -0.34891574118E+02 -0.13298108705E+02  0.50528875863E+02  0.30000048674E+02 0.  0.
         12    1    1    2    0    0  0.16090454810E+02  0.34891574118E+02  0.13298108705E+02  0.40659124137E+02  0.00000000000E+00 0. -1.
         11    1    3    3    0    0 -0.10388054668E+02 -0.24032862778E+01 -0.29571891199E+01  0.11064919000E+02  0.51100000000E-03 0.  1.
        -11    1    3    3    0    0 -0.36763360358E+01 -0.10160033255E+02  0.53911447111E+01  0.12075022316E+02  0.51100000000E-03 0. -1.
        -12    1    3    3    0    0 -0.20260641058E+01 -0.22328254586E+02 -0.15732064296E+02  0.27388934547E+02  0.00000000000E+00 0.  1.
</event>
<event>
 7    1  0.2500839E-011  0.5052894E+02  0.7816164E-02  0.1300439E+00
        -11   -1    0    0    0    0  0.00000000000E+00  0.00000000000E+00  0.45593999997E+02  0.45594000000E+02  0.51100000000E-03 0.  1.
         11   -1    0    0    0    0 -0.00000000000E+00 -0.00000000000E+00 -0.45593999997E+02  0.45594000000E+02  0.51100000000E-03 0. -1.
    9900012    2    1    2    0    0  0.25139165381E+02 -0.20186646646E+02  0.24772580382E+02  0.50528941014E+02  0.30000246704E+02 0.  0.
         12    1    1    2    0    0 -0.25139165381E+02  0.20186646646E+02 -0.24772580382E+02  0.40659058986E+02  0.00000000000E+00 0. -1.
         11    1    3    3    0    0  0.15714957452E+02 -0.87452199626E+01  0.21942664566E+02  0.28371099528E+02  0.51100000000E-03 0. -1.
        -11    1    3    3    0    0  0.12674846719E+02 -0.35287938396E+01  0.29942721154E-01  0.13156938175E+02  0.51100000000E-03 0.  1.
         12    1    3    3    0    0 -0.32506387900E+01 -0.79126328442E+01  0.27999730944E+01  0.90009033102E+01  0.00000000000E+00 0. -1.
</event>
<event>
 7    1  0.2500839E-011  0.5052881E+02  0.7816164E-02  0.1300439E+00
        -11   -1    0    0    0    0  0.00000000000E+00  0.00000000000E+00  0.45593999997E+02  0.45594000000E+02  0.51100000000E-03 0. -1.
         11   -1    0    0    0    0 -0.00000000000E+00 -0.00000000000E+00 -0.45593999997E+02  0.45594000000E+02  0.51100000000E-03 0.  1.
    9900012    2    1    2    0    0  0.10025442358E+02  0.33023053522E+02 -0.21497406890E+02  0.50528805943E+02  0.29999836143E+02 0.  0.
         12    1    1    2    0    0 -0.10025442358E+02 -0.33023053522E+02  0.21497406890E+02  0.40659194057E+02  0.00000000000E+00 0. -1.
         11    1    3    3    0    0  0.90866587234E+01  0.17222196579E+02 -0.26189211123E+00  0.19474085589E+02  0.51100000000E-03 0.  1.
        -11    1    3    3    0    0  0.23828838158E+00 -0.31347205032E+01 -0.92353011195E+00  0.32766083249E+01  0.51100000000E-03 0. -1.
        -12    1    3    3    0    0  0.70049525310E+00  0.18935577446E+02 -0.20311984667E+02  0.27778112029E+02  0.00000000000E+00 0.  1.
</event>
<event>
 7    1  0.2500839E-011  0.5052886E+02  0.7816164E-02  0.1300439E+00
        -11   -1    0    0    0    0  0.00000000000E+00  0.00000000000E+00  0.45593999997E+02  0.45594000000E+02  0.51100000000E-03 0.  1.
         11   -1    0    0    0    0 -0.00000000000E+00 -0.00000000000E+00 -0.45593999997E+02  0.45594000000E+02  0.51100000000E-03 0. -1.
    9900012    2    1    2    0    0 -0.38568498704E+02  0.11727811712E+02  0.53004804759E+01  0.50528858923E+02  0.29999997183E+02 0.  0.
         12    1    1    2    0    0  0.38568498704E+02 -0.11727811712E+02 -0.53004804759E+01  0.40659141077E+02  0.00000000000E+00 0. -1.
         11    1    3    3    0    0 -0.44239457286E+01  0.50582116549E+01  0.44786734400E+01  0.80756001014E+01  0.51100000000E-03 0.  1.
        -11    1    3    3    0    0 -0.13049470170E+02  0.94108571384E+01  0.10364630800E+02  0.19138403164E+02  0.51100000000E-03 0. -1.
         12    1    3    3    0    0 -0.21095082806E+02 -0.27412570808E+01 -0.95428237637E+01  0.23314855658E+02  0.00000000000E+00 0. -1.
</event>
<event>
 7    1  0.2500839E-011  0.5052886E+02  0.7816164E-02  0.1300439E+00
        -11   -1    0    0    0    0  0.00000000000E+00  0.00000000000E+00  0.45593999997E+02  0.45594000000E+02  0.51100000000E-03 0. -1.
         11   -1    0    0    0    0 -0.00000000000E+00 -0.00000000000E+00 -0.45593999997E+02  0.45594000000E+02  0.51100000000E-03 0.  1.
    9900012    2    1    2    0    0 -0.29990768993E+01 -0.15922464731E+02 -0.37291367753E+02  0.50528862599E+02  0.30000008355E+02 0.  0.
         12    1    1    2    0    0  0.29990768993E+01  0.15922464731E+02  0.37291367753E+02  0.40659137401E+02  0.00000000000E+00 0. -1.
         11    1    3    3    0    0  0.76813553368E+01 -0.62848003309E+01 -0.27983500445E+02  0.29691383135E+02  0.51100000000E-03 0.  1.
        -11    1    3    3    0    0 -0.46453295189E+01  0.12527591267E+01  0.70148485670E+00  0.48621572408E+01  0.51100000000E-03 0. -1.
        -12    1    3    3    0    0 -0.60351027171E+01 -0.10890423527E+02 -0.10009352164E+02  0.15975322223E+02  0.00000000000E+00 0.  1.
</event>
<event>
 7    1  0.2500839E-011  0.5052886E+02  0.7816164E-02  0.1300439E+00
        -11   -1    0    0    0    0  0.00000000000E+00  0.00000000000E+00  0.45593999997E+02  0.45594000000E+02  0.51100000000E-03 0.  1.
         11   -1    0    0    0    0 -0.00000000000E+00 -0.00000000000E+00 -0.45593999997E+02  0.45594000000E+02  0.51100000000E-03 0. -1.
    9900012    2    1    2    0    0  0.25843157081E+02  0.88505180448E+01  0.30115860403E+02  0.50528862215E+02  0.30000007190E+02 0.  0.
         12    1    1    2    0    0 -0.25843157081E+02 -0.88505180448E+01 -0.30115860403E+02  0.40659137785E+02  0.00000000000E+00 0. -1.
         11    1    3    3    0    0  0.18491058245E+02  0.53524264828E+01  0.16504777668E+02  0.25356959408E+02  0.51100000000E-03 0. -1.
        -11    1    3    3    0    0  0.45760737004E+01  0.11608291999E+02  0.67126382659E+01  0.14168712235E+02  0.51100000000E-03 0.  1.
         12    1    3    3    0    0  0.27760251360E+01 -0.81102004371E+01  0.68984444689E+01  0.11003190573E+02  0.00000000000E+00 0. -1.
</event>
<event>
 7    1  0.2500839E-011  0.5052883E+02  0.7816164E-02  0.1300439E+00
        -11   -1    0    0    0    0  0.00000000000E+00  0.00000000000E+00  0.45593999997E+02  0.45594000000E+02  0.51100000000E-03 0. -1.
         11   -1    0    0    0    0 -0.00000000000E+00 -0.00000000000E+00 -0.45593999997E+02  0.45594000000E+02  0.51100000000E-03 0.  1.
    9900012    2    1    2    0    0  0.55215159132E+01  0.62378377015E+01 -0.39796614703E+02  0.50528827615E+02  0.29999902019E+02 0.  0.
         12    1    1    2    0    0 -0.55215159132E+01 -0.62378377015E+01  0.39796614703E+02  0.40659172385E+02  0.00000000000E+00 0. -1.
         11    1    3    3    0    0 -0.13012733793E+01 -0.62648153480E+01 -0.40299184450E+01  0.75618428102E+01  0.51100000000E-03 0. -1.
        -11    1    3    3    0    0  0.13031013593E+01 -0.23442198530E+01 -0.21446813879E+02  0.21613867440E+02  0.51100000000E-03 0.  1.
         12    1    3    3    0    0  0.55196879332E+01  0.14846872902E+02 -0.14319882379E+02  0.21353117365E+02  0.00000000000E+00 0. -1.
</event>
<event>
 7    1  0.2500839E-011  0.5052890E+02  0.7816164E-02  0.1300439E+00
        -11   -1    0    0    0    0  0.00000000000E+00  0.00000000000E+00  0.45593999997E+02  0.45594000000E+02  0.51100000000E-03 0.  1.
         11   -1    0    0    0    0 -0.00000000000E+00 -0.00000000000E+00 -0.45593999997E+02  0.45594000000E+02  0.51100000000E-03 0. -1.
    9900012    2    1    2    0    0 -0.28314993320E+02  0.22451099846E+02  0.18637919572E+02  0.50528895521E+02  0.30000108427E+02 0.  0.
         12    1    1    2    0    0  0.28314993320E+02 -0.22451099846E+02 -0.18637919572E+02  0.40659104479E+02  0.00000000000E+00 0. -1.
         11    1    3    3    0    0 -0.21615005627E+01 -0.31939086053E+01  0.45828555357E+01  0.59896328755E+01  0.51100000000E-03 0. -1.
        -11    1    3    3    0    0 -0.36850729862E+01 -0.14736363382E+01  0.78268300920E+01  0.87755704385E+01  0.51100000000E-03 0.  1.
         12    1    3    3    0    0 -0.22468419771E+02  0.27118644789E+02  0.62282339441E+01  0.35763692207E+02  0.00000000000E+00 0. -1.
</event>
<event>
 7    1  0.2500839E-011  0.5052886E+02  0.7816164E-02  0.1300439E+00
        -11   -1    0    0    0    0  0.00000000000E+00  0.00000000000E+00  0.45593999997E+02  0.45594000000E+02  0.51100000000E-03 0. -1.
         11   -1    0    0    0    0 -0.00000000000E+00 -0.00000000000E+00 -0.45593999997E+02  0.45594000000E+02  0.51100000000E-03 0.  1.
    9900012    2    1    2    0    0 -0.33454625472E+02  0.22906419075E+02 -0.30412991845E+01  0.50528862023E+02  0.30000006604E+02 0.  0.
         12    1    1    2    0    0  0.33454625472E+02 -0.22906419075E+02  0.30412991845E+01  0.40659137977E+02  0.00000000000E+00 0. -1.
         11    1    3    3    0    0 -0.12848505439E+02  0.74045352853E+01  0.72166044012E+01  0.16492137949E+02  0.51100000000E-03 0. -1.
        -11    1    3    3    0    0 -0.21892143977E+02  0.18759944824E+02 -0.10034507615E+02  0.30526919941E+02  0.51100000000E-03 0.  1.
         12    1    3    3    0    0  0.12860239440E+01 -0.32580610344E+01 -0.22339597045E+00  0.35098041324E+01  0.00000000000E+00 0. -1.
</event>
<event>
 7    1  0.2500839E-011  0.5052887E+02  0.7816164E-02  0.1300439E+00
        -11   -1    0    0    0    0  0.00000000000E+00  0.00000000000E+00  0.45593999997E+02  0.45594000000E+02  0.51100000000E-03 0. -1.
         11   -1    0    0    0    0 -0.00000000000E+00 -0.00000000000E+00 -0.45593999997E+02  0.45594000000E+02  0.51100000000E-03 0.  1.
    9900012    2    1    2    0    0  0.21829223108E+02 -0.23266744842E+02  0.25205330524E+02  0.50528867153E+02  0.30000022200E+02 0.  0.
         12    1    1    2    0    0 -0.21829223108E+02  0.23266744842E+02 -0.25205330524E+02  0.40659132847E+02  0.00000000000E+00 0. -1.
         11    1    3    3    0    0  0.15878824609E+02 -0.69514418318E+01  0.15209245318E+02  0.23060372024E+02  0.51100000000E-03 0. -1.
        -11    1    3    3    0    0  0.91517053023E+01 -0.19091437644E+02  0.94892698594E+01  0.23200925498E+02  0.51100000000E-03 0.  1.
         12    1    3    3    0    0 -0.32013068038E+01  0.27761346340E+01  0.50681534696E+00  0.42675696308E+01  0.00000000000E+00 0. -1.
</event>
<event>
 7    1  0.2500839E-011  0.5052892E+02  0.7816164E-02  0.1300439E+00
        -11   -1    0    0    0    0  0.00000000000E+00  0.00000000000E+00  0.45593999997E+02  0.45594000000E+02  0.51100000000E-03 0. -1.
         11   -1    0    0    0    0 -0.00000000000E+00 -0.00000000000E+00 -0.45593999997E+02  0.45594000000E+02  0.51100000000E-03 0.  1.
    9900012    2    1    2    0    0 -0.45899284165E+01 -0.32422576979E+02 -0.24101234991E+02  0.50528923905E+02  0.30000194700E+02 0.  0.
         12    1    1    2    0    0  0.45899284165E+01  0.32422576979E+02  0.24101234991E+02  0.40659076095E+02  0.00000000000E+00 0. -1.
         11    1    3    3    0    0  0.33260829051E+01 -0.12313564179E+02 -0.11674923168E+02  0.17291342387E+02  0.51100000000E-03 0. -1.
        -11    1    3    3    0    0 -0.90697098413E+01 -0.30151615093E+01 -0.12952042603E+02  0.16096777422E+02  0.51100000000E-03 0.  1.
        -12    1    3    3    0    0  0.11536985197E+01 -0.17093851290E+02  0.52573077971E+00  0.17140804096E+02  0.00000000000E+00 0.  1.
</event>
<event>
 7    1  0.2500839E-011  0.5052881E+02  0.7816164E-02  0.1300439E+00
        -11   -1    0    0    0    0  0.00000000000E+00  0.00000000000E+00  0.45593999997E+02  0.45594000000E+02  0.51100000000E-03 0.  1.
         11   -1    0    0    0    0 -0.00000000000E+00 -0.00000000000E+00 -0.45593999997E+02  0.45594000000E+02  0.51100000000E-03 0. -1.
    9900012    2    1    2    0    0  0.27293635430E+02 -0.28158871759E+02  0.10738016798E+02  0.50528811635E+02  0.29999853446E+02 0.  0.
         12    1    1    2    0    0 -0.27293635430E+02  0.28158871759E+02 -0.10738016798E+02  0.40659188365E+02  0.00000000000E+00 0. -1.
         11    1    3    3    0    0  0.28469085977E+01  0.54922938239E+00  0.35448777003E+01  0.45795960138E+01  0.51100000000E-03 0. -1.
        -11    1    3    3    0    0 -0.35376598965E+01  0.16634657753E+01 -0.49771767942E+00  0.39407967568E+01  0.51100000000E-03 0.  1.
        -12    1    3    3    0    0  0.27984386729E+02 -0.30371566916E+02  0.76908567772E+01  0.42008418865E+02  0.00000000000E+00 0.  1.
</event>
<event>
 7    1  0.2500839E-011  0.5052886E+02  0.7816164E-02  0.1300439E+00
        -11   -1    0    0    0    0  0.00000000000E+00  0.00000000000E+00  0.45593999997E+02  0.45594000000E+02  0.51100000000E-03 0. -1.
         11   -1    0    0    0    0 -0.00000000000E+00 -0.00000000000E+00 -0.45593999997E+02  0.45594000000E+02  0.51100000000E-03 0.  1.
    9900012    2    1    2    0    0  0.38144623826E+02  0.95425435099E+01 -0.10348585165E+02  0.50528859843E+02  0.29999999977E+02 0.  0.
         12    1    1    2    0    0 -0.38144623826E+02 -0.95425435099E+01  0.10348585165E+02  0.40659140157E+02  0.00000000000E+00 0. -1.
         11    1    3    3    0    0  0.72683024918E+01 -0.69280873322E+01 -0.52888814120E+01  0.11348959514E+02  0.51100000000E-03 0. -1.
        -11    1    3    3    0    0  0.57954632519E+01  0.60963939673E+01 -0.83344650033E+01  0.11841314153E+02  0.51100000000E-03 0.  1.
         12    1    3    3    0    0  0.25080858082E+02  0.10374236875E+02  0.32747612506E+01  0.27338586176E+02  0.00000000000E+00 0. -1.
</event>
<event>
 7    1  0.2500839E-011  0.5052886E+02  0.7816164E-02  0.1300439E+00
        -11   -1    0    0    0    0  0.00000000000E+00  0.00000000000E+00  0.45593999997E+02  0.45594000000E+02  0.51100000000E-03 0.  1.
         11   -1    0    0    0    0 -0.00000000000E+00 -0.00000000000E+00 -0.45593999997E+02  0.45594000000E+02  0.51100000000E-03 0. -1.
    9900012    2    1    2    0    0  0.35695014389E+02 -0.96967137747E+01  0.16882110036E+02  0.50528856508E+02  0.29999989841E+02 0.  0.
         12    1    1    2    0    0 -0.35695014389E+02  0.96967137747E+01 -0.16882110036E+02  0.40659143492E+02  0.00000000000E+00 0. -1.
         11    1    3    3    0    0  0.17431935916E+02 -0.34535543179E+01  0.41155050906E+00  0.17775511280E+02  0.51100000000E-03 0. -1.
        -11    1    3    3    0    0  0.33779287519E+01  0.61817831981E+01 -0.39451886184E+00  0.70555291477E+01  0.51100000000E-03 0.  1.
         12    1    3    3    0    0  0.14885149722E+02 -0.12424942655E+02  0.16865078388E+02  0.25697816080E+02  0.00000000000E+00 0. -1.
</event>
<event>
 7    1  0.2500839E-011  0.5052886E+02  0.7816164E-02  0.1300439E+00
        -11   -1    0    0    0    0  0.00000000000E+00  0.00000000000E+00  0.45593999997E+02  0.45594000000E+02  0.51100000000E-03 0.  1.
         11   -1    0    0    0    0 -0.00000000000E+00 -0.00000000000E+00 -0.45593999997E+02  0.45594000000E+02  0.51100000000E-03 0. -1.
    9900012    2    1    2    0    0  0.10844414731E+02 -0.38623055767E+02  0.66199740659E+01  0.50528858048E+02  0.29999994524E+02 0.  0.
         12    1    1    2    0    0 -0.10844414731E+02  0.38623055767E+02 -0.66199740659E+01  0.40659141952E+02  0.00000000000E+00 0. -1.
         11    1    3    3    0    0 -0.28572976847E+01 -0.82871380355E+01 -0.54311959573E+01  0.10312065587E+02  0.51100000000E-03 0. -1.
        -11    1    3    3    0    0  0.15582692456E+02 -0.19229463329E+02  0.15217876520E+01  0.24797346673E+02  0.51100000000E-03 0.  1.
         12    1    3    3    0    0 -0.18809800408E+01 -0.11106454403E+02  0.10529382371E+02  0.15419445789E+02  0.00000000000E+00 0. -1.
</event>
<event>
 7    1  0.2500839E-011  0.5052886E+02  0.7816164E-02  0.1300439E+00
        -11   -1    0    0    0    0  0.00000000000E+00  0.00000000000E+00  0.45593999997E+02  0.45594000000E+02  0.51100000000E-03 0.  1.
         11   -1    0    0    0    0 -0.00000000000E+00 -0.00000000000E+00 -0.45593999997E+02  0.45594000000E+02  0.51100000000E-03 0. -1.
    9900012    2    1    2    0    0  0.27326435455E+02  0.28166776839E+02  0.10633160203E+02  0.50528862182E+02  0.30000007088E+02 0.  0.
         12    1    1    2    0    0 -0.27326435455E+02 -0.28166776839E+02 -0.10633160203E+02  0.40659137818E+02  0.00000000000E+00 0. -1.
         11    1    3    3    0    0  0.10538581645E+02 -0.16098616642E+01 -0.30057802214E+01  0.11076464809E+02  0.51100000000E-03 0. -1.
        -11    1    3    3    0    0  0.15966486252E+02  0.14208007797E+02  0.89619436810E+01  0.23175689927E+02  0.51100000000E-03 0.  1.
         12    1    3    3    0    0  0.82136755888E+00  0.15568630706E+02  0.46769967432E+01  0.16276707446E+02  0.00000000000E+00 0. -1.
</event>
<event>
 7    1  0.2500839E-011  0.5052886E+02  0.7816164E-02  0.1300439E+00
        -11   -1    0    0    0    0  0.00000000000E+00  0.00000000000E+00  0.45593999997E+02  0.45594000000E+02  0.51100000000E-03 0.  1.
         11   -1    0    0    0    0 -0.00000000000E+00 -0.00000000000E+00 -0.45593999997E+02  0.45594000000E+02  0.51100000000E-03 0. -1.
    9900012    2    1    2    0    0 -0.29850694976E+02 -0.13518080852E+02  0.24069967631E+02  0.50528857827E+02  0.29999993852E+02 0.  0.
         12    1    1    2    0    0  0.29850694976E+02  0.13518080852E+02 -0.24069967631E+02  0.40659142173E+02  0.00000000000E+00 0. -1.
         11    1    3    3    0    0 -0.12697411808E+02  0.57286563889E+01  0.91261798830E+01  0.16653195794E+02  0.51100000000E-03 0. -1.
        -11    1    3    3    0    0 -0.89887721503E+01  0.29028597334E+00  0.25812769117E+01  0.93565635504E+01  0.51100000000E-03 0.  1.
        -12    1    3    3    0    0 -0.81645110177E+01 -0.19537023214E+02  0.12362510836E+02  0.24519098483E+02  0.00000000000E+00 0.  1.
</event>
<event>
 7    1  0.2500839E-011  0.5052887E+02  0.7816164E-02  0.1300439E+00
        -11   -1    0    0    0    0  0.00000000000E+00  0.00000000000E+00  0.45593999997E+02  0.45594000000E+02  0.51100000000E-03 0.  1.
         11   -1    0    0    0    0 -0.00000000000E+00 -0.00000000000E+00 -0.45593999997E+02  0.45594000000E+02  0.51100000000E-03 0. -1.
    9900012    2    1    2    0    0 -0.18262432997E+02 -0.31410667093E+02  0.18248800260E+02  0.50528866006E+02  0.30000018712E+02 0.  0.
         12    1    1    2    0    0  0.18262432997E+02  0.31410667093E+02 -0.18248800260E+02  0.40659133994E+02  0.00000000000E+00 0. -1.
         11    1    3    3    0    0  0.58612432123E+01 -0.10367663344E+02  0.40550847941E+00  0.11916671205E+02  0.51100000000E-03 0. -1.
        -11    1    3    3    0    0 -0.10569986473E+02 -0.16851214858E+02  0.85454091376E+01  0.21649759210E+02  0.51100000000E-03 0.  1.
        -12    1    3    3    0    0 -0.13553689736E+02 -0.41917888910E+01  0.92978826431E+01  0.16962435592E+02  0.00000000000E+00 0.  1.
</event>
<event>
 7    1  0.2500839E-011  0.5052886E+02  0.7816164E-02  0.1300439E+00
        -11   -1    0    0    0    0  0.00000000000E+00  0.00000000000E+00  0.45593999997E+02  0.45594000000E+02  0.51100000000E-03 0.  1.
         11   -1    0    0    0    0 -0.00000000000E+00 -0.00000000000E+00 -0.45593999997E+02  0.45594000000E+02  0.51100000000E-03 0. -1.
    9900012    2    1    2    0    0  0.98837800052E+01 -0.39360932222E+02  0.24886348623E+01  0.50528863314E+02  0.30000010530E+02 0.  0.
         12    1    1    2    0    0 -0.98837800052E+01  0.39360932222E+02 -0.24886348623E+01  0.40659136686E+02  0.00000000000E+00 0. -1.
         11    1    3    3    0    0 -0.10738305743E+00 -0.20911425664E+02  0.10333501856E+02  0.23325533548E+02  0.51100000000E-03 0. -1.
        -11    1    3    3    0    0  0.65356723790E+01 -0.43507425491E+01  0.36776489347E+01  0.86700101570E+01  0.51100000000E-03 0.  1.
         12    1    3    3    0    0  0.34554906836E+01 -0.14098764009E+02 -0.11522515928E+02  0.18533319610E+02  0.00000000000E+00 0. -1.
</event>
<event>
 7    1  0.2500839E-011  0.5052885E+02  0.7816164E-02  0.1300439E+00
        -11   -1    0    0    0    0  0.00000000000E+00  0.00000000000E+00  0.45593999997E+02  0.45594000000E+02  0.51100000000E-03 0. -1.
         11   -1    0    0    0    0 -0.00000000000E+00 -0.00000000000E+00 -0.45593999997E+02  0.45594000000E+02  0.51100000000E-03 0.  1.
    9900012    2    1    2    0    0 -0.25895235687E+02 -0.27236495047E+02 -0.15516966102E+02  0.50528854280E+02  0.29999983068E+02 0.  0.
         12    1    1    2    0    0  0.25895235687E+02  0.27236495047E+02  0.15516966102E+02  0.40659145720E+02  0.00000000000E+00 0. -1.
         11    1    3    3    0    0 -0.14028580238E+02 -0.34825082708E+01 -0.15615681997E+02  0.21278591397E+02  0.51100000000E-03 0. -1.
        -11    1    3    3    0    0 -0.11701860709E+02 -0.97164150103E+01  0.20501920939E+00  0.15211321371E+02  0.51100000000E-03 0.  1.
         12    1    3    3    0    0 -0.16479473949E+00 -0.14037571766E+02 -0.10630331508E+00  0.14038941512E+02  0.00000000000E+00 0. -1.
</event>
<event>
 7    1  0.2500839E-011  0.5052887E+02  0.7816164E-02  0.1300439E+00
        -11   -1    0    0    0    0  0.00000000000E+00  0.00000000000E+00  0.45593999997E+02  0.45594000000E+02  0.51100000000E-03 0.  1.
         11   -1    0    0    0    0 -0.00000000000E+00 -0.00000000000E+00 -0.45593999997E+02  0.45594000000E+02  0.51100000000E-03 0. -1.
    9900012    2    1    2    0    0  0.15454972238E+02  0.66351134582E+01  0.37017351446E+02  0.50528865657E+02  0.30000017651E+02 0.  0.
         12    1    1    2    0    0 -0.15454972238E+02 -0.66351134582E+01 -0.37017351446E+02  0.40659134343E+02  0.00000000000E+00 0. -1.
         11    1    3    3    0    0  0.97490161168E+00 -0.50730437014E+01  0.66528442130E+00  0.52085323433E+01  0.51100000000E-03 0. -1.
        -11    1    3    3    0    0  0.10852726789E+02 -0.34835342559E+01  0.14025726634E+02  0.18073120858E+02  0.51100000000E-03 0.  1.
        -12    1    3    3    0    0  0.36273438369E+01  0.15191691416E+02  0.22326340391E+02  0.27247212456E+02  0.00000000000E+00 0.  1.
</event>
<event>
 7    1  0.2500839E-011  0.5052887E+02  0.7816164E-02  0.1300439E+00
        -11   -1    0    0    0    0  0.00000000000E+00  0.00000000000E+00  0.45593999997E+02  0.45594000000E+02  0.51100000000E-03 0.  1.
         11   -1    0    0    0    0 -0.00000000000E+00 -0.00000000000E+00 -0.45593999997E+02  0.45594000000E+02  0.51100000000E-03 0. -1.
    9900012    2    1    2    0    0 -0.12808131183E+02  0.38146888661E+01  0.38400063201E+02  0.50528869053E+02  0.30000027974E+02 0.  0.
         12    1    1    2    0    0  0.12808131183E+02 -0.38146888661E+01 -0.38400063201E+02  0.40659130947E+02  0.00000000000E+00 0. -1.
         11    1    3    3    0    0  0.10110337176E+01 -0.25220460886E+01  0.42843751561E+01  0.50733397669E+01  0.51100000000E-03 0. -1.
        -11    1    3    3    0    0  0.71656400944E+01  0.52994381417E+01  0.12040177610E+02  0.14979863809E+02  0.51100000000E-03 0.  1.
        -12    1    3    3    0    0 -0.20984804995E+02  0.10372968131E+01  0.22075510434E+02  0.30475665477E+02  0.00000000000E+00 0.  1.
</event>
<event>
 7    1  0.2500839E-011  0.5052886E+02  0.7816164E-02  0.1300439E+00
        -11   -1    0    0    0    0  0.00000000000E+00  0.00000000000E+00  0.45593999997E+02  0.45594000000E+02  0.51100000000E-03 0. -1.
         11   -1    0    0    0    0 -0.00000000000E+00 -0.00000000000E+00 -0.45593999997E+02  0.45594000000E+02  0.51100000000E-03 0.  1.
    9900012    2    1    2    0    0  0.36583253000E+02 -0.16159810196E+02 -0.73274935961E+01  0.50528855543E+02  0.29999986907E+02 0.  0.
         12    1    1    2    0    0 -0.36583253000E+02  0.16159810196E+02  0.73274935961E+01  0.40659144457E+02  0.00000000000E+00 0. -1.
         11    1    3    3    0    0 -0.56044751868E+00 -0.35682045138E+01  0.57149269287E+01  0.67606637940E+01  0.51100000000E-03 0. -1.
        -11    1    3    3    0    0  0.24432481828E+02 -0.14781823492E+01 -0.46572384878E+01  0.24916281061E+02  0.51100000000E-03 0.  1.
        -12    1    3    3    0    0  0.12711218691E+02 -0.11113423333E+02 -0.83851820370E+01  0.18851910687E+02  0.00000000000E+00 0.  1.
</event>
<event>
 7    1  0.2500839E-011  0.5052886E+02  0.7816164E-02  0.1300439E+00
        -11   -1    0    0    0    0  0.00000000000E+00  0.00000000000E+00  0.45593999997E+02  0.45594000000E+02  0.51100000000E-03 0.  1.
         11   -1    0    0    0    0 -0.00000000000E+00 -0.00000000000E+00 -0.45593999997E+02  0.45594000000E+02  0.51100000000E-03 0. -1.
    9900012    2    1    2    0    0  0.48969642436E+01  0.59342661154E+01  0.39924548419E+02  0.50528864008E+02  0.30000012640E+02 0.  0.
         12    1    1    2    0    0 -0.48969642436E+01 -0.59342661154E+01 -0.39924548419E+02  0.40659135992E+02  0.00000000000E+00 0. -1.
         11    1    3    3    0    0  0.11996235528E+01 -0.50580667954E+01  0.84765679047E+00  0.52670350930E+01  0.51100000000E-03 0. -1.
        -11    1    3    3    0    0 -0.77699669035E+01  0.42471628784E+01  0.10468706040E+02  0.13711476384E+02  0.51100000000E-03 0.  1.
        -12    1    3    3    0    0  0.11467307594E+02  0.67451700324E+01  0.28608185588E+02  0.31550352532E+02  0.00000000000E+00 0.  1.
</event>
<event>
 7    1  0.2500839E-011  0.5052884E+02  0.7816164E-02  0.1300439E+00
        -11   -1    0    0    0    0  0.00000000000E+00  0.00000000000E+00  0.45593999997E+02  0.45594000000E+02  0.51100000000E-03 0.  1.
         11   -1    0    0    0    0 -0.00000000000E+00 -0.00000000000E+00 -0.45593999997E+02  0.45594000000E+02  0.51100000000E-03 0. -1.
    9900012    2    1    2    0    0 -0.39437305437E+02  0.93813330083E+01  0.31395333751E+01  0.50528841881E+02  0.29999945381E+02 0.  0.
         12    1    1    2    0    0  0.39437305437E+02 -0.93813330083E+01 -0.31395333751E+01  0.40659158119E+02  0.00000000000E+00 0. -1.
         11    1    3    3    0    0 -0.93146168593E+01  0.12731793677E+01 -0.44365015240E+01  0.10395461460E+02  0.51100000000E-03 0. -1.
        -11    1    3    3    0    0 -0.21177831730E+02  0.16210208843E+02  0.17364985440E+01  0.26726145532E+02  0.51100000000E-03 0.  1.
         12    1    3    3    0    0 -0.89448568473E+01 -0.81020552024E+01  0.58395363550E+01  0.13407234889E+02  0.00000000000E+00 0. -1.
</event>
<event>
 7    1  0.2500839E-011  0.5052885E+02  0.7816164E-02  0.1300439E+00
        -11   -1    0    0    0    0  0.00000000000E+00  0.00000000000E+00  0.45593999997E+02  0.45594000000E+02  0.51100000000E-03 0.  1.
         11   -1    0    0    0    0 -0.00000000000E+00 -0.00000000000E+00 -0.45593999997E+02  0.45594000000E+02  0.51100000000E-03 0. -1.
    9900012    2    1    2    0    0  0.35512322357E+02 -0.87121334141E+01  0.17780323675E+02  0.50528853208E+02  0.29999979812E+02 0.  0.
         12    1    1    2    0    0 -0.35512322357E+02  0.87121334141E+01 -0.17780323675E+02  0.40659146792E+02  0.00000000000E+00 0. -1.
         11    1    3    3    0    0  0.89445604372E+01  0.61546479013E+01  0.94116732169E+01  0.14368870700E+02  0.51100000000E-03 0. -1.
        -11    1    3    3    0    0  0.12136147513E+02 -0.10264196584E+02  0.12766345794E+02  0.20386745526E+02  0.51100000000E-03 0.  1.
        -12    1    3    3    0    0  0.14431614407E+02 -0.46025847318E+01 -0.43976953359E+01  0.15773236982E+02  0.00000000000E+00 0.  1.
</event>
<event>
 7    1  0.2500839E-011  0.5052886E+02  0.7816164E-02  0.1300439E+00
        -11   -1    0    0    0    0  0.00000000000E+00  0.00000000000E+00  0.45593999997E+02  0.45594000000E+02  0.51100000000E-03 0.  1.
         11   -1    0    0    0    0 -0.00000000000E+00 -0.00000000000E+00 -0.45593999997E+02  0.45594000000E+02  0.51100000000E-03 0. -1.
    9900012    2    1    2    0    0 -0.11919924194E+01  0.37574239189E+02  0.15489384408E+02  0.50528864177E+02  0.30000013151E+02 0.  0.
         12    1    1    2    0    0  0.11919924194E+01 -0.37574239189E+02 -0.15489384408E+02  0.40659135823E+02  0.00000000000E+00 0. -1.
         11    1    3    3    0    0 -0.21085590653E+01  0.50508785990E+00 -0.46230143324E+00  0.22169478917E+01  0.51100000000E-03 0. -1.
        -11    1    3    3    0    0  0.34349409299E+01  0.87763815761E+01  0.17487863807E+02  0.19865776440E+02  0.51100000000E-03 0.  1.
         12    1    3    3    0    0 -0.25183742840E+01  0.28292769753E+02 -0.15361779658E+01  0.28446139845E+02  0.00000000000E+00 0. -1.
</event>
<event>
 7    1  0.2500839E-011  0.5052886E+02  0.7816164E-02  0.1300439E+00
        -11   -1    0    0    0    0  0.00000000000E+00  0.00000000000E+00  0.45593999997E+02  0.45594000000E+02  0.51100000000E-03 0.  1.
         11   -1    0    0    0    0 -0.00000000000E+00 -0.00000000000E+00 -0.45593999997E+02  0.45594000000E+02  0.51100000000E-03 0. -1.
    9900012    2    1    2    0    0 -0.17716999076E+01  0.27326202661E+02  0.30055040433E+02  0.50528859233E+02  0.29999998126E+02 0.  0.
         12    1    1    2    0    0  0.17716999076E+01 -0.27326202661E+02 -0.30055040433E+02  0.40659140767E+02  0.00000000000E+00 0. -1.
         11    1    3    3    0    0 -0.43297809035E+01  0.27198760181E+01 -0.32872003873E+01  0.60786852916E+01  0.51100000000E-03 0. -1.
        -11    1    3    3    0    0 -0.58732144914E+01  0.16309555325E+02  0.17031222497E+02  0.24301415255E+02  0.51100000000E-03 0.  1.
         12    1    3    3    0    0  0.84312954873E+01  0.82967713177E+01  0.16311018323E+02  0.20148758687E+02  0.00000000000E+00 0. -1.
</event>
<event>
 7    1  0.2500839E-011  0.5052885E+02  0.7816164E-02  0.1300439E+00
        -11   -1    0    0    0    0  0.00000000000E+00  0.00000000000E+00  0.45593999997E+02  0.45594000000E+02  0.51100000000E-03 0.  1.
         11   -1    0    0    0    0 -0.00000000000E+00 -0.00000000000E+00 -0.45593999997E+02  0.45594000000E+02  0.51100000000E-03 0. -1.
    9900012    2    1    2    0    0  0.12234403700E+02 -0.36236864303E+02  0.13797673906E+02  0.50528846373E+02  0.29999959035E+02 0.  0.
         12    1    1    2    0    0 -0.12234403700E+02  0.36236864303E+02 -0.13797673906E+02  0.40659153627E+02  0.00000000000E+00 0. -1.
         11    1    3    3    0    0  0.42929371833E-01 -0.66383393015E+01  0.12762256502E+01  0.67600402206E+01  0.51100000000E-03 0. -1.
        -11    1    3    3    0    0  0.20174507128E+02 -0.18172936297E+02  0.12350602366E+02  0.29829578116E+02  0.51100000000E-03 0.  1.
        -12    1    3    3    0    0 -0.79830327996E+01 -0.11425588705E+02  0.17084588995E+00  0.13939228036E+02  0.00000000000E+00 0.  1.
</event>
<event>
 7    1  0.2500839E-011  0.5052886E+02  0.7816164E-02  0.1300439E+00
        -11   -1    0    0    0    0  0.00000000000E+00  0.00000000000E+00  0.45593999997E+02  0.45594000000E+02  0.51100000000E-03 0.  1.
         11   -1    0    0    0    0 -0.00000000000E+00 -0.00000000000E+00 -0.45593999997E+02  0.45594000000E+02  0.51100000000E-03 0. -1.
    9900012    2    1    2    0    0  0.23725468583E+02  0.30157555434E+02  0.13445817760E+02  0.50528855586E+02  0.29999987040E+02 0.  0.
         12    1    1    2    0    0 -0.23725468583E+02 -0.30157555434E+02 -0.13445817760E+02  0.40659144414E+02  0.00000000000E+00 0. -1.
         11    1    3    3    0    0 -0.14258283282E+01 -0.20784120745E+01 -0.14560500542E+01  0.29108186468E+01  0.51100000000E-03 0. -1.
        -11    1    3    3    0    0  0.15246927249E+02  0.54961393789E+01  0.88558191978E+01  0.18468943460E+02  0.51100000000E-03 0.  1.
         12    1    3    3    0    0  0.99043696623E+01  0.26739828130E+02  0.60460486161E+01  0.29149093479E+02  0.00000000000E+00 0. -1.
</event>
<event>
 7    1  0.2500839E-011  0.5052886E+02  0.7816164E-02  0.1300439E+00
        -11   -1    0    0    0    0  0.00000000000E+00  0.00000000000E+00  0.45593999997E+02  0.45594000000E+02  0.51100000000E-03 0.  1.
         11   -1    0    0    0    0 -0.00000000000E+00 -0.00000000000E+00 -0.45593999997E+02  0.45594000000E+02  0.51100000000E-03 0. -1.
    9900012    2    1    2    0    0  0.29037880231E+02  0.88226334917E+01  0.27057874774E+02  0.50528856658E+02  0.29999990298E+02 0.  0.
         12    1    1    2    0    0 -0.29037880231E+02 -0.88226334917E+01 -0.27057874774E+02  0.40659143342E+02  0.00000000000E+00 0. -1.
         11    1    3    3    0    0  0.54685642752E+01 -0.17841766434E+01 -0.48494379849E+01  0.75236647026E+01  0.51100000000E-03 0. -1.
        -11    1    3    3    0    0  0.25354217207E+01  0.30858805109E+01 -0.74551305615E-01  0.39945688112E+01  0.51100000000E-03 0.  1.
        -12    1    3    3    0    0  0.21033894235E+02  0.75209296242E+01  0.31981864064E+02  0.39010623144E+02  0.00000000000E+00 0.  1.
</event>
<event>
 7    1  0.2500839E-011  0.5052886E+02  0.7816164E-02  0.1300439E+00
        -11   -1    0    0    0    0  0.00000000000E+00  0.00000000000E+00  0.45593999997E+02  0.45594000000E+02  0.51100000000E-03 0.  1.
         11   -1    0    0    0    0 -0.00000000000E+00 -0.00000000000E+00 -0.45593999997E+02  0.45594000000E+02  0.51100000000E-03 0. -1.
    9900012    2    1    2    0    0 -0.13417461927E+02 -0.30200062426E+02  0.23687420407E+02  0.50528856617E+02  0.29999990174E+02 0.  0.
         12    1    1    2    0    0  0.13417461927E+02  0.30200062426E+02 -0.23687420407E+02  0.40659143383E+02  0.00000000000E+00 0. -1.
         11    1    3    3    0    0 -0.15711908743E+01 -0.10621426826E+02  0.15811248792E+02  0.19112271900E+02  0.51100000000E-03 0. -1.
        -11    1    3    3    0    0  0.36517471194E+01 -0.93209101735E+01  0.80258614269E+01  0.12830786234E+02  0.51100000000E-03 0.  1.
         12    1    3    3    0    0 -0.15498018172E+02 -0.10257725427E+02 -0.14968981200E+00  0.18585798483E+02  0.00000000000E+00 0. -1.
</event>
<event>
 7    1  0.2500839E-011  0.5052886E+02  0.7816164E-02  0.1300439E+00
        -11   -1    0    0    0    0  0.00000000000E+00  0.00000000000E+00  0.45593999997E+02  0.45594000000E+02  0.51100000000E-03 0. -1.
         11   -1    0    0    0    0 -0.00000000000E+00 -0.00000000000E+00 -0.45593999997E+02  0.45594000000E+02  0.51100000000E-03 0.  1.
    9900012    2    1    2    0    0 -0.23778415288E+01 -0.34356230922E+02 -0.21613903647E+02  0.50528861244E+02  0.30000004238E+02 0.  0.
         12    1    1    2    0    0  0.23778415288E+01  0.34356230922E+02  0.21613903647E+02  0.40659138756E+02  0.00000000000E+00 0. -1.
         11    1    3    3    0    0  0.85612827416E+01 -0.50320695362E+01 -0.33305188072E+01  0.10474237050E+02  0.51100000000E-03 0. -1.
        -11    1    3    3    0    0 -0.34454623696E+01  0.15477333806E+01 -0.10860919749E+01  0.39301762807E+01  0.51100000000E-03 0.  1.
        -12    1    3    3    0    0 -0.74936619008E+01 -0.30871894766E+02 -0.17197292865E+02  0.36124447913E+02  0.00000000000E+00 0.  1.
</event>
<event>
 7    1  0.2500839E-011  0.5052886E+02  0.7816164E-02  0.1300439E+00
        -11   -1    0    0    0    0  0.00000000000E+00  0.00000000000E+00  0.45593999997E+02  0.45594000000E+02  0.51100000000E-03 0. -1.
         11   -1    0    0    0    0 -0.00000000000E+00 -0.00000000000E+00 -0.45593999997E+02  0.45594000000E+02  0.51100000000E-03 0.  1.
    9900012    2    1    2    0    0  0.33708098260E+02  0.20065328635E+02  0.10691689525E+02  0.50528861711E+02  0.30000005656E+02 0.  0.
         12    1    1    2    0    0 -0.33708098260E+02 -0.20065328635E+02 -0.10691689525E+02  0.40659138289E+02  0.00000000000E+00 0. -1.
         11    1    3    3    0    0  0.11157315791E+02  0.15839383659E+02 -0.27975489395E+01  0.19575445096E+02  0.51100000000E-03 0.  1.
        -11    1    3    3    0    0  0.10248235059E+02 -0.29907422625E+01 -0.87406701671E+00  0.10711435688E+02  0.51100000000E-03 0. -1.
         12    1    3    3    0    0  0.12302547410E+02  0.72166872389E+01  0.14363305481E+02  0.20241980927E+02  0.00000000000E+00 0. -1.
</event>
<event>
 7    1  0.2500839E-011  0.5052886E+02  0.7816164E-02  0.1300439E+00
        -11   -1    0    0    0    0  0.00000000000E+00  0.00000000000E+00  0.45593999997E+02  0.45594000000E+02  0.51100000000E-03 0.  1.
         11   -1    0    0    0    0 -0.00000000000E+00 -0.00000000000E+00 -0.45593999997E+02  0.45594000000E+02  0.51100000000E-03 0. -1.
    9900012    2    1    2    0    0  0.23402160706E+02  0.32280922067E+02  0.79653300964E+01  0.50528861560E+02  0.30000005196E+02 0.  0.
         12    1    1    2    0    0 -0.23402160706E+02 -0.32280922067E+02 -0.79653300964E+01  0.40659138440E+02  0.00000000000E+00 0. -1.
         11    1    3    3    0    0  0.93526122339E+01  0.61090324335E+01 -0.50517412674E+00  0.11182434173E+02  0.51100000000E-03 0. -1.
        -11    1    3    3    0    0  0.12220943484E+02  0.27474740813E+02  0.14154559205E+02  0.33234987422E+02  0.51100000000E-03 0.  1.
         12    1    3    3    0    0  0.18286049881E+01 -0.13028511803E+01 -0.56840549821E+01  0.61114399645E+01  0.00000000000E+00 0. -1.
</event>
<event>
 7    1  0.2500839E-011  0.5052883E+02  0.7816164E-02  0.1300439E+00
        -11   -1    0    0    0    0  0.00000000000E+00  0.00000000000E+00  0.45593999997E+02  0.45594000000E+02  0.51100000000E-03 0. -1.
         11   -1    0    0    0    0 -0.00000000000E+00 -0.00000000000E+00 -0.45593999997E+02  0.45594000000E+02  0.51100000000E-03 0.  1.
    9900012    2    1    2    0    0 -0.54636537001E+01  0.11148190993E+02 -0.38717370053E+02  0.50528826152E+02  0.29999897571E+02 0.  0.
         12    1    1    2    0    0  0.54636537001E+01 -0.11148190993E+02  0.38717370053E+02  0.40659173848E+02  0.00000000000E+00 0. -1.
         11    1    3    3    0    0  0.82158895623E+01  0.18036013930E+01 -0.59762856144E+01  0.10318420872E+02  0.51100000000E-03 0. -1.
        -11    1    3    3    0    0 -0.13440464456E+01  0.82834138216E+00 -0.21286922855E+02  0.21345390490E+02  0.51100000000E-03 0.  1.
         12    1    3    3    0    0 -0.12335496817E+02  0.85162482175E+01 -0.11454161584E+02  0.18865014789E+02  0.00000000000E+00 0. -1.
</event>
<event>
 7    1  0.2500839E-011  0.5052886E+02  0.7816164E-02  0.1300439E+00
        -11   -1    0    0    0    0  0.00000000000E+00  0.00000000000E+00  0.45593999997E+02  0.45594000000E+02  0.51100000000E-03 0. -1.
         11   -1    0    0    0    0 -0.00000000000E+00 -0.00000000000E+00 -0.45593999997E+02  0.45594000000E+02  0.51100000000E-03 0.  1.
    9900012    2    1    2    0    0 -0.30600524554E+02 -0.76174882605E+01 -0.25666079064E+02  0.50528857794E+02  0.29999993752E+02 0.  0.
         12    1    1    2    0    0  0.30600524554E+02  0.76174882605E+01  0.25666079064E+02  0.40659142206E+02  0.00000000000E+00 0. -1.
         11    1    3    3    0    0 -0.17350173510E+02 -0.17982364384E+02 -0.13626345506E+02  0.28461750505E+02  0.51100000000E-03 0. -1.
        -11    1    3    3    0    0 -0.59668410630E+01  0.80900244450E+00 -0.18116268085E+01  0.62880576637E+01  0.51100000000E-03 0.  1.
        -12    1    3    3    0    0 -0.72835099807E+01  0.95558736794E+01 -0.10228106749E+02  0.15779049626E+02  0.00000000000E+00 0.  1.
</event>
<event>
 7    1  0.2500839E-011  0.5052886E+02  0.7816164E-02  0.1300439E+00
        -11   -1    0    0    0    0  0.00000000000E+00  0.00000000000E+00  0.45593999997E+02  0.45594000000E+02  0.51100000000E-03 0.  1.
         11   -1    0    0    0    0 -0.00000000000E+00 -0.00000000000E+00 -0.45593999997E+02  0.45594000000E+02  0.51100000000E-03 0. -1.
    9900012    2    1    2    0    0  0.12040384548E+02  0.12313254262E+02  0.36831760874E+02  0.50528859580E+02  0.29999999179E+02 0.  0.
         12    1    1    2    0    0 -0.12040384548E+02 -0.12313254262E+02 -0.36831760874E+02  0.40659140420E+02  0.00000000000E+00 0. -1.
         11    1    3    3    0    0 -0.37136063433E+01 -0.21016244348E+01  0.78381134245E+01  0.89243330090E+01  0.51100000000E-03 0. -1.
        -11    1    3    3    0    0  0.90268326713E+01 -0.42647351405E+01  0.97999215350E+01  0.13989643893E+02  0.51100000000E-03 0.  1.
        -12    1    3    3    0    0  0.67271582203E+01  0.18679613837E+02  0.19193725915E+02  0.27614882678E+02  0.00000000000E+00 0.  1.
</event>
<event>
 7    1  0.2500839E-011  0.5052885E+02  0.7816164E-02  0.1300439E+00
        -11   -1    0    0    0    0  0.00000000000E+00  0.00000000000E+00  0.45593999997E+02  0.45594000000E+02  0.51100000000E-03 0. -1.
         11   -1    0    0    0    0 -0.00000000000E+00 -0.00000000000E+00 -0.45593999997E+02  0.45594000000E+02  0.51100000000E-03 0.  1.
    9900012    2    1    2    0    0 -0.51120695008E+01  0.18564285318E+02 -0.35810622151E+02  0.50528848474E+02  0.29999965422E+02 0.  0.
         12    1    1    2    0    0  0.51120695008E+01 -0.18564285318E+02  0.35810622151E+02  0.40659151526E+02  0.00000000000E+00 0. -1.
         11    1    3    3    0    0  0.59829673638E+01  0.95077881039E+01 -0.63979723819E+01  0.12927798883E+02  0.51100000000E-03 0. -1.
        -11    1    3    3    0    0 -0.18321637005E+01  0.10751622946E+02 -0.24848124217E+02  0.27136386958E+02  0.51100000000E-03 0.  1.
         12    1    3    3    0    0 -0.92628731641E+01 -0.16951257315E+01 -0.45645255522E+01  0.10464662633E+02  0.00000000000E+00 0. -1.
</event>
<event>
 7    1  0.2500839E-011  0.5052886E+02  0.7816164E-02  0.1300439E+00
        -11   -1    0    0    0    0  0.00000000000E+00  0.00000000000E+00  0.45593999997E+02  0.45594000000E+02  0.51100000000E-03 0. -1.
         11   -1    0    0    0    0 -0.00000000000E+00 -0.00000000000E+00 -0.45593999997E+02  0.45594000000E+02  0.51100000000E-03 0.  1.
    9900012    2    1    2    0    0  0.27788017444E+02 -0.87565187513E+01 -0.28360457116E+02  0.50528855125E+02  0.29999985639E+02 0.  0.
         12    1    1    2    0    0 -0.27788017444E+02  0.87565187513E+01  0.28360457116E+02  0.40659144875E+02  0.00000000000E+00 0. -1.
         11    1    3    3    0    0  0.34915088093E+01 -0.98942076386E+01 -0.55302438327E+01  0.11860420552E+02  0.51100000000E-03 0. -1.
        -11    1    3    3    0    0  0.25845843597E+02 -0.37144730957E+01 -0.19344932494E+02  0.32496636058E+02  0.51100000000E-03 0.  1.
         12    1    3    3    0    0 -0.15493349621E+01  0.48521619829E+01 -0.34852807893E+01  0.61717985153E+01  0.00000000000E+00 0. -1.
</event>
<event>
 7    1  0.3884889E-011  0.5052886E+02  0.7816164E-02  0.1300439E+00
        -11   -1    0    0    0    0  0.00000000000E+00  0.00000000000E+00  0.45593999997E+02  0.45594000000E+02  0.51100000000E-03 0. -1.
         11   -1    0    0    0    0 -0.00000000000E+00 -0.00000000000E+00 -0.45593999997E+02  0.45594000000E+02  0.51100000000E-03 0.  1.
    9900012    2    1    2    0    0  0.37479920891E+02 -0.15604777445E+02 -0.22162916417E+01  0.50528862063E+02  0.30000006727E+02 0.  0.
         12    1    1    2    0    0 -0.37479920891E+02  0.15604777445E+02  0.22162916417E+01  0.40659137937E+02  0.00000000000E+00 0. -1.
         11    1    3    3    0    0  0.14441288535E+01  0.10800316369E+01 -0.61919820963E+01  0.64492339874E+01  0.51100000000E-03 0. -1.
        -11    1    3    3    0    0  0.73970687373E+01  0.57684901723E+00  0.73840649307E+01  0.10467750277E+02  0.51100000000E-03 0.  1.
        -12    1    3    3    0    0  0.28638723300E+02 -0.17261658099E+02 -0.34083744761E+01  0.33611877799E+02  0.00000000000E+00 0.  1.
</event>
<event>
 7    1  0.2500839E-011  0.5052886E+02  0.7816164E-02  0.1300439E+00
        -11   -1    0    0    0    0  0.00000000000E+00  0.00000000000E+00  0.45593999997E+02  0.45594000000E+02  0.51100000000E-03 0. -1.
         11   -1    0    0    0    0 -0.00000000000E+00 -0.00000000000E+00 -0.45593999997E+02  0.45594000000E+02  0.51100000000E-03 0.  1.
    9900012    2    1    2    0    0 -0.40404935545E+02  0.37157617982E+01 -0.26077414210E+01  0.50528855673E+02  0.29999987302E+02 0.  0.
         12    1    1    2    0    0  0.40404935545E+02 -0.37157617982E+01  0.26077414210E+01  0.40659144327E+02  0.00000000000E+00 0. -1.
         11    1    3    3    0    0 -0.36802354267E+02  0.66065997301E+01  0.55955848519E+01  0.37807023286E+02  0.51100000000E-03 0.  1.
        -11    1    3    3    0    0  0.76008216277E+00 -0.37034688887E+01 -0.47547829429E+00  0.38104444062E+01  0.51100000000E-03 0. -1.
        -12    1    3    3    0    0 -0.43626634402E+01  0.81263095675E+00 -0.77278479786E+01  0.89113879808E+01  0.00000000000E+00 0.  1.
</event>
<event>
 7    1  0.2826916E-011  0.5052899E+02  0.7816164E-02  0.1300438E+00
        -11   -1    0    0    0    0  0.00000000000E+00  0.00000000000E+00  0.45593999997E+02  0.45594000000E+02  0.51100000000E-03 0.  1.
         11   -1    0    0    0    0 -0.00000000000E+00 -0.00000000000E+00 -0.45593999997E+02  0.45594000000E+02  0.51100000000E-03 0. -1.
    9900012    2    1    2    0    0 -0.17222955135E+01 -0.32261942092E+02  0.24685142997E+02  0.50528985081E+02  0.30000380650E+02 0.  0.
         12    1    1    2    0    0  0.17222955135E+01  0.32261942092E+02 -0.24685142997E+02  0.40659014919E+02  0.00000000000E+00 0. -1.
         11    1    3    3    0    0 -0.10387505427E+02 -0.12397141186E+02  0.33341549348E+01  0.16513811431E+02  0.51100000000E-03 0. -1.
        -11    1    3    3    0    0 -0.29487259048E+01 -0.11181634426E+02  0.12489219410E+02  0.17020708994E+02  0.51100000000E-03 0.  1.
         12    1    3    3    0    0  0.11613935819E+02 -0.86831664798E+01  0.88617686514E+01  0.16994464656E+02  0.00000000000E+00 0. -1.
</event>
<event>
 7    1  0.2500839E-011  0.5052886E+02  0.7816164E-02  0.1300439E+00
        -11   -1    0    0    0    0  0.00000000000E+00  0.00000000000E+00  0.45593999997E+02  0.45594000000E+02  0.51100000000E-03 0.  1.
         11   -1    0    0    0    0 -0.00000000000E+00 -0.00000000000E+00 -0.45593999997E+02  0.45594000000E+02  0.51100000000E-03 0. -1.
    9900012    2    1    2    0    0 -0.13058997730E+01  0.11503918886E+02  0.38975889464E+02  0.50528862239E+02  0.30000007262E+02 0.  0.
         12    1    1    2    0    0  0.13058997730E+01 -0.11503918886E+02 -0.38975889464E+02  0.40659137761E+02  0.00000000000E+00 0. -1.
         11    1    3    3    0    0 -0.27771558804E+01 -0.66197038870E+01  0.38707829593E+01  0.81557363442E+01  0.51100000000E-03 0. -1.
        -11    1    3    3    0    0  0.46506259630E+01  0.32921117203E+01  0.20643941149E+02  0.21415849921E+02  0.51100000000E-03 0.  1.
        -12    1    3    3    0    0 -0.31793698556E+01  0.14831511053E+02  0.14461165355E+02  0.20957275974E+02  0.00000000000E+00 0.  1.
</event>
<event>
 7    1  0.2500839E-011  0.5052887E+02  0.7816164E-02  0.1300439E+00
        -11   -1    0    0    0    0  0.00000000000E+00  0.00000000000E+00  0.45593999997E+02  0.45594000000E+02  0.51100000000E-03 0. -1.
         11   -1    0    0    0    0 -0.00000000000E+00 -0.00000000000E+00 -0.45593999997E+02  0.45594000000E+02  0.51100000000E-03 0.  1.
    9900012    2    1    2    0    0 -0.18571807320E+02  0.34681722558E+02  0.10267970682E+02  0.50528866603E+02  0.30000020525E+02 0.  0.
         12    1    1    2    0    0  0.18571807320E+02 -0.34681722558E+02 -0.10267970682E+02  0.40659133397E+02  0.00000000000E+00 0. -1.
         11    1    3    3    0    0 -0.14671581658E+02  0.11141007562E+02  0.66976972768E+01  0.19601951609E+02  0.51100000000E-03 0.  1.
        -11    1    3    3    0    0 -0.19842372348E+01 -0.13852587176E+01 -0.41141024125E+01  0.47730470394E+01  0.51100000000E-03 0. -1.
         12    1    3    3    0    0 -0.19159884274E+01  0.24925973714E+02  0.76843758175E+01  0.26153867954E+02  0.00000000000E+00 0. -1.
</event>
<event>
 7    1  0.3155992E-011  0.5052884E+02  0.7816164E-02  0.1300439E+00
        -11   -1    0    0    0    0  0.00000000000E+00  0.00000000000E+00  0.45593999997E+02  0.45594000000E+02  0.51100000000E-03 0. -1.
         11   -1    0    0    0    0 -0.00000000000E+00 -0.00000000000E+00 -0.45593999997E+02  0.45594000000E+02  0.51100000000E-03 0.  1.
    9900012    2    1    2    0    0 -0.27645258400E+02  0.28399852049E+02 -0.90749805201E+01  0.50528841378E+02  0.29999943853E+02 0.  0.
         12    1    1    2    0    0  0.27645258400E+02 -0.28399852049E+02  0.90749805201E+01  0.40659158622E+02  0.00000000000E+00 0. -1.
         11    1    3    3    0    0  0.74085018768E+00  0.13549477865E+01  0.37373877151E+01  0.40438607418E+01  0.51100000000E-03 0. -1.
        -11    1    3    3    0    0 -0.15981269527E+02  0.14291477044E+01 -0.26420829700E+01  0.16261120550E+02  0.51100000000E-03 0.  1.
        -12    1    3    3    0    0 -0.12404839061E+02  0.25615756558E+02 -0.10170285265E+02  0.30223860087E+02  0.00000000000E+00 0.  1.
</event>
<event>
 7    1  0.2500839E-011  0.5052886E+02  0.7816164E-02  0.1300439E+00
        -11   -1    0    0    0    0  0.00000000000E+00  0.00000000000E+00  0.45593999997E+02  0.45594000000E+02  0.51100000000E-03 0.  1.
         11   -1    0    0    0    0 -0.00000000000E+00 -0.00000000000E+00 -0.45593999997E+02  0.45594000000E+02  0.51100000000E-03 0. -1.
    9900012    2    1    2    0    0  0.34426232274E+02 -0.32343460577E+00  0.21630892410E+02  0.50528860991E+02  0.30000003467E+02 0.  0.
         12    1    1    2    0    0 -0.34426232274E+02  0.32343460577E+00 -0.21630892410E+02  0.40659139009E+02  0.00000000000E+00 0. -1.
         11    1    3    3    0    0 -0.27287200723E+01  0.12633656534E+01 -0.10107882897E+00  0.30086912766E+01  0.51100000000E-03 0. -1.
        -11    1    3    3    0    0  0.16494820981E+02  0.89283308820E+01  0.12645822950E+02  0.22621031141E+02  0.51100000000E-03 0.  1.
         12    1    3    3    0    0  0.20660131365E+02 -0.10515131141E+02  0.90861482894E+01  0.24899138573E+02  0.00000000000E+00 0. -1.
</event>
<event>
 7    1  0.2500839E-011  0.5052886E+02  0.7816164E-02  0.1300439E+00
        -11   -1    0    0    0    0  0.00000000000E+00  0.00000000000E+00  0.45593999997E+02  0.45594000000E+02  0.51100000000E-03 0. -1.
         11   -1    0    0    0    0 -0.00000000000E+00 -0.00000000000E+00 -0.45593999997E+02  0.45594000000E+02  0.51100000000E-03 0.  1.
    9900012    2    1    2    0    0 -0.90957148258E+01  0.34182232696E+02 -0.20050159069E+02  0.50528856637E+02  0.29999990234E+02 0.  0.
         12    1    1    2    0    0  0.90957148258E+01 -0.34182232696E+02  0.20050159069E+02  0.40659143363E+02  0.00000000000E+00 0. -1.
         11    1    3    3    0    0 -0.40340462363E+01 -0.27361090251E+00  0.36937286057E+01  0.54764973510E+01  0.51100000000E-03 0. -1.
        -11    1    3    3    0    0 -0.50623054830E+01  0.73145518160E+01 -0.13237101400E+02  0.15948368531E+02  0.51100000000E-03 0.  1.
         12    1    3    3    0    0  0.63689344336E-03  0.27141291783E+02 -0.10506786275E+02  0.29103990755E+02  0.00000000000E+00 0. -1.
</event>
<event>
 7    1  0.2500839E-011  0.5052886E+02  0.7816164E-02  0.1300439E+00
        -11   -1    0    0    0    0  0.00000000000E+00  0.00000000000E+00  0.45593999997E+02  0.45594000000E+02  0.51100000000E-03 0.  1.
         11   -1    0    0    0    0 -0.00000000000E+00 -0.00000000000E+00 -0.45593999997E+02  0.45594000000E+02  0.51100000000E-03 0. -1.
    9900012    2    1    2    0    0 -0.25870972080E+02 -0.26407086281E+02 -0.16927020192E+02  0.50528863083E+02  0.30000009828E+02 0.  0.
         12    1    1    2    0    0  0.25870972080E+02  0.26407086281E+02  0.16927020192E+02  0.40659136917E+02  0.00000000000E+00 0. -1.
         11    1    3    3    0    0 -0.13030361561E+01  0.40359764745E+00 -0.20295203465E+01  0.24453522002E+01  0.51100000000E-03 0. -1.
        -11    1    3    3    0    0 -0.33816271467E+01 -0.23765375110E+02 -0.50851029529E+01  0.24537455626E+02  0.51100000000E-03 0.  1.
        -12    1    3    3    0    0 -0.21186308777E+02 -0.30453088188E+01 -0.98123968927E+01  0.23546055257E+02  0.00000000000E+00 0.  1.
</event>
<event>
 7    1  0.2500839E-011  0.5052885E+02  0.7816164E-02  0.1300439E+00
        -11   -1    0    0    0    0  0.00000000000E+00  0.00000000000E+00  0.45593999997E+02  0.45594000000E+02  0.51100000000E-03 0.  1.
         11   -1    0    0    0    0 -0.00000000000E+00 -0.00000000000E+00 -0.45593999997E+02  0.45594000000E+02  0.51100000000E-03 0. -1.
    9900012    2    1    2    0    0  0.93184515574E+01 -0.71676440352E+00  0.39570429615E+02  0.50528853544E+02  0.29999980833E+02 0.  0.
         12    1    1    2    0    0 -0.93184515574E+01  0.71676440352E+00 -0.39570429615E+02  0.40659146456E+02  0.00000000000E+00 0. -1.
         11    1    3    3    0    0 -0.50972151377E+01 -0.25478104561E+01  0.57953371594E+00  0.57278966357E+01  0.51100000000E-03 0. -1.
        -11    1    3    3    0    0  0.29101546068E+01  0.81876274641E+01  0.18761041520E+02  0.20675660147E+02  0.51100000000E-03 0.  1.
        -12    1    3    3    0    0  0.11505512088E+02 -0.63565814116E+01  0.20229854378E+02  0.24125296761E+02  0.00000000000E+00 0.  1.
</event>
<event>
 7    1  0.2500839E-011  0.5052886E+02  0.7816164E-02  0.1300439E+00
        -11   -1    0    0    0    0  0.00000000000E+00  0.00000000000E+00  0.45593999997E+02  0.45594000000E+02  0.51100000000E-03 0. -1.
         11   -1    0    0    0    0 -0.00000000000E+00 -0.00000000000E+00 -0.45593999997E+02  0.45594000000E+02  0.51100000000E-03 0.  1.
    9900012    2    1    2    0    0  0.22647095761E+02 -0.28869191513E+02 -0.17516967611E+02  0.50528864257E+02  0.30000013396E+02 0.  0.
         12    1    1    2    0    0 -0.22647095761E+02  0.28869191513E+02  0.17516967611E+02  0.40659135743E+02  0.00000000000E+00 0. -1.
         11    1    3    3    0    0 -0.14551867905E+01 -0.30626010381E+01 -0.65892433171E+01  0.74104805153E+01  0.51100000000E-03 0. -1.
        -11    1    3    3    0    0  0.25154464947E+02 -0.24995015926E+02 -0.15246415260E+02  0.38599884799E+02  0.51100000000E-03 0.  1.
         12    1    3    3    0    0 -0.10521823955E+01 -0.81157454895E+00  0.43186909658E+01  0.45184989432E+01  0.00000000000E+00 0. -1.
</event>
<event>
 7    1  0.2500839E-011  0.5052886E+02  0.7816164E-02  0.1300439E+00
        -11   -1    0    0    0    0  0.00000000000E+00  0.00000000000E+00  0.45593999997E+02  0.45594000000E+02  0.51100000000E-03 0. -1.
         11   -1    0    0    0    0 -0.00000000000E+00 -0.00000000000E+00 -0.45593999997E+02  0.45594000000E+02  0.51100000000E-03 0.  1.
    9900012    2    1    2    0    0 -0.26151354820E+02  0.75512086385E+01 -0.30203504083E+02  0.50528858719E+02  0.29999996563E+02 0.  0.
         12    1    1    2    0    0  0.26151354820E+02 -0.75512086385E+01  0.30203504083E+02  0.40659141281E+02  0.00000000000E+00 0. -1.
         11    1    3    3    0    0 -0.24824474969E+02  0.10070339831E+02 -0.14839185391E+02  0.30624626123E+02  0.51100000000E-03 0. -1.
        -11    1    3    3    0    0 -0.44114134565E+00  0.45807418835E+01 -0.98464120361E+01  0.10868745656E+02  0.51100000000E-03 0.  1.
        -12    1    3    3    0    0 -0.88573850534E+00 -0.70998730762E+01 -0.55179066552E+01  0.90354869406E+01  0.00000000000E+00 0.  1.
</event>
<event>
 7    1  0.2500839E-011  0.5052893E+02  0.7816164E-02  0.1300439E+00
        -11   -1    0    0    0    0  0.00000000000E+00  0.00000000000E+00  0.45593999997E+02  0.45594000000E+02  0.51100000000E-03 0.  1.
         11   -1    0    0    0    0 -0.00000000000E+00 -0.00000000000E+00 -0.45593999997E+02  0.45594000000E+02  0.51100000000E-03 0. -1.
    9900012    2    1    2    0    0 -0.14156180616E+02  0.36017245147E+02  0.12470800244E+02  0.50528926519E+02  0.30000202645E+02 0.  0.
         12    1    1    2    0    0  0.14156180616E+02 -0.36017245147E+02 -0.12470800244E+02  0.40659073481E+02  0.00000000000E+00 0. -1.
         11    1    3    3    0    0  0.39741206233E+01  0.14737426836E+02  0.14578711647E+01  0.15333322310E+02  0.51100000000E-03 0. -1.
        -11    1    3    3    0    0 -0.57564277258E+01  0.58512036448E+00  0.93895016310E+01  0.11029123589E+02  0.51100000000E-03 0.  1.
         12    1    3    3    0    0 -0.12373873514E+02  0.20694697947E+02  0.16234274488E+01  0.24166480619E+02  0.00000000000E+00 0. -1.
</event>
<event>
 7    1  0.2500839E-011  0.5052887E+02  0.7816164E-02  0.1300439E+00
        -11   -1    0    0    0    0  0.00000000000E+00  0.00000000000E+00  0.45593999997E+02  0.45594000000E+02  0.51100000000E-03 0.  1.
         11   -1    0    0    0    0 -0.00000000000E+00 -0.00000000000E+00 -0.45593999997E+02  0.45594000000E+02  0.51100000000E-03 0. -1.
    9900012    2    1    2    0    0  0.24444516686E+02 -0.32100209074E+02  0.50206952712E+01  0.50528865729E+02  0.30000017871E+02 0.  0.
         12    1    1    2    0    0 -0.24444516686E+02  0.32100209074E+02 -0.50206952712E+01  0.40659134271E+02  0.00000000000E+00 0. -1.
         11    1    3    3    0    0  0.11356035392E+02 -0.23505317131E+02  0.58385878804E+01  0.26749739848E+02  0.51100000000E-03 0. -1.
        -11    1    3    3    0    0  0.13670261476E+02 -0.11106870176E+02 -0.54843533740E+01  0.18447675901E+02  0.51100000000E-03 0.  1.
         12    1    3    3    0    0 -0.58178018191E+00  0.25119782330E+01  0.46664607649E+01  0.53314499804E+01  0.00000000000E+00 0. -1.
</event>
<event>
 7    1  0.2500839E-011  0.5052886E+02  0.7816164E-02  0.1300439E+00
        -11   -1    0    0    0    0  0.00000000000E+00  0.00000000000E+00  0.45593999997E+02  0.45594000000E+02  0.51100000000E-03 0.  1.
         11   -1    0    0    0    0 -0.00000000000E+00 -0.00000000000E+00 -0.45593999997E+02  0.45594000000E+02  0.51100000000E-03 0. -1.
    9900012    2    1    2    0    0 -0.38745772453E+02 -0.10468054382E+02 -0.65077312498E+01  0.50528860664E+02  0.30000002473E+02 0.  0.
         12    1    1    2    0    0  0.38745772453E+02  0.10468054382E+02  0.65077312498E+01  0.40659139336E+02  0.00000000000E+00 0. -1.
         11    1    3    3    0    0 -0.75416772910E+01 -0.10010403347E+02 -0.31177641449E+01  0.12915321330E+02  0.51100000000E-03 0. -1.
        -11    1    3    3    0    0 -0.13647999617E+02  0.18554047577E+01  0.85912155423E+01  0.16233280788E+02  0.51100000000E-03 0.  1.
         12    1    3    3    0    0 -0.17556095545E+02 -0.23130557929E+01 -0.11981182647E+02  0.21380258546E+02  0.00000000000E+00 0. -1.
</event>
<event>
 7    1  0.2500839E-011  0.5052886E+02  0.7816164E-02  0.1300439E+00
        -11   -1    0    0    0    0  0.00000000000E+00  0.00000000000E+00  0.45593999997E+02  0.45594000000E+02  0.51100000000E-03 0.  1.
         11   -1    0    0    0    0 -0.00000000000E+00 -0.00000000000E+00 -0.45593999997E+02  0.45594000000E+02  0.51100000000E-03 0. -1.
    9900012    2    1    2    0    0 -0.15499456242E+02  0.10972890615E+02  0.35951750957E+02  0.50528857496E+02  0.29999992845E+02 0.  0.
         12    1    1    2    0    0  0.15499456242E+02 -0.10972890615E+02 -0.35951750957E+02  0.40659142504E+02  0.00000000000E+00 0. -1.
         11    1    3    3    0    0 -0.51602241982E+01  0.10229505427E+01  0.17826200529E+02  0.18586225199E+02  0.51100000000E-03 0. -1.
        -11    1    3    3    0    0 -0.12498556748E+02  0.83840632301E-01  0.17910775784E+02  0.21840715178E+02  0.51100000000E-03 0.  1.
         12    1    3    3    0    0  0.21593247043E+01  0.98660994401E+01  0.21477464513E+00  0.10101917119E+02  0.00000000000E+00 0. -1.
</event>
<event>
 7    1  0.2500839E-011  0.5052886E+02  0.7816164E-02  0.1300439E+00
        -11   -1    0    0    0    0  0.00000000000E+00  0.00000000000E+00  0.45593999997E+02  0.45594000000E+02  0.51100000000E-03 0. -1.
         11   -1    0    0    0    0 -0.00000000000E+00 -0.00000000000E+00 -0.45593999997E+02  0.45594000000E+02  0.51100000000E-03 0.  1.
    9900012    2    1    2    0    0  0.27952261093E+02  0.23695303539E+02 -0.17617302194E+02  0.50528860233E+02  0.30000001164E+02 0.  0.
         12    1    1    2    0    0 -0.27952261093E+02 -0.23695303539E+02  0.17617302194E+02  0.40659139767E+02  0.00000000000E+00 0. -1.
         11    1    3    3    0    0  0.99570041477E+01 -0.81174664867E+00 -0.10206735953E+02  0.14282098000E+02  0.51100000000E-03 0. -1.
        -11    1    3    3    0    0  0.11560735751E+02  0.82364690588E+01  0.47170264538E+01  0.14957953486E+02  0.51100000000E-03 0.  1.
        -12    1    3    3    0    0  0.64345211939E+01  0.16270581129E+02 -0.12127592695E+02  0.21288808746E+02  0.00000000000E+00 0.  1.
</event>
<event>
 7    1  0.2500839E-011  0.5052885E+02  0.7816164E-02  0.1300439E+00
        -11   -1    0    0    0    0  0.00000000000E+00  0.00000000000E+00  0.45593999997E+02  0.45594000000E+02  0.51100000000E-03 0. -1.
         11   -1    0    0    0    0 -0.00000000000E+00 -0.00000000000E+00 -0.45593999997E+02  0.45594000000E+02  0.51100000000E-03 0.  1.
    9900012    2    1    2    0    0  0.40429959360E+02  0.42784190200E+01  0.52941065504E+00  0.50528846555E+02  0.29999959590E+02 0.  0.
         12    1    1    2    0    0 -0.40429959360E+02 -0.42784190200E+01 -0.52941065504E+00  0.40659153445E+02  0.00000000000E+00 0. -1.
         11    1    3    3    0    0  0.13145366733E+02  0.38990911838E+01  0.10848189419E+02  0.17483900953E+02  0.51100000000E-03 0. -1.
        -11    1    3    3    0    0  0.53709963145E+01  0.66941948021E+01 -0.30762503763E+01  0.91171904717E+01  0.51100000000E-03 0.  1.
        -12    1    3    3    0    0  0.21913596312E+02 -0.63148669659E+01 -0.72425283876E+01  0.23927755130E+02  0.00000000000E+00 0.  1.
</event>
<event>
 7    1  0.2500839E-011  0.5052886E+02  0.7816164E-02  0.1300439E+00
        -11   -1    0    0    0    0  0.00000000000E+00  0.00000000000E+00  0.45593999997E+02  0.45594000000E+02  0.51100000000E-03 0. -1.
         11   -1    0    0    0    0 -0.00000000000E+00 -0.00000000000E+00 -0.45593999997E+02  0.45594000000E+02  0.51100000000E-03 0.  1.
    9900012    2    1    2    0    0 -0.39564795630E+02 -0.74829639467E+01  0.56389703035E+01  0.50528858485E+02  0.29999995851E+02 0.  0.
         12    1    1    2    0    0  0.39564795630E+02  0.74829639467E+01 -0.56389703035E+01  0.40659141515E+02  0.00000000000E+00 0. -1.
         11    1    3    3    0    0  0.73995041710E+00 -0.30219804271E+01  0.38274261062E+01  0.49324520455E+01  0.51100000000E-03 0. -1.
        -11    1    3    3    0    0 -0.21216510238E+02 -0.11190998293E+02  0.64348411546E+01  0.24835175264E+02  0.51100000000E-03 0.  1.
         12    1    3    3    0    0 -0.19088235809E+02  0.67300147736E+01 -0.46232969573E+01  0.20761231175E+02  0.00000000000E+00 0. -1.
</event>
<event>
 7    1  0.2627599E-011  0.5052885E+02  0.7816164E-02  0.1300439E+00
        -11   -1    0    0    0    0  0.00000000000E+00  0.00000000000E+00  0.45593999997E+02  0.45594000000E+02  0.51100000000E-03 0.  1.
         11   -1    0    0    0    0 -0.00000000000E+00 -0.00000000000E+00 -0.45593999997E+02  0.45594000000E+02  0.51100000000E-03 0. -1.
    9900012    2    1    2    0    0  0.21791373586E+02  0.28747795180E+02  0.18758104049E+02  0.50528853944E+02  0.29999982048E+02 0.  0.
         12    1    1    2    0    0 -0.21791373586E+02 -0.28747795180E+02 -0.18758104049E+02  0.40659146056E+02  0.00000000000E+00 0. -1.
         11    1    3    3    0    0  0.10428245770E+02 -0.57183629988E+00 -0.48520350562E+00  0.10455177153E+02  0.51100000000E-03 0. -1.
        -11    1    3    3    0    0  0.38348985747E+01  0.49928135215E+01  0.12077107557E+02  0.13619513983E+02  0.51100000000E-03 0.  1.
        -12    1    3    3    0    0  0.75282292420E+01  0.24326817958E+02  0.71661999985E+01  0.26454162808E+02  0.00000000000E+00 0.  1.
</event>
<event>
 7    1  0.2500839E-011  0.5052886E+02  0.7816164E-02  0.1300439E+00
        -11   -1    0    0    0    0  0.00000000000E+00  0.00000000000E+00  0.45593999997E+02  0.45594000000E+02  0.51100000000E-03 0.  1.
         11   -1    0    0    0    0 -0.00000000000E+00 -0.00000000000E+00 -0.45593999997E+02  0.45594000000E+02  0.51100000000E-03 0. -1.
    9900012    2    1    2    0    0  0.30785616732E+02  0.24461424959E+02  0.10346503929E+02  0.50528860165E+02  0.30000000957E+02 0.  0.
         12    1    1    2    0    0 -0.30785616732E+02 -0.24461424959E+02 -0.10346503929E+02  0.40659139835E+02  0.00000000000E+00 0. -1.
         11    1    3    3    0    0  0.20021241545E+02  0.23308551576E+02  0.90151223182E+01  0.32022041163E+02  0.51100000000E-03 0. -1.
        -11    1    3    3    0    0 -0.34740593817E+01  0.32138788730E-01  0.23400221224E+01  0.41887737208E+01  0.51100000000E-03 0.  1.
        -12    1    3    3    0    0  0.14238434569E+02  0.11207345942E+01 -0.10086405112E+01  0.14318045282E+02  0.00000000000E+00 0.  1.
</event>
<event>
 7    1  0.2500839E-011  0.5052886E+02  0.7816164E-02  0.1300439E+00
        -11   -1    0    0    0    0  0.00000000000E+00  0.00000000000E+00  0.45593999997E+02  0.45594000000E+02  0.51100000000E-03 0.  1.
         11   -1    0    0    0    0 -0.00000000000E+00 -0.00000000000E+00 -0.45593999997E+02  0.45594000000E+02  0.51100000000E-03 0. -1.
    9900012    2    1    2    0    0 -0.52147091620E+01  0.22883198330E+02  0.33201383284E+02  0.50528858231E+02  0.29999995078E+02 0.  0.
         12    1    1    2    0    0  0.52147091620E+01 -0.22883198330E+02 -0.33201383284E+02  0.40659141769E+02  0.00000000000E+00 0. -1.
         11    1    3    3    0    0  0.76319773672E+01  0.10775276796E+02  0.16682134633E+02  0.21275509036E+02  0.51100000000E-03 0. -1.
        -11    1    3    3    0    0 -0.28162068106E+01  0.13219039966E+02  0.12436846775E+02  0.18367068258E+02  0.51100000000E-03 0.  1.
        -12    1    3    3    0    0 -0.10030479719E+02 -0.11111184319E+01  0.40824018751E+01  0.10886280936E+02  0.00000000000E+00 0.  1.
</event>
<event>
 7    1  0.2500839E-011  0.5052885E+02  0.7816164E-02  0.1300439E+00
        -11   -1    0    0    0    0  0.00000000000E+00  0.00000000000E+00  0.45593999997E+02  0.45594000000E+02  0.51100000000E-03 0.  1.
         11   -1    0    0    0    0 -0.00000000000E+00 -0.00000000000E+00 -0.45593999997E+02  0.45594000000E+02  0.51100000000E-03 0. -1.
    9900012    2    1    2    0    0  0.14171842824E+02  0.42001166109E+01  0.37877225568E+02  0.50528851886E+02  0.29999975794E+02 0.  0.
         12    1    1    2    0    0 -0.14171842824E+02 -0.42001166109E+01 -0.37877225568E+02  0.40659148114E+02  0.00000000000E+00 0. -1.
         11    1    3    3    0    0  0.95788442480E+01  0.27521030469E+01  0.49314959935E+00  0.99785532567E+01  0.51100000000E-03 0. -1.
        -11    1    3    3    0    0  0.78745216703E+01 -0.18161852748E+01  0.10392533413E+02  0.13164777685E+02  0.51100000000E-03 0.  1.
        -12    1    3    3    0    0 -0.32815230943E+01  0.32641988389E+01  0.26991542556E+02  0.27385520945E+02  0.00000000000E+00 0.  1.
</event>
<event>
 7    1  0.2500839E-011  0.5052886E+02  0.7816164E-02  0.1300439E+00
        -11   -1    0    0    0    0  0.00000000000E+00  0.00000000000E+00  0.45593999997E+02  0.45594000000E+02  0.51100000000E-03 0.  1.
         11   -1    0    0    0    0 -0.00000000000E+00 -0.00000000000E+00 -0.45593999997E+02  0.45594000000E+02  0.51100000000E-03 0. -1.
    9900012    2    1    2    0    0  0.23693264262E+02 -0.77460967116E+01  0.32121530103E+02  0.50528862259E+02  0.30000007322E+02 0.  0.
         12    1    1    2    0    0 -0.23693264262E+02  0.77460967116E+01 -0.32121530103E+02  0.40659137741E+02  0.00000000000E+00 0. -1.
         11    1    3    3    0    0  0.29405291754E+01 -0.59502766767E+01  0.86353204077E+01  0.10891338906E+02  0.51100000000E-03 0. -1.
        -11    1    3    3    0    0 -0.50156179973E+01 -0.12559071517E+01  0.66671465864E+00  0.52132749175E+01  0.51100000000E-03 0.  1.
        -12    1    3    3    0    0  0.25768353084E+02 -0.53991288326E+00  0.22819495037E+02  0.34424248435E+02  0.00000000000E+00 0.  1.
</event>
<event>
 7    1  0.2500839E-011  0.5052886E+02  0.7816164E-02  0.1300439E+00
        -11   -1    0    0    0    0  0.00000000000E+00  0.00000000000E+00  0.45593999997E+02  0.45594000000E+02  0.51100000000E-03 0.  1.
         11   -1    0    0    0    0 -0.00000000000E+00 -0.00000000000E+00 -0.45593999997E+02  0.45594000000E+02  0.51100000000E-03 0. -1.
    9900012    2    1    2    0    0  0.40548157639E+02 -0.22549756187E+01 -0.19818229491E+01  0.50528860496E+02  0.30000001964E+02 0.  0.
         12    1    1    2    0    0 -0.40548157639E+02  0.22549756187E+01  0.19818229491E+01  0.40659139504E+02  0.00000000000E+00 0. -1.
         11    1    3    3    0    0  0.34728081013E+01 -0.68727235031E+01 -0.25697608975E+01  0.81177826893E+01  0.51100000000E-03 0. -1.
        -11    1    3    3    0    0  0.55382168315E+01 -0.55734304304E+01 -0.42241532554E+01  0.89206750541E+01  0.51100000000E-03 0.  1.
         12    1    3    3    0    0  0.31537132707E+02  0.10191178315E+02  0.48120912039E+01  0.33490402753E+02  0.00000000000E+00 0. -1.
</event>
<event>
 7    1  0.2500839E-011  0.5052886E+02  0.7816164E-02  0.1300439E+00
        -11   -1    0    0    0    0  0.00000000000E+00  0.00000000000E+00  0.45593999997E+02  0.45594000000E+02  0.51100000000E-03 0.  1.
         11   -1    0    0    0    0 -0.00000000000E+00 -0.00000000000E+00 -0.45593999997E+02  0.45594000000E+02  0.51100000000E-03 0. -1.
    9900012    2    1    2    0    0 -0.20632363734E+00 -0.40592491366E+02  0.23179833284E+01  0.50528856238E+02  0.29999989021E+02 0.  0.
         12    1    1    2    0    0  0.20632363734E+00  0.40592491366E+02 -0.23179833284E+01  0.40659143762E+02  0.00000000000E+00 0. -1.
         11    1    3    3    0    0 -0.68794723316E+01 -0.15920333322E+02 -0.51341089670E+01  0.18087101144E+02  0.51100000000E-03 0. -1.
        -11    1    3    3    0    0  0.26723655499E+01 -0.26873332811E+02  0.65036959392E+01  0.27777969961E+02  0.51100000000E-03 0.  1.
        -12    1    3    3    0    0  0.40007831443E+01  0.22011747669E+01  0.94839635624E+00  0.46637851334E+01  0.00000000000E+00 0.  1.
</event>
<event>
 7    1  0.2500839E-011  0.5052887E+02  0.7816164E-02  0.1300439E+00
        -11   -1    0    0    0    0  0.00000000000E+00  0.00000000000E+00  0.45593999997E+02  0.45594000000E+02  0.51100000000E-03 0.  1.
         11   -1    0    0    0    0 -0.00000000000E+00 -0.00000000000E+00 -0.45593999997E+02  0.45594000000E+02  0.51100000000E-03 0. -1.
    9900012    2    1    2    0    0  0.32921088585E+01 -0.16572625245E+02  0.36982088634E+02  0.50528871037E+02  0.30000034005E+02 0.  0.
         12    1    1    2    0    0 -0.32921088585E+01  0.16572625245E+02 -0.36982088634E+02  0.40659128963E+02  0.00000000000E+00 0. -1.
         11    1    3    3    0    0  0.10320642116E+02 -0.97854425283E+01  0.51333965172E+01  0.15120261216E+02  0.51100000000E-03 0. -1.
        -11    1    3    3    0    0  0.92306088604E+00 -0.74381707280E+01  0.15358691229E+02  0.17089991858E+02  0.51100000000E-03 0.  1.
        -12    1    3    3    0    0 -0.79515941437E+01  0.65098801118E+00  0.16490000888E+02  0.18318617964E+02  0.00000000000E+00 0.  1.
</event>
<event>
 7    1  0.2500839E-011  0.5052888E+02  0.7816164E-02  0.1300439E+00
        -11   -1    0    0    0    0  0.00000000000E+00  0.00000000000E+00  0.45593999997E+02  0.45594000000E+02  0.51100000000E-03 0.  1.
         11   -1    0    0    0    0 -0.00000000000E+00 -0.00000000000E+00 -0.45593999997E+02  0.45594000000E+02  0.51100000000E-03 0. -1.
    9900012    2    1    2    0    0  0.93827082385E+01 -0.30370816099E+02  0.25352356384E+02  0.50528884680E+02  0.30000075472E+02 0.  0.
         12    1    1    2    0    0 -0.93827082385E+01  0.30370816099E+02 -0.25352356384E+02  0.40659115320E+02  0.00000000000E+00 0. -1.
         11    1    3    3    0    0  0.99048598054E+01 -0.86740709888E+01  0.11204711219E+01  0.13213675154E+02  0.51100000000E-03 0. -1.
        -11    1    3    3    0    0  0.51868087706E+01 -0.36994830129E+01  0.15002357443E+02  0.16299076321E+02  0.51100000000E-03 0.  1.
         12    1    3    3    0    0 -0.57089603374E+01 -0.17997262097E+02  0.92295278189E+01  0.21016133205E+02  0.00000000000E+00 0. -1.
</event>
<event>
 7    1  0.2500839E-011  0.5052887E+02  0.7816164E-02  0.1300439E+00
        -11   -1    0    0    0    0  0.00000000000E+00  0.00000000000E+00  0.45593999997E+02  0.45594000000E+02  0.51100000000E-03 0.  1.
         11   -1    0    0    0    0 -0.00000000000E+00 -0.00000000000E+00 -0.45593999997E+02  0.45594000000E+02  0.51100000000E-03 0. -1.
    9900012    2    1    2    0    0  0.79782421816E+01 -0.36151259691E+02  0.16810684207E+02  0.50528867826E+02  0.30000024245E+02 0.  0.
         12    1    1    2    0    0 -0.79782421816E+01  0.36151259691E+02 -0.16810684207E+02  0.40659132174E+02  0.00000000000E+00 0. -1.
         11    1    3    3    0    0 -0.75318374399E+01 -0.41630058501E+01  0.78834643423E+01  0.11670827015E+02  0.51100000000E-03 0.  1.
        -11    1    3    3    0    0  0.48555130883E+01 -0.48507462002E+01 -0.28280488547E+01  0.74231803586E+01  0.51100000000E-03 0. -1.
        -12    1    3    3    0    0  0.10654566533E+02 -0.27137507641E+02  0.11755268720E+02  0.31434860452E+02  0.00000000000E+00 0.  1.
</event>
<event>
 7    1  0.2500839E-011  0.5052890E+02  0.7816164E-02  0.1300439E+00
        -11   -1    0    0    0    0  0.00000000000E+00  0.00000000000E+00  0.45593999997E+02  0.45594000000E+02  0.51100000000E-03 0.  1.
         11   -1    0    0    0    0 -0.00000000000E+00 -0.00000000000E+00 -0.45593999997E+02  0.45594000000E+02  0.51100000000E-03 0. -1.
    9900012    2    1    2    0    0  0.24489782509E+02  0.29184991597E+02  0.14200328098E+02  0.50528898928E+02  0.30000118783E+02 0.  0.
         12    1    1    2    0    0 -0.24489782509E+02 -0.29184991597E+02 -0.14200328098E+02  0.40659101072E+02  0.00000000000E+00 0. -1.
         11    1    3    3    0    0  0.12955406001E+02  0.12300095586E+02  0.44994709660E+01  0.18422272805E+02  0.51100000000E-03 0.  1.
        -11    1    3    3    0    0  0.47958725618E+01 -0.12538361169E+01  0.11648016206E+02  0.12658940731E+02  0.51100000000E-03 0. -1.
         12    1    3    3    0    0  0.67385039461E+01  0.18138732128E+02 -0.19471590741E+01  0.19447685392E+02  0.00000000000E+00 0. -1.
</event>
<event>
 7    1  0.2500839E-011  0.5052886E+02  0.7816164E-02  0.1300439E+00
        -11   -1    0    0    0    0  0.00000000000E+00  0.00000000000E+00  0.45593999997E+02  0.45594000000E+02  0.51100000000E-03 0. -1.
         11   -1    0    0    0    0 -0.00000000000E+00 -0.00000000000E+00 -0.45593999997E+02  0.45594000000E+02  0.51100000000E-03 0.  1.
    9900012    2    1    2    0    0  0.28608807842E+02 -0.23687530515E+02 -0.16540943179E+02  0.50528858478E+02  0.29999995830E+02 0.  0.
         12    1    1    2    0    0 -0.28608807842E+02  0.23687530515E+02  0.16540943179E+02  0.40659141522E+02  0.00000000000E+00 0. -1.
         11    1    3    3    0    0  0.68922097131E+01  0.34450141635E+01  0.24726258978E+01  0.80922528635E+01  0.51100000000E-03 0. -1.
        -11    1    3    3    0    0  0.75629370616E+00 -0.29999749701E+00 -0.58904651735E+01  0.59463904084E+01  0.51100000000E-03 0.  1.
        -12    1    3    3    0    0  0.20960304423E+02 -0.26832547181E+02 -0.13123103903E+02  0.36490215206E+02  0.00000000000E+00 0.  1.
</event>
<event>
 7    1  0.2500839E-011  0.5052888E+02  0.7816164E-02  0.1300439E+00
        -11   -1    0    0    0    0  0.00000000000E+00  0.00000000000E+00  0.45593999997E+02  0.45594000000E+02  0.51100000000E-03 0.  1.
         11   -1    0    0    0    0 -0.00000000000E+00 -0.00000000000E+00 -0.45593999997E+02  0.45594000000E+02  0.51100000000E-03 0. -1.
    9900012    2    1    2    0    0 -0.15634617609E+02  0.36010232255E+01  0.37359808756E+02  0.50528881142E+02  0.30000064718E+02 0.  0.
         12    1    1    2    0    0  0.15634617609E+02 -0.36010232255E+01 -0.37359808756E+02  0.40659118858E+02  0.00000000000E+00 0. -1.
         11    1    3    3    0    0 -0.66007440735E+01 -0.72608579615E+00  0.21994330760E+01  0.69953219385E+01  0.51100000000E-03 0. -1.
        -11    1    3    3    0    0  0.50477399198E+00  0.92732441853E+01  0.32119767806E+01  0.98267313794E+01  0.51100000000E-03 0.  1.
        -12    1    3    3    0    0 -0.95386475271E+01 -0.49461351636E+01  0.31948398899E+02  0.33706827824E+02  0.00000000000E+00 0.  1.
</event>
<event>
 7    1  0.2500839E-011  0.5052886E+02  0.7816164E-02  0.1300439E+00
        -11   -1    0    0    0    0  0.00000000000E+00  0.00000000000E+00  0.45593999997E+02  0.45594000000E+02  0.51100000000E-03 0.  1.
         11   -1    0    0    0    0 -0.00000000000E+00 -0.00000000000E+00 -0.45593999997E+02  0.45594000000E+02  0.51100000000E-03 0. -1.
    9900012    2    1    2    0    0 -0.14148772441E+02  0.24741948417E+02  0.28996790809E+02  0.50528860187E+02  0.30000001026E+02 0.  0.
         12    1    1    2    0    0  0.14148772441E+02 -0.24741948417E+02 -0.28996790809E+02  0.40659139813E+02  0.00000000000E+00 0. -1.
         11    1    3    3    0    0 -0.23341977901E+01  0.74191012923E+01  0.15410297905E+02  0.17261773521E+02  0.51100000000E-03 0. -1.
        -11    1    3    3    0    0 -0.13913690929E+02  0.17681496077E+02  0.17705209433E+02  0.28630412853E+02  0.51100000000E-03 0.  1.
         12    1    3    3    0    0  0.20991162781E+01 -0.35864895228E+00 -0.41187165281E+01  0.46366738141E+01  0.00000000000E+00 0. -1.
</event>
<event>
 7    1  0.2500839E-011  0.5052884E+02  0.7816164E-02  0.1300439E+00
        -11   -1    0    0    0    0  0.00000000000E+00  0.00000000000E+00  0.45593999997E+02  0.45594000000E+02  0.51100000000E-03 0. -1.
         11   -1    0    0    0    0 -0.00000000000E+00 -0.00000000000E+00 -0.45593999997E+02  0.45594000000E+02  0.51100000000E-03 0.  1.
    9900012    2    1    2    0    0  0.21564259203E+02  0.29047597483E+02 -0.18557669092E+02  0.50528840188E+02  0.29999940236E+02 0.  0.
         12    1    1    2    0    0 -0.21564259203E+02 -0.29047597483E+02  0.18557669092E+02  0.40659159812E+02  0.00000000000E+00 0. -1.
         11    1    3    3    0    0 -0.31614457406E+00  0.17941525393E+02 -0.10256381721E+02  0.20668615026E+02  0.51100000000E-03 0.  1.
        -11    1    3    3    0    0  0.15871333556E+01  0.15226459126E+01  0.37795080943E+01  0.43728851528E+01  0.51100000000E-03 0. -1.
        -12    1    3    3    0    0  0.20293270421E+02  0.95834261769E+01 -0.12080795465E+02  0.25487340009E+02  0.00000000000E+00 0.  1.
</event>
<event>
 7    1  0.2500839E-011  0.5052886E+02  0.7816164E-02  0.1300439E+00
        -11   -1    0    0    0    0  0.00000000000E+00  0.00000000000E+00  0.45593999997E+02  0.45594000000E+02  0.51100000000E-03 0. -1.
         11   -1    0    0    0    0 -0.00000000000E+00 -0.00000000000E+00 -0.45593999997E+02  0.45594000000E+02  0.51100000000E-03 0.  1.
    9900012    2    1    2    0    0 -0.26607202450E+02  0.61366618204E+01 -0.30125806687E+02  0.50528855038E+02  0.29999985374E+02 0.  0.
         12    1    1    2    0    0  0.26607202450E+02 -0.61366618204E+01  0.30125806687E+02  0.40659144962E+02  0.00000000000E+00 0. -1.
         11    1    3    3    0    0  0.25243805868E+01  0.69095137672E+01 -0.10080962305E+01  0.74249670786E+01  0.51100000000E-03 0. -1.
        -11    1    3    3    0    0 -0.74729256525E+01  0.93725402138E+00 -0.10413408712E+01  0.76031213314E+01  0.51100000000E-03 0.  1.
         12    1    3    3    0    0 -0.21658657384E+02 -0.17101059682E+01 -0.28076369585E+02  0.35500766628E+02  0.00000000000E+00 0. -1.
</event>
<event>
 7    1  0.2500839E-011  0.5052885E+02  0.7816164E-02  0.1300439E+00
        -11   -1    0    0    0    0  0.00000000000E+00  0.00000000000E+00  0.45593999997E+02  0.45594000000E+02  0.51100000000E-03 0.  1.
         11   -1    0    0    0    0 -0.00000000000E+00 -0.00000000000E+00 -0.45593999997E+02  0.45594000000E+02  0.51100000000E-03 0. -1.
    9900012    2    1    2    0    0 -0.71824456594E+01  0.35779809331E+02  0.17927188603E+02  0.50528851305E+02  0.29999974027E+02 0.  0.
         12    1    1    2    0    0  0.71824456594E+01 -0.35779809331E+02 -0.17927188603E+02  0.40659148695E+02  0.00000000000E+00 0. -1.
         11    1    3    3    0    0 -0.28478702650E+01  0.27199656484E+02  0.12685937654E+00  0.27348633813E+02  0.51100000000E-03 0. -1.
        -11    1    3    3    0    0  0.19255737834E+01 -0.18412807456E+01  0.26841943421E+01  0.37819371632E+01  0.51100000000E-03 0.  1.
        -12    1    3    3    0    0 -0.62601491778E+01  0.10421433592E+02  0.15116134885E+02  0.19398280328E+02  0.00000000000E+00 0.  1.
</event>
<event>
 7    1  0.2500839E-011  0.5052885E+02  0.7816164E-02  0.1300439E+00
        -11   -1    0    0    0    0  0.00000000000E+00  0.00000000000E+00  0.45593999997E+02  0.45594000000E+02  0.51100000000E-03 0.  1.
         11   -1    0    0    0    0 -0.00000000000E+00 -0.00000000000E+00 -0.45593999997E+02  0.45594000000E+02  0.51100000000E-03 0. -1.
    9900012    2    1    2    0    0  0.15361749485E+02 -0.49713920488E+01  0.37315790500E+02  0.50528852115E+02  0.29999976488E+02 0.  0.
         12    1    1    2    0    0 -0.15361749485E+02  0.49713920488E+01 -0.37315790500E+02  0.40659147885E+02  0.00000000000E+00 0. -1.
         11    1    3    3    0    0  0.17970337182E+02 -0.10486993364E+01  0.14312710702E+02  0.22997531968E+02  0.51100000000E-03 0. -1.
        -11    1    3    3    0    0 -0.79827912413E+00  0.53358673714E+01  0.11111829638E+02  0.12352387961E+02  0.51100000000E-03 0.  1.
         12    1    3    3    0    0 -0.18103085727E+01 -0.92585600838E+01  0.11891250160E+02  0.15178932186E+02  0.00000000000E+00 0. -1.
</event>
<event>
 7    1  0.2500839E-011  0.5052886E+02  0.7816164E-02  0.1300439E+00
        -11   -1    0    0    0    0  0.00000000000E+00  0.00000000000E+00  0.45593999997E+02  0.45594000000E+02  0.51100000000E-03 0. -1.
         11   -1    0    0    0    0 -0.00000000000E+00 -0.00000000000E+00 -0.45593999997E+02  0.45594000000E+02  0.51100000000E-03 0.  1.
    9900012    2    1    2    0    0  0.37807370415E+02  0.96817937891E+01 -0.11403129431E+02  0.50528858968E+02  0.29999997318E+02 0.  0.
         12    1    1    2    0    0 -0.37807370415E+02 -0.96817937891E+01  0.11403129431E+02  0.40659141032E+02  0.00000000000E+00 0. -1.
         11    1    3    3    0    0 -0.14675423298E+01 -0.23524377309E+01 -0.69935050656E+01  0.75230816247E+01  0.51100000000E-03 0. -1.
        -11    1    3    3    0    0  0.55144937186E+01 -0.18425529068E+01  0.15597919318E+01  0.60197668824E+01  0.51100000000E-03 0.  1.
         12    1    3    3    0    0  0.33760419026E+02  0.13876784427E+02 -0.59694162973E+01  0.36986010460E+02  0.00000000000E+00 0. -1.
</event>
<event>
 7    1  0.2500839E-011  0.5052887E+02  0.7816164E-02  0.1300439E+00
        -11   -1    0    0    0    0  0.00000000000E+00  0.00000000000E+00  0.45593999997E+02  0.45594000000E+02  0.51100000000E-03 0. -1.
         11   -1    0    0    0    0 -0.00000000000E+00 -0.00000000000E+00 -0.45593999997E+02  0.45594000000E+02  0.51100000000E-03 0.  1.
    9900012    2    1    2    0    0 -0.11561232861E+01  0.37652913144E+02 -0.15299892237E+02  0.50528865826E+02  0.30000018165E+02 0.  0.
         12    1    1    2    0    0  0.11561232861E+01 -0.37652913144E+02  0.15299892237E+02  0.40659134174E+02  0.00000000000E+00 0. -1.
         11    1    3    3    0    0  0.62875911698E+01  0.60473345422E+01 -0.35222825534E+01  0.94080036369E+01  0.51100000000E-03 0. -1.
        -11    1    3    3    0    0 -0.22548122137E+01  0.91976421117E-01 -0.87539119535E+01  0.90401113120E+01  0.51100000000E-03 0.  1.
         12    1    3    3    0    0 -0.51889022423E+01  0.31513602181E+02 -0.30236977304E+01  0.32080750877E+02  0.00000000000E+00 0. -1.
</event>
<event>
 7    1  0.2500839E-011  0.5052878E+02  0.7816164E-02  0.1300439E+00
        -11   -1    0    0    0    0  0.00000000000E+00  0.00000000000E+00  0.45593999997E+02  0.45594000000E+02  0.51100000000E-03 0.  1.
         11   -1    0    0    0    0 -0.00000000000E+00 -0.00000000000E+00 -0.45593999997E+02  0.45594000000E+02  0.51100000000E-03 0. -1.
    9900012    2    1    2    0    0  0.19180505104E+02 -0.16844361141E+02  0.31647245637E+02  0.50528776757E+02  0.29999747430E+02 0.  0.
         12    1    1    2    0    0 -0.19180505104E+02  0.16844361141E+02 -0.31647245637E+02  0.40659223243E+02  0.00000000000E+00 0. -1.
         11    1    3    3    0    0  0.11404940448E+02  0.42089005174E+00  0.30819872622E+01  0.11821525316E+02  0.51100000000E-03 0. -1.
        -11    1    3    3    0    0  0.12862640881E+02 -0.87613456449E+01  0.13114616811E+02  0.20351950332E+02  0.51100000000E-03 0.  1.
        -12    1    3    3    0    0 -0.50870762245E+01 -0.85039055481E+01  0.15450641564E+02  0.18355301109E+02  0.00000000000E+00 0.  1.
</event>
<event>
 7    1  0.2500839E-011  0.5052886E+02  0.7816164E-02  0.1300439E+00
        -11   -1    0    0    0    0  0.00000000000E+00  0.00000000000E+00  0.45593999997E+02  0.45594000000E+02  0.51100000000E-03 0. -1.
         11   -1    0    0    0    0 -0.00000000000E+00 -0.00000000000E+00 -0.45593999997E+02  0.45594000000E+02  0.51100000000E-03 0.  1.
    9900012    2    1    2    0    0  0.24772504479E+02 -0.12409035430E+02 -0.29757427863E+02  0.50528860173E+02  0.30000000982E+02 0.  0.
         12    1    1    2    0    0 -0.24772504479E+02  0.12409035430E+02  0.29757427863E+02  0.40659139827E+02  0.00000000000E+00 0. -1.
         11    1    3    3    0    0  0.58024944394E+01 -0.40171445340E+01 -0.10084964250E+02  0.12309057483E+02  0.51100000000E-03 0. -1.
        -11    1    3    3    0    0 -0.73390486522E+00 -0.12057417209E+02 -0.38295327218E+01  0.12672223452E+02  0.51100000000E-03 0.  1.
         12    1    3    3    0    0  0.19703914905E+02  0.36655263123E+01 -0.15842930891E+02  0.25547579238E+02  0.00000000000E+00 0. -1.
</event>
<event>
 7    1  0.2500839E-011  0.5052883E+02  0.7816164E-02  0.1300439E+00
        -11   -1    0    0    0    0  0.00000000000E+00  0.00000000000E+00  0.45593999997E+02  0.45594000000E+02  0.51100000000E-03 0.  1.
         11   -1    0    0    0    0 -0.00000000000E+00 -0.00000000000E+00 -0.45593999997E+02  0.45594000000E+02  0.51100000000E-03 0. -1.
    9900012    2    1    2    0    0 -0.23645458139E+02  0.10569380061E+02  0.31342447116E+02  0.50528825430E+02  0.29999895376E+02 0.  0.
         12    1    1    2    0    0  0.23645458139E+02 -0.10569380061E+02 -0.31342447116E+02  0.40659174570E+02  0.00000000000E+00 0. -1.
         11    1    3    3    0    0 -0.71402378126E+01  0.21067038776E+00 -0.20824118808E+01  0.74406866307E+01  0.51100000000E-03 0. -1.
        -11    1    3    3    0    0 -0.20815192817E+02  0.84683757972E+01  0.28132789549E+02  0.36006103493E+02  0.51100000000E-03 0.  1.
        -12    1    3    3    0    0  0.43099724907E+01  0.18903338764E+01  0.52920694479E+01  0.70820353060E+01  0.00000000000E+00 0.  1.
</event>
<event>
 7    1  0.2500839E-011  0.5052885E+02  0.7816164E-02  0.1300439E+00
        -11   -1    0    0    0    0  0.00000000000E+00  0.00000000000E+00  0.45593999997E+02  0.45594000000E+02  0.51100000000E-03 0. -1.
         11   -1    0    0    0    0 -0.00000000000E+00 -0.00000000000E+00 -0.45593999997E+02  0.45594000000E+02  0.51100000000E-03 0.  1.
    9900012    2    1    2    0    0  0.29441707611E+02 -0.27718004371E+02 -0.42502559088E+01  0.50528848648E+02  0.29999965949E+02 0.  0.
         12    1    1    2    0    0 -0.29441707611E+02  0.27718004371E+02  0.42502559088E+01  0.40659151352E+02  0.00000000000E+00 0. -1.
         11    1    3    3    0    0  0.41905952952E+01 -0.22551402786E+01  0.19163671115E+01  0.51302251190E+01  0.51100000000E-03 0. -1.
        -11    1    3    3    0    0  0.10276674357E+02 -0.27304192641E+02 -0.78661561732E+01  0.30215978965E+02  0.51100000000E-03 0.  1.
        -12    1    3    3    0    0  0.14974437959E+02  0.18413285477E+01  0.16995331529E+01  0.15182644564E+02  0.00000000000E+00 0.  1.
</event>
<event>
 7    1  0.2500839E-011  0.5052888E+02  0.7816164E-02  0.1300439E+00
        -11   -1    0    0    0    0  0.00000000000E+00  0.00000000000E+00  0.45593999997E+02  0.45594000000E+02  0.51100000000E-03 0.  1.
         11   -1    0    0    0    0 -0.00000000000E+00 -0.00000000000E+00 -0.45593999997E+02  0.45594000000E+02  0.51100000000E-03 0. -1.
    9900012    2    1    2    0    0  0.15851464536E+01 -0.18382286627E+02  0.36231796736E+02  0.50528877461E+02  0.30000053531E+02 0.  0.
         12    1    1    2    0    0 -0.15851464536E+01  0.18382286627E+02 -0.36231796736E+02  0.40659122539E+02  0.00000000000E+00 0. -1.
         11    1    3    3    0    0 -0.45700145528E+01 -0.62892977614E+01  0.10326270454E+01  0.78426155216E+01  0.51100000000E-03 0. -1.
        -11    1    3    3    0    0  0.77236518945E+01 -0.14861789976E+02  0.15791836928E+02  0.23019767890E+02  0.51100000000E-03 0.  1.
        -12    1    3    3    0    0 -0.15684908881E+01  0.27688011107E+01  0.19407332762E+02  0.19666494050E+02  0.00000000000E+00 0.  1.
</event>
<event>
 7    1  0.2500839E-011  0.5052886E+02  0.7816164E-02  0.1300439E+00
        -11   -1    0    0    0    0  0.00000000000E+00  0.00000000000E+00  0.45593999997E+02  0.45594000000E+02  0.51100000000E-03 0. -1.
         11   -1    0    0    0    0 -0.00000000000E+00 -0.00000000000E+00 -0.45593999997E+02  0.45594000000E+02  0.51100000000E-03 0.  1.
    9900012    2    1    2    0    0  0.28874568211E+02 -0.27027206302E+02  0.94315971458E+01  0.50528860872E+02  0.30000003108E+02 0.  0.
         12    1    1    2    0    0 -0.28874568211E+02  0.27027206302E+02 -0.94315971458E+01  0.40659139128E+02  0.00000000000E+00 0. -1.
         11    1    3    3    0    0  0.24018834946E+02 -0.24738071279E+02  0.11496689545E+02  0.36346258041E+02  0.51100000000E-03 0. -1.
        -11    1    3    3    0    0  0.37531182535E+01  0.23848341044E+01  0.43156590344E+01  0.61966316247E+01  0.51100000000E-03 0.  1.
         12    1    3    3    0    0  0.11026150111E+01 -0.46739691272E+01 -0.63807514334E+01  0.79859712071E+01  0.00000000000E+00 0. -1.
</event>
<event>
 7    1  0.2500839E-011  0.5052886E+02  0.7816164E-02  0.1300439E+00
        -11   -1    0    0    0    0  0.00000000000E+00  0.00000000000E+00  0.45593999997E+02  0.45594000000E+02  0.51100000000E-03 0.  1.
         11   -1    0    0    0    0 -0.00000000000E+00 -0.00000000000E+00 -0.45593999997E+02  0.45594000000E+02  0.51100000000E-03 0. -1.
    9900012    2    1    2    0    0  0.20370347136E+02 -0.30614550843E+02  0.17348307615E+02  0.50528861509E+02  0.30000005042E+02 0.  0.
         12    1    1    2    0    0 -0.20370347136E+02  0.30614550843E+02 -0.17348307615E+02  0.40659138491E+02  0.00000000000E+00 0. -1.
         11    1    3    3    0    0  0.78535045306E+01 -0.20243228284E+02  0.27015854350E+01  0.21880685293E+02  0.51100000000E-03 0. -1.
        -11    1    3    3    0    0  0.97409828184E+01 -0.15301782816E+02  0.77448091984E+01  0.19723421950E+02  0.51100000000E-03 0.  1.
        -12    1    3    3    0    0  0.27758597873E+01  0.49304602571E+01  0.69019129817E+01  0.89247542662E+01  0.00000000000E+00 0.  1.
</event>
<event>
 7    1  0.2500839E-011  0.5052886E+02  0.7816164E-02  0.1300439E+00
        -11   -1    0    0    0    0  0.00000000000E+00  0.00000000000E+00  0.45593999997E+02  0.45594000000E+02  0.51100000000E-03 0.  1.
         11   -1    0    0    0    0 -0.00000000000E+00 -0.00000000000E+00 -0.45593999997E+02  0.45594000000E+02  0.51100000000E-03 0. -1.
    9900012    2    1    2    0    0  0.15740826512E+02 -0.22881943160E+02  0.29695259718E+02  0.50528863366E+02  0.30000010688E+02 0.  0.
         12    1    1    2    0    0 -0.15740826512E+02  0.22881943160E+02 -0.29695259718E+02  0.40659136634E+02  0.00000000000E+00 0. -1.
         11    1    3    3    0    0 -0.11198652357E+01  0.20122078351E+01 -0.15919033346E+01  0.27995062075E+01  0.51100000000E-03 0. -1.
        -11    1    3    3    0    0  0.97128581662E+01 -0.18725681824E+02  0.79299396834E+01  0.22536075905E+02  0.51100000000E-03 0.  1.
        -12    1    3    3    0    0  0.71478335817E+01 -0.61684691710E+01  0.23357223369E+02  0.25193281254E+02  0.00000000000E+00 0.  1.
</event>
<event>
 7    1  0.2500839E-011  0.5052887E+02  0.7816164E-02  0.1300439E+00
        -11   -1    0    0    0    0  0.00000000000E+00  0.00000000000E+00  0.45593999997E+02  0.45594000000E+02  0.51100000000E-03 0. -1.
         11   -1    0    0    0    0 -0.00000000000E+00 -0.00000000000E+00 -0.45593999997E+02  0.45594000000E+02  0.51100000000E-03 0.  1.
    9900012    2    1    2    0    0  0.10170380166E+02 -0.89548449894E+01 -0.38334566044E+02  0.50528870210E+02  0.30000031491E+02 0.  0.
         12    1    1    2    0    0 -0.10170380166E+02  0.89548449894E+01  0.38334566044E+02  0.40659129790E+02  0.00000000000E+00 0. -1.
         11    1    3    3    0    0  0.76450214000E+00 -0.28350240180E+01  0.59125872429E+00  0.29952315177E+01  0.51100000000E-03 0. -1.
        -11    1    3    3    0    0  0.61964038655E+01  0.31659532648E+01  0.42844133527E+00  0.69715309063E+01  0.51100000000E-03 0.  1.
        -12    1    3    3    0    0  0.32094741605E+01 -0.92857742361E+01 -0.39354266103E+02  0.40562107786E+02  0.00000000000E+00 0.  1.
</event>
<event>
 7    1  0.2500839E-011  0.5052886E+02  0.7816164E-02  0.1300439E+00
        -11   -1    0    0    0    0  0.00000000000E+00  0.00000000000E+00  0.45593999997E+02  0.45594000000E+02  0.51100000000E-03 0. -1.
         11   -1    0    0    0    0 -0.00000000000E+00 -0.00000000000E+00 -0.45593999997E+02  0.45594000000E+02  0.51100000000E-03 0.  1.
    9900012    2    1    2    0    0  0.30872858918E+02 -0.22524989980E+01 -0.26362060182E+02  0.50528863431E+02  0.30000010884E+02 0.  0.
         12    1    1    2    0    0 -0.30872858918E+02  0.22524989980E+01  0.26362060182E+02  0.40659136569E+02  0.00000000000E+00 0. -1.
         11    1    3    3    0    0 -0.78508865918E+00 -0.96569197819E+01 -0.85022791869E+01  0.12890353584E+02  0.51100000000E-03 0. -1.
        -11    1    3    3    0    0  0.14573369779E+02  0.25280967147E+00 -0.87231968322E+01  0.16986500012E+02  0.51100000000E-03 0.  1.
        -12    1    3    3    0    0  0.17084577798E+02  0.71516111125E+01 -0.91365841632E+01  0.20652009835E+02  0.00000000000E+00 0.  1.
</event>
<event>
 7    1  0.2500839E-011  0.5052884E+02  0.7816164E-02  0.1300439E+00
        -11   -1    0    0    0    0  0.00000000000E+00  0.00000000000E+00  0.45593999997E+02  0.45594000000E+02  0.51100000000E-03 0. -1.
         11   -1    0    0    0    0 -0.00000000000E+00 -0.00000000000E+00 -0.45593999997E+02  0.45594000000E+02  0.51100000000E-03 0.  1.
    9900012    2    1    2    0    0 -0.24078641684E+02  0.28554604645E+02  0.16063028743E+02  0.50528839603E+02  0.29999938459E+02 0.  0.
         12    1    1    2    0    0  0.24078641684E+02 -0.28554604645E+02 -0.16063028743E+02  0.40659160397E+02  0.00000000000E+00 0. -1.
         11    1    3    3    0    0 -0.72791392961E+01 -0.85021896141E+00 -0.20627307144E+01  0.76133829167E+01  0.51100000000E-03 0.  1.
        -11    1    3    3    0    0 -0.18692044854E+02  0.28511370231E+02  0.11520044745E+02  0.35986139060E+02  0.51100000000E-03 0. -1.
         12    1    3    3    0    0  0.18925424657E+01  0.89345337484E+00  0.66057147115E+01  0.69293176264E+01  0.00000000000E+00 0. -1.
</event>
<event>
 7    1  0.3255423E-011  0.5052886E+02  0.7816164E-02  0.1300439E+00
        -11   -1    0    0    0    0  0.00000000000E+00  0.00000000000E+00  0.45593999997E+02  0.45594000000E+02  0.51100000000E-03 0.  1.
         11   -1    0    0    0    0 -0.00000000000E+00 -0.00000000000E+00 -0.45593999997E+02  0.45594000000E+02  0.51100000000E-03 0. -1.
    9900012    2    1    2    0    0 -0.40334212504E+02 -0.40348828931E+01 -0.31680599122E+01  0.50528861029E+02  0.30000003584E+02 0.  0.
         12    1    1    2    0    0  0.40334212504E+02  0.40348828931E+01  0.31680599122E+01  0.40659138971E+02  0.00000000000E+00 0. -1.
         11    1    3    3    0    0 -0.32110270415E+01  0.46239619829E+01  0.73818064977E+00  0.56777310621E+01  0.51100000000E-03 0. -1.
        -11    1    3    3    0    0 -0.69387517925E+01 -0.57345112686E+00 -0.10801378227E+02  0.12850871351E+02  0.51100000000E-03 0.  1.
        -12    1    3    3    0    0 -0.30184433670E+02 -0.80853937492E+01  0.68951376649E+01  0.32000258615E+02  0.00000000000E+00 0.  1.
</event>
<event>
 7    1  0.2500839E-011  0.5052885E+02  0.7816164E-02  0.1300439E+00
        -11   -1    0    0    0    0  0.00000000000E+00  0.00000000000E+00  0.45593999997E+02  0.45594000000E+02  0.51100000000E-03 0. -1.
         11   -1    0    0    0    0 -0.00000000000E+00 -0.00000000000E+00 -0.45593999997E+02  0.45594000000E+02  0.51100000000E-03 0.  1.
    9900012    2    1    2    0    0 -0.28571052365E+02 -0.18316953424E+02 -0.22390863035E+02  0.50528848958E+02  0.29999966893E+02 0.  0.
         12    1    1    2    0    0  0.28571052365E+02  0.18316953424E+02  0.22390863035E+02  0.40659151042E+02  0.00000000000E+00 0. -1.
         11    1    3    3    0    0  0.99365871493E+00 -0.36321372647E+01 -0.88957293413E+01  0.96599057721E+01  0.51100000000E-03 0. -1.
        -11    1    3    3    0    0 -0.10245695565E+02 -0.15368881791E+02 -0.10673207369E+02  0.21332936060E+02  0.51100000000E-03 0.  1.
        -12    1    3    3    0    0 -0.19319015515E+02  0.68406563161E+00 -0.28219263248E+01  0.19536007126E+02  0.00000000000E+00 0.  1.
</event>
<event>
 7    1  0.2500839E-011  0.5052886E+02  0.7816164E-02  0.1300439E+00
        -11   -1    0    0    0    0  0.00000000000E+00  0.00000000000E+00  0.45593999997E+02  0.45594000000E+02  0.51100000000E-03 0.  1.
         11   -1    0    0    0    0 -0.00000000000E+00 -0.00000000000E+00 -0.45593999997E+02  0.45594000000E+02  0.51100000000E-03 0. -1.
    9900012    2    1    2    0    0 -0.21562149941E+00 -0.38403644728E+02  0.13352133215E+02  0.50528857333E+02  0.29999992350E+02 0.  0.
         12    1    1    2    0    0  0.21562149941E+00  0.38403644728E+02 -0.13352133215E+02  0.40659142667E+02  0.00000000000E+00 0. -1.
         11    1    3    3    0    0 -0.10579230459E+02 -0.88747971751E+01  0.53272280249E+01  0.14800726357E+02  0.51100000000E-03 0. -1.
        -11    1    3    3    0    0  0.57787070499E+00 -0.97332658744E+01  0.94782936590E+01  0.13598104650E+02  0.51100000000E-03 0.  1.
        -12    1    3    3    0    0  0.97857382543E+01 -0.19795581678E+02 -0.14533884692E+01  0.22130026326E+02  0.00000000000E+00 0.  1.
</event>
<event>
 7    1  0.2500839E-011  0.5052886E+02  0.7816164E-02  0.1300439E+00
        -11   -1    0    0    0    0  0.00000000000E+00  0.00000000000E+00  0.45593999997E+02  0.45594000000E+02  0.51100000000E-03 0.  1.
         11   -1    0    0    0    0 -0.00000000000E+00 -0.00000000000E+00 -0.45593999997E+02  0.45594000000E+02  0.51100000000E-03 0. -1.
    9900012    2    1    2    0    0 -0.32614413821E+02 -0.20978223076E+02  0.12222113466E+02  0.50528857242E+02  0.29999992072E+02 0.  0.
         12    1    1    2    0    0  0.32614413821E+02  0.20978223076E+02 -0.12222113466E+02  0.40659142758E+02  0.00000000000E+00 0. -1.
         11    1    3    3    0    0 -0.43588440687E+01 -0.10036345204E+02  0.20087796726E+00  0.10943861242E+02  0.51100000000E-03 0. -1.
        -11    1    3    3    0    0 -0.45547804298E+01 -0.54916198248E+00  0.12899290483E+02  0.13690847267E+02  0.51100000000E-03 0.  1.
         12    1    3    3    0    0 -0.23700789322E+02 -0.10392715890E+02 -0.87805498492E+00  0.25894148733E+02  0.00000000000E+00 0. -1.
</event>
<event>
 7    1  0.2500839E-011  0.5052886E+02  0.7816164E-02  0.1300439E+00
        -11   -1    0    0    0    0  0.00000000000E+00  0.00000000000E+00  0.45593999997E+02  0.45594000000E+02  0.51100000000E-03 0.  1.
         11   -1    0    0    0    0 -0.00000000000E+00 -0.00000000000E+00 -0.45593999997E+02  0.45594000000E+02  0.51100000000E-03 0. -1.
    9900012    2    1    2    0    0  0.10326501371E+02 -0.73592769199E+01  0.38631206277E+02  0.50528859751E+02  0.29999999700E+02 0.  0.
         12    1    1    2    0    0 -0.10326501371E+02  0.73592769199E+01 -0.38631206277E+02  0.40659140249E+02  0.00000000000E+00 0. -1.
         11    1    3    3    0    0 -0.94006035384E+01 -0.42446129010E+01  0.15854643305E+02  0.18914486515E+02  0.51100000000E-03 0. -1.
        -11    1    3    3    0    0  0.43535150898E+01  0.22018398138E+00  0.11387395556E+02  0.12193209276E+02  0.51100000000E-03 0.  1.
        -12    1    3    3    0    0  0.15373589820E+02 -0.33348480003E+01  0.11389167416E+02  0.19421163960E+02  0.00000000000E+00 0.  1.
</event>
<event>
 7    1  0.2500839E-011  0.5052886E+02  0.7816164E-02  0.1300439E+00
        -11   -1    0    0    0    0  0.00000000000E+00  0.00000000000E+00  0.45593999997E+02  0.45594000000E+02  0.51100000000E-03 0.  1.
         11   -1    0    0    0    0 -0.00000000000E+00 -0.00000000000E+00 -0.45593999997E+02  0.45594000000E+02  0.51100000000E-03 0. -1.
    9900012    2    1    2    0    0 -0.80862492760E+00  0.28617100007E+02  0.28871671797E+02  0.50528859337E+02  0.29999998442E+02 0.  0.
         12    1    1    2    0    0  0.80862492760E+00 -0.28617100007E+02 -0.28871671797E+02  0.40659140663E+02  0.00000000000E+00 0. -1.
         11    1    3    3    0    0 -0.18402815488E+01 -0.27860550422E+00  0.67721942203E+01  0.70233091933E+01  0.51100000000E-03 0.  1.
        -11    1    3    3    0    0  0.89625545865E+01  0.17578070313E+01  0.42882147692E+01  0.10089898733E+02  0.51100000000E-03 0. -1.
         12    1    3    3    0    0 -0.79308979653E+01  0.27137898480E+02  0.17811262807E+02  0.33415651411E+02  0.00000000000E+00 0. -1.
</event>
<event>
 7    1  0.2500839E-011  0.5052884E+02  0.7816164E-02  0.1300439E+00
        -11   -1    0    0    0    0  0.00000000000E+00  0.00000000000E+00  0.45593999997E+02  0.45594000000E+02  0.51100000000E-03 0. -1.
         11   -1    0    0    0    0 -0.00000000000E+00 -0.00000000000E+00 -0.45593999997E+02  0.45594000000E+02  0.51100000000E-03 0.  1.
    9900012    2    1    2    0    0 -0.31143564905E+02  0.20145004026E+02  0.16656057835E+02  0.50528842547E+02  0.29999947406E+02 0.  0.
         12    1    1    2    0    0  0.31143564905E+02 -0.20145004026E+02 -0.16656057835E+02  0.40659157453E+02  0.00000000000E+00 0. -1.
         11    1    3    3    0    0 -0.12201593496E+02 -0.13361883054E+01  0.32716101531E+01  0.12703059327E+02  0.51100000000E-03 0. -1.
        -11    1    3    3    0    0 -0.15318184258E+02  0.10205919180E+02 -0.18835652399E+01  0.18502847715E+02  0.51100000000E-03 0.  1.
         12    1    3    3    0    0 -0.36237871508E+01  0.11275273151E+02  0.15268012922E+02  0.19322935505E+02  0.00000000000E+00 0. -1.
</event>
<event>
 7    1  0.2500839E-011  0.5052886E+02  0.7816164E-02  0.1300439E+00
        -11   -1    0    0    0    0  0.00000000000E+00  0.00000000000E+00  0.45593999997E+02  0.45594000000E+02  0.51100000000E-03 0.  1.
         11   -1    0    0    0    0 -0.00000000000E+00 -0.00000000000E+00 -0.45593999997E+02  0.45594000000E+02  0.51100000000E-03 0. -1.
    9900012    2    1    2    0    0 -0.17482493262E+02  0.12725508707E+01  0.36686629740E+02  0.50528858862E+02  0.29999996998E+02 0.  0.
         12    1    1    2    0    0  0.17482493262E+02 -0.12725508707E+01 -0.36686629740E+02  0.40659141138E+02  0.00000000000E+00 0. -1.
         11    1    3    3    0    0 -0.47175105620E+01  0.76894362961E+01  0.67238251682E+01  0.11251318216E+02  0.51100000000E-03 0. -1.
        -11    1    3    3    0    0 -0.11019038230E+02 -0.98307400935E+01  0.76370399793E+01  0.16624892006E+02  0.51100000000E-03 0.  1.
         12    1    3    3    0    0 -0.17459444707E+01  0.34138546681E+01  0.22325764592E+02  0.22652648640E+02  0.00000000000E+00 0. -1.
</event>
<event>
 7    1  0.2500839E-011  0.5052887E+02  0.7816164E-02  0.1300439E+00
        -11   -1    0    0    0    0  0.00000000000E+00  0.00000000000E+00  0.45593999997E+02  0.45594000000E+02  0.51100000000E-03 0.  1.
         11   -1    0    0    0    0 -0.00000000000E+00 -0.00000000000E+00 -0.45593999997E+02  0.45594000000E+02  0.51100000000E-03 0. -1.
    9900012    2    1    2    0    0  0.15940283769E+02 -0.32870688443E+02  0.17849095206E+02  0.50528868123E+02  0.30000025145E+02 0.  0.
         12    1    1    2    0    0 -0.15940283769E+02  0.32870688443E+02 -0.17849095206E+02  0.40659131877E+02  0.00000000000E+00 0. -1.
         11    1    3    3    0    0 -0.78799792823E+00 -0.73289388090E+01 -0.33505754333E+01  0.80969525623E+01  0.51100000000E-03 0. -1.
        -11    1    3    3    0    0  0.11065521173E+02 -0.24416862334E+02  0.79219167245E+01  0.27953276908E+02  0.51100000000E-03 0.  1.
         12    1    3    3    0    0  0.56627605241E+01 -0.11248873002E+01  0.13277753915E+02  0.14478638652E+02  0.00000000000E+00 0. -1.
</event>
<event>
 7    1  0.2500839E-011  0.5052886E+02  0.7816164E-02  0.1300439E+00
        -11   -1    0    0    0    0  0.00000000000E+00  0.00000000000E+00  0.45593999997E+02  0.45594000000E+02  0.51100000000E-03 0.  1.
         11   -1    0    0    0    0 -0.00000000000E+00 -0.00000000000E+00 -0.45593999997E+02  0.45594000000E+02  0.51100000000E-03 0. -1.
    9900012    2    1    2    0    0 -0.26024054379E+02  0.21603253192E+01  0.31164838684E+02  0.50528861027E+02  0.30000003578E+02 0.  0.
         12    1    1    2    0    0  0.26024054379E+02 -0.21603253192E+01 -0.31164838684E+02  0.40659138973E+02  0.00000000000E+00 0. -1.
         11    1    3    3    0    0  0.14980870391E+01 -0.54762484947E+01 -0.17282260377E+01  0.59346716717E+01  0.51100000000E-03 0. -1.
        -11    1    3    3    0    0 -0.15420797160E+02 -0.19279379604E+00  0.20002866105E+02  0.25257727672E+02  0.51100000000E-03 0.  1.
        -12    1    3    3    0    0 -0.12101344259E+02  0.78293676099E+01  0.12890198617E+02  0.19336461683E+02  0.00000000000E+00 0.  1.
</event>
<event>
 7    1  0.2500839E-011  0.5052885E+02  0.7816164E-02  0.1300439E+00
        -11   -1    0    0    0    0  0.00000000000E+00  0.00000000000E+00  0.45593999997E+02  0.45594000000E+02  0.51100000000E-03 0.  1.
         11   -1    0    0    0    0 -0.00000000000E+00 -0.00000000000E+00 -0.45593999997E+02  0.45594000000E+02  0.51100000000E-03 0. -1.
    9900012    2    1    2    0    0  0.98157001475E+01  0.10837771722E+02  0.37938908943E+02  0.50528854939E+02  0.29999985073E+02 0.  0.
         12    1    1    2    0    0 -0.98157001475E+01 -0.10837771722E+02 -0.37938908943E+02  0.40659145061E+02  0.00000000000E+00 0. -1.
         11    1    3    3    0    0 -0.15346815119E+01  0.56657269553E+01  0.22141742430E+02  0.22906603139E+02  0.51100000000E-03 0.  1.
        -11    1    3    3    0    0  0.13603173206E+02  0.15250887649E+01  0.18149395193E+02  0.22732636520E+02  0.51100000000E-03 0. -1.
         12    1    3    3    0    0 -0.22527915466E+01  0.36469560020E+01 -0.23522286793E+01  0.48896152806E+01  0.00000000000E+00 0. -1.
</event>
<event>
 7    1  0.2500839E-011  0.5052886E+02  0.7816164E-02  0.1300439E+00
        -11   -1    0    0    0    0  0.00000000000E+00  0.00000000000E+00  0.45593999997E+02  0.45594000000E+02  0.51100000000E-03 0.  1.
         11   -1    0    0    0    0 -0.00000000000E+00 -0.00000000000E+00 -0.45593999997E+02  0.45594000000E+02  0.51100000000E-03 0. -1.
    9900012    2    1    2    0    0 -0.14453843653E+02  0.21407059899E+02  0.31400474648E+02  0.50528860585E+02  0.30000002233E+02 0.  0.
         12    1    1    2    0    0  0.14453843653E+02 -0.21407059899E+02 -0.31400474648E+02  0.40659139415E+02  0.00000000000E+00 0. -1.
         11    1    3    3    0    0 -0.11096750924E+02  0.10503482839E+02  0.28943152804E+01  0.15551144460E+02  0.51100000000E-03 0. -1.
        -11    1    3    3    0    0  0.15885049174E+01  0.14215642998E+02  0.19554935209E+02  0.24228151911E+02  0.51100000000E-03 0.  1.
        -12    1    3    3    0    0 -0.49455976469E+01 -0.33120659376E+01  0.89512241582E+01  0.10749564214E+02  0.00000000000E+00 0.  1.
</event>
<event>
 7    1  0.2500839E-011  0.5052887E+02  0.7816164E-02  0.1300439E+00
        -11   -1    0    0    0    0  0.00000000000E+00  0.00000000000E+00  0.45593999997E+02  0.45594000000E+02  0.51100000000E-03 0. -1.
         11   -1    0    0    0    0 -0.00000000000E+00 -0.00000000000E+00 -0.45593999997E+02  0.45594000000E+02  0.51100000000E-03 0.  1.
    9900012    2    1    2    0    0  0.31688832459E+02 -0.24487271549E+02  0.70253944939E+01  0.50528871402E+02  0.30000035114E+02 0.  0.
         12    1    1    2    0    0 -0.31688832459E+02  0.24487271549E+02 -0.70253944939E+01  0.40659128598E+02  0.00000000000E+00 0. -1.
         11    1    3    3    0    0  0.15600880783E+02 -0.77288159484E+01  0.10024545285E+02  0.20090136525E+02  0.51100000000E-03 0. -1.
        -11    1    3    3    0    0  0.18861499863E+02 -0.69559188838E+01 -0.19845275638E+01  0.20200973603E+02  0.51100000000E-03 0.  1.
        -12    1    3    3    0    0 -0.27735481861E+01 -0.98025367167E+01 -0.10146232271E+01  0.10237761275E+02  0.00000000000E+00 0.  1.
</event>
<event>
 7    1  0.2500839E-011  0.5052886E+02  0.7816164E-02  0.1300439E+00
        -11   -1    0    0    0    0  0.00000000000E+00  0.00000000000E+00  0.45593999997E+02  0.45594000000E+02  0.51100000000E-03 0.  1.
         11   -1    0    0    0    0 -0.00000000000E+00 -0.00000000000E+00 -0.45593999997E+02  0.45594000000E+02  0.51100000000E-03 0. -1.
    9900012    2    1    2    0    0 -0.30827747069E+02  0.60722621764E+01  0.25805875564E+02  0.50528861164E+02  0.30000003993E+02 0.  0.
         12    1    1    2    0    0  0.30827747069E+02 -0.60722621764E+01 -0.25805875564E+02  0.40659138836E+02  0.00000000000E+00 0. -1.
         11    1    3    3    0    0 -0.43232359714E+01 -0.73155545829E+01  0.20541950830E+01  0.87422780681E+01  0.51100000000E-03 0. -1.
        -11    1    3    3    0    0 -0.11458866736E+02  0.18221819271E+01  0.18935677574E+02  0.22207788257E+02  0.51100000000E-03 0.  1.
        -12    1    3    3    0    0 -0.15045644362E+02  0.11565634832E+02  0.48160029073E+01  0.19578794838E+02  0.00000000000E+00 0.  1.
</event>
<event>
 7    1  0.2500839E-011  0.5052886E+02  0.7816164E-02  0.1300439E+00
        -11   -1    0    0    0    0  0.00000000000E+00  0.00000000000E+00  0.45593999997E+02  0.45594000000E+02  0.51100000000E-03 0.  1.
         11   -1    0    0    0    0 -0.00000000000E+00 -0.00000000000E+00 -0.45593999997E+02  0.45594000000E+02  0.51100000000E-03 0. -1.
    9900012    2    1    2    0    0  0.38410161274E+02 -0.13002003341E+02 -0.29618912559E+01  0.50528863514E+02  0.30000011139E+02 0.  0.
         12    1    1    2    0    0 -0.38410161274E+02  0.13002003341E+02  0.29618912559E+01  0.40659136486E+02  0.00000000000E+00 0. -1.
         11    1    3    3    0    0  0.26008549118E+02 -0.10821976911E+02 -0.81119084572E+01  0.29314891618E+02  0.51100000000E-03 0. -1.
        -11    1    3    3    0    0  0.16425855421E+02 -0.19459710482E+01  0.39110006016E+01  0.16996807218E+02  0.51100000000E-03 0.  1.
         12    1    3    3    0    0 -0.40242432662E+01 -0.23405538135E+00  0.12390165997E+01  0.42171646780E+01  0.00000000000E+00 0. -1.
</event>
<event>
 7    1  0.2500839E-011  0.5052886E+02  0.7816164E-02  0.1300439E+00
        -11   -1    0    0    0    0  0.00000000000E+00  0.00000000000E+00  0.45593999997E+02  0.45594000000E+02  0.51100000000E-03 0.  1.
         11   -1    0    0    0    0 -0.00000000000E+00 -0.00000000000E+00 -0.45593999997E+02  0.45594000000E+02  0.51100000000E-03 0. -1.
    9900012    2    1    2    0    0 -0.22325676043E+02  0.18787666724E+02  0.28315252398E+02  0.50528858960E+02  0.29999997295E+02 0.  0.
         12    1    1    2    0    0  0.22325676043E+02 -0.18787666724E+02 -0.28315252398E+02  0.40659141040E+02  0.00000000000E+00 0. -1.
         11    1    3    3    0    0 -0.11038128935E+02  0.75291377433E+01  0.80635769294E+01  0.15606071854E+02  0.51100000000E-03 0. -1.
        -11    1    3    3    0    0 -0.13027875435E+02  0.11875257172E+01  0.20927860553E+02  0.24680176322E+02  0.51100000000E-03 0.  1.
         12    1    3    3    0    0  0.17403283271E+01  0.10071003263E+02 -0.67618508428E+00  0.10242610785E+02  0.00000000000E+00 0. -1.
</event>
<event>
 7    1  0.2500839E-011  0.5052885E+02  0.7816164E-02  0.1300439E+00
        -11   -1    0    0    0    0  0.00000000000E+00  0.00000000000E+00  0.45593999997E+02  0.45594000000E+02  0.51100000000E-03 0.  1.
         11   -1    0    0    0    0 -0.00000000000E+00 -0.00000000000E+00 -0.45593999997E+02  0.45594000000E+02  0.51100000000E-03 0. -1.
    9900012    2    1    2    0    0  0.20735543315E+02  0.17336066149E+02  0.30375388020E+02  0.50528854123E+02  0.29999982593E+02 0.  0.
         12    1    1    2    0    0 -0.20735543315E+02 -0.17336066149E+02 -0.30375388020E+02  0.40659145877E+02  0.00000000000E+00 0. -1.
         11    1    3    3    0    0 -0.38910223012E+00  0.72135379658E+01  0.20859740570E+02  0.22075219306E+02  0.51100000000E-03 0. -1.
        -11    1    3    3    0    0  0.85915781202E+01  0.74869153785E+01  0.10648047240E+02  0.15596474819E+02  0.51100000000E-03 0.  1.
         12    1    3    3    0    0  0.12533067425E+02  0.26356128048E+01 -0.11323997901E+01  0.12857159998E+02  0.00000000000E+00 0. -1.
</event>
<event>
 7    1  0.2500839E-011  0.5052882E+02  0.7816164E-02  0.1300439E+00
        -11   -1    0    0    0    0  0.00000000000E+00  0.00000000000E+00  0.45593999997E+02  0.45594000000E+02  0.51100000000E-03 0. -1.
         11   -1    0    0    0    0 -0.00000000000E+00 -0.00000000000E+00 -0.45593999997E+02  0.45594000000E+02  0.51100000000E-03 0.  1.
    9900012    2    1    2    0    0  0.48956173331E+01 -0.29384681222E+02 -0.27672050762E+02  0.50528819573E+02  0.29999877575E+02 0.  0.
         12    1    1    2    0    0 -0.48956173331E+01  0.29384681222E+02  0.27672050762E+02  0.40659180427E+02  0.00000000000E+00 0. -1.
         11    1    3    3    0    0 -0.55522305658E+01 -0.21232651256E+02 -0.15939049426E+02  0.27123901645E+02  0.51100000000E-03 0. -1.
        -11    1    3    3    0    0  0.35499857956E+01 -0.41527547587E+01 -0.14072180996E+02  0.15095497655E+02  0.51100000000E-03 0.  1.
         12    1    3    3    0    0  0.68978621034E+01 -0.39992752076E+01  0.23391796597E+01  0.83094202725E+01  0.00000000000E+00 0. -1.
</event>
<event>
 7    1  0.2500839E-011  0.5052892E+02  0.7816164E-02  0.1300439E+00
        -11   -1    0    0    0    0  0.00000000000E+00  0.00000000000E+00  0.45593999997E+02  0.45594000000E+02  0.51100000000E-03 0.  1.
         11   -1    0    0    0    0 -0.00000000000E+00 -0.00000000000E+00 -0.45593999997E+02  0.45594000000E+02  0.51100000000E-03 0. -1.
    9900012    2    1    2    0    0 -0.11257515009E+02  0.34360928172E+01  0.38918150289E+02  0.50528919834E+02  0.30000182327E+02 0.  0.
         12    1    1    2    0    0  0.11257515009E+02 -0.34360928172E+01 -0.38918150289E+02  0.40659080166E+02  0.00000000000E+00 0. -1.
         11    1    3    3    0    0 -0.51325064073E+00  0.49529697722E+01  0.42552415378E+01  0.65499936329E+01  0.51100000000E-03 0.  1.
        -11    1    3    3    0    0 -0.11055714802E+02 -0.25401070711E+01  0.22703673598E+01  0.11568731215E+02  0.51100000000E-03 0. -1.
         12    1    3    3    0    0  0.31145043355E+00  0.10232301161E+01  0.32392541391E+02  0.32410194986E+02  0.00000000000E+00 0. -1.
</event>
<event>
 7    1  0.2500839E-011  0.5052886E+02  0.7816164E-02  0.1300439E+00
        -11   -1    0    0    0    0  0.00000000000E+00  0.00000000000E+00  0.45593999997E+02  0.45594000000E+02  0.51100000000E-03 0.  1.
         11   -1    0    0    0    0 -0.00000000000E+00 -0.00000000000E+00 -0.45593999997E+02  0.45594000000E+02  0.51100000000E-03 0. -1.
    9900012    2    1    2    0    0 -0.25163287028E+02  0.26547785919E+02  0.17753576096E+02  0.50528863075E+02  0.30000009804E+02 0.  0.
         12    1    1    2    0    0  0.25163287028E+02 -0.26547785919E+02 -0.17753576096E+02  0.40659136925E+02  0.00000000000E+00 0. -1.
         11    1    3    3    0    0 -0.20198135339E+02  0.22222481453E+02  0.12243263707E+02  0.32429937705E+02  0.51100000000E-03 0. -1.
        -11    1    3    3    0    0 -0.10703564179E+02  0.14725173336E+01  0.39453749034E+01  0.11502198782E+02  0.51100000000E-03 0.  1.
        -12    1    3    3    0    0  0.57384124906E+01  0.28527871326E+01  0.15649374854E+01  0.65967265875E+01  0.00000000000E+00 0.  1.
</event>
<event>
 7    1  0.2500839E-011  0.5052888E+02  0.7816164E-02  0.1300439E+00
        -11   -1    0    0    0    0  0.00000000000E+00  0.00000000000E+00  0.45593999997E+02  0.45594000000E+02  0.51100000000E-03 0. -1.
         11   -1    0    0    0    0 -0.00000000000E+00 -0.00000000000E+00 -0.45593999997E+02  0.45594000000E+02  0.51100000000E-03 0.  1.
    9900012    2    1    2    0    0  0.85933519007E+01 -0.35353855805E+02 -0.18150030959E+02  0.50528875059E+02  0.30000046229E+02 0.  0.
         12    1    1    2    0    0 -0.85933519007E+01  0.35353855805E+02  0.18150030959E+02  0.40659124941E+02  0.00000000000E+00 0. -1.
         11    1    3    3    0    0 -0.49134531437E+01 -0.15814551301E+02 -0.12796557646E+02  0.20928304816E+02  0.51100000000E-03 0. -1.
        -11    1    3    3    0    0  0.36364573198E+01 -0.18757582859E+02 -0.23322996496E+01  0.19248645627E+02  0.51100000000E-03 0.  1.
        -12    1    3    3    0    0  0.98703477245E+01 -0.78172164464E+00 -0.30211736637E+01  0.10351924615E+02  0.00000000000E+00 0.  1.
</event>
<event>
 7    1  0.2500839E-011  0.5052881E+02  0.7816164E-02  0.1300439E+00
        -11   -1    0    0    0    0  0.00000000000E+00  0.00000000000E+00  0.45593999997E+02  0.45594000000E+02  0.51100000000E-03 0.  1.
         11   -1    0    0    0    0 -0.00000000000E+00 -0.00000000000E+00 -0.45593999997E+02  0.45594000000E+02  0.51100000000E-03 0. -1.
    9900012    2    1    2    0    0  0.34648116618E+02  0.94869297252E+01  0.19044044112E+02  0.50528813622E+02  0.29999859485E+02 0.  0.
         12    1    1    2    0    0 -0.34648116618E+02 -0.94869297252E+01 -0.19044044112E+02  0.40659186378E+02  0.00000000000E+00 0. -1.
         11    1    3    3    0    0 -0.17135359152E+00 -0.20998086482E+01 -0.31030768044E+01  0.37506858476E+01  0.51100000000E-03 0. -1.
        -11    1    3    3    0    0 -0.13699493111E+01 -0.10045160795E+01  0.40708815558E+01  0.44111099024E+01  0.51100000000E-03 0.  1.
        -12    1    3    3    0    0  0.36189419521E+02  0.12591254453E+02  0.18076239360E+02  0.42367017872E+02  0.00000000000E+00 0.  1.
</event>
<event>
 7    1  0.2500839E-011  0.5052886E+02  0.7816164E-02  0.1300439E+00
        -11   -1    0    0    0    0  0.00000000000E+00  0.00000000000E+00  0.45593999997E+02  0.45594000000E+02  0.51100000000E-03 0.  1.
         11   -1    0    0    0    0 -0.00000000000E+00 -0.00000000000E+00 -0.45593999997E+02  0.45594000000E+02  0.51100000000E-03 0. -1.
    9900012    2    1    2    0    0 -0.21930337563E+02  0.41410344565E+01  0.33986437508E+02  0.50528858266E+02  0.29999995186E+02 0.  0.
         12    1    1    2    0    0  0.21930337563E+02 -0.41410344565E+01 -0.33986437508E+02  0.40659141734E+02  0.00000000000E+00 0. -1.
         11    1    3    3    0    0 -0.56576368963E+00  0.14051129366E+01 -0.39729961012E+01  0.42519559262E+01  0.51100000000E-03 0. -1.
        -11    1    3    3    0    0 -0.88427490472E+01  0.48892514395E+01  0.56902568713E+01  0.11596465577E+02  0.51100000000E-03 0.  1.
        -12    1    3    3    0    0 -0.12521824826E+02 -0.21533299196E+01  0.32269176738E+02  0.34680436763E+02  0.00000000000E+00 0.  1.
</event>
<event>
 7    1  0.2500839E-011  0.5052886E+02  0.7816164E-02  0.1300439E+00
        -11   -1    0    0    0    0  0.00000000000E+00  0.00000000000E+00  0.45593999997E+02  0.45594000000E+02  0.51100000000E-03 0.  1.
         11   -1    0    0    0    0 -0.00000000000E+00 -0.00000000000E+00 -0.45593999997E+02  0.45594000000E+02  0.51100000000E-03 0. -1.
    9900012    2    1    2    0    0  0.43012845632E+01  0.51546026488E+01  0.40101054040E+02  0.50528861882E+02  0.30000006177E+02 0.  0.
         12    1    1    2    0    0 -0.43012845632E+01 -0.51546026488E+01 -0.40101054040E+02  0.40659138118E+02  0.00000000000E+00 0. -1.
         11    1    3    3    0    0 -0.17403351210E+01  0.36190169596E+01  0.25463571412E+01  0.47549957980E+01  0.51100000000E-03 0. -1.
        -11    1    3    3    0    0  0.43940804738E+00  0.13035030036E+02  0.22613400733E+02  0.26104999146E+02  0.51100000000E-03 0.  1.
         12    1    3    3    0    0  0.56022116369E+01 -0.11499444347E+02  0.14941296166E+02  0.19668866938E+02  0.00000000000E+00 0. -1.
</event>
<event>
 7    1  0.2500839E-011  0.5052887E+02  0.7816164E-02  0.1300439E+00
        -11   -1    0    0    0    0  0.00000000000E+00  0.00000000000E+00  0.45593999997E+02  0.45594000000E+02  0.51100000000E-03 0.  1.
         11   -1    0    0    0    0 -0.00000000000E+00 -0.00000000000E+00 -0.45593999997E+02  0.45594000000E+02  0.51100000000E-03 0. -1.
    9900012    2    1    2    0    0  0.29862994316E+02  0.17815448372E+02  0.21070752634E+02  0.50528865150E+02  0.30000016110E+02 0.  0.
         12    1    1    2    0    0 -0.29862994316E+02 -0.17815448372E+02 -0.21070752634E+02  0.40659134850E+02  0.00000000000E+00 0. -1.
         11    1    3    3    0    0 -0.22480084370E+01  0.96291768767E+01 -0.57199994341E+00  0.99046339383E+01  0.51100000000E-03 0. -1.
        -11    1    3    3    0    0  0.59859373249E+01  0.24689372716E+01  0.88839825750E+01  0.10993281747E+02  0.51100000000E-03 0.  1.
        -12    1    3    3    0    0  0.26125065428E+02  0.57173342233E+01  0.12758770002E+02  0.29630949465E+02  0.00000000000E+00 0.  1.
</event>
<event>
 7    1  0.2500839E-011  0.5052896E+02  0.7816164E-02  0.1300438E+00
        -11   -1    0    0    0    0  0.00000000000E+00  0.00000000000E+00  0.45593999997E+02  0.45594000000E+02  0.51100000000E-03 0. -1.
         11   -1    0    0    0    0 -0.00000000000E+00 -0.00000000000E+00 -0.45593999997E+02  0.45594000000E+02  0.51100000000E-03 0.  1.
    9900012    2    1    2    0    0 -0.42922285581E+01 -0.39443101092E+02  0.88868598865E+01  0.50528957606E+02  0.30000297138E+02 0.  0.
         12    1    1    2    0    0  0.42922285581E+01  0.39443101092E+02 -0.88868598865E+01  0.40659042394E+02  0.00000000000E+00 0. -1.
         11    1    3    3    0    0 -0.30185968975E+01 -0.42091000968E+01 -0.38044437037E+00  0.51935718956E+01  0.51100000000E-03 0. -1.
        -11    1    3    3    0    0  0.10595988666E+02 -0.46510975500E+01  0.25298860026E+01  0.11845168115E+02  0.51100000000E-03 0.  1.
        -12    1    3    3    0    0 -0.11869620327E+02 -0.30582903445E+02  0.67374182542E+01  0.33490217595E+02  0.00000000000E+00 0.  1.
</event>
<event>
 7    1  0.2500839E-011  0.5052886E+02  0.7816164E-02  0.1300439E+00
        -11   -1    0    0    0    0  0.00000000000E+00  0.00000000000E+00  0.45593999997E+02  0.45594000000E+02  0.51100000000E-03 0. -1.
         11   -1    0    0    0    0 -0.00000000000E+00 -0.00000000000E+00 -0.45593999997E+02  0.45594000000E+02  0.51100000000E-03 0.  1.
    9900012    2    1    2    0    0  0.16419237246E+02 -0.32106406829E+02 -0.18781718022E+02  0.50528860276E+02  0.30000001296E+02 0.  0.
         12    1    1    2    0    0 -0.16419237246E+02  0.32106406829E+02  0.18781718022E+02  0.40659139724E+02  0.00000000000E+00 0. -1.
         11    1    3    3    0    0  0.77708535619E+01 -0.20257936347E+02  0.18099951053E+00  0.21697993253E+02  0.51100000000E-03 0. -1.
        -11    1    3    3    0    0  0.93999993437E+00  0.34389080866E+01 -0.41487465586E+00  0.35891238410E+01  0.51100000000E-03 0.  1.
        -12    1    3    3    0    0  0.77083837497E+01 -0.15287378569E+02 -0.18547842876E+02  0.25241743183E+02  0.00000000000E+00 0.  1.
</event>
<event>
 7    1  0.2500839E-011  0.5052886E+02  0.7816164E-02  0.1300439E+00
        -11   -1    0    0    0    0  0.00000000000E+00  0.00000000000E+00  0.45593999997E+02  0.45594000000E+02  0.51100000000E-03 0.  1.
         11   -1    0    0    0    0 -0.00000000000E+00 -0.00000000000E+00 -0.45593999997E+02  0.45594000000E+02  0.51100000000E-03 0. -1.
    9900012    2    1    2    0    0  0.15572753037E+02  0.27154142067E+02 -0.25948171223E+02  0.50528860088E+02  0.30000000725E+02 0.  0.
         12    1    1    2    0    0 -0.15572753037E+02 -0.27154142067E+02  0.25948171223E+02  0.40659139912E+02  0.00000000000E+00 0. -1.
         11    1    3    3    0    0  0.69843190622E+01  0.86483577396E+01 -0.15520784215E+02  0.19091085544E+02  0.51100000000E-03 0. -1.
        -11    1    3    3    0    0  0.15142368715E+02  0.16110505791E+02 -0.10461382436E+02  0.24459767985E+02  0.51100000000E-03 0.  1.
        -12    1    3    3    0    0 -0.65539347407E+01  0.23952785371E+01  0.33995428162E-01  0.69780065595E+01  0.00000000000E+00 0.  1.
</event>
<event>
 7    1  0.2500839E-011  0.5052886E+02  0.7816164E-02  0.1300439E+00
        -11   -1    0    0    0    0  0.00000000000E+00  0.00000000000E+00  0.45593999997E+02  0.45594000000E+02  0.51100000000E-03 0.  1.
         11   -1    0    0    0    0 -0.00000000000E+00 -0.00000000000E+00 -0.45593999997E+02  0.45594000000E+02  0.51100000000E-03 0. -1.
    9900012    2    1    2    0    0  0.99188144880E+01 -0.38025836773E+02  0.10431625339E+02  0.50528856497E+02  0.29999989809E+02 0.  0.
         12    1    1    2    0    0 -0.99188144880E+01  0.38025836773E+02 -0.10431625339E+02  0.40659143503E+02  0.00000000000E+00 0. -1.
         11    1    3    3    0    0  0.12764652168E+02 -0.78470403333E+01  0.42115852522E+01  0.15564377198E+02  0.51100000000E-03 0. -1.
        -11    1    3    3    0    0 -0.62498732004E+01 -0.81515594014E+01 -0.32119533082E+01  0.10762224678E+02  0.51100000000E-03 0.  1.
        -12    1    3    3    0    0  0.34040355207E+01 -0.22027237039E+02  0.94319933947E+01  0.24202254622E+02  0.00000000000E+00 0.  1.
</event>
<event>
 7    1  0.2500839E-011  0.5052887E+02  0.7816164E-02  0.1300439E+00
        -11   -1    0    0    0    0  0.00000000000E+00  0.00000000000E+00  0.45593999997E+02  0.45594000000E+02  0.51100000000E-03 0.  1.
         11   -1    0    0    0    0 -0.00000000000E+00 -0.00000000000E+00 -0.45593999997E+02  0.45594000000E+02  0.51100000000E-03 0. -1.
    9900012    2    1    2    0    0 -0.19885424508E+02 -0.19931719298E+02  0.29333619845E+02  0.50528870702E+02  0.30000032987E+02 0.  0.
         12    1    1    2    0    0  0.19885424508E+02  0.19931719298E+02 -0.29333619845E+02  0.40659129298E+02  0.00000000000E+00 0. -1.
         11    1    3    3    0    0 -0.73523058614E+01 -0.13203270098E+02  0.17398127532E+02  0.23045120625E+02  0.51100000000E-03 0. -1.
        -11    1    3    3    0    0  0.20522166764E+01 -0.60597934892E+01 -0.25771752562E+01  0.68974287224E+01  0.51100000000E-03 0.  1.
         12    1    3    3    0    0 -0.14585335323E+02 -0.66865571108E+00  0.14512667570E+02  0.20586321355E+02  0.00000000000E+00 0. -1.
</event>
<event>
 7    1  0.2500839E-011  0.5052886E+02  0.7816164E-02  0.1300439E+00
        -11   -1    0    0    0    0  0.00000000000E+00  0.00000000000E+00  0.45593999997E+02  0.45594000000E+02  0.51100000000E-03 0. -1.
         11   -1    0    0    0    0 -0.00000000000E+00 -0.00000000000E+00 -0.45593999997E+02  0.45594000000E+02  0.51100000000E-03 0.  1.
    9900012    2    1    2    0    0  0.20106290180E+02  0.33777141678E+02 -0.10392676337E+02  0.50528856795E+02  0.29999990713E+02 0.  0.
         12    1    1    2    0    0 -0.20106290180E+02 -0.33777141678E+02  0.10392676337E+02  0.40659143205E+02  0.00000000000E+00 0. -1.
         11    1    3    3    0    0  0.10918133676E+02  0.32756001385E+02 -0.99389246653E+01  0.35929702106E+02  0.51100000000E-03 0. -1.
        -11    1    3    3    0    0  0.64125313212E+01  0.42821246229E+01 -0.43124254442E+01  0.88348266935E+01  0.51100000000E-03 0.  1.
         12    1    3    3    0    0  0.27756251829E+01 -0.32609843297E+01  0.38586737720E+01  0.57643279949E+01  0.00000000000E+00 0. -1.
</event>
<event>
 7    1  0.2500839E-011  0.5052885E+02  0.7816164E-02  0.1300439E+00
        -11   -1    0    0    0    0  0.00000000000E+00  0.00000000000E+00  0.45593999997E+02  0.45594000000E+02  0.51100000000E-03 0.  1.
         11   -1    0    0    0    0 -0.00000000000E+00 -0.00000000000E+00 -0.45593999997E+02  0.45594000000E+02  0.51100000000E-03 0. -1.
    9900012    2    1    2    0    0 -0.14229466280E+02  0.23427260207E+02  0.30030851854E+02  0.50528852265E+02  0.29999976945E+02 0.  0.
         12    1    1    2    0    0  0.14229466280E+02 -0.23427260207E+02 -0.30030851854E+02  0.40659147735E+02  0.00000000000E+00 0. -1.
         11    1    3    3    0    0 -0.35518305394E+01 -0.22362309778E+01  0.13293927140E+02  0.13940757807E+02  0.51100000000E-03 0. -1.
        -11    1    3    3    0    0  0.38027797700E+01  0.11573575582E+01  0.11635979666E+01  0.41418076954E+01  0.51100000000E-03 0.  1.
        -12    1    3    3    0    0 -0.14480415510E+02  0.24506133627E+02  0.15573326748E+02  0.32446286763E+02  0.00000000000E+00 0.  1.
</event>
<event>
 7    1  0.2500839E-011  0.5052889E+02  0.7816164E-02  0.1300439E+00
        -11   -1    0    0    0    0  0.00000000000E+00  0.00000000000E+00  0.45593999997E+02  0.45594000000E+02  0.51100000000E-03 0.  1.
         11   -1    0    0    0    0 -0.00000000000E+00 -0.00000000000E+00 -0.45593999997E+02  0.45594000000E+02  0.51100000000E-03 0. -1.
    9900012    2    1    2    0    0 -0.50323136138E+01  0.19305773019E+02  0.35427761271E+02  0.50528888834E+02  0.30000088099E+02 0.  0.
         12    1    1    2    0    0  0.50323136138E+01 -0.19305773019E+02 -0.35427761271E+02  0.40659111166E+02  0.00000000000E+00 0. -1.
         11    1    3    3    0    0  0.76780973652E+01 -0.12950127215E+01  0.45954449310E+01  0.90414794959E+01  0.51100000000E-03 0. -1.
        -11    1    3    3    0    0 -0.46992149702E+01  0.49805642389E+01  0.10657979015E+01  0.69299759669E+01  0.51100000000E-03 0.  1.
        -12    1    3    3    0    0 -0.80111960088E+01  0.15620221502E+02  0.29766518438E+02  0.34557433371E+02  0.00000000000E+00 0.  1.
</event>
<event>
 7    1  0.2500839E-011  0.5052887E+02  0.7816164E-02  0.1300439E+00
        -11   -1    0    0    0    0  0.00000000000E+00  0.00000000000E+00  0.45593999997E+02  0.45594000000E+02  0.51100000000E-03 0.  1.
         11   -1    0    0    0    0 -0.00000000000E+00 -0.00000000000E+00 -0.45593999997E+02  0.45594000000E+02  0.51100000000E-03 0. -1.
    9900012    2    1    2    0    0  0.13086466754E+01  0.37506887853E+02  0.15642439594E+02  0.50528866844E+02  0.30000021260E+02 0.  0.
         12    1    1    2    0    0 -0.13086466754E+01 -0.37506887853E+02 -0.15642439594E+02  0.40659133156E+02  0.00000000000E+00 0. -1.
         11    1    3    3    0    0  0.38209357590E+01 -0.24105849778E+01  0.34227072635E+01  0.56679268946E+01  0.51100000000E-03 0. -1.
        -11    1    3    3    0    0  0.69160207268E+01  0.17370415662E+02  0.44823055564E+01  0.19226381520E+02  0.51100000000E-03 0.  1.
        -12    1    3    3    0    0 -0.94283098103E+01  0.22547057168E+02  0.77374267740E+01  0.25634558430E+02  0.00000000000E+00 0.  1.
</event>
<event>
 7    1  0.2500839E-011  0.5052887E+02  0.7816164E-02  0.1300439E+00
        -11   -1    0    0    0    0  0.00000000000E+00  0.00000000000E+00  0.45593999997E+02  0.45594000000E+02  0.51100000000E-03 0.  1.
         11   -1    0    0    0    0 -0.00000000000E+00 -0.00000000000E+00 -0.45593999997E+02  0.45594000000E+02  0.51100000000E-03 0. -1.
    9900012    2    1    2    0    0 -0.32979827360E+02  0.23669823229E+02  0.22881460544E+01  0.50528866257E+02  0.30000019475E+02 0.  0.
         12    1    1    2    0    0  0.32979827360E+02 -0.23669823229E+02 -0.22881460544E+01  0.40659133743E+02  0.00000000000E+00 0. -1.
         11    1    3    3    0    0 -0.32461092425E+02  0.17732138232E+02  0.10623306095E+02  0.38483839210E+02  0.51100000000E-03 0.  1.
        -11    1    3    3    0    0  0.17643460477E+01  0.44649018905E+01 -0.20930636551E+01  0.52372876180E+01  0.51100000000E-03 0. -1.
        -12    1    3    3    0    0 -0.22830809828E+01  0.14727831060E+01 -0.62420963851E+01  0.68077394290E+01  0.00000000000E+00 0.  1.
</event>
<event>
 7    1  0.2500839E-011  0.5052886E+02  0.7816164E-02  0.1300439E+00
        -11   -1    0    0    0    0  0.00000000000E+00  0.00000000000E+00  0.45593999997E+02  0.45594000000E+02  0.51100000000E-03 0.  1.
         11   -1    0    0    0    0 -0.00000000000E+00 -0.00000000000E+00 -0.45593999997E+02  0.45594000000E+02  0.51100000000E-03 0. -1.
    9900012    2    1    2    0    0 -0.15683577107E+02  0.34568847375E+02  0.14566600773E+02  0.50528860095E+02  0.30000000745E+02 0.  0.
         12    1    1    2    0    0  0.15683577107E+02 -0.34568847375E+02 -0.14566600773E+02  0.40659139905E+02  0.00000000000E+00 0. -1.
         11    1    3    3    0    0 -0.12084214215E+02  0.92235203055E+01  0.12213998581E+02  0.19500854382E+02  0.51100000000E-03 0.  1.
        -11    1    3    3    0    0 -0.88965307345E+01  0.17412775329E+02  0.65291138326E+01  0.20615099599E+02  0.51100000000E-03 0. -1.
         12    1    3    3    0    0  0.52971678426E+01  0.79325517407E+01 -0.41765116402E+01  0.10412906115E+02  0.00000000000E+00 0. -1.
</event>
<event>
 7    1  0.2500839E-011  0.5052881E+02  0.7816164E-02  0.1300439E+00
        -11   -1    0    0    0    0  0.00000000000E+00  0.00000000000E+00  0.45593999997E+02  0.45594000000E+02  0.51100000000E-03 0.  1.
         11   -1    0    0    0    0 -0.00000000000E+00 -0.00000000000E+00 -0.45593999997E+02  0.45594000000E+02  0.51100000000E-03 0. -1.
    9900012    2    1    2    0    0  0.36199538469E+02 -0.17200014242E+02  0.68499824710E+01  0.50528814873E+02  0.29999863288E+02 0.  0.
         12    1    1    2    0    0 -0.36199538469E+02  0.17200014242E+02 -0.68499824710E+01  0.40659185127E+02  0.00000000000E+00 0. -1.
         11    1    3    3    0    0  0.23765646614E+02 -0.94856000073E+00 -0.40938952840E+00  0.23788092087E+02  0.51100000000E-03 0. -1.
        -11    1    3    3    0    0 -0.34297225853E+00 -0.16657469503E+01 -0.39801498227E+01  0.43282716811E+01  0.51100000000E-03 0.  1.
        -12    1    3    3    0    0  0.12776864113E+02 -0.14585707291E+02  0.11239521822E+02  0.22412451105E+02  0.00000000000E+00 0.  1.
</event>
<event>
 7    1  0.2500839E-011  0.5052885E+02  0.7816164E-02  0.1300439E+00
        -11   -1    0    0    0    0  0.00000000000E+00  0.00000000000E+00  0.45593999997E+02  0.45594000000E+02  0.51100000000E-03 0.  1.
         11   -1    0    0    0    0 -0.00000000000E+00 -0.00000000000E+00 -0.45593999997E+02  0.45594000000E+02  0.51100000000E-03 0. -1.
    9900012    2    1    2    0    0 -0.15659837817E+02  0.60454063661E+01  0.37032271187E+02  0.50528848904E+02  0.29999966729E+02 0.  0.
         12    1    1    2    0    0  0.15659837817E+02 -0.60454063661E+01 -0.37032271187E+02  0.40659151096E+02  0.00000000000E+00 0. -1.
         11    1    3    3    0    0 -0.36402475601E+00 -0.39670592070E+01 -0.65901016962E+00  0.40378666941E+01  0.51100000000E-03 0. -1.
        -11    1    3    3    0    0 -0.16929600952E+02  0.77444081594E+00  0.18254394163E+02  0.24908513675E+02  0.51100000000E-03 0.  1.
         12    1    3    3    0    0  0.16337878917E+01  0.92380247571E+01  0.19436887193E+02  0.21582468535E+02  0.00000000000E+00 0. -1.
</event>
<event>
 7    1  0.2500839E-011  0.5052885E+02  0.7816164E-02  0.1300439E+00
        -11   -1    0    0    0    0  0.00000000000E+00  0.00000000000E+00  0.45593999997E+02  0.45594000000E+02  0.51100000000E-03 0.  1.
         11   -1    0    0    0    0 -0.00000000000E+00 -0.00000000000E+00 -0.45593999997E+02  0.45594000000E+02  0.51100000000E-03 0. -1.
    9900012    2    1    2    0    0 -0.12811454910E+02  0.34675031848E+02 -0.16931477476E+02  0.50528854164E+02  0.29999982717E+02 0.  0.
         12    1    1    2    0    0  0.12811454910E+02 -0.34675031848E+02  0.16931477476E+02  0.40659145836E+02  0.00000000000E+00 0. -1.
         11    1    3    3    0    0 -0.23405554297E+01  0.10459437727E+02 -0.11624295694E+02  0.15811460651E+02  0.51100000000E-03 0. -1.
        -11    1    3    3    0    0  0.45068805540E+01 -0.92112367104E+00  0.11740204773E+01  0.47475009728E+01  0.51100000000E-03 0.  1.
        -12    1    3    3    0    0 -0.14977780035E+02  0.25136717792E+02 -0.64812022593E+01  0.29969892540E+02  0.00000000000E+00 0.  1.
</event>
<event>
 7    1  0.2500839E-011  0.5052887E+02  0.7816164E-02  0.1300439E+00
        -11   -1    0    0    0    0  0.00000000000E+00  0.00000000000E+00  0.45593999997E+02  0.45594000000E+02  0.51100000000E-03 0.  1.
         11   -1    0    0    0    0 -0.00000000000E+00 -0.00000000000E+00 -0.45593999997E+02  0.45594000000E+02  0.51100000000E-03 0. -1.
    9900012    2    1    2    0    0  0.91032119065E+01 -0.30504732396E+02  0.25293433906E+02  0.50528868623E+02  0.30000026666E+02 0.  0.
         12    1    1    2    0    0 -0.91032119065E+01  0.30504732396E+02 -0.25293433906E+02  0.40659131377E+02  0.00000000000E+00 0. -1.
         11    1    3    3    0    0  0.91243878121E+00 -0.76859960974E+01 -0.17336437201E+01  0.79317464249E+01  0.51100000000E-03 0. -1.
        -11    1    3    3    0    0  0.11291871574E+02 -0.26011906938E+02  0.22058957505E+02  0.35926637369E+02  0.51100000000E-03 0.  1.
         12    1    3    3    0    0 -0.31010984487E+01  0.31931706390E+01  0.49681201208E+01  0.66704848289E+01  0.00000000000E+00 0. -1.
</event>
<event>
 7    1  0.2500839E-011  0.5052886E+02  0.7816164E-02  0.1300439E+00
        -11   -1    0    0    0    0  0.00000000000E+00  0.00000000000E+00  0.45593999997E+02  0.45594000000E+02  0.51100000000E-03 0.  1.
         11   -1    0    0    0    0 -0.00000000000E+00 -0.00000000000E+00 -0.45593999997E+02  0.45594000000E+02  0.51100000000E-03 0. -1.
    9900012    2    1    2    0    0 -0.21925529869E+02 -0.20852835666E+02  0.27158723600E+02  0.50528857327E+02  0.29999992330E+02 0.  0.
         12    1    1    2    0    0  0.21925529869E+02  0.20852835666E+02 -0.27158723600E+02  0.40659142673E+02  0.00000000000E+00 0. -1.
         11    1    3    3    0    0 -0.40157220856E+01  0.47373094795E+01 -0.20407247840E+01  0.65370240078E+01  0.51100000000E-03 0. -1.
        -11    1    3    3    0    0 -0.28135939873E+01 -0.91323414009E+01  0.14101788378E+02  0.17034565046E+02  0.51100000000E-03 0.  1.
        -12    1    3    3    0    0 -0.15096213796E+02 -0.16457803745E+02  0.15097660007E+02  0.26957268273E+02  0.00000000000E+00 0.  1.
</event>
<event>
 7    1  0.2500839E-011  0.5052886E+02  0.7816164E-02  0.1300439E+00
        -11   -1    0    0    0    0  0.00000000000E+00  0.00000000000E+00  0.45593999997E+02  0.45594000000E+02  0.51100000000E-03 0.  1.
         11   -1    0    0    0    0 -0.00000000000E+00 -0.00000000000E+00 -0.45593999997E+02  0.45594000000E+02  0.51100000000E-03 0. -1.
    9900012    2    1    2    0    0  0.35583563590E+02  0.16386910468E+02  0.10883221852E+02  0.50528863876E+02  0.30000012239E+02 0.  0.
         12    1    1    2    0    0 -0.35583563590E+02 -0.16386910468E+02 -0.10883221852E+02  0.40659136124E+02  0.00000000000E+00 0. -1.
         11    1    3    3    0    0  0.24581436551E+02  0.89401363024E+01  0.16435486647E+02  0.30891718658E+02  0.51100000000E-03 0.  1.
        -11    1    3    3    0    0 -0.13708393281E+01 -0.75790589607E-01  0.26576765985E+01  0.29913525102E+01  0.51100000000E-03 0. -1.
         12    1    3    3    0    0  0.12372966367E+02  0.75225647550E+01 -0.82099413938E+01  0.16645792709E+02  0.00000000000E+00 0. -1.
</event>
<event>
 7    1  0.2500839E-011  0.5052884E+02  0.7816164E-02  0.1300439E+00
        -11   -1    0    0    0    0  0.00000000000E+00  0.00000000000E+00  0.45593999997E+02  0.45594000000E+02  0.51100000000E-03 0.  1.
         11   -1    0    0    0    0 -0.00000000000E+00 -0.00000000000E+00 -0.45593999997E+02  0.45594000000E+02  0.51100000000E-03 0. -1.
    9900012    2    1    2    0    0  0.11957298090E+02  0.38260092070E+02 -0.68084705770E+01  0.50528844889E+02  0.29999954523E+02 0.  0.
         12    1    1    2    0    0 -0.11957298090E+02 -0.38260092070E+02  0.68084705770E+01  0.40659155111E+02  0.00000000000E+00 0. -1.
         11    1    3    3    0    0 -0.35989539843E+01  0.28753886483E+02 -0.59717512752E+01  0.29587163961E+02  0.51100000000E-03 0. -1.
        -11    1    3    3    0    0  0.32372309929E+01  0.70073426492E+01  0.21679688767E+01  0.80176433455E+01  0.51100000000E-03 0.  1.
         12    1    3    3    0    0  0.12319021081E+02  0.24988629369E+01 -0.30046881785E+01  0.12924037582E+02  0.00000000000E+00 0. -1.
</event>
<event>
 7    1  0.2500839E-011  0.5052889E+02  0.7816164E-02  0.1300439E+00
        -11   -1    0    0    0    0  0.00000000000E+00  0.00000000000E+00  0.45593999997E+02  0.45594000000E+02  0.51100000000E-03 0. -1.
         11   -1    0    0    0    0 -0.00000000000E+00 -0.00000000000E+00 -0.45593999997E+02  0.45594000000E+02  0.51100000000E-03 0.  1.
    9900012    2    1    2    0    0 -0.23208006162E+02  0.11297177317E+02 -0.31415372523E+02  0.50528887909E+02  0.30000085287E+02 0.  0.
         12    1    1    2    0    0  0.23208006162E+02 -0.11297177317E+02  0.31415372523E+02  0.40659112091E+02  0.00000000000E+00 0. -1.
         11    1    3    3    0    0 -0.12676946800E+02  0.13046892260E+02 -0.54518941702E+01  0.18990774816E+02  0.51100000000E-03 0. -1.
        -11    1    3    3    0    0 -0.56201127415E+01 -0.18667103066E+01 -0.89067468162E+00  0.59886205629E+01  0.51100000000E-03 0.  1.
        -12    1    3    3    0    0 -0.49109466204E+01  0.11699536341E+00 -0.25072803671E+02  0.25549492530E+02  0.00000000000E+00 0.  1.
</event>
<event>
 7    1  0.2500839E-011  0.5052886E+02  0.7816164E-02  0.1300439E+00
        -11   -1    0    0    0    0  0.00000000000E+00  0.00000000000E+00  0.45593999997E+02  0.45594000000E+02  0.51100000000E-03 0. -1.
         11   -1    0    0    0    0 -0.00000000000E+00 -0.00000000000E+00 -0.45593999997E+02  0.45594000000E+02  0.51100000000E-03 0.  1.
    9900012    2    1    2    0    0  0.21854780320E+02  0.33683619921E+02  0.63990535077E+01  0.50528861302E+02  0.30000004414E+02 0.  0.
         12    1    1    2    0    0 -0.21854780320E+02 -0.33683619921E+02 -0.63990535077E+01  0.40659138698E+02  0.00000000000E+00 0. -1.
         11    1    3    3    0    0  0.15276145598E+02  0.12630504991E+02 -0.12052483418E+01  0.19858069002E+02  0.51100000000E-03 0. -1.
        -11    1    3    3    0    0 -0.58449357442E+01  0.48397359705E+01 -0.23558543494E+01  0.79458396721E+01  0.51100000000E-03 0.  1.
         12    1    3    3    0    0  0.12423570466E+02  0.16213378960E+02  0.99601561990E+01  0.22724952628E+02  0.00000000000E+00 0. -1.
</event>
<event>
 7    1  0.2500839E-011  0.5052886E+02  0.7816164E-02  0.1300439E+00
        -11   -1    0    0    0    0  0.00000000000E+00  0.00000000000E+00  0.45593999997E+02  0.45594000000E+02  0.51100000000E-03 0.  1.
         11   -1    0    0    0    0 -0.00000000000E+00 -0.00000000000E+00 -0.45593999997E+02  0.45594000000E+02  0.51100000000E-03 0. -1.
    9900012    2    1    2    0    0  0.34433217355E+01  0.13687643450E+02  0.38130800476E+02  0.50528855976E+02  0.29999988225E+02 0.  0.
         12    1    1    2    0    0 -0.34433217355E+01 -0.13687643450E+02 -0.38130800476E+02  0.40659144024E+02  0.00000000000E+00 0. -1.
         11    1    3    3    0    0 -0.53886017673E+01 -0.89344197319E+00  0.12822122897E+02  0.13937076573E+02  0.51100000000E-03 0. -1.
        -11    1    3    3    0    0  0.24693581089E+01  0.55961700400E+00 -0.32660738993E+01  0.41325705847E+01  0.51100000000E-03 0.  1.
        -12    1    3    3    0    0  0.63625653939E+01  0.14021468420E+02  0.28574751479E+02  0.32459208818E+02  0.00000000000E+00 0.  1.
</event>
<event>
 7    1  0.2500839E-011  0.5052885E+02  0.7816164E-02  0.1300439E+00
        -11   -1    0    0    0    0  0.00000000000E+00  0.00000000000E+00  0.45593999997E+02  0.45594000000E+02  0.51100000000E-03 0.  1.
         11   -1    0    0    0    0 -0.00000000000E+00 -0.00000000000E+00 -0.45593999997E+02  0.45594000000E+02  0.51100000000E-03 0. -1.
    9900012    2    1    2    0    0 -0.26641258267E+01 -0.34585593007E+02  0.21210978197E+02  0.50528850893E+02  0.29999972773E+02 0.  0.
         12    1    1    2    0    0  0.26641258267E+01  0.34585593007E+02 -0.21210978197E+02  0.40659149107E+02  0.00000000000E+00 0. -1.
         11    1    3    3    0    0  0.60802110258E+01 -0.13657821703E+01  0.28820001395E+01  0.68658759180E+01  0.51100000000E-03 0. -1.
        -11    1    3    3    0    0  0.52604498462E+01 -0.18824833218E+02  0.90545885988E+01  0.21541407875E+02  0.51100000000E-03 0.  1.
         12    1    3    3    0    0 -0.14004786699E+02 -0.14394977618E+02  0.92743894588E+01  0.22121567100E+02  0.00000000000E+00 0. -1.
</event>
<event>
 7    1  0.2500839E-011  0.5052884E+02  0.7816164E-02  0.1300439E+00
        -11   -1    0    0    0    0  0.00000000000E+00  0.00000000000E+00  0.45593999997E+02  0.45594000000E+02  0.51100000000E-03 0.  1.
         11   -1    0    0    0    0 -0.00000000000E+00 -0.00000000000E+00 -0.45593999997E+02  0.45594000000E+02  0.51100000000E-03 0. -1.
    9900012    2    1    2    0    0  0.12970283499E+02 -0.20199051248E+02  0.32816725565E+02  0.50528838644E+02  0.29999935541E+02 0.  0.
         12    1    1    2    0    0 -0.12970283499E+02  0.20199051248E+02 -0.32816725565E+02  0.40659161356E+02  0.00000000000E+00 0. -1.
         11    1    3    3    0    0  0.52695608466E+01 -0.20949226191E+02  0.12884959902E+02  0.25152744213E+02  0.51100000000E-03 0. -1.
        -11    1    3    3    0    0  0.89166837090E+01 -0.41186253049E+01  0.88912419688E+01  0.13248566216E+02  0.51100000000E-03 0.  1.
         12    1    3    3    0    0 -0.12159610562E+01  0.48688002480E+01  0.11040523695E+02  0.12127528215E+02  0.00000000000E+00 0. -1.
</event>
<event>
 7    1  0.2500839E-011  0.5052888E+02  0.7816164E-02  0.1300439E+00
        -11   -1    0    0    0    0  0.00000000000E+00  0.00000000000E+00  0.45593999997E+02  0.45594000000E+02  0.51100000000E-03 0.  1.
         11   -1    0    0    0    0 -0.00000000000E+00 -0.00000000000E+00 -0.45593999997E+02  0.45594000000E+02  0.51100000000E-03 0. -1.
    9900012    2    1    2    0    0 -0.82207370755E+01  0.49048531588E+01  0.39516151568E+02  0.50528876334E+02  0.30000050105E+02 0.  0.
         12    1    1    2    0    0  0.82207370755E+01 -0.49048531588E+01 -0.39516151568E+02  0.40659123666E+02  0.00000000000E+00 0. -1.
         11    1    3    3    0    0  0.28269353248E+01 -0.62133916484E+00  0.18737622515E+02  0.18959855576E+02  0.51100000000E-03 0. -1.
        -11    1    3    3    0    0  0.37626180065E+01  0.78386025719E+01  0.63831367353E+01  0.10786353387E+02  0.51100000000E-03 0.  1.
         12    1    3    3    0    0 -0.14810290407E+02 -0.23124102482E+01  0.14395392318E+02  0.20782667371E+02  0.00000000000E+00 0. -1.
</event>
<event>
 7    1  0.2500839E-011  0.5052886E+02  0.7816164E-02  0.1300439E+00
        -11   -1    0    0    0    0  0.00000000000E+00  0.00000000000E+00  0.45593999997E+02  0.45594000000E+02  0.51100000000E-03 0. -1.
         11   -1    0    0    0    0 -0.00000000000E+00 -0.00000000000E+00 -0.45593999997E+02  0.45594000000E+02  0.51100000000E-03 0.  1.
    9900012    2    1    2    0    0  0.36294368987E+02 -0.92860309826E+01 -0.15800448809E+02  0.50528858665E+02  0.29999996397E+02 0.  0.
         12    1    1    2    0    0 -0.36294368987E+02  0.92860309826E+01  0.15800448809E+02  0.40659141335E+02  0.00000000000E+00 0. -1.
         11    1    3    3    0    0 -0.15915110840E-01 -0.26105074840E+01  0.27039144904E+01  0.37584779429E+01  0.51100000000E-03 0. -1.
        -11    1    3    3    0    0  0.20707814754E+02 -0.14320455183E+02 -0.77774043446E+01  0.26351035030E+02  0.51100000000E-03 0.  1.
        -12    1    3    3    0    0  0.15602469344E+02  0.76449316843E+01 -0.10726958955E+02  0.20419345692E+02  0.00000000000E+00 0.  1.
</event>
<event>
 7    1  0.2687582E-011  0.5052892E+02  0.7816164E-02  0.1300439E+00
        -11   -1    0    0    0    0  0.00000000000E+00  0.00000000000E+00  0.45593999997E+02  0.45594000000E+02  0.51100000000E-03 0.  1.
         11   -1    0    0    0    0 -0.00000000000E+00 -0.00000000000E+00 -0.45593999997E+02  0.45594000000E+02  0.51100000000E-03 0. -1.
    9900012    2    1    2    0    0  0.24970716092E+02 -0.27463058031E+02  0.16595324721E+02  0.50528917113E+02  0.30000174058E+02 0.  0.
         12    1    1    2    0    0 -0.24970716092E+02  0.27463058031E+02 -0.16595324721E+02  0.40659082887E+02  0.00000000000E+00 0. -1.
         11    1    3    3    0    0  0.12791799988E+02 -0.91598068226E+01 -0.59125942467E+01  0.16807467952E+02  0.51100000000E-03 0. -1.
        -11    1    3    3    0    0  0.16370262136E+01 -0.76319590191E+00  0.90502379417E+01  0.92287122543E+01  0.51100000000E-03 0.  1.
        -12    1    3    3    0    0  0.10541889891E+02 -0.17540055307E+02  0.13457681026E+02  0.24492736908E+02  0.00000000000E+00 0.  1.
</event>
<event>
 7    1  0.2500839E-011  0.5052886E+02  0.7816164E-02  0.1300439E+00
        -11   -1    0    0    0    0  0.00000000000E+00  0.00000000000E+00  0.45593999997E+02  0.45594000000E+02  0.51100000000E-03 0.  1.
         11   -1    0    0    0    0 -0.00000000000E+00 -0.00000000000E+00 -0.45593999997E+02  0.45594000000E+02  0.51100000000E-03 0. -1.
    9900012    2    1    2    0    0 -0.60731611926E+01  0.36688792465E+02  0.16438216059E+02  0.50528859249E+02  0.29999998174E+02 0.  0.
         12    1    1    2    0    0  0.60731611926E+01 -0.36688792465E+02 -0.16438216059E+02  0.40659140751E+02  0.00000000000E+00 0. -1.
         11    1    3    3    0    0  0.13396232149E+01  0.76775558855E+01  0.85676479597E+01  0.11582057095E+02  0.51100000000E-03 0. -1.
        -11    1    3    3    0    0  0.26211944570E+01  0.27737353151E+02  0.41430597733E+01  0.28167292464E+02  0.51100000000E-03 0.  1.
         12    1    3    3    0    0 -0.10033978865E+02  0.12738834283E+01  0.37275083258E+01  0.10779509690E+02  0.00000000000E+00 0. -1.
</event>
<event>
 7    1  0.2500839E-011  0.5052886E+02  0.7816164E-02  0.1300439E+00
        -11   -1    0    0    0    0  0.00000000000E+00  0.00000000000E+00  0.45593999997E+02  0.45594000000E+02  0.51100000000E-03 0.  1.
         11   -1    0    0    0    0 -0.00000000000E+00 -0.00000000000E+00 -0.45593999997E+02  0.45594000000E+02  0.51100000000E-03 0. -1.
    9900012    2    1    2    0    0 -0.38533632708E+02 -0.12549708564E+02  0.32908714237E+01  0.50528857493E+02  0.29999992835E+02 0.  0.
         12    1    1    2    0    0  0.38533632708E+02  0.12549708564E+02 -0.32908714237E+01  0.40659142507E+02  0.00000000000E+00 0. -1.
         11    1    3    3    0    0 -0.39243003472E+01 -0.91502619605E+01  0.43459277358E+01  0.10863448592E+02  0.51100000000E-03 0. -1.
        -11    1    3    3    0    0 -0.29328126434E+02 -0.97912509662E+01  0.15960656944E+01  0.30960539750E+02  0.51100000000E-03 0.  1.
         12    1    3    3    0    0 -0.52812059262E+01  0.63918043628E+01 -0.26511220065E+01  0.87048691512E+01  0.00000000000E+00 0. -1.
</event>
<event>
 7    1  0.2500839E-011  0.5052886E+02  0.7816164E-02  0.1300439E+00
        -11   -1    0    0    0    0  0.00000000000E+00  0.00000000000E+00  0.45593999997E+02  0.45594000000E+02  0.51100000000E-03 0. -1.
         11   -1    0    0    0    0 -0.00000000000E+00 -0.00000000000E+00 -0.45593999997E+02  0.45594000000E+02  0.51100000000E-03 0.  1.
    9900012    2    1    2    0    0  0.30929475945E+02 -0.26209574397E+02 -0.30970117940E+01  0.50528858908E+02  0.29999997136E+02 0.  0.
         12    1    1    2    0    0 -0.30929475945E+02  0.26209574397E+02  0.30970117940E+01  0.40659141092E+02  0.00000000000E+00 0. -1.
         11    1    3    3    0    0  0.16495951532E+02 -0.10411728028E+02  0.54950254415E+01  0.20266124502E+02  0.51100000000E-03 0. -1.
        -11    1    3    3    0    0  0.71746802720E+01 -0.18108145884E+02 -0.99312750802E+00  0.19503007124E+02  0.51100000000E-03 0.  1.
        -12    1    3    3    0    0  0.72588441413E+01  0.23102995161E+01 -0.75989097275E+01  0.10759727281E+02  0.00000000000E+00 0.  1.
</event>
<event>
 7    1  0.3012484E-011  0.5052890E+02  0.7816164E-02  0.1300439E+00
        -11   -1    0    0    0    0  0.00000000000E+00  0.00000000000E+00  0.45593999997E+02  0.45594000000E+02  0.51100000000E-03 0. -1.
         11   -1    0    0    0    0 -0.00000000000E+00 -0.00000000000E+00 -0.45593999997E+02  0.45594000000E+02  0.51100000000E-03 0.  1.
    9900012    2    1    2    0    0 -0.58042939189E+01 -0.30253092750E+02 -0.26537196119E+02  0.50528902289E+02  0.30000128997E+02 0.  0.
         12    1    1    2    0    0  0.58042939189E+01  0.30253092750E+02  0.26537196119E+02  0.40659097711E+02  0.00000000000E+00 0. -1.
         11    1    3    3    0    0  0.13758609447E+01 -0.66680815556E+01  0.23702583960E+01  0.72093293791E+01  0.51100000000E-03 0. -1.
        -11    1    3    3    0    0 -0.54036996589E+01  0.25701564446E+01 -0.64743089132E+01  0.88160280352E+01  0.51100000000E-03 0.  1.
        -12    1    3    3    0    0 -0.17764552047E+01 -0.26155167639E+02 -0.22433145602E+02  0.34503544874E+02  0.00000000000E+00 0.  1.
</event>
<event>
 7    1  0.2500839E-011  0.5052884E+02  0.7816164E-02  0.1300439E+00
        -11   -1    0    0    0    0  0.00000000000E+00  0.00000000000E+00  0.45593999997E+02  0.45594000000E+02  0.51100000000E-03 0.  1.
         11   -1    0    0    0    0 -0.00000000000E+00 -0.00000000000E+00 -0.45593999997E+02  0.45594000000E+02  0.51100000000E-03 0. -1.
    9900012    2    1    2    0    0  0.27357433744E+02  0.25844861435E+02  0.15387685830E+02  0.50528844588E+02  0.29999953608E+02 0.  0.
         12    1    1    2    0    0 -0.27357433744E+02 -0.25844861435E+02 -0.15387685830E+02  0.40659155412E+02  0.00000000000E+00 0. -1.
         11    1    3    3    0    0  0.18199913609E+00  0.72005066897E+01 -0.23687678551E+00  0.72067004341E+01  0.51100000000E-03 0. -1.
        -11    1    3    3    0    0  0.23107074494E+02  0.23354143141E+02  0.86472391175E+01  0.33972454109E+02  0.51100000000E-03 0.  1.
        -12    1    3    3    0    0  0.40683601134E+01 -0.47097883956E+01  0.69773234976E+01  0.93496900448E+01  0.00000000000E+00 0.  1.
</event>
<event>
 7    1  0.2500839E-011  0.5052882E+02  0.7816164E-02  0.1300439E+00
        -11   -1    0    0    0    0  0.00000000000E+00  0.00000000000E+00  0.45593999997E+02  0.45594000000E+02  0.51100000000E-03 0.  1.
         11   -1    0    0    0    0 -0.00000000000E+00 -0.00000000000E+00 -0.45593999997E+02  0.45594000000E+02  0.51100000000E-03 0. -1.
    9900012    2    1    2    0    0 -0.13340005744E+02  0.17706647453E+02  0.34083546887E+02  0.50528815482E+02  0.29999865138E+02 0.  0.
         12    1    1    2    0    0  0.13340005744E+02 -0.17706647453E+02 -0.34083546887E+02  0.40659184518E+02  0.00000000000E+00 0. -1.
         11    1    3    3    0    0  0.46410070980E+01  0.69392130818E+01  0.61751592456E+01  0.10383844040E+02  0.51100000000E-03 0. -1.
        -11    1    3    3    0    0  0.33116126066E+01 -0.19288669678E+00 -0.68848325503E-01  0.33179396750E+01  0.51100000000E-03 0.  1.
         12    1    3    3    0    0 -0.21292625448E+02  0.10960321068E+02  0.27977235967E+02  0.36827031767E+02  0.00000000000E+00 0. -1.
</event>
<event>
 7    1  0.2500839E-011  0.5052886E+02  0.7816164E-02  0.1300439E+00
        -11   -1    0    0    0    0  0.00000000000E+00  0.00000000000E+00  0.45593999997E+02  0.45594000000E+02  0.51100000000E-03 0.  1.
         11   -1    0    0    0    0 -0.00000000000E+00 -0.00000000000E+00 -0.45593999997E+02  0.45594000000E+02  0.51100000000E-03 0. -1.
    9900012    2    1    2    0    0 -0.21615861130E+01 -0.91457523927E+01  0.39558166379E+02  0.50528858733E+02  0.29999996604E+02 0.  0.
         12    1    1    2    0    0  0.21615861130E+01  0.91457523927E+01 -0.39558166379E+02  0.40659141267E+02  0.00000000000E+00 0. -1.
         11    1    3    3    0    0 -0.35143952562E+01  0.47740566431E+01  0.13162405801E+00  0.59295797492E+01  0.51100000000E-03 0. -1.
        -11    1    3    3    0    0 -0.24358527190E+01 -0.90414903424E+01  0.72695958369E+01  0.11854490709E+02  0.51100000000E-03 0.  1.
        -12    1    3    3    0    0  0.37886618622E+01 -0.48783186934E+01  0.32156946484E+02  0.32744788274E+02  0.00000000000E+00 0.  1.
</event>
<event>
 7    1  0.2500839E-011  0.5052886E+02  0.7816164E-02  0.1300439E+00
        -11   -1    0    0    0    0  0.00000000000E+00  0.00000000000E+00  0.45593999997E+02  0.45594000000E+02  0.51100000000E-03 0.  1.
         11   -1    0    0    0    0 -0.00000000000E+00 -0.00000000000E+00 -0.45593999997E+02  0.45594000000E+02  0.51100000000E-03 0. -1.
    9900012    2    1    2    0    0  0.35617867301E+02 -0.17557763296E+02  0.87325788571E+01  0.50528862571E+02  0.30000008270E+02 0.  0.
         12    1    1    2    0    0 -0.35617867301E+02  0.17557763296E+02 -0.87325788571E+01  0.40659137429E+02  0.00000000000E+00 0. -1.
         11    1    3    3    0    0  0.32770202105E+01  0.43292317016E+01  0.57540026113E+01  0.79113623920E+01  0.51100000000E-03 0. -1.
        -11    1    3    3    0    0  0.84125665818E+01 -0.12303512642E+02 -0.48582486763E+01  0.15676424346E+02  0.51100000000E-03 0.  1.
        -12    1    3    3    0    0  0.23928280508E+02 -0.95834823555E+01  0.78368249221E+01  0.26941075832E+02  0.00000000000E+00 0.  1.
</event>
<event>
 7    1  0.2500839E-011  0.5052886E+02  0.7816164E-02  0.1300439E+00
        -11   -1    0    0    0    0  0.00000000000E+00  0.00000000000E+00  0.45593999997E+02  0.45594000000E+02  0.51100000000E-03 0.  1.
         11   -1    0    0    0    0 -0.00000000000E+00 -0.00000000000E+00 -0.45593999997E+02  0.45594000000E+02  0.51100000000E-03 0. -1.
    9900012    2    1    2    0    0  0.18989806491E+01 -0.36185876185E+02 -0.18442942709E+02  0.50528857134E+02  0.29999991746E+02 0.  0.
         12    1    1    2    0    0 -0.18989806491E+01  0.36185876185E+02  0.18442942709E+02  0.40659142866E+02  0.00000000000E+00 0. -1.
         11    1    3    3    0    0  0.67816023578E+01 -0.12594581799E+02 -0.12795597635E+02  0.19192210408E+02  0.51100000000E-03 0.  1.
        -11    1    3    3    0    0 -0.99960921757E+01 -0.46230068921E+01 -0.48394518939E+00  0.11023985428E+02  0.51100000000E-03 0. -1.
         12    1    3    3    0    0  0.51134704670E+01 -0.18968287494E+02 -0.51633998843E+01  0.20312661299E+02  0.00000000000E+00 0. -1.
</event>
<event>
 7    1  0.2500839E-011  0.5052886E+02  0.7816164E-02  0.1300439E+00
        -11   -1    0    0    0    0  0.00000000000E+00  0.00000000000E+00  0.45593999997E+02  0.45594000000E+02  0.51100000000E-03 0.  1.
         11   -1    0    0    0    0 -0.00000000000E+00 -0.00000000000E+00 -0.45593999997E+02  0.45594000000E+02  0.51100000000E-03 0. -1.
    9900012    2    1    2    0    0  0.27921476958E+02 -0.27888819066E+02 -0.97862349021E+01  0.50528862061E+02  0.30000006719E+02 0.  0.
         12    1    1    2    0    0 -0.27921476958E+02  0.27888819066E+02  0.97862349021E+01  0.40659137939E+02  0.00000000000E+00 0. -1.
         11    1    3    3    0    0  0.23747254084E+02 -0.69113029416E+01 -0.79946143840E+01  0.25992538242E+02  0.51100000000E-03 0. -1.
        -11    1    3    3    0    0 -0.16702978616E+01  0.81396048589E+00  0.28307221512E+00  0.18795097125E+01  0.51100000000E-03 0.  1.
        -12    1    3    3    0    0  0.58445207361E+01 -0.21791476610E+02 -0.20746927332E+01  0.22656814106E+02  0.00000000000E+00 0.  1.
</event>
<event>
 7    1  0.2500839E-011  0.5052886E+02  0.7816164E-02  0.1300439E+00
        -11   -1    0    0    0    0  0.00000000000E+00  0.00000000000E+00  0.45593999997E+02  0.45594000000E+02  0.51100000000E-03 0.  1.
         11   -1    0    0    0    0 -0.00000000000E+00 -0.00000000000E+00 -0.45593999997E+02  0.45594000000E+02  0.51100000000E-03 0. -1.
    9900012    2    1    2    0    0  0.40462706741E+02  0.39612766604E+01 -0.49310102909E+00  0.50528862058E+02  0.30000006711E+02 0.  0.
         12    1    1    2    0    0 -0.40462706741E+02 -0.39612766604E+01  0.49310102909E+00  0.40659137942E+02  0.00000000000E+00 0. -1.
         11    1    3    3    0    0  0.38417177434E+01 -0.37870410979E+01  0.61371412254E+01  0.81709839174E+01  0.51100000000E-03 0.  1.
        -11    1    3    3    0    0  0.35354751021E+01  0.70684528434E+01  0.20122006485E+01  0.81554620659E+01  0.51100000000E-03 0. -1.
        -12    1    3    3    0    0  0.33085513895E+02  0.67986491494E+00 -0.86424429030E+01  0.34202416075E+02  0.00000000000E+00 0.  1.
</event>
<event>
 7    1  0.2500839E-011  0.5052886E+02  0.7816164E-02  0.1300439E+00
        -11   -1    0    0    0    0  0.00000000000E+00  0.00000000000E+00  0.45593999997E+02  0.45594000000E+02  0.51100000000E-03 0.  1.
         11   -1    0    0    0    0 -0.00000000000E+00 -0.00000000000E+00 -0.45593999997E+02  0.45594000000E+02  0.51100000000E-03 0. -1.
    9900012    2    1    2    0    0 -0.63226349059E+01 -0.38704384117E+02 -0.10731281533E+02  0.50528862462E+02  0.30000007938E+02 0.  0.
         12    1    1    2    0    0  0.63226349059E+01  0.38704384117E+02  0.10731281533E+02  0.40659137538E+02  0.00000000000E+00 0. -1.
         11    1    3    3    0    0  0.95680821625E+00 -0.18557939138E+02 -0.13282240444E+02  0.22841420676E+02  0.51100000000E-03 0.  1.
        -11    1    3    3    0    0 -0.11363992519E+02 -0.65464269703E+01 -0.65063193088E+00  0.13130855045E+02  0.51100000000E-03 0. -1.
        -12    1    3    3    0    0  0.40845493971E+01 -0.13600018009E+02  0.32015908417E+01  0.14556586741E+02  0.00000000000E+00 0.  1.
</event>
<event>
 7    1  0.2500839E-011  0.5052886E+02  0.7816164E-02  0.1300439E+00
        -11   -1    0    0    0    0  0.00000000000E+00  0.00000000000E+00  0.45593999997E+02  0.45594000000E+02  0.51100000000E-03 0.  1.
         11   -1    0    0    0    0 -0.00000000000E+00 -0.00000000000E+00 -0.45593999997E+02  0.45594000000E+02  0.51100000000E-03 0. -1.
    9900012    2    1    2    0    0 -0.31469791056E+02  0.18679520546E+02  0.17717044607E+02  0.50528857037E+02  0.29999991448E+02 0.  0.
         12    1    1    2    0    0  0.31469791056E+02 -0.18679520546E+02 -0.17717044607E+02  0.40659142963E+02  0.00000000000E+00 0. -1.
         11    1    3    3    0    0 -0.71386547653E+00  0.52804948512E+00  0.10347380598E+02  0.10385409269E+02  0.51100000000E-03 0. -1.
        -11    1    3    3    0    0  0.16257754812E+01  0.27002967762E+01  0.23133320754E+01  0.39097639503E+01  0.51100000000E-03 0.  1.
         12    1    3    3    0    0 -0.32381701060E+02  0.15451174285E+02  0.50563319329E+01  0.36233683817E+02  0.00000000000E+00 0. -1.
</event>
<event>
 7    1  0.2500839E-011  0.5052887E+02  0.7816164E-02  0.1300439E+00
        -11   -1    0    0    0    0  0.00000000000E+00  0.00000000000E+00  0.45593999997E+02  0.45594000000E+02  0.51100000000E-03 0. -1.
         11   -1    0    0    0    0 -0.00000000000E+00 -0.00000000000E+00 -0.45593999997E+02  0.45594000000E+02  0.51100000000E-03 0.  1.
    9900012    2    1    2    0    0  0.20130097040E+02 -0.15365313528E+02 -0.31809613770E+02  0.50528865789E+02  0.30000018051E+02 0.  0.
         12    1    1    2    0    0 -0.20130097040E+02  0.15365313528E+02  0.31809613770E+02  0.40659134211E+02  0.00000000000E+00 0. -1.
         11    1    3    3    0    0  0.65613811192E+01  0.50551595852E+01 -0.61855649614E+01  0.10337677436E+02  0.51100000000E-03 0. -1.
        -11    1    3    3    0    0  0.26386883968E+01 -0.86327930188E+01  0.10084702231E+01  0.90832155216E+01  0.51100000000E-03 0.  1.
        -12    1    3    3    0    0  0.10930027524E+02 -0.11787680094E+02 -0.26632519031E+02  0.31107972831E+02  0.00000000000E+00 0.  1.
</event>
<event>
 7    1  0.2500839E-011  0.5052885E+02  0.7816164E-02  0.1300439E+00
        -11   -1    0    0    0    0  0.00000000000E+00  0.00000000000E+00  0.45593999997E+02  0.45594000000E+02  0.51100000000E-03 0. -1.
         11   -1    0    0    0    0 -0.00000000000E+00 -0.00000000000E+00 -0.45593999997E+02  0.45594000000E+02  0.51100000000E-03 0.  1.
    9900012    2    1    2    0    0 -0.23424901026E+02 -0.23038272708E+02 -0.23951590450E+02  0.50528847493E+02  0.29999962441E+02 0.  0.
         12    1    1    2    0    0  0.23424901026E+02  0.23038272708E+02  0.23951590450E+02  0.40659152507E+02  0.00000000000E+00 0. -1.
         11    1    3    3    0    0 -0.88602689489E+01 -0.96490136701E+01 -0.21854181277E+02  0.25479659931E+02  0.51100000000E-03 0. -1.
        -11    1    3    3    0    0 -0.52259180377E+01  0.44281370410E+00 -0.59390543023E+01  0.79232991600E+01  0.51100000000E-03 0.  1.
         12    1    3    3    0    0 -0.93387140394E+01 -0.13832072742E+02  0.38416451293E+01  0.17125888402E+02  0.00000000000E+00 0. -1.
</event>
<event>
 7    1  0.2500839E-011  0.5052887E+02  0.7816164E-02  0.1300439E+00
        -11   -1    0    0    0    0  0.00000000000E+00  0.00000000000E+00  0.45593999997E+02  0.45594000000E+02  0.51100000000E-03 0.  1.
         11   -1    0    0    0    0 -0.00000000000E+00 -0.00000000000E+00 -0.45593999997E+02  0.45594000000E+02  0.51100000000E-03 0. -1.
    9900012    2    1    2    0    0  0.36374971478E+00 -0.14477522439E+01  0.40631719539E+02  0.50528869007E+02  0.30000027833E+02 0.  0.
         12    1    1    2    0    0 -0.36374971478E+00  0.14477522439E+01 -0.40631719539E+02  0.40659130993E+02  0.00000000000E+00 0. -1.
         11    1    3    3    0    0  0.76381283267E+01  0.90486918750E+01  0.68672115485E+01  0.13688623879E+02  0.51100000000E-03 0. -1.
        -11    1    3    3    0    0 -0.35215190793E+01  0.51660237089E-01  0.88936729481E+01  0.95656251325E+01  0.51100000000E-03 0.  1.
        -12    1    3    3    0    0 -0.37528595327E+01 -0.10548104356E+02  0.24870835043E+02  0.27274619995E+02  0.00000000000E+00 0.  1.
</event>
<event>
 7    1  0.2500839E-011  0.5052887E+02  0.7816164E-02  0.1300439E+00
        -11   -1    0    0    0    0  0.00000000000E+00  0.00000000000E+00  0.45593999997E+02  0.45594000000E+02  0.51100000000E-03 0.  1.
         11   -1    0    0    0    0 -0.00000000000E+00 -0.00000000000E+00 -0.45593999997E+02  0.45594000000E+02  0.51100000000E-03 0. -1.
    9900012    2    1    2    0    0  0.14363965489E+02 -0.78117925692E+01  0.37226561270E+02  0.50528874681E+02  0.30000045080E+02 0.  0.
         12    1    1    2    0    0 -0.14363965489E+02  0.78117925692E+01 -0.37226561270E+02  0.40659125319E+02  0.00000000000E+00 0. -1.
         11    1    3    3    0    0 -0.69619774492E+01 -0.10043717740E-01  0.72412134421E+01  0.10045118379E+02  0.51100000000E-03 0. -1.
        -11    1    3    3    0    0  0.65789670109E+01 -0.10206712151E+02  0.11611740918E+02  0.16801556692E+02  0.51100000000E-03 0.  1.
        -12    1    3    3    0    0  0.14746975928E+02  0.24049632995E+01  0.18373606909E+02  0.23682199609E+02  0.00000000000E+00 0.  1.
</event>
<event>
 7    1  0.2500839E-011  0.5052881E+02  0.7816164E-02  0.1300439E+00
        -11   -1    0    0    0    0  0.00000000000E+00  0.00000000000E+00  0.45593999997E+02  0.45594000000E+02  0.51100000000E-03 0. -1.
         11   -1    0    0    0    0 -0.00000000000E+00 -0.00000000000E+00 -0.45593999997E+02  0.45594000000E+02  0.51100000000E-03 0.  1.
    9900012    2    1    2    0    0 -0.21342249745E+02  0.59288793455E+01 -0.34095844505E+02  0.50528808579E+02  0.29999844157E+02 0.  0.
         12    1    1    2    0    0  0.21342249745E+02 -0.59288793455E+01  0.34095844505E+02  0.40659191421E+02  0.00000000000E+00 0. -1.
         11    1    3    3    0    0  0.32627631668E+01 -0.23166090570E+01 -0.71997971950E+00  0.40657929194E+01  0.51100000000E-03 0. -1.
        -11    1    3    3    0    0 -0.16294439592E+02  0.79429862427E+01 -0.33562325292E+02  0.38144848555E+02  0.51100000000E-03 0.  1.
         12    1    3    3    0    0 -0.83105733195E+01  0.30250215992E+00  0.18646050598E+00  0.83181671044E+01  0.00000000000E+00 0. -1.
</event>
<event>
 7    1  0.2500839E-011  0.5052886E+02  0.7816164E-02  0.1300439E+00
        -11   -1    0    0    0    0  0.00000000000E+00  0.00000000000E+00  0.45593999997E+02  0.45594000000E+02  0.51100000000E-03 0. -1.
         11   -1    0    0    0    0 -0.00000000000E+00 -0.00000000000E+00 -0.45593999997E+02  0.45594000000E+02  0.51100000000E-03 0.  1.
    9900012    2    1    2    0    0  0.99178220294E+00  0.29054224970E+02 -0.28425942429E+02  0.50528858058E+02  0.29999994552E+02 0.  0.
         12    1    1    2    0    0 -0.99178220294E+00 -0.29054224970E+02  0.28425942429E+02  0.40659141942E+02  0.00000000000E+00 0. -1.
         11    1    3    3    0    0 -0.65053238826E+01  0.17243998097E+02 -0.79543386612E+01  0.20073520194E+02  0.51100000000E-03 0. -1.
        -11    1    3    3    0    0  0.81204097671E+01  0.10570920042E+02 -0.39882562486E+01  0.13913719614E+02  0.51100000000E-03 0.  1.
        -12    1    3    3    0    0 -0.62330368156E+00  0.12393068306E+01 -0.16483347519E+02  0.16541618250E+02  0.00000000000E+00 0.  1.
</event>
<event>
 7    1  0.2500839E-011  0.5052889E+02  0.7816164E-02  0.1300439E+00
        -11   -1    0    0    0    0  0.00000000000E+00  0.00000000000E+00  0.45593999997E+02  0.45594000000E+02  0.51100000000E-03 0. -1.
         11   -1    0    0    0    0 -0.00000000000E+00 -0.00000000000E+00 -0.45593999997E+02  0.45594000000E+02  0.51100000000E-03 0.  1.
    9900012    2    1    2    0    0  0.32698359350E+02 -0.20204554138E+02 -0.13257315986E+02  0.50528891067E+02  0.30000094886E+02 0.  0.
         12    1    1    2    0    0 -0.32698359350E+02  0.20204554138E+02  0.13257315986E+02  0.40659108933E+02  0.00000000000E+00 0. -1.
         11    1    3    3    0    0  0.27204610329E+01  0.99063205839E+00  0.23678570266E+00  0.29048800039E+01  0.51100000000E-03 0. -1.
        -11    1    3    3    0    0  0.33864638547E+02 -0.21214798138E+02 -0.77768706143E+01  0.40710700323E+02  0.51100000000E-03 0.  1.
        -12    1    3    3    0    0 -0.38867402292E+01  0.19611942171E-01 -0.57172310740E+01  0.69133107403E+01  0.00000000000E+00 0.  1.
</event>
<event>
 7    1  0.2500839E-011  0.5052888E+02  0.7816164E-02  0.1300439E+00
        -11   -1    0    0    0    0  0.00000000000E+00  0.00000000000E+00  0.45593999997E+02  0.45594000000E+02  0.51100000000E-03 0.  1.
         11   -1    0    0    0    0 -0.00000000000E+00 -0.00000000000E+00 -0.45593999997E+02  0.45594000000E+02  0.51100000000E-03 0. -1.
    9900012    2    1    2    0    0 -0.18652082045E+02  0.12247178514E+02  0.33989264360E+02  0.50528884934E+02  0.30000076245E+02 0.  0.
         12    1    1    2    0    0  0.18652082045E+02 -0.12247178514E+02 -0.33989264360E+02  0.40659115066E+02  0.00000000000E+00 0. -1.
         11    1    3    3    0    0 -0.11815980785E+02  0.21102419353E+01  0.78517409301E+01  0.14342955025E+02  0.51100000000E-03 0. -1.
        -11    1    3    3    0    0 -0.45721650548E+01 -0.65379326774E+01  0.10722253275E+02  0.13364728674E+02  0.51100000000E-03 0.  1.
         12    1    3    3    0    0 -0.22639362053E+01  0.16674869256E+02  0.15415270156E+02  0.22821201235E+02  0.00000000000E+00 0. -1.
</event>
<event>
 7    1  0.2500839E-011  0.5052886E+02  0.7816164E-02  0.1300439E+00
        -11   -1    0    0    0    0  0.00000000000E+00  0.00000000000E+00  0.45593999997E+02  0.45594000000E+02  0.51100000000E-03 0.  1.
         11   -1    0    0    0    0 -0.00000000000E+00 -0.00000000000E+00 -0.45593999997E+02  0.45594000000E+02  0.51100000000E-03 0. -1.
    9900012    2    1    2    0    0  0.16228993105E+02 -0.32585807886E+02  0.18109413502E+02  0.50528856500E+02  0.29999989816E+02 0.  0.
         12    1    1    2    0    0 -0.16228993105E+02  0.32585807886E+02 -0.18109413502E+02  0.40659143500E+02  0.00000000000E+00 0. -1.
         11    1    3    3    0    0  0.81034526093E+01 -0.65127907510E-01  0.42607950515E+01  0.91555753815E+01  0.51100000000E-03 0. -1.
        -11    1    3    3    0    0  0.94264020033E+01 -0.13568141203E+02 -0.19886612874E+01  0.16640501327E+02  0.51100000000E-03 0.  1.
        -12    1    3    3    0    0 -0.13008615076E+01 -0.18952538776E+02  0.15837279738E+02  0.24732779792E+02  0.00000000000E+00 0.  1.
</event>
<event>
 7    1  0.2500839E-011  0.5052886E+02  0.7816164E-02  0.1300439E+00
        -11   -1    0    0    0    0  0.00000000000E+00  0.00000000000E+00  0.45593999997E+02  0.45594000000E+02  0.51100000000E-03 0.  1.
         11   -1    0    0    0    0 -0.00000000000E+00 -0.00000000000E+00 -0.45593999997E+02  0.45594000000E+02  0.51100000000E-03 0. -1.
    9900012    2    1    2    0    0 -0.80172066901E+01 -0.38877394232E+02  0.87998793921E+01  0.50528864954E+02  0.30000015515E+02 0.  0.
         12    1    1    2    0    0  0.80172066901E+01  0.38877394232E+02 -0.87998793921E+01  0.40659135046E+02  0.00000000000E+00 0. -1.
         11    1    3    3    0    0 -0.53251171235E+01  0.50848371172E+00  0.32307963240E+01  0.62492778153E+01  0.51100000000E-03 0. -1.
        -11    1    3    3    0    0 -0.44625550118E+01 -0.18679773960E+02  0.11853051295E+02  0.22568632605E+02  0.51100000000E-03 0.  1.
        -12    1    3    3    0    0  0.17704654452E+01 -0.20706103984E+02 -0.62839682267E+01  0.21710954533E+02  0.00000000000E+00 0.  1.
</event>
<event>
 7    1  0.2500839E-011  0.5052873E+02  0.7816164E-02  0.1300439E+00
        -11   -1    0    0    0    0  0.00000000000E+00  0.00000000000E+00  0.45593999997E+02  0.45594000000E+02  0.51100000000E-03 0.  1.
         11   -1    0    0    0    0 -0.00000000000E+00 -0.00000000000E+00 -0.45593999997E+02  0.45594000000E+02  0.51100000000E-03 0. -1.
    9900012    2    1    2    0    0  0.34511362059E+02 -0.14373377891E+02  0.15985864614E+02  0.50528733275E+02  0.29999615259E+02 0.  0.
         12    1    1    2    0    0 -0.34511362059E+02  0.14373377891E+02 -0.15985864614E+02  0.40659266725E+02  0.00000000000E+00 0. -1.
         11    1    3    3    0    0 -0.25532328059E+01 -0.36697118020E+01  0.74069957570E+00  0.45314918729E+01  0.51100000000E-03 0. -1.
        -11    1    3    3    0    0  0.70898242851E+01 -0.26528463025E+00  0.12197693640E+02  0.14110978518E+02  0.51100000000E-03 0.  1.
         12    1    3    3    0    0  0.29974770580E+02 -0.10438381459E+02  0.30474713984E+01  0.31886262884E+02  0.00000000000E+00 0. -1.
</event>
<event>
 7    1  0.2500839E-011  0.5052885E+02  0.7816164E-02  0.1300439E+00
        -11   -1    0    0    0    0  0.00000000000E+00  0.00000000000E+00  0.45593999997E+02  0.45594000000E+02  0.51100000000E-03 0. -1.
         11   -1    0    0    0    0 -0.00000000000E+00 -0.00000000000E+00 -0.45593999997E+02  0.45594000000E+02  0.51100000000E-03 0.  1.
    9900012    2    1    2    0    0  0.13582608062E+02  0.73447317944E+01 -0.37612955538E+02  0.50528846649E+02  0.29999959875E+02 0.  0.
         12    1    1    2    0    0 -0.13582608062E+02 -0.73447317944E+01  0.37612955538E+02  0.40659153351E+02  0.00000000000E+00 0. -1.
         11    1    3    3    0    0  0.75098170159E+01  0.36791812941E+01 -0.55117329991E+00  0.83807827125E+01  0.51100000000E-03 0. -1.
        -11    1    3    3    0    0 -0.49891421353E+01 -0.93039678614E+00 -0.26799435972E+01  0.57392748123E+01  0.51100000000E-03 0.  1.
        -12    1    3    3    0    0  0.11061933182E+02  0.45959472865E+01 -0.34381838641E+02  0.36408789124E+02  0.00000000000E+00 0.  1.
</event>
<event>
 7    1  0.2500839E-011  0.5052884E+02  0.7816164E-02  0.1300439E+00
        -11   -1    0    0    0    0  0.00000000000E+00  0.00000000000E+00  0.45593999997E+02  0.45594000000E+02  0.51100000000E-03 0.  1.
         11   -1    0    0    0    0 -0.00000000000E+00 -0.00000000000E+00 -0.45593999997E+02  0.45594000000E+02  0.51100000000E-03 0. -1.
    9900012    2    1    2    0    0 -0.31041674897E+02 -0.24993557705E+02 -0.80562638695E+01  0.50528844884E+02  0.29999954510E+02 0.  0.
         12    1    1    2    0    0  0.31041674897E+02  0.24993557705E+02  0.80562638695E+01  0.40659155116E+02  0.00000000000E+00 0. -1.
         11    1    3    3    0    0 -0.47014401009E+01 -0.16056942426E+02 -0.81557187142E+01  0.18613024663E+02  0.51100000000E-03 0. -1.
        -11    1    3    3    0    0 -0.92670642778E+01 -0.10200996867E+02  0.40131668053E+01  0.14354244163E+02  0.51100000000E-03 0.  1.
         12    1    3    3    0    0 -0.17073170518E+02  0.12643815881E+01 -0.39137119605E+01  0.17561576058E+02  0.00000000000E+00 0. -1.
</event>
<event>
 7    1  0.2500839E-011  0.5052886E+02  0.7816164E-02  0.1300439E+00
        -11   -1    0    0    0    0  0.00000000000E+00  0.00000000000E+00  0.45593999997E+02  0.45594000000E+02  0.51100000000E-03 0.  1.
         11   -1    0    0    0    0 -0.00000000000E+00 -0.00000000000E+00 -0.45593999997E+02  0.45594000000E+02  0.51100000000E-03 0. -1.
    9900012    2    1    2    0    0 -0.75949223637E+01  0.21265120505E+02  0.33812385655E+02  0.50528860567E+02  0.30000002179E+02 0.  0.
         12    1    1    2    0    0  0.75949223637E+01 -0.21265120505E+02 -0.33812385655E+02  0.40659139433E+02  0.00000000000E+00 0. -1.
         11    1    3    3    0    0 -0.10195729568E+02  0.11210888569E+02  0.16004812191E+02  0.22040665540E+02  0.51100000000E-03 0. -1.
        -11    1    3    3    0    0 -0.10544734881E+01  0.17159755669E+01  0.19176162385E+02  0.19281641283E+02  0.51100000000E-03 0.  1.
         12    1    3    3    0    0  0.36552806920E+01  0.83382563690E+01 -0.13685889209E+01  0.92065537443E+01  0.00000000000E+00 0. -1.
</event>
<event>
 7    1  0.2500839E-011  0.5052881E+02  0.7816164E-02  0.1300439E+00
        -11   -1    0    0    0    0  0.00000000000E+00  0.00000000000E+00  0.45593999997E+02  0.45594000000E+02  0.51100000000E-03 0.  1.
         11   -1    0    0    0    0 -0.00000000000E+00 -0.00000000000E+00 -0.45593999997E+02  0.45594000000E+02  0.51100000000E-03 0. -1.
    9900012    2    1    2    0    0 -0.39456704464E+02 -0.34864419779E+01  0.91751449649E+01  0.50528805591E+02  0.29999835074E+02 0.  0.
         12    1    1    2    0    0  0.39456704464E+02  0.34864419779E+01 -0.91751449649E+01  0.40659194409E+02  0.00000000000E+00 0. -1.
         11    1    3    3    0    0 -0.34160378050E+01 -0.69838274641E+01 -0.13250155708E+01  0.78866232861E+01  0.51100000000E-03 0. -1.
        -11    1    3    3    0    0 -0.54678480760E+00 -0.46039420742E+01  0.28442907890E+01  0.54392321702E+01  0.51100000000E-03 0.  1.
        -12    1    3    3    0    0 -0.35493881852E+02  0.81013275603E+01  0.76558697467E+01  0.37202950135E+02  0.00000000000E+00 0.  1.
</event>
<event>
 7    1  0.2500839E-011  0.5052886E+02  0.7816164E-02  0.1300439E+00
        -11   -1    0    0    0    0  0.00000000000E+00  0.00000000000E+00  0.45593999997E+02  0.45594000000E+02  0.51100000000E-03 0.  1.
         11   -1    0    0    0    0 -0.00000000000E+00 -0.00000000000E+00 -0.45593999997E+02  0.45594000000E+02  0.51100000000E-03 0. -1.
    9900012    2    1    2    0    0 -0.14949274248E+02  0.27724318847E+02  0.25710837255E+02  0.50528858243E+02  0.29999995116E+02 0.  0.
         12    1    1    2    0    0  0.14949274248E+02 -0.27724318847E+02 -0.25710837255E+02  0.40659141757E+02  0.00000000000E+00 0. -1.
         11    1    3    3    0    0  0.31596486202E+01  0.13916841269E+02  0.71778162335E+01  0.15974445107E+02  0.51100000000E-03 0. -1.
        -11    1    3    3    0    0 -0.43598379266E+01  0.67419266868E+01 -0.25386762061E+01  0.84206080147E+01  0.51100000000E-03 0.  1.
        -12    1    3    3    0    0 -0.13749084941E+02  0.70655508909E+01  0.21071697227E+02  0.26133805122E+02  0.00000000000E+00 0.  1.
</event>
<event>
 7    1  0.2500839E-011  0.5052886E+02  0.7816164E-02  0.1300439E+00
        -11   -1    0    0    0    0  0.00000000000E+00  0.00000000000E+00  0.45593999997E+02  0.45594000000E+02  0.51100000000E-03 0.  1.
         11   -1    0    0    0    0 -0.00000000000E+00 -0.00000000000E+00 -0.45593999997E+02  0.45594000000E+02  0.51100000000E-03 0. -1.
    9900012    2    1    2    0    0  0.35907398355E+01 -0.37873682726E+02  0.14347683838E+02  0.50528864651E+02  0.30000014594E+02 0.  0.
         12    1    1    2    0    0 -0.35907398355E+01  0.37873682726E+02 -0.14347683838E+02  0.40659135349E+02  0.00000000000E+00 0. -1.
         11    1    3    3    0    0  0.30823415330E+01 -0.11830238461E+00  0.49194104723E+01  0.58064984660E+01  0.51100000000E-03 0.  1.
        -11    1    3    3    0    0  0.11087257652E+02 -0.18194205232E+02  0.26301175914E+01  0.21467973940E+02  0.51100000000E-03 0. -1.
         12    1    3    3    0    0 -0.10578859349E+02 -0.19561175109E+02  0.67981557747E+01  0.23254392246E+02  0.00000000000E+00 0. -1.
</event>
<event>
 7    1  0.2500839E-011  0.5052886E+02  0.7816164E-02  0.1300439E+00
        -11   -1    0    0    0    0  0.00000000000E+00  0.00000000000E+00  0.45593999997E+02  0.45594000000E+02  0.51100000000E-03 0.  1.
         11   -1    0    0    0    0 -0.00000000000E+00 -0.00000000000E+00 -0.45593999997E+02  0.45594000000E+02  0.51100000000E-03 0. -1.
    9900012    2    1    2    0    0 -0.19249121964E+02  0.35064346245E+02  0.72889330631E+01  0.50528860570E+02  0.30000002189E+02 0.  0.
         12    1    1    2    0    0  0.19249121964E+02 -0.35064346245E+02 -0.72889330631E+01  0.40659139430E+02  0.00000000000E+00 0. -1.
         11    1    3    3    0    0 -0.42862757892E+01  0.63026810788E+01  0.11191328983E+02  0.13540376420E+02  0.51100000000E-03 0. -1.
        -11    1    3    3    0    0 -0.68909752990E+01  0.65347037256E+00 -0.34655734537E+01  0.77409795067E+01  0.51100000000E-03 0.  1.
        -12    1    3    3    0    0 -0.80718708757E+01  0.28108194794E+02 -0.43682246634E+00  0.29247504643E+02  0.00000000000E+00 0.  1.
</event>
<event>
 7    1  0.2500839E-011  0.5052884E+02  0.7816164E-02  0.1300439E+00
        -11   -1    0    0    0    0  0.00000000000E+00  0.00000000000E+00  0.45593999997E+02  0.45594000000E+02  0.51100000000E-03 0. -1.
         11   -1    0    0    0    0 -0.00000000000E+00 -0.00000000000E+00 -0.45593999997E+02  0.45594000000E+02  0.51100000000E-03 0.  1.
    9900012    2    1    2    0    0 -0.92793936096E+01  0.98748550496E+01 -0.38334672997E+02  0.50528842830E+02  0.29999948266E+02 0.  0.
         12    1    1    2    0    0  0.92793936096E+01 -0.98748550496E+01  0.38334672997E+02  0.40659157170E+02  0.00000000000E+00 0. -1.
         11    1    3    3    0    0 -0.50401152921E+01 -0.24722094828E+01 -0.69853431608E+01  0.89615624318E+01  0.51100000000E-03 0. -1.
        -11    1    3    3    0    0 -0.38626454642E+01 -0.69274501167E+01 -0.76799666390E+01  0.11040447588E+02  0.51100000000E-03 0.  1.
        -12    1    3    3    0    0 -0.37663285333E+00  0.19274514649E+02 -0.23669363197E+02  0.30526832810E+02  0.00000000000E+00 0.  1.
</event>
<event>
 7    1  0.2500839E-011  0.5052886E+02  0.7816164E-02  0.1300439E+00
        -11   -1    0    0    0    0  0.00000000000E+00  0.00000000000E+00  0.45593999997E+02  0.45594000000E+02  0.51100000000E-03 0. -1.
         11   -1    0    0    0    0 -0.00000000000E+00 -0.00000000000E+00 -0.45593999997E+02  0.45594000000E+02  0.51100000000E-03 0.  1.
    9900012    2    1    2    0    0 -0.35982662830E+02 -0.17592412653E+02  0.69943476678E+01  0.50528857035E+02  0.29999991444E+02 0.  0.
         12    1    1    2    0    0  0.35982662830E+02  0.17592412653E+02 -0.69943476678E+01  0.40659142965E+02  0.00000000000E+00 0. -1.
         11    1    3    3    0    0 -0.14895002579E+02  0.16979240283E-01  0.96079155036E+01  0.17724938101E+02  0.51100000000E-03 0. -1.
        -11    1    3    3    0    0 -0.14248498729E+02 -0.16687603925E+01  0.28332809835E+01  0.14622994176E+02  0.51100000000E-03 0.  1.
        -12    1    3    3    0    0 -0.68391615226E+01 -0.15940631501E+02 -0.54468488193E+01  0.18180924758E+02  0.00000000000E+00 0.  1.
</event>
<event>
 7    1  0.2500839E-011  0.5052885E+02  0.7816164E-02  0.1300439E+00
        -11   -1    0    0    0    0  0.00000000000E+00  0.00000000000E+00  0.45593999997E+02  0.45594000000E+02  0.51100000000E-03 0. -1.
         11   -1    0    0    0    0 -0.00000000000E+00 -0.00000000000E+00 -0.45593999997E+02  0.45594000000E+02  0.51100000000E-03 0.  1.
    9900012    2    1    2    0    0  0.14238204785E+02  0.37956564179E+02 -0.31208212029E+01  0.50528846482E+02  0.29999959368E+02 0.  0.
         12    1    1    2    0    0 -0.14238204785E+02 -0.37956564179E+02  0.31208212029E+01  0.40659153518E+02  0.00000000000E+00 0. -1.
         11    1    3    3    0    0  0.14301501995E+02  0.19981446899E+02 -0.21128994334E+01  0.24662836896E+02  0.51100000000E-03 0. -1.
        -11    1    3    3    0    0  0.17914248922E+01  0.72918979772E+01 -0.94887249679E+01  0.12100284337E+02  0.51100000000E-03 0.  1.
         12    1    3    3    0    0 -0.18547221021E+01  0.10683219303E+02  0.84808031984E+01  0.13765725249E+02  0.00000000000E+00 0. -1.
</event>
<event>
 7    1  0.2500839E-011  0.5052887E+02  0.7816164E-02  0.1300439E+00
        -11   -1    0    0    0    0  0.00000000000E+00  0.00000000000E+00  0.45593999997E+02  0.45594000000E+02  0.51100000000E-03 0.  1.
         11   -1    0    0    0    0 -0.00000000000E+00 -0.00000000000E+00 -0.45593999997E+02  0.45594000000E+02  0.51100000000E-03 0. -1.
    9900012    2    1    2    0    0  0.23642024530E+02  0.32972970406E+02  0.26462704165E+01  0.50528870049E+02  0.30000031000E+02 0.  0.
         12    1    1    2    0    0 -0.23642024530E+02 -0.32972970406E+02 -0.26462704165E+01  0.40659129951E+02  0.00000000000E+00 0. -1.
         11    1    3    3    0    0  0.89373164350E+01  0.17201832770E+02  0.10352075537E+02  0.21975990168E+02  0.51100000000E-03 0. -1.
        -11    1    3    3    0    0  0.11882123240E+02  0.32174329415E+01  0.19528980436E+01  0.12463969611E+02  0.51100000000E-03 0.  1.
        -12    1    3    3    0    0  0.28225848547E+01  0.12553704695E+02 -0.96587031643E+01  0.16088910269E+02  0.00000000000E+00 0.  1.
</event>
<event>
 7    1  0.2500839E-011  0.5052887E+02  0.7816164E-02  0.1300439E+00
        -11   -1    0    0    0    0  0.00000000000E+00  0.00000000000E+00  0.45593999997E+02  0.45594000000E+02  0.51100000000E-03 0. -1.
         11   -1    0    0    0    0 -0.00000000000E+00 -0.00000000000E+00 -0.45593999997E+02  0.45594000000E+02  0.51100000000E-03 0.  1.
    9900012    2    1    2    0    0  0.24556953075E+00  0.32826645433E+02 -0.23989905940E+02  0.50528873819E+02  0.30000042460E+02 0.  0.
         12    1    1    2    0    0 -0.24556953075E+00 -0.32826645433E+02  0.23989905940E+02  0.40659126181E+02  0.00000000000E+00 0. -1.
         11    1    3    3    0    0 -0.14750456292E+01 -0.46065075196E+00 -0.10333581504E+01  0.18589750003E+01  0.51100000000E-03 0. -1.
        -11    1    3    3    0    0 -0.60642919315E+01  0.33799263929E+02 -0.14829713584E+02  0.37404361831E+02  0.51100000000E-03 0.  1.
        -12    1    3    3    0    0  0.77849070915E+01 -0.51196774420E+00 -0.81268342063E+01  0.11265536987E+02  0.00000000000E+00 0.  1.
</event>
<event>
 7    1  0.2500839E-011  0.5052886E+02  0.7816164E-02  0.1300439E+00
        -11   -1    0    0    0    0  0.00000000000E+00  0.00000000000E+00  0.45593999997E+02  0.45594000000E+02  0.51100000000E-03 0. -1.
         11   -1    0    0    0    0 -0.00000000000E+00 -0.00000000000E+00 -0.45593999997E+02  0.45594000000E+02  0.51100000000E-03 0.  1.
    9900012    2    1    2    0    0  0.36363828348E+02  0.17541065338E+02 -0.48113088388E+01  0.50528859846E+02  0.29999999988E+02 0.  0.
         12    1    1    2    0    0 -0.36363828348E+02 -0.17541065338E+02  0.48113088388E+01  0.40659140154E+02  0.00000000000E+00 0. -1.
         11    1    3    3    0    0  0.10309583248E+02 -0.49700351455E+01 -0.21447616506E+01  0.11644258624E+02  0.51100000000E-03 0. -1.
        -11    1    3    3    0    0  0.18648241592E+02  0.66046422442E+01  0.38742135524E+01  0.20159061103E+02  0.51100000000E-03 0.  1.
         12    1    3    3    0    0  0.74060035078E+01  0.15906458240E+02 -0.65407607406E+01  0.18725540119E+02  0.00000000000E+00 0. -1.
</event>
<event>
 7    1  0.2500839E-011  0.5052887E+02  0.7816164E-02  0.1300439E+00
        -11   -1    0    0    0    0  0.00000000000E+00  0.00000000000E+00  0.45593999997E+02  0.45594000000E+02  0.51100000000E-03 0.  1.
         11   -1    0    0    0    0 -0.00000000000E+00 -0.00000000000E+00 -0.45593999997E+02  0.45594000000E+02  0.51100000000E-03 0. -1.
    9900012    2    1    2    0    0  0.15805945249E+02  0.29275754393E+02 -0.23372361855E+02  0.50528868194E+02  0.30000025364E+02 0.  0.
         12    1    1    2    0    0 -0.15805945249E+02 -0.29275754393E+02  0.23372361855E+02  0.40659131806E+02  0.00000000000E+00 0. -1.
         11    1    3    3    0    0  0.62266633496E+01  0.15155926645E+02 -0.11171069397E+02  0.19830941497E+02  0.51100000000E-03 0.  1.
        -11    1    3    3    0    0  0.28561817059E+00 -0.37540372208E+01 -0.96908161184E+01  0.10396455670E+02  0.51100000000E-03 0. -1.
         12    1    3    3    0    0  0.92936637285E+01  0.17873864969E+02 -0.25104763400E+01  0.20301471027E+02  0.00000000000E+00 0. -1.
</event>
<event>
 7    1  0.2500839E-011  0.5052885E+02  0.7816164E-02  0.1300439E+00
        -11   -1    0    0    0    0  0.00000000000E+00  0.00000000000E+00  0.45593999997E+02  0.45594000000E+02  0.51100000000E-03 0.  1.
         11   -1    0    0    0    0 -0.00000000000E+00 -0.00000000000E+00 -0.45593999997E+02  0.45594000000E+02  0.51100000000E-03 0. -1.
    9900012    2    1    2    0    0  0.24744473126E+02 -0.15381695107E+02  0.28359850677E+02  0.50528848201E+02  0.29999964590E+02 0.  0.
         12    1    1    2    0    0 -0.24744473126E+02  0.15381695107E+02 -0.28359850677E+02  0.40659151799E+02  0.00000000000E+00 0. -1.
         11    1    3    3    0    0  0.78543200879E+00 -0.92055728203E+01  0.31445001708E+01  0.97594751896E+01  0.51100000000E-03 0. -1.
        -11    1    3    3    0    0  0.16592346091E+02 -0.10972133071E+02  0.25036967513E+02  0.31977232455E+02  0.51100000000E-03 0.  1.
        -12    1    3    3    0    0  0.73666950266E+01  0.47960107852E+01  0.17838299243E+00  0.87921405561E+01  0.00000000000E+00 0.  1.
</event>
<event>
 7    1  0.2500839E-011  0.5052890E+02  0.7816164E-02  0.1300439E+00
        -11   -1    0    0    0    0  0.00000000000E+00  0.00000000000E+00  0.45593999997E+02  0.45594000000E+02  0.51100000000E-03 0.  1.
         11   -1    0    0    0    0 -0.00000000000E+00 -0.00000000000E+00 -0.45593999997E+02  0.45594000000E+02  0.51100000000E-03 0. -1.
    9900012    2    1    2    0    0 -0.26079825105E+02 -0.54765207545E+00  0.31188218723E+02  0.50528902772E+02  0.30000130465E+02 0.  0.
         12    1    1    2    0    0  0.26079825105E+02  0.54765207545E+00 -0.31188218723E+02  0.40659097228E+02  0.00000000000E+00 0. -1.
         11    1    3    3    0    0 -0.90724587462E+01 -0.60874210343E+01  0.27927532033E+01  0.11276775836E+02  0.51100000000E-03 0. -1.
        -11    1    3    3    0    0 -0.10116486833E+02 -0.55055776708E+01  0.21806088005E+02  0.24660903586E+02  0.51100000000E-03 0.  1.
         12    1    3    3    0    0 -0.68908795257E+01  0.11045346630E+02  0.65893775149E+01  0.14591223350E+02  0.00000000000E+00 0. -1.
</event>
<event>
 7    1  0.2500839E-011  0.5052886E+02  0.7816164E-02  0.1300439E+00
        -11   -1    0    0    0    0  0.00000000000E+00  0.00000000000E+00  0.45593999997E+02  0.45594000000E+02  0.51100000000E-03 0.  1.
         11   -1    0    0    0    0 -0.00000000000E+00 -0.00000000000E+00 -0.45593999997E+02  0.45594000000E+02  0.51100000000E-03 0. -1.
    9900012    2    1    2    0    0  0.14385590184E+02 -0.35447822641E+01  0.37863634125E+02  0.50528862338E+02  0.30000007563E+02 0.  0.
         12    1    1    2    0    0 -0.14385590184E+02  0.35447822641E+01 -0.37863634125E+02  0.40659137662E+02  0.00000000000E+00 0. -1.
         11    1    3    3    0    0 -0.25013144187E+01  0.28153524750E+01  0.42330082547E+01  0.56657870173E+01  0.51100000000E-03 0. -1.
        -11    1    3    3    0    0 -0.31085936018E+01  0.55838547658E+01  0.77507266741E+01  0.10045723093E+02  0.51100000000E-03 0.  1.
         12    1    3    3    0    0  0.19995498204E+02 -0.11943989505E+02  0.25879899196E+02  0.34817352228E+02  0.00000000000E+00 0. -1.
</event>
<event>
 7    1  0.2500839E-011  0.5052886E+02  0.7816164E-02  0.1300439E+00
        -11   -1    0    0    0    0  0.00000000000E+00  0.00000000000E+00  0.45593999997E+02  0.45594000000E+02  0.51100000000E-03 0.  1.
         11   -1    0    0    0    0 -0.00000000000E+00 -0.00000000000E+00 -0.45593999997E+02  0.45594000000E+02  0.51100000000E-03 0. -1.
    9900012    2    1    2    0    0  0.30864704120E+02 -0.15694584551E+02  0.21312340478E+02  0.50528858331E+02  0.29999995382E+02 0.  0.
         12    1    1    2    0    0 -0.30864704120E+02  0.15694584551E+02 -0.21312340478E+02  0.40659141669E+02  0.00000000000E+00 0. -1.
         11    1    3    3    0    0  0.12393559760E+02 -0.10389143044E+01  0.80156137932E+00  0.12462831434E+02  0.51100000000E-03 0. -1.
        -11    1    3    3    0    0  0.11603379554E+02  0.41202068532E+00 -0.12051095934E+00  0.11611317809E+02  0.51100000000E-03 0.  1.
        -12    1    3    3    0    0  0.68677648068E+01 -0.15067690932E+02  0.20631290058E+02  0.26454709087E+02  0.00000000000E+00 0.  1.
</event>
<event>
 7    1  0.2500839E-011  0.5052886E+02  0.7816164E-02  0.1300439E+00
        -11   -1    0    0    0    0  0.00000000000E+00  0.00000000000E+00  0.45593999997E+02  0.45594000000E+02  0.51100000000E-03 0.  1.
         11   -1    0    0    0    0 -0.00000000000E+00 -0.00000000000E+00 -0.45593999997E+02  0.45594000000E+02  0.51100000000E-03 0. -1.
    9900012    2    1    2    0    0  0.20523088399E+02  0.16965464563E+02  0.30726882401E+02  0.50528862683E+02  0.30000008611E+02 0.  0.
         12    1    1    2    0    0 -0.20523088399E+02 -0.16965464563E+02 -0.30726882401E+02  0.40659137317E+02  0.00000000000E+00 0. -1.
         11    1    3    3    0    0  0.10724890828E+01 -0.33436359788E+01 -0.10299377596E+01  0.36593587472E+01  0.51100000000E-03 0. -1.
        -11    1    3    3    0    0  0.55164790173E+01  0.16701616437E+01  0.19966058773E+02  0.20781349423E+02  0.51100000000E-03 0.  1.
        -12    1    3    3    0    0  0.13934120299E+02  0.18638938898E+02  0.11790761388E+02  0.26088154513E+02  0.00000000000E+00 0.  1.
</event>
<event>
 7    1  0.2500839E-011  0.5052888E+02  0.7816164E-02  0.1300439E+00
        -11   -1    0    0    0    0  0.00000000000E+00  0.00000000000E+00  0.45593999997E+02  0.45594000000E+02  0.51100000000E-03 0.  1.
         11   -1    0    0    0    0 -0.00000000000E+00 -0.00000000000E+00 -0.45593999997E+02  0.45594000000E+02  0.51100000000E-03 0. -1.
    9900012    2    1    2    0    0  0.33889861505E+02  0.17323517211E+02 -0.14301633876E+02  0.50528884258E+02  0.30000074191E+02 0.  0.
         12    1    1    2    0    0 -0.33889861505E+02 -0.17323517211E+02  0.14301633876E+02  0.40659115742E+02  0.00000000000E+00 0. -1.
         11    1    3    3    0    0  0.37799804822E+01 -0.32244994221E+01 -0.49853705192E+01  0.70384350849E+01  0.51100000000E-03 0. -1.
        -11    1    3    3    0    0  0.32594327087E+02  0.15010803927E+02 -0.54544036643E+01  0.36296899488E+02  0.51100000000E-03 0.  1.
         12    1    3    3    0    0 -0.24844460645E+01  0.55372127060E+01 -0.38618596921E+01  0.71935496857E+01  0.00000000000E+00 0. -1.
</event>
<event>
 7    1  0.2500839E-011  0.5052886E+02  0.7816164E-02  0.1300439E+00
        -11   -1    0    0    0    0  0.00000000000E+00  0.00000000000E+00  0.45593999997E+02  0.45594000000E+02  0.51100000000E-03 0. -1.
         11   -1    0    0    0    0 -0.00000000000E+00 -0.00000000000E+00 -0.45593999997E+02  0.45594000000E+02  0.51100000000E-03 0.  1.
    9900012    2    1    2    0    0 -0.20151047753E+02 -0.23541203081E+02  0.26323241336E+02  0.50528855856E+02  0.29999987860E+02 0.  0.
         12    1    1    2    0    0  0.20151047753E+02  0.23541203081E+02 -0.26323241336E+02  0.40659144144E+02  0.00000000000E+00 0. -1.
         11    1    3    3    0    0 -0.18329913345E+02 -0.21292840117E+02  0.18214019633E+02  0.33483149119E+02  0.51100000000E-03 0.  1.
        -11    1    3    3    0    0  0.14197245932E+01 -0.79973051018E+01  0.60648257535E+01  0.10136795277E+02  0.51100000000E-03 0. -1.
        -12    1    3    3    0    0 -0.32408590016E+01  0.57489421371E+01  0.20443959500E+01  0.69089114602E+01  0.00000000000E+00 0.  1.
</event>
<event>
 7    1  0.2500839E-011  0.5052887E+02  0.7816164E-02  0.1300439E+00
        -11   -1    0    0    0    0  0.00000000000E+00  0.00000000000E+00  0.45593999997E+02  0.45594000000E+02  0.51100000000E-03 0.  1.
         11   -1    0    0    0    0 -0.00000000000E+00 -0.00000000000E+00 -0.45593999997E+02  0.45594000000E+02  0.51100000000E-03 0. -1.
    9900012    2    1    2    0    0  0.14692541848E+02 -0.26895308283E+02  0.26719594945E+02  0.50528866369E+02  0.30000019816E+02 0.  0.
         12    1    1    2    0    0 -0.14692541848E+02  0.26895308283E+02 -0.26719594945E+02  0.40659133631E+02  0.00000000000E+00 0. -1.
         11    1    3    3    0    0 -0.27029529540E+01 -0.68970809091E-01  0.61282208134E+01  0.66981939538E+01  0.51100000000E-03 0. -1.
        -11    1    3    3    0    0  0.92958589004E+01 -0.17693398333E+02  0.10956179366E+00  0.19987029327E+02  0.51100000000E-03 0.  1.
         12    1    3    3    0    0  0.80996359014E+01 -0.91329391411E+01  0.20481812338E+02  0.23843643088E+02  0.00000000000E+00 0. -1.
</event>
<event>
 7    1  0.2500839E-011  0.5052886E+02  0.7816164E-02  0.1300439E+00
        -11   -1    0    0    0    0  0.00000000000E+00  0.00000000000E+00  0.45593999997E+02  0.45594000000E+02  0.51100000000E-03 0.  1.
         11   -1    0    0    0    0 -0.00000000000E+00 -0.00000000000E+00 -0.45593999997E+02  0.45594000000E+02  0.51100000000E-03 0. -1.
    9900012    2    1    2    0    0 -0.15056844828E+02  0.37526563810E+02  0.42677925243E+01  0.50528860553E+02  0.30000002136E+02 0.  0.
         12    1    1    2    0    0  0.15056844828E+02 -0.37526563810E+02 -0.42677925243E+01  0.40659139447E+02  0.00000000000E+00 0. -1.
         11    1    3    3    0    0 -0.10682197734E+01 -0.18225562431E+01  0.58955481759E+01  0.62626107415E+01  0.51100000000E-03 0. -1.
        -11    1    3    3    0    0 -0.91304082527E+01  0.88089220856E+01  0.28947372061E+01  0.13013107505E+02  0.51100000000E-03 0.  1.
        -12    1    3    3    0    0 -0.48582168021E+01  0.30540197968E+02 -0.45224928577E+01  0.31253142307E+02  0.00000000000E+00 0.  1.
</event>
<event>
 7    1  0.2500839E-011  0.5052873E+02  0.7816164E-02  0.1300439E+00
        -11   -1    0    0    0    0  0.00000000000E+00  0.00000000000E+00  0.45593999997E+02  0.45594000000E+02  0.51100000000E-03 0.  1.
         11   -1    0    0    0    0 -0.00000000000E+00 -0.00000000000E+00 -0.45593999997E+02  0.45594000000E+02  0.51100000000E-03 0. -1.
    9900012    2    1    2    0    0  0.63328915975E+01  0.24309515590E+02  0.31970585952E+02  0.50528727622E+02  0.29999598078E+02 0.  0.
         12    1    1    2    0    0 -0.63328915975E+01 -0.24309515590E+02 -0.31970585952E+02  0.40659272378E+02  0.00000000000E+00 0. -1.
         11    1    3    3    0    0 -0.12325935985E-01  0.15649062362E+01  0.15708108592E+02  0.15785872141E+02  0.51100000000E-03 0. -1.
        -11    1    3    3    0    0 -0.17795493028E+01  0.19628079206E+02  0.16975837193E+02  0.26011676949E+02  0.51100000000E-03 0.  1.
         12    1    3    3    0    0  0.81247668362E+01  0.31165301476E+01 -0.71335983332E+00  0.87311785319E+01  0.00000000000E+00 0. -1.
</event>
<event>
 7    1  0.2500839E-011  0.5052885E+02  0.7816164E-02  0.1300439E+00
        -11   -1    0    0    0    0  0.00000000000E+00  0.00000000000E+00  0.45593999997E+02  0.45594000000E+02  0.51100000000E-03 0.  1.
         11   -1    0    0    0    0 -0.00000000000E+00 -0.00000000000E+00 -0.45593999997E+02  0.45594000000E+02  0.51100000000E-03 0. -1.
    9900012    2    1    2    0    0 -0.18934398246E+01  0.18067659743E+02  0.36375003612E+02  0.50528851820E+02  0.29999975592E+02 0.  0.
         12    1    1    2    0    0  0.18934398246E+01 -0.18067659743E+02 -0.36375003612E+02  0.40659148180E+02  0.00000000000E+00 0. -1.
         11    1    3    3    0    0  0.40292432143E+01  0.77630383423E+01 -0.14407133413E+00  0.87475894963E+01  0.51100000000E-03 0. -1.
        -11    1    3    3    0    0  0.20644687200E+00  0.58510871053E+01  0.16276634336E+01  0.60767696302E+01  0.51100000000E-03 0.  1.
        -12    1    3    3    0    0 -0.61291299109E+01  0.44535342955E+01  0.34891411512E+02  0.35704492694E+02  0.00000000000E+00 0.  1.
</event>
<event>
 7    1  0.2500839E-011  0.5052885E+02  0.7816164E-02  0.1300439E+00
        -11   -1    0    0    0    0  0.00000000000E+00  0.00000000000E+00  0.45593999997E+02  0.45594000000E+02  0.51100000000E-03 0.  1.
         11   -1    0    0    0    0 -0.00000000000E+00 -0.00000000000E+00 -0.45593999997E+02  0.45594000000E+02  0.51100000000E-03 0. -1.
    9900012    2    1    2    0    0  0.21596895559E+02 -0.34319458622E+02 -0.29858618134E+01  0.50528849632E+02  0.29999968941E+02 0.  0.
         12    1    1    2    0    0 -0.21596895559E+02  0.34319458622E+02  0.29858618134E+01  0.40659150368E+02  0.00000000000E+00 0. -1.
         11    1    3    3    0    0  0.15919679506E+01 -0.15664188991E+02  0.79855268223E+01  0.17654172810E+02  0.51100000000E-03 0. -1.
        -11    1    3    3    0    0  0.10484653151E+02 -0.18566919840E+02 -0.60889692735E+01  0.22175076350E+02  0.51100000000E-03 0.  1.
        -12    1    3    3    0    0  0.95202744574E+01 -0.88349790288E-01 -0.48824193623E+01  0.10699600472E+02  0.00000000000E+00 0.  1.
</event>
<event>
 7    1  0.2500839E-011  0.5052883E+02  0.7816164E-02  0.1300439E+00
        -11   -1    0    0    0    0  0.00000000000E+00  0.00000000000E+00  0.45593999997E+02  0.45594000000E+02  0.51100000000E-03 0. -1.
         11   -1    0    0    0    0 -0.00000000000E+00 -0.00000000000E+00 -0.45593999997E+02  0.45594000000E+02  0.51100000000E-03 0.  1.
    9900012    2    1    2    0    0  0.38096525278E+00  0.35041480999E+02 -0.20618386079E+02  0.50528826746E+02  0.29999899378E+02 0.  0.
         12    1    1    2    0    0 -0.38096525278E+00 -0.35041480999E+02  0.20618386079E+02  0.40659173254E+02  0.00000000000E+00 0. -1.
         11    1    3    3    0    0  0.47603071003E+01  0.11391837964E+02 -0.14170640348E+02  0.18794721174E+02  0.51100000000E-03 0. -1.
        -11    1    3    3    0    0  0.58484126789E+01  0.51265236828E+01 -0.71482731955E+01  0.10563284805E+02  0.51100000000E-03 0.  1.
         12    1    3    3    0    0 -0.10227754526E+02  0.18523119353E+02  0.70052746465E+00  0.21170820767E+02  0.00000000000E+00 0. -1.
</event>
<event>
 7    1  0.2500839E-011  0.5052886E+02  0.7816164E-02  0.1300439E+00
        -11   -1    0    0    0    0  0.00000000000E+00  0.00000000000E+00  0.45593999997E+02  0.45594000000E+02  0.51100000000E-03 0.  1.
         11   -1    0    0    0    0 -0.00000000000E+00 -0.00000000000E+00 -0.45593999997E+02  0.45594000000E+02  0.51100000000E-03 0. -1.
    9900012    2    1    2    0    0 -0.22443042720E+02 -0.33766069432E+02 -0.30542369937E+01  0.50528856194E+02  0.29999988888E+02 0.  0.
         12    1    1    2    0    0  0.22443042720E+02  0.33766069432E+02  0.30542369937E+01  0.40659143806E+02  0.00000000000E+00 0. -1.
         11    1    3    3    0    0 -0.16305949720E+02 -0.22912566038E+02 -0.32046516986E+01  0.28304407280E+02  0.51100000000E-03 0. -1.
        -11    1    3    3    0    0 -0.62454131253E+01 -0.15865472095E+02  0.12356801770E+01  0.17095183406E+02  0.51100000000E-03 0.  1.
         12    1    3    3    0    0  0.10832012550E+00  0.50119687012E+01 -0.10852654721E+01  0.51292655084E+01  0.00000000000E+00 0. -1.
</event>
<event>
 7    1  0.2500839E-011  0.5052886E+02  0.7816164E-02  0.1300439E+00
        -11   -1    0    0    0    0  0.00000000000E+00  0.00000000000E+00  0.45593999997E+02  0.45594000000E+02  0.51100000000E-03 0. -1.
         11   -1    0    0    0    0 -0.00000000000E+00 -0.00000000000E+00 -0.45593999997E+02  0.45594000000E+02  0.51100000000E-03 0.  1.
    9900012    2    1    2    0    0 -0.53015739524E+01 -0.30834462866E+02 -0.25967195740E+02  0.50528855380E+02  0.29999986414E+02 0.  0.
         12    1    1    2    0    0  0.53015739524E+01  0.30834462866E+02  0.25967195740E+02  0.40659144620E+02  0.00000000000E+00 0. -1.
         11    1    3    3    0    0  0.70696942541E+01 -0.14612077975E+02 -0.18746189350E+02  0.24797439686E+02  0.51100000000E-03 0. -1.
        -11    1    3    3    0    0 -0.41269030278E+01 -0.15553711355E+02 -0.67387936201E+01  0.17445933774E+02  0.51100000000E-03 0.  1.
         12    1    3    3    0    0 -0.82443651788E+01 -0.66867353612E+00 -0.48221277007E+00  0.82854819205E+01  0.00000000000E+00 0. -1.
</event>
<event>
 7    1  0.2500839E-011  0.5052876E+02  0.7816164E-02  0.1300439E+00
        -11   -1    0    0    0    0  0.00000000000E+00  0.00000000000E+00  0.45593999997E+02  0.45594000000E+02  0.51100000000E-03 0. -1.
         11   -1    0    0    0    0 -0.00000000000E+00 -0.00000000000E+00 -0.45593999997E+02  0.45594000000E+02  0.51100000000E-03 0.  1.
    9900012    2    1    2    0    0  0.23767837048E+02  0.28817558492E+02 -0.16056531818E+02  0.50528757884E+02  0.29999690063E+02 0.  0.
         12    1    1    2    0    0 -0.23767837048E+02 -0.28817558492E+02  0.16056531818E+02  0.40659242116E+02  0.00000000000E+00 0. -1.
         11    1    3    3    0    0  0.10403975482E+02  0.37650339648E+01 -0.12613581569E+02  0.16778576425E+02  0.51100000000E-03 0.  1.
        -11    1    3    3    0    0  0.15954196914E+02  0.13595204537E+02 -0.58447093428E+01  0.21760666652E+02  0.51100000000E-03 0. -1.
         12    1    3    3    0    0 -0.25903353484E+01  0.11457319990E+02  0.24017590930E+01  0.11989514808E+02  0.00000000000E+00 0. -1.
</event>
<event>
 7    1  0.2500839E-011  0.5052886E+02  0.7816164E-02  0.1300439E+00
        -11   -1    0    0    0    0  0.00000000000E+00  0.00000000000E+00  0.45593999997E+02  0.45594000000E+02  0.51100000000E-03 0. -1.
         11   -1    0    0    0    0 -0.00000000000E+00 -0.00000000000E+00 -0.45593999997E+02  0.45594000000E+02  0.51100000000E-03 0.  1.
    9900012    2    1    2    0    0 -0.27320719412E+02  0.53603675728E+01 -0.29631243011E+02  0.50528858198E+02  0.29999994977E+02 0.  0.
         12    1    1    2    0    0  0.27320719412E+02 -0.53603675728E+01  0.29631243011E+02  0.40659141802E+02  0.00000000000E+00 0. -1.
         11    1    3    3    0    0 -0.22301671520E+02  0.60765009687E+01 -0.28643317369E+02  0.36806630473E+02  0.51100000000E-03 0.  1.
        -11    1    3    3    0    0 -0.88311589195E+01  0.19378779492E+01 -0.60646137109E+00  0.90615966840E+01  0.51100000000E-03 0. -1.
        -12    1    3    3    0    0  0.38121110275E+01 -0.26540113452E+01 -0.38146427154E+00  0.46606310407E+01  0.00000000000E+00 0.  1.
</event>
<event>
 7    1  0.2515754E-011  0.5052886E+02  0.7816164E-02  0.1300439E+00
        -11   -1    0    0    0    0  0.00000000000E+00  0.00000000000E+00  0.45593999997E+02  0.45594000000E+02  0.51100000000E-03 0. -1.
         11   -1    0    0    0    0 -0.00000000000E+00 -0.00000000000E+00 -0.45593999997E+02  0.45594000000E+02  0.51100000000E-03 0.  1.
    9900012    2    1    2    0    0  0.42481767319E+01  0.26094426377E+02 -0.30890119238E+02  0.50528861298E+02  0.30000004400E+02 0.  0.
         12    1    1    2    0    0 -0.42481767319E+01 -0.26094426377E+02  0.30890119238E+02  0.40659138702E+02  0.00000000000E+00 0. -1.
         11    1    3    3    0    0 -0.38625581071E+01  0.41874837272E+00 -0.10119325237E+02  0.10839531763E+02  0.51100000000E-03 0. -1.
        -11    1    3    3    0    0 -0.66304049724E+01  0.11422649173E+02 -0.66048008403E+01  0.14766942088E+02  0.51100000000E-03 0.  1.
        -12    1    3    3    0    0  0.14741139811E+02  0.14253028831E+02 -0.14165993161E+02  0.24922387446E+02  0.00000000000E+00 0.  1.
</event>
<event>
 7    1  0.2500839E-011  0.5052885E+02  0.7816164E-02  0.1300439E+00
        -11   -1    0    0    0    0  0.00000000000E+00  0.00000000000E+00  0.45593999997E+02  0.45594000000E+02  0.51100000000E-03 0.  1.
         11   -1    0    0    0    0 -0.00000000000E+00 -0.00000000000E+00 -0.45593999997E+02  0.45594000000E+02  0.51100000000E-03 0. -1.
    9900012    2    1    2    0    0 -0.27646803474E+02 -0.16442945907E+02  0.24868653923E+02  0.50528853915E+02  0.29999981961E+02 0.  0.
         12    1    1    2    0    0  0.27646803474E+02  0.16442945907E+02 -0.24868653923E+02  0.40659146085E+02  0.00000000000E+00 0. -1.
         11    1    3    3    0    0 -0.10449016908E+02  0.31162329302E+01  0.18444568917E+02  0.21426501927E+02  0.51100000000E-03 0. -1.
        -11    1    3    3    0    0 -0.10453959525E+02 -0.15032996685E+02  0.92352292385E+01  0.20507699004E+02  0.51100000000E-03 0.  1.
        -12    1    3    3    0    0 -0.67438270402E+01 -0.45261821521E+01 -0.28111442331E+01  0.85946529844E+01  0.00000000000E+00 0.  1.
</event>
<event>
 7    1  0.2500839E-011  0.5052887E+02  0.7816164E-02  0.1300439E+00
        -11   -1    0    0    0    0  0.00000000000E+00  0.00000000000E+00  0.45593999997E+02  0.45594000000E+02  0.51100000000E-03 0.  1.
         11   -1    0    0    0    0 -0.00000000000E+00 -0.00000000000E+00 -0.45593999997E+02  0.45594000000E+02  0.51100000000E-03 0. -1.
    9900012    2    1    2    0    0 -0.63979037834E+01 -0.24277427566E+02  0.31981837884E+02  0.50528872900E+02  0.30000039668E+02 0.  0.
         12    1    1    2    0    0  0.63979037834E+01  0.24277427566E+02 -0.31981837884E+02  0.40659127100E+02  0.00000000000E+00 0. -1.
         11    1    3    3    0    0 -0.11235652296E+01 -0.85915033176E+01  0.24601511797E+02  0.26082766553E+02  0.51100000000E-03 0. -1.
        -11    1    3    3    0    0 -0.28381358687E+01 -0.16151769493E+02  0.11223434752E+02  0.19872095030E+02  0.51100000000E-03 0.  1.
         12    1    3    3    0    0 -0.24362026851E+01  0.46584524461E+00 -0.38431086657E+01  0.45740113174E+01  0.00000000000E+00 0. -1.
</event>
<event>
 7    1  0.2500839E-011  0.5052886E+02  0.7816164E-02  0.1300439E+00
        -11   -1    0    0    0    0  0.00000000000E+00  0.00000000000E+00  0.45593999997E+02  0.45594000000E+02  0.51100000000E-03 0.  1.
         11   -1    0    0    0    0 -0.00000000000E+00 -0.00000000000E+00 -0.45593999997E+02  0.45594000000E+02  0.51100000000E-03 0. -1.
    9900012    2    1    2    0    0 -0.25210875963E+02 -0.31313751964E+02  0.60849394002E+01  0.50528858145E+02  0.29999994817E+02 0.  0.
         12    1    1    2    0    0  0.25210875963E+02  0.31313751964E+02 -0.60849394002E+01  0.40659141855E+02  0.00000000000E+00 0. -1.
         11    1    3    3    0    0  0.36017361426E+01 -0.81104201842E+01  0.27302940046E+01  0.92847145577E+01  0.51100000000E-03 0. -1.
        -11    1    3    3    0    0 -0.36708201551E+01 -0.30085719352E+01 -0.60154239971E+01  0.76623594165E+01  0.51100000000E-03 0.  1.
        -12    1    3    3    0    0 -0.25141791951E+02 -0.20194759844E+02  0.93700693927E+01  0.33581784171E+02  0.00000000000E+00 0.  1.
</event>
<event>
 7    1  0.2500839E-011  0.5052886E+02  0.7816164E-02  0.1300439E+00
        -11   -1    0    0    0    0  0.00000000000E+00  0.00000000000E+00  0.45593999997E+02  0.45594000000E+02  0.51100000000E-03 0.  1.
         11   -1    0    0    0    0 -0.00000000000E+00 -0.00000000000E+00 -0.45593999997E+02  0.45594000000E+02  0.51100000000E-03 0. -1.
    9900012    2    1    2    0    0  0.17270935799E+02  0.35730886522E+02 -0.88421719347E+01  0.50528862287E+02  0.30000007409E+02 0.  0.
         12    1    1    2    0    0 -0.17270935799E+02 -0.35730886522E+02  0.88421719347E+01  0.40659137713E+02  0.00000000000E+00 0. -1.
         11    1    3    3    0    0  0.17258783709E+01 -0.11269408609E+01  0.59673869446E+01  0.63133476906E+01  0.51100000000E-03 0. -1.
        -11    1    3    3    0    0  0.61606629163E+01  0.12869719441E+02  0.45192660826E+00  0.14275422374E+02  0.51100000000E-03 0.  1.
         12    1    3    3    0    0  0.93843945122E+01  0.23988107942E+02 -0.15261485488E+02  0.29940092222E+02  0.00000000000E+00 0. -1.
</event>
<event>
 7    1  0.2500839E-011  0.5052886E+02  0.7816164E-02  0.1300439E+00
        -11   -1    0    0    0    0  0.00000000000E+00  0.00000000000E+00  0.45593999997E+02  0.45594000000E+02  0.51100000000E-03 0.  1.
         11   -1    0    0    0    0 -0.00000000000E+00 -0.00000000000E+00 -0.45593999997E+02  0.45594000000E+02  0.51100000000E-03 0. -1.
    9900012    2    1    2    0    0  0.28447959678E+02  0.27784002573E+02  0.84810585219E+01  0.50528861268E+02  0.30000004310E+02 0.  0.
         12    1    1    2    0    0 -0.28447959678E+02 -0.27784002573E+02 -0.84810585219E+01  0.40659138732E+02  0.00000000000E+00 0. -1.
         11    1    3    3    0    0 -0.49249091945E+00  0.57201014531E+01  0.49959278039E+01  0.76106111990E+01  0.51100000000E-03 0. -1.
        -11    1    3    3    0    0  0.16012034593E+02  0.20592634221E+02 -0.60610158594E+01  0.26780174560E+02  0.51100000000E-03 0.  1.
         12    1    3    3    0    0  0.12928416004E+02  0.14712668989E+01  0.95461465775E+01  0.16138075509E+02  0.00000000000E+00 0. -1.
</event>
<event>
 7    1  0.2500839E-011  0.5052886E+02  0.7816164E-02  0.1300439E+00
        -11   -1    0    0    0    0  0.00000000000E+00  0.00000000000E+00  0.45593999997E+02  0.45594000000E+02  0.51100000000E-03 0.  1.
         11   -1    0    0    0    0 -0.00000000000E+00 -0.00000000000E+00 -0.45593999997E+02  0.45594000000E+02  0.51100000000E-03 0. -1.
    9900012    2    1    2    0    0  0.34287801038E+02 -0.21806753602E+02  0.14062459586E+01  0.50528864122E+02  0.30000012984E+02 0.  0.
         12    1    1    2    0    0 -0.34287801038E+02  0.21806753602E+02 -0.14062459586E+01  0.40659135878E+02  0.00000000000E+00 0. -1.
         11    1    3    3    0    0  0.79469266906E+01 -0.52699695481E+00 -0.13536076933E+01  0.80785904504E+01  0.51100000000E-03 0. -1.
        -11    1    3    3    0    0 -0.18815974624E+01 -0.62775995130E+01  0.76971359520E+01  0.10109132840E+02  0.51100000000E-03 0.  1.
        -12    1    3    3    0    0  0.28222471810E+02 -0.15002157135E+02 -0.49372823001E+01  0.32341140831E+02  0.00000000000E+00 0.  1.
</event>
<event>
 7    1  0.2500839E-011  0.5052886E+02  0.7816164E-02  0.1300439E+00
        -11   -1    0    0    0    0  0.00000000000E+00  0.00000000000E+00  0.45593999997E+02  0.45594000000E+02  0.51100000000E-03 0. -1.
         11   -1    0    0    0    0 -0.00000000000E+00 -0.00000000000E+00 -0.45593999997E+02  0.45594000000E+02  0.51100000000E-03 0.  1.
    9900012    2    1    2    0    0  0.29676108790E+02 -0.23166677472E+02  0.15355763831E+02  0.50528857598E+02  0.29999993156E+02 0.  0.
         12    1    1    2    0    0 -0.29676108790E+02  0.23166677472E+02 -0.15355763831E+02  0.40659142402E+02  0.00000000000E+00 0. -1.
         11    1    3    3    0    0  0.16118392779E+02 -0.12624653406E+02  0.22735266909E+01  0.20599839399E+02  0.51100000000E-03 0. -1.
        -11    1    3    3    0    0  0.13791975242E+02 -0.15597326653E+02  0.68880882935E+01  0.21930365715E+02  0.51100000000E-03 0.  1.
         12    1    3    3    0    0 -0.23425923041E+00  0.50553025870E+01  0.61941488462E+01  0.79986524842E+01  0.00000000000E+00 0. -1.
</event>
<event>
 7    1  0.2500839E-011  0.5052886E+02  0.7816164E-02  0.1300439E+00
        -11   -1    0    0    0    0  0.00000000000E+00  0.00000000000E+00  0.45593999997E+02  0.45594000000E+02  0.51100000000E-03 0.  1.
         11   -1    0    0    0    0 -0.00000000000E+00 -0.00000000000E+00 -0.45593999997E+02  0.45594000000E+02  0.51100000000E-03 0. -1.
    9900012    2    1    2    0    0  0.15451386871E+02 -0.24389113565E+02  0.28628505252E+02  0.50528861671E+02  0.30000005534E+02 0.  0.
         12    1    1    2    0    0 -0.15451386871E+02  0.24389113565E+02 -0.28628505252E+02  0.40659138329E+02  0.00000000000E+00 0. -1.
         11    1    3    3    0    0 -0.47229148647E+00 -0.33678697932E+01  0.20738938913E+01  0.39832954103E+01  0.51100000000E-03 0. -1.
        -11    1    3    3    0    0 -0.43535899681E+01 -0.16902096724E+02  0.13676037249E+02  0.22173601746E+02  0.51100000000E-03 0.  1.
        -12    1    3    3    0    0  0.20277268325E+02 -0.41191470470E+01  0.12878574112E+02  0.24371964514E+02  0.00000000000E+00 0.  1.
</event>
<event>
 7    1  0.2500839E-011  0.5052884E+02  0.7816164E-02  0.1300439E+00
        -11   -1    0    0    0    0  0.00000000000E+00  0.00000000000E+00  0.45593999997E+02  0.45594000000E+02  0.51100000000E-03 0.  1.
         11   -1    0    0    0    0 -0.00000000000E+00 -0.00000000000E+00 -0.45593999997E+02  0.45594000000E+02  0.51100000000E-03 0. -1.
    9900012    2    1    2    0    0 -0.18278100544E+02  0.19737381374E+02  0.30487934254E+02  0.50528839678E+02  0.29999938685E+02 0.  0.
         12    1    1    2    0    0  0.18278100544E+02 -0.19737381374E+02 -0.30487934254E+02  0.40659160322E+02  0.00000000000E+00 0. -1.
         11    1    3    3    0    0  0.28026632902E+01  0.72562506097E+01  0.98309675248E+01  0.12536188303E+02  0.51100000000E-03 0. -1.
        -11    1    3    3    0    0 -0.13963537005E+02  0.17057675309E+02  0.19539786021E+02  0.29457560840E+02  0.51100000000E-03 0.  1.
        -12    1    3    3    0    0 -0.71172268288E+01 -0.45765445445E+01  0.11171807083E+01  0.85350905347E+01  0.00000000000E+00 0.  1.
</event>
<event>
 7    1  0.2500839E-011  0.5052886E+02  0.7816164E-02  0.1300439E+00
        -11   -1    0    0    0    0  0.00000000000E+00  0.00000000000E+00  0.45593999997E+02  0.45594000000E+02  0.51100000000E-03 0. -1.
         11   -1    0    0    0    0 -0.00000000000E+00 -0.00000000000E+00 -0.45593999997E+02  0.45594000000E+02  0.51100000000E-03 0.  1.
    9900012    2    1    2    0    0 -0.22019530727E+02 -0.31343733482E+02 -0.13633638070E+02  0.50528862662E+02  0.30000008548E+02 0.  0.
         12    1    1    2    0    0  0.22019530727E+02  0.31343733482E+02  0.13633638070E+02  0.40659137338E+02  0.00000000000E+00 0. -1.
         11    1    3    3    0    0 -0.14753363742E+01 -0.24652884982E+01 -0.70233570816E+01  0.75882679021E+01  0.51100000000E-03 0. -1.
        -11    1    3    3    0    0 -0.23936309742E+02 -0.15904380694E+02 -0.67882059095E+01  0.29529239561E+02  0.51100000000E-03 0.  1.
         12    1    3    3    0    0  0.33921153886E+01 -0.12974064290E+02  0.17792492116E+00  0.13411355199E+02  0.00000000000E+00 0. -1.
</event>
<event>
 7    1  0.2500839E-011  0.5052886E+02  0.7816164E-02  0.1300439E+00
        -11   -1    0    0    0    0  0.00000000000E+00  0.00000000000E+00  0.45593999997E+02  0.45594000000E+02  0.51100000000E-03 0.  1.
         11   -1    0    0    0    0 -0.00000000000E+00 -0.00000000000E+00 -0.45593999997E+02  0.45594000000E+02  0.51100000000E-03 0. -1.
    9900012    2    1    2    0    0 -0.34973938778E+02 -0.20162802970E+02  0.48425886384E+01  0.50528859798E+02  0.29999999842E+02 0.  0.
         12    1    1    2    0    0  0.34973938778E+02  0.20162802970E+02 -0.48425886384E+01  0.40659140202E+02  0.00000000000E+00 0. -1.
         11    1    3    3    0    0 -0.10212123569E+02 -0.19045697598E+02 -0.38603569164E+01  0.21952868163E+02  0.51100000000E-03 0. -1.
        -11    1    3    3    0    0 -0.36028379605E+01 -0.43316711797E+01  0.31941791241E+01  0.64766192660E+01  0.51100000000E-03 0.  1.
         12    1    3    3    0    0 -0.21158977248E+02  0.32145658076E+01  0.55087664307E+01  0.22099372369E+02  0.00000000000E+00 0. -1.
</event>
<event>
 7    1  0.2500839E-011  0.5052886E+02  0.7816164E-02  0.1300439E+00
        -11   -1    0    0    0    0  0.00000000000E+00  0.00000000000E+00  0.45593999997E+02  0.45594000000E+02  0.51100000000E-03 0.  1.
         11   -1    0    0    0    0 -0.00000000000E+00 -0.00000000000E+00 -0.45593999997E+02  0.45594000000E+02  0.51100000000E-03 0. -1.
    9900012    2    1    2    0    0 -0.40243150783E+01  0.14980633167E+02  0.37583924827E+02  0.50528857273E+02  0.29999992166E+02 0.  0.
         12    1    1    2    0    0  0.40243150783E+01 -0.14980633167E+02 -0.37583924827E+02  0.40659142727E+02  0.00000000000E+00 0. -1.
         11    1    3    3    0    0  0.62722510709E+00 -0.62757779934E+01  0.30852915108E+01  0.70212409676E+01  0.51100000000E-03 0. -1.
        -11    1    3    3    0    0 -0.37444383496E+01  0.11959270680E+01  0.15040889212E+02  0.15546041576E+02  0.51100000000E-03 0.  1.
        -12    1    3    3    0    0 -0.90710183578E+00  0.20060484093E+02  0.19457744103E+02  0.27961574730E+02  0.00000000000E+00 0.  1.
</event>
<event>
 7    1  0.2500839E-011  0.5052885E+02  0.7816164E-02  0.1300439E+00
        -11   -1    0    0    0    0  0.00000000000E+00  0.00000000000E+00  0.45593999997E+02  0.45594000000E+02  0.51100000000E-03 0.  1.
         11   -1    0    0    0    0 -0.00000000000E+00 -0.00000000000E+00 -0.45593999997E+02  0.45594000000E+02  0.51100000000E-03 0. -1.
    9900012    2    1    2    0    0 -0.32574174478E+02 -0.99993055316E+01  0.22183413223E+02  0.50528846341E+02  0.29999958939E+02 0.  0.
         12    1    1    2    0    0  0.32574174478E+02  0.99993055316E+01 -0.22183413223E+02  0.40659153659E+02  0.00000000000E+00 0. -1.
         11    1    3    3    0    0 -0.39350817802E+01  0.16491589163E+01 -0.18305016089E+01  0.46427718175E+01  0.51100000000E-03 0. -1.
        -11    1    3    3    0    0  0.15234019995E+01 -0.86496354373E+01  0.50421373329E+01  0.10127195860E+02  0.51100000000E-03 0.  1.
        -12    1    3    3    0    0 -0.30162494697E+02 -0.29988290105E+01  0.18971777499E+02  0.35758878663E+02  0.00000000000E+00 0.  1.
</event>
<event>
 7    1  0.2500839E-011  0.5052886E+02  0.7816164E-02  0.1300439E+00
        -11   -1    0    0    0    0  0.00000000000E+00  0.00000000000E+00  0.45593999997E+02  0.45594000000E+02  0.51100000000E-03 0.  1.
         11   -1    0    0    0    0 -0.00000000000E+00 -0.00000000000E+00 -0.45593999997E+02  0.45594000000E+02  0.51100000000E-03 0. -1.
    9900012    2    1    2    0    0  0.10047916097E+02  0.24423947376E+02  0.30914006060E+02  0.50528860880E+02  0.30000003130E+02 0.  0.
         12    1    1    2    0    0 -0.10047916097E+02 -0.24423947376E+02 -0.30914006060E+02  0.40659139120E+02  0.00000000000E+00 0. -1.
         11    1    3    3    0    0  0.63266227860E+01  0.16978948761E+02  0.12814690726E+02  0.22192952835E+02  0.51100000000E-03 0. -1.
        -11    1    3    3    0    0  0.63351030960E+01  0.66444004656E+01  0.21846778027E+02  0.23697326837E+02  0.51100000000E-03 0.  1.
         12    1    3    3    0    0 -0.26138097849E+01  0.80059815021E+00 -0.37474626927E+01  0.46385812080E+01  0.00000000000E+00 0. -1.
</event>
<event>
 7    1  0.2610491E-011  0.5052882E+02  0.7816164E-02  0.1300439E+00
        -11   -1    0    0    0    0  0.00000000000E+00  0.00000000000E+00  0.45593999997E+02  0.45594000000E+02  0.51100000000E-03 0.  1.
         11   -1    0    0    0    0 -0.00000000000E+00 -0.00000000000E+00 -0.45593999997E+02  0.45594000000E+02  0.51100000000E-03 0. -1.
    9900012    2    1    2    0    0 -0.38390995759E+02  0.57337690119E+00  0.13378019601E+02  0.50528822378E+02  0.29999886099E+02 0.  0.
         12    1    1    2    0    0  0.38390995759E+02 -0.57337690119E+00 -0.13378019601E+02  0.40659177622E+02  0.00000000000E+00 0. -1.
         11    1    3    3    0    0 -0.28206077857E+02 -0.10936202366E+01  0.47683667077E+01  0.28627192573E+02  0.51100000000E-03 0. -1.
        -11    1    3    3    0    0 -0.13527976358E+02  0.18808721848E+01  0.11203197546E+02  0.17665091566E+02  0.51100000000E-03 0.  1.
         12    1    3    3    0    0  0.33430584560E+01 -0.21387504709E+00 -0.25935446530E+01  0.42365382381E+01  0.00000000000E+00 0. -1.
</event>
<event>
 7    1  0.2500839E-011  0.5052886E+02  0.7816164E-02  0.1300439E+00
        -11   -1    0    0    0    0  0.00000000000E+00  0.00000000000E+00  0.45593999997E+02  0.45594000000E+02  0.51100000000E-03 0. -1.
         11   -1    0    0    0    0 -0.00000000000E+00 -0.00000000000E+00 -0.45593999997E+02  0.45594000000E+02  0.51100000000E-03 0.  1.
    9900012    2    1    2    0    0 -0.37563060094E+02  0.49378910136E+00  0.15554361432E+02  0.50528862394E+02  0.30000007733E+02 0.  0.
         12    1    1    2    0    0  0.37563060094E+02 -0.49378910136E+00 -0.15554361432E+02  0.40659137606E+02  0.00000000000E+00 0. -1.
         11    1    3    3    0    0 -0.12401448015E+01  0.61195737500E+01  0.69074759774E+01  0.93113031660E+01  0.51100000000E-03 0. -1.
        -11    1    3    3    0    0 -0.11089987939E+02 -0.91821034020E+01  0.60003975016E+01  0.15598193030E+02  0.51100000000E-03 0.  1.
        -12    1    3    3    0    0 -0.25232927353E+02  0.35563187533E+01  0.26464879534E+01  0.25619366198E+02  0.00000000000E+00 0.  1.
</event>
<event>
 7    1  0.2500839E-011  0.5052887E+02  0.7816164E-02  0.1300439E+00
        -11   -1    0    0    0    0  0.00000000000E+00  0.00000000000E+00  0.45593999997E+02  0.45594000000E+02  0.51100000000E-03 0.  1.
         11   -1    0    0    0    0 -0.00000000000E+00 -0.00000000000E+00 -0.45593999997E+02  0.45594000000E+02  0.51100000000E-03 0. -1.
    9900012    2    1    2    0    0  0.16134106936E+02 -0.67020708857E+01  0.36714274648E+02  0.50528866663E+02  0.30000020709E+02 0.  0.
         12    1    1    2    0    0 -0.16134106936E+02  0.67020708857E+01 -0.36714274648E+02  0.40659133337E+02  0.00000000000E+00 0. -1.
         11    1    3    3    0    0  0.37713353599E+01 -0.11651248404E+01 -0.25021306201E+01  0.46734509939E+01  0.51100000000E-03 0. -1.
        -11    1    3    3    0    0  0.33105999298E+01  0.71306335893E+01  0.16962457971E+02  0.18695747858E+02  0.51100000000E-03 0.  1.
         12    1    3    3    0    0  0.90521716467E+01 -0.12667579635E+02  0.22253947297E+02  0.27159667811E+02  0.00000000000E+00 0. -1.
</event>
<event>
 7    1  0.2500839E-011  0.5052886E+02  0.7816164E-02  0.1300439E+00
        -11   -1    0    0    0    0  0.00000000000E+00  0.00000000000E+00  0.45593999997E+02  0.45594000000E+02  0.51100000000E-03 0. -1.
         11   -1    0    0    0    0 -0.00000000000E+00 -0.00000000000E+00 -0.45593999997E+02  0.45594000000E+02  0.51100000000E-03 0.  1.
    9900012    2    1    2    0    0  0.11408698785E+02  0.27247003147E+02 -0.27939357636E+02  0.50528864574E+02  0.30000014359E+02 0.  0.
         12    1    1    2    0    0 -0.11408698785E+02 -0.27247003147E+02  0.27939357636E+02  0.40659135426E+02  0.00000000000E+00 0. -1.
         11    1    3    3    0    0  0.52083316660E+01  0.20861757560E+01  0.20047719804E+01  0.59580163631E+01  0.51100000000E-03 0. -1.
        -11    1    3    3    0    0 -0.67243880195E+01  0.12760346498E+02 -0.89528635770E+01  0.16976383699E+02  0.51100000000E-03 0.  1.
        -12    1    3    3    0    0  0.12924755139E+02  0.12400480893E+02 -0.20991266039E+02  0.27594464512E+02  0.00000000000E+00 0.  1.
</event>
<event>
 7    1  0.2500839E-011  0.5052886E+02  0.7816164E-02  0.1300439E+00
        -11   -1    0    0    0    0  0.00000000000E+00  0.00000000000E+00  0.45593999997E+02  0.45594000000E+02  0.51100000000E-03 0. -1.
         11   -1    0    0    0    0 -0.00000000000E+00 -0.00000000000E+00 -0.45593999997E+02  0.45594000000E+02  0.51100000000E-03 0.  1.
    9900012    2    1    2    0    0 -0.92580530253E+01  0.39424426024E+02 -0.36289063550E+01  0.50528857430E+02  0.29999992645E+02 0.  0.
         12    1    1    2    0    0  0.92580530253E+01 -0.39424426024E+02  0.36289063550E+01  0.40659142570E+02  0.00000000000E+00 0. -1.
         11    1    3    3    0    0 -0.17752683260E+02  0.26749553819E+02 -0.13018913461E+01  0.32130846764E+02  0.51100000000E-03 0. -1.
        -11    1    3    3    0    0 -0.29331073270E+00 -0.15082421208E+01  0.88705069537E-01  0.15390563120E+01  0.51100000000E-03 0.  1.
        -12    1    3    3    0    0  0.87879409670E+01  0.14183114326E+02 -0.24157200784E+01  0.16858954354E+02  0.00000000000E+00 0.  1.
</event>
<event>
 7    1  0.2500839E-011  0.5052885E+02  0.7816164E-02  0.1300439E+00
        -11   -1    0    0    0    0  0.00000000000E+00  0.00000000000E+00  0.45593999997E+02  0.45594000000E+02  0.51100000000E-03 0.  1.
         11   -1    0    0    0    0 -0.00000000000E+00 -0.00000000000E+00 -0.45593999997E+02  0.45594000000E+02  0.51100000000E-03 0. -1.
    9900012    2    1    2    0    0 -0.18670281171E+01 -0.38302722540E+02  0.13512291675E+02  0.50528851285E+02  0.29999973965E+02 0.  0.
         12    1    1    2    0    0  0.18670281171E+01  0.38302722540E+02 -0.13512291675E+02  0.40659148715E+02  0.00000000000E+00 0. -1.
         11    1    3    3    0    0 -0.66246861343E+01 -0.13967917991E+02 -0.37064921916E+01  0.15897398656E+02  0.51100000000E-03 0.  1.
        -11    1    3    3    0    0  0.43204011535E+01 -0.19148351448E+02  0.34747263350E+01  0.19934867761E+02  0.51100000000E-03 0. -1.
        -12    1    3    3    0    0  0.43725686376E+00 -0.51864531003E+01  0.13744057532E+02  0.14696584868E+02  0.00000000000E+00 0.  1.
</event>
<event>
 7    1  0.2500839E-011  0.5052886E+02  0.7816164E-02  0.1300439E+00
        -11   -1    0    0    0    0  0.00000000000E+00  0.00000000000E+00  0.45593999997E+02  0.45594000000E+02  0.51100000000E-03 0. -1.
         11   -1    0    0    0    0 -0.00000000000E+00 -0.00000000000E+00 -0.45593999997E+02  0.45594000000E+02  0.51100000000E-03 0.  1.
    9900012    2    1    2    0    0 -0.30849972558E+02  0.46742364586E+01 -0.26069073680E+02  0.50528857168E+02  0.29999991849E+02 0.  0.
         12    1    1    2    0    0  0.30849972558E+02 -0.46742364586E+01  0.26069073680E+02  0.40659142832E+02  0.00000000000E+00 0. -1.
         11    1    3    3    0    0 -0.97587600648E+01 -0.20956375441E+01 -0.19363283451E+02  0.21784440341E+02  0.51100000000E-03 0. -1.
        -11    1    3    3    0    0 -0.58955793269E+01 -0.57251803188E+01 -0.28410178962E+01  0.86952244497E+01  0.51100000000E-03 0.  1.
        -12    1    3    3    0    0 -0.15195633166E+02  0.12495054322E+02 -0.38647723330E+01  0.20049192378E+02  0.00000000000E+00 0.  1.
</event>
<event>
 7    1  0.2500839E-011  0.5052887E+02  0.7816164E-02  0.1300439E+00
        -11   -1    0    0    0    0  0.00000000000E+00  0.00000000000E+00  0.45593999997E+02  0.45594000000E+02  0.51100000000E-03 0.  1.
         11   -1    0    0    0    0 -0.00000000000E+00 -0.00000000000E+00 -0.45593999997E+02  0.45594000000E+02  0.51100000000E-03 0. -1.
    9900012    2    1    2    0    0  0.35713725611E+02 -0.19330786260E+02 -0.20037681926E+01  0.50528873332E+02  0.30000040981E+02 0.  0.
         12    1    1    2    0    0 -0.35713725611E+02  0.19330786260E+02  0.20037681926E+01  0.40659126668E+02  0.00000000000E+00 0. -1.
         11    1    3    3    0    0  0.17618375444E+02 -0.13248802862E+02 -0.13016505070E+02  0.25600143263E+02  0.51100000000E-03 0. -1.
        -11    1    3    3    0    0  0.12587497698E+02  0.14787215097E+01  0.41826990126E+01  0.13346411012E+02  0.51100000000E-03 0.  1.
        -12    1    3    3    0    0  0.55078524685E+01 -0.75607049082E+01  0.68300378651E+01  0.11582319058E+02  0.00000000000E+00 0.  1.
</event>
<event>
 7    1  0.2500839E-011  0.5052885E+02  0.7816164E-02  0.1300439E+00
        -11   -1    0    0    0    0  0.00000000000E+00  0.00000000000E+00  0.45593999997E+02  0.45594000000E+02  0.51100000000E-03 0.  1.
         11   -1    0    0    0    0 -0.00000000000E+00 -0.00000000000E+00 -0.45593999997E+02  0.45594000000E+02  0.51100000000E-03 0. -1.
    9900012    2    1    2    0    0  0.22868303935E+02  0.33029592037E+02  0.62652534707E+01  0.50528847574E+02  0.29999962685E+02 0.  0.
         12    1    1    2    0    0 -0.22868303935E+02 -0.33029592037E+02 -0.62652534707E+01  0.40659152426E+02  0.00000000000E+00 0. -1.
         11    1    3    3    0    0 -0.15253899742E+01  0.19668374207E+01  0.69626289475E+01  0.73941508055E+01  0.51100000000E-03 0. -1.
        -11    1    3    3    0    0  0.11795808786E+02  0.44370078329E+01  0.41802489371E+01  0.13277899866E+02  0.51100000000E-03 0.  1.
         12    1    3    3    0    0  0.12597885123E+02  0.26625746783E+02 -0.48776244138E+01  0.29856796902E+02  0.00000000000E+00 0. -1.
</event>
<event>
 7    1  0.2500839E-011  0.5052889E+02  0.7816164E-02  0.1300439E+00
        -11   -1    0    0    0    0  0.00000000000E+00  0.00000000000E+00  0.45593999997E+02  0.45594000000E+02  0.51100000000E-03 0. -1.
         11   -1    0    0    0    0 -0.00000000000E+00 -0.00000000000E+00 -0.45593999997E+02  0.45594000000E+02  0.51100000000E-03 0.  1.
    9900012    2    1    2    0    0 -0.76493134172E+01 -0.24115938029E+02 -0.31828806080E+02  0.50528888361E+02  0.30000086663E+02 0.  0.
         12    1    1    2    0    0  0.76493134172E+01  0.24115938029E+02  0.31828806080E+02  0.40659111639E+02  0.00000000000E+00 0. -1.
         11    1    3    3    0    0  0.41530803972E+01 -0.13648043713E+02 -0.25849805547E+02  0.29525067673E+02  0.51100000000E-03 0.  1.
        -11    1    3    3    0    0  0.20469654853E+01 -0.35407628872E+01  0.68282594328E+00  0.41464829737E+01  0.51100000000E-03 0. -1.
         12    1    3    3    0    0 -0.13849359300E+02 -0.69271314289E+01 -0.66618264759E+01  0.16857337715E+02  0.00000000000E+00 0. -1.
</event>
<event>
 7    1  0.2500839E-011  0.5052886E+02  0.7816164E-02  0.1300439E+00
        -11   -1    0    0    0    0  0.00000000000E+00  0.00000000000E+00  0.45593999997E+02  0.45594000000E+02  0.51100000000E-03 0. -1.
         11   -1    0    0    0    0 -0.00000000000E+00 -0.00000000000E+00 -0.45593999997E+02  0.45594000000E+02  0.51100000000E-03 0.  1.
    9900012    2    1    2    0    0 -0.19775454876E+02  0.22659361057E+02 -0.27361482428E+02  0.50528856136E+02  0.29999988712E+02 0.  0.
         12    1    1    2    0    0  0.19775454876E+02 -0.22659361057E+02  0.27361482428E+02  0.40659143864E+02  0.00000000000E+00 0. -1.
         11    1    3    3    0    0 -0.27131233577E+01  0.44940482245E+00 -0.18619006325E+02  0.18821009533E+02  0.51100000000E-03 0. -1.
        -11    1    3    3    0    0 -0.12063362801E+02  0.90543725205E+01 -0.91260571429E+01  0.17629274036E+02  0.51100000000E-03 0.  1.
         12    1    3    3    0    0 -0.49989687168E+01  0.13155583715E+02  0.38358104049E+00  0.14078572567E+02  0.00000000000E+00 0. -1.
</event>
<event>
 7    1  0.2500839E-011  0.5052886E+02  0.7816164E-02  0.1300439E+00
        -11   -1    0    0    0    0  0.00000000000E+00  0.00000000000E+00  0.45593999997E+02  0.45594000000E+02  0.51100000000E-03 0.  1.
         11   -1    0    0    0    0 -0.00000000000E+00 -0.00000000000E+00 -0.45593999997E+02  0.45594000000E+02  0.51100000000E-03 0. -1.
    9900012    2    1    2    0    0 -0.18130613753E+02 -0.26554168387E+02  0.24886187101E+02  0.50528864222E+02  0.30000013288E+02 0.  0.
         12    1    1    2    0    0  0.18130613753E+02  0.26554168387E+02 -0.24886187101E+02  0.40659135778E+02  0.00000000000E+00 0. -1.
         11    1    3    3    0    0 -0.20100052880E+01 -0.88403630510E+01  0.27556921825E+01  0.94755464115E+01  0.51100000000E-03 0. -1.
        -11    1    3    3    0    0 -0.80675065508E+01 -0.23353468243E+02  0.16694843527E+02  0.29819237777E+02  0.51100000000E-03 0.  1.
        -12    1    3    3    0    0 -0.80531019145E+01  0.56396629069E+01  0.54356513910E+01  0.11234080033E+02  0.00000000000E+00 0.  1.
</event>
<event>
 7    1  0.2500839E-011  0.5052885E+02  0.7816164E-02  0.1300439E+00
        -11   -1    0    0    0    0  0.00000000000E+00  0.00000000000E+00  0.45593999997E+02  0.45594000000E+02  0.51100000000E-03 0. -1.
         11   -1    0    0    0    0 -0.00000000000E+00 -0.00000000000E+00 -0.45593999997E+02  0.45594000000E+02  0.51100000000E-03 0.  1.
    9900012    2    1    2    0    0  0.35609809374E+02  0.14165851896E+02 -0.13580733786E+02  0.50528853258E+02  0.29999979963E+02 0.  0.
         12    1    1    2    0    0 -0.35609809374E+02 -0.14165851896E+02  0.13580733786E+02  0.40659146742E+02  0.00000000000E+00 0. -1.
         11    1    3    3    0    0  0.19047184846E+02 -0.23867972975E+01 -0.27065724316E+01  0.19386015230E+02  0.51100000000E-03 0. -1.
        -11    1    3    3    0    0  0.14233432184E+02  0.20752444531E+01 -0.68822277443E+01  0.15945604105E+02  0.51100000000E-03 0.  1.
         12    1    3    3    0    0  0.23291923445E+01  0.14477404740E+02 -0.39919336102E+01  0.15197233924E+02  0.00000000000E+00 0. -1.
</event>
<event>
 7    1  0.2500839E-011  0.5052885E+02  0.7816164E-02  0.1300439E+00
        -11   -1    0    0    0    0  0.00000000000E+00  0.00000000000E+00  0.45593999997E+02  0.45594000000E+02  0.51100000000E-03 0. -1.
         11   -1    0    0    0    0 -0.00000000000E+00 -0.00000000000E+00 -0.45593999997E+02  0.45594000000E+02  0.51100000000E-03 0.  1.
    9900012    2    1    2    0    0 -0.57023485393E+01  0.39098988578E+02 -0.95874304218E+01  0.50528849630E+02  0.29999968936E+02 0.  0.
         12    1    1    2    0    0  0.57023485393E+01 -0.39098988578E+02  0.95874304218E+01  0.40659150370E+02  0.00000000000E+00 0. -1.
         11    1    3    3    0    0 -0.11463465711E+02  0.16405980406E+02 -0.33402147099E+01  0.20290989966E+02  0.51100000000E-03 0. -1.
        -11    1    3    3    0    0  0.24388436133E+01  0.15086352061E+02 -0.12582750635E+02  0.19795746777E+02  0.51100000000E-03 0.  1.
         12    1    3    3    0    0  0.33222735588E+01  0.76066561111E+01  0.63355349229E+01  0.10442112887E+02  0.00000000000E+00 0. -1.
</event>
<event>
 7    1  0.2500839E-011  0.5052886E+02  0.7816164E-02  0.1300439E+00
        -11   -1    0    0    0    0  0.00000000000E+00  0.00000000000E+00  0.45593999997E+02  0.45594000000E+02  0.51100000000E-03 0. -1.
         11   -1    0    0    0    0 -0.00000000000E+00 -0.00000000000E+00 -0.45593999997E+02  0.45594000000E+02  0.51100000000E-03 0.  1.
    9900012    2    1    2    0    0  0.14298193510E+02  0.25115471044E+02  0.28599659360E+02  0.50528859098E+02  0.29999997713E+02 0.  0.
         12    1    1    2    0    0 -0.14298193510E+02 -0.25115471044E+02 -0.28599659360E+02  0.40659140902E+02  0.00000000000E+00 0. -1.
         11    1    3    3    0    0  0.65955585664E+01  0.19928587307E+01  0.14399570953E+02  0.15963098779E+02  0.51100000000E-03 0. -1.
        -11    1    3    3    0    0 -0.60388248673E+01  0.39275688237E+01  0.65885223540E+01  0.97622656035E+01  0.51100000000E-03 0.  1.
         12    1    3    3    0    0  0.13741459811E+02  0.19195043490E+02  0.76115660523E+01  0.24803494715E+02  0.00000000000E+00 0. -1.
</event>
<event>
 7    1  0.2500839E-011  0.5052886E+02  0.7816164E-02  0.1300439E+00
        -11   -1    0    0    0    0  0.00000000000E+00  0.00000000000E+00  0.45593999997E+02  0.45594000000E+02  0.51100000000E-03 0.  1.
         11   -1    0    0    0    0 -0.00000000000E+00 -0.00000000000E+00 -0.45593999997E+02  0.45594000000E+02  0.51100000000E-03 0. -1.
    9900012    2    1    2    0    0  0.25367492501E+02 -0.21677869844E+01  0.31701058062E+02  0.50528855168E+02  0.29999985770E+02 0.  0.
         12    1    1    2    0    0 -0.25367492501E+02  0.21677869844E+01 -0.31701058062E+02  0.40659144832E+02  0.00000000000E+00 0. -1.
         11    1    3    3    0    0  0.65248479243E+01  0.19367832680E+01 -0.27802645553E+01  0.73521861457E+01  0.51100000000E-03 0. -1.
        -11    1    3    3    0    0  0.16924566970E+01  0.53814727867E+01  0.12577091991E+02  0.13784335393E+02  0.51100000000E-03 0.  1.
         12    1    3    3    0    0  0.17150187880E+02 -0.94860430391E+01  0.21904230627E+02  0.29392333630E+02  0.00000000000E+00 0. -1.
</event>
<event>
 7    1  0.2500839E-011  0.5052887E+02  0.7816164E-02  0.1300439E+00
        -11   -1    0    0    0    0  0.00000000000E+00  0.00000000000E+00  0.45593999997E+02  0.45594000000E+02  0.51100000000E-03 0.  1.
         11   -1    0    0    0    0 -0.00000000000E+00 -0.00000000000E+00 -0.45593999997E+02  0.45594000000E+02  0.51100000000E-03 0. -1.
    9900012    2    1    2    0    0 -0.80792488695E+01 -0.18811837555E+02  0.35128413747E+02  0.50528868838E+02  0.30000027320E+02 0.  0.
         12    1    1    2    0    0  0.80792488695E+01  0.18811837555E+02 -0.35128413747E+02  0.40659131162E+02  0.00000000000E+00 0. -1.
         11    1    3    3    0    0 -0.24379078379E+01 -0.64108814389E+01 -0.34540199063E+01  0.76793912014E+01  0.51100000000E-03 0. -1.
        -11    1    3    3    0    0 -0.27514985551E+01 -0.86934884376E+01  0.87117563679E+01  0.12611192838E+02  0.51100000000E-03 0.  1.
        -12    1    3    3    0    0 -0.28898424765E+01 -0.37074676784E+01  0.29870677285E+02  0.30238284799E+02  0.00000000000E+00 0.  1.
</event>
<event>
 7    1  0.2500839E-011  0.5052892E+02  0.7816164E-02  0.1300439E+00
        -11   -1    0    0    0    0  0.00000000000E+00  0.00000000000E+00  0.45593999997E+02  0.45594000000E+02  0.51100000000E-03 0.  1.
         11   -1    0    0    0    0 -0.00000000000E+00 -0.00000000000E+00 -0.45593999997E+02  0.45594000000E+02  0.51100000000E-03 0. -1.
    9900012    2    1    2    0    0 -0.92119764182E+01  0.15414637604E+02  0.36478611228E+02  0.50528921812E+02  0.30000188340E+02 0.  0.
         12    1    1    2    0    0  0.92119764182E+01 -0.15414637604E+02 -0.36478611228E+02  0.40659078188E+02  0.00000000000E+00 0. -1.
         11    1    3    3    0    0 -0.34033890679E+01  0.81762749211E+01  0.22355370128E+02  0.24045729404E+02  0.51100000000E-03 0. -1.
        -11    1    3    3    0    0  0.10605009326E+01 -0.56171053500E+01  0.96862794156E+01  0.11247246059E+02  0.51100000000E-03 0.  1.
         12    1    3    3    0    0 -0.68690882829E+01  0.12855468032E+02  0.44369616840E+01  0.15235946349E+02  0.00000000000E+00 0. -1.
</event>
<event>
 7    1  0.2500839E-011  0.5052885E+02  0.7816164E-02  0.1300439E+00
        -11   -1    0    0    0    0  0.00000000000E+00  0.00000000000E+00  0.45593999997E+02  0.45594000000E+02  0.51100000000E-03 0.  1.
         11   -1    0    0    0    0 -0.00000000000E+00 -0.00000000000E+00 -0.45593999997E+02  0.45594000000E+02  0.51100000000E-03 0. -1.
    9900012    2    1    2    0    0 -0.10134131301E+02 -0.35699790921E+02  0.16612969043E+02  0.50528850605E+02  0.29999971900E+02 0.  0.
         12    1    1    2    0    0  0.10134131301E+02  0.35699790921E+02 -0.16612969043E+02  0.40659149395E+02  0.00000000000E+00 0. -1.
         11    1    3    3    0    0 -0.71510520399E+01  0.16391217675E+01  0.43706288654E+01  0.85397109076E+01  0.51100000000E-03 0. -1.
        -11    1    3    3    0    0 -0.80896490871E+01 -0.13341590953E+02  0.55196018547E+01  0.16550120133E+02  0.51100000000E-03 0.  1.
        -12    1    3    3    0    0  0.51065698255E+01 -0.23997321736E+02  0.67227383227E+01  0.25439019565E+02  0.00000000000E+00 0.  1.
</event>
<event>
 7    1  0.2500839E-011  0.5052887E+02  0.7816164E-02  0.1300439E+00
        -11   -1    0    0    0    0  0.00000000000E+00  0.00000000000E+00  0.45593999997E+02  0.45594000000E+02  0.51100000000E-03 0.  1.
         11   -1    0    0    0    0 -0.00000000000E+00 -0.00000000000E+00 -0.45593999997E+02  0.45594000000E+02  0.51100000000E-03 0. -1.
    9900012    2    1    2    0    0  0.49071614694E+01  0.40299187643E+02  0.22495207315E+01  0.50528866931E+02  0.30000021523E+02 0.  0.
         12    1    1    2    0    0 -0.49071614694E+01 -0.40299187643E+02 -0.22495207315E+01  0.40659133069E+02  0.00000000000E+00 0. -1.
         11    1    3    3    0    0  0.30520843372E+01  0.21011510190E+02 -0.70851012055E+01  0.22382972068E+02  0.51100000000E-03 0. -1.
        -11    1    3    3    0    0 -0.21888868694E+01 -0.30747602218E+01  0.71784411715E+00  0.38419625957E+01  0.51100000000E-03 0.  1.
         12    1    3    3    0    0  0.40439640016E+01  0.22362437675E+02  0.86167778199E+01  0.24303932267E+02  0.00000000000E+00 0. -1.
</event>
<event>
 7    1  0.2500839E-011  0.5052886E+02  0.7816164E-02  0.1300439E+00
        -11   -1    0    0    0    0  0.00000000000E+00  0.00000000000E+00  0.45593999997E+02  0.45594000000E+02  0.51100000000E-03 0.  1.
         11   -1    0    0    0    0 -0.00000000000E+00 -0.00000000000E+00 -0.45593999997E+02  0.45594000000E+02  0.51100000000E-03 0. -1.
    9900012    2    1    2    0    0 -0.27481529824E+02  0.10994698921E+02  0.27875579303E+02  0.50528858257E+02  0.29999995157E+02 0.  0.
         12    1    1    2    0    0  0.27481529824E+02 -0.10994698921E+02 -0.27875579303E+02  0.40659141743E+02  0.00000000000E+00 0. -1.
         11    1    3    3    0    0 -0.13980536006E+02  0.70533682290E+01 -0.96280266300E+00  0.15688606682E+02  0.51100000000E-03 0. -1.
        -11    1    3    3    0    0 -0.23156471107E+01  0.44801979488E+01  0.14447596905E+01  0.52461153272E+01  0.51100000000E-03 0.  1.
        -12    1    3    3    0    0 -0.11185346707E+02 -0.53886725651E+00  0.27393622276E+02  0.29594136248E+02  0.00000000000E+00 0.  1.
</event>
<event>
 7    1  0.2500839E-011  0.5052882E+02  0.7816164E-02  0.1300439E+00
        -11   -1    0    0    0    0  0.00000000000E+00  0.00000000000E+00  0.45593999997E+02  0.45594000000E+02  0.51100000000E-03 0.  1.
         11   -1    0    0    0    0 -0.00000000000E+00 -0.00000000000E+00 -0.45593999997E+02  0.45594000000E+02  0.51100000000E-03 0. -1.
    9900012    2    1    2    0    0 -0.25050188930E+02  0.15159196197E+02  0.28210913298E+02  0.50528821161E+02  0.29999882400E+02 0.  0.
         12    1    1    2    0    0  0.25050188930E+02 -0.15159196197E+02 -0.28210913298E+02  0.40659178839E+02  0.00000000000E+00 0. -1.
         11    1    3    3    0    0 -0.27658106468E+01  0.11234554269E+02  0.18473107149E+02  0.21797261437E+02  0.51100000000E-03 0. -1.
        -11    1    3    3    0    0 -0.40400968186E+01  0.33293701341E+01  0.90614599617E+01  0.10465043941E+02  0.51100000000E-03 0.  1.
        -12    1    3    3    0    0 -0.18244281465E+02  0.59527179435E+00  0.67634618767E+00  0.18266515783E+02  0.00000000000E+00 0.  1.
</event>
<event>
 7    1  0.2500839E-011  0.5052886E+02  0.7816164E-02  0.1300439E+00
        -11   -1    0    0    0    0  0.00000000000E+00  0.00000000000E+00  0.45593999997E+02  0.45594000000E+02  0.51100000000E-03 0.  1.
         11   -1    0    0    0    0 -0.00000000000E+00 -0.00000000000E+00 -0.45593999997E+02  0.45594000000E+02  0.51100000000E-03 0. -1.
    9900012    2    1    2    0    0 -0.88080137045E+01 -0.15431206058E+02  0.36571328742E+02  0.50528864351E+02  0.30000013680E+02 0.  0.
         12    1    1    2    0    0  0.88080137045E+01  0.15431206058E+02 -0.36571328742E+02  0.40659135649E+02  0.00000000000E+00 0. -1.
         11    1    3    3    0    0 -0.36878623111E+01 -0.65706983544E+01  0.67473858337E+00  0.75650299211E+01  0.51100000000E-03 0. -1.
        -11    1    3    3    0    0  0.19921088259E+01 -0.57816567834E+01 -0.12645313193E+00  0.61165385138E+01  0.51100000000E-03 0.  1.
        -12    1    3    3    0    0 -0.71122602193E+01 -0.30788509207E+01  0.36023043290E+02  0.36847295916E+02  0.00000000000E+00 0.  1.
</event>
<event>
 7    1  0.2500839E-011  0.5052886E+02  0.7816164E-02  0.1300439E+00
        -11   -1    0    0    0    0  0.00000000000E+00  0.00000000000E+00  0.45593999997E+02  0.45594000000E+02  0.51100000000E-03 0.  1.
         11   -1    0    0    0    0 -0.00000000000E+00 -0.00000000000E+00 -0.45593999997E+02  0.45594000000E+02  0.51100000000E-03 0. -1.
    9900012    2    1    2    0    0 -0.25873930106E+02  0.13886111342E+01  0.31333324377E+02  0.50528859373E+02  0.29999998550E+02 0.  0.
         12    1    1    2    0    0  0.25873930106E+02 -0.13886111342E+01 -0.31333324377E+02  0.40659140627E+02  0.00000000000E+00 0. -1.
         11    1    3    3    0    0 -0.18684025087E+01 -0.64537817085E+01  0.18867432906E+02  0.20028036624E+02  0.51100000000E-03 0. -1.
        -11    1    3    3    0    0 -0.75224085630E+01  0.28216536131E+01  0.10407058530E+02  0.13147441851E+02  0.51100000000E-03 0.  1.
         12    1    3    3    0    0 -0.16483119035E+02  0.50207392297E+01  0.20588329402E+01  0.17353380898E+02  0.00000000000E+00 0. -1.
</event>
<event>
 7    1 -0.2500839E-011  0.5052887E+02  0.7816164E-02  0.1300439E+00
        -11   -1    0    0    0    0  0.00000000000E+00  0.00000000000E+00  0.45593999997E+02  0.45594000000E+02  0.51100000000E-03 0.  1.
         11   -1    0    0    0    0 -0.00000000000E+00 -0.00000000000E+00 -0.45593999997E+02  0.45594000000E+02  0.51100000000E-03 0. -1.
    9900012    2    1    2    0    0 -0.10272138428E+02 -0.77216628585E+01  0.38574917112E+02  0.50528866520E+02  0.30000020273E+02 0.  0.
         12    1    1    2    0    0  0.10272138428E+02  0.77216628585E+01 -0.38574917112E+02  0.40659133480E+02  0.00000000000E+00 0. -1.
         11    1    3    3    0    0  0.59483866209E+01  0.10102191228E+01  0.81662603294E+01  0.10153406034E+02  0.51100000000E-03 0. -1.
        -11    1    3    3    0    0 -0.17033435835E+01  0.28465807224E+01  0.17374850136E+02  0.17688691831E+02  0.51100000000E-03 0.  1.
         12    1    3    3    0    0 -0.14517181466E+02 -0.11578462704E+02  0.13033806646E+02  0.22686768654E+02  0.00000000000E+00 0. -1.
</event>
<event>
 7    1  0.3062253E-011  0.5052886E+02  0.7816164E-02  0.1300439E+00
        -11   -1    0    0    0    0  0.00000000000E+00  0.00000000000E+00  0.45593999997E+02  0.45594000000E+02  0.51100000000E-03 0.  1.
         11   -1    0    0    0    0 -0.00000000000E+00 -0.00000000000E+00 -0.45593999997E+02  0.45594000000E+02  0.51100000000E-03 0. -1.
    9900012    2    1    2    0    0  0.31573958324E+02  0.25617203546E+02  0.97514392469E-01  0.50528862394E+02  0.30000007734E+02 0.  0.
         12    1    1    2    0    0 -0.31573958324E+02 -0.25617203546E+02 -0.97514392469E-01  0.40659137606E+02  0.00000000000E+00 0. -1.
         11    1    3    3    0    0 -0.10062741831E+01 -0.32872927351E+01 -0.20909906814E+01  0.40238195223E+01  0.51100000000E-03 0. -1.
        -11    1    3    3    0    0  0.13082428008E+02  0.51650436924E+01  0.64809984355E+01  0.15486476033E+02  0.51100000000E-03 0.  1.
        -12    1    3    3    0    0  0.19497804499E+02  0.23739452589E+02 -0.42924933616E+01  0.31018566839E+02  0.00000000000E+00 0.  1.
</event>
<event>
 7    1  0.2500839E-011  0.5052885E+02  0.7816164E-02  0.1300439E+00
        -11   -1    0    0    0    0  0.00000000000E+00  0.00000000000E+00  0.45593999997E+02  0.45594000000E+02  0.51100000000E-03 0.  1.
         11   -1    0    0    0    0 -0.00000000000E+00 -0.00000000000E+00 -0.45593999997E+02  0.45594000000E+02  0.51100000000E-03 0. -1.
    9900012    2    1    2    0    0  0.31573364304E+02 -0.16005139101E+01  0.25568090532E+02  0.50528853038E+02  0.29999979293E+02 0.  0.
         12    1    1    2    0    0 -0.31573364304E+02  0.16005139101E+01 -0.25568090532E+02  0.40659146962E+02  0.00000000000E+00 0. -1.
         11    1    3    3    0    0  0.92100591043E+01 -0.20981117999E+01 -0.33497537843E+01  0.10022380581E+02  0.51100000000E-03 0. -1.
        -11    1    3    3    0    0  0.15242287734E+02 -0.79304160309E+01  0.15554405678E+02  0.23176677287E+02  0.51100000000E-03 0.  1.
        -12    1    3    3    0    0  0.71210174653E+01  0.84280139207E+01  0.13363438639E+02  0.17329795170E+02  0.00000000000E+00 0.  1.
</event>
<event>
 7    1  0.2500839E-011  0.5052884E+02  0.7816164E-02  0.1300439E+00
        -11   -1    0    0    0    0  0.00000000000E+00  0.00000000000E+00  0.45593999997E+02  0.45594000000E+02  0.51100000000E-03 0.  1.
         11   -1    0    0    0    0 -0.00000000000E+00 -0.00000000000E+00 -0.45593999997E+02  0.45594000000E+02  0.51100000000E-03 0. -1.
    9900012    2    1    2    0    0 -0.12606762156E+02  0.98459781147E+01  0.37380386418E+02  0.50528843272E+02  0.29999949610E+02 0.  0.
         12    1    1    2    0    0  0.12606762156E+02 -0.98459781147E+01 -0.37380386418E+02  0.40659156728E+02  0.00000000000E+00 0. -1.
         11    1    3    3    0    0  0.43250111587E+01  0.19419374881E+01  0.50731261570E+00  0.47680403817E+01  0.51100000000E-03 0. -1.
        -11    1    3    3    0    0 -0.70306678370E+01  0.99349539206E+00  0.14827858891E+00  0.71020637937E+01  0.51100000000E-03 0.  1.
         12    1    3    3    0    0 -0.99011054776E+01  0.69105452345E+01  0.36724795213E+02  0.38658739097E+02  0.00000000000E+00 0. -1.
</event>
<event>
 7    1  0.2500839E-011  0.5052886E+02  0.7816164E-02  0.1300439E+00
        -11   -1    0    0    0    0  0.00000000000E+00  0.00000000000E+00  0.45593999997E+02  0.45594000000E+02  0.51100000000E-03 0. -1.
         11   -1    0    0    0    0 -0.00000000000E+00 -0.00000000000E+00 -0.45593999997E+02  0.45594000000E+02  0.51100000000E-03 0.  1.
    9900012    2    1    2    0    0 -0.35513506080E+02 -0.15777893163E+02 -0.11958864226E+02  0.50528862524E+02  0.30000008127E+02 0.  0.
         12    1    1    2    0    0  0.35513506080E+02  0.15777893163E+02  0.11958864226E+02  0.40659137476E+02  0.00000000000E+00 0. -1.
         11    1    3    3    0    0 -0.10302357779E+02 -0.93014990357E+01  0.18786469108E+01  0.14006633236E+02  0.51100000000E-03 0. -1.
        -11    1    3    3    0    0  0.26339686595E+01 -0.22307972586E+01  0.22158849348E+01  0.41017549431E+01  0.51100000000E-03 0.  1.
        -12    1    3    3    0    0 -0.27845116960E+02 -0.42455968685E+01 -0.16053396072E+02  0.32420474345E+02  0.00000000000E+00 0.  1.
</event>
<event>
 7    1  0.2500839E-011  0.5052886E+02  0.7816164E-02  0.1300439E+00
        -11   -1    0    0    0    0  0.00000000000E+00  0.00000000000E+00  0.45593999997E+02  0.45594000000E+02  0.51100000000E-03 0.  1.
         11   -1    0    0    0    0 -0.00000000000E+00 -0.00000000000E+00 -0.45593999997E+02  0.45594000000E+02  0.51100000000E-03 0. -1.
    9900012    2    1    2    0    0  0.77995759880E+01  0.46007868102E+01  0.39637921382E+02  0.50528862819E+02  0.30000009023E+02 0.  0.
         12    1    1    2    0    0 -0.77995759880E+01 -0.46007868102E+01 -0.39637921382E+02  0.40659137181E+02  0.00000000000E+00 0. -1.
         11    1    3    3    0    0 -0.55889607348E+01 -0.55424658876E+01  0.71329390934E+01  0.10622345814E+02  0.51100000000E-03 0. -1.
        -11    1    3    3    0    0  0.16854034169E+02  0.83302435161E+01  0.23544309147E+02  0.30129485861E+02  0.51100000000E-03 0.  1.
         12    1    3    3    0    0 -0.34654974459E+01  0.18130091817E+01  0.89606731412E+01  0.97770311436E+01  0.00000000000E+00 0. -1.
</event>
<event>
 7    1  0.2500839E-011  0.5052885E+02  0.7816164E-02  0.1300439E+00
        -11   -1    0    0    0    0  0.00000000000E+00  0.00000000000E+00  0.45593999997E+02  0.45594000000E+02  0.51100000000E-03 0.  1.
         11   -1    0    0    0    0 -0.00000000000E+00 -0.00000000000E+00 -0.45593999997E+02  0.45594000000E+02  0.51100000000E-03 0. -1.
    9900012    2    1    2    0    0 -0.17926214099E+02 -0.18094047605E+02  0.31692632396E+02  0.50528847785E+02  0.29999963327E+02 0.  0.
         12    1    1    2    0    0  0.17926214099E+02  0.18094047605E+02 -0.31692632396E+02  0.40659152215E+02  0.00000000000E+00 0. -1.
         11    1    3    3    0    0 -0.26237094822E+01 -0.68507395201E+01  0.12389982046E+02  0.14398893665E+02  0.51100000000E-03 0. -1.
        -11    1    3    3    0    0 -0.21624986917E+02 -0.10225969791E+02  0.16907430606E+02  0.29292861371E+02  0.51100000000E-03 0.  1.
         12    1    3    3    0    0  0.63224822999E+01 -0.10173382943E+01  0.23952197439E+01  0.68370927491E+01  0.00000000000E+00 0. -1.
</event>
<event>
 7    1  0.2500839E-011  0.5052885E+02  0.7816164E-02  0.1300439E+00
        -11   -1    0    0    0    0  0.00000000000E+00  0.00000000000E+00  0.45593999997E+02  0.45594000000E+02  0.51100000000E-03 0.  1.
         11   -1    0    0    0    0 -0.00000000000E+00 -0.00000000000E+00 -0.45593999997E+02  0.45594000000E+02  0.51100000000E-03 0. -1.
    9900012    2    1    2    0    0  0.18865239175E+02 -0.10370129830E+02  0.34492452408E+02  0.50528854473E+02  0.29999983657E+02 0.  0.
         12    1    1    2    0    0 -0.18865239175E+02  0.10370129830E+02 -0.34492452408E+02  0.40659145527E+02  0.00000000000E+00 0. -1.
         11    1    3    3    0    0 -0.51040890249E+01 -0.31289131067E+01  0.24857393822E+01  0.64823392800E+01  0.51100000000E-03 0. -1.
        -11    1    3    3    0    0  0.92643682428E+01  0.52188140146E+01  0.14700194280E+02  0.18142774065E+02  0.51100000000E-03 0.  1.
        -12    1    3    3    0    0  0.14704959957E+02 -0.12460030738E+02  0.17306518746E+02  0.25903741128E+02  0.00000000000E+00 0.  1.
</event>
<event>
 7    1  0.2500839E-011  0.5052889E+02  0.7816164E-02  0.1300439E+00
        -11   -1    0    0    0    0  0.00000000000E+00  0.00000000000E+00  0.45593999997E+02  0.45594000000E+02  0.51100000000E-03 0.  1.
         11   -1    0    0    0    0 -0.00000000000E+00 -0.00000000000E+00 -0.45593999997E+02  0.45594000000E+02  0.51100000000E-03 0. -1.
    9900012    2    1    2    0    0  0.23486103778E+02  0.15537811858E+02  0.29328189369E+02  0.50528888356E+02  0.30000086647E+02 0.  0.
         12    1    1    2    0    0 -0.23486103778E+02 -0.15537811858E+02 -0.29328189369E+02  0.40659111644E+02  0.00000000000E+00 0. -1.
         11    1    3    3    0    0  0.16545614307E+02  0.52757339783E+01  0.15510394115E+02  0.23284394939E+02  0.51100000000E-03 0.  1.
        -11    1    3    3    0    0  0.57822114356E+00  0.11670143465E+00 -0.49481250840E+01  0.49831617497E+01  0.51100000000E-03 0. -1.
         12    1    3    3    0    0  0.63622683272E+01  0.10145376445E+02  0.18765920338E+02  0.22261331667E+02  0.00000000000E+00 0. -1.
</event>
<event>
 7    1  0.2500839E-011  0.5052886E+02  0.7816164E-02  0.1300439E+00
        -11   -1    0    0    0    0  0.00000000000E+00  0.00000000000E+00  0.45593999997E+02  0.45594000000E+02  0.51100000000E-03 0. -1.
         11   -1    0    0    0    0 -0.00000000000E+00 -0.00000000000E+00 -0.45593999997E+02  0.45594000000E+02  0.51100000000E-03 0.  1.
    9900012    2    1    2    0    0 -0.32847498342E+02 -0.16547790271E+02 -0.17331423555E+02  0.50528858929E+02  0.29999997202E+02 0.  0.
         12    1    1    2    0    0  0.32847498342E+02  0.16547790271E+02  0.17331423555E+02  0.40659141071E+02  0.00000000000E+00 0. -1.
         11    1    3    3    0    0 -0.13961939114E+02 -0.56525660143E+01 -0.13371810353E+02  0.20141811209E+02  0.51100000000E-03 0.  1.
        -11    1    3    3    0    0  0.41898879906E+01 -0.43917387071E+01 -0.17170660831E+01  0.63079986081E+01  0.51100000000E-03 0. -1.
        -12    1    3    3    0    0 -0.23075447218E+02 -0.65034855495E+01 -0.22425471189E+01  0.24079049113E+02  0.00000000000E+00 0.  1.
</event>
<event>
 7    1  0.2500839E-011  0.5052887E+02  0.7816164E-02  0.1300439E+00
        -11   -1    0    0    0    0  0.00000000000E+00  0.00000000000E+00  0.45593999997E+02  0.45594000000E+02  0.51100000000E-03 0.  1.
         11   -1    0    0    0    0 -0.00000000000E+00 -0.00000000000E+00 -0.45593999997E+02  0.45594000000E+02  0.51100000000E-03 0. -1.
    9900012    2    1    2    0    0  0.48267618620E+01  0.13577311228E+02  0.38020049197E+02  0.50528866325E+02  0.30000019682E+02 0.  0.
         12    1    1    2    0    0 -0.48267618620E+01 -0.13577311228E+02 -0.38020049197E+02  0.40659133675E+02  0.00000000000E+00 0. -1.
         11    1    3    3    0    0 -0.36922812465E+01 -0.20277866281E+01  0.73257883172E+01  0.84505641316E+01  0.51100000000E-03 0. -1.
        -11    1    3    3    0    0 -0.28232874150E+01  0.13010425164E+02  0.26596481294E+02  0.29742476902E+02  0.51100000000E-03 0.  1.
         12    1    3    3    0    0  0.11342330523E+02  0.25946726926E+01  0.40977795851E+01  0.12335825291E+02  0.00000000000E+00 0. -1.
</event>
<event>
 7    1  0.2500839E-011  0.5052889E+02  0.7816164E-02  0.1300439E+00
        -11   -1    0    0    0    0  0.00000000000E+00  0.00000000000E+00  0.45593999997E+02  0.45594000000E+02  0.51100000000E-03 0. -1.
         11   -1    0    0    0    0 -0.00000000000E+00 -0.00000000000E+00 -0.45593999997E+02  0.45594000000E+02  0.51100000000E-03 0.  1.
    9900012    2    1    2    0    0  0.22861604509E+02 -0.23614843058E+02 -0.23934281953E+02  0.50528885081E+02  0.30000076693E+02 0.  0.
         12    1    1    2    0    0 -0.22861604509E+02  0.23614843058E+02  0.23934281953E+02  0.40659114919E+02  0.00000000000E+00 0. -1.
         11    1    3    3    0    0 -0.37570882194E+01 -0.13113286160E+02 -0.64878512145E+01  0.15105171282E+02  0.51100000000E-03 0. -1.
        -11    1    3    3    0    0  0.71045620251E+01 -0.77554112950E+01 -0.28400376145E+01  0.10894357248E+02  0.51100000000E-03 0.  1.
        -12    1    3    3    0    0  0.19514130703E+02 -0.27461456029E+01 -0.14606393124E+02  0.24529356552E+02  0.00000000000E+00 0.  1.
</event>
<event>
 7    1  0.2500839E-011  0.5052885E+02  0.7816164E-02  0.1300439E+00
        -11   -1    0    0    0    0  0.00000000000E+00  0.00000000000E+00  0.45593999997E+02  0.45594000000E+02  0.51100000000E-03 0.  1.
         11   -1    0    0    0    0 -0.00000000000E+00 -0.00000000000E+00 -0.45593999997E+02  0.45594000000E+02  0.51100000000E-03 0. -1.
    9900012    2    1    2    0    0 -0.21852645774E+02  0.76903200854E+01  0.33413877449E+02  0.50528851503E+02  0.29999974628E+02 0.  0.
         12    1    1    2    0    0  0.21852645774E+02 -0.76903200854E+01 -0.33413877449E+02  0.40659148497E+02  0.00000000000E+00 0. -1.
         11    1    3    3    0    0 -0.81499880980E+01 -0.15764863267E+01 -0.36571710221E+01  0.90709710220E+01  0.51100000000E-03 0. -1.
        -11    1    3    3    0    0 -0.57490765615E+01 -0.40215535130E-01  0.74792103494E+01  0.94335616980E+01  0.51100000000E-03 0.  1.
        -12    1    3    3    0    0 -0.79535811149E+01  0.93070219472E+01  0.29591838122E+02  0.32024318783E+02  0.00000000000E+00 0.  1.
</event>
<event>
 7    1  0.2500839E-011  0.5052887E+02  0.7816164E-02  0.1300439E+00
        -11   -1    0    0    0    0  0.00000000000E+00  0.00000000000E+00  0.45593999997E+02  0.45594000000E+02  0.51100000000E-03 0.  1.
         11   -1    0    0    0    0 -0.00000000000E+00 -0.00000000000E+00 -0.45593999997E+02  0.45594000000E+02  0.51100000000E-03 0. -1.
    9900012    2    1    2    0    0  0.13656712336E+02 -0.13583200200E+01  0.38272885256E+02  0.50528873461E+02  0.30000041371E+02 0.  0.
         12    1    1    2    0    0 -0.13656712336E+02  0.13583200200E+01 -0.38272885256E+02  0.40659126539E+02  0.00000000000E+00 0. -1.
         11    1    3    3    0    0 -0.27457171835E+01  0.16533149801E-01  0.94754030698E+00  0.29046633353E+01  0.51100000000E-03 0. -1.
        -11    1    3    3    0    0  0.31100049565E+01 -0.93149781520E+01  0.27708631729E+02  0.29397435626E+02  0.51100000000E-03 0.  1.
         12    1    3    3    0    0  0.13292424563E+02  0.79401249822E+01  0.96167132201E+01  0.18226774499E+02  0.00000000000E+00 0. -1.
</event>
<event>
 7    1  0.2500839E-011  0.5052883E+02  0.7816164E-02  0.1300439E+00
        -11   -1    0    0    0    0  0.00000000000E+00  0.00000000000E+00  0.45593999997E+02  0.45594000000E+02  0.51100000000E-03 0.  1.
         11   -1    0    0    0    0 -0.00000000000E+00 -0.00000000000E+00 -0.45593999997E+02  0.45594000000E+02  0.51100000000E-03 0. -1.
    9900012    2    1    2    0    0  0.95787027981E+01  0.16187537938E+01  0.39481590574E+02  0.50528832455E+02  0.29999916732E+02 0.  0.
         12    1    1    2    0    0 -0.95787027981E+01 -0.16187537938E+01 -0.39481590574E+02  0.40659167545E+02  0.00000000000E+00 0. -1.
         11    1    3    3    0    0 -0.15790873730E+01  0.96473512297E+01  0.15982768160E+02  0.18735361779E+02  0.51100000000E-03 0. -1.
        -11    1    3    3    0    0 -0.61145485339E+00 -0.11770443301E+01 -0.22804865924E+01  0.26381678779E+01  0.51100000000E-03 0.  1.
        -12    1    3    3    0    0  0.11769245024E+02 -0.68515531058E+01  0.25779309007E+02  0.29155302799E+02  0.00000000000E+00 0.  1.
</event>
<event>
 7    1  0.2500839E-011  0.5052887E+02  0.7816164E-02  0.1300439E+00
        -11   -1    0    0    0    0  0.00000000000E+00  0.00000000000E+00  0.45593999997E+02  0.45594000000E+02  0.51100000000E-03 0. -1.
         11   -1    0    0    0    0 -0.00000000000E+00 -0.00000000000E+00 -0.45593999997E+02  0.45594000000E+02  0.51100000000E-03 0.  1.
    9900012    2    1    2    0    0  0.29691253329E+02 -0.55133213509E+01 -0.27224950386E+02  0.50528866216E+02  0.30000019349E+02 0.  0.
         12    1    1    2    0    0 -0.29691253329E+02  0.55133213509E+01  0.27224950386E+02  0.40659133784E+02  0.00000000000E+00 0. -1.
         11    1    3    3    0    0  0.20025876406E+02 -0.62718757632E+01 -0.12175706997E+02  0.24261491969E+02  0.51100000000E-03 0.  1.
        -11    1    3    3    0    0  0.10649657012E+02  0.26459576991E+01 -0.18907342021E+02  0.21861012538E+02  0.51100000000E-03 0. -1.
         12    1    3    3    0    0 -0.98428008862E+00 -0.18874032869E+01  0.38580986319E+01  0.44063617093E+01  0.00000000000E+00 0. -1.
</event>
<event>
 7    1  0.2500839E-011  0.5052885E+02  0.7816164E-02  0.1300439E+00
        -11   -1    0    0    0    0  0.00000000000E+00  0.00000000000E+00  0.45593999997E+02  0.45594000000E+02  0.51100000000E-03 0. -1.
         11   -1    0    0    0    0 -0.00000000000E+00 -0.00000000000E+00 -0.45593999997E+02  0.45594000000E+02  0.51100000000E-03 0.  1.
    9900012    2    1    2    0    0 -0.30602593788E+02 -0.21934019248E+02 -0.15347527033E+02  0.50528849333E+02  0.29999968033E+02 0.  0.
         12    1    1    2    0    0  0.30602593788E+02  0.21934019248E+02  0.15347527033E+02  0.40659150667E+02  0.00000000000E+00 0. -1.
         11    1    3    3    0    0 -0.10510462246E+02 -0.25286003865E-01 -0.10174884559E+02  0.14628695501E+02  0.51100000000E-03 0. -1.
        -11    1    3    3    0    0 -0.19992336783E+02 -0.19428208646E+02 -0.10684703039E+02  0.29854843837E+02  0.51100000000E-03 0.  1.
         12    1    3    3    0    0 -0.99794759813E-01 -0.24805245976E+01  0.55120605649E+01  0.60453099957E+01  0.00000000000E+00 0. -1.
</event>
<event>
 7    1  0.2500839E-011  0.5052886E+02  0.7816164E-02  0.1300439E+00
        -11   -1    0    0    0    0  0.00000000000E+00  0.00000000000E+00  0.45593999997E+02  0.45594000000E+02  0.51100000000E-03 0. -1.
         11   -1    0    0    0    0 -0.00000000000E+00 -0.00000000000E+00 -0.45593999997E+02  0.45594000000E+02  0.51100000000E-03 0.  1.
    9900012    2    1    2    0    0  0.33194015228E+02 -0.22600928435E+02  0.63656049559E+01  0.50528861550E+02  0.30000005167E+02 0.  0.
         12    1    1    2    0    0 -0.33194015228E+02  0.22600928435E+02 -0.63656049559E+01  0.40659138450E+02  0.00000000000E+00 0. -1.
         11    1    3    3    0    0  0.92823527932E+01 -0.91016185631E+01  0.41711287825E+01  0.13652833018E+02  0.51100000000E-03 0. -1.
        -11    1    3    3    0    0  0.23241335653E+02 -0.17400515998E+02  0.77542775041E+01  0.30051064204E+02  0.51100000000E-03 0.  1.
        -12    1    3    3    0    0  0.67032678195E+00  0.39012061265E+01 -0.55598013307E+01  0.68249643276E+01  0.00000000000E+00 0.  1.
</event>
<event>
 7    1  0.2500839E-011  0.5052885E+02  0.7816164E-02  0.1300439E+00
        -11   -1    0    0    0    0  0.00000000000E+00  0.00000000000E+00  0.45593999997E+02  0.45594000000E+02  0.51100000000E-03 0. -1.
         11   -1    0    0    0    0 -0.00000000000E+00 -0.00000000000E+00 -0.45593999997E+02  0.45594000000E+02  0.51100000000E-03 0.  1.
    9900012    2    1    2    0    0  0.33725383665E+02  0.35442208009E+00 -0.22707698302E+02  0.50528847519E+02  0.29999962518E+02 0.  0.
         12    1    1    2    0    0 -0.33725383665E+02 -0.35442208009E+00  0.22707698302E+02  0.40659152481E+02  0.00000000000E+00 0. -1.
         11    1    3    3    0    0  0.26144967117E+02 -0.53443888039E+00 -0.57853261997E+01  0.26782735670E+02  0.51100000000E-03 0. -1.
        -11    1    3    3    0    0  0.84256591372E+01  0.67064888200E+01 -0.11357188600E+02  0.15651020968E+02  0.51100000000E-03 0.  1.
         12    1    3    3    0    0 -0.84524259000E+00 -0.58176278595E+01 -0.55651835016E+01  0.80950908799E+01  0.00000000000E+00 0. -1.
</event>
<event>
 7    1  0.2500839E-011  0.5052886E+02  0.7816164E-02  0.1300439E+00
        -11   -1    0    0    0    0  0.00000000000E+00  0.00000000000E+00  0.45593999997E+02  0.45594000000E+02  0.51100000000E-03 0. -1.
         11   -1    0    0    0    0 -0.00000000000E+00 -0.00000000000E+00 -0.45593999997E+02  0.45594000000E+02  0.51100000000E-03 0.  1.
    9900012    2    1    2    0    0  0.10221196793E+02 -0.28009784475E+02 -0.27643169728E+02  0.50528859295E+02  0.29999998314E+02 0.  0.
         12    1    1    2    0    0 -0.10221196793E+02  0.28009784475E+02  0.27643169728E+02  0.40659140705E+02  0.00000000000E+00 0. -1.
         11    1    3    3    0    0 -0.54713109451E+01 -0.45876544779E+01 -0.35479695006E+01  0.79730737426E+01  0.51100000000E-03 0. -1.
        -11    1    3    3    0    0  0.40455953400E+01 -0.22850138859E+02 -0.13789226809E+02  0.26993304055E+02  0.51100000000E-03 0.  1.
        -12    1    3    3    0    0  0.11646912398E+02 -0.57199113806E+00 -0.10305973418E+02  0.15562481498E+02  0.00000000000E+00 0.  1.
</event>
<event>
 7    1  0.2500839E-011  0.5052889E+02  0.7816164E-02  0.1300439E+00
        -11   -1    0    0    0    0  0.00000000000E+00  0.00000000000E+00  0.45593999997E+02  0.45594000000E+02  0.51100000000E-03 0.  1.
         11   -1    0    0    0    0 -0.00000000000E+00 -0.00000000000E+00 -0.45593999997E+02  0.45594000000E+02  0.51100000000E-03 0. -1.
    9900012    2    1    2    0    0  0.58868509480E+01 -0.82067120896E+00  0.40222316380E+02  0.50528889702E+02  0.30000090737E+02 0.  0.
         12    1    1    2    0    0 -0.58868509480E+01  0.82067120896E+00 -0.40222316380E+02  0.40659110298E+02  0.00000000000E+00 0. -1.
         11    1    3    3    0    0 -0.19560581486E+01  0.59012437152E+01  0.11143967762E+01  0.63160685005E+01  0.51100000000E-03 0. -1.
        -11    1    3    3    0    0  0.73198072335E+01  0.13858886175E+01  0.33554458982E+02  0.34371528669E+02  0.51100000000E-03 0.  1.
        -12    1    3    3    0    0  0.52310186313E+00 -0.81078035417E+01  0.55534606209E+01  0.98412925319E+01  0.00000000000E+00 0.  1.
</event>
<event>
 7    1  0.2500839E-011  0.5052882E+02  0.7816164E-02  0.1300439E+00
        -11   -1    0    0    0    0  0.00000000000E+00  0.00000000000E+00  0.45593999997E+02  0.45594000000E+02  0.51100000000E-03 0.  1.
         11   -1    0    0    0    0 -0.00000000000E+00 -0.00000000000E+00 -0.45593999997E+02  0.45594000000E+02  0.51100000000E-03 0. -1.
    9900012    2    1    2    0    0 -0.26751654236E+02  0.18097879453E+02  0.24697872290E+02  0.50528817265E+02  0.29999870558E+02 0.  0.
         12    1    1    2    0    0  0.26751654236E+02 -0.18097879453E+02 -0.24697872290E+02  0.40659182735E+02  0.00000000000E+00 0. -1.
         11    1    3    3    0    0 -0.10303285389E+02  0.11037709671E+02  0.48364692169E+01  0.15854972701E+02  0.51100000000E-03 0. -1.
        -11    1    3    3    0    0 -0.13868537085E+02  0.43786251026E+01  0.24643325548E+02  0.28614719516E+02  0.51100000000E-03 0.  1.
         12    1    3    3    0    0 -0.25798317614E+01  0.26815446793E+01 -0.47819224754E+01  0.60591250478E+01  0.00000000000E+00 0. -1.
</event>
<event>
 7    1  0.2500839E-011  0.5052886E+02  0.7816164E-02  0.1300439E+00
        -11   -1    0    0    0    0  0.00000000000E+00  0.00000000000E+00  0.45593999997E+02  0.45594000000E+02  0.51100000000E-03 0.  1.
         11   -1    0    0    0    0 -0.00000000000E+00 -0.00000000000E+00 -0.45593999997E+02  0.45594000000E+02  0.51100000000E-03 0. -1.
    9900012    2    1    2    0    0 -0.23720229302E+02  0.90991174026E+01  0.31744642820E+02  0.50528861256E+02  0.30000004274E+02 0.  0.
         12    1    1    2    0    0  0.23720229302E+02 -0.90991174026E+01 -0.31744642820E+02  0.40659138744E+02  0.00000000000E+00 0. -1.
         11    1    3    3    0    0 -0.28699980837E+00 -0.21559215891E+01 -0.69891761272E+00  0.22844808773E+01  0.51100000000E-03 0. -1.
        -11    1    3    3    0    0 -0.23613566779E+02  0.15875769392E+02  0.19487271737E+02  0.34487597044E+02  0.51100000000E-03 0.  1.
         12    1    3    3    0    0  0.18033728568E+00 -0.46207304003E+01  0.12956288695E+02  0.13756783335E+02  0.00000000000E+00 0. -1.
</event>
<event>
 7    1  0.2500839E-011  0.5052886E+02  0.7816164E-02  0.1300439E+00
        -11   -1    0    0    0    0  0.00000000000E+00  0.00000000000E+00  0.45593999997E+02  0.45594000000E+02  0.51100000000E-03 0.  1.
         11   -1    0    0    0    0 -0.00000000000E+00 -0.00000000000E+00 -0.45593999997E+02  0.45594000000E+02  0.51100000000E-03 0. -1.
    9900012    2    1    2    0    0  0.54233640460E+01  0.27683999796E+02  0.29280518752E+02  0.50528862028E+02  0.30000006620E+02 0.  0.
         12    1    1    2    0    0 -0.54233640460E+01 -0.27683999796E+02 -0.29280518752E+02  0.40659137972E+02  0.00000000000E+00 0. -1.
         11    1    3    3    0    0 -0.63810036624E+01  0.37837851074E+01  0.12588190214E+02  0.14611528688E+02  0.51100000000E-03 0. -1.
        -11    1    3    3    0    0  0.32622993535E+01 -0.14782869829E+01  0.61948153429E+01  0.71556737537E+01  0.51100000000E-03 0.  1.
        -12    1    3    3    0    0  0.85420683549E+01  0.25378501671E+02  0.10497513194E+02  0.28761659586E+02  0.00000000000E+00 0.  1.
</event>
<event>
 7    1  0.2500839E-011  0.5052886E+02  0.7816164E-02  0.1300439E+00
        -11   -1    0    0    0    0  0.00000000000E+00  0.00000000000E+00  0.45593999997E+02  0.45594000000E+02  0.51100000000E-03 0.  1.
         11   -1    0    0    0    0 -0.00000000000E+00 -0.00000000000E+00 -0.45593999997E+02  0.45594000000E+02  0.51100000000E-03 0. -1.
    9900012    2    1    2    0    0  0.38429341984E+01 -0.10058578668E+02  0.39207427668E+02  0.50528861637E+02  0.30000005433E+02 0.  0.
         12    1    1    2    0    0 -0.38429341984E+01  0.10058578668E+02 -0.39207427668E+02  0.40659138363E+02  0.00000000000E+00 0. -1.
         11    1    3    3    0    0 -0.33295979716E+00 -0.73019954911E+01  0.72708519712E+01  0.10309960671E+02  0.51100000000E-03 0. -1.
        -11    1    3    3    0    0  0.13018390665E+02  0.21143052138E+01  0.11816370864E+02  0.17708060388E+02  0.51100000000E-03 0.  1.
         12    1    3    3    0    0 -0.88424966696E+01 -0.48708883910E+01  0.20120204833E+02  0.22510840579E+02  0.00000000000E+00 0. -1.
</event>
<event>
 7    1  0.2500839E-011  0.5052886E+02  0.7816164E-02  0.1300439E+00
        -11   -1    0    0    0    0  0.00000000000E+00  0.00000000000E+00  0.45593999997E+02  0.45594000000E+02  0.51100000000E-03 0. -1.
         11   -1    0    0    0    0 -0.00000000000E+00 -0.00000000000E+00 -0.45593999997E+02  0.45594000000E+02  0.51100000000E-03 0.  1.
    9900012    2    1    2    0    0  0.27926476012E+02  0.26451010219E+02 -0.13176566575E+02  0.50528856985E+02  0.29999991290E+02 0.  0.
         12    1    1    2    0    0 -0.27926476012E+02 -0.26451010219E+02  0.13176566575E+02  0.40659143015E+02  0.00000000000E+00 0. -1.
         11    1    3    3    0    0  0.15260784040E+02  0.14874001517E+02 -0.11293883273E+02  0.24118027495E+02  0.51100000000E-03 0. -1.
        -11    1    3    3    0    0  0.69644932087E+01  0.16941976402E+02 -0.27937196299E+01  0.18529425239E+02  0.51100000000E-03 0.  1.
         12    1    3    3    0    0  0.57011987634E+01 -0.53649676996E+01  0.91103632844E+00  0.78814042499E+01  0.00000000000E+00 0. -1.
</event>
<event>
 7    1  0.2500839E-011  0.5052886E+02  0.7816164E-02  0.1300439E+00
        -11   -1    0    0    0    0  0.00000000000E+00  0.00000000000E+00  0.45593999997E+02  0.45594000000E+02  0.51100000000E-03 0. -1.
         11   -1    0    0    0    0 -0.00000000000E+00 -0.00000000000E+00 -0.45593999997E+02  0.45594000000E+02  0.51100000000E-03 0.  1.
    9900012    2    1    2    0    0 -0.10511453220E+02  0.69607751077E+01 -0.38655180910E+02  0.50528855271E+02  0.29999986081E+02 0.  0.
         12    1    1    2    0    0  0.10511453220E+02 -0.69607751077E+01  0.38655180910E+02  0.40659144729E+02  0.00000000000E+00 0. -1.
         11    1    3    3    0    0 -0.29131850992E+00 -0.28784945820E+01 -0.28185515172E+02  0.28333617194E+02  0.51100000000E-03 0. -1.
        -11    1    3    3    0    0  0.15893650047E+01  0.56459078880E+01 -0.71172737807E+01  0.92226863401E+01  0.51100000000E-03 0.  1.
         12    1    3    3    0    0 -0.11809499715E+02  0.41933618017E+01 -0.33523919574E+01  0.12972551737E+02  0.00000000000E+00 0. -1.
</event>
<event>
 7    1  0.2500839E-011  0.5052887E+02  0.7816164E-02  0.1300439E+00
        -11   -1    0    0    0    0  0.00000000000E+00  0.00000000000E+00  0.45593999997E+02  0.45594000000E+02  0.51100000000E-03 0.  1.
         11   -1    0    0    0    0 -0.00000000000E+00 -0.00000000000E+00 -0.45593999997E+02  0.45594000000E+02  0.51100000000E-03 0. -1.
    9900012    2    1    2    0    0 -0.30326035261E+02 -0.15412235315E+02  0.22270154691E+02  0.50528865700E+02  0.30000017782E+02 0.  0.
         12    1    1    2    0    0  0.30326035261E+02  0.15412235315E+02 -0.22270154691E+02  0.40659134300E+02  0.00000000000E+00 0. -1.
         11    1    3    3    0    0 -0.33424187931E+00  0.47915078030E+01  0.24628363830E+00  0.48094615657E+01  0.51100000000E-03 0. -1.
        -11    1    3    3    0    0 -0.43775283945E+01 -0.11537295048E+02  0.10954738728E+02  0.16500855515E+02  0.51100000000E-03 0.  1.
        -12    1    3    3    0    0 -0.25614264988E+02 -0.86664480697E+01  0.11069132324E+02  0.29218548619E+02  0.00000000000E+00 0.  1.
</event>
<event>
 7    1  0.2500839E-011  0.5052886E+02  0.7816164E-02  0.1300439E+00
        -11   -1    0    0    0    0  0.00000000000E+00  0.00000000000E+00  0.45593999997E+02  0.45594000000E+02  0.51100000000E-03 0.  1.
         11   -1    0    0    0    0 -0.00000000000E+00 -0.00000000000E+00 -0.45593999997E+02  0.45594000000E+02  0.51100000000E-03 0. -1.
    9900012    2    1    2    0    0 -0.37822434562E+02 -0.11896553066E+02  0.90056238874E+01  0.50528858437E+02  0.29999995705E+02 0.  0.
         12    1    1    2    0    0  0.37822434562E+02  0.11896553066E+02 -0.90056238874E+01  0.40659141563E+02  0.00000000000E+00 0. -1.
         11    1    3    3    0    0  0.19905201489E+01  0.22919363426E+01 -0.13735143309E+01  0.33319190476E+01  0.51100000000E-03 0. -1.
        -11    1    3    3    0    0 -0.13515070016E+02 -0.31840977572E+01  0.12402626354E+02  0.18617753269E+02  0.51100000000E-03 0.  1.
        -12    1    3    3    0    0 -0.26297884695E+02 -0.11004391652E+02 -0.20234881357E+01  0.28579186120E+02  0.00000000000E+00 0.  1.
</event>
<event>
 7    1  0.2500839E-011  0.5052887E+02  0.7816164E-02  0.1300439E+00
        -11   -1    0    0    0    0  0.00000000000E+00  0.00000000000E+00  0.45593999997E+02  0.45594000000E+02  0.51100000000E-03 0.  1.
         11   -1    0    0    0    0 -0.00000000000E+00 -0.00000000000E+00 -0.45593999997E+02  0.45594000000E+02  0.51100000000E-03 0. -1.
    9900012    2    1    2    0    0 -0.29938544346E+02 -0.20152508499E+02  0.18727658986E+02  0.50528865141E+02  0.30000016084E+02 0.  0.
         12    1    1    2    0    0  0.29938544346E+02  0.20152508499E+02 -0.18727658986E+02  0.40659134859E+02  0.00000000000E+00 0. -1.
         11    1    3    3    0    0  0.26067006713E+01  0.50315117729E+00 -0.73155504354E+00  0.27537651570E+01  0.51100000000E-03 0. -1.
        -11    1    3    3    0    0 -0.12887058497E+02 -0.19362036084E+02  0.14676769332E+02  0.27502223116E+02  0.51100000000E-03 0.  1.
        -12    1    3    3    0    0 -0.19658186520E+02 -0.12936235927E+01  0.47824446980E+01  0.20272876869E+02  0.00000000000E+00 0.  1.
</event>
<event>
 7    1  0.2500839E-011  0.5052886E+02  0.7816164E-02  0.1300439E+00
        -11   -1    0    0    0    0  0.00000000000E+00  0.00000000000E+00  0.45593999997E+02  0.45594000000E+02  0.51100000000E-03 0.  1.
         11   -1    0    0    0    0 -0.00000000000E+00 -0.00000000000E+00 -0.45593999997E+02  0.45594000000E+02  0.51100000000E-03 0. -1.
    9900012    2    1    2    0    0 -0.14015701979E+01 -0.40297703505E+02  0.52246204179E+01  0.50528856313E+02  0.29999989249E+02 0.  0.
         12    1    1    2    0    0  0.14015701979E+01  0.40297703505E+02 -0.52246204179E+01  0.40659143687E+02  0.00000000000E+00 0. -1.
         11    1    3    3    0    0 -0.88391366005E+01 -0.12962173111E+02 -0.26498341632E+00  0.15691350613E+02  0.51100000000E-03 0. -1.
        -11    1    3    3    0    0 -0.29674226980E+01 -0.15143205481E+02  0.97487297759E+01  0.18252671098E+02  0.51100000000E-03 0.  1.
         12    1    3    3    0    0  0.10404989101E+02 -0.12192324914E+02 -0.42591259417E+01  0.16584834602E+02  0.00000000000E+00 0. -1.
</event>
<event>
 7    1  0.2500839E-011  0.5052886E+02  0.7816164E-02  0.1300439E+00
        -11   -1    0    0    0    0  0.00000000000E+00  0.00000000000E+00  0.45593999997E+02  0.45594000000E+02  0.51100000000E-03 0.  1.
         11   -1    0    0    0    0 -0.00000000000E+00 -0.00000000000E+00 -0.45593999997E+02  0.45594000000E+02  0.51100000000E-03 0. -1.
    9900012    2    1    2    0    0 -0.32657095147E+02 -0.13152628220E+02  0.20339326350E+02  0.50528859713E+02  0.29999999583E+02 0.  0.
         12    1    1    2    0    0  0.32657095147E+02  0.13152628220E+02 -0.20339326350E+02  0.40659140287E+02  0.00000000000E+00 0. -1.
         11    1    3    3    0    0  0.15941406337E+01  0.18872141462E+01 -0.16486001165E+00  0.24758918955E+01  0.51100000000E-03 0. -1.
        -11    1    3    3    0    0 -0.19356530583E+02 -0.25397319049E+01 -0.36893842227E+00  0.19525922006E+02  0.51100000000E-03 0.  1.
         12    1    3    3    0    0 -0.14894705197E+02 -0.12500110462E+02  0.20873124783E+02  0.28527045811E+02  0.00000000000E+00 0. -1.
</event>
<event>
 7    1  0.2500839E-011  0.5052886E+02  0.7816164E-02  0.1300439E+00
        -11   -1    0    0    0    0  0.00000000000E+00  0.00000000000E+00  0.45593999997E+02  0.45594000000E+02  0.51100000000E-03 0.  1.
         11   -1    0    0    0    0 -0.00000000000E+00 -0.00000000000E+00 -0.45593999997E+02  0.45594000000E+02  0.51100000000E-03 0. -1.
    9900012    2    1    2    0    0 -0.25253349564E+02  0.31024183894E+02  0.72755621460E+01  0.50528862588E+02  0.30000008324E+02 0.  0.
         12    1    1    2    0    0  0.25253349564E+02 -0.31024183894E+02 -0.72755621460E+01  0.40659137412E+02  0.00000000000E+00 0. -1.
         11    1    3    3    0    0 -0.74223926856E+01  0.19733060310E+02  0.43569371253E+01  0.21528318182E+02  0.51100000000E-03 0. -1.
        -11    1    3    3    0    0 -0.14661415241E+01  0.21048051261E+01  0.89325976939E+01  0.92936041131E+01  0.51100000000E-03 0.  1.
         12    1    3    3    0    0 -0.16364815355E+02  0.91863184578E+01 -0.60139726732E+01  0.19706940293E+02  0.00000000000E+00 0. -1.
</event>
<event>
 7    1  0.2500839E-011  0.5052894E+02  0.7816164E-02  0.1300439E+00
        -11   -1    0    0    0    0  0.00000000000E+00  0.00000000000E+00  0.45593999997E+02  0.45594000000E+02  0.51100000000E-03 0.  1.
         11   -1    0    0    0    0 -0.00000000000E+00 -0.00000000000E+00 -0.45593999997E+02  0.45594000000E+02  0.51100000000E-03 0. -1.
    9900012    2    1    2    0    0 -0.29284424395E+02 -0.13408068810E+01  0.28174167162E+02  0.50528942331E+02  0.30000250708E+02 0.  0.
         12    1    1    2    0    0  0.29284424395E+02  0.13408068810E+01 -0.28174167162E+02  0.40659057669E+02  0.00000000000E+00 0. -1.
         11    1    3    3    0    0 -0.87199365641E+00  0.29630695441E+01  0.16134076854E+01  0.34847150070E+01  0.51100000000E-03 0. -1.
        -11    1    3    3    0    0 -0.24653791595E+02 -0.69236647719E+01  0.31308005355E+02  0.40446727599E+02  0.51100000000E-03 0.  1.
         12    1    3    3    0    0 -0.37586391437E+01  0.26197883467E+01 -0.47472458782E+01  0.65974997251E+01  0.00000000000E+00 0. -1.
</event>
<event>
 7    1  0.4908873E-011  0.5052885E+02  0.7816164E-02  0.1300439E+00
        -11   -1    0    0    0    0  0.00000000000E+00  0.00000000000E+00  0.45593999997E+02  0.45594000000E+02  0.51100000000E-03 0.  1.
         11   -1    0    0    0    0 -0.00000000000E+00 -0.00000000000E+00 -0.45593999997E+02  0.45594000000E+02  0.51100000000E-03 0. -1.
    9900012    2    1    2    0    0  0.34411221507E+01 -0.38740335619E+02  0.11853741243E+02  0.50528854571E+02  0.29999983955E+02 0.  0.
         12    1    1    2    0    0 -0.34411221507E+01  0.38740335619E+02 -0.11853741243E+02  0.40659145429E+02  0.00000000000E+00 0. -1.
         11    1    3    3    0    0 -0.45874795395E+01 -0.23249258067E+01 -0.75613811298E+00  0.51982683307E+01  0.51100000000E-03 0. -1.
        -11    1    3    3    0    0  0.30601471218E+01  0.29693974570E+00  0.72793902080E+01  0.79020374386E+01  0.51100000000E-03 0.  1.
        -12    1    3    3    0    0  0.49684545683E+01 -0.36712349558E+02  0.53304891481E+01  0.37428548802E+02  0.00000000000E+00 0.  1.
</event>
<event>
 7    1  0.2500839E-011  0.5052886E+02  0.7816164E-02  0.1300439E+00
        -11   -1    0    0    0    0  0.00000000000E+00  0.00000000000E+00  0.45593999997E+02  0.45594000000E+02  0.51100000000E-03 0. -1.
         11   -1    0    0    0    0 -0.00000000000E+00 -0.00000000000E+00 -0.45593999997E+02  0.45594000000E+02  0.51100000000E-03 0.  1.
    9900012    2    1    2    0    0 -0.38335634513E+02  0.17649248021E+01 -0.13432416909E+02  0.50528860104E+02  0.30000000773E+02 0.  0.
         12    1    1    2    0    0  0.38335634513E+02 -0.17649248021E+01  0.13432416909E+02  0.40659139896E+02  0.00000000000E+00 0. -1.
         11    1    3    3    0    0  0.30564778327E+01 -0.66399538291E+00 -0.88249460055E+00  0.32498836274E+01  0.51100000000E-03 0. -1.
        -11    1    3    3    0    0 -0.85814583611E+01  0.69071348573E+01  0.18474369370E+01  0.11169734242E+02  0.51100000000E-03 0.  1.
        -12    1    3    3    0    0 -0.32810653984E+02 -0.44782146723E+01 -0.14397359245E+02  0.36109242235E+02  0.00000000000E+00 0.  1.
</event>
<event>
 7    1  0.2500839E-011  0.5052886E+02  0.7816164E-02  0.1300439E+00
        -11   -1    0    0    0    0  0.00000000000E+00  0.00000000000E+00  0.45593999997E+02  0.45594000000E+02  0.51100000000E-03 0.  1.
         11   -1    0    0    0    0 -0.00000000000E+00 -0.00000000000E+00 -0.45593999997E+02  0.45594000000E+02  0.51100000000E-03 0. -1.
    9900012    2    1    2    0    0 -0.63527712761E+01  0.33074595578E+02  0.22778911578E+02  0.50528863411E+02  0.30000010823E+02 0.  0.
         12    1    1    2    0    0  0.63527712761E+01 -0.33074595578E+02 -0.22778911578E+02  0.40659136589E+02  0.00000000000E+00 0. -1.
         11    1    3    3    0    0  0.48163137052E+01  0.17490098032E+02  0.98876990174E+01  0.20660759885E+02  0.51100000000E-03 0. -1.
        -11    1    3    3    0    0 -0.19357721822E+01 -0.39653922256E+01  0.54285673770E+01  0.69957768312E+01  0.51100000000E-03 0.  1.
        -12    1    3    3    0    0 -0.92333127991E+01  0.19549889771E+02  0.74626451839E+01  0.22872326695E+02  0.00000000000E+00 0.  1.
</event>
<event>
 7    1  0.2838058E-011  0.5052886E+02  0.7816164E-02  0.1300439E+00
        -11   -1    0    0    0    0  0.00000000000E+00  0.00000000000E+00  0.45593999997E+02  0.45594000000E+02  0.51100000000E-03 0. -1.
         11   -1    0    0    0    0 -0.00000000000E+00 -0.00000000000E+00 -0.45593999997E+02  0.45594000000E+02  0.51100000000E-03 0.  1.
    9900012    2    1    2    0    0  0.92602972014E+01  0.17379503016E+02 -0.35571976025E+02  0.50528859482E+02  0.29999998881E+02 0.  0.
         12    1    1    2    0    0 -0.92602972014E+01 -0.17379503016E+02  0.35571976025E+02  0.40659140518E+02  0.00000000000E+00 0. -1.
         11    1    3    3    0    0  0.60678336815E+01  0.13046632496E+02 -0.75058119911E+01  0.16228691844E+02  0.51100000000E-03 0. -1.
        -11    1    3    3    0    0 -0.67111141203E+01  0.65815955475E+01 -0.15694054561E+02  0.18293709343E+02  0.51100000000E-03 0.  1.
        -12    1    3    3    0    0  0.99035776403E+01 -0.22487250276E+01 -0.12372109473E+02  0.16006458295E+02  0.00000000000E+00 0.  1.
</event>
<event>
 7    1  0.2500839E-011  0.5052886E+02  0.7816164E-02  0.1300439E+00
        -11   -1    0    0    0    0  0.00000000000E+00  0.00000000000E+00  0.45593999997E+02  0.45594000000E+02  0.51100000000E-03 0.  1.
         11   -1    0    0    0    0 -0.00000000000E+00 -0.00000000000E+00 -0.45593999997E+02  0.45594000000E+02  0.51100000000E-03 0. -1.
    9900012    2    1    2    0    0  0.40048873930E+02  0.68791275464E+01  0.13896166498E+01  0.50528859167E+02  0.29999997925E+02 0.  0.
         12    1    1    2    0    0 -0.40048873930E+02 -0.68791275464E+01 -0.13896166498E+01  0.40659140833E+02  0.00000000000E+00 0. -1.
         11    1    3    3    0    0  0.23010330262E+02 -0.94025913375E+01  0.12884046136E+00  0.24857606939E+02  0.51100000000E-03 0. -1.
        -11    1    3    3    0    0  0.43267858768E+01 -0.57911998210E+00  0.13020727268E+01  0.45554198077E+01  0.51100000000E-03 0.  1.
         12    1    3    3    0    0  0.12711757791E+02  0.16860838866E+02 -0.41296538325E-01  0.21115832420E+02  0.00000000000E+00 0. -1.
</event>
<event>
 7    1  0.2500839E-011  0.5052890E+02  0.7816164E-02  0.1300439E+00
        -11   -1    0    0    0    0  0.00000000000E+00  0.00000000000E+00  0.45593999997E+02  0.45594000000E+02  0.51100000000E-03 0.  1.
         11   -1    0    0    0    0 -0.00000000000E+00 -0.00000000000E+00 -0.45593999997E+02  0.45594000000E+02  0.51100000000E-03 0. -1.
    9900012    2    1    2    0    0 -0.37090835266E+02  0.16455857214E+02 -0.25762931006E+01  0.50528897901E+02  0.30000115660E+02 0.  0.
         12    1    1    2    0    0  0.37090835266E+02 -0.16455857214E+02  0.25762931006E+01  0.40659102099E+02  0.00000000000E+00 0. -1.
         11    1    3    3    0    0 -0.23763060694E+02  0.63888392288E+01 -0.32692543712E+01  0.24823141313E+02  0.51100000000E-03 0. -1.
        -11    1    3    3    0    0 -0.15445139144E+02  0.45196494469E+01  0.65413359041E+01  0.17371488997E+02  0.51100000000E-03 0.  1.
         12    1    3    3    0    0  0.21173645725E+01  0.55473685381E+01 -0.58483746334E+01  0.83342675913E+01  0.00000000000E+00 0. -1.
</event>
<event>
 7    1  0.2500839E-011  0.5052887E+02  0.7816164E-02  0.1300439E+00
        -11   -1    0    0    0    0  0.00000000000E+00  0.00000000000E+00  0.45593999997E+02  0.45594000000E+02  0.51100000000E-03 0. -1.
         11   -1    0    0    0    0 -0.00000000000E+00 -0.00000000000E+00 -0.45593999997E+02  0.45594000000E+02  0.51100000000E-03 0.  1.
    9900012    2    1    2    0    0  0.23070264699E+02 -0.32115479229E+02 -0.94616998251E+01  0.50528869623E+02  0.30000029707E+02 0.  0.
         12    1    1    2    0    0 -0.23070264699E+02  0.32115479229E+02  0.94616998251E+01  0.40659130377E+02  0.00000000000E+00 0. -1.
         11    1    3    3    0    0  0.12361651454E+02 -0.61645164901E+01 -0.15620032936E+02  0.20851789358E+02  0.51100000000E-03 0. -1.
        -11    1    3    3    0    0  0.50582058568E+01 -0.99341697524E+01 -0.11100770854E+01  0.11202921340E+02  0.51100000000E-03 0.  1.
        -12    1    3    3    0    0  0.56504073876E+01 -0.16016792987E+02  0.72684101962E+01  0.18474158926E+02  0.00000000000E+00 0.  1.
</event>
<event>
 7    1  0.2500839E-011  0.5052886E+02  0.7816164E-02  0.1300439E+00
        -11   -1    0    0    0    0  0.00000000000E+00  0.00000000000E+00  0.45593999997E+02  0.45594000000E+02  0.51100000000E-03 0.  1.
         11   -1    0    0    0    0 -0.00000000000E+00 -0.00000000000E+00 -0.45593999997E+02  0.45594000000E+02  0.51100000000E-03 0. -1.
    9900012    2    1    2    0    0 -0.11078310074E+02 -0.32008337860E+02  0.22492289062E+02  0.50528859405E+02  0.29999998649E+02 0.  0.
         12    1    1    2    0    0  0.11078310074E+02  0.32008337860E+02 -0.22492289062E+02  0.40659140595E+02  0.00000000000E+00 0. -1.
         11    1    3    3    0    0 -0.70726395021E+01 -0.70439464911E-01  0.24533020792E+01  0.74863798059E+01  0.51100000000E-03 0. -1.
        -11    1    3    3    0    0  0.83498500404E+00 -0.42182399320E+01  0.13479696068E+02  0.14148955948E+02  0.51100000000E-03 0.  1.
         12    1    3    3    0    0 -0.48406555757E+01 -0.27719658463E+02  0.65592909156E+01  0.28893523652E+02  0.00000000000E+00 0. -1.
</event>
<event>
 7    1  0.2500839E-011  0.5052886E+02  0.7816164E-02  0.1300439E+00
        -11   -1    0    0    0    0  0.00000000000E+00  0.00000000000E+00  0.45593999997E+02  0.45594000000E+02  0.51100000000E-03 0.  1.
         11   -1    0    0    0    0 -0.00000000000E+00 -0.00000000000E+00 -0.45593999997E+02  0.45594000000E+02  0.51100000000E-03 0. -1.
    9900012    2    1    2    0    0 -0.40242566076E+02 -0.57169932268E+01 -0.10087611605E+01  0.50528859146E+02  0.29999997860E+02 0.  0.
         12    1    1    2    0    0  0.40242566076E+02  0.57169932268E+01  0.10087611605E+01  0.40659140854E+02  0.00000000000E+00 0. -1.
         11    1    3    3    0    0 -0.13174346042E+01  0.15122780723E+01  0.28043895950E+01  0.34477848202E+01  0.51100000000E-03 0. -1.
        -11    1    3    3    0    0 -0.38682098820E+02 -0.23004714646E+01  0.27750003425E+01  0.38849679088E+02  0.51100000000E-03 0.  1.
         12    1    3    3    0    0 -0.24303265185E+00 -0.49287998345E+01 -0.65881510981E+01  0.82313952383E+01  0.00000000000E+00 0. -1.
</event>
<event>
 7    1  0.2500839E-011  0.5052886E+02  0.7816164E-02  0.1300439E+00
        -11   -1    0    0    0    0  0.00000000000E+00  0.00000000000E+00  0.45593999997E+02  0.45594000000E+02  0.51100000000E-03 0.  1.
         11   -1    0    0    0    0 -0.00000000000E+00 -0.00000000000E+00 -0.45593999997E+02  0.45594000000E+02  0.51100000000E-03 0. -1.
    9900012    2    1    2    0    0 -0.81369688915E+01  0.23673706580E+02  0.32039210604E+02  0.50528860042E+02  0.30000000584E+02 0.  0.
         12    1    1    2    0    0  0.81369688915E+01 -0.23673706580E+02 -0.32039210604E+02  0.40659139958E+02  0.00000000000E+00 0. -1.
         11    1    3    3    0    0  0.42574386579E+01  0.61945993119E+01  0.99299478600E+01  0.12454023821E+02  0.51100000000E-03 0. -1.
        -11    1    3    3    0    0 -0.14534629714E+02  0.11607432773E+02  0.25023219722E+02  0.31179311763E+02  0.51100000000E-03 0.  1.
         12    1    3    3    0    0  0.21402221647E+01  0.58716744949E+01 -0.29139569777E+01  0.68955244584E+01  0.00000000000E+00 0. -1.
</event>
<event>
 7    1  0.2500839E-011  0.5052886E+02  0.7816164E-02  0.1300439E+00
        -11   -1    0    0    0    0  0.00000000000E+00  0.00000000000E+00  0.45593999997E+02  0.45594000000E+02  0.51100000000E-03 0.  1.
         11   -1    0    0    0    0 -0.00000000000E+00 -0.00000000000E+00 -0.45593999997E+02  0.45594000000E+02  0.51100000000E-03 0. -1.
    9900012    2    1    2    0    0  0.12164619524E+02  0.29461230807E+02  0.25243288020E+02  0.50528859835E+02  0.29999999956E+02 0.  0.
         12    1    1    2    0    0 -0.12164619524E+02 -0.29461230807E+02 -0.25243288020E+02  0.40659140165E+02  0.00000000000E+00 0. -1.
         11    1    3    3    0    0  0.50494029557E+01 -0.26030908059E+00 -0.18059531168E+01  0.53689568770E+01  0.51100000000E-03 0. -1.
        -11    1    3    3    0    0  0.74896647037E+01  0.40436798590E+01  0.13924326724E+02  0.16319721173E+02  0.51100000000E-03 0.  1.
        -12    1    3    3    0    0 -0.37444813582E+00  0.25677860029E+02  0.13124914413E+02  0.28840181786E+02  0.00000000000E+00 0.  1.
</event>
<event>
 7    1  0.2500839E-011  0.5052885E+02  0.7816164E-02  0.1300439E+00
        -11   -1    0    0    0    0  0.00000000000E+00  0.00000000000E+00  0.45593999997E+02  0.45594000000E+02  0.51100000000E-03 0. -1.
         11   -1    0    0    0    0 -0.00000000000E+00 -0.00000000000E+00 -0.45593999997E+02  0.45594000000E+02  0.51100000000E-03 0.  1.
    9900012    2    1    2    0    0  0.14090222209E+01 -0.19624573110E+02 -0.35581693959E+02  0.50528853940E+02  0.29999982035E+02 0.  0.
         12    1    1    2    0    0 -0.14090222209E+01  0.19624573110E+02  0.35581693959E+02  0.40659146060E+02  0.00000000000E+00 0. -1.
         11    1    3    3    0    0  0.56294134694E+01 -0.64088899179E+01 -0.74537493943E+00  0.85626952563E+01  0.51100000000E-03 0. -1.
        -11    1    3    3    0    0  0.44785204596E+01 -0.13283177402E+02 -0.26164432036E+02  0.29682948833E+02  0.51100000000E-03 0.  1.
         12    1    3    3    0    0 -0.86989117081E+01  0.67494210199E-01 -0.86718869838E+01  0.12283209851E+02  0.00000000000E+00 0. -1.
</event>
<event>
 7    1  0.2500839E-011  0.5052888E+02  0.7816164E-02  0.1300439E+00
        -11   -1    0    0    0    0  0.00000000000E+00  0.00000000000E+00  0.45593999997E+02  0.45594000000E+02  0.51100000000E-03 0.  1.
         11   -1    0    0    0    0 -0.00000000000E+00 -0.00000000000E+00 -0.45593999997E+02  0.45594000000E+02  0.51100000000E-03 0. -1.
    9900012    2    1    2    0    0 -0.15666039565E+02 -0.20644283056E+02  0.31329747543E+02  0.50528876797E+02  0.30000051511E+02 0.  0.
         12    1    1    2    0    0  0.15666039565E+02  0.20644283056E+02 -0.31329747543E+02  0.40659123203E+02  0.00000000000E+00 0. -1.
         11    1    3    3    0    0 -0.34422824605E+01  0.74585743059E+00  0.13464243174E+02  0.13917307798E+02  0.51100000000E-03 0. -1.
        -11    1    3    3    0    0 -0.13530992624E+02 -0.10623325054E+02  0.19088946877E+02  0.25696900391E+02  0.51100000000E-03 0.  1.
         12    1    3    3    0    0  0.13072355190E+01 -0.10766815432E+02 -0.12234425070E+01  0.10914668608E+02  0.00000000000E+00 0. -1.
</event>
<event>
 7    1  0.2500839E-011  0.5052887E+02  0.7816164E-02  0.1300439E+00
        -11   -1    0    0    0    0  0.00000000000E+00  0.00000000000E+00  0.45593999997E+02  0.45594000000E+02  0.51100000000E-03 0.  1.
         11   -1    0    0    0    0 -0.00000000000E+00 -0.00000000000E+00 -0.45593999997E+02  0.45594000000E+02  0.51100000000E-03 0. -1.
    9900012    2    1    2    0    0 -0.42260258511E+01 -0.19196452456E+02  0.35592156159E+02  0.50528872348E+02  0.30000037988E+02 0.  0.
         12    1    1    2    0    0  0.42260258511E+01  0.19196452456E+02 -0.35592156159E+02  0.40659127652E+02  0.00000000000E+00 0. -1.
         11    1    3    3    0    0 -0.11441617040E+01  0.24406678408E+01  0.99628378738E+01  0.10321051510E+02  0.51100000000E-03 0. -1.
        -11    1    3    3    0    0 -0.91551324283E+01 -0.11518155090E+02  0.24197507545E+02  0.28319670162E+02  0.51100000000E-03 0.  1.
         12    1    3    3    0    0  0.60732682811E+01 -0.10118965207E+02  0.14318107404E+01  0.11888150675E+02  0.00000000000E+00 0. -1.
</event>
<event>
 7    1  0.2500839E-011  0.5052883E+02  0.7816164E-02  0.1300439E+00
        -11   -1    0    0    0    0  0.00000000000E+00  0.00000000000E+00  0.45593999997E+02  0.45594000000E+02  0.51100000000E-03 0. -1.
         11   -1    0    0    0    0 -0.00000000000E+00 -0.00000000000E+00 -0.45593999997E+02  0.45594000000E+02  0.51100000000E-03 0.  1.
    9900012    2    1    2    0    0  0.41691175089E+01  0.33636690771E+02 -0.22457955281E+02  0.50528828068E+02  0.29999903394E+02 0.  0.
         12    1    1    2    0    0 -0.41691175089E+01 -0.33636690771E+02  0.22457955281E+02  0.40659171932E+02  0.00000000000E+00 0. -1.
         11    1    3    3    0    0  0.38286368807E+01  0.17847409451E+02 -0.35844283134E+01  0.18602059323E+02  0.51100000000E-03 0. -1.
        -11    1    3    3    0    0  0.31666937491E+01  0.19998151966E+02 -0.17262326685E+02  0.26607178621E+02  0.51100000000E-03 0.  1.
         12    1    3    3    0    0 -0.28262131210E+01 -0.42088706462E+01 -0.16112002829E+01  0.53195901227E+01  0.00000000000E+00 0. -1.
</event>
<event>
 7    1  0.2500839E-011  0.5052886E+02  0.7816164E-02  0.1300439E+00
        -11   -1    0    0    0    0  0.00000000000E+00  0.00000000000E+00  0.45593999997E+02  0.45594000000E+02  0.51100000000E-03 0. -1.
         11   -1    0    0    0    0 -0.00000000000E+00 -0.00000000000E+00 -0.45593999997E+02  0.45594000000E+02  0.51100000000E-03 0.  1.
    9900012    2    1    2    0    0  0.37691221927E+02 -0.49905139177E+01 -0.14409447638E+02  0.50528860551E+02  0.30000002130E+02 0.  0.
         12    1    1    2    0    0 -0.37691221927E+02  0.49905139177E+01  0.14409447638E+02  0.40659139449E+02  0.00000000000E+00 0. -1.
         11    1    3    3    0    0 -0.20617511358E+00 -0.33401989549E+00 -0.88773316363E+01  0.88860055543E+01  0.51100000000E-03 0. -1.
        -11    1    3    3    0    0  0.12332816796E+01  0.34819504384E+01 -0.97704859712E-01  0.36952008142E+01  0.51100000000E-03 0.  1.
        -12    1    3    3    0    0  0.36664115361E+02 -0.81384444606E+01 -0.54344111421E+01  0.37947654182E+02  0.00000000000E+00 0.  1.
</event>
<event>
 7    1  0.2500839E-011  0.5052886E+02  0.7816164E-02  0.1300439E+00
        -11   -1    0    0    0    0  0.00000000000E+00  0.00000000000E+00  0.45593999997E+02  0.45594000000E+02  0.51100000000E-03 0.  1.
         11   -1    0    0    0    0 -0.00000000000E+00 -0.00000000000E+00 -0.45593999997E+02  0.45594000000E+02  0.51100000000E-03 0. -1.
    9900012    2    1    2    0    0 -0.24634846680E+02 -0.32291788478E+02 -0.18790287744E+01  0.50528855602E+02  0.29999987087E+02 0.  0.
         12    1    1    2    0    0  0.24634846680E+02  0.32291788478E+02  0.18790287744E+01  0.40659144398E+02  0.00000000000E+00 0. -1.
         11    1    3    3    0    0  0.10206776777E+01  0.37636584781E+01  0.14139349523E+01  0.41480260814E+01  0.51100000000E-03 0.  1.
        -11    1    3    3    0    0 -0.74177250239E+00 -0.79393137286E+01 -0.37506477793E+01  0.88119400788E+01  0.51100000000E-03 0. -1.
        -12    1    3    3    0    0 -0.24913751855E+02 -0.28116133228E+02  0.45768405268E+00  0.37568889442E+02  0.00000000000E+00 0.  1.
</event>
<event>
 7    1  0.2500839E-011  0.5052893E+02  0.7816164E-02  0.1300439E+00
        -11   -1    0    0    0    0  0.00000000000E+00  0.00000000000E+00  0.45593999997E+02  0.45594000000E+02  0.51100000000E-03 0. -1.
         11   -1    0    0    0    0 -0.00000000000E+00 -0.00000000000E+00 -0.45593999997E+02  0.45594000000E+02  0.51100000000E-03 0.  1.
    9900012    2    1    2    0    0  0.18382067786E+02  0.32159877819E+02 -0.16763107271E+02  0.50528930620E+02  0.30000215113E+02 0.  0.
         12    1    1    2    0    0 -0.18382067786E+02 -0.32159877819E+02  0.16763107271E+02  0.40659069380E+02  0.00000000000E+00 0. -1.
         11    1    3    3    0    0 -0.18308032947E+01  0.12224766800E+02 -0.79730327191E+01  0.14709385270E+02  0.51100000000E-03 0.  1.
        -11    1    3    3    0    0  0.64679966780E+01  0.19725404512E+02 -0.72439694648E+01  0.21986397114E+02  0.51100000000E-03 0. -1.
        -12    1    3    3    0    0  0.13744874403E+02  0.20970650648E+00 -0.15461050875E+01  0.13833148236E+02  0.00000000000E+00 0.  1.
</event>
<event>
 7    1  0.2500839E-011  0.5052886E+02  0.7816164E-02  0.1300439E+00
        -11   -1    0    0    0    0  0.00000000000E+00  0.00000000000E+00  0.45593999997E+02  0.45594000000E+02  0.51100000000E-03 0. -1.
         11   -1    0    0    0    0 -0.00000000000E+00 -0.00000000000E+00 -0.45593999997E+02  0.45594000000E+02  0.51100000000E-03 0.  1.
    9900012    2    1    2    0    0 -0.12793096331E+01  0.36012237129E+02 -0.18832105624E+02  0.50528855169E+02  0.29999985773E+02 0.  0.
         12    1    1    2    0    0  0.12793096331E+01 -0.36012237129E+02  0.18832105624E+02  0.40659144831E+02  0.00000000000E+00 0. -1.
         11    1    3    3    0    0 -0.16682012187E+01 -0.16793406136E+01 -0.66735556006E+00  0.24593584341E+01  0.51100000000E-03 0. -1.
        -11    1    3    3    0    0 -0.81770533832E+00  0.13655835367E+01 -0.10886069231E+02  0.11001816395E+02  0.51100000000E-03 0.  1.
        -12    1    3    3    0    0  0.12065969239E+01  0.36325994206E+02 -0.72786808322E+01  0.37067680340E+02  0.00000000000E+00 0.  1.
</event>
<event>
 7    1  0.2500839E-011  0.5052886E+02  0.7816164E-02  0.1300439E+00
        -11   -1    0    0    0    0  0.00000000000E+00  0.00000000000E+00  0.45593999997E+02  0.45594000000E+02  0.51100000000E-03 0.  1.
         11   -1    0    0    0    0 -0.00000000000E+00 -0.00000000000E+00 -0.45593999997E+02  0.45594000000E+02  0.51100000000E-03 0. -1.
    9900012    2    1    2    0    0 -0.20136130621E+02 -0.85799899876E+01  0.34264933995E+02  0.50528859746E+02  0.29999999682E+02 0.  0.
         12    1    1    2    0    0  0.20136130621E+02  0.85799899876E+01 -0.34264933995E+02  0.40659140254E+02  0.00000000000E+00 0. -1.
         11    1    3    3    0    0  0.58855797585E+00  0.11972177791E+00 -0.44000686703E+01  0.44408713514E+01  0.51100000000E-03 0. -1.
        -11    1    3    3    0    0 -0.12731298540E+02 -0.12874851961E+00  0.14963050077E+02  0.19646765804E+02  0.51100000000E-03 0.  1.
        -12    1    3    3    0    0 -0.79933900569E+01 -0.85709632459E+01  0.23701952589E+02  0.26441222590E+02  0.00000000000E+00 0.  1.
</event>
<event>
 7    1  0.2500839E-011  0.5052887E+02  0.7816164E-02  0.1300439E+00
        -11   -1    0    0    0    0  0.00000000000E+00  0.00000000000E+00  0.45593999997E+02  0.45594000000E+02  0.51100000000E-03 0.  1.
         11   -1    0    0    0    0 -0.00000000000E+00 -0.00000000000E+00 -0.45593999997E+02  0.45594000000E+02  0.51100000000E-03 0. -1.
    9900012    2    1    2    0    0 -0.35281593167E+02 -0.76317898041E+01  0.18711752895E+02  0.50528871524E+02  0.30000035484E+02 0.  0.
         12    1    1    2    0    0  0.35281593167E+02  0.76317898041E+01 -0.18711752895E+02  0.40659128476E+02  0.00000000000E+00 0. -1.
         11    1    3    3    0    0  0.24385104521E+01 -0.55977117597E-01  0.22483534429E+01  0.33173121843E+01  0.51100000000E-03 0. -1.
        -11    1    3    3    0    0 -0.19373224822E+02  0.64988576789E+01  0.11884424665E+02  0.23638877745E+02  0.51100000000E-03 0.  1.
        -12    1    3    3    0    0 -0.18346878797E+02 -0.14074670365E+02  0.45789747867E+01  0.23572681595E+02  0.00000000000E+00 0.  1.
</event>
<event>
 7    1  0.2500839E-011  0.5052883E+02  0.7816164E-02  0.1300439E+00
        -11   -1    0    0    0    0  0.00000000000E+00  0.00000000000E+00  0.45593999997E+02  0.45594000000E+02  0.51100000000E-03 0.  1.
         11   -1    0    0    0    0 -0.00000000000E+00 -0.00000000000E+00 -0.45593999997E+02  0.45594000000E+02  0.51100000000E-03 0. -1.
    9900012    2    1    2    0    0 -0.17310814733E+02  0.36766977329E+02  0.13012993408E+01  0.50528827497E+02  0.29999901661E+02 0.  0.
         12    1    1    2    0    0  0.17310814733E+02 -0.36766977329E+02 -0.13012993408E+01  0.40659172503E+02  0.00000000000E+00 0. -1.
         11    1    3    3    0    0 -0.21062137456E+00  0.11804573192E+01  0.45562495820E+01  0.47113959036E+01  0.51100000000E-03 0. -1.
        -11    1    3    3    0    0 -0.20511638391E+02  0.17200745887E+02 -0.41865432589E+01  0.27094651008E+02  0.51100000000E-03 0.  1.
         12    1    3    3    0    0  0.34114450323E+01  0.18385774123E+02  0.93159301764E+00  0.18722780586E+02  0.00000000000E+00 0. -1.
</event>
<event>
 7    1  0.2500839E-011  0.5052884E+02  0.7816164E-02  0.1300439E+00
        -11   -1    0    0    0    0  0.00000000000E+00  0.00000000000E+00  0.45593999997E+02  0.45594000000E+02  0.51100000000E-03 0. -1.
         11   -1    0    0    0    0 -0.00000000000E+00 -0.00000000000E+00 -0.45593999997E+02  0.45594000000E+02  0.51100000000E-03 0.  1.
    9900012    2    1    2    0    0 -0.33600176625E+02 -0.22844002639E+02  0.15320839413E+01  0.50528836125E+02  0.29999927887E+02 0.  0.
         12    1    1    2    0    0  0.33600176625E+02  0.22844002639E+02 -0.15320839413E+01  0.40659163875E+02  0.00000000000E+00 0. -1.
         11    1    3    3    0    0 -0.15431407355E+02 -0.70520771562E+01  0.23764669818E+01  0.17132067031E+02  0.51100000000E-03 0. -1.
        -11    1    3    3    0    0 -0.10132130960E+02  0.45990782521E+01  0.19670714425E+01  0.11299600385E+02  0.51100000000E-03 0.  1.
         12    1    3    3    0    0 -0.80366383098E+01 -0.20391003735E+02 -0.28114544830E+01  0.22097168709E+02  0.00000000000E+00 0. -1.
</event>
<event>
 7    1  0.2500839E-011  0.5052887E+02  0.7816164E-02  0.1300439E+00
        -11   -1    0    0    0    0  0.00000000000E+00  0.00000000000E+00  0.45593999997E+02  0.45594000000E+02  0.51100000000E-03 0.  1.
         11   -1    0    0    0    0 -0.00000000000E+00 -0.00000000000E+00 -0.45593999997E+02  0.45594000000E+02  0.51100000000E-03 0. -1.
    9900012    2    1    2    0    0 -0.16899633230E+02  0.21440669151E+02  0.30130804151E+02  0.50528865040E+02  0.30000015775E+02 0.  0.
         12    1    1    2    0    0  0.16899633230E+02 -0.21440669151E+02 -0.30130804151E+02  0.40659134960E+02  0.00000000000E+00 0. -1.
         11    1    3    3    0    0 -0.92975150870E+01  0.29983685812E+01 -0.23603837147E+01  0.10050144899E+02  0.51100000000E-03 0. -1.
        -11    1    3    3    0    0 -0.51396898719E+01  0.17887991215E+01  0.22936137820E+01  0.59056649684E+01  0.51100000000E-03 0.  1.
        -12    1    3    3    0    0 -0.24624282709E+01  0.16653501448E+02  0.30197574083E+02  0.34573055173E+02  0.00000000000E+00 0.  1.
</event>
<event>
 7    1  0.2500839E-011  0.5052886E+02  0.7816164E-02  0.1300439E+00
        -11   -1    0    0    0    0  0.00000000000E+00  0.00000000000E+00  0.45593999997E+02  0.45594000000E+02  0.51100000000E-03 0.  1.
         11   -1    0    0    0    0 -0.00000000000E+00 -0.00000000000E+00 -0.45593999997E+02  0.45594000000E+02  0.51100000000E-03 0. -1.
    9900012    2    1    2    0    0 -0.24715484747E+02 -0.81865025018E+01  0.31229654398E+02  0.50528864209E+02  0.30000013249E+02 0.  0.
         12    1    1    2    0    0  0.24715484747E+02  0.81865025018E+01 -0.31229654398E+02  0.40659135791E+02  0.00000000000E+00 0. -1.
         11    1    3    3    0    0 -0.41068100198E+01 -0.67040288528E+01  0.11458562707E+01  0.79449907648E+01  0.51100000000E-03 0. -1.
        -11    1    3    3    0    0 -0.14287071117E+02 -0.89344807131E+01  0.27863658999E+02  0.32562690917E+02  0.51100000000E-03 0.  1.
        -12    1    3    3    0    0 -0.63216036101E+01  0.74520070640E+01  0.22201391286E+01  0.10021182527E+02  0.00000000000E+00 0.  1.
</event>
<event>
 7    1  0.2500839E-011  0.5052886E+02  0.7816164E-02  0.1300439E+00
        -11   -1    0    0    0    0  0.00000000000E+00  0.00000000000E+00  0.45593999997E+02  0.45594000000E+02  0.51100000000E-03 0.  1.
         11   -1    0    0    0    0 -0.00000000000E+00 -0.00000000000E+00 -0.45593999997E+02  0.45594000000E+02  0.51100000000E-03 0. -1.
    9900012    2    1    2    0    0  0.19561614858E+02 -0.59209517706E+01  0.35148985672E+02  0.50528860320E+02  0.30000001429E+02 0.  0.
         12    1    1    2    0    0 -0.19561614858E+02  0.59209517706E+01 -0.35148985672E+02  0.40659139680E+02  0.00000000000E+00 0. -1.
         11    1    3    3    0    0  0.71600812196E+01  0.45260225283E+01  0.13092088722E+02  0.15593409838E+02  0.51100000000E-03 0.  1.
        -11    1    3    3    0    0  0.15320304577E+01  0.25204943036E+01 -0.33160944742E+01  0.44380729693E+01  0.51100000000E-03 0. -1.
        -12    1    3    3    0    0  0.10869503181E+02 -0.12967468602E+02  0.25372991424E+02  0.30497377513E+02  0.00000000000E+00 0.  1.
</event>
<event>
 7    1  0.2500839E-011  0.5052886E+02  0.7816164E-02  0.1300439E+00
        -11   -1    0    0    0    0  0.00000000000E+00  0.00000000000E+00  0.45593999997E+02  0.45594000000E+02  0.51100000000E-03 0.  1.
         11   -1    0    0    0    0 -0.00000000000E+00 -0.00000000000E+00 -0.45593999997E+02  0.45594000000E+02  0.51100000000E-03 0. -1.
    9900012    2    1    2    0    0  0.36209160247E+02 -0.30843998564E+01  0.18235923902E+02  0.50528859222E+02  0.29999998090E+02 0.  0.
         12    1    1    2    0    0 -0.36209160247E+02  0.30843998564E+01 -0.18235923902E+02  0.40659140778E+02  0.00000000000E+00 0. -1.
         11    1    3    3    0    0  0.71937816353E+01  0.26483341187E+01 -0.27876138516E+01  0.81568964115E+01  0.51100000000E-03 0. -1.
        -11    1    3    3    0    0 -0.33734106187E+01 -0.88790804249E+00  0.44904135605E+01  0.56861317343E+01  0.51100000000E-03 0.  1.
        -12    1    3    3    0    0  0.32388789231E+02 -0.48448259326E+01  0.16533124193E+02  0.36685831076E+02  0.00000000000E+00 0.  1.
</event>
<event>
 7    1  0.2500839E-011  0.5052885E+02  0.7816164E-02  0.1300439E+00
        -11   -1    0    0    0    0  0.00000000000E+00  0.00000000000E+00  0.45593999997E+02  0.45594000000E+02  0.51100000000E-03 0. -1.
         11   -1    0    0    0    0 -0.00000000000E+00 -0.00000000000E+00 -0.45593999997E+02  0.45594000000E+02  0.51100000000E-03 0.  1.
    9900012    2    1    2    0    0 -0.51928980724E+01  0.28610505778E+02  0.28418994782E+02  0.50528849792E+02  0.29999969427E+02 0.  0.
         12    1    1    2    0    0  0.51928980724E+01 -0.28610505778E+02 -0.28418994782E+02  0.40659150208E+02  0.00000000000E+00 0. -1.
         11    1    3    3    0    0  0.66035013627E-01 -0.11895274489E+01 -0.11505568473E+00  0.11969019368E+01  0.51100000000E-03 0. -1.
        -11    1    3    3    0    0 -0.20124529270E+01 -0.49428512967E+01  0.41879627113E+01  0.67838615594E+01  0.51100000000E-03 0.  1.
         12    1    3    3    0    0 -0.32464801591E+01  0.34742884523E+02  0.24346087755E+02  0.42548086296E+02  0.00000000000E+00 0. -1.
</event>
<event>
 7    1  0.2500839E-011  0.5052886E+02  0.7816164E-02  0.1300439E+00
        -11   -1    0    0    0    0  0.00000000000E+00  0.00000000000E+00  0.45593999997E+02  0.45594000000E+02  0.51100000000E-03 0.  1.
         11   -1    0    0    0    0 -0.00000000000E+00 -0.00000000000E+00 -0.45593999997E+02  0.45594000000E+02  0.51100000000E-03 0. -1.
    9900012    2    1    2    0    0 -0.87787980078E+01 -0.22997485730E+02  0.32360683080E+02  0.50528862604E+02  0.30000008371E+02 0.  0.
         12    1    1    2    0    0  0.87787980078E+01  0.22997485730E+02 -0.32360683080E+02  0.40659137396E+02  0.00000000000E+00 0. -1.
         11    1    3    3    0    0  0.35324473131E+01 -0.10391699924E+02  0.60531450352E+01  0.12534200270E+02  0.51100000000E-03 0. -1.
        -11    1    3    3    0    0 -0.10941324046E+02 -0.14198545926E+02  0.81068641571E+01  0.19673142225E+02  0.51100000000E-03 0.  1.
         12    1    3    3    0    0 -0.13699212749E+01  0.15927601202E+01  0.18200673888E+02  0.18321520108E+02  0.00000000000E+00 0. -1.
</event>
<event>
 7    1  0.2500839E-011  0.5052886E+02  0.7816164E-02  0.1300439E+00
        -11   -1    0    0    0    0  0.00000000000E+00  0.00000000000E+00  0.45593999997E+02  0.45594000000E+02  0.51100000000E-03 0. -1.
         11   -1    0    0    0    0 -0.00000000000E+00 -0.00000000000E+00 -0.45593999997E+02  0.45594000000E+02  0.51100000000E-03 0.  1.
    9900012    2    1    2    0    0 -0.28441752398E+02 -0.13863754302E+01 -0.29022589129E+02  0.50528855936E+02  0.29999988102E+02 0.  0.
         12    1    1    2    0    0  0.28441752398E+02  0.13863754302E+01  0.29022589129E+02  0.40659144064E+02  0.00000000000E+00 0. -1.
         11    1    3    3    0    0 -0.17662994349E+02 -0.34677207867E+01  0.15001278131E+01  0.18062581226E+02  0.51100000000E-03 0. -1.
        -11    1    3    3    0    0 -0.21973373768E+01  0.38528902083E+00 -0.47086419752E+01  0.52103789391E+01  0.51100000000E-03 0.  1.
         12    1    3    3    0    0 -0.85814206717E+01  0.16960563357E+01 -0.25814074967E+02  0.27255895770E+02  0.00000000000E+00 0. -1.
</event>
<event>
 7    1  0.2500839E-011  0.5052886E+02  0.7816164E-02  0.1300439E+00
        -11   -1    0    0    0    0  0.00000000000E+00  0.00000000000E+00  0.45593999997E+02  0.45594000000E+02  0.51100000000E-03 0.  1.
         11   -1    0    0    0    0 -0.00000000000E+00 -0.00000000000E+00 -0.45593999997E+02  0.45594000000E+02  0.51100000000E-03 0. -1.
    9900012    2    1    2    0    0  0.26315777824E+01  0.77957141522E+01  0.39817927877E+02  0.50528859070E+02  0.29999997629E+02 0.  0.
         12    1    1    2    0    0 -0.26315777824E+01 -0.77957141522E+01 -0.39817927877E+02  0.40659140930E+02  0.00000000000E+00 0. -1.
         11    1    3    3    0    0 -0.92396525464E+01  0.22510228470E+01  0.11901635056E+02  0.15234408433E+02  0.51100000000E-03 0. -1.
        -11    1    3    3    0    0  0.93564775992E+01  0.62458897218E+00  0.28243230809E+02  0.29759265301E+02  0.51100000000E-03 0.  1.
         12    1    3    3    0    0  0.25147527296E+01  0.49201023331E+01 -0.32693798847E+00  0.55351853363E+01  0.00000000000E+00 0. -1.
</event>
<event>
 7    1  0.2500839E-011  0.5052885E+02  0.7816164E-02  0.1300439E+00
        -11   -1    0    0    0    0  0.00000000000E+00  0.00000000000E+00  0.45593999997E+02  0.45594000000E+02  0.51100000000E-03 0. -1.
         11   -1    0    0    0    0 -0.00000000000E+00 -0.00000000000E+00 -0.45593999997E+02  0.45594000000E+02  0.51100000000E-03 0.  1.
    9900012    2    1    2    0    0  0.46788314230E+01 -0.42293974030E+01 -0.40166994215E+02  0.50528847400E+02  0.29999962158E+02 0.  0.
         12    1    1    2    0    0 -0.46788314230E+01  0.42293974030E+01  0.40166994215E+02  0.40659152600E+02  0.00000000000E+00 0. -1.
         11    1    3    3    0    0  0.54753298062E+01 -0.37438499164E+01 -0.51423572288E+01  0.83928235305E+01  0.51100000000E-03 0. -1.
        -11    1    3    3    0    0  0.85224141887E+01 -0.54112463552E+01 -0.72508278087E+01  0.12429305487E+02  0.51100000000E-03 0.  1.
        -12    1    3    3    0    0 -0.93189125719E+01  0.49256988687E+01 -0.27773809177E+02  0.29706718383E+02  0.00000000000E+00 0.  1.
</event>
<event>
 7    1  0.2500839E-011  0.5052886E+02  0.7816164E-02  0.1300439E+00
        -11   -1    0    0    0    0  0.00000000000E+00  0.00000000000E+00  0.45593999997E+02  0.45594000000E+02  0.51100000000E-03 0. -1.
         11   -1    0    0    0    0 -0.00000000000E+00 -0.00000000000E+00 -0.45593999997E+02  0.45594000000E+02  0.51100000000E-03 0.  1.
    9900012    2    1    2    0    0 -0.68299574270E+01  0.39394159004E+02 -0.73903752153E+01  0.50528859233E+02  0.29999998124E+02 0.  0.
         12    1    1    2    0    0  0.68299574270E+01 -0.39394159004E+02  0.73903752153E+01  0.40659140767E+02  0.00000000000E+00 0. -1.
         11    1    3    3    0    0 -0.24688010139E+01  0.14431730883E-01 -0.16177247456E+01  0.29516470546E+01  0.51100000000E-03 0. -1.
        -11    1    3    3    0    0 -0.58785717441E+01 -0.16557027796E+01 -0.15237350592E+01  0.62944996812E+01  0.51100000000E-03 0.  1.
         12    1    3    3    0    0  0.15174153310E+01  0.41035430053E+02 -0.42489154105E+01  0.41282712497E+02  0.00000000000E+00 0. -1.
</event>
<event>
 7    1  0.2500839E-011  0.5052887E+02  0.7816164E-02  0.1300439E+00
        -11   -1    0    0    0    0  0.00000000000E+00  0.00000000000E+00  0.45593999997E+02  0.45594000000E+02  0.51100000000E-03 0.  1.
         11   -1    0    0    0    0 -0.00000000000E+00 -0.00000000000E+00 -0.45593999997E+02  0.45594000000E+02  0.51100000000E-03 0. -1.
    9900012    2    1    2    0    0  0.24958647458E+02  0.12481172489E+02  0.29571121283E+02  0.50528868632E+02  0.30000026693E+02 0.  0.
         12    1    1    2    0    0 -0.24958647458E+02 -0.12481172489E+02 -0.29571121283E+02  0.40659131368E+02  0.00000000000E+00 0. -1.
         11    1    3    3    0    0  0.19825373458E+01 -0.64590448688E-03 -0.53356269938E+01  0.56920444853E+01  0.51100000000E-03 0. -1.
        -11    1    3    3    0    0  0.12046059551E+02  0.80298148259E+01  0.11021885399E+02  0.18195258582E+02  0.51100000000E-03 0.  1.
        -12    1    3    3    0    0  0.10930050562E+02  0.44520035677E+01  0.23884862878E+02  0.26641565565E+02  0.00000000000E+00 0.  1.
</event>
<event>
 7    1  0.2500839E-011  0.5052886E+02  0.7816164E-02  0.1300439E+00
        -11   -1    0    0    0    0  0.00000000000E+00  0.00000000000E+00  0.45593999997E+02  0.45594000000E+02  0.51100000000E-03 0.  1.
         11   -1    0    0    0    0 -0.00000000000E+00 -0.00000000000E+00 -0.45593999997E+02  0.45594000000E+02  0.51100000000E-03 0. -1.
    9900012    2    1    2    0    0  0.30759749690E+02  0.16281440911E+02  0.21021842099E+02  0.50528863704E+02  0.30000011714E+02 0.  0.
         12    1    1    2    0    0 -0.30759749690E+02 -0.16281440911E+02 -0.21021842099E+02  0.40659136296E+02  0.00000000000E+00 0. -1.
         11    1    3    3    0    0  0.25994463912E+02  0.12713700719E+02  0.20056629856E+02  0.35208219800E+02  0.51100000000E-03 0. -1.
        -11    1    3    3    0    0  0.47539469835E+01  0.84648857843E+01  0.27790184697E+01  0.10098378443E+02  0.51100000000E-03 0.  1.
         12    1    3    3    0    0  0.11338794578E-01 -0.48971455917E+01 -0.18138062268E+01  0.52222654608E+01  0.00000000000E+00 0. -1.
</event>
<event>
 7    1  0.2500839E-011  0.5052886E+02  0.7816164E-02  0.1300439E+00
        -11   -1    0    0    0    0  0.00000000000E+00  0.00000000000E+00  0.45593999997E+02  0.45594000000E+02  0.51100000000E-03 0. -1.
         11   -1    0    0    0    0 -0.00000000000E+00 -0.00000000000E+00 -0.45593999997E+02  0.45594000000E+02  0.51100000000E-03 0.  1.
    9900012    2    1    2    0    0  0.16580663575E+02 -0.14160708628E+02 -0.34317951568E+02  0.50528857445E+02  0.29999992691E+02 0.  0.
         12    1    1    2    0    0 -0.16580663575E+02  0.14160708628E+02  0.34317951568E+02  0.40659142555E+02  0.00000000000E+00 0. -1.
         11    1    3    3    0    0  0.26979265168E+01  0.36599143124E+01 -0.16641605221E+02  0.17251573982E+02  0.51100000000E-03 0. -1.
        -11    1    3    3    0    0  0.13612801918E+02 -0.39343631941E+01 -0.10555465231E+02  0.17669336046E+02  0.51100000000E-03 0.  1.
         12    1    3    3    0    0  0.26993514065E+00 -0.13886259746E+02 -0.71208811157E+01  0.15607947417E+02  0.00000000000E+00 0. -1.
</event>
<event>
 7    1  0.2500839E-011  0.5052888E+02  0.7816164E-02  0.1300439E+00
        -11   -1    0    0    0    0  0.00000000000E+00  0.00000000000E+00  0.45593999997E+02  0.45594000000E+02  0.51100000000E-03 0.  1.
         11   -1    0    0    0    0 -0.00000000000E+00 -0.00000000000E+00 -0.45593999997E+02  0.45594000000E+02  0.51100000000E-03 0. -1.
    9900012    2    1    2    0    0 -0.18922069935E+02 -0.30897206286E+02  0.18452148415E+02  0.50528882105E+02  0.30000067645E+02 0.  0.
         12    1    1    2    0    0  0.18922069935E+02  0.30897206286E+02 -0.18452148415E+02  0.40659117895E+02  0.00000000000E+00 0. -1.
         11    1    3    3    0    0 -0.42187407916E+01 -0.88236772505E+01  0.36614391159E+01  0.10443236603E+02  0.51100000000E-03 0. -1.
        -11    1    3    3    0    0 -0.18815729813E+02 -0.93406695263E+01  0.16343174585E+02  0.26615393128E+02  0.51100000000E-03 0.  1.
         12    1    3    3    0    0  0.41124006692E+01 -0.12732859509E+02 -0.15524652859E+01  0.13470252373E+02  0.00000000000E+00 0. -1.
</event>
<event>
 7    1  0.2648096E-011  0.5052886E+02  0.7816164E-02  0.1300439E+00
        -11   -1    0    0    0    0  0.00000000000E+00  0.00000000000E+00  0.45593999997E+02  0.45594000000E+02  0.51100000000E-03 0.  1.
         11   -1    0    0    0    0 -0.00000000000E+00 -0.00000000000E+00 -0.45593999997E+02  0.45594000000E+02  0.51100000000E-03 0. -1.
    9900012    2    1    2    0    0 -0.32550504190E+02 -0.22394186131E+02 -0.95984686014E+01  0.50528862097E+02  0.30000006831E+02 0.  0.
         12    1    1    2    0    0  0.32550504190E+02  0.22394186131E+02  0.95984686014E+01  0.40659137903E+02  0.00000000000E+00 0. -1.
         11    1    3    3    0    0 -0.12987534470E+02  0.15415544512E+01 -0.37034796488E+01  0.13592946830E+02  0.51100000000E-03 0. -1.
        -11    1    3    3    0    0 -0.21268331465E+02 -0.19370159533E+02 -0.10110471128E+02  0.30492074877E+02  0.51100000000E-03 0.  1.
        -12    1    3    3    0    0  0.17053617456E+01 -0.45655810495E+01  0.42154821751E+01  0.64438403900E+01  0.00000000000E+00 0.  1.
</event>
<event>
 7    1  0.2500839E-011  0.5052886E+02  0.7816164E-02  0.1300439E+00
        -11   -1    0    0    0    0  0.00000000000E+00  0.00000000000E+00  0.45593999997E+02  0.45594000000E+02  0.51100000000E-03 0.  1.
         11   -1    0    0    0    0 -0.00000000000E+00 -0.00000000000E+00 -0.45593999997E+02  0.45594000000E+02  0.51100000000E-03 0. -1.
    9900012    2    1    2    0    0 -0.44988081410E+01 -0.12934635725E+02  0.38283441240E+02  0.50528856512E+02  0.29999989853E+02 0.  0.
         12    1    1    2    0    0  0.44988081410E+01  0.12934635725E+02 -0.38283441240E+02  0.40659143488E+02  0.00000000000E+00 0. -1.
         11    1    3    3    0    0 -0.19350394801E+00 -0.70754438812E+01  0.23726849099E+01  0.74651847825E+01  0.51100000000E-03 0. -1.
        -11    1    3    3    0    0 -0.22184988387E+00 -0.13341846360E+02  0.29564691951E+02  0.32436477800E+02  0.51100000000E-03 0.  1.
        -12    1    3    3    0    0 -0.40834543091E+01  0.74826545159E+01  0.63460643791E+01  0.10627193929E+02  0.00000000000E+00 0.  1.
</event>
<event>
 7    1  0.2500839E-011  0.5052886E+02  0.7816164E-02  0.1300439E+00
        -11   -1    0    0    0    0  0.00000000000E+00  0.00000000000E+00  0.45593999997E+02  0.45594000000E+02  0.51100000000E-03 0.  1.
         11   -1    0    0    0    0 -0.00000000000E+00 -0.00000000000E+00 -0.45593999997E+02  0.45594000000E+02  0.51100000000E-03 0. -1.
    9900012    2    1    2    0    0 -0.85615607818E+01 -0.22227106275E+02  0.32951802116E+02  0.50528857866E+02  0.29999993969E+02 0.  0.
         12    1    1    2    0    0  0.85615607818E+01  0.22227106275E+02 -0.32951802116E+02  0.40659142134E+02  0.00000000000E+00 0. -1.
         11    1    3    3    0    0  0.72456485307E+01 -0.27572550079E+01  0.60270904974E+01  0.98197605844E+01  0.51100000000E-03 0. -1.
        -11    1    3    3    0    0 -0.87349912222E+01 -0.91460197081E+01  0.25041894948E+02  0.28054344602E+02  0.51100000000E-03 0.  1.
        -12    1    3    3    0    0 -0.70722180903E+01 -0.10323831559E+02  0.18828166705E+01  0.12654752680E+02  0.00000000000E+00 0.  1.
</event>
<event>
 7    1  0.2500839E-011  0.5052886E+02  0.7816164E-02  0.1300439E+00
        -11   -1    0    0    0    0  0.00000000000E+00  0.00000000000E+00  0.45593999997E+02  0.45594000000E+02  0.51100000000E-03 0. -1.
         11   -1    0    0    0    0 -0.00000000000E+00 -0.00000000000E+00 -0.45593999997E+02  0.45594000000E+02  0.51100000000E-03 0.  1.
    9900012    2    1    2    0    0  0.32495233946E+02 -0.11924044069E+02 -0.21331730730E+02  0.50528858444E+02  0.29999995726E+02 0.  0.
         12    1    1    2    0    0 -0.32495233946E+02  0.11924044069E+02  0.21331730730E+02  0.40659141556E+02  0.00000000000E+00 0. -1.
         11    1    3    3    0    0  0.13028664467E+02 -0.94982671991E+01 -0.14594507124E+02  0.21747708293E+02  0.51100000000E-03 0. -1.
        -11    1    3    3    0    0  0.23137794459E+02  0.63249558640E+00 -0.48835071171E+01  0.23655997656E+02  0.51100000000E-03 0.  1.
         12    1    3    3    0    0 -0.36712249797E+01 -0.30582724562E+01 -0.18537164892E+01  0.51251524944E+01  0.00000000000E+00 0. -1.
</event>
<event>
 7    1  0.2856934E-011  0.5052888E+02  0.7816164E-02  0.1300439E+00
        -11   -1    0    0    0    0  0.00000000000E+00  0.00000000000E+00  0.45593999997E+02  0.45594000000E+02  0.51100000000E-03 0.  1.
         11   -1    0    0    0    0 -0.00000000000E+00 -0.00000000000E+00 -0.45593999997E+02  0.45594000000E+02  0.51100000000E-03 0. -1.
    9900012    2    1    2    0    0  0.37483304776E+02 -0.12841284364E+02  0.91250879178E+01  0.50528881090E+02  0.30000064560E+02 0.  0.
         12    1    1    2    0    0 -0.37483304776E+02  0.12841284364E+02 -0.91250879178E+01  0.40659118910E+02  0.00000000000E+00 0. -1.
         11    1    3    3    0    0 -0.10865918426E+01 -0.24380881527E+01  0.63094192796E+01  0.68508194824E+01  0.51100000000E-03 0. -1.
        -11    1    3    3    0    0  0.12309644743E+02  0.18109081451E+01 -0.54150406291E+01  0.13569429144E+02  0.51100000000E-03 0.  1.
        -12    1    3    3    0    0  0.26260251876E+02 -0.12214104356E+02  0.82307092673E+01  0.30108632464E+02  0.00000000000E+00 0.  1.
</event>
<event>
 7    1  0.2500839E-011  0.5052886E+02  0.7816164E-02  0.1300439E+00
        -11   -1    0    0    0    0  0.00000000000E+00  0.00000000000E+00  0.45593999997E+02  0.45594000000E+02  0.51100000000E-03 0.  1.
         11   -1    0    0    0    0 -0.00000000000E+00 -0.00000000000E+00 -0.45593999997E+02  0.45594000000E+02  0.51100000000E-03 0. -1.
    9900012    2    1    2    0    0 -0.32948377646E+02  0.73483460503E+01  0.22662119167E+02  0.50528862967E+02  0.30000009473E+02 0.  0.
         12    1    1    2    0    0  0.32948377646E+02 -0.73483460503E+01 -0.22662119167E+02  0.40659137033E+02  0.00000000000E+00 0. -1.
         11    1    3    3    0    0  0.22810386720E+01  0.84859998927E+00  0.60680659164E+01  0.65379418468E+01  0.51100000000E-03 0. -1.
        -11    1    3    3    0    0 -0.20551630992E+02  0.54930386127E+01  0.19655554986E+02  0.28963491705E+02  0.51100000000E-03 0.  1.
         12    1    3    3    0    0 -0.14677785326E+02  0.10067074483E+01 -0.30615017357E+01  0.15027429415E+02  0.00000000000E+00 0. -1.
</event>
<event>
 7    1  0.2500839E-011  0.5052886E+02  0.7816164E-02  0.1300439E+00
        -11   -1    0    0    0    0  0.00000000000E+00  0.00000000000E+00  0.45593999997E+02  0.45594000000E+02  0.51100000000E-03 0. -1.
         11   -1    0    0    0    0 -0.00000000000E+00 -0.00000000000E+00 -0.45593999997E+02  0.45594000000E+02  0.51100000000E-03 0.  1.
    9900012    2    1    2    0    0  0.16551392343E+02 -0.30743005475E+02 -0.20834701145E+02  0.50528859012E+02  0.29999997453E+02 0.  0.
         12    1    1    2    0    0 -0.16551392343E+02  0.30743005475E+02  0.20834701145E+02  0.40659140988E+02  0.00000000000E+00 0. -1.
         11    1    3    3    0    0  0.12560941319E+02 -0.57515680969E+01  0.25039506376E+01  0.14040211945E+02  0.51100000000E-03 0. -1.
        -11    1    3    3    0    0  0.86118705124E+00 -0.53659299554E+00 -0.66270183735E+01  0.67042485010E+01  0.51100000000E-03 0.  1.
         12    1    3    3    0    0  0.31292639724E+01 -0.24454844382E+02 -0.16711633409E+02  0.29784398566E+02  0.00000000000E+00 0. -1.
</event>
<event>
 7    1  0.2500839E-011  0.5052885E+02  0.7816164E-02  0.1300439E+00
        -11   -1    0    0    0    0  0.00000000000E+00  0.00000000000E+00  0.45593999997E+02  0.45594000000E+02  0.51100000000E-03 0. -1.
         11   -1    0    0    0    0 -0.00000000000E+00 -0.00000000000E+00 -0.45593999997E+02  0.45594000000E+02  0.51100000000E-03 0.  1.
    9900012    2    1    2    0    0  0.37538241259E+02 -0.71044034336E+01 -0.13913090131E+02  0.50528853649E+02  0.29999981152E+02 0.  0.
         12    1    1    2    0    0 -0.37538241259E+02  0.71044034336E+01  0.13913090131E+02  0.40659146351E+02  0.00000000000E+00 0. -1.
         11    1    3    3    0    0  0.58441055262E+00 -0.13949605865E+01 -0.24924768148E+01  0.29154573681E+01  0.51100000000E-03 0.  1.
        -11    1    3    3    0    0 -0.10185039245E+01 -0.81018879531E+01 -0.16391253697E+01  0.83285455446E+01  0.51100000000E-03 0. -1.
         12    1    3    3    0    0  0.37972334631E+02  0.23924451060E+01 -0.97814879466E+01  0.39284850736E+02  0.00000000000E+00 0. -1.
</event>
<event>
 7    1  0.3403200E-011  0.5052882E+02  0.7816164E-02  0.1300439E+00
        -11   -1    0    0    0    0  0.00000000000E+00  0.00000000000E+00  0.45593999997E+02  0.45594000000E+02  0.51100000000E-03 0. -1.
         11   -1    0    0    0    0 -0.00000000000E+00 -0.00000000000E+00 -0.45593999997E+02  0.45594000000E+02  0.51100000000E-03 0.  1.
    9900012    2    1    2    0    0  0.70452984468E+01 -0.13689015969E+02 -0.37631685542E+02  0.50528817210E+02  0.29999870392E+02 0.  0.
         12    1    1    2    0    0 -0.70452984468E+01  0.13689015969E+02  0.37631685542E+02  0.40659182790E+02  0.00000000000E+00 0. -1.
         11    1    3    3    0    0 -0.18545240557E+01  0.62776132601E+01 -0.62024358282E+01  0.90176437155E+01  0.51100000000E-03 0. -1.
        -11    1    3    3    0    0 -0.38349587689E+01 -0.59761139436E+01 -0.14407236692E+02  0.16062045822E+02  0.51100000000E-03 0.  1.
        -12    1    3    3    0    0  0.12734781271E+02 -0.13990515286E+02 -0.17022013022E+02  0.25449127673E+02  0.00000000000E+00 0.  1.
</event>
<event>
 7    1  0.2500839E-011  0.5052885E+02  0.7816164E-02  0.1300439E+00
        -11   -1    0    0    0    0  0.00000000000E+00  0.00000000000E+00  0.45593999997E+02  0.45594000000E+02  0.51100000000E-03 0. -1.
         11   -1    0    0    0    0 -0.00000000000E+00 -0.00000000000E+00 -0.45593999997E+02  0.45594000000E+02  0.51100000000E-03 0.  1.
    9900012    2    1    2    0    0  0.29881850702E+02 -0.27322688813E+02 -0.37029402224E+01  0.50528854761E+02  0.29999984531E+02 0.  0.
         12    1    1    2    0    0 -0.29881850702E+02  0.27322688813E+02  0.37029402224E+01  0.40659145239E+02  0.00000000000E+00 0. -1.
         11    1    3    3    0    0 -0.48117325952E+01 -0.74514932793E+01 -0.32417141059E+01  0.94438463172E+01  0.51100000000E-03 0. -1.
        -11    1    3    3    0    0  0.96204006479E+01 -0.10398547371E+02 -0.16105172310E+01  0.14257477409E+02  0.51100000000E-03 0.  1.
        -12    1    3    3    0    0  0.25073182649E+02 -0.94726481624E+01  0.11492911144E+01  0.26827531035E+02  0.00000000000E+00 0.  1.
</event>
<event>
 7    1  0.2500839E-011  0.5052887E+02  0.7816164E-02  0.1300439E+00
        -11   -1    0    0    0    0  0.00000000000E+00  0.00000000000E+00  0.45593999997E+02  0.45594000000E+02  0.51100000000E-03 0.  1.
         11   -1    0    0    0    0 -0.00000000000E+00 -0.00000000000E+00 -0.45593999997E+02  0.45594000000E+02  0.51100000000E-03 0. -1.
    9900012    2    1    2    0    0  0.18119774585E+01 -0.21844506039E+02  0.34244696380E+02  0.50528868965E+02  0.30000027705E+02 0.  0.
         12    1    1    2    0    0 -0.18119774585E+01  0.21844506039E+02 -0.34244696380E+02  0.40659131035E+02  0.00000000000E+00 0. -1.
         11    1    3    3    0    0 -0.49238849831E+01 -0.60650191308E+01 -0.13042586459E+01  0.79202393436E+01  0.51100000000E-03 0. -1.
        -11    1    3    3    0    0  0.29355177196E+01  0.30745209008E+01  0.60806039251E+01  0.74191433068E+01  0.51100000000E-03 0.  1.
        -12    1    3    3    0    0  0.38003447220E+01 -0.18854007810E+02  0.29468351100E+02  0.35189486314E+02  0.00000000000E+00 0.  1.
</event>
<event>
 7    1  0.2500839E-011  0.5052886E+02  0.7816164E-02  0.1300439E+00
        -11   -1    0    0    0    0  0.00000000000E+00  0.00000000000E+00  0.45593999997E+02  0.45594000000E+02  0.51100000000E-03 0.  1.
         11   -1    0    0    0    0 -0.00000000000E+00 -0.00000000000E+00 -0.45593999997E+02  0.45594000000E+02  0.51100000000E-03 0. -1.
    9900012    2    1    2    0    0  0.24945823838E+02  0.14159374487E+01  0.32075949146E+02  0.50528861796E+02  0.30000005916E+02 0.  0.
         12    1    1    2    0    0 -0.24945823838E+02 -0.14159374487E+01 -0.32075949146E+02  0.40659138204E+02  0.00000000000E+00 0. -1.
         11    1    3    3    0    0 -0.40044011207E+01 -0.12049345124E+01  0.29743092402E+01  0.51316285166E+01  0.51100000000E-03 0. -1.
        -11    1    3    3    0    0  0.25818316858E+02  0.32867637472E+01  0.13211821717E+02  0.29188020397E+02  0.51100000000E-03 0.  1.
         12    1    3    3    0    0  0.31319081007E+01 -0.66589178601E+00  0.15889818189E+02  0.16209212883E+02  0.00000000000E+00 0. -1.
</event>
<event>
 7    1  0.2500839E-011  0.5052886E+02  0.7816164E-02  0.1300439E+00
        -11   -1    0    0    0    0  0.00000000000E+00  0.00000000000E+00  0.45593999997E+02  0.45594000000E+02  0.51100000000E-03 0. -1.
         11   -1    0    0    0    0 -0.00000000000E+00 -0.00000000000E+00 -0.45593999997E+02  0.45594000000E+02  0.51100000000E-03 0.  1.
    9900012    2    1    2    0    0 -0.27125281561E+01  0.37921047182E+02 -0.14415333174E+02  0.50528862541E+02  0.30000008180E+02 0.  0.
         12    1    1    2    0    0  0.27125281561E+01 -0.37921047182E+02  0.14415333174E+02  0.40659137459E+02  0.00000000000E+00 0. -1.
         11    1    3    3    0    0  0.54155805864E+01  0.58936660436E+01  0.86447872761E-01  0.80044541361E+01  0.51100000000E-03 0. -1.
        -11    1    3    3    0    0 -0.38934687095E+01  0.17895950743E+01  0.47748058514E+01  0.64156465224E+01  0.51100000000E-03 0.  1.
        -12    1    3    3    0    0 -0.42346400330E+01  0.30237786064E+02 -0.19276586898E+02  0.36108761883E+02  0.00000000000E+00 0.  1.
</event>
<event>
 7    1  0.2500839E-011  0.5052886E+02  0.7816164E-02  0.1300439E+00
        -11   -1    0    0    0    0  0.00000000000E+00  0.00000000000E+00  0.45593999997E+02  0.45594000000E+02  0.51100000000E-03 0.  1.
         11   -1    0    0    0    0 -0.00000000000E+00 -0.00000000000E+00 -0.45593999997E+02  0.45594000000E+02  0.51100000000E-03 0. -1.
    9900012    2    1    2    0    0 -0.10602507793E+02 -0.10496085902E+02  0.37823069079E+02  0.50528861478E+02  0.30000004948E+02 0.  0.
         12    1    1    2    0    0  0.10602507793E+02  0.10496085902E+02 -0.37823069079E+02  0.40659138522E+02  0.00000000000E+00 0. -1.
         11    1    3    3    0    0 -0.12219915893E+02 -0.28996487782E+00  0.53991762010E+01  0.13362691644E+02  0.51100000000E-03 0. -1.
        -11    1    3    3    0    0 -0.39762364996E+01 -0.10621275608E+02  0.14641527866E+02  0.18520159037E+02  0.51100000000E-03 0.  1.
        -12    1    3    3    0    0  0.55936445990E+01  0.41515458313E+00  0.17782365012E+02  0.18646010797E+02  0.00000000000E+00 0.  1.
</event>
<event>
 7    1  0.2500839E-011  0.5052886E+02  0.7816164E-02  0.1300439E+00
        -11   -1    0    0    0    0  0.00000000000E+00  0.00000000000E+00  0.45593999997E+02  0.45594000000E+02  0.51100000000E-03 0.  1.
         11   -1    0    0    0    0 -0.00000000000E+00 -0.00000000000E+00 -0.45593999997E+02  0.45594000000E+02  0.51100000000E-03 0. -1.
    9900012    2    1    2    0    0  0.24604061593E+00 -0.71894334188E+01  0.40017710208E+02  0.50528860570E+02  0.30000002189E+02 0.  0.
         12    1    1    2    0    0 -0.24604061593E+00  0.71894334188E+01 -0.40017710208E+02  0.40659139430E+02  0.00000000000E+00 0. -1.
         11    1    3    3    0    0 -0.71989466774E+01 -0.15327773780E+02  0.14161158954E+02  0.22074961053E+02  0.51100000000E-03 0. -1.
        -11    1    3    3    0    0  0.19498735174E+00  0.16720417885E+01  0.15922600064E+01  0.23171180373E+01  0.51100000000E-03 0.  1.
        -12    1    3    3    0    0  0.72499999416E+01  0.64662985723E+01  0.24264291248E+02  0.26136781480E+02  0.00000000000E+00 0.  1.
</event>
<event>
 7    1  0.2500839E-011  0.5052886E+02  0.7816164E-02  0.1300439E+00
        -11   -1    0    0    0    0  0.00000000000E+00  0.00000000000E+00  0.45593999997E+02  0.45594000000E+02  0.51100000000E-03 0.  1.
         11   -1    0    0    0    0 -0.00000000000E+00 -0.00000000000E+00 -0.45593999997E+02  0.45594000000E+02  0.51100000000E-03 0. -1.
    9900012    2    1    2    0    0 -0.14030544988E+02  0.61846765220E+01  0.37657132118E+02  0.50528855694E+02  0.29999987366E+02 0.  0.
         12    1    1    2    0    0  0.14030544988E+02 -0.61846765220E+01 -0.37657132118E+02  0.40659144306E+02  0.00000000000E+00 0. -1.
         11    1    3    3    0    0  0.23282615459E+01  0.80900070193E+01  0.18478163867E+02  0.20305456300E+02  0.51100000000E-03 0. -1.
        -11    1    3    3    0    0 -0.67089968461E+01  0.70315979344E+01  0.51719148195E+01  0.11009210297E+02  0.51100000000E-03 0.  1.
         12    1    3    3    0    0 -0.96498096882E+01 -0.89369284317E+01  0.14007053432E+02  0.19214189097E+02  0.00000000000E+00 0. -1.
</event>
<event>
 7    1  0.2500839E-011  0.5052885E+02  0.7816164E-02  0.1300439E+00
        -11   -1    0    0    0    0  0.00000000000E+00  0.00000000000E+00  0.45593999997E+02  0.45594000000E+02  0.51100000000E-03 0. -1.
         11   -1    0    0    0    0 -0.00000000000E+00 -0.00000000000E+00 -0.45593999997E+02  0.45594000000E+02  0.51100000000E-03 0.  1.
    9900012    2    1    2    0    0  0.14842141973E+02  0.30772791071E+02 -0.22043425164E+02  0.50528850457E+02  0.29999971448E+02 0.  0.
         12    1    1    2    0    0 -0.14842141973E+02 -0.30772791071E+02  0.22043425164E+02  0.40659149543E+02  0.00000000000E+00 0. -1.
         11    1    3    3    0    0  0.13759853035E+02  0.15158502534E+02 -0.85119715876E+01  0.22171319654E+02  0.51100000000E-03 0. -1.
        -11    1    3    3    0    0  0.22701211073E+01  0.16851855585E+02 -0.24921285825E+01  0.17185726392E+02  0.51100000000E-03 0.  1.
         12    1    3    3    0    0 -0.11878321694E+01 -0.12375670485E+01 -0.11039324994E+02  0.11171804411E+02  0.00000000000E+00 0. -1.
</event>
<event>
 7    1  0.2500839E-011  0.5052890E+02  0.7816164E-02  0.1300439E+00
        -11   -1    0    0    0    0  0.00000000000E+00  0.00000000000E+00  0.45593999997E+02  0.45594000000E+02  0.51100000000E-03 0.  1.
         11   -1    0    0    0    0 -0.00000000000E+00 -0.00000000000E+00 -0.45593999997E+02  0.45594000000E+02  0.51100000000E-03 0. -1.
    9900012    2    1    2    0    0 -0.12959617051E+02  0.30092632368E+02  0.24075795480E+02  0.50528903540E+02  0.30000132800E+02 0.  0.
         12    1    1    2    0    0  0.12959617051E+02 -0.30092632368E+02 -0.24075795480E+02  0.40659096460E+02  0.00000000000E+00 0. -1.
         11    1    3    3    0    0 -0.29275105538E+01  0.96902195004E+01 -0.10808718908E+01  0.10180322014E+02  0.51100000000E-03 0. -1.
        -11    1    3    3    0    0 -0.64168892663E+01  0.24702882098E+02  0.22913220616E+02  0.34299045628E+02  0.51100000000E-03 0.  1.
         12    1    3    3    0    0 -0.36152172309E+01 -0.43004692304E+01  0.22434467556E+01  0.60495358974E+01  0.00000000000E+00 0. -1.
</event>
<event>
 7    1  0.2500839E-011  0.5052886E+02  0.7816164E-02  0.1300439E+00
        -11   -1    0    0    0    0  0.00000000000E+00  0.00000000000E+00  0.45593999997E+02  0.45594000000E+02  0.51100000000E-03 0.  1.
         11   -1    0    0    0    0 -0.00000000000E+00 -0.00000000000E+00 -0.45593999997E+02  0.45594000000E+02  0.51100000000E-03 0. -1.
    9900012    2    1    2    0    0 -0.25588660784E+02  0.20756151010E+02  0.23823694505E+02  0.50528858527E+02  0.29999995979E+02 0.  0.
         12    1    1    2    0    0  0.25588660784E+02 -0.20756151010E+02 -0.23823694505E+02  0.40659141473E+02  0.00000000000E+00 0. -1.
         11    1    3    3    0    0 -0.15026991827E+02  0.51334316092E+01 -0.12002076069E+01  0.15924920785E+02  0.51100000000E-03 0. -1.
        -11    1    3    3    0    0 -0.50675943109E+01 -0.19927912267E+01  0.54805418237E+01  0.77258053248E+01  0.51100000000E-03 0.  1.
         12    1    3    3    0    0 -0.54940746461E+01  0.17615510628E+02  0.19543360288E+02  0.26878132417E+02  0.00000000000E+00 0. -1.
</event>
<event>
 7    1  0.2500839E-011  0.5052886E+02  0.7816164E-02  0.1300439E+00
        -11   -1    0    0    0    0  0.00000000000E+00  0.00000000000E+00  0.45593999997E+02  0.45594000000E+02  0.51100000000E-03 0.  1.
         11   -1    0    0    0    0 -0.00000000000E+00 -0.00000000000E+00 -0.45593999997E+02  0.45594000000E+02  0.51100000000E-03 0. -1.
    9900012    2    1    2    0    0  0.12621436642E+02  0.28014710069E+02  0.26627822251E+02  0.50528861286E+02  0.30000004364E+02 0.  0.
         12    1    1    2    0    0 -0.12621436642E+02 -0.28014710069E+02 -0.26627822251E+02  0.40659138714E+02  0.00000000000E+00 0. -1.
         11    1    3    3    0    0  0.62283387653E+01  0.25846778967E+02  0.13071433673E+02  0.29626180403E+02  0.51100000000E-03 0. -1.
        -11    1    3    3    0    0 -0.29909631989E+01  0.44515642230E+01  0.83686366172E+01  0.99396360085E+01  0.51100000000E-03 0.  1.
        -12    1    3    3    0    0  0.93840610756E+01 -0.22836331215E+01  0.51877519607E+01  0.10963044874E+02  0.00000000000E+00 0.  1.
</event>
<event>
 7    1  0.2500839E-011  0.5052889E+02  0.7816164E-02  0.1300439E+00
        -11   -1    0    0    0    0  0.00000000000E+00  0.00000000000E+00  0.45593999997E+02  0.45594000000E+02  0.51100000000E-03 0. -1.
         11   -1    0    0    0    0 -0.00000000000E+00 -0.00000000000E+00 -0.45593999997E+02  0.45594000000E+02  0.51100000000E-03 0.  1.
    9900012    2    1    2    0    0 -0.32796839005E+02 -0.23528290801E+02  0.48938897615E+01  0.50528889413E+02  0.30000089859E+02 0.  0.
         12    1    1    2    0    0  0.32796839005E+02  0.23528290801E+02 -0.48938897615E+01  0.40659110587E+02  0.00000000000E+00 0. -1.
         11    1    3    3    0    0 -0.91529036372E+00 -0.69207194913E+01 -0.24792746755E+01  0.74081656235E+01  0.51100000000E-03 0.  1.
        -11    1    3    3    0    0 -0.17374597035E+02  0.21200173928E+01 -0.20563988041E+01  0.17623843854E+02  0.51100000000E-03 0. -1.
         12    1    3    3    0    0 -0.14506951606E+02 -0.18727588703E+02  0.94295632410E+01  0.25496879935E+02  0.00000000000E+00 0. -1.
</event>
<event>
 7    1  0.2500839E-011  0.5052885E+02  0.7816164E-02  0.1300439E+00
        -11   -1    0    0    0    0  0.00000000000E+00  0.00000000000E+00  0.45593999997E+02  0.45594000000E+02  0.51100000000E-03 0. -1.
         11   -1    0    0    0    0 -0.00000000000E+00 -0.00000000000E+00 -0.45593999997E+02  0.45594000000E+02  0.51100000000E-03 0.  1.
    9900012    2    1    2    0    0  0.15077985763E+02 -0.36103827984E+02 -0.11060489015E+02  0.50528850144E+02  0.29999970498E+02 0.  0.
         12    1    1    2    0    0 -0.15077985763E+02  0.36103827984E+02  0.11060489015E+02  0.40659149856E+02  0.00000000000E+00 0. -1.
         11    1    3    3    0    0 -0.48466888952E+01 -0.10285281066E+02  0.19718595159E+01  0.11539741334E+02  0.51100000000E-03 0. -1.
        -11    1    3    3    0    0  0.50486460881E+01 -0.75108415209E+01  0.39987110253E+01  0.98940011017E+01  0.51100000000E-03 0.  1.
        -12    1    3    3    0    0  0.14876028570E+02 -0.18307705397E+02 -0.17031059556E+02  0.29095107708E+02  0.00000000000E+00 0.  1.
</event>
<event>
 7    1  0.2500839E-011  0.5052887E+02  0.7816164E-02  0.1300439E+00
        -11   -1    0    0    0    0  0.00000000000E+00  0.00000000000E+00  0.45593999997E+02  0.45594000000E+02  0.51100000000E-03 0.  1.
         11   -1    0    0    0    0 -0.00000000000E+00 -0.00000000000E+00 -0.45593999997E+02  0.45594000000E+02  0.51100000000E-03 0. -1.
    9900012    2    1    2    0    0  0.41848858932E+01 -0.19356752939E+02  0.35510109615E+02  0.50528867703E+02  0.30000023869E+02 0.  0.
         12    1    1    2    0    0 -0.41848858932E+01  0.19356752939E+02 -0.35510109615E+02  0.40659132297E+02  0.00000000000E+00 0. -1.
         11    1    3    3    0    0  0.60661700948E+01 -0.18748916066E+01  0.25292641630E+02  0.26077410896E+02  0.51100000000E-03 0. -1.
        -11    1    3    3    0    0 -0.36324780938E+01 -0.95459969965E+01  0.12372610071E+02  0.16043766266E+02  0.51100000000E-03 0.  1.
         12    1    3    3    0    0  0.17511938922E+01 -0.79358643362E+01 -0.21551420862E+01  0.84076905403E+01  0.00000000000E+00 0. -1.
</event>
<event>
 7    1  0.2500839E-011  0.5052886E+02  0.7816164E-02  0.1300439E+00
        -11   -1    0    0    0    0  0.00000000000E+00  0.00000000000E+00  0.45593999997E+02  0.45594000000E+02  0.51100000000E-03 0. -1.
         11   -1    0    0    0    0 -0.00000000000E+00 -0.00000000000E+00 -0.45593999997E+02  0.45594000000E+02  0.51100000000E-03 0.  1.
    9900012    2    1    2    0    0 -0.32224135171E+02  0.24427508699E+02  0.42505959097E+01  0.50528860384E+02  0.30000001622E+02 0.  0.
         12    1    1    2    0    0  0.32224135171E+02 -0.24427508699E+02 -0.42505959097E+01  0.40659139616E+02  0.00000000000E+00 0. -1.
         11    1    3    3    0    0 -0.19041504431E+02  0.24713661083E+01  0.11753730057E+02  0.22513034268E+02  0.51100000000E-03 0. -1.
        -11    1    3    3    0    0 -0.36778705104E+01  0.22685571478E+01 -0.39743454183E+01  0.58709883997E+01  0.51100000000E-03 0.  1.
        -12    1    3    3    0    0 -0.95047602294E+01  0.19687585443E+02 -0.35287887286E+01  0.22144837716E+02  0.00000000000E+00 0.  1.
</event>
<event>
 7    1  0.2500839E-011  0.5052886E+02  0.7816164E-02  0.1300439E+00
        -11   -1    0    0    0    0  0.00000000000E+00  0.00000000000E+00  0.45593999997E+02  0.45594000000E+02  0.51100000000E-03 0.  1.
         11   -1    0    0    0    0 -0.00000000000E+00 -0.00000000000E+00 -0.45593999997E+02  0.45594000000E+02  0.51100000000E-03 0. -1.
    9900012    2    1    2    0    0 -0.49379614540E+01  0.20737426974E+02  0.34622840786E+02  0.50528862713E+02  0.30000008703E+02 0.  0.
         12    1    1    2    0    0  0.49379614540E+01 -0.20737426974E+02 -0.34622840786E+02  0.40659137287E+02  0.00000000000E+00 0. -1.
         11    1    3    3    0    0 -0.24956219320E+01  0.14536836890E+02  0.46472123214E+01  0.15464292361E+02  0.51100000000E-03 0. -1.
        -11    1    3    3    0    0 -0.67354971662E+01  0.82374590865E+01  0.27935309425E+02  0.29893212728E+02  0.51100000000E-03 0.  1.
        -12    1    3    3    0    0  0.42931576441E+01 -0.20368690032E+01  0.20403190402E+01  0.51713576244E+01  0.00000000000E+00 0.  1.
</event>
<event>
 7    1  0.2500839E-011  0.5052886E+02  0.7816164E-02  0.1300439E+00
        -11   -1    0    0    0    0  0.00000000000E+00  0.00000000000E+00  0.45593999997E+02  0.45594000000E+02  0.51100000000E-03 0. -1.
         11   -1    0    0    0    0 -0.00000000000E+00 -0.00000000000E+00 -0.45593999997E+02  0.45594000000E+02  0.51100000000E-03 0.  1.
    9900012    2    1    2    0    0  0.28714233683E+02  0.28781977493E+02  0.50586892481E+00  0.50528863908E+02  0.30000012334E+02 0.  0.
         12    1    1    2    0    0 -0.28714233683E+02 -0.28781977493E+02 -0.50586892481E+00  0.40659136092E+02  0.00000000000E+00 0. -1.
         11    1    3    3    0    0  0.30764547869E+01  0.76444593354E+01  0.82382649558E+01  0.11652096049E+02  0.51100000000E-03 0. -1.
        -11    1    3    3    0    0  0.15735991313E+02  0.20567333385E+02  0.62909895517E+00  0.25904292905E+02  0.51100000000E-03 0.  1.
         12    1    3    3    0    0  0.99017875835E+01  0.57018477262E+00 -0.83614949861E+01  0.12972474954E+02  0.00000000000E+00 0. -1.
</event>
<event>
 7    1  0.2500839E-011  0.5052886E+02  0.7816164E-02  0.1300439E+00
        -11   -1    0    0    0    0  0.00000000000E+00  0.00000000000E+00  0.45593999997E+02  0.45594000000E+02  0.51100000000E-03 0. -1.
         11   -1    0    0    0    0 -0.00000000000E+00 -0.00000000000E+00 -0.45593999997E+02  0.45594000000E+02  0.51100000000E-03 0.  1.
    9900012    2    1    2    0    0  0.34289066097E+02  0.19527493502E+02 -0.98032046727E+01  0.50528857386E+02  0.29999992510E+02 0.  0.
         12    1    1    2    0    0 -0.34289066097E+02 -0.19527493502E+02  0.98032046727E+01  0.40659142614E+02  0.00000000000E+00 0. -1.
         11    1    3    3    0    0 -0.45998173285E+01  0.15407721620E+01 -0.68151741747E+00  0.48986492590E+01  0.51100000000E-03 0. -1.
        -11    1    3    3    0    0  0.73702800127E+01  0.77806814992E+00  0.26016207043E+01  0.78546068051E+01  0.51100000000E-03 0.  1.
        -12    1    3    3    0    0  0.31518603412E+02  0.17208653191E+02 -0.11723307960E+02  0.37775601322E+02  0.00000000000E+00 0.  1.
</event>
<event>
 7    1  0.2500839E-011  0.5052886E+02  0.7816164E-02  0.1300439E+00
        -11   -1    0    0    0    0  0.00000000000E+00  0.00000000000E+00  0.45593999997E+02  0.45594000000E+02  0.51100000000E-03 0.  1.
         11   -1    0    0    0    0 -0.00000000000E+00 -0.00000000000E+00 -0.45593999997E+02  0.45594000000E+02  0.51100000000E-03 0. -1.
    9900012    2    1    2    0    0  0.25150944174E+02 -0.17806153236E+02  0.26524260140E+02  0.50528862504E+02  0.30000008069E+02 0.  0.
         12    1    1    2    0    0 -0.25150944174E+02  0.17806153236E+02 -0.26524260140E+02  0.40659137496E+02  0.00000000000E+00 0. -1.
         11    1    3    3    0    0  0.13353504089E+02 -0.11801577439E+01  0.11823347405E+01  0.13457591147E+02  0.51100000000E-03 0. -1.
        -11    1    3    3    0    0 -0.24959413320E+01  0.22525621416E+01  0.27475445961E+01  0.43419766125E+01  0.51100000000E-03 0.  1.
        -12    1    3    3    0    0  0.14293381417E+02 -0.18878557634E+02  0.22594380803E+02  0.32729294745E+02  0.00000000000E+00 0.  1.
</event>
<event>
 7    1  0.2500839E-011  0.5052886E+02  0.7816164E-02  0.1300439E+00
        -11   -1    0    0    0    0  0.00000000000E+00  0.00000000000E+00  0.45593999997E+02  0.45594000000E+02  0.51100000000E-03 0.  1.
         11   -1    0    0    0    0 -0.00000000000E+00 -0.00000000000E+00 -0.45593999997E+02  0.45594000000E+02  0.51100000000E-03 0. -1.
    9900012    2    1    2    0    0  0.34955720758E+02  0.20333242808E+02  0.42216263006E+01  0.50528864429E+02  0.30000013917E+02 0.  0.
         12    1    1    2    0    0 -0.34955720758E+02 -0.20333242808E+02 -0.42216263006E+01  0.40659135571E+02  0.00000000000E+00 0. -1.
         11    1    3    3    0    0  0.13241536378E-01  0.73780187790E+01  0.66683104008E+01  0.99449333987E+01  0.51100000000E-03 0. -1.
        -11    1    3    3    0    0  0.22357202324E+02  0.14778492309E+02 -0.58256282553E+01  0.27426014576E+02  0.51100000000E-03 0.  1.
         12    1    3    3    0    0  0.12585276898E+02 -0.18232682800E+01  0.33789441551E+01  0.13157916454E+02  0.00000000000E+00 0. -1.
</event>
<event>
 7    1  0.2500839E-011  0.5052888E+02  0.7816164E-02  0.1300439E+00
        -11   -1    0    0    0    0  0.00000000000E+00  0.00000000000E+00  0.45593999997E+02  0.45594000000E+02  0.51100000000E-03 0.  1.
         11   -1    0    0    0    0 -0.00000000000E+00 -0.00000000000E+00 -0.45593999997E+02  0.45594000000E+02  0.51100000000E-03 0. -1.
    9900012    2    1    2    0    0 -0.36246080650E+02 -0.56832106931E+01  0.17523900354E+02  0.50528876426E+02  0.30000050383E+02 0.  0.
         12    1    1    2    0    0  0.36246080650E+02  0.56832106931E+01 -0.17523900354E+02  0.40659123574E+02  0.00000000000E+00 0. -1.
         11    1    3    3    0    0 -0.13972429088E+02  0.55158822809E+00 -0.43596585328E+01  0.14647171979E+02  0.51100000000E-03 0. -1.
        -11    1    3    3    0    0 -0.20886830350E+02 -0.62595735561E+01  0.10123475196E+02  0.24040105937E+02  0.51100000000E-03 0.  1.
         12    1    3    3    0    0 -0.13868212118E+01  0.24774634863E-01  0.11760083690E+02  0.11841598510E+02  0.00000000000E+00 0. -1.
</event>
<event>
 7    1  0.2500839E-011  0.5052886E+02  0.7816164E-02  0.1300439E+00
        -11   -1    0    0    0    0  0.00000000000E+00  0.00000000000E+00  0.45593999997E+02  0.45594000000E+02  0.51100000000E-03 0. -1.
         11   -1    0    0    0    0 -0.00000000000E+00 -0.00000000000E+00 -0.45593999997E+02  0.45594000000E+02  0.51100000000E-03 0.  1.
    9900012    2    1    2    0    0  0.12494393185E+02 -0.17927606887E+02 -0.34287847753E+02  0.50528862610E+02  0.30000008390E+02 0.  0.
         12    1    1    2    0    0 -0.12494393185E+02  0.17927606887E+02  0.34287847753E+02  0.40659137390E+02  0.00000000000E+00 0. -1.
         11    1    3    3    0    0  0.87717871672E+01 -0.69899496338E+01 -0.26168419433E+01  0.11517443640E+02  0.51100000000E-03 0. -1.
        -11    1    3    3    0    0  0.59304912235E+01 -0.15464276283E+02 -0.18090660976E+02  0.24527262014E+02  0.51100000000E-03 0.  1.
         12    1    3    3    0    0 -0.22078852057E+01  0.45266190295E+01 -0.13580344834E+02  0.14484156956E+02  0.00000000000E+00 0. -1.
</event>
<event>
 7    1  0.2500839E-011  0.5052886E+02  0.7816164E-02  0.1300439E+00
        -11   -1    0    0    0    0  0.00000000000E+00  0.00000000000E+00  0.45593999997E+02  0.45594000000E+02  0.51100000000E-03 0.  1.
         11   -1    0    0    0    0 -0.00000000000E+00 -0.00000000000E+00 -0.45593999997E+02  0.45594000000E+02  0.51100000000E-03 0. -1.
    9900012    2    1    2    0    0 -0.31951648284E+02 -0.21697125315E+02  0.12707973066E+02  0.50528860137E+02  0.30000000871E+02 0.  0.
         12    1    1    2    0    0  0.31951648284E+02  0.21697125315E+02 -0.12707973066E+02  0.40659139863E+02  0.00000000000E+00 0. -1.
         11    1    3    3    0    0 -0.15662310848E+01  0.43790341805E+01  0.43683325993E+01  0.63805446573E+01  0.51100000000E-03 0.  1.
        -11    1    3    3    0    0 -0.16340615506E+02 -0.14316924030E+02  0.12906582606E+02  0.25269940712E+02  0.51100000000E-03 0. -1.
         12    1    3    3    0    0 -0.14044801693E+02 -0.11759235466E+02 -0.45669421389E+01  0.18878374767E+02  0.00000000000E+00 0. -1.
</event>
<event>
 7    1  0.2500839E-011  0.5052886E+02  0.7816164E-02  0.1300439E+00
        -11   -1    0    0    0    0  0.00000000000E+00  0.00000000000E+00  0.45593999997E+02  0.45594000000E+02  0.51100000000E-03 0.  1.
         11   -1    0    0    0    0 -0.00000000000E+00 -0.00000000000E+00 -0.45593999997E+02  0.45594000000E+02  0.51100000000E-03 0. -1.
    9900012    2    1    2    0    0 -0.19258539794E+02  0.20600119835E+02  0.29290085324E+02  0.50528863382E+02  0.30000010736E+02 0.  0.
         12    1    1    2    0    0  0.19258539794E+02 -0.20600119835E+02 -0.29290085324E+02  0.40659136618E+02  0.00000000000E+00 0. -1.
         11    1    3    3    0    0 -0.91779025747E+01  0.44635442719E+01  0.29170126647E+01  0.10614428213E+02  0.51100000000E-03 0. -1.
        -11    1    3    3    0    0 -0.84681845794E+01  0.10675656848E+01  0.22798114065E+02  0.24343456036E+02  0.51100000000E-03 0.  1.
        -12    1    3    3    0    0 -0.16124526397E+01  0.15069009878E+02  0.35749585946E+01  0.15570979134E+02  0.00000000000E+00 0.  1.
</event>
<event>
 7    1  0.2500839E-011  0.5052885E+02  0.7816164E-02  0.1300439E+00
        -11   -1    0    0    0    0  0.00000000000E+00  0.00000000000E+00  0.45593999997E+02  0.45594000000E+02  0.51100000000E-03 0.  1.
         11   -1    0    0    0    0 -0.00000000000E+00 -0.00000000000E+00 -0.45593999997E+02  0.45594000000E+02  0.51100000000E-03 0. -1.
    9900012    2    1    2    0    0  0.26303127316E+02  0.28315902109E+02  0.12630182969E+02  0.50528851698E+02  0.29999975220E+02 0.  0.
         12    1    1    2    0    0 -0.26303127316E+02 -0.28315902109E+02 -0.12630182969E+02  0.40659148302E+02  0.00000000000E+00 0. -1.
         11    1    3    3    0    0  0.13529859097E+02  0.50059875299E+01  0.54706087472E+01  0.15428692708E+02  0.51100000000E-03 0. -1.
        -11    1    3    3    0    0  0.15383382593E+02  0.26251521099E+02  0.64810774738E+01  0.31109406705E+02  0.51100000000E-03 0.  1.
         12    1    3    3    0    0 -0.26101143745E+01 -0.29416065198E+01  0.67849674795E+00  0.39907522853E+01  0.00000000000E+00 0. -1.
</event>
<event>
 7    1  0.2500839E-011  0.5052884E+02  0.7816164E-02  0.1300439E+00
        -11   -1    0    0    0    0  0.00000000000E+00  0.00000000000E+00  0.45593999997E+02  0.45594000000E+02  0.51100000000E-03 0.  1.
         11   -1    0    0    0    0 -0.00000000000E+00 -0.00000000000E+00 -0.45593999997E+02  0.45594000000E+02  0.51100000000E-03 0. -1.
    9900012    2    1    2    0    0  0.68194936769E+01  0.29678888380E+02  0.26941140971E+02  0.50528843758E+02  0.29999951087E+02 0.  0.
         12    1    1    2    0    0 -0.68194936769E+01 -0.29678888380E+02 -0.26941140971E+02  0.40659156242E+02  0.00000000000E+00 0. -1.
         11    1    3    3    0    0  0.41669861431E+01  0.93104662141E+01  0.17407029724E+02  0.20175560431E+02  0.51100000000E-03 0.  1.
        -11    1    3    3    0    0 -0.15736245609E+01  0.19384576771E+02 -0.46432376238E+00  0.19453886698E+02  0.51100000000E-03 0. -1.
         12    1    3    3    0    0  0.42261320947E+01  0.98384539542E+00  0.99984350087E+01  0.10899396629E+02  0.00000000000E+00 0. -1.
</event>
<event>
 7    1  0.2500839E-011  0.5052885E+02  0.7816164E-02  0.1300439E+00
        -11   -1    0    0    0    0  0.00000000000E+00  0.00000000000E+00  0.45593999997E+02  0.45594000000E+02  0.51100000000E-03 0.  1.
         11   -1    0    0    0    0 -0.00000000000E+00 -0.00000000000E+00 -0.45593999997E+02  0.45594000000E+02  0.51100000000E-03 0. -1.
    9900012    2    1    2    0    0 -0.87059766100E+01 -0.16401757091E+02  0.36171186328E+02  0.50528851155E+02  0.29999973571E+02 0.  0.
         12    1    1    2    0    0  0.87059766100E+01  0.16401757091E+02 -0.36171186328E+02  0.40659148845E+02  0.00000000000E+00 0. -1.
         11    1    3    3    0    0 -0.33833605795E+01  0.49902613777E+01  0.61358989536E+01  0.86022725869E+01  0.51100000000E-03 0. -1.
        -11    1    3    3    0    0  0.66268125706E+01 -0.44535922865E+01  0.49891677998E+01  0.94149309448E+01  0.51100000000E-03 0.  1.
         12    1    3    3    0    0 -0.11949428601E+02 -0.16938426182E+02  0.25046119575E+02  0.32511647623E+02  0.00000000000E+00 0. -1.
</event>
<event>
 7    1  0.2500839E-011  0.5052886E+02  0.7816164E-02  0.1300439E+00
        -11   -1    0    0    0    0  0.00000000000E+00  0.00000000000E+00  0.45593999997E+02  0.45594000000E+02  0.51100000000E-03 0.  1.
         11   -1    0    0    0    0 -0.00000000000E+00 -0.00000000000E+00 -0.45593999997E+02  0.45594000000E+02  0.51100000000E-03 0. -1.
    9900012    2    1    2    0    0  0.17905677047E+02 -0.32430721942E+02  0.16757106169E+02  0.50528860765E+02  0.30000002781E+02 0.  0.
         12    1    1    2    0    0 -0.17905677047E+02  0.32430721942E+02 -0.16757106169E+02  0.40659139235E+02  0.00000000000E+00 0. -1.
         11    1    3    3    0    0 -0.38056766465E+01 -0.96893525146E+01  0.56309822992E+01  0.11835315323E+02  0.51100000000E-03 0. -1.
        -11    1    3    3    0    0  0.55439297777E+01 -0.33854039278E+01  0.11794358395E+02  0.13464880517E+02  0.51100000000E-03 0.  1.
        -12    1    3    3    0    0  0.16167423916E+02 -0.19355965499E+02 -0.66823452464E+00  0.25228664924E+02  0.00000000000E+00 0.  1.
</event>
<event>
 7    1  0.2500839E-011  0.5052886E+02  0.7816164E-02  0.1300439E+00
        -11   -1    0    0    0    0  0.00000000000E+00  0.00000000000E+00  0.45593999997E+02  0.45594000000E+02  0.51100000000E-03 0. -1.
         11   -1    0    0    0    0 -0.00000000000E+00 -0.00000000000E+00 -0.45593999997E+02  0.45594000000E+02  0.51100000000E-03 0.  1.
    9900012    2    1    2    0    0  0.30426880957E+02  0.16778817729E+02 -0.21114958358E+02  0.50528864795E+02  0.30000015031E+02 0.  0.
         12    1    1    2    0    0 -0.30426880957E+02 -0.16778817729E+02  0.21114958358E+02  0.40659135205E+02  0.00000000000E+00 0. -1.
         11    1    3    3    0    0 -0.19749659361E+01 -0.77500122126E+00  0.70780170131E+00  0.22365376928E+01  0.51100000000E-03 0. -1.
        -11    1    3    3    0    0  0.22482784974E+02  0.29852640062E+00 -0.72505171489E+01  0.23624875394E+02  0.51100000000E-03 0.  1.
         12    1    3    3    0    0  0.99190619188E+01  0.17255292550E+02 -0.14572242910E+02  0.24667451708E+02  0.00000000000E+00 0. -1.
</event>
<event>
 7    1  0.2500839E-011  0.5052886E+02  0.7816164E-02  0.1300439E+00
        -11   -1    0    0    0    0  0.00000000000E+00  0.00000000000E+00  0.45593999997E+02  0.45594000000E+02  0.51100000000E-03 0.  1.
         11   -1    0    0    0    0 -0.00000000000E+00 -0.00000000000E+00 -0.45593999997E+02  0.45594000000E+02  0.51100000000E-03 0. -1.
    9900012    2    1    2    0    0  0.88271737547E+01 -0.21166387134E+02  0.33574257268E+02  0.50528859675E+02  0.29999999469E+02 0.  0.
         12    1    1    2    0    0 -0.88271737547E+01  0.21166387134E+02 -0.33574257268E+02  0.40659140325E+02  0.00000000000E+00 0. -1.
         11    1    3    3    0    0 -0.23839967134E+01  0.15538068781E+01  0.60361536761E+01  0.66732981056E+01  0.51100000000E-03 0.  1.
        -11    1    3    3    0    0  0.54314558260E+00 -0.69096840921E+01 -0.32368173619E+01  0.76495573906E+01  0.51100000000E-03 0. -1.
        -12    1    3    3    0    0  0.10668024886E+02 -0.15810509920E+02  0.30774920954E+02  0.36206004179E+02  0.00000000000E+00 0.  1.
</event>
<event>
 7    1  0.2500839E-011  0.5052889E+02  0.7816164E-02  0.1300439E+00
        -11   -1    0    0    0    0  0.00000000000E+00  0.00000000000E+00  0.45593999997E+02  0.45594000000E+02  0.51100000000E-03 0. -1.
         11   -1    0    0    0    0 -0.00000000000E+00 -0.00000000000E+00 -0.45593999997E+02  0.45594000000E+02  0.51100000000E-03 0.  1.
    9900012    2    1    2    0    0 -0.31179605597E+02  0.19495260204E+02  0.17347348112E+02  0.50528887096E+02  0.30000082817E+02 0.  0.
         12    1    1    2    0    0  0.31179605597E+02 -0.19495260204E+02 -0.17347348112E+02  0.40659112904E+02  0.00000000000E+00 0. -1.
         11    1    3    3    0    0  0.41439832684E+00 -0.57457159059E+00 -0.16017852680E+01  0.17514493404E+01  0.51100000000E-03 0. -1.
        -11    1    3    3    0    0 -0.12134852840E+02  0.17628358970E+02 -0.15078745223E+00  0.21401785686E+02  0.51100000000E-03 0.  1.
         12    1    3    3    0    0 -0.19459151083E+02  0.24414728250E+01  0.19099920833E+02  0.27375652070E+02  0.00000000000E+00 0. -1.
</event>
<event>
 7    1  0.2500839E-011  0.5052886E+02  0.7816164E-02  0.1300439E+00
        -11   -1    0    0    0    0  0.00000000000E+00  0.00000000000E+00  0.45593999997E+02  0.45594000000E+02  0.51100000000E-03 0.  1.
         11   -1    0    0    0    0 -0.00000000000E+00 -0.00000000000E+00 -0.45593999997E+02  0.45594000000E+02  0.51100000000E-03 0. -1.
    9900012    2    1    2    0    0 -0.19541626522E+02 -0.42769701719E+01  0.35397714658E+02  0.50528857806E+02  0.29999993787E+02 0.  0.
         12    1    1    2    0    0  0.19541626522E+02  0.42769701719E+01 -0.35397714658E+02  0.40659142194E+02  0.00000000000E+00 0. -1.
         11    1    3    3    0    0 -0.45146746180E+01 -0.32323367557E+01  0.23356784118E+02  0.24007699857E+02  0.51100000000E-03 0. -1.
        -11    1    3    3    0    0  0.34391579791E+01 -0.34656506067E+01  0.36397246826E+01  0.60898388944E+01  0.51100000000E-03 0.  1.
         12    1    3    3    0    0 -0.18466109883E+02  0.24210171905E+01  0.84012058566E+01  0.20431319054E+02  0.00000000000E+00 0. -1.
</event>
<event>
 7    1  0.2500839E-011  0.5052886E+02  0.7816164E-02  0.1300439E+00
        -11   -1    0    0    0    0  0.00000000000E+00  0.00000000000E+00  0.45593999997E+02  0.45594000000E+02  0.51100000000E-03 0.  1.
         11   -1    0    0    0    0 -0.00000000000E+00 -0.00000000000E+00 -0.45593999997E+02  0.45594000000E+02  0.51100000000E-03 0. -1.
    9900012    2    1    2    0    0  0.21364619184E+02  0.15355346827E+02  0.30998900420E+02  0.50528862573E+02  0.30000008277E+02 0.  0.
         12    1    1    2    0    0 -0.21364619184E+02 -0.15355346827E+02 -0.30998900420E+02  0.40659137427E+02  0.00000000000E+00 0. -1.
         11    1    3    3    0    0  0.24225993301E+02  0.12217228846E+02  0.29258255917E+02  0.39902443180E+02  0.51100000000E-03 0.  1.
        -11    1    3    3    0    0 -0.33227316263E+01  0.49683015139E+01  0.43597351187E+01  0.73980981313E+01  0.51100000000E-03 0. -1.
        -12    1    3    3    0    0  0.46135750884E+00 -0.18301835334E+01 -0.26190906158E+01  0.32283212620E+01  0.00000000000E+00 0.  1.
</event>
<event>
 7    1  0.2500839E-011  0.5052880E+02  0.7816164E-02  0.1300439E+00
        -11   -1    0    0    0    0  0.00000000000E+00  0.00000000000E+00  0.45593999997E+02  0.45594000000E+02  0.51100000000E-03 0.  1.
         11   -1    0    0    0    0 -0.00000000000E+00 -0.00000000000E+00 -0.45593999997E+02  0.45594000000E+02  0.51100000000E-03 0. -1.
    9900012    2    1    2    0    0  0.15241627911E+02  0.32600841059E+01  0.37553096325E+02  0.50528801614E+02  0.29999822986E+02 0.  0.
         12    1    1    2    0    0 -0.15241627911E+02 -0.32600841059E+01 -0.37553096325E+02  0.40659198386E+02  0.00000000000E+00 0. -1.
         11    1    3    3    0    0  0.69155365635E+00 -0.76442003878E+01  0.23916715735E+02  0.25118147579E+02  0.51100000000E-03 0. -1.
        -11    1    3    3    0    0  0.48912622777E+00  0.66785261738E+01  0.33818693617E+01  0.75019328817E+01  0.51100000000E-03 0.  1.
        -12    1    3    3    0    0  0.14060948027E+02  0.42257583199E+01  0.10254511229E+02  0.17908721153E+02  0.00000000000E+00 0.  1.
</event>
<event>
 7    1  0.2500839E-011  0.5052887E+02  0.7816164E-02  0.1300439E+00
        -11   -1    0    0    0    0  0.00000000000E+00  0.00000000000E+00  0.45593999997E+02  0.45594000000E+02  0.51100000000E-03 0.  1.
         11   -1    0    0    0    0 -0.00000000000E+00 -0.00000000000E+00 -0.45593999997E+02  0.45594000000E+02  0.51100000000E-03 0. -1.
    9900012    2    1    2    0    0  0.37087490559E+01 -0.15598550086E+02  0.37364362967E+02  0.50528865672E+02  0.30000017696E+02 0.  0.
         12    1    1    2    0    0 -0.37087490559E+01  0.15598550086E+02 -0.37364362967E+02  0.40659134328E+02  0.00000000000E+00 0. -1.
         11    1    3    3    0    0  0.10299458646E+02 -0.11347295013E+02  0.11332751986E+02  0.19059675242E+02  0.51100000000E-03 0.  1.
        -11    1    3    3    0    0  0.46753781117E+01 -0.43761057083E+01  0.88884375216E+01  0.10955080260E+02  0.51100000000E-03 0. -1.
        -12    1    3    3    0    0 -0.11266087702E+02  0.12485063461E+00  0.17143173460E+02  0.20514110170E+02  0.00000000000E+00 0.  1.
</event>
<event>
 7    1  0.2500839E-011  0.5052886E+02  0.7816164E-02  0.1300439E+00
        -11   -1    0    0    0    0  0.00000000000E+00  0.00000000000E+00  0.45593999997E+02  0.45594000000E+02  0.51100000000E-03 0.  1.
         11   -1    0    0    0    0 -0.00000000000E+00 -0.00000000000E+00 -0.45593999997E+02  0.45594000000E+02  0.51100000000E-03 0. -1.
    9900012    2    1    2    0    0 -0.52390222239E+01 -0.15641383361E+02  0.37162683961E+02  0.50528864416E+02  0.30000013878E+02 0.  0.
         12    1    1    2    0    0  0.52390222239E+01  0.15641383361E+02 -0.37162683961E+02  0.40659135584E+02  0.00000000000E+00 0. -1.
         11    1    3    3    0    0  0.64639328865E+01 -0.42728207575E+00  0.89985632403E+01  0.11087792340E+02  0.51100000000E-03 0.  1.
        -11    1    3    3    0    0  0.17248177413E-01 -0.92516359246E+01  0.23882554741E+02  0.25611901257E+02  0.51100000000E-03 0. -1.
         12    1    3    3    0    0 -0.11720203288E+02 -0.59624653607E+01  0.42815659796E+01  0.13829170818E+02  0.00000000000E+00 0. -1.
</event>
<event>
 7    1  0.3309421E-011  0.5052884E+02  0.7816164E-02  0.1300439E+00
        -11   -1    0    0    0    0  0.00000000000E+00  0.00000000000E+00  0.45593999997E+02  0.45594000000E+02  0.51100000000E-03 0. -1.
         11   -1    0    0    0    0 -0.00000000000E+00 -0.00000000000E+00 -0.45593999997E+02  0.45594000000E+02  0.51100000000E-03 0.  1.
    9900012    2    1    2    0    0  0.25275659603E+02  0.21939188050E+02 -0.23086364080E+02  0.50528841781E+02  0.29999945076E+02 0.  0.
         12    1    1    2    0    0 -0.25275659603E+02 -0.21939188050E+02  0.23086364080E+02  0.40659158219E+02  0.00000000000E+00 0. -1.
         11    1    3    3    0    0 -0.28040635675E+01  0.33053766830E+00  0.15567860027E+01  0.32242224737E+01  0.51100000000E-03 0. -1.
        -11    1    3    3    0    0  0.15645648184E+01  0.11044095533E+02 -0.11012270784E+02  0.15674502139E+02  0.51100000000E-03 0.  1.
        -12    1    3    3    0    0  0.26515158352E+02  0.10564554849E+02 -0.13630879298E+02  0.31630117168E+02  0.00000000000E+00 0.  1.
</event>
<event>
 7    1  0.2500839E-011  0.5052888E+02  0.7816164E-02  0.1300439E+00
        -11   -1    0    0    0    0  0.00000000000E+00  0.00000000000E+00  0.45593999997E+02  0.45594000000E+02  0.51100000000E-03 0. -1.
         11   -1    0    0    0    0 -0.00000000000E+00 -0.00000000000E+00 -0.45593999997E+02  0.45594000000E+02  0.51100000000E-03 0.  1.
    9900012    2    1    2    0    0  0.77810778597E+01 -0.33135905535E+02 -0.22240291779E+02  0.50528880645E+02  0.30000063210E+02 0.  0.
         12    1    1    2    0    0 -0.77810778597E+01  0.33135905535E+02  0.22240291779E+02  0.40659119355E+02  0.00000000000E+00 0. -1.
         11    1    3    3    0    0 -0.26873742861E+01 -0.21807924888E+02  0.99704735727E+00  0.21995492088E+02  0.51100000000E-03 0. -1.
        -11    1    3    3    0    0  0.28624208784E+01 -0.51042254337E+01 -0.45258971873E+01  0.73979940642E+01  0.51100000000E-03 0.  1.
         12    1    3    3    0    0  0.76060312675E+01 -0.62237552130E+01 -0.18711441949E+02  0.21135394493E+02  0.00000000000E+00 0. -1.
</event>
<event>
 7    1  0.2500839E-011  0.5052885E+02  0.7816164E-02  0.1300439E+00
        -11   -1    0    0    0    0  0.00000000000E+00  0.00000000000E+00  0.45593999997E+02  0.45594000000E+02  0.51100000000E-03 0.  1.
         11   -1    0    0    0    0 -0.00000000000E+00 -0.00000000000E+00 -0.45593999997E+02  0.45594000000E+02  0.51100000000E-03 0. -1.
    9900012    2    1    2    0    0  0.30548662692E+02 -0.33122131999E+01  0.26626578371E+02  0.50528853129E+02  0.29999979570E+02 0.  0.
         12    1    1    2    0    0 -0.30548662692E+02  0.33122131999E+01 -0.26626578371E+02  0.40659146871E+02  0.00000000000E+00 0. -1.
         11    1    3    3    0    0  0.55292636021E+01  0.13376135174E+00 -0.61673781863E+01  0.82841536704E+01  0.51100000000E-03 0. -1.
        -11    1    3    3    0    0  0.67275553919E+00  0.90180825768E+00  0.46225224597E+01  0.47574754125E+01  0.51100000000E-03 0.  1.
         12    1    3    3    0    0  0.24346643551E+02 -0.43477828093E+01  0.28171434098E+02  0.37487224046E+02  0.00000000000E+00 0. -1.
</event>
<event>
 7    1  0.2500839E-011  0.5052887E+02  0.7816164E-02  0.1300439E+00
        -11   -1    0    0    0    0  0.00000000000E+00  0.00000000000E+00  0.45593999997E+02  0.45594000000E+02  0.51100000000E-03 0.  1.
         11   -1    0    0    0    0 -0.00000000000E+00 -0.00000000000E+00 -0.45593999997E+02  0.45594000000E+02  0.51100000000E-03 0. -1.
    9900012    2    1    2    0    0 -0.23708502585E+02 -0.23716236141E+02  0.22991566702E+02  0.50528867066E+02  0.30000021933E+02 0.  0.
         12    1    1    2    0    0  0.23708502585E+02  0.23716236141E+02 -0.22991566702E+02  0.40659132934E+02  0.00000000000E+00 0. -1.
         11    1    3    3    0    0 -0.18736789525E+01  0.40087359958E+01  0.11143699941E+01  0.45631631404E+01  0.51100000000E-03 0. -1.
        -11    1    3    3    0    0 -0.12683484268E+02 -0.51180204475E+01  0.74888011876E+00  0.13697654112E+02  0.51100000000E-03 0.  1.
        -12    1    3    3    0    0 -0.91513393652E+01 -0.22606951689E+02  0.21128316590E+02  0.32268049813E+02  0.00000000000E+00 0.  1.
</event>
<event>
 7    1  0.2500839E-011  0.5052886E+02  0.7816164E-02  0.1300439E+00
        -11   -1    0    0    0    0  0.00000000000E+00  0.00000000000E+00  0.45593999997E+02  0.45594000000E+02  0.51100000000E-03 0.  1.
         11   -1    0    0    0    0 -0.00000000000E+00 -0.00000000000E+00 -0.45593999997E+02  0.45594000000E+02  0.51100000000E-03 0. -1.
    9900012    2    1    2    0    0  0.14787679022E+02  0.19756081191E+02  0.32313888481E+02  0.50528861007E+02  0.30000003516E+02 0.  0.
         12    1    1    2    0    0 -0.14787679022E+02 -0.19756081191E+02 -0.32313888481E+02  0.40659138993E+02  0.00000000000E+00 0. -1.
         11    1    3    3    0    0 -0.38811104650E+01  0.96572505387E+01  0.55234975286E+01  0.11782806610E+02  0.51100000000E-03 0. -1.
        -11    1    3    3    0    0  0.15033886469E+02  0.15397726096E+02  0.21540538771E+02  0.30448358283E+02  0.51100000000E-03 0.  1.
        -12    1    3    3    0    0  0.36349030183E+01 -0.52988954435E+01  0.52498521812E+01  0.82976961138E+01  0.00000000000E+00 0.  1.
</event>
<event>
 7    1  0.2500839E-011  0.5052886E+02  0.7816164E-02  0.1300439E+00
        -11   -1    0    0    0    0  0.00000000000E+00  0.00000000000E+00  0.45593999997E+02  0.45594000000E+02  0.51100000000E-03 0.  1.
         11   -1    0    0    0    0 -0.00000000000E+00 -0.00000000000E+00 -0.45593999997E+02  0.45594000000E+02  0.51100000000E-03 0. -1.
    9900012    2    1    2    0    0  0.34609233751E+02 -0.18428500589E+02  0.10759059279E+02  0.50528855256E+02  0.29999986035E+02 0.  0.
         12    1    1    2    0    0 -0.34609233751E+02  0.18428500589E+02 -0.10759059279E+02  0.40659144744E+02  0.00000000000E+00 0. -1.
         11    1    3    3    0    0  0.12355977367E+02  0.49299760723E+01  0.23235939952E+01  0.13504589223E+02  0.51100000000E-03 0. -1.
        -11    1    3    3    0    0  0.14554787930E+01 -0.14723229444E+01 -0.38953837359E+01  0.44113680509E+01  0.51100000000E-03 0.  1.
        -12    1    3    3    0    0  0.20797777591E+02 -0.21886153717E+02  0.12330849019E+02  0.32612897982E+02  0.00000000000E+00 0.  1.
</event>
<event>
 7    1  0.2500839E-011  0.5052885E+02  0.7816164E-02  0.1300439E+00
        -11   -1    0    0    0    0  0.00000000000E+00  0.00000000000E+00  0.45593999997E+02  0.45594000000E+02  0.51100000000E-03 0. -1.
         11   -1    0    0    0    0 -0.00000000000E+00 -0.00000000000E+00 -0.45593999997E+02  0.45594000000E+02  0.51100000000E-03 0.  1.
    9900012    2    1    2    0    0 -0.25229014549E+02  0.31866636580E+02 -0.10866357475E+01  0.50528849993E+02  0.29999970038E+02 0.  0.
         12    1    1    2    0    0  0.25229014549E+02 -0.31866636580E+02  0.10866357475E+01  0.40659150007E+02  0.00000000000E+00 0. -1.
         11    1    3    3    0    0  0.47078133146E+01  0.17442187709E+01 -0.16308257616E+01  0.52787686302E+01  0.51100000000E-03 0. -1.
        -11    1    3    3    0    0 -0.18886957081E+02  0.17458266895E+02 -0.72521938169E+01  0.26722697210E+02  0.51100000000E-03 0.  1.
        -12    1    3    3    0    0 -0.11049870783E+02  0.12664150914E+02  0.77963838310E+01  0.18527384152E+02  0.00000000000E+00 0.  1.
</event>
<event>
 7    1  0.2500839E-011  0.5052886E+02  0.7816164E-02  0.1300439E+00
        -11   -1    0    0    0    0  0.00000000000E+00  0.00000000000E+00  0.45593999997E+02  0.45594000000E+02  0.51100000000E-03 0.  1.
         11   -1    0    0    0    0 -0.00000000000E+00 -0.00000000000E+00 -0.45593999997E+02  0.45594000000E+02  0.51100000000E-03 0. -1.
    9900012    2    1    2    0    0 -0.40572539645E+02 -0.26521393458E+01 -0.28300470835E-01  0.50528860594E+02  0.30000002260E+02 0.  0.
         12    1    1    2    0    0  0.40572539645E+02  0.26521393458E+01  0.28300470835E-01  0.40659139406E+02  0.00000000000E+00 0. -1.
         11    1    3    3    0    0 -0.10219874199E+02  0.39001388013E+01  0.10030006918E+02  0.14841089931E+02  0.51100000000E-03 0. -1.
        -11    1    3    3    0    0 -0.12410305505E+02 -0.84270660155E+01  0.65520990690E-01  0.15001180541E+02  0.51100000000E-03 0.  1.
         12    1    3    3    0    0 -0.17942359941E+02  0.18747878684E+01 -0.10123828379E+02  0.20686590122E+02  0.00000000000E+00 0. -1.
</event>
<event>
 7    1  0.2500839E-011  0.5052888E+02  0.7816164E-02  0.1300439E+00
        -11   -1    0    0    0    0  0.00000000000E+00  0.00000000000E+00  0.45593999997E+02  0.45594000000E+02  0.51100000000E-03 0.  1.
         11   -1    0    0    0    0 -0.00000000000E+00 -0.00000000000E+00 -0.45593999997E+02  0.45594000000E+02  0.51100000000E-03 0. -1.
    9900012    2    1    2    0    0 -0.10426870990E+02 -0.37819729197E+02  0.10682356033E+02  0.50528876970E+02  0.30000052037E+02 0.  0.
         12    1    1    2    0    0  0.10426870990E+02  0.37819729197E+02 -0.10682356033E+02  0.40659123030E+02  0.00000000000E+00 0. -1.
         11    1    3    3    0    0  0.43213807093E+01 -0.65129623195E+01  0.41633075594E+01  0.88558534036E+01  0.51100000000E-03 0. -1.
        -11    1    3    3    0    0 -0.95760912079E+01 -0.12314573162E+01  0.55593884157E+01  0.11141131440E+02  0.51100000000E-03 0.  1.
        -12    1    3    3    0    0 -0.51721604916E+01 -0.30075309562E+02  0.95966005767E+00  0.30531892126E+02  0.00000000000E+00 0.  1.
</event>
<event>
 7    1  0.2500839E-011  0.5052885E+02  0.7816164E-02  0.1300439E+00
        -11   -1    0    0    0    0  0.00000000000E+00  0.00000000000E+00  0.45593999997E+02  0.45594000000E+02  0.51100000000E-03 0. -1.
         11   -1    0    0    0    0 -0.00000000000E+00 -0.00000000000E+00 -0.45593999997E+02  0.45594000000E+02  0.51100000000E-03 0.  1.
    9900012    2    1    2    0    0  0.40187413749E+02  0.19232645501E+01 -0.58685110788E+01  0.50528848599E+02  0.29999965801E+02 0.  0.
         12    1    1    2    0    0 -0.40187413749E+02 -0.19232645501E+01  0.58685110788E+01  0.40659151401E+02  0.00000000000E+00 0. -1.
         11    1    3    3    0    0  0.16120439607E+02  0.35316418411E+01  0.53684548587E+01  0.17354001701E+02  0.51100000000E-03 0. -1.
        -11    1    3    3    0    0  0.44885702095E+01  0.81720723051E+01 -0.36228962855E+01  0.10002769918E+02  0.51100000000E-03 0.  1.
         12    1    3    3    0    0  0.19578403933E+02 -0.97804495961E+01 -0.76140696521E+01  0.23172076979E+02  0.00000000000E+00 0. -1.
</event>
<event>
 7    1  0.2500839E-011  0.5052885E+02  0.7816164E-02  0.1300439E+00
        -11   -1    0    0    0    0  0.00000000000E+00  0.00000000000E+00  0.45593999997E+02  0.45594000000E+02  0.51100000000E-03 0.  1.
         11   -1    0    0    0    0 -0.00000000000E+00 -0.00000000000E+00 -0.45593999997E+02  0.45594000000E+02  0.51100000000E-03 0. -1.
    9900012    2    1    2    0    0 -0.20370997757E+02  0.23136192181E+02  0.26512370441E+02  0.50528846976E+02  0.29999960868E+02 0.  0.
         12    1    1    2    0    0  0.20370997757E+02 -0.23136192181E+02 -0.26512370441E+02  0.40659153024E+02  0.00000000000E+00 0. -1.
         11    1    3    3    0    0 -0.26966298938E+01  0.12626485389E+02  0.19544807645E+02  0.23424334616E+02  0.51100000000E-03 0. -1.
        -11    1    3    3    0    0 -0.94555593946E+01  0.13610679092E+02  0.77304402454E+01  0.18287096420E+02  0.51100000000E-03 0.  1.
         12    1    3    3    0    0 -0.82188084687E+01 -0.31009723002E+01 -0.76287744991E+00  0.88174159398E+01  0.00000000000E+00 0. -1.
</event>
<event>
 7    1  0.2500839E-011  0.5052884E+02  0.7816164E-02  0.1300439E+00
        -11   -1    0    0    0    0  0.00000000000E+00  0.00000000000E+00  0.45593999997E+02  0.45594000000E+02  0.51100000000E-03 0. -1.
         11   -1    0    0    0    0 -0.00000000000E+00 -0.00000000000E+00 -0.45593999997E+02  0.45594000000E+02  0.51100000000E-03 0.  1.
    9900012    2    1    2    0    0  0.40436861880E+02 -0.17576979828E+01 -0.38649505543E+01  0.50528841822E+02  0.29999945203E+02 0.  0.
         12    1    1    2    0    0 -0.40436861880E+02  0.17576979828E+01  0.38649505543E+01  0.40659158178E+02  0.00000000000E+00 0. -1.
         11    1    3    3    0    0 -0.21554025901E+01  0.40113783371E+01 -0.13952579565E+01  0.47627367674E+01  0.51100000000E-03 0. -1.
        -11    1    3    3    0    0  0.15122716030E+02 -0.38262769992E-01 -0.80857076311E+01  0.17148663864E+02  0.51100000000E-03 0.  1.
         12    1    3    3    0    0  0.27469548440E+02 -0.57308135499E+01  0.56160150333E+01  0.28617441191E+02  0.00000000000E+00 0. -1.
</event>
<event>
 7    1  0.2500839E-011  0.5052885E+02  0.7816164E-02  0.1300439E+00
        -11   -1    0    0    0    0  0.00000000000E+00  0.00000000000E+00  0.45593999997E+02  0.45594000000E+02  0.51100000000E-03 0.  1.
         11   -1    0    0    0    0 -0.00000000000E+00 -0.00000000000E+00 -0.45593999997E+02  0.45594000000E+02  0.51100000000E-03 0. -1.
    9900012    2    1    2    0    0  0.30033322373E+01 -0.14156370032E+02  0.37996624814E+02  0.50528852022E+02  0.29999976207E+02 0.  0.
         12    1    1    2    0    0 -0.30033322373E+01  0.14156370032E+02 -0.37996624814E+02  0.40659147978E+02  0.00000000000E+00 0. -1.
         11    1    3    3    0    0  0.82099380841E+01 -0.17626501482E+02  0.27346346965E+02  0.33554721433E+02  0.51100000000E-03 0.  1.
        -11    1    3    3    0    0 -0.40111217302E+00 -0.28137117081E+00  0.10862941805E+02  0.10873985729E+02  0.51100000000E-03 0. -1.
         12    1    3    3    0    0 -0.48054936737E+01  0.37515026210E+01 -0.21266395597E+00  0.61001448607E+01  0.00000000000E+00 0. -1.
</event>
<event>
 7    1  0.2500839E-011  0.5052886E+02  0.7816164E-02  0.1300439E+00
        -11   -1    0    0    0    0  0.00000000000E+00  0.00000000000E+00  0.45593999997E+02  0.45594000000E+02  0.51100000000E-03 0.  1.
         11   -1    0    0    0    0 -0.00000000000E+00 -0.00000000000E+00 -0.45593999997E+02  0.45594000000E+02  0.51100000000E-03 0. -1.
    9900012    2    1    2    0    0  0.35715409071E+01 -0.22507460250E+02  0.33672301069E+02  0.50528861659E+02  0.30000005498E+02 0.  0.
         12    1    1    2    0    0 -0.35715409071E+01  0.22507460250E+02 -0.33672301069E+02  0.40659138341E+02  0.00000000000E+00 0. -1.
         11    1    3    3    0    0 -0.34952504045E-01  0.59137362870E+01  0.25843943772E+01  0.64538820185E+01  0.51100000000E-03 0. -1.
        -11    1    3    3    0    0  0.14243275309E+01  0.12357840247E+00 -0.43325512004E+00  0.14938844658E+01  0.51100000000E-03 0.  1.
        -12    1    3    3    0    0  0.21821658802E+01 -0.28544774940E+02  0.31521161812E+02  0.42581095174E+02  0.00000000000E+00 0.  1.
</event>
<event>
 7    1  0.2500839E-011  0.5052886E+02  0.7816164E-02  0.1300439E+00
        -11   -1    0    0    0    0  0.00000000000E+00  0.00000000000E+00  0.45593999997E+02  0.45594000000E+02  0.51100000000E-03 0.  1.
         11   -1    0    0    0    0 -0.00000000000E+00 -0.00000000000E+00 -0.45593999997E+02  0.45594000000E+02  0.51100000000E-03 0. -1.
    9900012    2    1    2    0    0  0.24896374765E+02  0.29971140395E+02  0.11621838813E+02  0.50528857481E+02  0.29999992799E+02 0.  0.
         12    1    1    2    0    0 -0.24896374765E+02 -0.29971140395E+02 -0.11621838813E+02  0.40659142519E+02  0.00000000000E+00 0. -1.
         11    1    3    3    0    0  0.17154055173E+02  0.11004476912E+02  0.66764445983E+01  0.21446096002E+02  0.51100000000E-03 0.  1.
        -11    1    3    3    0    0 -0.39237544088E+01  0.92865582908E+01  0.88652775107E+01  0.13424945406E+02  0.51100000000E-03 0. -1.
         12    1    3    3    0    0  0.11666074000E+02  0.96801051928E+01 -0.39198832964E+01  0.15657816073E+02  0.00000000000E+00 0. -1.
</event>
<event>
 7    1  0.2500839E-011  0.5052886E+02  0.7816164E-02  0.1300439E+00
        -11   -1    0    0    0    0  0.00000000000E+00  0.00000000000E+00  0.45593999997E+02  0.45594000000E+02  0.51100000000E-03 0. -1.
         11   -1    0    0    0    0 -0.00000000000E+00 -0.00000000000E+00 -0.45593999997E+02  0.45594000000E+02  0.51100000000E-03 0.  1.
    9900012    2    1    2    0    0  0.63328611643E+01  0.14900126464E+02 -0.37296736257E+02  0.50528862840E+02  0.30000009088E+02 0.  0.
         12    1    1    2    0    0 -0.63328611643E+01 -0.14900126464E+02  0.37296736257E+02  0.40659137160E+02  0.00000000000E+00 0. -1.
         11    1    3    3    0    0 -0.30484375558E+01  0.32167141519E+01 -0.18976684411E+02  0.19487297734E+02  0.51100000000E-03 0. -1.
        -11    1    3    3    0    0  0.28232221895E+01 -0.55919595852E+01 -0.68988714467E+01  0.93185311629E+01  0.51100000000E-03 0.  1.
         12    1    3    3    0    0  0.65580765305E+01  0.17275371897E+02 -0.11421180399E+02  0.21723033943E+02  0.00000000000E+00 0. -1.
</event>
<event>
 7    1  0.2500839E-011  0.5052886E+02  0.7816164E-02  0.1300439E+00
        -11   -1    0    0    0    0  0.00000000000E+00  0.00000000000E+00  0.45593999997E+02  0.45594000000E+02  0.51100000000E-03 0.  1.
         11   -1    0    0    0    0 -0.00000000000E+00 -0.00000000000E+00 -0.45593999997E+02  0.45594000000E+02  0.51100000000E-03 0. -1.
    9900012    2    1    2    0    0  0.53429673513E+01 -0.40005621469E+02 -0.49161820932E+01  0.50528857171E+02  0.29999991857E+02 0.  0.
         12    1    1    2    0    0 -0.53429673513E+01  0.40005621469E+02  0.49161820932E+01  0.40659142829E+02  0.00000000000E+00 0. -1.
         11    1    3    3    0    0 -0.67698701497E+01 -0.88149569248E+01 -0.68345371057E+01  0.13047816106E+02  0.51100000000E-03 0. -1.
        -11    1    3    3    0    0  0.20692547925E+01 -0.16127062228E+02 -0.65054403409E+01  0.17512415762E+02  0.51100000000E-03 0.  1.
         12    1    3    3    0    0  0.10043582708E+02 -0.15063602316E+02  0.84237953534E+01  0.19968625303E+02  0.00000000000E+00 0. -1.
</event>
<event>
 7    1  0.2679284E-011  0.5052885E+02  0.7816164E-02  0.1300439E+00
        -11   -1    0    0    0    0  0.00000000000E+00  0.00000000000E+00  0.45593999997E+02  0.45594000000E+02  0.51100000000E-03 0.  1.
         11   -1    0    0    0    0 -0.00000000000E+00 -0.00000000000E+00 -0.45593999997E+02  0.45594000000E+02  0.51100000000E-03 0. -1.
    9900012    2    1    2    0    0 -0.65921217881E+01  0.39205035439E+02  0.85249826667E+01  0.50528853391E+02  0.29999980369E+02 0.  0.
         12    1    1    2    0    0  0.65921217881E+01 -0.39205035439E+02 -0.85249826667E+01  0.40659146609E+02  0.00000000000E+00 0. -1.
         11    1    3    3    0    0 -0.45624022924E+01 -0.16888373572E+01 -0.22994522342E+01  0.53810005701E+01  0.51100000000E-03 0. -1.
        -11    1    3    3    0    0  0.21965700320E+01  0.37623763163E+01  0.60754787201E+01  0.74760843622E+01  0.51100000000E-03 0.  1.
        -12    1    3    3    0    0 -0.42262895277E+01  0.37131496480E+02  0.47489561808E+01  0.37671768459E+02  0.00000000000E+00 0.  1.
</event>
<event>
 7    1  0.2500839E-011  0.5052888E+02  0.7816164E-02  0.1300439E+00
        -11   -1    0    0    0    0  0.00000000000E+00  0.00000000000E+00  0.45593999997E+02  0.45594000000E+02  0.51100000000E-03 0.  1.
         11   -1    0    0    0    0 -0.00000000000E+00 -0.00000000000E+00 -0.45593999997E+02  0.45594000000E+02  0.51100000000E-03 0. -1.
    9900012    2    1    2    0    0  0.38886601378E+02 -0.86758481450E+00  0.11842455757E+02  0.50528877672E+02  0.30000054172E+02 0.  0.
         12    1    1    2    0    0 -0.38886601378E+02  0.86758481450E+00 -0.11842455757E+02  0.40659122328E+02  0.00000000000E+00 0. -1.
         11    1    3    3    0    0  0.38309586962E+01  0.37311353525E+01  0.25066039807E+01  0.59059867362E+01  0.51100000000E-03 0. -1.
        -11    1    3    3    0    0  0.21656343792E+02  0.97172936740E+01  0.25482456999E+01  0.23872925652E+02  0.51100000000E-03 0.  1.
        -12    1    3    3    0    0  0.13399298890E+02 -0.14316013841E+02  0.67876060763E+01  0.20749965284E+02  0.00000000000E+00 0.  1.
</event>
<event>
 7    1  0.2500839E-011  0.5052885E+02  0.7816164E-02  0.1300439E+00
        -11   -1    0    0    0    0  0.00000000000E+00  0.00000000000E+00  0.45593999997E+02  0.45594000000E+02  0.51100000000E-03 0.  1.
         11   -1    0    0    0    0 -0.00000000000E+00 -0.00000000000E+00 -0.45593999997E+02  0.45594000000E+02  0.51100000000E-03 0. -1.
    9900012    2    1    2    0    0  0.25126170754E+02  0.31446835446E+02 -0.57391883446E+01  0.50528853438E+02  0.29999980509E+02 0.  0.
         12    1    1    2    0    0 -0.25126170754E+02 -0.31446835446E+02  0.57391883446E+01  0.40659146562E+02  0.00000000000E+00 0. -1.
         11    1    3    3    0    0  0.37191558100E+00  0.57500355825E+01 -0.74250601831E+01  0.93985503873E+01  0.51100000000E-03 0. -1.
        -11    1    3    3    0    0 -0.29525373884E+01  0.65647518347E+01 -0.13484465740E+01  0.73233702695E+01  0.51100000000E-03 0.  1.
        -12    1    3    3    0    0  0.27706792561E+02  0.19132048029E+02  0.30343184126E+01  0.33806932781E+02  0.00000000000E+00 0.  1.
</event>
<event>
 7    1  0.2500839E-011  0.5052886E+02  0.7816164E-02  0.1300439E+00
        -11   -1    0    0    0    0  0.00000000000E+00  0.00000000000E+00  0.45593999997E+02  0.45594000000E+02  0.51100000000E-03 0. -1.
         11   -1    0    0    0    0 -0.00000000000E+00 -0.00000000000E+00 -0.45593999997E+02  0.45594000000E+02  0.51100000000E-03 0.  1.
    9900012    2    1    2    0    0  0.15539073723E+00 -0.40036354602E+02 -0.70874504893E+01  0.50528858463E+02  0.29999995784E+02 0.  0.
         12    1    1    2    0    0 -0.15539073723E+00  0.40036354602E+02  0.70874504893E+01  0.40659141537E+02  0.00000000000E+00 0. -1.
         11    1    3    3    0    0 -0.10919458328E+02 -0.88411799065E+01 -0.22527574078E+01  0.14229404363E+02  0.51100000000E-03 0. -1.
        -11    1    3    3    0    0 -0.71566024409E+00 -0.11333233069E+00  0.22034874688E+01  0.23195626934E+01  0.51100000000E-03 0.  1.
        -12    1    3    3    0    0  0.11790509310E+02 -0.31081842365E+02 -0.70381805503E+01  0.33979891407E+02  0.00000000000E+00 0.  1.
</event>
<event>
 7    1  0.2500839E-011  0.5052888E+02  0.7816164E-02  0.1300439E+00
        -11   -1    0    0    0    0  0.00000000000E+00  0.00000000000E+00  0.45593999997E+02  0.45594000000E+02  0.51100000000E-03 0.  1.
         11   -1    0    0    0    0 -0.00000000000E+00 -0.00000000000E+00 -0.45593999997E+02  0.45594000000E+02  0.51100000000E-03 0. -1.
    9900012    2    1    2    0    0 -0.15074834942E+02  0.35733419472E+02  0.12208047323E+02  0.50528876361E+02  0.30000050187E+02 0.  0.
         12    1    1    2    0    0  0.15074834942E+02 -0.35733419472E+02 -0.12208047323E+02  0.40659123639E+02  0.00000000000E+00 0. -1.
         11    1    3    3    0    0 -0.54122807728E+01  0.24777431899E+02  0.79513543188E+00  0.25374123735E+02  0.51100000000E-03 0. -1.
        -11    1    3    3    0    0 -0.10951404632E+02  0.71743790563E+01  0.31205265413E-01  0.13092209603E+02  0.51100000000E-03 0.  1.
         12    1    3    3    0    0  0.12888504628E+01  0.37816085158E+01  0.11381706626E+02  0.12062543024E+02  0.00000000000E+00 0. -1.
</event>
<event>
 7    1  0.2500839E-011  0.5052888E+02  0.7816164E-02  0.1300439E+00
        -11   -1    0    0    0    0  0.00000000000E+00  0.00000000000E+00  0.45593999997E+02  0.45594000000E+02  0.51100000000E-03 0. -1.
         11   -1    0    0    0    0 -0.00000000000E+00 -0.00000000000E+00 -0.45593999997E+02  0.45594000000E+02  0.51100000000E-03 0.  1.
    9900012    2    1    2    0    0  0.40258190284E+01 -0.38505371224E+02 -0.12421483011E+02  0.50528879595E+02  0.30000060016E+02 0.  0.
         12    1    1    2    0    0 -0.40258190284E+01  0.38505371224E+02  0.12421483011E+02  0.40659120405E+02  0.00000000000E+00 0. -1.
         11    1    3    3    0    0  0.61051761080E+01  0.10962640049E+01  0.71480317792E+00  0.62438701077E+01  0.51100000000E-03 0. -1.
        -11    1    3    3    0    0  0.61620723290E+01 -0.18683740833E+02 -0.43673837918E+01  0.20152601528E+02  0.51100000000E-03 0.  1.
        -12    1    3    3    0    0 -0.82414294085E+01 -0.20917894396E+02 -0.87689023969E+01  0.24132407959E+02  0.00000000000E+00 0.  1.
</event>
<event>
 7    1  0.2500839E-011  0.5052887E+02  0.7816164E-02  0.1300439E+00
        -11   -1    0    0    0    0  0.00000000000E+00  0.00000000000E+00  0.45593999997E+02  0.45594000000E+02  0.51100000000E-03 0. -1.
         11   -1    0    0    0    0 -0.00000000000E+00 -0.00000000000E+00 -0.45593999997E+02  0.45594000000E+02  0.51100000000E-03 0.  1.
    9900012    2    1    2    0    0  0.16745398607E+02  0.32812035335E+02  0.17208335052E+02  0.50528870243E+02  0.30000031591E+02 0.  0.
         12    1    1    2    0    0 -0.16745398607E+02 -0.32812035335E+02 -0.17208335052E+02  0.40659129757E+02  0.00000000000E+00 0. -1.
         11    1    3    3    0    0 -0.19226629215E+01 -0.11563723255E+01  0.99228644733E+01  0.10173350937E+02  0.51100000000E-03 0. -1.
        -11    1    3    3    0    0  0.86052835118E+01  0.21776583869E+02  0.73680671266E+01  0.24547075646E+02  0.51100000000E-03 0.  1.
        -12    1    3    3    0    0  0.10062778017E+02  0.12191823791E+02 -0.82596547610E-01  0.15808443660E+02  0.00000000000E+00 0.  1.
</event>
<event>
 7    1  0.2500839E-011  0.5052873E+02  0.7816164E-02  0.1300439E+00
        -11   -1    0    0    0    0  0.00000000000E+00  0.00000000000E+00  0.45593999997E+02  0.45594000000E+02  0.51100000000E-03 0. -1.
         11   -1    0    0    0    0 -0.00000000000E+00 -0.00000000000E+00 -0.45593999997E+02  0.45594000000E+02  0.51100000000E-03 0.  1.
    9900012    2    1    2    0    0 -0.67409396530E+01  0.38505307620E+02  0.11183789553E+02  0.50528731301E+02  0.29999609261E+02 0.  0.
         12    1    1    2    0    0  0.67409396530E+01 -0.38505307620E+02 -0.11183789553E+02  0.40659268699E+02  0.00000000000E+00 0. -1.
         11    1    3    3    0    0 -0.24018281071E+01  0.15130145127E+02  0.13522269662E+02  0.20433840728E+02  0.51100000000E-03 0. -1.
        -11    1    3    3    0    0  0.12773699103E+01  0.24056043950E+02 -0.33262205272E+00  0.24092230326E+02  0.51100000000E-03 0.  1.
        -12    1    3    3    0    0 -0.56164814563E+01 -0.68088145695E+00 -0.20058580554E+01  0.60026602474E+01  0.00000000000E+00 0.  1.
</event>
<event>
 7    1  0.2500839E-011  0.5052880E+02  0.7816164E-02  0.1300439E+00
        -11   -1    0    0    0    0  0.00000000000E+00  0.00000000000E+00  0.45593999997E+02  0.45594000000E+02  0.51100000000E-03 0.  1.
         11   -1    0    0    0    0 -0.00000000000E+00 -0.00000000000E+00 -0.45593999997E+02  0.45594000000E+02  0.51100000000E-03 0. -1.
    9900012    2    1    2    0    0 -0.30741853022E+02 -0.26538374312E+02 -0.19553856765E+01  0.50528802130E+02  0.29999824553E+02 0.  0.
         12    1    1    2    0    0  0.30741853022E+02  0.26538374312E+02  0.19553856765E+01  0.40659197870E+02  0.00000000000E+00 0. -1.
         11    1    3    3    0    0 -0.95285117254E+01 -0.13167426101E+02  0.48730284630E+01  0.16968207109E+02  0.51100000000E-03 0.  1.
        -11    1    3    3    0    0 -0.37510089200E+01  0.56080793166E+01 -0.33629345510E+01  0.75385642263E+01  0.51100000000E-03 0. -1.
         12    1    3    3    0    0 -0.17462332376E+02 -0.18979027527E+02 -0.34654795885E+01  0.26022030795E+02  0.00000000000E+00 0. -1.
</event>
<event>
 7    1  0.2500839E-011  0.5052887E+02  0.7816164E-02  0.1300439E+00
        -11   -1    0    0    0    0  0.00000000000E+00  0.00000000000E+00  0.45593999997E+02  0.45594000000E+02  0.51100000000E-03 0.  1.
         11   -1    0    0    0    0 -0.00000000000E+00 -0.00000000000E+00 -0.45593999997E+02  0.45594000000E+02  0.51100000000E-03 0. -1.
    9900012    2    1    2    0    0 -0.20765246336E+02 -0.87181684634E+01  0.33852071815E+02  0.50528872084E+02  0.30000037187E+02 0.  0.
         12    1    1    2    0    0  0.20765246336E+02  0.87181684634E+01 -0.33852071815E+02  0.40659127916E+02  0.00000000000E+00 0. -1.
         11    1    3    3    0    0 -0.34130754818E+01 -0.47002154156E+01  0.20102587930E+00  0.58121872701E+01  0.51100000000E-03 0. -1.
        -11    1    3    3    0    0 -0.16825099365E+02 -0.82492585396E+01  0.11128343905E+02  0.21793904501E+02  0.51100000000E-03 0.  1.
         12    1    3    3    0    0 -0.52707148959E+00  0.42313054918E+01  0.22522702030E+02  0.22922780313E+02  0.00000000000E+00 0. -1.
</event>
<event>
 7    1  0.2500839E-011  0.5052876E+02  0.7816164E-02  0.1300439E+00
        -11   -1    0    0    0    0  0.00000000000E+00  0.00000000000E+00  0.45593999997E+02  0.45594000000E+02  0.51100000000E-03 0.  1.
         11   -1    0    0    0    0 -0.00000000000E+00 -0.00000000000E+00 -0.45593999997E+02  0.45594000000E+02  0.51100000000E-03 0. -1.
    9900012    2    1    2    0    0 -0.14611781566E+00  0.65488997755E+01  0.40128098092E+02  0.50528761257E+02  0.29999700315E+02 0.  0.
         12    1    1    2    0    0  0.14611781566E+00 -0.65488997755E+01 -0.40128098092E+02  0.40659238743E+02  0.00000000000E+00 0. -1.
         11    1    3    3    0    0  0.57782777428E+01  0.89436631564E+00  0.43717720112E+01  0.73007380147E+01  0.51100000000E-03 0. -1.
        -11    1    3    3    0    0 -0.29913248632E+01  0.91552163292E+01  0.29040177949E+01  0.10059787775E+02  0.51100000000E-03 0.  1.
        -12    1    3    3    0    0 -0.29330706954E+01 -0.35006828693E+01  0.32852308286E+02  0.33168235467E+02  0.00000000000E+00 0.  1.
</event>
<event>
 7    1  0.2500839E-011  0.5052887E+02  0.7816164E-02  0.1300439E+00
        -11   -1    0    0    0    0  0.00000000000E+00  0.00000000000E+00  0.45593999997E+02  0.45594000000E+02  0.51100000000E-03 0. -1.
         11   -1    0    0    0    0 -0.00000000000E+00 -0.00000000000E+00 -0.45593999997E+02  0.45594000000E+02  0.51100000000E-03 0.  1.
    9900012    2    1    2    0    0 -0.27214656509E+02 -0.27589110372E+02 -0.12303177210E+02  0.50528871757E+02  0.30000036192E+02 0.  0.
         12    1    1    2    0    0  0.27214656509E+02  0.27589110372E+02  0.12303177210E+02  0.40659128243E+02  0.00000000000E+00 0. -1.
         11    1    3    3    0    0 -0.45952898701E+01 -0.22715147696E+02 -0.10085269217E+02  0.25274637075E+02  0.51100000000E-03 0. -1.
        -11    1    3    3    0    0 -0.29910727546E+01 -0.42810692457E+01 -0.20663785875E+01  0.56164037281E+01  0.51100000000E-03 0.  1.
        -12    1    3    3    0    0 -0.19628293884E+02 -0.59289343105E+00 -0.15152940596E+00  0.19637830954E+02  0.00000000000E+00 0.  1.
</event>
<event>
 7    1  0.2500839E-011  0.5052886E+02  0.7816164E-02  0.1300439E+00
        -11   -1    0    0    0    0  0.00000000000E+00  0.00000000000E+00  0.45593999997E+02  0.45594000000E+02  0.51100000000E-03 0.  1.
         11   -1    0    0    0    0 -0.00000000000E+00 -0.00000000000E+00 -0.45593999997E+02  0.45594000000E+02  0.51100000000E-03 0. -1.
    9900012    2    1    2    0    0  0.37823130799E+02  0.15278117696E+01  0.14840571993E+02  0.50528855772E+02  0.29999987606E+02 0.  0.
         12    1    1    2    0    0 -0.37823130799E+02 -0.15278117696E+01 -0.14840571993E+02  0.40659144228E+02  0.00000000000E+00 0. -1.
         11    1    3    3    0    0  0.13077010963E+02 -0.60814610157E+01  0.81424898792E+01  0.16561779056E+02  0.51100000000E-03 0.  1.
        -11    1    3    3    0    0  0.25770232565E+02  0.11174912020E+02  0.22555415331E+01  0.28179265658E+02  0.51100000000E-03 0. -1.
         12    1    3    3    0    0 -0.10241127298E+01 -0.35656392348E+01  0.44425405809E+01  0.57878110586E+01  0.00000000000E+00 0. -1.
</event>
<event>
 7    1  0.2500839E-011  0.5052886E+02  0.7816164E-02  0.1300439E+00
        -11   -1    0    0    0    0  0.00000000000E+00  0.00000000000E+00  0.45593999997E+02  0.45594000000E+02  0.51100000000E-03 0.  1.
         11   -1    0    0    0    0 -0.00000000000E+00 -0.00000000000E+00 -0.45593999997E+02  0.45594000000E+02  0.51100000000E-03 0. -1.
    9900012    2    1    2    0    0  0.28167027694E+02 -0.11745224428E+02  0.26866962330E+02  0.50528863132E+02  0.30000009976E+02 0.  0.
         12    1    1    2    0    0 -0.28167027694E+02  0.11745224428E+02 -0.26866962330E+02  0.40659136868E+02  0.00000000000E+00 0. -1.
         11    1    3    3    0    0  0.94301483830E+01  0.17361833266E+01  0.69464292005E+01  0.11840393151E+02  0.51100000000E-03 0.  1.
        -11    1    3    3    0    0  0.10448885382E+02 -0.78830002212E+01  0.24431375423E+02  0.27716655707E+02  0.51100000000E-03 0. -1.
         12    1    3    3    0    0  0.82879939290E+01 -0.55984075333E+01 -0.45108422936E+01  0.10971814275E+02  0.00000000000E+00 0. -1.
</event>
<event>
 7    1  0.2500839E-011  0.5052883E+02  0.7816164E-02  0.1300439E+00
        -11   -1    0    0    0    0  0.00000000000E+00  0.00000000000E+00  0.45593999997E+02  0.45594000000E+02  0.51100000000E-03 0.  1.
         11   -1    0    0    0    0 -0.00000000000E+00 -0.00000000000E+00 -0.45593999997E+02  0.45594000000E+02  0.51100000000E-03 0. -1.
    9900012    2    1    2    0    0 -0.16731150711E+02  0.24828411712E+02  0.27509750657E+02  0.50528833586E+02  0.29999920169E+02 0.  0.
         12    1    1    2    0    0  0.16731150711E+02 -0.24828411712E+02 -0.27509750657E+02  0.40659166414E+02  0.00000000000E+00 0. -1.
         11    1    3    3    0    0 -0.40446039575E+01  0.67173945391E+01 -0.62539100113E+00  0.78659598735E+01  0.51100000000E-03 0. -1.
        -11    1    3    3    0    0 -0.14572782254E+02  0.14335121692E+01  0.89041215557E+01  0.17137803847E+02  0.51100000000E-03 0.  1.
        -12    1    3    3    0    0  0.18862354997E+01  0.16677505003E+02  0.19231020102E+02  0.25525069866E+02  0.00000000000E+00 0.  1.
</event>
<event>
 7    1  0.2500839E-011  0.5052886E+02  0.7816164E-02  0.1300439E+00
        -11   -1    0    0    0    0  0.00000000000E+00  0.00000000000E+00  0.45593999997E+02  0.45594000000E+02  0.51100000000E-03 0. -1.
         11   -1    0    0    0    0 -0.00000000000E+00 -0.00000000000E+00 -0.45593999997E+02  0.45594000000E+02  0.51100000000E-03 0.  1.
    9900012    2    1    2    0    0 -0.13308933897E+02 -0.28417047324E+02 -0.25855540341E+02  0.50528864908E+02  0.30000015374E+02 0.  0.
         12    1    1    2    0    0  0.13308933897E+02  0.28417047324E+02  0.25855540341E+02  0.40659135092E+02  0.00000000000E+00 0. -1.
         11    1    3    3    0    0  0.15846851788E+01 -0.87370227610E+01 -0.15196042181E+02  0.17600184433E+02  0.51100000000E-03 0. -1.
        -11    1    3    3    0    0 -0.65155569434E+01 -0.21592515456E+02 -0.73856679857E+01  0.23732620965E+02  0.51100000000E-03 0.  1.
         12    1    3    3    0    0 -0.83780621325E+01  0.19124908926E+01 -0.32738301751E+01  0.91960595108E+01  0.00000000000E+00 0. -1.
</event>
<event>
 7    1  0.2500839E-011  0.5052886E+02  0.7816164E-02  0.1300439E+00
        -11   -1    0    0    0    0  0.00000000000E+00  0.00000000000E+00  0.45593999997E+02  0.45594000000E+02  0.51100000000E-03 0. -1.
         11   -1    0    0    0    0 -0.00000000000E+00 -0.00000000000E+00 -0.45593999997E+02  0.45594000000E+02  0.51100000000E-03 0.  1.
    9900012    2    1    2    0    0  0.16867543192E+02  0.36466933245E+02 -0.62301446339E+01  0.50528856677E+02  0.29999990355E+02 0.  0.
         12    1    1    2    0    0 -0.16867543192E+02 -0.36466933245E+02  0.62301446339E+01  0.40659143323E+02  0.00000000000E+00 0. -1.
         11    1    3    3    0    0  0.23124519686E+02  0.30741417152E+02 -0.11611861842E+01  0.38485406232E+02  0.51100000000E-03 0. -1.
        -11    1    3    3    0    0 -0.25332331408E+01 -0.76440144873E+00  0.52949336621E+00  0.26985075888E+01  0.51100000000E-03 0.  1.
        -12    1    3    3    0    0 -0.37237433528E+01  0.64899175411E+01 -0.55984518159E+01  0.93449428560E+01  0.00000000000E+00 0.  1.
</event>
<event>
 7    1  0.2500839E-011  0.5052886E+02  0.7816164E-02  0.1300439E+00
        -11   -1    0    0    0    0  0.00000000000E+00  0.00000000000E+00  0.45593999997E+02  0.45594000000E+02  0.51100000000E-03 0. -1.
         11   -1    0    0    0    0 -0.00000000000E+00 -0.00000000000E+00 -0.45593999997E+02  0.45594000000E+02  0.51100000000E-03 0.  1.
    9900012    2    1    2    0    0 -0.25397279708E+02 -0.18460116249E+02 -0.25833467883E+02  0.50528858699E+02  0.29999996502E+02 0.  0.
         12    1    1    2    0    0  0.25397279708E+02  0.18460116249E+02  0.25833467883E+02  0.40659141301E+02  0.00000000000E+00 0. -1.
         11    1    3    3    0    0 -0.10777053547E+02 -0.95785901688E+01 -0.16769869932E+02  0.22116121056E+02  0.51100000000E-03 0. -1.
        -11    1    3    3    0    0 -0.19393774372E+02 -0.77323998054E+01 -0.10398479994E+02  0.23324598122E+02  0.51100000000E-03 0.  1.
         12    1    3    3    0    0  0.47735482104E+01 -0.11491262747E+01  0.13348820432E+01  0.50881395206E+01  0.00000000000E+00 0. -1.
</event>
<event>
 7    1  0.2500839E-011  0.5052886E+02  0.7816164E-02  0.1300439E+00
        -11   -1    0    0    0    0  0.00000000000E+00  0.00000000000E+00  0.45593999997E+02  0.45594000000E+02  0.51100000000E-03 0. -1.
         11   -1    0    0    0    0 -0.00000000000E+00 -0.00000000000E+00 -0.45593999997E+02  0.45594000000E+02  0.51100000000E-03 0.  1.
    9900012    2    1    2    0    0  0.36037817710E+02 -0.11839625040E+02 -0.14637784416E+02  0.50528858850E+02  0.29999996962E+02 0.  0.
         12    1    1    2    0    0 -0.36037817710E+02  0.11839625040E+02  0.14637784416E+02  0.40659141150E+02  0.00000000000E+00 0. -1.
         11    1    3    3    0    0  0.18297780295E+02 -0.13448862450E+02 -0.27325238602E+01  0.22872414648E+02  0.51100000000E-03 0. -1.
        -11    1    3    3    0    0  0.57380906344E+01 -0.61295366976E+01  0.94004769386E+00  0.84487036984E+01  0.51100000000E-03 0.  1.
         12    1    3    3    0    0  0.12001946781E+02  0.77387741079E+01 -0.12845308250E+02  0.19207740504E+02  0.00000000000E+00 0. -1.
</event>
<event>
 7    1  0.2500839E-011  0.5052881E+02  0.7816164E-02  0.1300439E+00
        -11   -1    0    0    0    0  0.00000000000E+00  0.00000000000E+00  0.45593999997E+02  0.45594000000E+02  0.51100000000E-03 0. -1.
         11   -1    0    0    0    0 -0.00000000000E+00 -0.00000000000E+00 -0.45593999997E+02  0.45594000000E+02  0.51100000000E-03 0.  1.
    9900012    2    1    2    0    0  0.65451747737E+01  0.38794899250E+02 -0.10260900133E+02  0.50528811713E+02  0.29999853682E+02 0.  0.
         12    1    1    2    0    0 -0.65451747737E+01 -0.38794899250E+02  0.10260900133E+02  0.40659188287E+02  0.00000000000E+00 0. -1.
         11    1    3    3    0    0 -0.32014649948E+00  0.13520225971E+01  0.63207734288E+01  0.64716795257E+01  0.51100000000E-03 0. -1.
        -11    1    3    3    0    0  0.59141088458E+01  0.46042700058E+01 -0.58121743211E+01  0.94845851952E+01  0.51100000000E-03 0.  1.
        -12    1    3    3    0    0  0.95121242741E+00  0.32838606647E+02 -0.10769499241E+02  0.34572546992E+02  0.00000000000E+00 0.  1.
</event>
<event>
 7    1  0.2500839E-011  0.5052884E+02  0.7816164E-02  0.1300439E+00
        -11   -1    0    0    0    0  0.00000000000E+00  0.00000000000E+00  0.45593999997E+02  0.45594000000E+02  0.51100000000E-03 0. -1.
         11   -1    0    0    0    0 -0.00000000000E+00 -0.00000000000E+00 -0.45593999997E+02  0.45594000000E+02  0.51100000000E-03 0.  1.
    9900012    2    1    2    0    0 -0.57625465374E+01 -0.26003098042E+02 -0.30721312693E+02  0.50528842311E+02  0.29999946689E+02 0.  0.
         12    1    1    2    0    0  0.57625465374E+01  0.26003098042E+02  0.30721312693E+02  0.40659157689E+02  0.00000000000E+00 0. -1.
         11    1    3    3    0    0  0.55959845961E+01  0.82817511782E+00 -0.69655267522E+01  0.89732647806E+01  0.51100000000E-03 0. -1.
        -11    1    3    3    0    0 -0.70002039188E+01 -0.29170356263E+01 -0.12832619694E+02  0.14905974648E+02  0.51100000000E-03 0.  1.
         12    1    3    3    0    0 -0.43583272147E+01 -0.23914237533E+02 -0.10923166247E+02  0.26649602882E+02  0.00000000000E+00 0. -1.
</event>
<event>
 7    1  0.2500839E-011  0.5052880E+02  0.7816164E-02  0.1300439E+00
        -11   -1    0    0    0    0  0.00000000000E+00  0.00000000000E+00  0.45593999997E+02  0.45594000000E+02  0.51100000000E-03 0. -1.
         11   -1    0    0    0    0 -0.00000000000E+00 -0.00000000000E+00 -0.45593999997E+02  0.45594000000E+02  0.51100000000E-03 0.  1.
    9900012    2    1    2    0    0 -0.36489612423E+02 -0.13930695489E+02 -0.11296667277E+02  0.50528797067E+02  0.29999809164E+02 0.  0.
         12    1    1    2    0    0  0.36489612423E+02  0.13930695489E+02  0.11296667277E+02  0.40659202933E+02  0.00000000000E+00 0. -1.
         11    1    3    3    0    0 -0.16955330151E+00  0.33924519890E+01 -0.16258147551E+01  0.37657340186E+01  0.51100000000E-03 0. -1.
        -11    1    3    3    0    0 -0.16272129454E+02 -0.82902279100E+01  0.65898788602E+01  0.19414854607E+02  0.51100000000E-03 0.  1.
        -12    1    3    3    0    0 -0.20047929668E+02 -0.90329195680E+01 -0.16260731382E+02  0.27348208441E+02  0.00000000000E+00 0.  1.
</event>
<event>
 7    1  0.2500839E-011  0.5052884E+02  0.7816164E-02  0.1300439E+00
        -11   -1    0    0    0    0  0.00000000000E+00  0.00000000000E+00  0.45593999997E+02  0.45594000000E+02  0.51100000000E-03 0.  1.
         11   -1    0    0    0    0 -0.00000000000E+00 -0.00000000000E+00 -0.45593999997E+02  0.45594000000E+02  0.51100000000E-03 0. -1.
    9900012    2    1    2    0    0  0.80714064852E+01 -0.15958369195E+02  0.36515062408E+02  0.50528844417E+02  0.29999953091E+02 0.  0.
         12    1    1    2    0    0 -0.80714064852E+01  0.15958369195E+02 -0.36515062408E+02  0.40659155583E+02  0.00000000000E+00 0. -1.
         11    1    3    3    0    0 -0.41600900255E+01 -0.46533838033E+00  0.14754655762E+01  0.44384555598E+01  0.51100000000E-03 0. -1.
        -11    1    3    3    0    0  0.64926739806E+01 -0.14879409385E+02  0.36661660250E+02  0.40095248741E+02  0.51100000000E-03 0.  1.
         12    1    3    3    0    0  0.57388225300E+01 -0.61362142891E+00 -0.16220634173E+01  0.59951401167E+01  0.00000000000E+00 0. -1.
</event>
<event>
 7    1  0.2500839E-011  0.5052886E+02  0.7816164E-02  0.1300439E+00
        -11   -1    0    0    0    0  0.00000000000E+00  0.00000000000E+00  0.45593999997E+02  0.45594000000E+02  0.51100000000E-03 0.  1.
         11   -1    0    0    0    0 -0.00000000000E+00 -0.00000000000E+00 -0.45593999997E+02  0.45594000000E+02  0.51100000000E-03 0. -1.
    9900012    2    1    2    0    0  0.14989146631E+02  0.34785820838E+02  0.14779648956E+02  0.50528857469E+02  0.29999992762E+02 0.  0.
         12    1    1    2    0    0 -0.14989146631E+02 -0.34785820838E+02 -0.14779648956E+02  0.40659142531E+02  0.00000000000E+00 0. -1.
         11    1    3    3    0    0  0.27207145266E+01  0.12163578175E+02  0.77815488829E+01  0.14693788648E+02  0.51100000000E-03 0. -1.
        -11    1    3    3    0    0  0.63054176860E+01  0.18286168882E+02  0.15350757011E+02  0.24693885997E+02  0.51100000000E-03 0.  1.
         12    1    3    3    0    0  0.59630144185E+01  0.43360737813E+01 -0.83526569375E+01  0.11141182824E+02  0.00000000000E+00 0. -1.
</event>
<event>
 7    1  0.2500839E-011  0.5052885E+02  0.7816164E-02  0.1300439E+00
        -11   -1    0    0    0    0  0.00000000000E+00  0.00000000000E+00  0.45593999997E+02  0.45594000000E+02  0.51100000000E-03 0.  1.
         11   -1    0    0    0    0 -0.00000000000E+00 -0.00000000000E+00 -0.45593999997E+02  0.45594000000E+02  0.51100000000E-03 0. -1.
    9900012    2    1    2    0    0 -0.23489521848E+01 -0.36499364743E+02 -0.17760768164E+02  0.50528854795E+02  0.29999984636E+02 0.  0.
         12    1    1    2    0    0  0.23489521848E+01  0.36499364743E+02  0.17760768164E+02  0.40659145205E+02  0.00000000000E+00 0. -1.
         11    1    3    3    0    0  0.24448399526E+01 -0.56461746949E+01 -0.65145363098E+01  0.89607876144E+01  0.51100000000E-03 0. -1.
        -11    1    3    3    0    0  0.24024724934E+01 -0.62080272639E+01 -0.14240717014E+02  0.15719716853E+02  0.51100000000E-03 0.  1.
        -12    1    3    3    0    0 -0.71962646308E+01 -0.24645162784E+02  0.29944851605E+01  0.25848350328E+02  0.00000000000E+00 0.  1.
</event>
<event>
 7    1  0.2500839E-011  0.5052886E+02  0.7816164E-02  0.1300439E+00
        -11   -1    0    0    0    0  0.00000000000E+00  0.00000000000E+00  0.45593999997E+02  0.45594000000E+02  0.51100000000E-03 0.  1.
         11   -1    0    0    0    0 -0.00000000000E+00 -0.00000000000E+00 -0.45593999997E+02  0.45594000000E+02  0.51100000000E-03 0. -1.
    9900012    2    1    2    0    0 -0.63043129666E+00 -0.11043942158E+02  0.39125429937E+02  0.50528863637E+02  0.30000011511E+02 0.  0.
         12    1    1    2    0    0  0.63043129666E+00  0.11043942158E+02 -0.39125429937E+02  0.40659136363E+02  0.00000000000E+00 0. -1.
         11    1    3    3    0    0 -0.97317167323E+01 -0.54789344213E+01  0.20001095279E+02  0.22907833716E+02  0.51100000000E-03 0. -1.
        -11    1    3    3    0    0  0.25484362675E+01 -0.80262922907E+01  0.18815884124E+02  0.20614397662E+02  0.51100000000E-03 0.  1.
         12    1    3    3    0    0  0.65528491682E+01  0.24612845542E+01  0.30845053449E+00  0.70066322588E+01  0.00000000000E+00 0. -1.
</event>
<event>
 7    1  0.2500839E-011  0.5052886E+02  0.7816164E-02  0.1300439E+00
        -11   -1    0    0    0    0  0.00000000000E+00  0.00000000000E+00  0.45593999997E+02  0.45594000000E+02  0.51100000000E-03 0.  1.
         11   -1    0    0    0    0 -0.00000000000E+00 -0.00000000000E+00 -0.45593999997E+02  0.45594000000E+02  0.51100000000E-03 0. -1.
    9900012    2    1    2    0    0 -0.12957395380E+02  0.17524253167E+02  0.34324510592E+02  0.50528861157E+02  0.30000003972E+02 0.  0.
         12    1    1    2    0    0  0.12957395380E+02 -0.17524253167E+02 -0.34324510592E+02  0.40659138843E+02  0.00000000000E+00 0. -1.
         11    1    3    3    0    0  0.86892537322E+01  0.14207136676E+01  0.41312773203E+01  0.97256881663E+01  0.51100000000E-03 0.  1.
        -11    1    3    3    0    0 -0.10953997936E+02  0.72284412341E+01  0.11100916279E+02  0.17189263392E+02  0.51100000000E-03 0. -1.
        -12    1    3    3    0    0 -0.10692651176E+02  0.88750982657E+01  0.19092316992E+02  0.23613909599E+02  0.00000000000E+00 0.  1.
</event>
<event>
 7    1  0.2500839E-011  0.5052886E+02  0.7816164E-02  0.1300439E+00
        -11   -1    0    0    0    0  0.00000000000E+00  0.00000000000E+00  0.45593999997E+02  0.45594000000E+02  0.51100000000E-03 0. -1.
         11   -1    0    0    0    0 -0.00000000000E+00 -0.00000000000E+00 -0.45593999997E+02  0.45594000000E+02  0.51100000000E-03 0.  1.
    9900012    2    1    2    0    0 -0.37480223757E+02 -0.15473978309E+02 -0.29923635006E+01  0.50528863057E+02  0.30000009749E+02 0.  0.
         12    1    1    2    0    0  0.37480223757E+02  0.15473978309E+02  0.29923635006E+01  0.40659136943E+02  0.00000000000E+00 0. -1.
         11    1    3    3    0    0 -0.19623550007E+02 -0.38636431489E+01 -0.43662782720E+01  0.20471341907E+02  0.51100000000E-03 0.  1.
        -11    1    3    3    0    0 -0.40928310051E+00  0.58631986457E+00 -0.71067607956E+01  0.71426418717E+01  0.51100000000E-03 0. -1.
         12    1    3    3    0    0 -0.17447390650E+02 -0.12196655025E+02  0.84806755670E+01  0.22914879279E+02  0.00000000000E+00 0. -1.
</event>
<event>
 7    1  0.2500839E-011  0.5052885E+02  0.7816164E-02  0.1300439E+00
        -11   -1    0    0    0    0  0.00000000000E+00  0.00000000000E+00  0.45593999997E+02  0.45594000000E+02  0.51100000000E-03 0. -1.
         11   -1    0    0    0    0 -0.00000000000E+00 -0.00000000000E+00 -0.45593999997E+02  0.45594000000E+02  0.51100000000E-03 0.  1.
    9900012    2    1    2    0    0 -0.30704014430E+02  0.17399042431E+02  0.20191673795E+02  0.50528845185E+02  0.29999955425E+02 0.  0.
         12    1    1    2    0    0  0.30704014430E+02 -0.17399042431E+02 -0.20191673795E+02  0.40659154815E+02  0.00000000000E+00 0. -1.
         11    1    3    3    0    0 -0.17769587855E+02  0.10736120196E+02  0.65953143951E+01  0.21783496084E+02  0.51100000000E-03 0. -1.
        -11    1    3    3    0    0 -0.45001362729E+01  0.13342292412E+02  0.48919489276E+01  0.14906346228E+02  0.51100000000E-03 0.  1.
        -12    1    3    3    0    0 -0.84342903014E+01 -0.66793701776E+01  0.87044104722E+01  0.13839002873E+02  0.00000000000E+00 0.  1.
</event>
<event>
 7    1  0.4181826E-011  0.5052884E+02  0.7816164E-02  0.1300439E+00
        -11   -1    0    0    0    0  0.00000000000E+00  0.00000000000E+00  0.45593999997E+02  0.45594000000E+02  0.51100000000E-03 0. -1.
         11   -1    0    0    0    0 -0.00000000000E+00 -0.00000000000E+00 -0.45593999997E+02  0.45594000000E+02  0.51100000000E-03 0.  1.
    9900012    2    1    2    0    0 -0.23523985669E+01  0.25915620829E+01 -0.40508237250E+02  0.50528840415E+02  0.29999940925E+02 0.  0.
         12    1    1    2    0    0  0.23523985669E+01 -0.25915620829E+01  0.40508237250E+02  0.40659159585E+02  0.00000000000E+00 0. -1.
         11    1    3    3    0    0 -0.40427175353E+01 -0.37858367243E+01 -0.11429215391E+01  0.56552979302E+01  0.51100000000E-03 0. -1.
        -11    1    3    3    0    0 -0.19392575335E+01  0.96297795424E+01 -0.68036709393E+01  0.11949197142E+02  0.51100000000E-03 0.  1.
        -12    1    3    3    0    0  0.36295765019E+01 -0.32523807352E+01 -0.32561644772E+02  0.32924345343E+02  0.00000000000E+00 0.  1.
</event>
<event>
 7    1  0.2500839E-011  0.5052888E+02  0.7816164E-02  0.1300439E+00
        -11   -1    0    0    0    0  0.00000000000E+00  0.00000000000E+00  0.45593999997E+02  0.45594000000E+02  0.51100000000E-03 0.  1.
         11   -1    0    0    0    0 -0.00000000000E+00 -0.00000000000E+00 -0.45593999997E+02  0.45594000000E+02  0.51100000000E-03 0. -1.
    9900012    2    1    2    0    0  0.19500130200E+02  0.28199744132E+02  0.21855963423E+02  0.50528883137E+02  0.30000070783E+02 0.  0.
         12    1    1    2    0    0 -0.19500130200E+02 -0.28199744132E+02 -0.21855963423E+02  0.40659116863E+02  0.00000000000E+00 0. -1.
         11    1    3    3    0    0  0.68453898143E+01  0.21710097125E+02  0.11242920480E+02  0.25388795561E+02  0.51100000000E-03 0. -1.
        -11    1    3    3    0    0  0.14637436955E+02  0.77957026130E+01  0.13512962741E+02  0.21392234622E+02  0.51100000000E-03 0.  1.
         12    1    3    3    0    0 -0.19826965693E+01 -0.13060556059E+01 -0.28999197973E+01  0.37478529536E+01  0.00000000000E+00 0. -1.
</event>
<event>
 7    1  0.2500839E-011  0.5052888E+02  0.7816164E-02  0.1300439E+00
        -11   -1    0    0    0    0  0.00000000000E+00  0.00000000000E+00  0.45593999997E+02  0.45594000000E+02  0.51100000000E-03 0.  1.
         11   -1    0    0    0    0 -0.00000000000E+00 -0.00000000000E+00 -0.45593999997E+02  0.45594000000E+02  0.51100000000E-03 0. -1.
    9900012    2    1    2    0    0 -0.70315986804E+00 -0.24155432430E+02  0.32698392694E+02  0.50528877599E+02  0.30000053949E+02 0.  0.
         12    1    1    2    0    0  0.70315986804E+00  0.24155432430E+02 -0.32698392694E+02  0.40659122401E+02  0.00000000000E+00 0. -1.
         11    1    3    3    0    0  0.79688067655E+01 -0.20309891069E+01  0.11309127531E+02  0.13982959765E+02  0.51100000000E-03 0. -1.
        -11    1    3    3    0    0 -0.23420816117E+01 -0.57944785788E+00  0.11943133228E+02  0.12184397304E+02  0.51100000000E-03 0.  1.
         12    1    3    3    0    0 -0.63298850218E+01 -0.21544995465E+02  0.94461319343E+01  0.24361520529E+02  0.00000000000E+00 0. -1.
</event>
<event>
 7    1  0.2500839E-011  0.5052886E+02  0.7816164E-02  0.1300439E+00
        -11   -1    0    0    0    0  0.00000000000E+00  0.00000000000E+00  0.45593999997E+02  0.45594000000E+02  0.51100000000E-03 0. -1.
         11   -1    0    0    0    0 -0.00000000000E+00 -0.00000000000E+00 -0.45593999997E+02  0.45594000000E+02  0.51100000000E-03 0.  1.
    9900012    2    1    2    0    0 -0.63760117667E+01  0.19390597420E+02 -0.35164143274E+02  0.50528858758E+02  0.29999996682E+02 0.  0.
         12    1    1    2    0    0  0.63760117667E+01 -0.19390597420E+02  0.35164143274E+02  0.40659141242E+02  0.00000000000E+00 0. -1.
         11    1    3    3    0    0  0.15664866457E+01  0.91179691380E+01  0.32449098134E+00  0.92572423686E+01  0.51100000000E-03 0. -1.
        -11    1    3    3    0    0  0.44472687275E+01  0.69241024018E+01 -0.13410257653E+02  0.15733925251E+02  0.51100000000E-03 0.  1.
         12    1    3    3    0    0 -0.12389767140E+02  0.33485258797E+01 -0.22078376601E+02  0.25537691139E+02  0.00000000000E+00 0. -1.
</event>
<event>
 7    1  0.2500839E-011  0.5052885E+02  0.7816164E-02  0.1300439E+00
        -11   -1    0    0    0    0  0.00000000000E+00  0.00000000000E+00  0.45593999997E+02  0.45594000000E+02  0.51100000000E-03 0.  1.
         11   -1    0    0    0    0 -0.00000000000E+00 -0.00000000000E+00 -0.45593999997E+02  0.45594000000E+02  0.51100000000E-03 0. -1.
    9900012    2    1    2    0    0  0.27157468793E+02  0.30182121393E+02  0.21628001152E+01  0.50528852599E+02  0.29999977961E+02 0.  0.
         12    1    1    2    0    0 -0.27157468793E+02 -0.30182121393E+02 -0.21628001152E+01  0.40659147401E+02  0.00000000000E+00 0. -1.
         11    1    3    3    0    0  0.15468343913E+02  0.22141703206E+02 -0.47402808004E+01  0.27422526262E+02  0.51100000000E-03 0. -1.
        -11    1    3    3    0    0  0.35291490015E+01 -0.51177187880E+01  0.15977135675E+00  0.62186385499E+01  0.51100000000E-03 0.  1.
         12    1    3    3    0    0  0.81599758790E+01  0.13158136975E+02  0.67433095588E+01  0.16887687787E+02  0.00000000000E+00 0. -1.
</event>
<event>
 7    1  0.2500839E-011  0.5052886E+02  0.7816164E-02  0.1300439E+00
        -11   -1    0    0    0    0  0.00000000000E+00  0.00000000000E+00  0.45593999997E+02  0.45594000000E+02  0.51100000000E-03 0.  1.
         11   -1    0    0    0    0 -0.00000000000E+00 -0.00000000000E+00 -0.45593999997E+02  0.45594000000E+02  0.51100000000E-03 0. -1.
    9900012    2    1    2    0    0 -0.36781164813E+02 -0.15188411683E+02  0.83441079448E+01  0.50528855003E+02  0.29999985268E+02 0.  0.
         12    1    1    2    0    0  0.36781164813E+02  0.15188411683E+02 -0.83441079448E+01  0.40659144997E+02  0.00000000000E+00 0. -1.
         11    1    3    3    0    0  0.18182082342E+01  0.20054482062E+01  0.25553227272E+00  0.27190072994E+01  0.51100000000E-03 0. -1.
        -11    1    3    3    0    0 -0.14915964071E+02 -0.16575724908E+02 -0.12745077449E+01  0.22335286222E+02  0.51100000000E-03 0.  1.
         12    1    3    3    0    0 -0.23683408976E+02 -0.61813498139E+00  0.93630834170E+01  0.25474561481E+02  0.00000000000E+00 0. -1.
</event>
<event>
 7    1  0.2500839E-011  0.5052889E+02  0.7816164E-02  0.1300439E+00
        -11   -1    0    0    0    0  0.00000000000E+00  0.00000000000E+00  0.45593999997E+02  0.45594000000E+02  0.51100000000E-03 0. -1.
         11   -1    0    0    0    0 -0.00000000000E+00 -0.00000000000E+00 -0.45593999997E+02  0.45594000000E+02  0.51100000000E-03 0.  1.
    9900012    2    1    2    0    0  0.18652218237E+02  0.10154542996E+02 -0.34671938748E+02  0.50528888781E+02  0.30000087939E+02 0.  0.
         12    1    1    2    0    0 -0.18652218237E+02 -0.10154542996E+02  0.34671938748E+02  0.40659111219E+02  0.00000000000E+00 0. -1.
         11    1    3    3    0    0  0.76946951548E+01  0.37919780600E+01 -0.18109984130E+02  0.20038936015E+02  0.51100000000E-03 0. -1.
        -11    1    3    3    0    0  0.54482619146E+01  0.14331663927E+02 -0.13210686537E+02  0.20238636018E+02  0.51100000000E-03 0.  1.
         12    1    3    3    0    0  0.55092611674E+01 -0.79690989911E+01 -0.33512680800E+01  0.10251316749E+02  0.00000000000E+00 0. -1.
</event>
<event>
 7    1  0.2500839E-011  0.5052884E+02  0.7816164E-02  0.1300439E+00
        -11   -1    0    0    0    0  0.00000000000E+00  0.00000000000E+00  0.45593999997E+02  0.45594000000E+02  0.51100000000E-03 0.  1.
         11   -1    0    0    0    0 -0.00000000000E+00 -0.00000000000E+00 -0.45593999997E+02  0.45594000000E+02  0.51100000000E-03 0. -1.
    9900012    2    1    2    0    0  0.84521278761E+01 -0.32212699476E+02  0.23325322202E+02  0.50528842003E+02  0.29999945754E+02 0.  0.
         12    1    1    2    0    0 -0.84521278761E+01  0.32212699476E+02 -0.23325322202E+02  0.40659157997E+02  0.00000000000E+00 0. -1.
         11    1    3    3    0    0  0.16501530630E+01  0.14203768766E+01 -0.33462480512E+01  0.39922239271E+01  0.51100000000E-03 0. -1.
        -11    1    3    3    0    0 -0.85413831663E+00 -0.28764319068E+02  0.22605725892E+02  0.36594185973E+02  0.51100000000E-03 0.  1.
         12    1    3    3    0    0  0.76561131298E+01 -0.48687572850E+01  0.40658443611E+01  0.99424321031E+01  0.00000000000E+00 0. -1.
</event>
<event>
 7    1  0.2500839E-011  0.5052886E+02  0.7816164E-02  0.1300439E+00
        -11   -1    0    0    0    0  0.00000000000E+00  0.00000000000E+00  0.45593999997E+02  0.45594000000E+02  0.51100000000E-03 0.  1.
         11   -1    0    0    0    0 -0.00000000000E+00 -0.00000000000E+00 -0.45593999997E+02  0.45594000000E+02  0.51100000000E-03 0. -1.
    9900012    2    1    2    0    0  0.19029716365E+02  0.22357810270E+02  0.28127634781E+02  0.50528860518E+02  0.30000002032E+02 0.  0.
         12    1    1    2    0    0 -0.19029716365E+02 -0.22357810270E+02 -0.28127634781E+02  0.40659139482E+02  0.00000000000E+00 0. -1.
         11    1    3    3    0    0  0.45411309924E+00  0.27757670961E+01  0.35095598878E+01  0.44975674032E+01  0.51100000000E-03 0. -1.
        -11    1    3    3    0    0 -0.18823117886E+00  0.10438115703E+02  0.22803076201E+02  0.25079273811E+02  0.51100000000E-03 0.  1.
         12    1    3    3    0    0  0.18763834445E+02  0.91439274713E+01  0.18149986921E+01  0.20952019304E+02  0.00000000000E+00 0. -1.
</event>
<event>
 7    1  0.2500839E-011  0.5052901E+02  0.7816164E-02  0.1300438E+00
        -11   -1    0    0    0    0  0.00000000000E+00  0.00000000000E+00  0.45593999997E+02  0.45594000000E+02  0.51100000000E-03 0.  1.
         11   -1    0    0    0    0 -0.00000000000E+00 -0.00000000000E+00 -0.45593999997E+02  0.45594000000E+02  0.51100000000E-03 0. -1.
    9900012    2    1    2    0    0 -0.12657455233E+02  0.33667319838E+02  0.18959276745E+02  0.50529006250E+02  0.30000444993E+02 0.  0.
         12    1    1    2    0    0  0.12657455233E+02 -0.33667319838E+02 -0.18959276745E+02  0.40658993750E+02  0.00000000000E+00 0. -1.
         11    1    3    3    0    0 -0.10668122798E+02  0.81015442939E+01 -0.35662527723E+00  0.13400412152E+02  0.51100000000E-03 0. -1.
        -11    1    3    3    0    0 -0.18083285350E+01  0.17929156041E+01  0.11981886607E+02  0.12249498168E+02  0.51100000000E-03 0.  1.
         12    1    3    3    0    0 -0.18100390002E+00  0.23772859940E+02  0.73340154154E+01  0.24879095929E+02  0.00000000000E+00 0. -1.
</event>
<event>
 7    1  0.2500839E-011  0.5052887E+02  0.7816164E-02  0.1300439E+00
        -11   -1    0    0    0    0  0.00000000000E+00  0.00000000000E+00  0.45593999997E+02  0.45594000000E+02  0.51100000000E-03 0.  1.
         11   -1    0    0    0    0 -0.00000000000E+00 -0.00000000000E+00 -0.45593999997E+02  0.45594000000E+02  0.51100000000E-03 0. -1.
    9900012    2    1    2    0    0 -0.52285722004E+01 -0.24428352710E+02  0.32079318609E+02  0.50528867376E+02  0.30000022875E+02 0.  0.
         12    1    1    2    0    0  0.52285722004E+01  0.24428352710E+02 -0.32079318609E+02  0.40659132624E+02  0.00000000000E+00 0. -1.
         11    1    3    3    0    0  0.39484978159E+01 -0.88172196104E+01  0.22190047173E+02  0.24201904686E+02  0.51100000000E-03 0. -1.
        -11    1    3    3    0    0 -0.49777557035E+01  0.11952954240E+01  0.71422332092E+01  0.87873931556E+01  0.51100000000E-03 0.  1.
         12    1    3    3    0    0 -0.41993143127E+01 -0.16806428523E+02  0.27470382266E+01  0.17539569534E+02  0.00000000000E+00 0. -1.
</event>
<event>
 7    1  0.2500839E-011  0.5052886E+02  0.7816164E-02  0.1300439E+00
        -11   -1    0    0    0    0  0.00000000000E+00  0.00000000000E+00  0.45593999997E+02  0.45594000000E+02  0.51100000000E-03 0. -1.
         11   -1    0    0    0    0 -0.00000000000E+00 -0.00000000000E+00 -0.45593999997E+02  0.45594000000E+02  0.51100000000E-03 0.  1.
    9900012    2    1    2    0    0  0.29503115245E+02 -0.21478402299E+02 -0.17927920249E+02  0.50528857130E+02  0.29999991732E+02 0.  0.
         12    1    1    2    0    0 -0.29503115245E+02  0.21478402299E+02  0.17927920249E+02  0.40659142870E+02  0.00000000000E+00 0. -1.
         11    1    3    3    0    0  0.38283703363E+01 -0.85220446543E+00 -0.11637570317E+02  0.12280704989E+02  0.51100000000E-03 0. -1.
        -11    1    3    3    0    0  0.64008171925E+01  0.22190728907E+01  0.22902937449E+01  0.71512370206E+01  0.51100000000E-03 0.  1.
         12    1    3    3    0    0  0.19273927717E+02 -0.22845270724E+02 -0.85806436764E+01  0.31096915120E+02  0.00000000000E+00 0. -1.
</event>
<event>
 7    1  0.2500839E-011  0.5052880E+02  0.7816164E-02  0.1300439E+00
        -11   -1    0    0    0    0  0.00000000000E+00  0.00000000000E+00  0.45593999997E+02  0.45594000000E+02  0.51100000000E-03 0. -1.
         11   -1    0    0    0    0 -0.00000000000E+00 -0.00000000000E+00 -0.45593999997E+02  0.45594000000E+02  0.51100000000E-03 0.  1.
    9900012    2    1    2    0    0  0.32520084003E+02  0.15861957700E+02 -0.18547587911E+02  0.50528799529E+02  0.29999816647E+02 0.  0.
         12    1    1    2    0    0 -0.32520084003E+02 -0.15861957700E+02  0.18547587911E+02  0.40659200471E+02  0.00000000000E+00 0. -1.
         11    1    3    3    0    0  0.46999604055E-01  0.42842017008E+01 -0.10996128353E+02  0.11801331798E+02  0.51100000000E-03 0. -1.
        -11    1    3    3    0    0  0.23029048429E+01  0.16081473355E+01 -0.63346566987E+01  0.69294577219E+01  0.51100000000E-03 0.  1.
         12    1    3    3    0    0  0.30170179556E+02  0.99696086640E+01 -0.12168028589E+01  0.31798010009E+02  0.00000000000E+00 0. -1.
</event>
<event>
 7    1  0.3003916E-011  0.5052886E+02  0.7816164E-02  0.1300439E+00
        -11   -1    0    0    0    0  0.00000000000E+00  0.00000000000E+00  0.45593999997E+02  0.45594000000E+02  0.51100000000E-03 0. -1.
         11   -1    0    0    0    0 -0.00000000000E+00 -0.00000000000E+00 -0.45593999997E+02  0.45594000000E+02  0.51100000000E-03 0.  1.
    9900012    2    1    2    0    0 -0.18748956969E+02 -0.17418717232E+02 -0.31594785984E+02  0.50528860820E+02  0.30000002949E+02 0.  0.
         12    1    1    2    0    0  0.18748956969E+02  0.17418717232E+02  0.31594785984E+02  0.40659139180E+02  0.00000000000E+00 0. -1.
         11    1    3    3    0    0 -0.39157998071E+01 -0.93532622194E+01 -0.15254686820E+02  0.18317272518E+02  0.51100000000E-03 0.  1.
        -11    1    3    3    0    0 -0.10792885765E+02 -0.80884940335E+00 -0.20304058781E+02  0.23008594562E+02  0.51100000000E-03 0. -1.
         12    1    3    3    0    0 -0.40402713968E+01 -0.72566056092E+01  0.39639596164E+01  0.92029937395E+01  0.00000000000E+00 0. -1.
</event>
<event>
 7    1  0.2500839E-011  0.5052887E+02  0.7816164E-02  0.1300439E+00
        -11   -1    0    0    0    0  0.00000000000E+00  0.00000000000E+00  0.45593999997E+02  0.45594000000E+02  0.51100000000E-03 0.  1.
         11   -1    0    0    0    0 -0.00000000000E+00 -0.00000000000E+00 -0.45593999997E+02  0.45594000000E+02  0.51100000000E-03 0. -1.
    9900012    2    1    2    0    0 -0.54396765977E+00 -0.39212887827E+02  0.10733980971E+02  0.50528870398E+02  0.30000032061E+02 0.  0.
         12    1    1    2    0    0  0.54396765977E+00  0.39212887827E+02 -0.10733980971E+02  0.40659129602E+02  0.00000000000E+00 0. -1.
         11    1    3    3    0    0 -0.54932074859E+01 -0.26380108119E+02  0.23521543929E+01  0.27048439205E+02  0.51100000000E-03 0. -1.
        -11    1    3    3    0    0 -0.14142407438E+01 -0.13899614972E+02  0.95497790970E+01  0.16923287338E+02  0.51100000000E-03 0.  1.
         12    1    3    3    0    0  0.63634805699E+01  0.10668352652E+01 -0.11679525188E+01  0.65571438548E+01  0.00000000000E+00 0. -1.
</event>
<event>
 7    1  0.2500839E-011  0.5052876E+02  0.7816164E-02  0.1300439E+00
        -11   -1    0    0    0    0  0.00000000000E+00  0.00000000000E+00  0.45593999997E+02  0.45594000000E+02  0.51100000000E-03 0.  1.
         11   -1    0    0    0    0 -0.00000000000E+00 -0.00000000000E+00 -0.45593999997E+02  0.45594000000E+02  0.51100000000E-03 0. -1.
    9900012    2    1    2    0    0 -0.94097506645E+00 -0.17925953364E+02  0.36482167842E+02  0.50528759863E+02  0.29999696077E+02 0.  0.
         12    1    1    2    0    0  0.94097506645E+00  0.17925953364E+02 -0.36482167842E+02  0.40659240137E+02  0.00000000000E+00 0. -1.
         11    1    3    3    0    0  0.35170513500E+01 -0.14653076126E+02  0.11459345458E+02  0.18931425957E+02  0.51100000000E-03 0. -1.
        -11    1    3    3    0    0  0.63474709704E+01 -0.12924407152E+01  0.33346358833E+01  0.72856425562E+01  0.51100000000E-03 0.  1.
         12    1    3    3    0    0 -0.10805497387E+02 -0.19804365229E+01  0.21688186500E+02  0.24311691350E+02  0.00000000000E+00 0. -1.
</event>
<event>
 7    1  0.2500839E-011  0.5052887E+02  0.7816164E-02  0.1300439E+00
        -11   -1    0    0    0    0  0.00000000000E+00  0.00000000000E+00  0.45593999997E+02  0.45594000000E+02  0.51100000000E-03 0. -1.
         11   -1    0    0    0    0 -0.00000000000E+00 -0.00000000000E+00 -0.45593999997E+02  0.45594000000E+02  0.51100000000E-03 0.  1.
    9900012    2    1    2    0    0  0.23890686592E+02 -0.32454501054E+02  0.53948967411E+01  0.50528874882E+02  0.30000045691E+02 0.  0.
         12    1    1    2    0    0 -0.23890686592E+02  0.32454501054E+02 -0.53948967411E+01  0.40659125118E+02  0.00000000000E+00 0. -1.
         11    1    3    3    0    0 -0.76077863035E-01 -0.18106384044E+02  0.79993720303E+01  0.19794870147E+02  0.51100000000E-03 0. -1.
        -11    1    3    3    0    0  0.53631472220E+01 -0.97153676687E+01 -0.32111700940E+01  0.11552633063E+02  0.51100000000E-03 0.  1.
         12    1    3    3    0    0  0.18603617233E+02 -0.46327493414E+01  0.60669480476E+00  0.19181371671E+02  0.00000000000E+00 0. -1.
</event>
<event>
 7    1  0.2500839E-011  0.5052886E+02  0.7816164E-02  0.1300439E+00
        -11   -1    0    0    0    0  0.00000000000E+00  0.00000000000E+00  0.45593999997E+02  0.45594000000E+02  0.51100000000E-03 0. -1.
         11   -1    0    0    0    0 -0.00000000000E+00 -0.00000000000E+00 -0.45593999997E+02  0.45594000000E+02  0.51100000000E-03 0.  1.
    9900012    2    1    2    0    0 -0.99678987519E+01 -0.35079085111E+02 -0.17979549986E+02  0.50528862830E+02  0.30000009058E+02 0.  0.
         12    1    1    2    0    0  0.99678987519E+01  0.35079085111E+02  0.17979549986E+02  0.40659137170E+02  0.00000000000E+00 0. -1.
         11    1    3    3    0    0  0.31661502654E+01 -0.11390026116E+02 -0.38905376943E+01  0.12445621167E+02  0.51100000000E-03 0.  1.
        -11    1    3    3    0    0 -0.44920190464E+01 -0.38469499098E+01  0.60927144709E+01  0.84910793546E+01  0.51100000000E-03 0. -1.
         12    1    3    3    0    0 -0.86420299709E+01 -0.19842109085E+02 -0.20181726762E+02  0.29592162308E+02  0.00000000000E+00 0. -1.
</event>
<event>
 7    1  0.2500839E-011  0.5052886E+02  0.7816164E-02  0.1300439E+00
        -11   -1    0    0    0    0  0.00000000000E+00  0.00000000000E+00  0.45593999997E+02  0.45594000000E+02  0.51100000000E-03 0.  1.
         11   -1    0    0    0    0 -0.00000000000E+00 -0.00000000000E+00 -0.45593999997E+02  0.45594000000E+02  0.51100000000E-03 0. -1.
    9900012    2    1    2    0    0 -0.34313843045E+02  0.78922725923E+01  0.20333174745E+02  0.50528858514E+02  0.29999995938E+02 0.  0.
         12    1    1    2    0    0  0.34313843045E+02 -0.78922725923E+01 -0.20333174745E+02  0.40659141486E+02  0.00000000000E+00 0. -1.
         11    1    3    3    0    0 -0.13590185008E+02  0.53648140645E+01 -0.32899045859E+01  0.14976576075E+02  0.51100000000E-03 0.  1.
        -11    1    3    3    0    0 -0.40886876497E+01  0.73977976462E+01  0.39418358031E+01  0.93264594821E+01  0.51100000000E-03 0. -1.
        -12    1    3    3    0    0 -0.16634970388E+02 -0.48703391183E+01  0.19681243528E+02  0.26225822956E+02  0.00000000000E+00 0.  1.
</event>
<event>
 7    1  0.2500839E-011  0.5052888E+02  0.7816164E-02  0.1300439E+00
        -11   -1    0    0    0    0  0.00000000000E+00  0.00000000000E+00  0.45593999997E+02  0.45594000000E+02  0.51100000000E-03 0.  1.
         11   -1    0    0    0    0 -0.00000000000E+00 -0.00000000000E+00 -0.45593999997E+02  0.45594000000E+02  0.51100000000E-03 0. -1.
    9900012    2    1    2    0    0 -0.31133799569E+02  0.18930687423E+02  0.18041064270E+02  0.50528875539E+02  0.30000047689E+02 0.  0.
         12    1    1    2    0    0  0.31133799569E+02 -0.18930687423E+02 -0.18041064270E+02  0.40659124461E+02  0.00000000000E+00 0. -1.
         11    1    3    3    0    0 -0.54947193484E+01  0.10664238455E+02 -0.70767318260E+00  0.12017434175E+02  0.51100000000E-03 0. -1.
        -11    1    3    3    0    0 -0.22913704860E+02  0.10643259975E+02  0.69970340669E+01  0.26215936743E+02  0.51100000000E-03 0.  1.
         12    1    3    3    0    0 -0.27253753601E+01 -0.23768110076E+01  0.11751703386E+02  0.12295504621E+02  0.00000000000E+00 0. -1.
</event>
<event>
 7    1  0.2500839E-011  0.5052886E+02  0.7816164E-02  0.1300439E+00
        -11   -1    0    0    0    0  0.00000000000E+00  0.00000000000E+00  0.45593999997E+02  0.45594000000E+02  0.51100000000E-03 0.  1.
         11   -1    0    0    0    0 -0.00000000000E+00 -0.00000000000E+00 -0.45593999997E+02  0.45594000000E+02  0.51100000000E-03 0. -1.
    9900012    2    1    2    0    0 -0.29939183138E+02 -0.17519725975E+02  0.21210137644E+02  0.50528862969E+02  0.30000009481E+02 0.  0.
         12    1    1    2    0    0  0.29939183138E+02  0.17519725975E+02 -0.21210137644E+02  0.40659137031E+02  0.00000000000E+00 0. -1.
         11    1    3    3    0    0  0.22867470759E+01  0.26221582781E+01  0.18061518566E+00  0.34838984386E+01  0.51100000000E-03 0. -1.
        -11    1    3    3    0    0 -0.22123845183E+02 -0.43082820461E+01  0.69987003378E+01  0.23601009015E+02  0.51100000000E-03 0.  1.
        -12    1    3    3    0    0 -0.10102085031E+02 -0.15833602207E+02  0.14030822120E+02  0.23443955515E+02  0.00000000000E+00 0.  1.
</event>
<event>
 7    1  0.2500839E-011  0.5052885E+02  0.7816164E-02  0.1300439E+00
        -11   -1    0    0    0    0  0.00000000000E+00  0.00000000000E+00  0.45593999997E+02  0.45594000000E+02  0.51100000000E-03 0.  1.
         11   -1    0    0    0    0 -0.00000000000E+00 -0.00000000000E+00 -0.45593999997E+02  0.45594000000E+02  0.51100000000E-03 0. -1.
    9900012    2    1    2    0    0 -0.90078334577E+01 -0.24913544418E+02  0.30843811297E+02  0.50528850299E+02  0.29999970970E+02 0.  0.
         12    1    1    2    0    0  0.90078334577E+01  0.24913544418E+02 -0.30843811297E+02  0.40659149701E+02  0.00000000000E+00 0. -1.
         11    1    3    3    0    0 -0.47822888599E+01 -0.13982775772E+02  0.41098032834E+01  0.15338800094E+02  0.51100000000E-03 0. -1.
        -11    1    3    3    0    0 -0.10063409118E+02 -0.12755096838E+02  0.22493839194E+02  0.27747747663E+02  0.51100000000E-03 0.  1.
        -12    1    3    3    0    0  0.58378645206E+01  0.18243281920E+01  0.42401688192E+01  0.74423025421E+01  0.00000000000E+00 0.  1.
</event>
<event>
 7    1  0.2500839E-011  0.5052886E+02  0.7816164E-02  0.1300439E+00
        -11   -1    0    0    0    0  0.00000000000E+00  0.00000000000E+00  0.45593999997E+02  0.45594000000E+02  0.51100000000E-03 0. -1.
         11   -1    0    0    0    0 -0.00000000000E+00 -0.00000000000E+00 -0.45593999997E+02  0.45594000000E+02  0.51100000000E-03 0.  1.
    9900012    2    1    2    0    0 -0.20001285512E+02  0.27004441825E+02 -0.22888295985E+02  0.50528863345E+02  0.30000010625E+02 0.  0.
         12    1    1    2    0    0  0.20001285512E+02 -0.27004441825E+02  0.22888295985E+02  0.40659136655E+02  0.00000000000E+00 0. -1.
         11    1    3    3    0    0  0.14604974097E+01 -0.12341968981E+01 -0.76783973731E+01  0.79129059863E+01  0.51100000000E-03 0. -1.
        -11    1    3    3    0    0 -0.16401375894E+02  0.70544436570E+01 -0.88438190323E+01  0.19924443327E+02  0.51100000000E-03 0.  1.
        -12    1    3    3    0    0 -0.50604070273E+01  0.21184195066E+02 -0.63660795795E+01  0.22691514032E+02  0.00000000000E+00 0.  1.
</event>
<event>
 7    1  0.2500839E-011  0.5052885E+02  0.7816164E-02  0.1300439E+00
        -11   -1    0    0    0    0  0.00000000000E+00  0.00000000000E+00  0.45593999997E+02  0.45594000000E+02  0.51100000000E-03 0.  1.
         11   -1    0    0    0    0 -0.00000000000E+00 -0.00000000000E+00 -0.45593999997E+02  0.45594000000E+02  0.51100000000E-03 0. -1.
    9900012    2    1    2    0    0 -0.30152054182E+02  0.26799145254E+02  0.50818912656E+01  0.50528853716E+02  0.29999981354E+02 0.  0.
         12    1    1    2    0    0  0.30152054182E+02 -0.26799145254E+02 -0.50818912656E+01  0.40659146284E+02  0.00000000000E+00 0. -1.
         11    1    3    3    0    0 -0.22652465639E+01  0.21445787546E+01 -0.52179784054E+01  0.60792975689E+01  0.51100000000E-03 0. -1.
        -11    1    3    3    0    0  0.71610932800E+00  0.11898476197E+02  0.26855567917E+01  0.12218787334E+02  0.51100000000E-03 0.  1.
        -12    1    3    3    0    0 -0.28602916946E+02  0.12756090303E+02  0.76143128793E+01  0.32230768812E+02  0.00000000000E+00 0.  1.
</event>
<event>
 7    1  0.2500839E-011  0.5052886E+02  0.7816164E-02  0.1300439E+00
        -11   -1    0    0    0    0  0.00000000000E+00  0.00000000000E+00  0.45593999997E+02  0.45594000000E+02  0.51100000000E-03 0. -1.
         11   -1    0    0    0    0 -0.00000000000E+00 -0.00000000000E+00 -0.45593999997E+02  0.45594000000E+02  0.51100000000E-03 0.  1.
    9900012    2    1    2    0    0 -0.24336278213E+02  0.32482281353E+02  0.24109443335E+01  0.50528859678E+02  0.29999999477E+02 0.  0.
         12    1    1    2    0    0  0.24336278213E+02 -0.32482281353E+02 -0.24109443335E+01  0.40659140322E+02  0.00000000000E+00 0. -1.
         11    1    3    3    0    0 -0.11262212824E+02  0.12215453934E+02  0.12133478578E+02  0.20573673838E+02  0.51100000000E-03 0.  1.
        -11    1    3    3    0    0 -0.11384645131E+02  0.42715029364E+01 -0.30114744472E+01  0.12526965343E+02  0.51100000000E-03 0. -1.
        -12    1    3    3    0    0 -0.16894202576E+01  0.15995324482E+02 -0.67110597972E+01  0.17428220497E+02  0.00000000000E+00 0.  1.
</event>
<event>
 7    1  0.2500839E-011  0.5052886E+02  0.7816164E-02  0.1300439E+00
        -11   -1    0    0    0    0  0.00000000000E+00  0.00000000000E+00  0.45593999997E+02  0.45594000000E+02  0.51100000000E-03 0.  1.
         11   -1    0    0    0    0 -0.00000000000E+00 -0.00000000000E+00 -0.45593999997E+02  0.45594000000E+02  0.51100000000E-03 0. -1.
    9900012    2    1    2    0    0  0.22058421298E+02 -0.33216662151E+02 -0.79526993191E+01  0.50528855628E+02  0.29999987166E+02 0.  0.
         12    1    1    2    0    0 -0.22058421298E+02  0.33216662151E+02  0.79526993191E+01  0.40659144372E+02  0.00000000000E+00 0. -1.
         11    1    3    3    0    0  0.13249563785E+02 -0.86762914366E+01 -0.52664223095E+01  0.16690241993E+02  0.51100000000E-03 0. -1.
        -11    1    3    3    0    0  0.14434740131E+02 -0.23538981946E+02 -0.21611516921E+00  0.27613259491E+02  0.51100000000E-03 0.  1.
        -12    1    3    3    0    0 -0.56258826181E+01 -0.10013887689E+01 -0.24701618404E+01  0.62253541439E+01  0.00000000000E+00 0.  1.
</event>
<event>
 7    1  0.2500839E-011  0.5052886E+02  0.7816164E-02  0.1300439E+00
        -11   -1    0    0    0    0  0.00000000000E+00  0.00000000000E+00  0.45593999997E+02  0.45594000000E+02  0.51100000000E-03 0. -1.
         11   -1    0    0    0    0 -0.00000000000E+00 -0.00000000000E+00 -0.45593999997E+02  0.45594000000E+02  0.51100000000E-03 0.  1.
    9900012    2    1    2    0    0  0.12104997257E+02 -0.20358575019E+02 -0.33047893143E+02  0.50528858635E+02  0.29999996306E+02 0.  0.
         12    1    1    2    0    0 -0.12104997257E+02  0.20358575019E+02  0.33047893143E+02  0.40659141365E+02  0.00000000000E+00 0. -1.
         11    1    3    3    0    0 -0.62052306518E+01  0.16581226244E+01 -0.53631645419E+01  0.83676634878E+01  0.51100000000E-03 0. -1.
        -11    1    3    3    0    0  0.33034345738E+01 -0.14352873878E+01 -0.11335897630E+02  0.11894339209E+02  0.51100000000E-03 0.  1.
         12    1    3    3    0    0  0.15006793335E+02 -0.20581410255E+02 -0.16348830971E+02  0.30266855938E+02  0.00000000000E+00 0. -1.
</event>
<event>
 7    1  0.2500839E-011  0.5052886E+02  0.7816164E-02  0.1300439E+00
        -11   -1    0    0    0    0  0.00000000000E+00  0.00000000000E+00  0.45593999997E+02  0.45594000000E+02  0.51100000000E-03 0. -1.
         11   -1    0    0    0    0 -0.00000000000E+00 -0.00000000000E+00 -0.45593999997E+02  0.45594000000E+02  0.51100000000E-03 0.  1.
    9900012    2    1    2    0    0 -0.19951159617E+01  0.32678285617E+01 -0.40478471677E+02  0.50528857602E+02  0.29999993168E+02 0.  0.
         12    1    1    2    0    0  0.19951159617E+01 -0.32678285617E+01  0.40478471677E+02  0.40659142398E+02  0.00000000000E+00 0. -1.
         11    1    3    3    0    0 -0.57072542335E+01 -0.11603279302E+02 -0.14507476162E+02  0.19433880371E+02  0.51100000000E-03 0. -1.
        -11    1    3    3    0    0 -0.18100372077E+01  0.81670373808E+01 -0.13919860682E+02  0.16240050983E+02  0.51100000000E-03 0.  1.
        -12    1    3    3    0    0  0.55221754794E+01  0.67040704827E+01 -0.12051134833E+02  0.14854926248E+02  0.00000000000E+00 0.  1.
</event>
<event>
 7    1  0.2500839E-011  0.5052886E+02  0.7816164E-02  0.1300439E+00
        -11   -1    0    0    0    0  0.00000000000E+00  0.00000000000E+00  0.45593999997E+02  0.45594000000E+02  0.51100000000E-03 0.  1.
         11   -1    0    0    0    0 -0.00000000000E+00 -0.00000000000E+00 -0.45593999997E+02  0.45594000000E+02  0.51100000000E-03 0. -1.
    9900012    2    1    2    0    0  0.14011369057E+02  0.31878746171E+02  0.20990306780E+02  0.50528857129E+02  0.29999991730E+02 0.  0.
         12    1    1    2    0    0 -0.14011369057E+02 -0.31878746171E+02 -0.20990306780E+02  0.40659142871E+02  0.00000000000E+00 0. -1.
         11    1    3    3    0    0 -0.38384444501E+01  0.10420587142E+02  0.72421149442E+01  0.13257847537E+02  0.51100000000E-03 0. -1.
        -11    1    3    3    0    0  0.50788939151E+01 -0.37944472068E+01  0.22814741434E+01  0.67378125185E+01  0.51100000000E-03 0.  1.
        -12    1    3    3    0    0  0.12770919592E+02  0.25252606235E+02  0.11466717692E+02  0.30533197074E+02  0.00000000000E+00 0.  1.
</event>
<event>
 7    1  0.2500839E-011  0.5052884E+02  0.7816164E-02  0.1300439E+00
        -11   -1    0    0    0    0  0.00000000000E+00  0.00000000000E+00  0.45593999997E+02  0.45594000000E+02  0.51100000000E-03 0.  1.
         11   -1    0    0    0    0 -0.00000000000E+00 -0.00000000000E+00 -0.45593999997E+02  0.45594000000E+02  0.51100000000E-03 0. -1.
    9900012    2    1    2    0    0 -0.23413250364E+02  0.10660879304E+02  0.31485432523E+02  0.50528842344E+02  0.29999946790E+02 0.  0.
         12    1    1    2    0    0  0.23413250364E+02 -0.10660879304E+02 -0.31485432523E+02  0.40659157656E+02  0.00000000000E+00 0. -1.
         11    1    3    3    0    0 -0.22268931450E+02  0.13491557893E+02  0.26863542578E+02  0.37410925709E+02  0.51100000000E-03 0.  1.
        -11    1    3    3    0    0 -0.58659156155E+01  0.93764012608E+00  0.86249502929E+00  0.60026688190E+01  0.51100000000E-03 0. -1.
        -12    1    3    3    0    0  0.47215967021E+01 -0.37683187151E+01  0.37593949157E+01  0.71152478163E+01  0.00000000000E+00 0.  1.
</event>
<event>
 7    1  0.2500839E-011  0.5052886E+02  0.7816164E-02  0.1300439E+00
        -11   -1    0    0    0    0  0.00000000000E+00  0.00000000000E+00  0.45593999997E+02  0.45594000000E+02  0.51100000000E-03 0.  1.
         11   -1    0    0    0    0 -0.00000000000E+00 -0.00000000000E+00 -0.45593999997E+02  0.45594000000E+02  0.51100000000E-03 0. -1.
    9900012    2    1    2    0    0  0.12799623624E+02  0.22774523488E+02  0.31155360022E+02  0.50528859046E+02  0.29999997556E+02 0.  0.
         12    1    1    2    0    0 -0.12799623624E+02 -0.22774523488E+02 -0.31155360022E+02  0.40659140954E+02  0.00000000000E+00 0. -1.
         11    1    3    3    0    0  0.11328015933E+02  0.64459214133E+01 -0.10340898660E+01  0.13074524464E+02  0.51100000000E-03 0. -1.
        -11    1    3    3    0    0  0.36138338817E+01  0.76965516650E+01  0.79722891038E+01  0.11655646557E+02  0.51100000000E-03 0.  1.
        -12    1    3    3    0    0 -0.21422261911E+01  0.86320504101E+01  0.24217160784E+02  0.25798688024E+02  0.00000000000E+00 0.  1.
</event>
<event>
 7    1  0.2500839E-011  0.5052886E+02  0.7816164E-02  0.1300439E+00
        -11   -1    0    0    0    0  0.00000000000E+00  0.00000000000E+00  0.45593999997E+02  0.45594000000E+02  0.51100000000E-03 0. -1.
         11   -1    0    0    0    0 -0.00000000000E+00 -0.00000000000E+00 -0.45593999997E+02  0.45594000000E+02  0.51100000000E-03 0.  1.
    9900012    2    1    2    0    0  0.25987970023E+02 -0.31084218367E+02 -0.34003692811E+01  0.50528859224E+02  0.29999998096E+02 0.  0.
         12    1    1    2    0    0 -0.25987970023E+02  0.31084218367E+02  0.34003692811E+01  0.40659140776E+02  0.00000000000E+00 0. -1.
         11    1    3    3    0    0 -0.47670722134E+01 -0.43972034036E+01  0.25343979872E+01  0.69630129024E+01  0.51100000000E-03 0. -1.
        -11    1    3    3    0    0  0.66277092711E+01 -0.11259062079E+02  0.33003520170E+01  0.13475360209E+02  0.51100000000E-03 0.  1.
         12    1    3    3    0    0  0.24127332965E+02 -0.15427952885E+02 -0.92351192853E+01  0.30090486112E+02  0.00000000000E+00 0. -1.
</event>
<event>
 7    1  0.2500839E-011  0.5052886E+02  0.7816164E-02  0.1300439E+00
        -11   -1    0    0    0    0  0.00000000000E+00  0.00000000000E+00  0.45593999997E+02  0.45594000000E+02  0.51100000000E-03 0.  1.
         11   -1    0    0    0    0 -0.00000000000E+00 -0.00000000000E+00 -0.45593999997E+02  0.45594000000E+02  0.51100000000E-03 0. -1.
    9900012    2    1    2    0    0  0.31263382862E+02 -0.34951457300E+01  0.25759478119E+02  0.50528857552E+02  0.29999993014E+02 0.  0.
         12    1    1    2    0    0 -0.31263382862E+02  0.34951457300E+01 -0.25759478119E+02  0.40659142448E+02  0.00000000000E+00 0. -1.
         11    1    3    3    0    0  0.91323337560E+01 -0.65365290233E+01  0.86758476041E+01  0.14191408084E+02  0.51100000000E-03 0. -1.
        -11    1    3    3    0    0  0.24058568374E+02  0.79108220608E+01  0.17932877375E+02  0.31031982036E+02  0.51100000000E-03 0.  1.
         12    1    3    3    0    0 -0.19275192678E+01 -0.48694387674E+01 -0.84924685932E+00  0.53054674314E+01  0.00000000000E+00 0. -1.
</event>
<event>
 7    1  0.2500839E-011  0.5052886E+02  0.7816164E-02  0.1300439E+00
        -11   -1    0    0    0    0  0.00000000000E+00  0.00000000000E+00  0.45593999997E+02  0.45594000000E+02  0.51100000000E-03 0. -1.
         11   -1    0    0    0    0 -0.00000000000E+00 -0.00000000000E+00 -0.45593999997E+02  0.45594000000E+02  0.51100000000E-03 0.  1.
    9900012    2    1    2    0    0 -0.57530962348E+01  0.16836736424E+02 -0.36559423775E+02  0.50528864785E+02  0.30000014999E+02 0.  0.
         12    1    1    2    0    0  0.57530962348E+01 -0.16836736424E+02  0.36559423775E+02  0.40659135215E+02  0.00000000000E+00 0. -1.
         11    1    3    3    0    0 -0.34599814438E+01  0.11739285681E+02  0.11947977227E+01  0.12296741103E+02  0.51100000000E-03 0. -1.
        -11    1    3    3    0    0  0.44943153572E+00  0.54396910324E+00 -0.49433522182E+01  0.49934579707E+01  0.51100000000E-03 0.  1.
         12    1    3    3    0    0 -0.27425463267E+01  0.45534816405E+01 -0.32810869279E+02  0.33238665711E+02  0.00000000000E+00 0. -1.
</event>
<event>
 7    1  0.2500839E-011  0.5052885E+02  0.7816164E-02  0.1300439E+00
        -11   -1    0    0    0    0  0.00000000000E+00  0.00000000000E+00  0.45593999997E+02  0.45594000000E+02  0.51100000000E-03 0.  1.
         11   -1    0    0    0    0 -0.00000000000E+00 -0.00000000000E+00 -0.45593999997E+02  0.45594000000E+02  0.51100000000E-03 0. -1.
    9900012    2    1    2    0    0 -0.39178022246E+02 -0.10747337506E+02  0.16565603637E+01  0.50528845031E+02  0.29999954956E+02 0.  0.
         12    1    1    2    0    0  0.39178022246E+02  0.10747337506E+02 -0.16565603637E+01  0.40659154969E+02  0.00000000000E+00 0. -1.
         11    1    3    3    0    0 -0.20575343617E+02 -0.86988792858E+01  0.30067992989E+01  0.22540100001E+02  0.51100000000E-03 0.  1.
        -11    1    3    3    0    0 -0.19076936803E+02  0.55308591152E+01  0.14003310932E+01  0.19911826832E+02  0.51100000000E-03 0. -1.
        -12    1    3    3    0    0  0.47425817439E+00 -0.75793173356E+01 -0.27505700285E+01  0.80769181976E+01  0.00000000000E+00 0.  1.
</event>
<event>
 7    1  0.2500839E-011  0.5052886E+02  0.7816164E-02  0.1300439E+00
        -11   -1    0    0    0    0  0.00000000000E+00  0.00000000000E+00  0.45593999997E+02  0.45594000000E+02  0.51100000000E-03 0.  1.
         11   -1    0    0    0    0 -0.00000000000E+00 -0.00000000000E+00 -0.45593999997E+02  0.45594000000E+02  0.51100000000E-03 0. -1.
    9900012    2    1    2    0    0  0.10565459144E+02 -0.20831970275E+01  0.39207102436E+02  0.50528861812E+02  0.30000005963E+02 0.  0.
         12    1    1    2    0    0 -0.10565459144E+02  0.20831970275E+01 -0.39207102436E+02  0.40659138188E+02  0.00000000000E+00 0. -1.
         11    1    3    3    0    0  0.18317629014E+01  0.58804444417E+01  0.29915097315E+01  0.68471974481E+01  0.51100000000E-03 0. -1.
        -11    1    3    3    0    0 -0.29793020396E+01  0.52431638803E+01  0.50577308595E+01  0.78706829327E+01  0.51100000000E-03 0.  1.
        -12    1    3    3    0    0  0.11712998282E+02 -0.13206805349E+02  0.31157861845E+02  0.35810981431E+02  0.00000000000E+00 0.  1.
</event>
<event>
 7    1  0.2500839E-011  0.5052887E+02  0.7816164E-02  0.1300439E+00
        -11   -1    0    0    0    0  0.00000000000E+00  0.00000000000E+00  0.45593999997E+02  0.45594000000E+02  0.51100000000E-03 0.  1.
         11   -1    0    0    0    0 -0.00000000000E+00 -0.00000000000E+00 -0.45593999997E+02  0.45594000000E+02  0.51100000000E-03 0. -1.
    9900012    2    1    2    0    0 -0.20797793101E+01  0.28572640292E+02  0.28852103703E+02  0.50528866422E+02  0.30000019977E+02 0.  0.
         12    1    1    2    0    0  0.20797793101E+01 -0.28572640292E+02 -0.28852103703E+02  0.40659133578E+02  0.00000000000E+00 0. -1.
         11    1    3    3    0    0  0.48632267650E+01 -0.23057439410E+01  0.33280560826E+01  0.63279844532E+01  0.51100000000E-03 0. -1.
        -11    1    3    3    0    0  0.12579153353E+00  0.83346538747E+01  0.17266729871E+02  0.19173477499E+02  0.51100000000E-03 0.  1.
         12    1    3    3    0    0 -0.70687976087E+01  0.22543730358E+02  0.82573177493E+01  0.25027404470E+02  0.00000000000E+00 0. -1.
</event>
<event>
 7    1  0.2725027E-011  0.5052886E+02  0.7816164E-02  0.1300439E+00
        -11   -1    0    0    0    0  0.00000000000E+00  0.00000000000E+00  0.45593999997E+02  0.45594000000E+02  0.51100000000E-03 0. -1.
         11   -1    0    0    0    0 -0.00000000000E+00 -0.00000000000E+00 -0.45593999997E+02  0.45594000000E+02  0.51100000000E-03 0.  1.
    9900012    2    1    2    0    0 -0.14961857108E+02  0.79865091860E+01 -0.36953002334E+02  0.50528857380E+02  0.29999992493E+02 0.  0.
         12    1    1    2    0    0  0.14961857108E+02 -0.79865091860E+01  0.36953002334E+02  0.40659142620E+02  0.00000000000E+00 0. -1.
         11    1    3    3    0    0 -0.48825438303E+01 -0.10378833676E+01 -0.59041093630E-01  0.49919858024E+01  0.51100000000E-03 0. -1.
        -11    1    3    3    0    0 -0.65523331199E+01  0.12908284404E+02 -0.87649685997E+01  0.16922811539E+02  0.51100000000E-03 0.  1.
        -12    1    3    3    0    0 -0.35269801575E+01 -0.38838918507E+01 -0.28128992640E+02  0.28614060039E+02  0.00000000000E+00 0.  1.
</event>
<event>
 7    1  0.2500839E-011  0.5052887E+02  0.7816164E-02  0.1300439E+00
        -11   -1    0    0    0    0  0.00000000000E+00  0.00000000000E+00  0.45593999997E+02  0.45594000000E+02  0.51100000000E-03 0.  1.
         11   -1    0    0    0    0 -0.00000000000E+00 -0.00000000000E+00 -0.45593999997E+02  0.45594000000E+02  0.51100000000E-03 0. -1.
    9900012    2    1    2    0    0  0.41383528477E+01  0.14321547769E+02  0.37827663644E+02  0.50528870256E+02  0.30000031629E+02 0.  0.
         12    1    1    2    0    0 -0.41383528477E+01 -0.14321547769E+02 -0.37827663644E+02  0.40659129744E+02  0.00000000000E+00 0. -1.
         11    1    3    3    0    0 -0.63940668324E+01 -0.55654611138E-01  0.50296863165E+01  0.81354122696E+01  0.51100000000E-03 0. -1.
        -11    1    3    3    0    0  0.21395297903E+01  0.17623395070E+02  0.23526271909E+02  0.29472819881E+02  0.51100000000E-03 0.  1.
        -12    1    3    3    0    0  0.83928898898E+01 -0.32461926895E+01  0.92717054187E+01  0.12920638105E+02  0.00000000000E+00 0.  1.
</event>
<event>
 7    1  0.2500839E-011  0.5052885E+02  0.7816164E-02  0.1300439E+00
        -11   -1    0    0    0    0  0.00000000000E+00  0.00000000000E+00  0.45593999997E+02  0.45594000000E+02  0.51100000000E-03 0. -1.
         11   -1    0    0    0    0 -0.00000000000E+00 -0.00000000000E+00 -0.45593999997E+02  0.45594000000E+02  0.51100000000E-03 0.  1.
    9900012    2    1    2    0    0  0.22180013580E+02 -0.33467787940E+02 -0.64125364039E+01  0.50528850290E+02  0.29999970941E+02 0.  0.
         12    1    1    2    0    0 -0.22180013580E+02  0.33467787940E+02  0.64125364039E+01  0.40659149710E+02  0.00000000000E+00 0. -1.
         11    1    3    3    0    0  0.29071204600E+01 -0.24995477784E+02  0.39723140840E+01  0.25475567481E+02  0.51100000000E-03 0. -1.
        -11    1    3    3    0    0  0.62551919191E+01  0.14583097766E+01 -0.31266345390E+01  0.71435241408E+01  0.51100000000E-03 0.  1.
        -12    1    3    3    0    0  0.13017701201E+02 -0.99306199327E+01 -0.72582159489E+01  0.17909758669E+02  0.00000000000E+00 0.  1.
</event>
<event>
 7    1  0.2500839E-011  0.5052886E+02  0.7816164E-02  0.1300439E+00
        -11   -1    0    0    0    0  0.00000000000E+00  0.00000000000E+00  0.45593999997E+02  0.45594000000E+02  0.51100000000E-03 0.  1.
         11   -1    0    0    0    0 -0.00000000000E+00 -0.00000000000E+00 -0.45593999997E+02  0.45594000000E+02  0.51100000000E-03 0. -1.
    9900012    2    1    2    0    0 -0.11738825285E+02  0.13569435165E+02  0.36486107909E+02  0.50528860067E+02  0.30000000659E+02 0.  0.
         12    1    1    2    0    0  0.11738825285E+02 -0.13569435165E+02 -0.36486107909E+02  0.40659139933E+02  0.00000000000E+00 0. -1.
         11    1    3    3    0    0 -0.70607277270E+01  0.89794165638E+01 -0.10029897472E+01  0.11466899605E+02  0.51100000000E-03 0. -1.
        -11    1    3    3    0    0 -0.29971465448E+01  0.70478219966E+01  0.22153848059E+02  0.23440300049E+02  0.51100000000E-03 0.  1.
        -12    1    3    3    0    0 -0.16809510130E+01 -0.24578033955E+01  0.15335249597E+02  0.15621660413E+02  0.00000000000E+00 0.  1.
</event>
<event>
 7    1  0.2500839E-011  0.5052886E+02  0.7816164E-02  0.1300439E+00
        -11   -1    0    0    0    0  0.00000000000E+00  0.00000000000E+00  0.45593999997E+02  0.45594000000E+02  0.51100000000E-03 0. -1.
         11   -1    0    0    0    0 -0.00000000000E+00 -0.00000000000E+00 -0.45593999997E+02  0.45594000000E+02  0.51100000000E-03 0.  1.
    9900012    2    1    2    0    0 -0.27349615106E+02  0.28919670875E+02 -0.82956064123E+01  0.50528857169E+02  0.29999991852E+02 0.  0.
         12    1    1    2    0    0  0.27349615106E+02 -0.28919670875E+02  0.82956064123E+01  0.40659142831E+02  0.00000000000E+00 0. -1.
         11    1    3    3    0    0 -0.10704598423E+02  0.11977512596E+02 -0.21759948556E+01  0.16210619644E+02  0.51100000000E-03 0. -1.
        -11    1    3    3    0    0  0.11341585941E+01  0.13303753027E+02  0.34660396979E+01  0.13794549350E+02  0.51100000000E-03 0.  1.
         12    1    3    3    0    0 -0.17779175278E+02  0.36384052515E+01 -0.95856512546E+01  0.20523688175E+02  0.00000000000E+00 0. -1.
</event>
<event>
 7    1  0.2500839E-011  0.5052887E+02  0.7816164E-02  0.1300439E+00
        -11   -1    0    0    0    0  0.00000000000E+00  0.00000000000E+00  0.45593999997E+02  0.45594000000E+02  0.51100000000E-03 0.  1.
         11   -1    0    0    0    0 -0.00000000000E+00 -0.00000000000E+00 -0.45593999997E+02  0.45594000000E+02  0.51100000000E-03 0. -1.
    9900012    2    1    2    0    0 -0.12151635154E+02 -0.37804157710E+02  0.87377718188E+01  0.50528865313E+02  0.30000016606E+02 0.  0.
         12    1    1    2    0    0  0.12151635154E+02  0.37804157710E+02 -0.87377718188E+01  0.40659134687E+02  0.00000000000E+00 0. -1.
         11    1    3    3    0    0 -0.11300903734E+02 -0.17768049238E+02 -0.52056271040E+00  0.21063831198E+02  0.51100000000E-03 0.  1.
        -11    1    3    3    0    0  0.89346501942E+01 -0.64207079633E+01  0.54168136092E+01  0.12263577569E+02  0.51100000000E-03 0. -1.
         12    1    3    3    0    0 -0.97853816146E+01 -0.13615400509E+02  0.38415209200E+01  0.17201456547E+02  0.00000000000E+00 0. -1.
</event>
<event>
 7    1  0.2500839E-011  0.5052886E+02  0.7816164E-02  0.1300439E+00
        -11   -1    0    0    0    0  0.00000000000E+00  0.00000000000E+00  0.45593999997E+02  0.45594000000E+02  0.51100000000E-03 0.  1.
         11   -1    0    0    0    0 -0.00000000000E+00 -0.00000000000E+00 -0.45593999997E+02  0.45594000000E+02  0.51100000000E-03 0. -1.
    9900012    2    1    2    0    0 -0.22465962576E+02 -0.22751988446E+02  0.25115592025E+02  0.50528863075E+02  0.30000009803E+02 0.  0.
         12    1    1    2    0    0  0.22465962576E+02  0.22751988446E+02 -0.25115592025E+02  0.40659136925E+02  0.00000000000E+00 0. -1.
         11    1    3    3    0    0 -0.12309430226E+02 -0.56302896379E+01  0.10863511470E+02  0.17356212595E+02  0.51100000000E-03 0. -1.
        -11    1    3    3    0    0 -0.10357373259E+01  0.96896256933E+00  0.12781023300E+02  0.12859478882E+02  0.51100000000E-03 0.  1.
         12    1    3    3    0    0 -0.91207950239E+01 -0.18090661377E+02  0.14710572553E+01  0.20313171598E+02  0.00000000000E+00 0. -1.
</event>
<event>
 7    1  0.2500839E-011  0.5052886E+02  0.7816164E-02  0.1300439E+00
        -11   -1    0    0    0    0  0.00000000000E+00  0.00000000000E+00  0.45593999997E+02  0.45594000000E+02  0.51100000000E-03 0. -1.
         11   -1    0    0    0    0 -0.00000000000E+00 -0.00000000000E+00 -0.45593999997E+02  0.45594000000E+02  0.51100000000E-03 0.  1.
    9900012    2    1    2    0    0 -0.24028733713E+01  0.34124490616E+02  0.21975235586E+02  0.50528860322E+02  0.30000001436E+02 0.  0.
         12    1    1    2    0    0  0.24028733713E+01 -0.34124490616E+02 -0.21975235586E+02  0.40659139678E+02  0.00000000000E+00 0. -1.
         11    1    3    3    0    0 -0.64410184393E+01 -0.22133048637E+01  0.19598893266E+01  0.70870729775E+01  0.51100000000E-03 0. -1.
        -11    1    3    3    0    0 -0.36475875066E+01  0.12584045707E+02  0.36897414494E+01  0.13611660193E+02  0.51100000000E-03 0.  1.
        -12    1    3    3    0    0  0.76857325746E+01  0.23753749773E+02  0.16325604810E+02  0.29830127152E+02  0.00000000000E+00 0.  1.
</event>
<event>
 7    1  0.2500839E-011  0.5052886E+02  0.7816164E-02  0.1300439E+00
        -11   -1    0    0    0    0  0.00000000000E+00  0.00000000000E+00  0.45593999997E+02  0.45594000000E+02  0.51100000000E-03 0.  1.
         11   -1    0    0    0    0 -0.00000000000E+00 -0.00000000000E+00 -0.45593999997E+02  0.45594000000E+02  0.51100000000E-03 0. -1.
    9900012    2    1    2    0    0  0.27915199501E+02 -0.15975240904E+02  0.24873655007E+02  0.50528863284E+02  0.30000010437E+02 0.  0.
         12    1    1    2    0    0 -0.27915199501E+02  0.15975240904E+02 -0.24873655007E+02  0.40659136716E+02  0.00000000000E+00 0. -1.
         11    1    3    3    0    0 -0.18184758471E+01  0.32565018484E+01  0.63097258762E+01  0.73296861863E+01  0.51100000000E-03 0. -1.
        -11    1    3    3    0    0  0.12680617551E+02 -0.18092085811E+01  0.12882220760E+02  0.18166532667E+02  0.51100000000E-03 0.  1.
         12    1    3    3    0    0  0.17053057797E+02 -0.17422534172E+02  0.56817083707E+01  0.25032644430E+02  0.00000000000E+00 0. -1.
</event>
<event>
 7    1  0.2500839E-011  0.5052886E+02  0.7816164E-02  0.1300439E+00
        -11   -1    0    0    0    0  0.00000000000E+00  0.00000000000E+00  0.45593999997E+02  0.45594000000E+02  0.51100000000E-03 0.  1.
         11   -1    0    0    0    0 -0.00000000000E+00 -0.00000000000E+00 -0.45593999997E+02  0.45594000000E+02  0.51100000000E-03 0. -1.
    9900012    2    1    2    0    0 -0.35915716560E+02 -0.14583349591E+02  0.12269989080E+02  0.50528863101E+02  0.30000009883E+02 0.  0.
         12    1    1    2    0    0  0.35915716560E+02  0.14583349591E+02 -0.12269989080E+02  0.40659136899E+02  0.00000000000E+00 0. -1.
         11    1    3    3    0    0 -0.29321059500E+01 -0.15876858055E+01  0.13106048627E+02  0.13523553616E+02  0.51100000000E-03 0. -1.
        -11    1    3    3    0    0 -0.22988418499E+01 -0.24110224831E+01  0.27887182827E+01  0.43444968853E+01  0.51100000000E-03 0.  1.
        -12    1    3    3    0    0 -0.30684768760E+02 -0.10584641302E+02 -0.36247778305E+01  0.32660812600E+02  0.00000000000E+00 0.  1.
</event>
<event>
 7    1  0.2500839E-011  0.5052885E+02  0.7816164E-02  0.1300439E+00
        -11   -1    0    0    0    0  0.00000000000E+00  0.00000000000E+00  0.45593999997E+02  0.45594000000E+02  0.51100000000E-03 0. -1.
         11   -1    0    0    0    0 -0.00000000000E+00 -0.00000000000E+00 -0.45593999997E+02  0.45594000000E+02  0.51100000000E-03 0.  1.
    9900012    2    1    2    0    0 -0.26515800274E+02  0.12745044692E+02 -0.28064965069E+02  0.50528854747E+02  0.29999984489E+02 0.  0.
         12    1    1    2    0    0  0.26515800274E+02 -0.12745044692E+02  0.28064965069E+02  0.40659145253E+02  0.00000000000E+00 0. -1.
         11    1    3    3    0    0  0.33721601022E+01 -0.28225055288E+01 -0.63237822274E+01  0.77024816219E+01  0.51100000000E-03 0. -1.
        -11    1    3    3    0    0 -0.30898135816E+01  0.74674178414E+01 -0.89142441847E+01  0.12032166340E+02  0.51100000000E-03 0.  1.
        -12    1    3    3    0    0 -0.26798146795E+02  0.81001323799E+01 -0.12826938656E+02  0.30794206785E+02  0.00000000000E+00 0.  1.
</event>
<event>
 7    1  0.2500839E-011  0.5052888E+02  0.7816164E-02  0.1300439E+00
        -11   -1    0    0    0    0  0.00000000000E+00  0.00000000000E+00  0.45593999997E+02  0.45594000000E+02  0.51100000000E-03 0.  1.
         11   -1    0    0    0    0 -0.00000000000E+00 -0.00000000000E+00 -0.45593999997E+02  0.45594000000E+02  0.51100000000E-03 0. -1.
    9900012    2    1    2    0    0 -0.17227291354E+02 -0.16414770580E+02  0.32968771516E+02  0.50528878566E+02  0.30000056888E+02 0.  0.
         12    1    1    2    0    0  0.17227291354E+02  0.16414770580E+02 -0.32968771516E+02  0.40659121434E+02  0.00000000000E+00 0. -1.
         11    1    3    3    0    0 -0.43877739846E+01  0.40130145532E+01  0.67298219856E+01  0.89803869941E+01  0.51100000000E-03 0. -1.
        -11    1    3    3    0    0 -0.14114560457E+01 -0.17390599060E+02  0.66597591679E+01  0.18675586638E+02  0.51100000000E-03 0.  1.
         12    1    3    3    0    0 -0.11428061323E+02 -0.30371860729E+01  0.19579190362E+02  0.22872904933E+02  0.00000000000E+00 0. -1.
</event>
<event>
 7    1  0.2500839E-011  0.5052886E+02  0.7816164E-02  0.1300439E+00
        -11   -1    0    0    0    0  0.00000000000E+00  0.00000000000E+00  0.45593999997E+02  0.45594000000E+02  0.51100000000E-03 0.  1.
         11   -1    0    0    0    0 -0.00000000000E+00 -0.00000000000E+00 -0.45593999997E+02  0.45594000000E+02  0.51100000000E-03 0. -1.
    9900012    2    1    2    0    0 -0.26764077298E+02 -0.17271830907E+02  0.25269229068E+02  0.50528856942E+02  0.29999991161E+02 0.  0.
         12    1    1    2    0    0  0.26764077298E+02  0.17271830907E+02 -0.25269229068E+02  0.40659143058E+02  0.00000000000E+00 0. -1.
         11    1    3    3    0    0 -0.18140594190E+02 -0.71214221630E+01  0.41122614717E+01  0.19917492459E+02  0.51100000000E-03 0. -1.
        -11    1    3    3    0    0 -0.72531292793E+01  0.37260089751E+01  0.71092691026E+01  0.10818166881E+02  0.51100000000E-03 0.  1.
        -12    1    3    3    0    0 -0.13703538283E+01 -0.13876417720E+02  0.14047698494E+02  0.19793197602E+02  0.00000000000E+00 0.  1.
</event>
<event>
 7    1  0.2500839E-011  0.5052894E+02  0.7816164E-02  0.1300438E+00
        -11   -1    0    0    0    0  0.00000000000E+00  0.00000000000E+00  0.45593999997E+02  0.45594000000E+02  0.51100000000E-03 0. -1.
         11   -1    0    0    0    0 -0.00000000000E+00 -0.00000000000E+00 -0.45593999997E+02  0.45594000000E+02  0.51100000000E-03 0.  1.
    9900012    2    1    2    0    0  0.19726659424E+02  0.10702053653E+02  0.33904037578E+02  0.50528944323E+02  0.30000256763E+02 0.  0.
         12    1    1    2    0    0 -0.19726659424E+02 -0.10702053653E+02 -0.33904037578E+02  0.40659055677E+02  0.00000000000E+00 0. -1.
         11    1    3    3    0    0  0.54579651265E+01 -0.33446472431E+01  0.12564030735E+02  0.14100741720E+02  0.51100000000E-03 0. -1.
        -11    1    3    3    0    0  0.19614072172E+02  0.87813024032E+01  0.18659831772E+02  0.28460717157E+02  0.51100000000E-03 0.  1.
        -12    1    3    3    0    0 -0.53453778743E+01  0.52653984928E+01  0.26801750721E+01  0.79674854455E+01  0.00000000000E+00 0.  1.
</event>
<event>
 7    1  0.2500839E-011  0.5052886E+02  0.7816164E-02  0.1300439E+00
        -11   -1    0    0    0    0  0.00000000000E+00  0.00000000000E+00  0.45593999997E+02  0.45594000000E+02  0.51100000000E-03 0.  1.
         11   -1    0    0    0    0 -0.00000000000E+00 -0.00000000000E+00 -0.45593999997E+02  0.45594000000E+02  0.51100000000E-03 0. -1.
    9900012    2    1    2    0    0 -0.50716409334E+01 -0.40136124399E+02 -0.40664269835E+01  0.50528857708E+02  0.29999993489E+02 0.  0.
         12    1    1    2    0    0  0.50716409334E+01  0.40136124399E+02  0.40664269835E+01  0.40659142292E+02  0.00000000000E+00 0. -1.
         11    1    3    3    0    0 -0.81942709434E+01 -0.10462861697E+02 -0.96509655064E+01  0.16424332153E+02  0.51100000000E-03 0. -1.
        -11    1    3    3    0    0  0.33060513101E+01 -0.21717174819E+02 -0.32585625625E+01  0.22207743866E+02  0.51100000000E-03 0.  1.
         12    1    3    3    0    0 -0.18342130007E+00 -0.79560878828E+01  0.88431010853E+01  0.11896781690E+02  0.00000000000E+00 0. -1.
</event>
<event>
 7    1  0.2500839E-011  0.5052885E+02  0.7816164E-02  0.1300439E+00
        -11   -1    0    0    0    0  0.00000000000E+00  0.00000000000E+00  0.45593999997E+02  0.45594000000E+02  0.51100000000E-03 0. -1.
         11   -1    0    0    0    0 -0.00000000000E+00 -0.00000000000E+00 -0.45593999997E+02  0.45594000000E+02  0.51100000000E-03 0.  1.
    9900012    2    1    2    0    0 -0.29628410565E+02 -0.83074918966E+01 -0.26576475052E+02  0.50528853915E+02  0.29999981959E+02 0.  0.
         12    1    1    2    0    0  0.29628410565E+02  0.83074918966E+01  0.26576475052E+02  0.40659146085E+02  0.00000000000E+00 0. -1.
         11    1    3    3    0    0 -0.18922481654E+02 -0.44465256108E+01 -0.10535601890E+02  0.22109518525E+02  0.51100000000E-03 0. -1.
        -11    1    3    3    0    0 -0.70314941923E+01 -0.12271716133E+02 -0.11210590404E+02  0.18047555649E+02  0.51100000000E-03 0.  1.
         12    1    3    3    0    0 -0.36744347186E+01  0.84107498468E+01 -0.48302827578E+01  0.10371779742E+02  0.00000000000E+00 0. -1.
</event>
<event>
 7    1  0.2500839E-011  0.5052886E+02  0.7816164E-02  0.1300439E+00
        -11   -1    0    0    0    0  0.00000000000E+00  0.00000000000E+00  0.45593999997E+02  0.45594000000E+02  0.51100000000E-03 0.  1.
         11   -1    0    0    0    0 -0.00000000000E+00 -0.00000000000E+00 -0.45593999997E+02  0.45594000000E+02  0.51100000000E-03 0. -1.
    9900012    2    1    2    0    0  0.29022318914E+02 -0.27507052055E+02 -0.73643011976E+01  0.50528857854E+02  0.29999993934E+02 0.  0.
         12    1    1    2    0    0 -0.29022318914E+02  0.27507052055E+02  0.73643011976E+01  0.40659142146E+02  0.00000000000E+00 0. -1.
         11    1    3    3    0    0 -0.31811191082E+01 -0.98444645032E+01 -0.41034606231E+01  0.11129752445E+02  0.51100000000E-03 0. -1.
        -11    1    3    3    0    0  0.12722123800E+02 -0.89392063362E+01 -0.80709320779E+01  0.17518612638E+02  0.51100000000E-03 0.  1.
        -12    1    3    3    0    0  0.19481314222E+02 -0.87233812158E+01  0.48100915034E+01  0.21880492772E+02  0.00000000000E+00 0.  1.
</event>
<event>
 7    1  0.2500839E-011  0.5052886E+02  0.7816164E-02  0.1300439E+00
        -11   -1    0    0    0    0  0.00000000000E+00  0.00000000000E+00  0.45593999997E+02  0.45594000000E+02  0.51100000000E-03 0.  1.
         11   -1    0    0    0    0 -0.00000000000E+00 -0.00000000000E+00 -0.45593999997E+02  0.45594000000E+02  0.51100000000E-03 0. -1.
    9900012    2    1    2    0    0 -0.34458629175E+02 -0.21072137764E+02  0.46619421252E+01  0.50528858114E+02  0.29999994722E+02 0.  0.
         12    1    1    2    0    0  0.34458629175E+02  0.21072137764E+02 -0.46619421252E+01  0.40659141886E+02  0.00000000000E+00 0. -1.
         11    1    3    3    0    0 -0.19936011881E+02 -0.14033260018E+02  0.15474416042E+02  0.28876192764E+02  0.51100000000E-03 0.  1.
        -11    1    3    3    0    0 -0.11349262792E+02 -0.82356354078E+00 -0.44799438357E+01  0.12229224009E+02  0.51100000000E-03 0. -1.
        -12    1    3    3    0    0 -0.31733545020E+01 -0.62153142052E+01 -0.63325300814E+01  0.94234413404E+01  0.00000000000E+00 0.  1.
</event>
<event>
 7    1  0.2500839E-011  0.5052886E+02  0.7816164E-02  0.1300439E+00
        -11   -1    0    0    0    0  0.00000000000E+00  0.00000000000E+00  0.45593999997E+02  0.45594000000E+02  0.51100000000E-03 0.  1.
         11   -1    0    0    0    0 -0.00000000000E+00 -0.00000000000E+00 -0.45593999997E+02  0.45594000000E+02  0.51100000000E-03 0. -1.
    9900012    2    1    2    0    0  0.13799012533E+02  0.38510237446E+01  0.38051574944E+02  0.50528862201E+02  0.30000007148E+02 0.  0.
         12    1    1    2    0    0 -0.13799012533E+02 -0.38510237446E+01 -0.38051574944E+02  0.40659137799E+02  0.00000000000E+00 0. -1.
         11    1    3    3    0    0  0.17496955051E+02  0.73709217769E+01  0.17736356226E+02  0.25981767768E+02  0.51100000000E-03 0. -1.
        -11    1    3    3    0    0  0.43786305784E+01 -0.32741851220E+01  0.10460775817E+02  0.11803411579E+02  0.51100000000E-03 0.  1.
         12    1    3    3    0    0 -0.80765730959E+01 -0.24571291031E+00  0.98544429013E+01  0.12743682855E+02  0.00000000000E+00 0. -1.
</event>
<event>
 7    1  0.2500839E-011  0.5052886E+02  0.7816164E-02  0.1300439E+00
        -11   -1    0    0    0    0  0.00000000000E+00  0.00000000000E+00  0.45593999997E+02  0.45594000000E+02  0.51100000000E-03 0. -1.
         11   -1    0    0    0    0 -0.00000000000E+00 -0.00000000000E+00 -0.45593999997E+02  0.45594000000E+02  0.51100000000E-03 0.  1.
    9900012    2    1    2    0    0 -0.96611421279E+00  0.28182294426E+02 -0.29291471076E+02  0.50528863591E+02  0.30000011370E+02 0.  0.
         12    1    1    2    0    0  0.96611421279E+00 -0.28182294426E+02  0.29291471076E+02  0.40659136409E+02  0.00000000000E+00 0. -1.
         11    1    3    3    0    0  0.54331694947E+01  0.29250442165E+01  0.21749490852E+01  0.65426002638E+01  0.51100000000E-03 0. -1.
        -11    1    3    3    0    0 -0.65534023412E+01  0.92963992127E+01 -0.37032108874E+01  0.11961767917E+02  0.51100000000E-03 0.  1.
         12    1    3    3    0    0  0.15411863373E+00  0.15960850996E+02 -0.27763209274E+02  0.32024495410E+02  0.00000000000E+00 0. -1.
</event>
<event>
 7    1  0.2500839E-011  0.5052887E+02  0.7816164E-02  0.1300439E+00
        -11   -1    0    0    0    0  0.00000000000E+00  0.00000000000E+00  0.45593999997E+02  0.45594000000E+02  0.51100000000E-03 0. -1.
         11   -1    0    0    0    0 -0.00000000000E+00 -0.00000000000E+00 -0.45593999997E+02  0.45594000000E+02  0.51100000000E-03 0.  1.
    9900012    2    1    2    0    0 -0.12092145211E+02  0.30402896226E+02 -0.24137290303E+02  0.50528869932E+02  0.30000030645E+02 0.  0.
         12    1    1    2    0    0  0.12092145211E+02 -0.30402896226E+02  0.24137290303E+02  0.40659130068E+02  0.00000000000E+00 0. -1.
         11    1    3    3    0    0 -0.12340087089E+02  0.96147769448E+01 -0.87030712844E+01  0.17901540020E+02  0.51100000000E-03 0.  1.
        -11    1    3    3    0    0  0.43264689449E+01 -0.29643075487E-01 -0.97478687657E+01  0.10664903093E+02  0.51100000000E-03 0. -1.
         12    1    3    3    0    0 -0.40785270671E+01  0.20817762357E+02 -0.56863502528E+01  0.21962426819E+02  0.00000000000E+00 0. -1.
</event>
<event>
 7    1  0.2500839E-011  0.5052886E+02  0.7816164E-02  0.1300439E+00
        -11   -1    0    0    0    0  0.00000000000E+00  0.00000000000E+00  0.45593999997E+02  0.45594000000E+02  0.51100000000E-03 0. -1.
         11   -1    0    0    0    0 -0.00000000000E+00 -0.00000000000E+00 -0.45593999997E+02  0.45594000000E+02  0.51100000000E-03 0.  1.
    9900012    2    1    2    0    0 -0.16060433586E+02 -0.28384229221E+02 -0.24280929450E+02  0.50528861662E+02  0.30000005508E+02 0.  0.
         12    1    1    2    0    0  0.16060433586E+02  0.28384229221E+02  0.24280929450E+02  0.40659138338E+02  0.00000000000E+00 0. -1.
         11    1    3    3    0    0 -0.17587495440E+02 -0.14013345257E+02 -0.16025923919E+02  0.27613838539E+02  0.51100000000E-03 0. -1.
        -11    1    3    3    0    0 -0.25545948783E+01 -0.15834751874E+02 -0.91807078078E+01  0.18481090823E+02  0.51100000000E-03 0.  1.
         12    1    3    3    0    0  0.40816567324E+01  0.14638679101E+01  0.92570227598E+00  0.44339323002E+01  0.00000000000E+00 0. -1.
</event>
<event>
 7    1  0.2500839E-011  0.5052885E+02  0.7816164E-02  0.1300439E+00
        -11   -1    0    0    0    0  0.00000000000E+00  0.00000000000E+00  0.45593999997E+02  0.45594000000E+02  0.51100000000E-03 0.  1.
         11   -1    0    0    0    0 -0.00000000000E+00 -0.00000000000E+00 -0.45593999997E+02  0.45594000000E+02  0.51100000000E-03 0. -1.
    9900012    2    1    2    0    0 -0.37260441775E+02 -0.16269495988E+02  0.35932160184E+00  0.50528854251E+02  0.29999982982E+02 0.  0.
         12    1    1    2    0    0  0.37260441775E+02  0.16269495988E+02 -0.35932160184E+00  0.40659145749E+02  0.00000000000E+00 0. -1.
         11    1    3    3    0    0 -0.24138316320E+01 -0.89187697230E+01 -0.74286037169E+01  0.11855597411E+02  0.51100000000E-03 0. -1.
        -11    1    3    3    0    0 -0.27069887116E+02 -0.64178507556E+01  0.27729392359E+00  0.27821655037E+02  0.51100000000E-03 0.  1.
        -12    1    3    3    0    0 -0.77767230271E+01 -0.93287550964E+00  0.75106313952E+01  0.10851601804E+02  0.00000000000E+00 0.  1.
</event>
<event>
 7    1  0.2500839E-011  0.5052887E+02  0.7816164E-02  0.1300439E+00
        -11   -1    0    0    0    0  0.00000000000E+00  0.00000000000E+00  0.45593999997E+02  0.45594000000E+02  0.51100000000E-03 0.  1.
         11   -1    0    0    0    0 -0.00000000000E+00 -0.00000000000E+00 -0.45593999997E+02  0.45594000000E+02  0.51100000000E-03 0. -1.
    9900012    2    1    2    0    0  0.89696322515E+00 -0.10667336505E+02  0.39224583219E+02  0.50528873843E+02  0.30000042533E+02 0.  0.
         12    1    1    2    0    0 -0.89696322515E+00  0.10667336505E+02 -0.39224583219E+02  0.40659126157E+02  0.00000000000E+00 0. -1.
         11    1    3    3    0    0 -0.91986111599E+01 -0.55022720604E+01  0.63977063930E+01  0.12482791853E+02  0.51100000000E-03 0. -1.
        -11    1    3    3    0    0  0.80227859618E+01 -0.10526517962E+02  0.19907842935E+02  0.23905959206E+02  0.51100000000E-03 0.  1.
        -12    1    3    3    0    0  0.20727884232E+01  0.53614535167E+01  0.12919033891E+02  0.14140122784E+02  0.00000000000E+00 0.  1.
</event>
<event>
 7    1  0.2500839E-011  0.5052884E+02  0.7816164E-02  0.1300439E+00
        -11   -1    0    0    0    0  0.00000000000E+00  0.00000000000E+00  0.45593999997E+02  0.45594000000E+02  0.51100000000E-03 0.  1.
         11   -1    0    0    0    0 -0.00000000000E+00 -0.00000000000E+00 -0.45593999997E+02  0.45594000000E+02  0.51100000000E-03 0. -1.
    9900012    2    1    2    0    0  0.55597822793E+01  0.34218779387E+02  0.21244563080E+02  0.50528837415E+02  0.29999931805E+02 0.  0.
         12    1    1    2    0    0 -0.55597822793E+01 -0.34218779387E+02 -0.21244563080E+02  0.40659162585E+02  0.00000000000E+00 0. -1.
         11    1    3    3    0    0 -0.15238465743E+01  0.67660456582E+01 -0.13506055327E+01  0.70658062383E+01  0.51100000000E-03 0. -1.
        -11    1    3    3    0    0 -0.27136484586E+01  0.13158725351E+02 -0.17827311900E+01  0.13553378604E+02  0.51100000000E-03 0.  1.
         12    1    3    3    0    0  0.97972773122E+01  0.14294008377E+02  0.24377899802E+02  0.29909652572E+02  0.00000000000E+00 0. -1.
</event>
<event>
 7    1  0.3125572E-011  0.5052884E+02  0.7816164E-02  0.1300439E+00
        -11   -1    0    0    0    0  0.00000000000E+00  0.00000000000E+00  0.45593999997E+02  0.45594000000E+02  0.51100000000E-03 0.  1.
         11   -1    0    0    0    0 -0.00000000000E+00 -0.00000000000E+00 -0.45593999997E+02  0.45594000000E+02  0.51100000000E-03 0. -1.
    9900012    2    1    2    0    0 -0.37738658957E+02 -0.13839867991E+02 -0.61171035490E+01  0.50528840125E+02  0.29999940044E+02 0.  0.
         12    1    1    2    0    0  0.37738658957E+02  0.13839867991E+02  0.61171035490E+01  0.40659159875E+02  0.00000000000E+00 0. -1.
         11    1    3    3    0    0  0.18558179464E+00 -0.23873835221E+01  0.37710245540E+01  0.44670647110E+01  0.51100000000E-03 0. -1.
        -11    1    3    3    0    0 -0.89085721113E+01  0.27420543041E+01 -0.10121142542E+02  0.13759325764E+02  0.51100000000E-03 0.  1.
        -12    1    3    3    0    0 -0.29015668641E+02 -0.14194538773E+02  0.23301443922E+00  0.32302449650E+02  0.00000000000E+00 0.  1.
</event>
<event>
 7    1  0.2500839E-011  0.5052887E+02  0.7816164E-02  0.1300439E+00
        -11   -1    0    0    0    0  0.00000000000E+00  0.00000000000E+00  0.45593999997E+02  0.45594000000E+02  0.51100000000E-03 0.  1.
         11   -1    0    0    0    0 -0.00000000000E+00 -0.00000000000E+00 -0.45593999997E+02  0.45594000000E+02  0.51100000000E-03 0. -1.
    9900012    2    1    2    0    0  0.40612843086E+02 -0.14949859063E+01 -0.12356483424E+01  0.50528870235E+02  0.30000031567E+02 0.  0.
         12    1    1    2    0    0 -0.40612843086E+02  0.14949859063E+01  0.12356483424E+01  0.40659129765E+02  0.00000000000E+00 0. -1.
         11    1    3    3    0    0  0.17989499027E+00 -0.67057360841E+01  0.23697827658E+01  0.71144310563E+01  0.51100000000E-03 0. -1.
        -11    1    3    3    0    0  0.16376282360E+02 -0.24452435824E+01  0.40267607655E+01  0.17040441386E+02  0.51100000000E-03 0.  1.
        -12    1    3    3    0    0  0.24056665736E+02  0.76559937602E+01 -0.76321918737E+01  0.26373997793E+02  0.00000000000E+00 0.  1.
</event>
<event>
 7    1  0.2500839E-011  0.5052886E+02  0.7816164E-02  0.1300439E+00
        -11   -1    0    0    0    0  0.00000000000E+00  0.00000000000E+00  0.45593999997E+02  0.45594000000E+02  0.51100000000E-03 0. -1.
         11   -1    0    0    0    0 -0.00000000000E+00 -0.00000000000E+00 -0.45593999997E+02  0.45594000000E+02  0.51100000000E-03 0.  1.
    9900012    2    1    2    0    0 -0.22034974806E+02  0.23589563153E+02 -0.24721604333E+02  0.50528864184E+02  0.30000013175E+02 0.  0.
         12    1    1    2    0    0  0.22034974806E+02 -0.23589563153E+02  0.24721604333E+02  0.40659135816E+02  0.00000000000E+00 0. -1.
         11    1    3    3    0    0 -0.22118878067E+01  0.53141031559E+01  0.38420692380E+01  0.69205228351E+01  0.51100000000E-03 0. -1.
        -11    1    3    3    0    0 -0.61643012644E+00 -0.49512922490E+00 -0.12062106977E+02  0.12087992556E+02  0.51100000000E-03 0.  1.
        -12    1    3    3    0    0 -0.19206656873E+02  0.18770589222E+02 -0.16501566594E+02  0.31520348793E+02  0.00000000000E+00 0.  1.
</event>
<event>
 7    1  0.2500839E-011  0.5052886E+02  0.7816164E-02  0.1300439E+00
        -11   -1    0    0    0    0  0.00000000000E+00  0.00000000000E+00  0.45593999997E+02  0.45594000000E+02  0.51100000000E-03 0.  1.
         11   -1    0    0    0    0 -0.00000000000E+00 -0.00000000000E+00 -0.45593999997E+02  0.45594000000E+02  0.51100000000E-03 0. -1.
    9900012    2    1    2    0    0 -0.12630848685E+02  0.27600270068E+02  0.27052767837E+02  0.50528862110E+02  0.30000006869E+02 0.  0.
         12    1    1    2    0    0  0.12630848685E+02 -0.27600270068E+02 -0.27052767837E+02  0.40659137890E+02  0.00000000000E+00 0. -1.
         11    1    3    3    0    0 -0.13886564315E+02  0.40282189477E+01  0.10879382683E+02  0.18094866238E+02  0.51100000000E-03 0. -1.
        -11    1    3    3    0    0 -0.35267412126E+01  0.40651290448E+00 -0.36927747780E+00  0.35692467607E+01  0.51100000000E-03 0.  1.
        -12    1    3    3    0    0  0.47824568427E+01  0.23165538216E+02  0.16542662632E+02  0.28864749111E+02  0.00000000000E+00 0.  1.
</event>
<event>
 7    1  0.2500839E-011  0.5052887E+02  0.7816164E-02  0.1300439E+00
        -11   -1    0    0    0    0  0.00000000000E+00  0.00000000000E+00  0.45593999997E+02  0.45594000000E+02  0.51100000000E-03 0. -1.
         11   -1    0    0    0    0 -0.00000000000E+00 -0.00000000000E+00 -0.45593999997E+02  0.45594000000E+02  0.51100000000E-03 0.  1.
    9900012    2    1    2    0    0  0.17577888065E+02 -0.27571347652E+02 -0.24166172508E+02  0.50528865062E+02  0.30000015844E+02 0.  0.
         12    1    1    2    0    0 -0.17577888065E+02  0.27571347652E+02  0.24166172508E+02  0.40659134938E+02  0.00000000000E+00 0. -1.
         11    1    3    3    0    0 -0.13555657618E+00 -0.63873515488E+00 -0.83207010781E+01  0.83462820990E+01  0.51100000000E-03 0. -1.
        -11    1    3    3    0    0  0.40515909365E+01 -0.18481758816E+02  0.94605778043E+00  0.18944282083E+02  0.51100000000E-03 0.  1.
         12    1    3    3    0    0  0.13661853705E+02 -0.84508536813E+01 -0.16791529210E+02  0.23238300881E+02  0.00000000000E+00 0. -1.
</event>
<event>
 7    1  0.2500839E-011  0.5052886E+02  0.7816164E-02  0.1300439E+00
        -11   -1    0    0    0    0  0.00000000000E+00  0.00000000000E+00  0.45593999997E+02  0.45594000000E+02  0.51100000000E-03 0. -1.
         11   -1    0    0    0    0 -0.00000000000E+00 -0.00000000000E+00 -0.45593999997E+02  0.45594000000E+02  0.51100000000E-03 0.  1.
    9900012    2    1    2    0    0  0.14377399879E+02  0.20832955058E+02 -0.31818922571E+02  0.50528862314E+02  0.30000007491E+02 0.  0.
         12    1    1    2    0    0 -0.14377399879E+02 -0.20832955058E+02  0.31818922571E+02  0.40659137686E+02  0.00000000000E+00 0. -1.
         11    1    3    3    0    0 -0.27825363526E+01  0.39854888520E+01 -0.12386913493E+01  0.50160728128E+01  0.51100000000E-03 0. -1.
        -11    1    3    3    0    0  0.44340053240E+01 -0.60173629603E+01 -0.56411617090E+01  0.93643881753E+01  0.51100000000E-03 0.  1.
        -12    1    3    3    0    0  0.12725930908E+02  0.22864829166E+02 -0.24939069513E+02  0.36148401326E+02  0.00000000000E+00 0.  1.
</event>
<event>
 7    1  0.2500839E-011  0.5052887E+02  0.7816164E-02  0.1300439E+00
        -11   -1    0    0    0    0  0.00000000000E+00  0.00000000000E+00  0.45593999997E+02  0.45594000000E+02  0.51100000000E-03 0. -1.
         11   -1    0    0    0    0 -0.00000000000E+00 -0.00000000000E+00 -0.45593999997E+02  0.45594000000E+02  0.51100000000E-03 0.  1.
    9900012    2    1    2    0    0 -0.31696774581E+02 -0.25301803627E+02 -0.28806193584E+01  0.50528871216E+02  0.30000034548E+02 0.  0.
         12    1    1    2    0    0  0.31696774581E+02  0.25301803627E+02  0.28806193584E+01  0.40659128784E+02  0.00000000000E+00 0. -1.
         11    1    3    3    0    0  0.31257431888E+00  0.26287552423E+01  0.34386218175E+01  0.43396056380E+01  0.51100000000E-03 0. -1.
        -11    1    3    3    0    0 -0.90075336356E+01 -0.38752373203E+01 -0.83010030763E+01  0.12847559255E+02  0.51100000000E-03 0.  1.
         12    1    3    3    0    0 -0.23001815264E+02 -0.24055321549E+02  0.19817619004E+01  0.33341706322E+02  0.00000000000E+00 0. -1.
</event>
<event>
 7    1  0.2500839E-011  0.5052885E+02  0.7816164E-02  0.1300439E+00
        -11   -1    0    0    0    0  0.00000000000E+00  0.00000000000E+00  0.45593999997E+02  0.45594000000E+02  0.51100000000E-03 0.  1.
         11   -1    0    0    0    0 -0.00000000000E+00 -0.00000000000E+00 -0.45593999997E+02  0.45594000000E+02  0.51100000000E-03 0. -1.
    9900012    2    1    2    0    0  0.24493144322E+02 -0.21613896028E+02  0.24209338221E+02  0.50528847557E+02  0.29999962634E+02 0.  0.
         12    1    1    2    0    0 -0.24493144322E+02  0.21613896028E+02 -0.24209338221E+02  0.40659152443E+02  0.00000000000E+00 0. -1.
         11    1    3    3    0    0  0.53710956914E+01  0.12375886856E+00  0.13539995875E+02  0.14566930828E+02  0.51100000000E-03 0. -1.
        -11    1    3    3    0    0  0.13258304794E+01 -0.13737144419E+02  0.87837574639E+01  0.16359136857E+02  0.51100000000E-03 0.  1.
         12    1    3    3    0    0  0.17796218151E+02 -0.80005104772E+01  0.18855848824E+01  0.19602779872E+02  0.00000000000E+00 0. -1.
</event>
<event>
 7    1  0.2500839E-011  0.5052885E+02  0.7816164E-02  0.1300439E+00
        -11   -1    0    0    0    0  0.00000000000E+00  0.00000000000E+00  0.45593999997E+02  0.45594000000E+02  0.51100000000E-03 0. -1.
         11   -1    0    0    0    0 -0.00000000000E+00 -0.00000000000E+00 -0.45593999997E+02  0.45594000000E+02  0.51100000000E-03 0.  1.
    9900012    2    1    2    0    0 -0.38013558788E+01 -0.36103019557E+02 -0.18310871766E+02  0.50528851553E+02  0.29999974780E+02 0.  0.
         12    1    1    2    0    0  0.38013558788E+01  0.36103019557E+02  0.18310871766E+02  0.40659148447E+02  0.00000000000E+00 0. -1.
         11    1    3    3    0    0 -0.19122986581E+01 -0.23422846895E+02 -0.25467202884E+01  0.23638367696E+02  0.51100000000E-03 0. -1.
        -11    1    3    3    0    0  0.62790630016E+01 -0.44411610755E+01 -0.48556310853E+00  0.77062517264E+01  0.51100000000E-03 0.  1.
        -12    1    3    3    0    0 -0.81681202223E+01 -0.82390115859E+01 -0.15278588369E+02  0.19184232131E+02  0.00000000000E+00 0.  1.
</event>
<event>
 7    1  0.2500839E-011  0.5052886E+02  0.7816164E-02  0.1300439E+00
        -11   -1    0    0    0    0  0.00000000000E+00  0.00000000000E+00  0.45593999997E+02  0.45594000000E+02  0.51100000000E-03 0.  1.
         11   -1    0    0    0    0 -0.00000000000E+00 -0.00000000000E+00 -0.45593999997E+02  0.45594000000E+02  0.51100000000E-03 0. -1.
    9900012    2    1    2    0    0  0.12773433256E+01 -0.36717386161E+02  0.17417449749E+02  0.50528860705E+02  0.30000002598E+02 0.  0.
         12    1    1    2    0    0 -0.12773433256E+01  0.36717386161E+02 -0.17417449749E+02  0.40659139295E+02  0.00000000000E+00 0. -1.
         11    1    3    3    0    0 -0.56684890334E+00 -0.83346947393E+01  0.38174117292E+01  0.91848291573E+01  0.51100000000E-03 0. -1.
        -11    1    3    3    0    0 -0.27035291868E+01 -0.29558680346E+02  0.18160601185E+02  0.34797012652E+02  0.51100000000E-03 0.  1.
         12    1    3    3    0    0  0.45477214157E+01  0.11759889238E+01 -0.45605631659E+01  0.65470188952E+01  0.00000000000E+00 0. -1.
</event>
<event>
 7    1  0.2500839E-011  0.5052886E+02  0.7816164E-02  0.1300439E+00
        -11   -1    0    0    0    0  0.00000000000E+00  0.00000000000E+00  0.45593999997E+02  0.45594000000E+02  0.51100000000E-03 0.  1.
         11   -1    0    0    0    0 -0.00000000000E+00 -0.00000000000E+00 -0.45593999997E+02  0.45594000000E+02  0.51100000000E-03 0. -1.
    9900012    2    1    2    0    0  0.18737399349E+02 -0.33665678364E+02  0.12988376100E+02  0.50528856529E+02  0.29999989905E+02 0.  0.
         12    1    1    2    0    0 -0.18737399349E+02  0.33665678364E+02 -0.12988376100E+02  0.40659143471E+02  0.00000000000E+00 0. -1.
         11    1    3    3    0    0 -0.56457207841E+00  0.19317506150E+01 -0.12979467370E+01  0.23948002137E+01  0.51100000000E-03 0. -1.
        -11    1    3    3    0    0  0.83571042883E+01 -0.29760980957E+02  0.24828031392E+01  0.31011634773E+02  0.51100000000E-03 0.  1.
         12    1    3    3    0    0  0.10944867139E+02 -0.58364480223E+01  0.11803519697E+02  0.17122421542E+02  0.00000000000E+00 0. -1.
</event>
<event>
 7    1  0.2500839E-011  0.5052887E+02  0.7816164E-02  0.1300439E+00
        -11   -1    0    0    0    0  0.00000000000E+00  0.00000000000E+00  0.45593999997E+02  0.45594000000E+02  0.51100000000E-03 0.  1.
         11   -1    0    0    0    0 -0.00000000000E+00 -0.00000000000E+00 -0.45593999997E+02  0.45594000000E+02  0.51100000000E-03 0. -1.
    9900012    2    1    2    0    0  0.23628246626E+02 -0.95048034678E+01  0.31694320139E+02  0.50528865029E+02  0.30000015741E+02 0.  0.
         12    1    1    2    0    0 -0.23628246626E+02  0.95048034678E+01 -0.31694320139E+02  0.40659134971E+02  0.00000000000E+00 0. -1.
         11    1    3    3    0    0 -0.66429389579E+00 -0.70592769627E+01  0.87613766255E+01  0.11271042465E+02  0.51100000000E-03 0. -1.
        -11    1    3    3    0    0  0.16738449726E+02 -0.10653309234E+02  0.18883080141E+02  0.27390498585E+02  0.51100000000E-03 0.  1.
         12    1    3    3    0    0  0.75540907957E+01  0.82077827290E+01  0.40498633720E+01  0.11867323978E+02  0.00000000000E+00 0. -1.
</event>
<event>
 7    1  0.2642985E-011  0.5052887E+02  0.7816164E-02  0.1300439E+00
        -11   -1    0    0    0    0  0.00000000000E+00  0.00000000000E+00  0.45593999997E+02  0.45594000000E+02  0.51100000000E-03 0. -1.
         11   -1    0    0    0    0 -0.00000000000E+00 -0.00000000000E+00 -0.45593999997E+02  0.45594000000E+02  0.51100000000E-03 0.  1.
    9900012    2    1    2    0    0  0.19071302558E+02  0.66738982111E+01 -0.35283275452E+02  0.50528867875E+02  0.30000024392E+02 0.  0.
         12    1    1    2    0    0 -0.19071302558E+02 -0.66738982111E+01  0.35283275452E+02  0.40659132125E+02  0.00000000000E+00 0. -1.
         11    1    3    3    0    0  0.31101198433E+00 -0.75420557353E+01 -0.53995425978E+01  0.92808616893E+01  0.51100000000E-03 0. -1.
        -11    1    3    3    0    0  0.78070622439E+01  0.17907923696E+01 -0.20949183331E+02  0.22428228657E+02  0.51100000000E-03 0.  1.
         12    1    3    3    0    0  0.10953228329E+02  0.12425161577E+02 -0.89345495233E+01  0.18819777529E+02  0.00000000000E+00 0. -1.
</event>
<event>
 7    1  0.2500839E-011  0.5052886E+02  0.7816164E-02  0.1300439E+00
        -11   -1    0    0    0    0  0.00000000000E+00  0.00000000000E+00  0.45593999997E+02  0.45594000000E+02  0.51100000000E-03 0. -1.
         11   -1    0    0    0    0 -0.00000000000E+00 -0.00000000000E+00 -0.45593999997E+02  0.45594000000E+02  0.51100000000E-03 0.  1.
    9900012    2    1    2    0    0 -0.35144184734E+02 -0.65693702204E+01 -0.19362220643E+02  0.50528856699E+02  0.29999990422E+02 0.  0.
         12    1    1    2    0    0  0.35144184734E+02  0.65693702204E+01  0.19362220643E+02  0.40659143301E+02  0.00000000000E+00 0. -1.
         11    1    3    3    0    0  0.15433175862E+01  0.10901686647E+01  0.19462489857E+01  0.27125969595E+01  0.51100000000E-03 0. -1.
        -11    1    3    3    0    0 -0.17277413260E+02 -0.13710264541E+02 -0.14410689827E+02  0.26346695130E+02  0.51100000000E-03 0.  1.
        -12    1    3    3    0    0 -0.19410089061E+02  0.60507256555E+01 -0.68977798017E+01  0.21469564609E+02  0.00000000000E+00 0.  1.
</event>
<event>
 7    1  0.2500839E-011  0.5052886E+02  0.7816164E-02  0.1300439E+00
        -11   -1    0    0    0    0  0.00000000000E+00  0.00000000000E+00  0.45593999997E+02  0.45594000000E+02  0.51100000000E-03 0. -1.
         11   -1    0    0    0    0 -0.00000000000E+00 -0.00000000000E+00 -0.45593999997E+02  0.45594000000E+02  0.51100000000E-03 0.  1.
    9900012    2    1    2    0    0  0.35264492649E+02 -0.19169581002E+02 -0.64891069938E+01  0.50528858504E+02  0.29999995910E+02 0.  0.
         12    1    1    2    0    0 -0.35264492649E+02  0.19169581002E+02  0.64891069938E+01  0.40659141496E+02  0.00000000000E+00 0. -1.
         11    1    3    3    0    0  0.62082011170E+01 -0.44441935034E+01  0.81612313081E+01  0.11175791414E+02  0.51100000000E-03 0. -1.
        -11    1    3    3    0    0  0.13939223671E+02 -0.10635643608E+02  0.53175414775E+00  0.17541426232E+02  0.51100000000E-03 0.  1.
         12    1    3    3    0    0  0.15117067860E+02 -0.40897438914E+01 -0.15182092450E+02  0.21811640859E+02  0.00000000000E+00 0. -1.
</event>
<event>
 7    1  0.2500839E-011  0.5052886E+02  0.7816164E-02  0.1300439E+00
        -11   -1    0    0    0    0  0.00000000000E+00  0.00000000000E+00  0.45593999997E+02  0.45594000000E+02  0.51100000000E-03 0.  1.
         11   -1    0    0    0    0 -0.00000000000E+00 -0.00000000000E+00 -0.45593999997E+02  0.45594000000E+02  0.51100000000E-03 0. -1.
    9900012    2    1    2    0    0 -0.34347029985E+02  0.21713350270E+02 -0.14064110324E+01  0.50528855386E+02  0.29999986430E+02 0.  0.
         12    1    1    2    0    0  0.34347029985E+02 -0.21713350270E+02  0.14064110324E+01  0.40659144614E+02  0.00000000000E+00 0. -1.
         11    1    3    3    0    0 -0.11741695850E+02  0.68873340628E+00 -0.64100261705E+01  0.13395156248E+02  0.51100000000E-03 0. -1.
        -11    1    3    3    0    0 -0.17754412338E+02  0.17825774942E+02 -0.49185239880E+01  0.25635313305E+02  0.51100000000E-03 0.  1.
         12    1    3    3    0    0 -0.48509217967E+01  0.31988419221E+01  0.99221391261E+01  0.11498385833E+02  0.00000000000E+00 0. -1.
</event>
<event>
 7    1  0.2500839E-011  0.5052885E+02  0.7816164E-02  0.1300439E+00
        -11   -1    0    0    0    0  0.00000000000E+00  0.00000000000E+00  0.45593999997E+02  0.45594000000E+02  0.51100000000E-03 0.  1.
         11   -1    0    0    0    0 -0.00000000000E+00 -0.00000000000E+00 -0.45593999997E+02  0.45594000000E+02  0.51100000000E-03 0. -1.
    9900012    2    1    2    0    0 -0.12156619388E+02  0.10906774413E+02  0.37234728994E+02  0.50528853842E+02  0.29999981739E+02 0.  0.
         12    1    1    2    0    0  0.12156619388E+02 -0.10906774413E+02 -0.37234728994E+02  0.40659146158E+02  0.00000000000E+00 0. -1.
         11    1    3    3    0    0 -0.12816872765E+02  0.45693909795E+01  0.10213219043E+02  0.17013565319E+02  0.51100000000E-03 0.  1.
        -11    1    3    3    0    0  0.25226502045E+00  0.11352686392E+02  0.81317979647E+01  0.13966863082E+02  0.51100000000E-03 0. -1.
        -12    1    3    3    0    0  0.40798835673E+00 -0.50153029592E+01  0.18889711986E+02  0.19548425440E+02  0.00000000000E+00 0.  1.
</event>
<event>
 7    1  0.2500839E-011  0.5052885E+02  0.7816164E-02  0.1300439E+00
        -11   -1    0    0    0    0  0.00000000000E+00  0.00000000000E+00  0.45593999997E+02  0.45594000000E+02  0.51100000000E-03 0.  1.
         11   -1    0    0    0    0 -0.00000000000E+00 -0.00000000000E+00 -0.45593999997E+02  0.45594000000E+02  0.51100000000E-03 0. -1.
    9900012    2    1    2    0    0  0.37762096136E+02 -0.30470190598E+01  0.14761644026E+02  0.50528851410E+02  0.29999974346E+02 0.  0.
         12    1    1    2    0    0 -0.37762096136E+02  0.30470190598E+01 -0.14761644026E+02  0.40659148590E+02  0.00000000000E+00 0. -1.
         11    1    3    3    0    0  0.10722289626E+02  0.10927659578E+02  0.51401493428E+01  0.16149376898E+02  0.51100000000E-03 0. -1.
        -11    1    3    3    0    0  0.16058825862E+02 -0.19519436666E+01  0.79090586380E+01  0.18006920363E+02  0.51100000000E-03 0.  1.
         12    1    3    3    0    0  0.10980980647E+02 -0.12022734971E+02  0.17124360455E+01  0.16372554149E+02  0.00000000000E+00 0. -1.
</event>
<event>
 7    1  0.2500839E-011  0.5052886E+02  0.7816164E-02  0.1300439E+00
        -11   -1    0    0    0    0  0.00000000000E+00  0.00000000000E+00  0.45593999997E+02  0.45594000000E+02  0.51100000000E-03 0. -1.
         11   -1    0    0    0    0 -0.00000000000E+00 -0.00000000000E+00 -0.45593999997E+02  0.45594000000E+02  0.51100000000E-03 0.  1.
    9900012    2    1    2    0    0  0.28040193148E+01  0.63578332153E+01 -0.40060969202E+02  0.50528858090E+02  0.29999994649E+02 0.  0.
         12    1    1    2    0    0 -0.28040193148E+01 -0.63578332153E+01  0.40060969202E+02  0.40659141910E+02  0.00000000000E+00 0. -1.
         11    1    3    3    0    0  0.12390715257E+02 -0.14424061571E+01 -0.14211037307E+02  0.18909361218E+02  0.51100000000E-03 0. -1.
        -11    1    3    3    0    0 -0.10614389656E+01 -0.34122545785E+01 -0.88383155751E+01  0.95334126342E+01  0.51100000000E-03 0.  1.
         12    1    3    3    0    0 -0.85252569763E+01  0.11212493951E+02 -0.17011616320E+02  0.22086084237E+02  0.00000000000E+00 0. -1.
</event>
<event>
 7    1  0.2500839E-011  0.5052884E+02  0.7816164E-02  0.1300439E+00
        -11   -1    0    0    0    0  0.00000000000E+00  0.00000000000E+00  0.45593999997E+02  0.45594000000E+02  0.51100000000E-03 0.  1.
         11   -1    0    0    0    0 -0.00000000000E+00 -0.00000000000E+00 -0.45593999997E+02  0.45594000000E+02  0.51100000000E-03 0. -1.
    9900012    2    1    2    0    0 -0.14524219796E+02  0.32379616428E+02  0.19843750147E+02  0.50528844320E+02  0.29999952796E+02 0.  0.
         12    1    1    2    0    0  0.14524219796E+02 -0.32379616428E+02 -0.19843750147E+02  0.40659155680E+02  0.00000000000E+00 0. -1.
         11    1    3    3    0    0 -0.62898279146E+01  0.70872270498E+01  0.14095167027E+02  0.16984241409E+02  0.51100000000E-03 0. -1.
        -11    1    3    3    0    0 -0.10760455083E+02  0.93221419600E+01  0.92803970318E+01  0.16994572476E+02  0.51100000000E-03 0.  1.
         12    1    3    3    0    0  0.25260632019E+01  0.15970247418E+02 -0.35318139120E+01  0.16550030435E+02  0.00000000000E+00 0. -1.
</event>
<event>
 7    1  0.2500839E-011  0.5052886E+02  0.7816164E-02  0.1300439E+00
        -11   -1    0    0    0    0  0.00000000000E+00  0.00000000000E+00  0.45593999997E+02  0.45594000000E+02  0.51100000000E-03 0.  1.
         11   -1    0    0    0    0 -0.00000000000E+00 -0.00000000000E+00 -0.45593999997E+02  0.45594000000E+02  0.51100000000E-03 0. -1.
    9900012    2    1    2    0    0  0.25272523078E+02  0.25175023844E+02  0.19511114875E+02  0.50528857708E+02  0.29999993489E+02 0.  0.
         12    1    1    2    0    0 -0.25272523078E+02 -0.25175023844E+02 -0.19511114875E+02  0.40659142292E+02  0.00000000000E+00 0. -1.
         11    1    3    3    0    0  0.96401745753E+01  0.13772226678E+02 -0.34121818491E+01  0.17153722008E+02  0.51100000000E-03 0. -1.
        -11    1    3    3    0    0  0.16844958663E+02  0.52860868834E+01  0.14225069872E+02  0.22672625786E+02  0.51100000000E-03 0.  1.
         12    1    3    3    0    0 -0.12126101602E+01  0.61167102830E+01  0.86982268518E+01  0.10702509914E+02  0.00000000000E+00 0. -1.
</event>
<event>
 7    1  0.2500839E-011  0.5052890E+02  0.7816164E-02  0.1300439E+00
        -11   -1    0    0    0    0  0.00000000000E+00  0.00000000000E+00  0.45593999997E+02  0.45594000000E+02  0.51100000000E-03 0. -1.
         11   -1    0    0    0    0 -0.00000000000E+00 -0.00000000000E+00 -0.45593999997E+02  0.45594000000E+02  0.51100000000E-03 0.  1.
    9900012    2    1    2    0    0  0.37326888339E+02 -0.13531136687E+02 -0.87620809945E+01  0.50528901185E+02  0.30000125641E+02 0.  0.
         12    1    1    2    0    0 -0.37326888339E+02  0.13531136687E+02  0.87620809945E+01  0.40659098815E+02  0.00000000000E+00 0. -1.
         11    1    3    3    0    0  0.39684122690E+01  0.53900611549E+01 -0.72776567333E+01  0.98876358640E+01  0.51100000000E-03 0. -1.
        -11    1    3    3    0    0  0.13131906564E+02 -0.16167522777E+01 -0.42066287057E+01  0.13883680465E+02  0.51100000000E-03 0.  1.
        -12    1    3    3    0    0  0.20226569506E+02 -0.17304445564E+02  0.27222044444E+01  0.26757584856E+02  0.00000000000E+00 0.  1.
</event>
<event>
 7    1  0.2500839E-011  0.5052887E+02  0.7816164E-02  0.1300439E+00
        -11   -1    0    0    0    0  0.00000000000E+00  0.00000000000E+00  0.45593999997E+02  0.45594000000E+02  0.51100000000E-03 0.  1.
         11   -1    0    0    0    0 -0.00000000000E+00 -0.00000000000E+00 -0.45593999997E+02  0.45594000000E+02  0.51100000000E-03 0. -1.
    9900012    2    1    2    0    0  0.34762380209E+02 -0.37660421123E+01  0.20749915220E+02  0.50528866553E+02  0.30000020376E+02 0.  0.
         12    1    1    2    0    0 -0.34762380209E+02  0.37660421123E+01 -0.20749915220E+02  0.40659133447E+02  0.00000000000E+00 0. -1.
         11    1    3    3    0    0  0.20665868693E+02  0.10893301971E+02  0.58183229613E+01  0.24074780144E+02  0.51100000000E-03 0. -1.
        -11    1    3    3    0    0  0.10730233433E+02 -0.54778635961E+01  0.78325601782E+01  0.14369895557E+02  0.51100000000E-03 0.  1.
        -12    1    3    3    0    0  0.33662780828E+01 -0.91814804871E+01  0.70990320807E+01  0.12084190852E+02  0.00000000000E+00 0.  1.
</event>
<event>
 7    1  0.2500839E-011  0.5052886E+02  0.7816164E-02  0.1300439E+00
        -11   -1    0    0    0    0  0.00000000000E+00  0.00000000000E+00  0.45593999997E+02  0.45594000000E+02  0.51100000000E-03 0.  1.
         11   -1    0    0    0    0 -0.00000000000E+00 -0.00000000000E+00 -0.45593999997E+02  0.45594000000E+02  0.51100000000E-03 0. -1.
    9900012    2    1    2    0    0  0.34416097614E+02 -0.21398955938E+01  0.21543411549E+02  0.50528861921E+02  0.30000006295E+02 0.  0.
         12    1    1    2    0    0 -0.34416097614E+02  0.21398955938E+01 -0.21543411549E+02  0.40659138079E+02  0.00000000000E+00 0. -1.
         11    1    3    3    0    0  0.13675974730E+01 -0.53152428683E+01 -0.53110381858E+01  0.76373592602E+01  0.51100000000E-03 0. -1.
        -11    1    3    3    0    0  0.52699948625E+01  0.73413139953E+00  0.25480072411E+01  0.58995030236E+01  0.51100000000E-03 0.  1.
         12    1    3    3    0    0  0.27778505279E+02  0.24412158750E+01  0.24306442494E+02  0.36991999637E+02  0.00000000000E+00 0. -1.
</event>
<event>
 7    1  0.2768267E-011  0.5052885E+02  0.7816164E-02  0.1300439E+00
        -11   -1    0    0    0    0  0.00000000000E+00  0.00000000000E+00  0.45593999997E+02  0.45594000000E+02  0.51100000000E-03 0.  1.
         11   -1    0    0    0    0 -0.00000000000E+00 -0.00000000000E+00 -0.45593999997E+02  0.45594000000E+02  0.51100000000E-03 0. -1.
    9900012    2    1    2    0    0 -0.73110530401E+01 -0.39405260155E+02  0.68513219125E+01  0.50528848061E+02  0.29999964166E+02 0.  0.
         12    1    1    2    0    0  0.73110530401E+01  0.39405260155E+02 -0.68513219125E+01  0.40659151939E+02  0.00000000000E+00 0. -1.
         11    1    3    3    0    0  0.43665389455E+01 -0.17027617431E+01  0.42516138417E+01  0.63278969995E+01  0.51100000000E-03 0. -1.
        -11    1    3    3    0    0 -0.83120622469E+01 -0.23898183640E+01  0.30698260797E+00  0.86542387992E+01  0.51100000000E-03 0.  1.
        -12    1    3    3    0    0 -0.33655297387E+01 -0.35312680048E+02  0.22927254629E+01  0.35546712262E+02  0.00000000000E+00 0.  1.
</event>
<event>
 7    1  0.2500839E-011  0.5052877E+02  0.7816164E-02  0.1300439E+00
        -11   -1    0    0    0    0  0.00000000000E+00  0.00000000000E+00  0.45593999997E+02  0.45594000000E+02  0.51100000000E-03 0. -1.
         11   -1    0    0    0    0 -0.00000000000E+00 -0.00000000000E+00 -0.45593999997E+02  0.45594000000E+02  0.51100000000E-03 0.  1.
    9900012    2    1    2    0    0  0.30890801533E+02  0.24158964886E+02 -0.10736673945E+02  0.50528765242E+02  0.29999712427E+02 0.  0.
         12    1    1    2    0    0 -0.30890801533E+02 -0.24158964886E+02  0.10736673945E+02  0.40659234758E+02  0.00000000000E+00 0. -1.
         11    1    3    3    0    0  0.14776901594E+02  0.15502988694E+02 -0.96754935848E+01  0.23501375609E+02  0.51100000000E-03 0. -1.
        -11    1    3    3    0    0  0.12211635059E+02  0.14470229353E+02  0.26225813783E+01  0.19115164182E+02  0.51100000000E-03 0.  1.
        -12    1    3    3    0    0  0.39022648810E+01 -0.58142531618E+01 -0.36837617385E+01  0.79122254504E+01  0.00000000000E+00 0.  1.
</event>
<event>
 7    1  0.2500839E-011  0.5052884E+02  0.7816164E-02  0.1300439E+00
        -11   -1    0    0    0    0  0.00000000000E+00  0.00000000000E+00  0.45593999997E+02  0.45594000000E+02  0.51100000000E-03 0.  1.
         11   -1    0    0    0    0 -0.00000000000E+00 -0.00000000000E+00 -0.45593999997E+02  0.45594000000E+02  0.51100000000E-03 0. -1.
    9900012    2    1    2    0    0  0.17542422009E+02  0.12775296257E+02  0.34383468683E+02  0.50528835190E+02  0.29999925043E+02 0.  0.
         12    1    1    2    0    0 -0.17542422009E+02 -0.12775296257E+02 -0.34383468683E+02  0.40659164810E+02  0.00000000000E+00 0. -1.
         11    1    3    3    0    0 -0.20052816229E+01  0.10766654883E+02  0.57714385012E+01  0.12379479569E+02  0.51100000000E-03 0. -1.
        -11    1    3    3    0    0  0.28612467942E+01 -0.12470251320E+01 -0.15810769584E+01  0.34988011528E+01  0.51100000000E-03 0.  1.
         12    1    3    3    0    0  0.16686456838E+02  0.32556665055E+01  0.30193107140E+02  0.34650554468E+02  0.00000000000E+00 0. -1.
</event>
<event>
 7    1  0.2500839E-011  0.5052885E+02  0.7816164E-02  0.1300439E+00
        -11   -1    0    0    0    0  0.00000000000E+00  0.00000000000E+00  0.45593999997E+02  0.45594000000E+02  0.51100000000E-03 0.  1.
         11   -1    0    0    0    0 -0.00000000000E+00 -0.00000000000E+00 -0.45593999997E+02  0.45594000000E+02  0.51100000000E-03 0. -1.
    9900012    2    1    2    0    0  0.76677637826E+01  0.39583843600E+02  0.52431733744E+01  0.50528854133E+02  0.29999982622E+02 0.  0.
         12    1    1    2    0    0 -0.76677637826E+01 -0.39583843600E+02 -0.52431733744E+01  0.40659145867E+02  0.00000000000E+00 0. -1.
         11    1    3    3    0    0  0.78872640403E+01  0.30946574544E+02  0.15250604444E+01  0.31972257031E+02  0.51100000000E-03 0.  1.
        -11    1    3    3    0    0  0.42351740244E+01  0.59473836015E+01  0.86964200342E+01  0.11354989757E+02  0.51100000000E-03 0. -1.
        -12    1    3    3    0    0 -0.44546742821E+01  0.26898854554E+01 -0.49783071042E+01  0.72016073446E+01  0.00000000000E+00 0.  1.
</event>
<event>
 7    1  0.2500839E-011  0.5052886E+02  0.7816164E-02  0.1300439E+00
        -11   -1    0    0    0    0  0.00000000000E+00  0.00000000000E+00  0.45593999997E+02  0.45594000000E+02  0.51100000000E-03 0.  1.
         11   -1    0    0    0    0 -0.00000000000E+00 -0.00000000000E+00 -0.45593999997E+02  0.45594000000E+02  0.51100000000E-03 0. -1.
    9900012    2    1    2    0    0  0.37399415624E+02  0.14954566746E+02 -0.55506876464E+01  0.50528862171E+02  0.30000007056E+02 0.  0.
         12    1    1    2    0    0 -0.37399415624E+02 -0.14954566746E+02  0.55506876464E+01  0.40659137829E+02  0.00000000000E+00 0. -1.
         11    1    3    3    0    0 -0.35683267153E+00  0.49260813241E+01 -0.39290757784E+01  0.63111998464E+01  0.51100000000E-03 0. -1.
        -11    1    3    3    0    0  0.15474970975E+02  0.14780308917E+02 -0.41459152894E+00  0.21403367603E+02  0.51100000000E-03 0.  1.
         12    1    3    3    0    0  0.22281277321E+02 -0.47518234941E+01 -0.12070203391E+01  0.22814294722E+02  0.00000000000E+00 0. -1.
</event>
<event>
 7    1  0.2500839E-011  0.5052885E+02  0.7816164E-02  0.1300439E+00
        -11   -1    0    0    0    0  0.00000000000E+00  0.00000000000E+00  0.45593999997E+02  0.45594000000E+02  0.51100000000E-03 0.  1.
         11   -1    0    0    0    0 -0.00000000000E+00 -0.00000000000E+00 -0.45593999997E+02  0.45594000000E+02  0.51100000000E-03 0. -1.
    9900012    2    1    2    0    0  0.84946083435E+01  0.27261939360E+02  0.28944679143E+02  0.50528853928E+02  0.29999982000E+02 0.  0.
         12    1    1    2    0    0 -0.84946083435E+01 -0.27261939360E+02 -0.28944679143E+02  0.40659146072E+02  0.00000000000E+00 0. -1.
         11    1    3    3    0    0  0.57379678739E+01  0.81924321371E+01  0.32426456355E+00  0.10007265731E+02  0.51100000000E-03 0. -1.
        -11    1    3    3    0    0 -0.68288913411E+01  0.13993927472E+02  0.86926763883E+01  0.17833294314E+02  0.51100000000E-03 0.  1.
        -12    1    3    3    0    0  0.95855318107E+01  0.50755797513E+01  0.19927738192E+02  0.22688293883E+02  0.00000000000E+00 0.  1.
</event>
<event>
 7    1  0.2500839E-011  0.5052885E+02  0.7816164E-02  0.1300439E+00
        -11   -1    0    0    0    0  0.00000000000E+00  0.00000000000E+00  0.45593999997E+02  0.45594000000E+02  0.51100000000E-03 0. -1.
         11   -1    0    0    0    0 -0.00000000000E+00 -0.00000000000E+00 -0.45593999997E+02  0.45594000000E+02  0.51100000000E-03 0.  1.
    9900012    2    1    2    0    0 -0.33513308983E+02 -0.51033379663E+01 -0.22449512260E+02  0.50528849270E+02  0.29999967840E+02 0.  0.
         12    1    1    2    0    0  0.33513308983E+02  0.51033379663E+01  0.22449512260E+02  0.40659150730E+02  0.00000000000E+00 0. -1.
         11    1    3    3    0    0 -0.36217326397E+01 -0.10199663422E+02 -0.23455467497E+01  0.11074821491E+02  0.51100000000E-03 0. -1.
        -11    1    3    3    0    0 -0.80191153691E+01 -0.53997955730E+01 -0.51289176226E+01  0.10943938951E+02  0.51100000000E-03 0.  1.
        -12    1    3    3    0    0 -0.21872460974E+02  0.10496121029E+02 -0.14975047887E+02  0.28510088828E+02  0.00000000000E+00 0.  1.
</event>
<event>
 7    1  0.2500839E-011  0.5052886E+02  0.7816164E-02  0.1300439E+00
        -11   -1    0    0    0    0  0.00000000000E+00  0.00000000000E+00  0.45593999997E+02  0.45594000000E+02  0.51100000000E-03 0.  1.
         11   -1    0    0    0    0 -0.00000000000E+00 -0.00000000000E+00 -0.45593999997E+02  0.45594000000E+02  0.51100000000E-03 0. -1.
    9900012    2    1    2    0    0  0.13418221147E+01 -0.37817730907E+02 -0.14872269856E+02  0.50528859967E+02  0.30000000355E+02 0.  0.
         12    1    1    2    0    0 -0.13418221147E+01  0.37817730907E+02  0.14872269856E+02  0.40659140033E+02  0.00000000000E+00 0. -1.
         11    1    3    3    0    0  0.30921546187E+00 -0.10736216319E+01 -0.51751408477E+01  0.52943706580E+01  0.51100000000E-03 0. -1.
        -11    1    3    3    0    0  0.86351983992E+01 -0.24520682071E+01 -0.30917385767E+01  0.94941106784E+01  0.51100000000E-03 0.  1.
        -12    1    3    3    0    0 -0.76025917464E+01 -0.34292041068E+02 -0.66053904312E+01  0.35740378630E+02  0.00000000000E+00 0.  1.
</event>
<event>
 7    1  0.2500839E-011  0.5052886E+02  0.7816164E-02  0.1300439E+00
        -11   -1    0    0    0    0  0.00000000000E+00  0.00000000000E+00  0.45593999997E+02  0.45594000000E+02  0.51100000000E-03 0.  1.
         11   -1    0    0    0    0 -0.00000000000E+00 -0.00000000000E+00 -0.45593999997E+02  0.45594000000E+02  0.51100000000E-03 0. -1.
    9900012    2    1    2    0    0 -0.23766213543E+02 -0.21418230676E+02  0.25091674574E+02  0.50528860260E+02  0.30000001247E+02 0.  0.
         12    1    1    2    0    0  0.23766213543E+02  0.21418230676E+02 -0.25091674574E+02  0.40659139740E+02  0.00000000000E+00 0. -1.
         11    1    3    3    0    0 -0.31833123527E+00 -0.92081793622E+01  0.69782609597E+01  0.11558028734E+02  0.51100000000E-03 0. -1.
        -11    1    3    3    0    0  0.28967649784E+01 -0.66285861793E+01  0.61861057503E+01  0.95182617474E+01  0.51100000000E-03 0.  1.
         12    1    3    3    0    0 -0.26344647286E+02 -0.55814651343E+01  0.11927307864E+02  0.29452569778E+02  0.00000000000E+00 0. -1.
</event>
<event>
 7    1  0.2500839E-011  0.5052887E+02  0.7816164E-02  0.1300439E+00
        -11   -1    0    0    0    0  0.00000000000E+00  0.00000000000E+00  0.45593999997E+02  0.45594000000E+02  0.51100000000E-03 0.  1.
         11   -1    0    0    0    0 -0.00000000000E+00 -0.00000000000E+00 -0.45593999997E+02  0.45594000000E+02  0.51100000000E-03 0. -1.
    9900012    2    1    2    0    0  0.14209263650E+02 -0.27658822052E+01  0.37994893578E+02  0.50528865530E+02  0.30000017266E+02 0.  0.
         12    1    1    2    0    0 -0.14209263650E+02  0.27658822052E+01 -0.37994893578E+02  0.40659134470E+02  0.00000000000E+00 0. -1.
         11    1    3    3    0    0 -0.60987034957E+01  0.34533362816E+01  0.22069725133E+01  0.73478189783E+01  0.51100000000E-03 0. -1.
        -11    1    3    3    0    0  0.19873656592E+01 -0.52745877283E+01  0.63095418104E+01  0.84605683075E+01  0.51100000000E-03 0.  1.
        -12    1    3    3    0    0  0.18320601487E+02 -0.94463075850E+00  0.29478379254E+02  0.34720478245E+02  0.00000000000E+00 0.  1.
</event>
<event>
 7    1  0.2500839E-011  0.5052883E+02  0.7816164E-02  0.1300439E+00
        -11   -1    0    0    0    0  0.00000000000E+00  0.00000000000E+00  0.45593999997E+02  0.45594000000E+02  0.51100000000E-03 0. -1.
         11   -1    0    0    0    0 -0.00000000000E+00 -0.00000000000E+00 -0.45593999997E+02  0.45594000000E+02  0.51100000000E-03 0.  1.
    9900012    2    1    2    0    0 -0.22367171937E+02 -0.24623588167E+02 -0.23378552505E+02  0.50528828932E+02  0.29999906021E+02 0.  0.
         12    1    1    2    0    0  0.22367171937E+02  0.24623588167E+02  0.23378552505E+02  0.40659171068E+02  0.00000000000E+00 0. -1.
         11    1    3    3    0    0  0.42261720082E+01 -0.15068855754E+01 -0.82201088770E+01  0.93649038538E+01  0.51100000000E-03 0. -1.
        -11    1    3    3    0    0 -0.10152928205E+01 -0.60839723026E+01  0.13002194770E+01  0.63036584172E+01  0.51100000000E-03 0.  1.
        -12    1    3    3    0    0 -0.25578051125E+02 -0.17032730289E+02 -0.16458663105E+02  0.34860266661E+02  0.00000000000E+00 0.  1.
</event>
<event>
 7    1  0.2500839E-011  0.5052887E+02  0.7816164E-02  0.1300439E+00
        -11   -1    0    0    0    0  0.00000000000E+00  0.00000000000E+00  0.45593999997E+02  0.45594000000E+02  0.51100000000E-03 0.  1.
         11   -1    0    0    0    0 -0.00000000000E+00 -0.00000000000E+00 -0.45593999997E+02  0.45594000000E+02  0.51100000000E-03 0. -1.
    9900012    2    1    2    0    0  0.38542222637E+02 -0.85588502914E+01  0.97163677683E+01  0.50528872528E+02  0.30000038537E+02 0.  0.
         12    1    1    2    0    0 -0.38542222637E+02  0.85588502914E+01 -0.97163677683E+01  0.40659127472E+02  0.00000000000E+00 0. -1.
         11    1    3    3    0    0  0.29079683138E+02 -0.22381090887E+01  0.74072927435E+01  0.30091611618E+02  0.51100000000E-03 0.  1.
        -11    1    3    3    0    0  0.78451091551E+01 -0.79137150115E+01  0.83885389986E+01  0.13947767195E+02  0.51100000000E-03 0. -1.
        -12    1    3    3    0    0  0.16174303442E+01  0.15929738088E+01 -0.60794639738E+01  0.64894937154E+01  0.00000000000E+00 0.  1.
</event>
<event>
 7    1  0.2500839E-011  0.5052887E+02  0.7816164E-02  0.1300439E+00
        -11   -1    0    0    0    0  0.00000000000E+00  0.00000000000E+00  0.45593999997E+02  0.45594000000E+02  0.51100000000E-03 0. -1.
         11   -1    0    0    0    0 -0.00000000000E+00 -0.00000000000E+00 -0.45593999997E+02  0.45594000000E+02  0.51100000000E-03 0.  1.
    9900012    2    1    2    0    0 -0.30608330435E+02 -0.26611263005E+02  0.28523513835E+01  0.50528866719E+02  0.30000020880E+02 0.  0.
         12    1    1    2    0    0  0.30608330435E+02  0.26611263005E+02 -0.28523513835E+01  0.40659133281E+02  0.00000000000E+00 0. -1.
         11    1    3    3    0    0 -0.78892254505E+01 -0.99848908070E+01  0.64832404415E+01  0.14281818145E+02  0.51100000000E-03 0. -1.
        -11    1    3    3    0    0 -0.25780974771E+02 -0.18569423721E+02 -0.53737933922E+01  0.32223590941E+02  0.51100000000E-03 0.  1.
         12    1    3    3    0    0  0.30618697864E+01  0.19430515233E+01  0.17429043342E+01  0.40234576336E+01  0.00000000000E+00 0. -1.
</event>
<event>
 7    1  0.2500839E-011  0.5052886E+02  0.7816164E-02  0.1300439E+00
        -11   -1    0    0    0    0  0.00000000000E+00  0.00000000000E+00  0.45593999997E+02  0.45594000000E+02  0.51100000000E-03 0.  1.
         11   -1    0    0    0    0 -0.00000000000E+00 -0.00000000000E+00 -0.45593999997E+02  0.45594000000E+02  0.51100000000E-03 0. -1.
    9900012    2    1    2    0    0  0.97714982015E+01 -0.29538183468E+02  0.26175923159E+02  0.50528863106E+02  0.30000009898E+02 0.  0.
         12    1    1    2    0    0 -0.97714982015E+01  0.29538183468E+02 -0.26175923159E+02  0.40659136894E+02  0.00000000000E+00 0. -1.
         11    1    3    3    0    0 -0.36604435529E+01 -0.58682808261E+01  0.10228129692E+02  0.12347072694E+02  0.51100000000E-03 0. -1.
        -11    1    3    3    0    0  0.10332944579E+02 -0.19616566264E+01  0.11902307965E+02  0.15883411962E+02  0.51100000000E-03 0.  1.
        -12    1    3    3    0    0  0.30989971755E+01 -0.21708246015E+02  0.40454855020E+01  0.22298378450E+02  0.00000000000E+00 0.  1.
</event>
<event>
 7    1  0.2500839E-011  0.5052886E+02  0.7816164E-02  0.1300439E+00
        -11   -1    0    0    0    0  0.00000000000E+00  0.00000000000E+00  0.45593999997E+02  0.45594000000E+02  0.51100000000E-03 0. -1.
         11   -1    0    0    0    0 -0.00000000000E+00 -0.00000000000E+00 -0.45593999997E+02  0.45594000000E+02  0.51100000000E-03 0.  1.
    9900012    2    1    2    0    0 -0.11157060032E+02 -0.18580907538E+02 -0.34401094421E+02  0.50528863132E+02  0.30000009976E+02 0.  0.
         12    1    1    2    0    0  0.11157060032E+02  0.18580907538E+02  0.34401094421E+02  0.40659136868E+02  0.00000000000E+00 0. -1.
         11    1    3    3    0    0 -0.44442241168E+01 -0.10915613880E+01  0.22190913144E+01  0.50859611468E+01  0.51100000000E-03 0. -1.
        -11    1    3    3    0    0 -0.61586088049E+01 -0.58195743453E+01 -0.31618804907E+02  0.32734457869E+02  0.51100000000E-03 0.  1.
         12    1    3    3    0    0 -0.55422711015E+00 -0.11669771805E+02 -0.50013808286E+01  0.12708444117E+02  0.00000000000E+00 0. -1.
</event>
<event>
 7    1  0.2500839E-011  0.5052886E+02  0.7816164E-02  0.1300439E+00
        -11   -1    0    0    0    0  0.00000000000E+00  0.00000000000E+00  0.45593999997E+02  0.45594000000E+02  0.51100000000E-03 0.  1.
         11   -1    0    0    0    0 -0.00000000000E+00 -0.00000000000E+00 -0.45593999997E+02  0.45594000000E+02  0.51100000000E-03 0. -1.
    9900012    2    1    2    0    0 -0.32407127751E+01  0.32323772867E+02  0.24450712725E+02  0.50528857554E+02  0.29999993021E+02 0.  0.
         12    1    1    2    0    0  0.32407127751E+01 -0.32323772867E+02 -0.24450712725E+02  0.40659142446E+02  0.00000000000E+00 0. -1.
         11    1    3    3    0    0  0.11218008143E+02  0.12995560341E+02  0.30366176373E+01  0.17434143002E+02  0.51100000000E-03 0. -1.
        -11    1    3    3    0    0 -0.27410182682E+01  0.82499887256E+01  0.10457678904E+02  0.13599211133E+02  0.51100000000E-03 0.  1.
        -12    1    3    3    0    0 -0.11717702650E+02  0.11078223801E+02  0.10956416184E+02  0.19495503419E+02  0.00000000000E+00 0.  1.
</event>
<event>
 7    1  0.2500839E-011  0.5052886E+02  0.7816164E-02  0.1300439E+00
        -11   -1    0    0    0    0  0.00000000000E+00  0.00000000000E+00  0.45593999997E+02  0.45594000000E+02  0.51100000000E-03 0. -1.
         11   -1    0    0    0    0 -0.00000000000E+00 -0.00000000000E+00 -0.45593999997E+02  0.45594000000E+02  0.51100000000E-03 0.  1.
    9900012    2    1    2    0    0  0.29950658834E+02 -0.19297010001E+02  0.19589509292E+02  0.50528862849E+02  0.30000009117E+02 0.  0.
         12    1    1    2    0    0 -0.29950658834E+02  0.19297010001E+02 -0.19589509292E+02  0.40659137151E+02  0.00000000000E+00 0. -1.
         11    1    3    3    0    0  0.24670347441E+02 -0.15784716082E+02  0.19681197327E+02  0.35286439791E+02  0.51100000000E-03 0. -1.
        -11    1    3    3    0    0 -0.36424422582E+01 -0.24655265564E+01  0.34454404207E+01  0.55872414265E+01  0.51100000000E-03 0.  1.
        -12    1    3    3    0    0  0.89227536508E+01 -0.10467673621E+01 -0.35371284557E+01  0.96551816314E+01  0.00000000000E+00 0.  1.
</event>
<event>
 7    1  0.2500839E-011  0.5052888E+02  0.7816164E-02  0.1300439E+00
        -11   -1    0    0    0    0  0.00000000000E+00  0.00000000000E+00  0.45593999997E+02  0.45594000000E+02  0.51100000000E-03 0. -1.
         11   -1    0    0    0    0 -0.00000000000E+00 -0.00000000000E+00 -0.45593999997E+02  0.45594000000E+02  0.51100000000E-03 0.  1.
    9900012    2    1    2    0    0  0.31294122220E+02 -0.17008613236E+02 -0.19609924933E+02  0.50528878445E+02  0.30000056522E+02 0.  0.
         12    1    1    2    0    0 -0.31294122220E+02  0.17008613236E+02  0.19609924933E+02  0.40659121555E+02  0.00000000000E+00 0. -1.
         11    1    3    3    0    0  0.23656081034E+01 -0.71829645980E+01  0.11773031453E+01  0.76535694334E+01  0.51100000000E-03 0. -1.
        -11    1    3    3    0    0  0.15479322153E+02 -0.29232652633E+01  0.16302437798E+01  0.15837063780E+02  0.51100000000E-03 0.  1.
        -12    1    3    3    0    0  0.13449191963E+02 -0.69023833747E+01 -0.22417471858E+02  0.27038245232E+02  0.00000000000E+00 0.  1.
</event>
<event>
 7    1  0.2500839E-011  0.5052886E+02  0.7816164E-02  0.1300439E+00
        -11   -1    0    0    0    0  0.00000000000E+00  0.00000000000E+00  0.45593999997E+02  0.45594000000E+02  0.51100000000E-03 0.  1.
         11   -1    0    0    0    0 -0.00000000000E+00 -0.00000000000E+00 -0.45593999997E+02  0.45594000000E+02  0.51100000000E-03 0. -1.
    9900012    2    1    2    0    0  0.14902357703E+02 -0.74477858890E+01  0.37089299268E+02  0.50528857118E+02  0.29999991696E+02 0.  0.
         12    1    1    2    0    0 -0.14902357703E+02  0.74477858890E+01 -0.37089299268E+02  0.40659142882E+02  0.00000000000E+00 0. -1.
         11    1    3    3    0    0 -0.12020619956E+01 -0.41200192558E+01 -0.18916004229E+01  0.46901667487E+01  0.51100000000E-03 0. -1.
        -11    1    3    3    0    0  0.10683176136E+02 -0.16106096691E+01  0.59741350030E+01  0.12345631015E+02  0.51100000000E-03 0.  1.
        -12    1    3    3    0    0  0.54212435626E+01 -0.17171569640E+01  0.33006764687E+02  0.33493059355E+02  0.00000000000E+00 0.  1.
</event>
<event>
 7    1  0.2500839E-011  0.5052886E+02  0.7816164E-02  0.1300439E+00
        -11   -1    0    0    0    0  0.00000000000E+00  0.00000000000E+00  0.45593999997E+02  0.45594000000E+02  0.51100000000E-03 0.  1.
         11   -1    0    0    0    0 -0.00000000000E+00 -0.00000000000E+00 -0.45593999997E+02  0.45594000000E+02  0.51100000000E-03 0. -1.
    9900012    2    1    2    0    0 -0.25922136697E+02 -0.30078174603E+02  0.87471052896E+01  0.50528860691E+02  0.30000002556E+02 0.  0.
         12    1    1    2    0    0  0.25922136697E+02  0.30078174603E+02 -0.87471052896E+01  0.40659139309E+02  0.00000000000E+00 0. -1.
         11    1    3    3    0    0 -0.15773991472E+02 -0.16229500868E+02  0.24646497554E+01  0.22765983486E+02  0.51100000000E-03 0. -1.
        -11    1    3    3    0    0 -0.79032846286E+01 -0.13874935740E+02  0.13056574840E+02  0.20626436835E+02  0.51100000000E-03 0.  1.
         12    1    3    3    0    0 -0.22448605966E+01  0.26262005159E-01 -0.67741193053E+01  0.71364403700E+01  0.00000000000E+00 0. -1.
</event>
<event>
 7    1  0.2500839E-011  0.5052897E+02  0.7816164E-02  0.1300438E+00
        -11   -1    0    0    0    0  0.00000000000E+00  0.00000000000E+00  0.45593999997E+02  0.45594000000E+02  0.51100000000E-03 0.  1.
         11   -1    0    0    0    0 -0.00000000000E+00 -0.00000000000E+00 -0.45593999997E+02  0.45594000000E+02  0.51100000000E-03 0. -1.
    9900012    2    1    2    0    0 -0.17506316181E+02  0.32733797450E+02  0.16588667160E+02  0.50528972959E+02  0.30000343805E+02 0.  0.
         12    1    1    2    0    0  0.17506316181E+02 -0.32733797450E+02 -0.16588667160E+02  0.40659027041E+02  0.00000000000E+00 0. -1.
         11    1    3    3    0    0 -0.10416736112E+02  0.84674852066E+01  0.16375746644E+01  0.13523621852E+02  0.51100000000E-03 0. -1.
        -11    1    3    3    0    0 -0.73886745453E+01  0.27440707849E+02  0.17094577037E+02  0.33163376232E+02  0.51100000000E-03 0.  1.
         12    1    3    3    0    0  0.29909447654E+00 -0.31743956049E+01 -0.21434845413E+01  0.38419748751E+01  0.00000000000E+00 0. -1.
</event>
<event>
 7    1  0.2500839E-011  0.5052886E+02  0.7816164E-02  0.1300439E+00
        -11   -1    0    0    0    0  0.00000000000E+00  0.00000000000E+00  0.45593999997E+02  0.45594000000E+02  0.51100000000E-03 0.  1.
         11   -1    0    0    0    0 -0.00000000000E+00 -0.00000000000E+00 -0.45593999997E+02  0.45594000000E+02  0.51100000000E-03 0. -1.
    9900012    2    1    2    0    0  0.42706294742E+01 -0.39126362294E+02  0.10200758500E+02  0.50528856177E+02  0.29999988836E+02 0.  0.
         12    1    1    2    0    0 -0.42706294742E+01  0.39126362294E+02 -0.10200758500E+02  0.40659143823E+02  0.00000000000E+00 0. -1.
         11    1    3    3    0    0 -0.20007137682E+01 -0.14515353390E+02  0.13096738145E+02  0.19652554285E+02  0.51100000000E-03 0. -1.
        -11    1    3    3    0    0  0.11229807480E+02 -0.91162745296E+01 -0.10307617268E+01  0.14500948498E+02  0.51100000000E-03 0.  1.
        -12    1    3    3    0    0 -0.49584642377E+01 -0.15494734374E+02 -0.18652179179E+01  0.16375353395E+02  0.00000000000E+00 0.  1.
</event>
<event>
 7    1  0.2500839E-011  0.5052886E+02  0.7816164E-02  0.1300439E+00
        -11   -1    0    0    0    0  0.00000000000E+00  0.00000000000E+00  0.45593999997E+02  0.45594000000E+02  0.51100000000E-03 0. -1.
         11   -1    0    0    0    0 -0.00000000000E+00 -0.00000000000E+00 -0.45593999997E+02  0.45594000000E+02  0.51100000000E-03 0.  1.
    9900012    2    1    2    0    0  0.60147140099E+01  0.38161223262E+02 -0.12677148339E+02  0.50528857911E+02  0.29999994105E+02 0.  0.
         12    1    1    2    0    0 -0.60147140099E+01 -0.38161223262E+02  0.12677148339E+02  0.40659142089E+02  0.00000000000E+00 0. -1.
         11    1    3    3    0    0 -0.14678901213E+01  0.11992649239E+02  0.90270126829E+01  0.15081952639E+02  0.51100000000E-03 0. -1.
        -11    1    3    3    0    0  0.25788900087E+01  0.10537677352E+02 -0.46623986526E+01  0.11808102265E+02  0.51100000000E-03 0.  1.
        -12    1    3    3    0    0  0.49037141226E+01  0.15630896671E+02 -0.17041762369E+02  0.23638803007E+02  0.00000000000E+00 0.  1.
</event>
<event>
 7    1  0.2500839E-011  0.5052886E+02  0.7816164E-02  0.1300439E+00
        -11   -1    0    0    0    0  0.00000000000E+00  0.00000000000E+00  0.45593999997E+02  0.45594000000E+02  0.51100000000E-03 0.  1.
         11   -1    0    0    0    0 -0.00000000000E+00 -0.00000000000E+00 -0.45593999997E+02  0.45594000000E+02  0.51100000000E-03 0. -1.
    9900012    2    1    2    0    0 -0.27217655900E+02 -0.28703309648E+02  0.94066310475E+01  0.50528862219E+02  0.30000007201E+02 0.  0.
         12    1    1    2    0    0  0.27217655900E+02  0.28703309648E+02 -0.94066310475E+01  0.40659137781E+02  0.00000000000E+00 0. -1.
         11    1    3    3    0    0  0.14281666476E+01 -0.15085192701E+02  0.24502651308E+01  0.15349478763E+02  0.51100000000E-03 0. -1.
        -11    1    3    3    0    0 -0.51354504833E+01 -0.10999118349E+01  0.67381148100E+01  0.85431170637E+01  0.51100000000E-03 0.  1.
         12    1    3    3    0    0 -0.23510372064E+02 -0.12518205112E+02  0.21825110674E+00  0.26636266393E+02  0.00000000000E+00 0. -1.
</event>
<event>
 7    1  0.2500839E-011  0.5052886E+02  0.7816164E-02  0.1300439E+00
        -11   -1    0    0    0    0  0.00000000000E+00  0.00000000000E+00  0.45593999997E+02  0.45594000000E+02  0.51100000000E-03 0.  1.
         11   -1    0    0    0    0 -0.00000000000E+00 -0.00000000000E+00 -0.45593999997E+02  0.45594000000E+02  0.51100000000E-03 0. -1.
    9900012    2    1    2    0    0  0.44127158136E+01  0.18010404365E+02  0.36184508935E+02  0.50528863104E+02  0.30000009892E+02 0.  0.
         12    1    1    2    0    0 -0.44127158136E+01 -0.18010404365E+02 -0.36184508935E+02  0.40659136896E+02  0.00000000000E+00 0. -1.
         11    1    3    3    0    0 -0.10555806820E+01  0.14177116075E+02  0.11732793998E+02  0.18432670074E+02  0.51100000000E-03 0. -1.
        -11    1    3    3    0    0  0.11007294359E+02  0.76412408237E+01  0.12198897110E+02  0.18120766579E+02  0.51100000000E-03 0.  1.
         12    1    3    3    0    0 -0.55389978638E+01 -0.38079525334E+01  0.12252817826E+02  0.13975426452E+02  0.00000000000E+00 0. -1.
</event>
<event>
 7    1  0.2500839E-011  0.5052886E+02  0.7816164E-02  0.1300439E+00
        -11   -1    0    0    0    0  0.00000000000E+00  0.00000000000E+00  0.45593999997E+02  0.45594000000E+02  0.51100000000E-03 0.  1.
         11   -1    0    0    0    0 -0.00000000000E+00 -0.00000000000E+00 -0.45593999997E+02  0.45594000000E+02  0.51100000000E-03 0. -1.
    9900012    2    1    2    0    0 -0.98531879835E+01  0.22099080963E+02  0.32675847270E+02  0.50528859728E+02  0.29999999629E+02 0.  0.
         12    1    1    2    0    0  0.98531879835E+01 -0.22099080963E+02 -0.32675847270E+02  0.40659140272E+02  0.00000000000E+00 0. -1.
         11    1    3    3    0    0 -0.14439089441E+02  0.69247303662E+01  0.11540394656E+02  0.19738791847E+02  0.51100000000E-03 0. -1.
        -11    1    3    3    0    0 -0.44224794654E+00  0.31938781063E+01 -0.23228448457E+01  0.39739211168E+01  0.51100000000E-03 0.  1.
        -12    1    3    3    0    0  0.50281494038E+01  0.11980472490E+02  0.23458297460E+02  0.26816146764E+02  0.00000000000E+00 0.  1.
</event>
<event>
 7    1  0.2500839E-011  0.5052886E+02  0.7816164E-02  0.1300439E+00
        -11   -1    0    0    0    0  0.00000000000E+00  0.00000000000E+00  0.45593999997E+02  0.45594000000E+02  0.51100000000E-03 0. -1.
         11   -1    0    0    0    0 -0.00000000000E+00 -0.00000000000E+00 -0.45593999997E+02  0.45594000000E+02  0.51100000000E-03 0.  1.
    9900012    2    1    2    0    0  0.28550209815E+02  0.22821038989E+02 -0.17811546319E+02  0.50528862242E+02  0.30000007269E+02 0.  0.
         12    1    1    2    0    0 -0.28550209815E+02 -0.22821038989E+02  0.17811546319E+02  0.40659137758E+02  0.00000000000E+00 0. -1.
         11    1    3    3    0    0 -0.37145310469E+01  0.16634915122E+01 -0.57070074118E+00  0.41098229288E+01  0.51100000000E-03 0. -1.
        -11    1    3    3    0    0  0.13827227632E+02  0.17180268672E+01  0.10584326970E+01  0.13973693868E+02  0.51100000000E-03 0.  1.
        -12    1    3    3    0    0  0.18437513230E+02  0.19439520610E+02 -0.18299278274E+02  0.32445345444E+02  0.00000000000E+00 0.  1.
</event>
<event>
 7    1  0.2500839E-011  0.5052886E+02  0.7816164E-02  0.1300439E+00
        -11   -1    0    0    0    0  0.00000000000E+00  0.00000000000E+00  0.45593999997E+02  0.45594000000E+02  0.51100000000E-03 0. -1.
         11   -1    0    0    0    0 -0.00000000000E+00 -0.00000000000E+00 -0.45593999997E+02  0.45594000000E+02  0.51100000000E-03 0.  1.
    9900012    2    1    2    0    0  0.12490498623E+02  0.16592917047E+02 -0.34954656326E+02  0.50528862640E+02  0.30000008481E+02 0.  0.
         12    1    1    2    0    0 -0.12490498623E+02 -0.16592917047E+02  0.34954656326E+02  0.40659137360E+02  0.00000000000E+00 0. -1.
         11    1    3    3    0    0  0.68204339175E+01 -0.39055895664E+01 -0.70181616480E+01  0.10536913299E+02  0.51100000000E-03 0. -1.
        -11    1    3    3    0    0  0.29953046861E+01  0.57916149617E+01  0.17528720837E+01  0.67518304800E+01  0.51100000000E-03 0.  1.
        -12    1    3    3    0    0  0.26747600194E+01  0.14706891652E+02 -0.29689366762E+02  0.33240118862E+02  0.00000000000E+00 0.  1.
</event>
<event>
 7    1  0.2500839E-011  0.5052885E+02  0.7816164E-02  0.1300439E+00
        -11   -1    0    0    0    0  0.00000000000E+00  0.00000000000E+00  0.45593999997E+02  0.45594000000E+02  0.51100000000E-03 0.  1.
         11   -1    0    0    0    0 -0.00000000000E+00 -0.00000000000E+00 -0.45593999997E+02  0.45594000000E+02  0.51100000000E-03 0. -1.
    9900012    2    1    2    0    0  0.32791180689E+02 -0.15918872779E+02  0.18013719581E+02  0.50528854231E+02  0.29999982919E+02 0.  0.
         12    1    1    2    0    0 -0.32791180689E+02  0.15918872779E+02 -0.18013719581E+02  0.40659145769E+02  0.00000000000E+00 0. -1.
         11    1    3    3    0    0  0.11384320687E+02 -0.17698481206E+02  0.70668761084E+01  0.22198642587E+02  0.51100000000E-03 0. -1.
        -11    1    3    3    0    0  0.14330182277E+02 -0.58425843583E+01  0.45951100657E+01  0.16143263389E+02  0.51100000000E-03 0.  1.
         12    1    3    3    0    0  0.70766777251E+01  0.76221927855E+01  0.63517334071E+01  0.12186948255E+02  0.00000000000E+00 0. -1.
</event>
<event>
 7    1  0.2500839E-011  0.5052886E+02  0.7816164E-02  0.1300439E+00
        -11   -1    0    0    0    0  0.00000000000E+00  0.00000000000E+00  0.45593999997E+02  0.45594000000E+02  0.51100000000E-03 0. -1.
         11   -1    0    0    0    0 -0.00000000000E+00 -0.00000000000E+00 -0.45593999997E+02  0.45594000000E+02  0.51100000000E-03 0.  1.
    9900012    2    1    2    0    0 -0.12719862057E+02 -0.34091774190E+02 -0.18141713149E+02  0.50528859403E+02  0.29999998640E+02 0.  0.
         12    1    1    2    0    0  0.12719862057E+02  0.34091774190E+02  0.18141713149E+02  0.40659140597E+02  0.00000000000E+00 0. -1.
         11    1    3    3    0    0 -0.12623753247E+02 -0.26687442765E+01 -0.51095916433E+01  0.13877653587E+02  0.51100000000E-03 0. -1.
        -11    1    3    3    0    0 -0.47058500213E+01 -0.13719437156E+02 -0.11082940525E+02  0.18253754442E+02  0.51100000000E-03 0.  1.
        -12    1    3    3    0    0  0.46097412113E+01 -0.17703592757E+02 -0.19491809809E+01  0.18397451373E+02  0.00000000000E+00 0.  1.
</event>
<event>
 7    1  0.2500839E-011  0.5052886E+02  0.7816164E-02  0.1300439E+00
        -11   -1    0    0    0    0  0.00000000000E+00  0.00000000000E+00  0.45593999997E+02  0.45594000000E+02  0.51100000000E-03 0.  1.
         11   -1    0    0    0    0 -0.00000000000E+00 -0.00000000000E+00 -0.45593999997E+02  0.45594000000E+02  0.51100000000E-03 0. -1.
    9900012    2    1    2    0    0  0.28424336378E+01 -0.28706353611E+02  0.28653643109E+02  0.50528862896E+02  0.30000009259E+02 0.  0.
         12    1    1    2    0    0 -0.28424336378E+01  0.28706353611E+02 -0.28653643109E+02  0.40659137104E+02  0.00000000000E+00 0. -1.
         11    1    3    3    0    0 -0.68601288927E+01 -0.33417391517E+01  0.48724455829E+01  0.90536906951E+01  0.51100000000E-03 0. -1.
        -11    1    3    3    0    0 -0.18643780260E+01 -0.15153116249E+02  0.29462653007E+01  0.15549061610E+02  0.51100000000E-03 0.  1.
         12    1    3    3    0    0  0.11566940557E+02 -0.10211498211E+02  0.20834932225E+02  0.25926110591E+02  0.00000000000E+00 0. -1.
</event>
<event>
 7    1  0.2500839E-011  0.5052886E+02  0.7816164E-02  0.1300439E+00
        -11   -1    0    0    0    0  0.00000000000E+00  0.00000000000E+00  0.45593999997E+02  0.45594000000E+02  0.51100000000E-03 0.  1.
         11   -1    0    0    0    0 -0.00000000000E+00 -0.00000000000E+00 -0.45593999997E+02  0.45594000000E+02  0.51100000000E-03 0. -1.
    9900012    2    1    2    0    0 -0.23771378950E+02  0.31084323269E+02 -0.11038669371E+02  0.50528857956E+02  0.29999994243E+02 0.  0.
         12    1    1    2    0    0  0.23771378950E+02 -0.31084323269E+02  0.11038669371E+02  0.40659142044E+02  0.00000000000E+00 0. -1.
         11    1    3    3    0    0 -0.78729074544E+01  0.11849759835E+02 -0.83317532037E+01  0.16486891510E+02  0.51100000000E-03 0. -1.
        -11    1    3    3    0    0  0.33963750076E+01  0.35387426500E+01 -0.72544382875E+01  0.87569936544E+01  0.51100000000E-03 0.  1.
        -12    1    3    3    0    0 -0.19294846504E+02  0.15695820783E+02  0.45475221197E+01  0.25284972792E+02  0.00000000000E+00 0.  1.
</event>
<event>
 7    1  0.2500839E-011  0.5052887E+02  0.7816164E-02  0.1300439E+00
        -11   -1    0    0    0    0  0.00000000000E+00  0.00000000000E+00  0.45593999997E+02  0.45594000000E+02  0.51100000000E-03 0. -1.
         11   -1    0    0    0    0 -0.00000000000E+00 -0.00000000000E+00 -0.45593999997E+02  0.45594000000E+02  0.51100000000E-03 0.  1.
    9900012    2    1    2    0    0  0.17940194754E+02 -0.32254899785E+02 -0.17056836829E+02  0.50528870268E+02  0.30000031666E+02 0.  0.
         12    1    1    2    0    0 -0.17940194754E+02  0.32254899785E+02  0.17056836829E+02  0.40659129732E+02  0.00000000000E+00 0. -1.
         11    1    3    3    0    0  0.30330715300E+01 -0.26424671843E+01 -0.10599967340E+02  0.11337612782E+02  0.51100000000E-03 0. -1.
        -11    1    3    3    0    0  0.71373395377E+01 -0.17572257569E+02  0.63210368700E+01  0.19992032391E+02  0.51100000000E-03 0.  1.
         12    1    3    3    0    0  0.77697836867E+01 -0.12040175032E+02 -0.12777906359E+02  0.19199225095E+02  0.00000000000E+00 0. -1.
</event>
<event>
 7    1  0.2500839E-011  0.5052886E+02  0.7816164E-02  0.1300439E+00
        -11   -1    0    0    0    0  0.00000000000E+00  0.00000000000E+00  0.45593999997E+02  0.45594000000E+02  0.51100000000E-03 0.  1.
         11   -1    0    0    0    0 -0.00000000000E+00 -0.00000000000E+00 -0.45593999997E+02  0.45594000000E+02  0.51100000000E-03 0. -1.
    9900012    2    1    2    0    0  0.13282629579E+02  0.38139073641E+02  0.47062248501E+01  0.50528859096E+02  0.29999997708E+02 0.  0.
         12    1    1    2    0    0 -0.13282629579E+02 -0.38139073641E+02 -0.47062248501E+01  0.40659140904E+02  0.00000000000E+00 0. -1.
         11    1    3    3    0    0 -0.48732728713E+01  0.72124077402E+01  0.60906496733E+01  0.10623729458E+02  0.51100000000E-03 0. -1.
        -11    1    3    3    0    0  0.14015646209E+02  0.17990744481E+02  0.71062088854E+01  0.23887306893E+02  0.51100000000E-03 0.  1.
        -12    1    3    3    0    0  0.41402562412E+01  0.12935921419E+02 -0.84906337086E+01  0.16017822745E+02  0.00000000000E+00 0.  1.
</event>
<event>
 7    1  0.2500839E-011  0.5052883E+02  0.7816164E-02  0.1300439E+00
        -11   -1    0    0    0    0  0.00000000000E+00  0.00000000000E+00  0.45593999997E+02  0.45594000000E+02  0.51100000000E-03 0.  1.
         11   -1    0    0    0    0 -0.00000000000E+00 -0.00000000000E+00 -0.45593999997E+02  0.45594000000E+02  0.51100000000E-03 0. -1.
    9900012    2    1    2    0    0  0.41901697689E+01  0.36927075435E+02  0.16492461453E+02  0.50528834887E+02  0.29999924123E+02 0.  0.
         12    1    1    2    0    0 -0.41901697689E+01 -0.36927075435E+02 -0.16492461453E+02  0.40659165113E+02  0.00000000000E+00 0. -1.
         11    1    3    3    0    0  0.94502578189E+01  0.28885376460E+02  0.10684964341E+02  0.32215536769E+02  0.51100000000E-03 0. -1.
        -11    1    3    3    0    0  0.40894308056E+01  0.28154754377E+01  0.57568900312E+01  0.76021134789E+01  0.51100000000E-03 0.  1.
         12    1    3    3    0    0 -0.93495188556E+01  0.52262235377E+01  0.50607080009E-01  0.10711184639E+02  0.00000000000E+00 0. -1.
</event>
<event>
 7    1  0.2500839E-011  0.5052885E+02  0.7816164E-02  0.1300439E+00
        -11   -1    0    0    0    0  0.00000000000E+00  0.00000000000E+00  0.45593999997E+02  0.45594000000E+02  0.51100000000E-03 0.  1.
         11   -1    0    0    0    0 -0.00000000000E+00 -0.00000000000E+00 -0.45593999997E+02  0.45594000000E+02  0.51100000000E-03 0. -1.
    9900012    2    1    2    0    0 -0.16467258704E+02 -0.46609865811E+00  0.37172281063E+02  0.50528851748E+02  0.29999975372E+02 0.  0.
         12    1    1    2    0    0  0.16467258704E+02  0.46609865811E+00 -0.37172281063E+02  0.40659148252E+02  0.00000000000E+00 0. -1.
         11    1    3    3    0    0 -0.59654854178E+01 -0.43294965814E+01 -0.33203178423E+01  0.80843099739E+01  0.51100000000E-03 0. -1.
        -11    1    3    3    0    0 -0.43129837893E+01  0.45923275308E+01  0.16682088942E+02  0.17832088858E+02  0.51100000000E-03 0.  1.
        -12    1    3    3    0    0 -0.61887894965E+01 -0.72892960749E+00  0.23810509963E+02  0.24612452916E+02  0.00000000000E+00 0.  1.
</event>
<event>
 7    1  0.2500839E-011  0.5052886E+02  0.7816164E-02  0.1300439E+00
        -11   -1    0    0    0    0  0.00000000000E+00  0.00000000000E+00  0.45593999997E+02  0.45594000000E+02  0.51100000000E-03 0. -1.
         11   -1    0    0    0    0 -0.00000000000E+00 -0.00000000000E+00 -0.45593999997E+02  0.45594000000E+02  0.51100000000E-03 0.  1.
    9900012    2    1    2    0    0 -0.32306630612E+02  0.13397046332E+02 -0.20735627314E+02  0.50528862380E+02  0.30000007691E+02 0.  0.
         12    1    1    2    0    0  0.32306630612E+02 -0.13397046332E+02  0.20735627314E+02  0.40659137620E+02  0.00000000000E+00 0. -1.
         11    1    3    3    0    0 -0.21859480428E+02  0.23190050574E+01 -0.43333083533E+01  0.22405183118E+02  0.51100000000E-03 0. -1.
        -11    1    3    3    0    0 -0.15106553825E+01 -0.35331115856E+01 -0.83627356496E+01  0.92032768604E+01  0.51100000000E-03 0.  1.
         12    1    3    3    0    0 -0.89364948014E+01  0.14611152860E+02 -0.80395833108E+01  0.18920402402E+02  0.00000000000E+00 0. -1.
</event>
<event>
 7    1  0.2500839E-011  0.5052886E+02  0.7816164E-02  0.1300439E+00
        -11   -1    0    0    0    0  0.00000000000E+00  0.00000000000E+00  0.45593999997E+02  0.45594000000E+02  0.51100000000E-03 0.  1.
         11   -1    0    0    0    0 -0.00000000000E+00 -0.00000000000E+00 -0.45593999997E+02  0.45594000000E+02  0.51100000000E-03 0. -1.
    9900012    2    1    2    0    0  0.26013284537E+01 -0.19182285887E+01  0.40530475592E+02  0.50528856350E+02  0.29999989361E+02 0.  0.
         12    1    1    2    0    0 -0.26013284537E+01  0.19182285887E+01 -0.40530475592E+02  0.40659143650E+02  0.00000000000E+00 0. -1.
         11    1    3    3    0    0 -0.61882547222E+01 -0.44571621136E+01  0.22794051706E+02  0.24036005992E+02  0.51100000000E-03 0. -1.
        -11    1    3    3    0    0  0.10006608931E+02 -0.55566488369E+01  0.11238110118E+02  0.16040688510E+02  0.51100000000E-03 0.  1.
         12    1    3    3    0    0 -0.12170257552E+01  0.80955823618E+01  0.64983137684E+01  0.10452161848E+02  0.00000000000E+00 0. -1.
</event>
<event>
 7    1  0.2500839E-011  0.5052886E+02  0.7816164E-02  0.1300439E+00
        -11   -1    0    0    0    0  0.00000000000E+00  0.00000000000E+00  0.45593999997E+02  0.45594000000E+02  0.51100000000E-03 0.  1.
         11   -1    0    0    0    0 -0.00000000000E+00 -0.00000000000E+00 -0.45593999997E+02  0.45594000000E+02  0.51100000000E-03 0. -1.
    9900012    2    1    2    0    0  0.17804000062E+02 -0.15445967759E+01  0.36521195170E+02  0.50528857190E+02  0.29999991914E+02 0.  0.
         12    1    1    2    0    0 -0.17804000062E+02  0.15445967759E+01 -0.36521195170E+02  0.40659142810E+02  0.00000000000E+00 0. -1.
         11    1    3    3    0    0  0.13769988288E+02  0.51116908766E+01  0.14050152515E+02  0.20326060785E+02  0.51100000000E-03 0. -1.
        -11    1    3    3    0    0  0.77138126790E+01 -0.58828012941E+01  0.26893856382E+01  0.10066928652E+02  0.51100000000E-03 0.  1.
        -12    1    3    3    0    0 -0.36798009046E+01 -0.77348635843E+00  0.19781657016E+02  0.20135867753E+02  0.00000000000E+00 0.  1.
</event>
<event>
 7    1  0.2500839E-011  0.5052885E+02  0.7816164E-02  0.1300439E+00
        -11   -1    0    0    0    0  0.00000000000E+00  0.00000000000E+00  0.45593999997E+02  0.45594000000E+02  0.51100000000E-03 0.  1.
         11   -1    0    0    0    0 -0.00000000000E+00 -0.00000000000E+00 -0.45593999997E+02  0.45594000000E+02  0.51100000000E-03 0. -1.
    9900012    2    1    2    0    0 -0.33475350972E+02  0.63844141443E+01  0.22176705649E+02  0.50528854164E+02  0.29999982718E+02 0.  0.
         12    1    1    2    0    0  0.33475350972E+02 -0.63844141443E+01 -0.22176705649E+02  0.40659145836E+02  0.00000000000E+00 0. -1.
         11    1    3    3    0    0 -0.19752422484E+01 -0.41610765908E+01 -0.23268242169E-01  0.46061569672E+01  0.51100000000E-03 0. -1.
        -11    1    3    3    0    0 -0.16127244261E+02 -0.18363965112E+01  0.20420492142E-01  0.16231474882E+02  0.51100000000E-03 0.  1.
         12    1    3    3    0    0 -0.15372864463E+02  0.12381887246E+02  0.22179553399E+02  0.29691222315E+02  0.00000000000E+00 0. -1.
</event>
<event>
 7    1  0.2500839E-011  0.5052886E+02  0.7816164E-02  0.1300439E+00
        -11   -1    0    0    0    0  0.00000000000E+00  0.00000000000E+00  0.45593999997E+02  0.45594000000E+02  0.51100000000E-03 0. -1.
         11   -1    0    0    0    0 -0.00000000000E+00 -0.00000000000E+00 -0.45593999997E+02  0.45594000000E+02  0.51100000000E-03 0.  1.
    9900012    2    1    2    0    0 -0.11537531460E+02  0.29933503505E+02 -0.24980726478E+02  0.50528856383E+02  0.29999989463E+02 0.  0.
         12    1    1    2    0    0  0.11537531460E+02 -0.29933503505E+02  0.24980726478E+02  0.40659143617E+02  0.00000000000E+00 0. -1.
         11    1    3    3    0    0 -0.79630337093E+01  0.33833296481E+01 -0.16714669795E+02  0.18821185191E+02  0.51100000000E-03 0.  1.
        -11    1    3    3    0    0 -0.31478410973E+01  0.67837555621E+00  0.20878096490E+01  0.38377136892E+01  0.51100000000E-03 0. -1.
         12    1    3    3    0    0 -0.42665665317E+00  0.25871798301E+02 -0.10353866332E+02  0.27869957503E+02  0.00000000000E+00 0. -1.
</event>
<event>
 7    1  0.2500839E-011  0.5052890E+02  0.7816164E-02  0.1300439E+00
        -11   -1    0    0    0    0  0.00000000000E+00  0.00000000000E+00  0.45593999997E+02  0.45594000000E+02  0.51100000000E-03 0.  1.
         11   -1    0    0    0    0 -0.00000000000E+00 -0.00000000000E+00 -0.45593999997E+02  0.45594000000E+02  0.51100000000E-03 0. -1.
    9900012    2    1    2    0    0 -0.14659792083E+01 -0.47463137364E+01  0.40354506206E+02  0.50528895727E+02  0.30000109052E+02 0.  0.
         12    1    1    2    0    0  0.14659792083E+01  0.47463137364E+01 -0.40354506206E+02  0.40659104273E+02  0.00000000000E+00 0. -1.
         11    1    3    3    0    0  0.84132192652E+01 -0.85369513919E+00  0.14453802691E+02  0.16745849226E+02  0.51100000000E-03 0.  1.
        -11    1    3    3    0    0 -0.47835604518E+01  0.64877649540E+01  0.18157681945E+02  0.19866427927E+02  0.51100000000E-03 0. -1.
         12    1    3    3    0    0 -0.50956380216E+01 -0.10380383551E+02  0.77430215696E+01  0.13916618574E+02  0.00000000000E+00 0. -1.
</event>
<event>
 7    1  0.2500839E-011  0.5052888E+02  0.7816164E-02  0.1300439E+00
        -11   -1    0    0    0    0  0.00000000000E+00  0.00000000000E+00  0.45593999997E+02  0.45594000000E+02  0.51100000000E-03 0. -1.
         11   -1    0    0    0    0 -0.00000000000E+00 -0.00000000000E+00 -0.45593999997E+02  0.45594000000E+02  0.51100000000E-03 0.  1.
    9900012    2    1    2    0    0 -0.18618769599E+02  0.16119581798E+02 -0.32352193313E+02  0.50528881577E+02  0.30000066042E+02 0.  0.
         12    1    1    2    0    0  0.18618769599E+02 -0.16119581798E+02  0.32352193313E+02  0.40659118423E+02  0.00000000000E+00 0. -1.
         11    1    3    3    0    0 -0.16337100912E+02  0.49145784653E+01 -0.14887559177E+02  0.22642733188E+02  0.51100000000E-03 0. -1.
        -11    1    3    3    0    0 -0.39227989571E+01  0.13441813163E+01 -0.17402269441E+02  0.17889498513E+02  0.51100000000E-03 0.  1.
         12    1    3    3    0    0  0.16411302703E+01  0.98608220166E+01 -0.62364695089E-01  0.99966498770E+01  0.00000000000E+00 0. -1.
</event>
<event>
 7    1  0.2709620E-011  0.5052885E+02  0.7816164E-02  0.1300439E+00
        -11   -1    0    0    0    0  0.00000000000E+00  0.00000000000E+00  0.45593999997E+02  0.45594000000E+02  0.51100000000E-03 0.  1.
         11   -1    0    0    0    0 -0.00000000000E+00 -0.00000000000E+00 -0.45593999997E+02  0.45594000000E+02  0.51100000000E-03 0. -1.
    9900012    2    1    2    0    0 -0.51515120355E+01 -0.25120510548E+02  0.31552939080E+02  0.50528854768E+02  0.29999984553E+02 0.  0.
         12    1    1    2    0    0  0.51515120355E+01  0.25120510548E+02 -0.31552939080E+02  0.40659145232E+02  0.00000000000E+00 0. -1.
         11    1    3    3    0    0 -0.32010383928E+01  0.27847427620E+01  0.11896989181E+01  0.44064524075E+01  0.51100000000E-03 0.  1.
        -11    1    3    3    0    0 -0.10067859346E+02 -0.14114573498E+02  0.93132123344E+01  0.19680419230E+02  0.51100000000E-03 0. -1.
        -12    1    3    3    0    0  0.81173857030E+01 -0.13790679812E+02  0.21050027827E+02  0.26441983130E+02  0.00000000000E+00 0.  1.
</event>
<event>
 7    1  0.2500839E-011  0.5052886E+02  0.7816164E-02  0.1300439E+00
        -11   -1    0    0    0    0  0.00000000000E+00  0.00000000000E+00  0.45593999997E+02  0.45594000000E+02  0.51100000000E-03 0. -1.
         11   -1    0    0    0    0 -0.00000000000E+00 -0.00000000000E+00 -0.45593999997E+02  0.45594000000E+02  0.51100000000E-03 0.  1.
    9900012    2    1    2    0    0  0.20028838647E+02  0.24050803810E+02 -0.25953224834E+02  0.50528863010E+02  0.30000009605E+02 0.  0.
         12    1    1    2    0    0 -0.20028838647E+02 -0.24050803810E+02  0.25953224834E+02  0.40659136990E+02  0.00000000000E+00 0. -1.
         11    1    3    3    0    0  0.38181226602E+01  0.12135076434E+02 -0.63499529054E+01  0.14218299578E+02  0.51100000000E-03 0.  1.
        -11    1    3    3    0    0  0.14047326139E+02  0.68530024704E+01  0.32761029779E+00  0.15633244810E+02  0.51100000000E-03 0. -1.
         12    1    3    3    0    0  0.21633898479E+01  0.50627249058E+01 -0.19930882226E+02  0.20677318623E+02  0.00000000000E+00 0. -1.
</event>
<event>
 7    1  0.2500839E-011  0.5052885E+02  0.7816164E-02  0.1300439E+00
        -11   -1    0    0    0    0  0.00000000000E+00  0.00000000000E+00  0.45593999997E+02  0.45594000000E+02  0.51100000000E-03 0. -1.
         11   -1    0    0    0    0 -0.00000000000E+00 -0.00000000000E+00 -0.45593999997E+02  0.45594000000E+02  0.51100000000E-03 0.  1.
    9900012    2    1    2    0    0 -0.34729258363E+02 -0.31789538180E+01 -0.20903093678E+02  0.50528850241E+02  0.29999970792E+02 0.  0.
         12    1    1    2    0    0  0.34729258363E+02  0.31789538180E+01  0.20903093678E+02  0.40659149759E+02  0.00000000000E+00 0. -1.
         11    1    3    3    0    0 -0.43082101810E+00  0.29250297575E+01 -0.18869649274E+01  0.35074267961E+01  0.51100000000E-03 0. -1.
        -11    1    3    3    0    0 -0.16193350888E+02 -0.22865852273E+01 -0.22875436217E+02  0.28120075877E+02  0.51100000000E-03 0.  1.
        -12    1    3    3    0    0 -0.18105086457E+02 -0.38173983482E+01  0.38593074656E+01  0.18901347568E+02  0.00000000000E+00 0.  1.
</event>
<event>
 7    1  0.2500839E-011  0.5052886E+02  0.7816164E-02  0.1300439E+00
        -11   -1    0    0    0    0  0.00000000000E+00  0.00000000000E+00  0.45593999997E+02  0.45594000000E+02  0.51100000000E-03 0.  1.
         11   -1    0    0    0    0 -0.00000000000E+00 -0.00000000000E+00 -0.45593999997E+02  0.45594000000E+02  0.51100000000E-03 0. -1.
    9900012    2    1    2    0    0  0.17717451591E+02 -0.16620295422E+02  0.32604042423E+02  0.50528857202E+02  0.29999991951E+02 0.  0.
         12    1    1    2    0    0 -0.17717451591E+02  0.16620295422E+02 -0.32604042423E+02  0.40659142798E+02  0.00000000000E+00 0. -1.
         11    1    3    3    0    0  0.10941262596E+02 -0.15842754394E+02  0.22159258841E+02  0.29355354650E+02  0.51100000000E-03 0. -1.
        -11    1    3    3    0    0  0.10212305352E+02 -0.59981629016E+01  0.86657299950E+01  0.14675285871E+02  0.51100000000E-03 0.  1.
         12    1    3    3    0    0 -0.34361163566E+01  0.52206218741E+01  0.17790535868E+01  0.64982166810E+01  0.00000000000E+00 0. -1.
</event>
<event>
 7    1  0.2500839E-011  0.5052886E+02  0.7816164E-02  0.1300439E+00
        -11   -1    0    0    0    0  0.00000000000E+00  0.00000000000E+00  0.45593999997E+02  0.45594000000E+02  0.51100000000E-03 0.  1.
         11   -1    0    0    0    0 -0.00000000000E+00 -0.00000000000E+00 -0.45593999997E+02  0.45594000000E+02  0.51100000000E-03 0. -1.
    9900012    2    1    2    0    0  0.18208403432E+02 -0.73289535684E+01  0.35607670966E+02  0.50528858991E+02  0.29999997389E+02 0.  0.
         12    1    1    2    0    0 -0.18208403432E+02  0.73289535684E+01 -0.35607670966E+02  0.40659141009E+02  0.00000000000E+00 0. -1.
         11    1    3    3    0    0  0.20083023431E+02 -0.12582440768E+02  0.22413618664E+02  0.32619257314E+02  0.51100000000E-03 0. -1.
        -11    1    3    3    0    0  0.15796316700E+01 -0.47755361415E+00 -0.11971679968E+01  0.20387508776E+01  0.51100000000E-03 0.  1.
        -12    1    3    3    0    0 -0.34542516698E+01  0.57310408139E+01  0.14391220299E+02  0.15870850800E+02  0.00000000000E+00 0.  1.
</event>
<event>
 7    1  0.2500839E-011  0.5052887E+02  0.7816164E-02  0.1300439E+00
        -11   -1    0    0    0    0  0.00000000000E+00  0.00000000000E+00  0.45593999997E+02  0.45594000000E+02  0.51100000000E-03 0. -1.
         11   -1    0    0    0    0 -0.00000000000E+00 -0.00000000000E+00 -0.45593999997E+02  0.45594000000E+02  0.51100000000E-03 0.  1.
    9900012    2    1    2    0    0 -0.89948299436E+01  0.20638569191E+02 -0.33857166403E+02  0.50528865469E+02  0.30000017078E+02 0.  0.
         12    1    1    2    0    0  0.89948299436E+01 -0.20638569191E+02  0.33857166403E+02  0.40659134531E+02  0.00000000000E+00 0. -1.
         11    1    3    3    0    0 -0.81058767611E+01  0.64040175543E+01 -0.16007712659E+02  0.19051602131E+02  0.51100000000E-03 0. -1.
        -11    1    3    3    0    0 -0.53606172830E+01 -0.42824550036E+01 -0.42341378658E+01  0.80624786661E+01  0.51100000000E-03 0.  1.
        -12    1    3    3    0    0  0.44716641006E+01  0.18517006641E+02 -0.13615315878E+02  0.23414784672E+02  0.00000000000E+00 0.  1.
</event>
<event>
 7    1  0.2500839E-011  0.5052895E+02  0.7816164E-02  0.1300438E+00
        -11   -1    0    0    0    0  0.00000000000E+00  0.00000000000E+00  0.45593999997E+02  0.45594000000E+02  0.51100000000E-03 0.  1.
         11   -1    0    0    0    0 -0.00000000000E+00 -0.00000000000E+00 -0.45593999997E+02  0.45594000000E+02  0.51100000000E-03 0. -1.
    9900012    2    1    2    0    0  0.23218538168E+02  0.32884588325E+02  0.57150256761E+01  0.50528952022E+02  0.30000280166E+02 0.  0.
         12    1    1    2    0    0 -0.23218538168E+02 -0.32884588325E+02 -0.57150256761E+01  0.40659047978E+02  0.00000000000E+00 0. -1.
         11    1    3    3    0    0  0.35328015869E+01  0.70675929175E+01 -0.64187016120E+01  0.10179945351E+02  0.51100000000E-03 0. -1.
        -11    1    3    3    0    0 -0.31133434528E+00  0.15023791621E+02  0.10433637003E+01  0.15063195272E+02  0.51100000000E-03 0.  1.
        -12    1    3    3    0    0  0.19997070926E+02  0.10793203787E+02  0.11090363588E+02  0.25285811399E+02  0.00000000000E+00 0.  1.
</event>
<event>
 7    1  0.2500839E-011  0.5052886E+02  0.7816164E-02  0.1300439E+00
        -11   -1    0    0    0    0  0.00000000000E+00  0.00000000000E+00  0.45593999997E+02  0.45594000000E+02  0.51100000000E-03 0. -1.
         11   -1    0    0    0    0 -0.00000000000E+00 -0.00000000000E+00 -0.45593999997E+02  0.45594000000E+02  0.51100000000E-03 0.  1.
    9900012    2    1    2    0    0  0.30699365591E+02 -0.26659208837E+02 -0.28387374156E-01  0.50528864872E+02  0.30000015266E+02 0.  0.
         12    1    1    2    0    0 -0.30699365591E+02  0.26659208837E+02  0.28387374156E-01  0.40659135128E+02  0.00000000000E+00 0. -1.
         11    1    3    3    0    0  0.95322993104E+01 -0.19752724646E+02 -0.15573111633E+01  0.21987725654E+02  0.51100000000E-03 0. -1.
        -11    1    3    3    0    0  0.18581236153E+02 -0.10443024016E+02 -0.37912052960E+01  0.21649303116E+02  0.51100000000E-03 0.  1.
         12    1    3    3    0    0  0.25858301277E+01  0.35365398252E+01  0.53201290851E+01  0.68918361027E+01  0.00000000000E+00 0. -1.
</event>
<event>
 7    1  0.3365900E-011  0.5052887E+02  0.7816164E-02  0.1300439E+00
        -11   -1    0    0    0    0  0.00000000000E+00  0.00000000000E+00  0.45593999997E+02  0.45594000000E+02  0.51100000000E-03 0. -1.
         11   -1    0    0    0    0 -0.00000000000E+00 -0.00000000000E+00 -0.45593999997E+02  0.45594000000E+02  0.51100000000E-03 0.  1.
    9900012    2    1    2    0    0  0.21696814452E+02 -0.30272871857E+02 -0.16308485288E+02  0.50528865477E+02  0.30000017103E+02 0.  0.
         12    1    1    2    0    0 -0.21696814452E+02  0.30272871857E+02  0.16308485288E+02  0.40659134523E+02  0.00000000000E+00 0. -1.
         11    1    3    3    0    0 -0.19005825782E+01 -0.21232247888E+01  0.51825694750E+01  0.59143321064E+01  0.51100000000E-03 0. -1.
        -11    1    3    3    0    0  0.43232357666E+01 -0.15205150040E+02 -0.10040202820E+02  0.18726789051E+02  0.51100000000E-03 0.  1.
        -12    1    3    3    0    0  0.19274161263E+02 -0.12944497028E+02 -0.11450851943E+02  0.25887744319E+02  0.00000000000E+00 0.  1.
</event>
<event>
 7    1  0.2500839E-011  0.5052887E+02  0.7816164E-02  0.1300439E+00
        -11   -1    0    0    0    0  0.00000000000E+00  0.00000000000E+00  0.45593999997E+02  0.45594000000E+02  0.51100000000E-03 0.  1.
         11   -1    0    0    0    0 -0.00000000000E+00 -0.00000000000E+00 -0.45593999997E+02  0.45594000000E+02  0.51100000000E-03 0. -1.
    9900012    2    1    2    0    0 -0.38959557658E+02 -0.29449201597E+01 -0.11253683627E+02  0.50528867166E+02  0.30000022237E+02 0.  0.
         12    1    1    2    0    0  0.38959557658E+02  0.29449201597E+01  0.11253683627E+02  0.40659132834E+02  0.00000000000E+00 0. -1.
         11    1    3    3    0    0 -0.15751071392E+01  0.16614189309E+01  0.19300583535E+01  0.29943949093E+01  0.51100000000E-03 0. -1.
        -11    1    3    3    0    0 -0.40306001679E+01 -0.29599553367E+01 -0.13226191045E+02  0.14139985966E+02  0.51100000000E-03 0.  1.
        -12    1    3    3    0    0 -0.33353850351E+02 -0.16463837538E+01  0.42449063672E-01  0.33394486291E+02  0.00000000000E+00 0.  1.
</event>
<event>
 7    1  0.2500839E-011  0.5052886E+02  0.7816164E-02  0.1300439E+00
        -11   -1    0    0    0    0  0.00000000000E+00  0.00000000000E+00  0.45593999997E+02  0.45594000000E+02  0.51100000000E-03 0.  1.
         11   -1    0    0    0    0 -0.00000000000E+00 -0.00000000000E+00 -0.45593999997E+02  0.45594000000E+02  0.51100000000E-03 0. -1.
    9900012    2    1    2    0    0 -0.65042387280E+01  0.39365023560E+02 -0.78265883468E+01  0.50528859743E+02  0.29999999675E+02 0.  0.
         12    1    1    2    0    0  0.65042387280E+01 -0.39365023560E+02  0.78265883468E+01  0.40659140257E+02  0.00000000000E+00 0. -1.
         11    1    3    3    0    0 -0.44998604220E+01  0.12852075602E+02 -0.74914952335E+01  0.15541785360E+02  0.51100000000E-03 0. -1.
        -11    1    3    3    0    0  0.63570172938E+01  0.25644918190E+02 -0.16772871537E+01  0.26474266568E+02  0.51100000000E-03 0.  1.
         12    1    3    3    0    0 -0.83613955997E+01  0.86802976800E+00  0.13421940404E+01  0.85128078150E+01  0.00000000000E+00 0. -1.
</event>
<event>
 7    1  0.2500839E-011  0.5052885E+02  0.7816164E-02  0.1300439E+00
        -11   -1    0    0    0    0  0.00000000000E+00  0.00000000000E+00  0.45593999997E+02  0.45594000000E+02  0.51100000000E-03 0.  1.
         11   -1    0    0    0    0 -0.00000000000E+00 -0.00000000000E+00 -0.45593999997E+02  0.45594000000E+02  0.51100000000E-03 0. -1.
    9900012    2    1    2    0    0  0.24591378514E+02 -0.25896081904E+02  0.19437680805E+02  0.50528851088E+02  0.29999973366E+02 0.  0.
         12    1    1    2    0    0 -0.24591378514E+02  0.25896081904E+02 -0.19437680805E+02  0.40659148912E+02  0.00000000000E+00 0. -1.
         11    1    3    3    0    0  0.12483654851E+02 -0.18684270066E+02  0.30860714360E+00  0.22473068882E+02  0.51100000000E-03 0. -1.
        -11    1    3    3    0    0  0.99404029364E+01 -0.11342763269E+02  0.10943077975E+02  0.18633862856E+02  0.51100000000E-03 0.  1.
        -12    1    3    3    0    0  0.21673207260E+01  0.41309514306E+01  0.81859956865E+01  0.94219193496E+01  0.00000000000E+00 0.  1.
</event>
<event>
 7    1  0.2500839E-011  0.5052886E+02  0.7816164E-02  0.1300439E+00
        -11   -1    0    0    0    0  0.00000000000E+00  0.00000000000E+00  0.45593999997E+02  0.45594000000E+02  0.51100000000E-03 0.  1.
         11   -1    0    0    0    0 -0.00000000000E+00 -0.00000000000E+00 -0.45593999997E+02  0.45594000000E+02  0.51100000000E-03 0. -1.
    9900012    2    1    2    0    0  0.19019775148E+02 -0.27934568764E+02  0.22606932714E+02  0.50528863444E+02  0.30000010925E+02 0.  0.
         12    1    1    2    0    0 -0.19019775148E+02  0.27934568764E+02 -0.22606932714E+02  0.40659136556E+02  0.00000000000E+00 0. -1.
         11    1    3    3    0    0  0.77439807799E+01 -0.27987091280E+01  0.55849701611E+01  0.99495679838E+01  0.51100000000E-03 0. -1.
        -11    1    3    3    0    0  0.13678513862E+02 -0.26420831449E+02  0.20522537746E+02  0.36143279206E+02  0.51100000000E-03 0.  1.
        -12    1    3    3    0    0 -0.24027194942E+01  0.12849718132E+01 -0.35005751931E+01  0.44360162546E+01  0.00000000000E+00 0.  1.
</event>
<event>
 7    1  0.3353161E-011  0.5052886E+02  0.7816164E-02  0.1300439E+00
        -11   -1    0    0    0    0  0.00000000000E+00  0.00000000000E+00  0.45593999997E+02  0.45594000000E+02  0.51100000000E-03 0. -1.
         11   -1    0    0    0    0 -0.00000000000E+00 -0.00000000000E+00 -0.45593999997E+02  0.45594000000E+02  0.51100000000E-03 0.  1.
    9900012    2    1    2    0    0 -0.85937095802E+01 -0.39055247541E+02 -0.73485570848E+01  0.50528862084E+02  0.30000006791E+02 0.  0.
         12    1    1    2    0    0  0.85937095802E+01  0.39055247541E+02  0.73485570848E+01  0.40659137916E+02  0.00000000000E+00 0. -1.
         11    1    3    3    0    0  0.26207709259E+01  0.21647744282E+01 -0.28512724873E+01  0.44367154100E+01  0.51100000000E-03 0. -1.
        -11    1    3    3    0    0 -0.36189285663E+01 -0.90237077913E+01 -0.83141578347E+01  0.12792543415E+02  0.51100000000E-03 0.  1.
        -12    1    3    3    0    0 -0.75955519398E+01 -0.32196314178E+02  0.38168732373E+01  0.33299603259E+02  0.00000000000E+00 0.  1.
</event>
<event>
 7    1  0.2500839E-011  0.5052885E+02  0.7816164E-02  0.1300439E+00
        -11   -1    0    0    0    0  0.00000000000E+00  0.00000000000E+00  0.45593999997E+02  0.45594000000E+02  0.51100000000E-03 0.  1.
         11   -1    0    0    0    0 -0.00000000000E+00 -0.00000000000E+00 -0.45593999997E+02  0.45594000000E+02  0.51100000000E-03 0. -1.
    9900012    2    1    2    0    0 -0.38520325818E+02 -0.23497178963E+01  0.12799600112E+02  0.50528850497E+02  0.29999971570E+02 0.  0.
         12    1    1    2    0    0  0.38520325818E+02  0.23497178963E+01 -0.12799600112E+02  0.40659149503E+02  0.00000000000E+00 0. -1.
         11    1    3    3    0    0  0.22026274300E+01 -0.26942698116E+00 -0.35348632299E+00  0.22470227714E+01  0.51100000000E-03 0. -1.
        -11    1    3    3    0    0 -0.14586802923E+02  0.22527110587E+01  0.15842736564E+02  0.21652755684E+02  0.51100000000E-03 0.  1.
        -12    1    3    3    0    0 -0.26136150325E+02 -0.43330019739E+01 -0.26896501297E+01  0.26629072041E+02  0.00000000000E+00 0.  1.
</event>
<event>
 7    1  0.2500839E-011  0.5052886E+02  0.7816164E-02  0.1300439E+00
        -11   -1    0    0    0    0  0.00000000000E+00  0.00000000000E+00  0.45593999997E+02  0.45594000000E+02  0.51100000000E-03 0.  1.
         11   -1    0    0    0    0 -0.00000000000E+00 -0.00000000000E+00 -0.45593999997E+02  0.45594000000E+02  0.51100000000E-03 0. -1.
    9900012    2    1    2    0    0  0.10519375423E+02  0.34023807462E+02  0.19618586878E+02  0.50528859766E+02  0.29999999743E+02 0.  0.
         12    1    1    2    0    0 -0.10519375423E+02 -0.34023807462E+02 -0.19618586878E+02  0.40659140234E+02  0.00000000000E+00 0. -1.
         11    1    3    3    0    0 -0.47971879857E+01  0.47454828153E+01 -0.22485351049E+01  0.71125614303E+01  0.51100000000E-03 0. -1.
        -11    1    3    3    0    0 -0.62548246380E+00  0.36485318564E+01  0.10550753009E+02  0.11181296988E+02  0.51100000000E-03 0.  1.
        -12    1    3    3    0    0  0.15942045873E+02  0.25629792790E+02  0.11316368974E+02  0.32235001347E+02  0.00000000000E+00 0.  1.
</event>
<event>
 7    1  0.2500839E-011  0.5052885E+02  0.7816164E-02  0.1300439E+00
        -11   -1    0    0    0    0  0.00000000000E+00  0.00000000000E+00  0.45593999997E+02  0.45594000000E+02  0.51100000000E-03 0.  1.
         11   -1    0    0    0    0 -0.00000000000E+00 -0.00000000000E+00 -0.45593999997E+02  0.45594000000E+02  0.51100000000E-03 0. -1.
    9900012    2    1    2    0    0 -0.38919062194E+01 -0.23071517711E+02  0.33252434616E+02  0.50528852549E+02  0.29999977809E+02 0.  0.
         12    1    1    2    0    0  0.38919062194E+01  0.23071517711E+02 -0.33252434616E+02  0.40659147451E+02  0.00000000000E+00 0. -1.
         11    1    3    3    0    0  0.85474776134E+01 -0.99218113023E+01  0.27326439834E+02  0.30302409597E+02  0.51100000000E-03 0. -1.
        -11    1    3    3    0    0 -0.50619886490E+01 -0.18931788004E+01 -0.26759064412E+00  0.54110498119E+01  0.51100000000E-03 0.  1.
        -12    1    3    3    0    0 -0.73773951838E+01 -0.11256527609E+02  0.61935854255E+01  0.14815393141E+02  0.00000000000E+00 0.  1.
</event>
<event>
 7    1  0.2500839E-011  0.5052884E+02  0.7816164E-02  0.1300439E+00
        -11   -1    0    0    0    0  0.00000000000E+00  0.00000000000E+00  0.45593999997E+02  0.45594000000E+02  0.51100000000E-03 0.  1.
         11   -1    0    0    0    0 -0.00000000000E+00 -0.00000000000E+00 -0.45593999997E+02  0.45594000000E+02  0.51100000000E-03 0. -1.
    9900012    2    1    2    0    0  0.14572341971E+01 -0.18265222139E+02  0.36296352097E+02  0.50528843013E+02  0.29999948823E+02 0.  0.
         12    1    1    2    0    0 -0.14572341971E+01  0.18265222139E+02 -0.36296352097E+02  0.40659156987E+02  0.00000000000E+00 0. -1.
         11    1    3    3    0    0 -0.23163432582E+01 -0.53768025132E+01 -0.12114117601E+01  0.59785424703E+01  0.51100000000E-03 0. -1.
        -11    1    3    3    0    0 -0.61611812607E+01 -0.99861876043E+01  0.28531357618E+02  0.30849999436E+02  0.51100000000E-03 0.  1.
         12    1    3    3    0    0  0.99347587160E+01 -0.29022320221E+01  0.89764062388E+01  0.13700301107E+02  0.00000000000E+00 0. -1.
</event>
<event>
 7    1  0.2500839E-011  0.5052887E+02  0.7816164E-02  0.1300439E+00
        -11   -1    0    0    0    0  0.00000000000E+00  0.00000000000E+00  0.45593999997E+02  0.45594000000E+02  0.51100000000E-03 0.  1.
         11   -1    0    0    0    0 -0.00000000000E+00 -0.00000000000E+00 -0.45593999997E+02  0.45594000000E+02  0.51100000000E-03 0. -1.
    9900012    2    1    2    0    0 -0.29693759068E+02  0.48428007127E+01  0.27349456307E+02  0.50528870562E+02  0.30000032562E+02 0.  0.
         12    1    1    2    0    0  0.29693759068E+02 -0.48428007127E+01 -0.27349456307E+02  0.40659129438E+02  0.00000000000E+00 0. -1.
         11    1    3    3    0    0 -0.11605213595E+02  0.79817026770E+01  0.36157370957E+01  0.14541737008E+02  0.51100000000E-03 0. -1.
        -11    1    3    3    0    0 -0.38371504958E+01  0.13790493099E+01  0.20223151692E+02  0.20630108230E+02  0.51100000000E-03 0.  1.
         12    1    3    3    0    0 -0.14251394977E+02 -0.45179512741E+01  0.35105675185E+01  0.15357025325E+02  0.00000000000E+00 0. -1.
</event>
<event>
 7    1  0.2500839E-011  0.5052887E+02  0.7816164E-02  0.1300439E+00
        -11   -1    0    0    0    0  0.00000000000E+00  0.00000000000E+00  0.45593999997E+02  0.45594000000E+02  0.51100000000E-03 0.  1.
         11   -1    0    0    0    0 -0.00000000000E+00 -0.00000000000E+00 -0.45593999997E+02  0.45594000000E+02  0.51100000000E-03 0. -1.
    9900012    2    1    2    0    0  0.90343686127E+01  0.37353620393E+02  0.13275998228E+02  0.50528869394E+02  0.30000029011E+02 0.  0.
         12    1    1    2    0    0 -0.90343686127E+01 -0.37353620393E+02 -0.13275998228E+02  0.40659130606E+02  0.00000000000E+00 0. -1.
         11    1    3    3    0    0  0.14288707301E+01  0.13442863171E+02 -0.17153196920E+01  0.13626979258E+02  0.51100000000E-03 0. -1.
        -11    1    3    3    0    0 -0.58690962905E+01 -0.42290346768E+00  0.31054478232E+01  0.66534911929E+01  0.51100000000E-03 0.  1.
        -12    1    3    3    0    0  0.13474594173E+02  0.24333660689E+02  0.11885870097E+02  0.30248398943E+02  0.00000000000E+00 0.  1.
</event>
<event>
 7    1  0.2500839E-011  0.5052886E+02  0.7816164E-02  0.1300439E+00
        -11   -1    0    0    0    0  0.00000000000E+00  0.00000000000E+00  0.45593999997E+02  0.45594000000E+02  0.51100000000E-03 0.  1.
         11   -1    0    0    0    0 -0.00000000000E+00 -0.00000000000E+00 -0.45593999997E+02  0.45594000000E+02  0.51100000000E-03 0. -1.
    9900012    2    1    2    0    0  0.11161730003E+02 -0.18505507970E+02  0.34440201450E+02  0.50528861817E+02  0.30000005979E+02 0.  0.
         12    1    1    2    0    0 -0.11161730003E+02  0.18505507970E+02 -0.34440201450E+02  0.40659138183E+02  0.00000000000E+00 0. -1.
         11    1    3    3    0    0  0.40244913935E+01 -0.17878720376E+02  0.11295688494E+02  0.21527604420E+02  0.51100000000E-03 0. -1.
        -11    1    3    3    0    0 -0.11644140926E+01  0.17639186527E+01 -0.16905519409E+01  0.27065171934E+01  0.51100000000E-03 0.  1.
        -12    1    3    3    0    0  0.83016527025E+01 -0.23907062465E+01  0.24835064896E+02  0.26294740203E+02  0.00000000000E+00 0.  1.
</event>
<event>
 7    1  0.2500839E-011  0.5052886E+02  0.7816164E-02  0.1300439E+00
        -11   -1    0    0    0    0  0.00000000000E+00  0.00000000000E+00  0.45593999997E+02  0.45594000000E+02  0.51100000000E-03 0.  1.
         11   -1    0    0    0    0 -0.00000000000E+00 -0.00000000000E+00 -0.45593999997E+02  0.45594000000E+02  0.51100000000E-03 0. -1.
    9900012    2    1    2    0    0  0.25545312666E+02  0.22509705973E+02  0.22224214867E+02  0.50528860946E+02  0.30000003331E+02 0.  0.
         12    1    1    2    0    0 -0.25545312666E+02 -0.22509705973E+02 -0.22224214867E+02  0.40659139054E+02  0.00000000000E+00 0. -1.
         11    1    3    3    0    0  0.15059847008E+02  0.54961941552E+01  0.92105124655E+01  0.18488934048E+02  0.51100000000E-03 0. -1.
        -11    1    3    3    0    0 -0.30515435425E-01 -0.47818416305E+01  0.53335966420E+00  0.48115915625E+01  0.51100000000E-03 0.  1.
        -12    1    3    3    0    0  0.10515981093E+02  0.21795353448E+02  0.12480342737E+02  0.27228335335E+02  0.00000000000E+00 0.  1.
</event>
<event>
 7    1  0.2500839E-011  0.5052885E+02  0.7816164E-02  0.1300439E+00
        -11   -1    0    0    0    0  0.00000000000E+00  0.00000000000E+00  0.45593999997E+02  0.45594000000E+02  0.51100000000E-03 0.  1.
         11   -1    0    0    0    0 -0.00000000000E+00 -0.00000000000E+00 -0.45593999997E+02  0.45594000000E+02  0.51100000000E-03 0. -1.
    9900012    2    1    2    0    0  0.20616741615E+02  0.13099887216E+02  0.32503987499E+02  0.50528852404E+02  0.29999977368E+02 0.  0.
         12    1    1    2    0    0 -0.20616741615E+02 -0.13099887216E+02 -0.32503987499E+02  0.40659147596E+02  0.00000000000E+00 0. -1.
         11    1    3    3    0    0  0.75913992718E+01  0.16403114063E+02  0.12681289816E+02  0.22079551751E+02  0.51100000000E-03 0. -1.
        -11    1    3    3    0    0  0.96884914606E+01  0.23317791636E+01  0.30156722223E+01  0.10411452351E+02  0.51100000000E-03 0.  1.
        -12    1    3    3    0    0  0.33368508823E+01 -0.56350060104E+01  0.16807025460E+02  0.18037848302E+02  0.00000000000E+00 0.  1.
</event>
<event>
 7    1  0.2500839E-011  0.5052886E+02  0.7816164E-02  0.1300439E+00
        -11   -1    0    0    0    0  0.00000000000E+00  0.00000000000E+00  0.45593999997E+02  0.45594000000E+02  0.51100000000E-03 0.  1.
         11   -1    0    0    0    0 -0.00000000000E+00 -0.00000000000E+00 -0.45593999997E+02  0.45594000000E+02  0.51100000000E-03 0. -1.
    9900012    2    1    2    0    0 -0.22103628553E+02  0.32387639308E+02  0.10753412931E+02  0.50528862469E+02  0.30000007960E+02 0.  0.
         12    1    1    2    0    0  0.22103628553E+02 -0.32387639308E+02 -0.10753412931E+02  0.40659137531E+02  0.00000000000E+00 0. -1.
         11    1    3    3    0    0 -0.56403785221E+01  0.11117019104E+02 -0.74769993609E+01  0.14536419894E+02  0.51100000000E-03 0. -1.
        -11    1    3    3    0    0 -0.10608477786E+02  0.13966040131E+02  0.25394932968E+01  0.17721148505E+02  0.51100000000E-03 0.  1.
        -12    1    3    3    0    0 -0.58547722452E+01  0.73045800731E+01  0.15690918995E+02  0.18271294070E+02  0.00000000000E+00 0.  1.
</event>
<event>
 7    1  0.2500839E-011  0.5052894E+02  0.7816164E-02  0.1300439E+00
        -11   -1    0    0    0    0  0.00000000000E+00  0.00000000000E+00  0.45593999997E+02  0.45594000000E+02  0.51100000000E-03 0.  1.
         11   -1    0    0    0    0 -0.00000000000E+00 -0.00000000000E+00 -0.45593999997E+02  0.45594000000E+02  0.51100000000E-03 0. -1.
    9900012    2    1    2    0    0  0.28205929410E+02 -0.20828345471E+02  0.20585556035E+02  0.50528935252E+02  0.30000229190E+02 0.  0.
         12    1    1    2    0    0 -0.28205929410E+02  0.20828345471E+02 -0.20585556035E+02  0.40659064748E+02  0.00000000000E+00 0. -1.
         11    1    3    3    0    0  0.45340214555E+01 -0.95606390990E+01 -0.27344384195E+01  0.10928875709E+02  0.51100000000E-03 0.  1.
        -11    1    3    3    0    0 -0.20922583886E+01 -0.27969718018E+01  0.73214535777E+01  0.81119836770E+01  0.51100000000E-03 0. -1.
        -12    1    3    3    0    0  0.25764166343E+02 -0.84707345702E+01  0.15998540877E+02  0.31488075865E+02  0.00000000000E+00 0.  1.
</event>
<event>
 7    1  0.2500839E-011  0.5052886E+02  0.7816164E-02  0.1300439E+00
        -11   -1    0    0    0    0  0.00000000000E+00  0.00000000000E+00  0.45593999997E+02  0.45594000000E+02  0.51100000000E-03 0.  1.
         11   -1    0    0    0    0 -0.00000000000E+00 -0.00000000000E+00 -0.45593999997E+02  0.45594000000E+02  0.51100000000E-03 0. -1.
    9900012    2    1    2    0    0 -0.31444911817E+02 -0.16907584935E+02  0.19455512939E+02  0.50528857225E+02  0.29999992021E+02 0.  0.
         12    1    1    2    0    0  0.31444911817E+02  0.16907584935E+02 -0.19455512939E+02  0.40659142775E+02  0.00000000000E+00 0. -1.
         11    1    3    3    0    0  0.21485699626E+01 -0.10626938061E+01  0.23931059048E+01  0.33871266794E+01  0.51100000000E-03 0. -1.
        -11    1    3    3    0    0 -0.16954005844E+02 -0.14029146408E+02  0.20476341410E+02  0.30058872581E+02  0.51100000000E-03 0.  1.
         12    1    3    3    0    0 -0.16639475935E+02 -0.18157447211E+01 -0.34139343758E+01  0.17082857964E+02  0.00000000000E+00 0. -1.
</event>
<event>
 7    1  0.2500839E-011  0.5052886E+02  0.7816164E-02  0.1300439E+00
        -11   -1    0    0    0    0  0.00000000000E+00  0.00000000000E+00  0.45593999997E+02  0.45594000000E+02  0.51100000000E-03 0. -1.
         11   -1    0    0    0    0 -0.00000000000E+00 -0.00000000000E+00 -0.45593999997E+02  0.45594000000E+02  0.51100000000E-03 0.  1.
    9900012    2    1    2    0    0  0.26965875334E+02  0.18994901005E+02 -0.23773960334E+02  0.50528857281E+02  0.29999992190E+02 0.  0.
         12    1    1    2    0    0 -0.26965875334E+02 -0.18994901005E+02  0.23773960334E+02  0.40659142719E+02  0.00000000000E+00 0. -1.
         11    1    3    3    0    0  0.77762689788E+01  0.88809685313E+01  0.37597312447E+01  0.12388605272E+02  0.51100000000E-03 0. -1.
        -11    1    3    3    0    0  0.68711228600E+01  0.12008818533E+02 -0.16083594105E+02  0.21215702946E+02  0.51100000000E-03 0.  1.
         12    1    3    3    0    0  0.12318483495E+02 -0.18948860603E+01 -0.11450097475E+02  0.16924549063E+02  0.00000000000E+00 0. -1.
</event>
<event>
 7    1  0.2500839E-011  0.5052886E+02  0.7816164E-02  0.1300439E+00
        -11   -1    0    0    0    0  0.00000000000E+00  0.00000000000E+00  0.45593999997E+02  0.45594000000E+02  0.51100000000E-03 0. -1.
         11   -1    0    0    0    0 -0.00000000000E+00 -0.00000000000E+00 -0.45593999997E+02  0.45594000000E+02  0.51100000000E-03 0.  1.
    9900012    2    1    2    0    0  0.40199424043E+02  0.60566781346E+01 -0.69920667233E+00  0.50528856706E+02  0.29999990443E+02 0.  0.
         12    1    1    2    0    0 -0.40199424043E+02 -0.60566781346E+01  0.69920667233E+00  0.40659143294E+02  0.00000000000E+00 0. -1.
         11    1    3    3    0    0  0.22711407128E+02 -0.33922230251E+00  0.10991210691E+02  0.25233505468E+02  0.51100000000E-03 0. -1.
        -11    1    3    3    0    0  0.22111044646E+01 -0.23717257686E+01 -0.59382140332E+01  0.67658297525E+01  0.51100000000E-03 0.  1.
        -12    1    3    3    0    0  0.15276912451E+02  0.87676262057E+01 -0.57522033299E+01  0.18529521485E+02  0.00000000000E+00 0.  1.
</event>
<event>
 7    1  0.2500839E-011  0.5052886E+02  0.7816164E-02  0.1300439E+00
        -11   -1    0    0    0    0  0.00000000000E+00  0.00000000000E+00  0.45593999997E+02  0.45594000000E+02  0.51100000000E-03 0.  1.
         11   -1    0    0    0    0 -0.00000000000E+00 -0.00000000000E+00 -0.45593999997E+02  0.45594000000E+02  0.51100000000E-03 0. -1.
    9900012    2    1    2    0    0 -0.19281066790E+02  0.35646978044E+02  0.32709509424E+01  0.50528859572E+02  0.29999999156E+02 0.  0.
         12    1    1    2    0    0  0.19281066790E+02 -0.35646978044E+02 -0.32709509424E+01  0.40659140428E+02  0.00000000000E+00 0. -1.
         11    1    3    3    0    0  0.75808473089E-01  0.19522304621E+02 -0.34505191878E+01  0.19825039913E+02  0.51100000000E-03 0. -1.
        -11    1    3    3    0    0 -0.95124164194E+01  0.15025925222E+02 -0.14776624218E+01  0.17845110854E+02  0.51100000000E-03 0.  1.
         12    1    3    3    0    0 -0.98444588433E+01  0.10987482020E+01  0.81991325520E+01  0.12858708805E+02  0.00000000000E+00 0. -1.
</event>
<event>
 7    1  0.2500839E-011  0.5052887E+02  0.7816164E-02  0.1300439E+00
        -11   -1    0    0    0    0  0.00000000000E+00  0.00000000000E+00  0.45593999997E+02  0.45594000000E+02  0.51100000000E-03 0. -1.
         11   -1    0    0    0    0 -0.00000000000E+00 -0.00000000000E+00 -0.45593999997E+02  0.45594000000E+02  0.51100000000E-03 0.  1.
    9900012    2    1    2    0    0  0.17301833039E+02  0.15188811902E+02 -0.33512852336E+02  0.50528871810E+02  0.30000036353E+02 0.  0.
         12    1    1    2    0    0 -0.17301833039E+02 -0.15188811902E+02  0.33512852336E+02  0.40659128190E+02  0.00000000000E+00 0. -1.
         11    1    3    3    0    0  0.47659244236E+01  0.11828846441E+00 -0.18295350322E+02  0.18906291848E+02  0.51100000000E-03 0. -1.
        -11    1    3    3    0    0  0.17756204888E+02  0.11545639849E+02 -0.13415009675E+02  0.25070841557E+02  0.51100000000E-03 0.  1.
         12    1    3    3    0    0 -0.52202962727E+01  0.35248835884E+01 -0.18024923390E+01  0.65517384043E+01  0.00000000000E+00 0. -1.
</event>
<event>
 7    1  0.2500839E-011  0.5052886E+02  0.7816164E-02  0.1300439E+00
        -11   -1    0    0    0    0  0.00000000000E+00  0.00000000000E+00  0.45593999997E+02  0.45594000000E+02  0.51100000000E-03 0. -1.
         11   -1    0    0    0    0 -0.00000000000E+00 -0.00000000000E+00 -0.45593999997E+02  0.45594000000E+02  0.51100000000E-03 0.  1.
    9900012    2    1    2    0    0  0.28489681225E+02 -0.28899676129E+02  0.25124744163E+01  0.50528859031E+02  0.29999997510E+02 0.  0.
         12    1    1    2    0    0 -0.28489681225E+02  0.28899676129E+02 -0.25124744163E+01  0.40659140969E+02  0.00000000000E+00 0. -1.
         11    1    3    3    0    0  0.75470088098E+01  0.14171779372E+01 -0.51535099276E+01  0.92479403175E+01  0.51100000000E-03 0. -1.
        -11    1    3    3    0    0  0.21482450486E+02 -0.17428224594E+02  0.52242355656E+01  0.28151932951E+02  0.51100000000E-03 0.  1.
         12    1    3    3    0    0 -0.53977807105E+00 -0.12888629472E+02  0.24417487783E+01  0.13128985762E+02  0.00000000000E+00 0. -1.
</event>
<event>
 7    1  0.2500839E-011  0.5052885E+02  0.7816164E-02  0.1300439E+00
        -11   -1    0    0    0    0  0.00000000000E+00  0.00000000000E+00  0.45593999997E+02  0.45594000000E+02  0.51100000000E-03 0.  1.
         11   -1    0    0    0    0 -0.00000000000E+00 -0.00000000000E+00 -0.45593999997E+02  0.45594000000E+02  0.51100000000E-03 0. -1.
    9900012    2    1    2    0    0  0.16957842027E+02  0.20589835693E+02  0.30686422486E+02  0.50528852627E+02  0.29999978045E+02 0.  0.
         12    1    1    2    0    0 -0.16957842027E+02 -0.20589835693E+02 -0.30686422486E+02  0.40659147373E+02  0.00000000000E+00 0. -1.
         11    1    3    3    0    0 -0.12742236663E+01  0.10891465077E+01  0.51677856563E+01  0.54328532943E+01  0.51100000000E-03 0. -1.
        -11    1    3    3    0    0 -0.26515448966E+01  0.15678958287E+02  0.12081638939E+02  0.19970639024E+02  0.51100000000E-03 0.  1.
        -12    1    3    3    0    0  0.20883610590E+02  0.38217308986E+01  0.13436997891E+02  0.25125360309E+02  0.00000000000E+00 0.  1.
</event>
<event>
 7    1  0.2500839E-011  0.5052884E+02  0.7816164E-02  0.1300439E+00
        -11   -1    0    0    0    0  0.00000000000E+00  0.00000000000E+00  0.45593999997E+02  0.45594000000E+02  0.51100000000E-03 0.  1.
         11   -1    0    0    0    0 -0.00000000000E+00 -0.00000000000E+00 -0.45593999997E+02  0.45594000000E+02  0.51100000000E-03 0. -1.
    9900012    2    1    2    0    0  0.20491276518E+01  0.39733159538E+02  0.83811859839E+01  0.50528841506E+02  0.29999944241E+02 0.  0.
         12    1    1    2    0    0 -0.20491276518E+01 -0.39733159538E+02 -0.83811859839E+01  0.40659158494E+02  0.00000000000E+00 0. -1.
         11    1    3    3    0    0  0.25283038830E+01 -0.17975436417E+01  0.58933577496E+01  0.66599661782E+01  0.51100000000E-03 0. -1.
        -11    1    3    3    0    0  0.31913724571E+01  0.14289912694E+02  0.66273080621E+01  0.16071953067E+02  0.51100000000E-03 0.  1.
         12    1    3    3    0    0 -0.36705486884E+01  0.27240790485E+02 -0.41394798279E+01  0.27796922261E+02  0.00000000000E+00 0. -1.
</event>
<event>
 7    1  0.2500839E-011  0.5052887E+02  0.7816164E-02  0.1300439E+00
        -11   -1    0    0    0    0  0.00000000000E+00  0.00000000000E+00  0.45593999997E+02  0.45594000000E+02  0.51100000000E-03 0.  1.
         11   -1    0    0    0    0 -0.00000000000E+00 -0.00000000000E+00 -0.45593999997E+02  0.45594000000E+02  0.51100000000E-03 0. -1.
    9900012    2    1    2    0    0 -0.28394693056E+02  0.25580420065E+01  0.28989015458E+02  0.50528865849E+02  0.30000018236E+02 0.  0.
         12    1    1    2    0    0  0.28394693056E+02 -0.25580420065E+01 -0.28989015458E+02  0.40659134151E+02  0.00000000000E+00 0. -1.
         11    1    3    3    0    0 -0.87514365209E+01 -0.93889721064E+01  0.16196152150E+02  0.20665328043E+02  0.51100000000E-03 0. -1.
        -11    1    3    3    0    0 -0.69778655636E+01 -0.12803717435E+01  0.84670328717E+01  0.11046293747E+02  0.51100000000E-03 0.  1.
         12    1    3    3    0    0 -0.12665390971E+02  0.13227385856E+02  0.43258304369E+01  0.18817244060E+02  0.00000000000E+00 0. -1.
</event>
<event>
 7    1  0.2500839E-011  0.5052886E+02  0.7816164E-02  0.1300439E+00
        -11   -1    0    0    0    0  0.00000000000E+00  0.00000000000E+00  0.45593999997E+02  0.45594000000E+02  0.51100000000E-03 0.  1.
         11   -1    0    0    0    0 -0.00000000000E+00 -0.00000000000E+00 -0.45593999997E+02  0.45594000000E+02  0.51100000000E-03 0. -1.
    9900012    2    1    2    0    0  0.34753310331E+02  0.21075567620E+02 -0.10924153270E+01  0.50528862027E+02  0.30000006618E+02 0.  0.
         12    1    1    2    0    0 -0.34753310331E+02 -0.21075567620E+02  0.10924153270E+01  0.40659137973E+02  0.00000000000E+00 0. -1.
         11    1    3    3    0    0  0.62955209649E+01  0.31770480572E+01 -0.94982646894E+01  0.11829803504E+02  0.51100000000E-03 0. -1.
        -11    1    3    3    0    0  0.14372256769E+02 -0.74735057670E+00  0.26700822322E+01  0.14637268765E+02  0.51100000000E-03 0.  1.
        -12    1    3    3    0    0  0.14085532597E+02  0.18645870139E+02  0.57357671302E+01  0.24061789758E+02  0.00000000000E+00 0.  1.
</event>
<event>
 7    1  0.2500839E-011  0.5052886E+02  0.7816164E-02  0.1300439E+00
        -11   -1    0    0    0    0  0.00000000000E+00  0.00000000000E+00  0.45593999997E+02  0.45594000000E+02  0.51100000000E-03 0.  1.
         11   -1    0    0    0    0 -0.00000000000E+00 -0.00000000000E+00 -0.45593999997E+02  0.45594000000E+02  0.51100000000E-03 0. -1.
    9900012    2    1    2    0    0  0.39803699500E+02  0.13141034045E+00 -0.82954249544E+01  0.50528857882E+02  0.29999994018E+02 0.  0.
         12    1    1    2    0    0 -0.39803699500E+02 -0.13141034045E+00  0.82954249544E+01  0.40659142118E+02  0.00000000000E+00 0. -1.
         11    1    3    3    0    0  0.19791880531E+02  0.91381641430E+01 -0.11878610192E+02  0.24825913059E+02  0.51100000000E-03 0. -1.
        -11    1    3    3    0    0  0.44849632119E+01  0.17178676562E+01 -0.30627975430E+01  0.56961999040E+01  0.51100000000E-03 0.  1.
         12    1    3    3    0    0  0.15526855758E+02 -0.10724621459E+02  0.66459827803E+01  0.20006744919E+02  0.00000000000E+00 0. -1.
</event>
<event>
 7    1  0.2500839E-011  0.5052886E+02  0.7816164E-02  0.1300439E+00
        -11   -1    0    0    0    0  0.00000000000E+00  0.00000000000E+00  0.45593999997E+02  0.45594000000E+02  0.51100000000E-03 0. -1.
         11   -1    0    0    0    0 -0.00000000000E+00 -0.00000000000E+00 -0.45593999997E+02  0.45594000000E+02  0.51100000000E-03 0.  1.
    9900012    2    1    2    0    0  0.32271022550E+02 -0.12927104319E+02 -0.21086420532E+02  0.50528855231E+02  0.29999985959E+02 0.  0.
         12    1    1    2    0    0 -0.32271022550E+02  0.12927104319E+02  0.21086420532E+02  0.40659144769E+02  0.00000000000E+00 0. -1.
         11    1    3    3    0    0  0.32159694723E+02 -0.69242706926E+01 -0.85542198630E+01  0.33990677649E+02  0.51100000000E-03 0. -1.
        -11    1    3    3    0    0 -0.19135420059E+01 -0.26742970374E+01  0.12917448138E+00  0.32909260034E+01  0.51100000000E-03 0.  1.
        -12    1    3    3    0    0  0.20248698330E+01 -0.33285365890E+01 -0.12661375151E+02  0.13247251578E+02  0.00000000000E+00 0.  1.
</event>
<event>
 7    1  0.2500839E-011  0.5052885E+02  0.7816164E-02  0.1300439E+00
        -11   -1    0    0    0    0  0.00000000000E+00  0.00000000000E+00  0.45593999997E+02  0.45594000000E+02  0.51100000000E-03 0.  1.
         11   -1    0    0    0    0 -0.00000000000E+00 -0.00000000000E+00 -0.45593999997E+02  0.45594000000E+02  0.51100000000E-03 0. -1.
    9900012    2    1    2    0    0 -0.70656359106E+00 -0.33600489055E+02 -0.22883927924E+02  0.50528852762E+02  0.29999978456E+02 0.  0.
         12    1    1    2    0    0  0.70656359106E+00  0.33600489055E+02  0.22883927924E+02  0.40659147238E+02  0.00000000000E+00 0. -1.
         11    1    3    3    0    0 -0.44688516031E+01  0.99260817550E+00 -0.87135765181E+01  0.98428817751E+01  0.51100000000E-03 0. -1.
        -11    1    3    3    0    0 -0.18443028547E+01 -0.67879635479E+01  0.28690756346E+01  0.75966767343E+01  0.51100000000E-03 0.  1.
        -12    1    3    3    0    0  0.56065908668E+01 -0.27805133683E+02 -0.17039427041E+02  0.33089294253E+02  0.00000000000E+00 0.  1.
</event>
<event>
 7    1  0.2500839E-011  0.5052886E+02  0.7816164E-02  0.1300439E+00
        -11   -1    0    0    0    0  0.00000000000E+00  0.00000000000E+00  0.45593999997E+02  0.45594000000E+02  0.51100000000E-03 0. -1.
         11   -1    0    0    0    0 -0.00000000000E+00 -0.00000000000E+00 -0.45593999997E+02  0.45594000000E+02  0.51100000000E-03 0.  1.
    9900012    2    1    2    0    0 -0.68774154385E+01  0.35074709894E+02 -0.19381208774E+02  0.50528863624E+02  0.30000011472E+02 0.  0.
         12    1    1    2    0    0  0.68774154385E+01 -0.35074709894E+02  0.19381208774E+02  0.40659136376E+02  0.00000000000E+00 0. -1.
         11    1    3    3    0    0 -0.12841368653E+02  0.11467463561E+02 -0.85474244537E+01  0.19221392626E+02  0.51100000000E-03 0. -1.
        -11    1    3    3    0    0  0.14517029554E+01 -0.14267607862E+00 -0.66068345112E+01  0.67659485997E+01  0.51100000000E-03 0.  1.
         12    1    3    3    0    0  0.45122502592E+01  0.23749922412E+02 -0.42269498092E+01  0.24541522399E+02  0.00000000000E+00 0. -1.
</event>
<event>
 7    1  0.2500839E-011  0.5052886E+02  0.7816164E-02  0.1300439E+00
        -11   -1    0    0    0    0  0.00000000000E+00  0.00000000000E+00  0.45593999997E+02  0.45594000000E+02  0.51100000000E-03 0.  1.
         11   -1    0    0    0    0 -0.00000000000E+00 -0.00000000000E+00 -0.45593999997E+02  0.45594000000E+02  0.51100000000E-03 0. -1.
    9900012    2    1    2    0    0  0.12928596319E+02  0.27956652045E+02  0.26541341458E+02  0.50528858313E+02  0.29999995329E+02 0.  0.
         12    1    1    2    0    0 -0.12928596319E+02 -0.27956652045E+02 -0.26541341458E+02  0.40659141687E+02  0.00000000000E+00 0. -1.
         11    1    3    3    0    0 -0.85353183461E+01  0.11924357236E+02  0.88999493667E+01  0.17153747514E+02  0.51100000000E-03 0. -1.
        -11    1    3    3    0    0  0.16163058861E+01 -0.11189271192E+01  0.21392707357E+01  0.29053265147E+01  0.51100000000E-03 0.  1.
        -12    1    3    3    0    0  0.19847608779E+02  0.17151221928E+02  0.15502121356E+02  0.30469784285E+02  0.00000000000E+00 0.  1.
</event>
<event>
 7    1  0.2500839E-011  0.5052886E+02  0.7816164E-02  0.1300439E+00
        -11   -1    0    0    0    0  0.00000000000E+00  0.00000000000E+00  0.45593999997E+02  0.45594000000E+02  0.51100000000E-03 0. -1.
         11   -1    0    0    0    0 -0.00000000000E+00 -0.00000000000E+00 -0.45593999997E+02  0.45594000000E+02  0.51100000000E-03 0.  1.
    9900012    2    1    2    0    0 -0.35520200333E+02  0.17888092617E+02 -0.84556000343E+01  0.50528860055E+02  0.30000000622E+02 0.  0.
         12    1    1    2    0    0  0.35520200333E+02 -0.17888092617E+02  0.84556000343E+01  0.40659139945E+02  0.00000000000E+00 0. -1.
         11    1    3    3    0    0 -0.55120331486E+01  0.14731842150E+02  0.48472649047E+00  0.15736729094E+02  0.51100000000E-03 0. -1.
        -11    1    3    3    0    0 -0.91333062927E+01  0.67002832909E+01 -0.74674775153E+01  0.13567398451E+02  0.51100000000E-03 0.  1.
         12    1    3    3    0    0 -0.20874860892E+02 -0.35440328237E+01 -0.14728490095E+01  0.21224732510E+02  0.00000000000E+00 0. -1.
</event>
<event>
 7    1  0.2500839E-011  0.5052886E+02  0.7816164E-02  0.1300439E+00
        -11   -1    0    0    0    0  0.00000000000E+00  0.00000000000E+00  0.45593999997E+02  0.45594000000E+02  0.51100000000E-03 0. -1.
         11   -1    0    0    0    0 -0.00000000000E+00 -0.00000000000E+00 -0.45593999997E+02  0.45594000000E+02  0.51100000000E-03 0.  1.
    9900012    2    1    2    0    0  0.23901495039E+02 -0.32607255474E+02 -0.43186781999E+01  0.50528861347E+02  0.30000004549E+02 0.  0.
         12    1    1    2    0    0 -0.23901495039E+02  0.32607255474E+02  0.43186781999E+01  0.40659138653E+02  0.00000000000E+00 0. -1.
         11    1    3    3    0    0  0.14025453362E+02 -0.84262210136E+01  0.36932094385E+01  0.16773620325E+02  0.51100000000E-03 0. -1.
        -11    1    3    3    0    0  0.50269099416E+01  0.24216097420E+01 -0.26948681603E+01  0.61964773836E+01  0.51100000000E-03 0.  1.
        -12    1    3    3    0    0  0.48491317352E+01 -0.26602644203E+02 -0.53170194781E+01  0.27558763639E+02  0.00000000000E+00 0.  1.
</event>
<event>
 7    1  0.2500839E-011  0.5052886E+02  0.7816164E-02  0.1300439E+00
        -11   -1    0    0    0    0  0.00000000000E+00  0.00000000000E+00  0.45593999997E+02  0.45594000000E+02  0.51100000000E-03 0.  1.
         11   -1    0    0    0    0 -0.00000000000E+00 -0.00000000000E+00 -0.45593999997E+02  0.45594000000E+02  0.51100000000E-03 0. -1.
    9900012    2    1    2    0    0 -0.36838447492E+02 -0.12726744757E+02  0.11581196120E+02  0.50528863889E+02  0.30000012278E+02 0.  0.
         12    1    1    2    0    0  0.36838447492E+02  0.12726744757E+02 -0.11581196120E+02  0.40659136111E+02  0.00000000000E+00 0. -1.
         11    1    3    3    0    0 -0.21922641941E+01 -0.21660611443E+01 -0.48832655503E+01  0.57744372776E+01  0.51100000000E-03 0. -1.
        -11    1    3    3    0    0 -0.40881468791E+01 -0.92851318851E+01  0.82757209576E+01  0.13092523693E+02  0.51100000000E-03 0.  1.
        -12    1    3    3    0    0 -0.30558036418E+02 -0.12755517279E+01  0.81887407126E+01  0.31661902918E+02  0.00000000000E+00 0.  1.
</event>
<event>
 7    1  0.2500839E-011  0.5052885E+02  0.7816164E-02  0.1300439E+00
        -11   -1    0    0    0    0  0.00000000000E+00  0.00000000000E+00  0.45593999997E+02  0.45594000000E+02  0.51100000000E-03 0.  1.
         11   -1    0    0    0    0 -0.00000000000E+00 -0.00000000000E+00 -0.45593999997E+02  0.45594000000E+02  0.51100000000E-03 0. -1.
    9900012    2    1    2    0    0  0.25471182358E+02  0.24662266943E+02  0.19903707313E+02  0.50528854580E+02  0.29999983981E+02 0.  0.
         12    1    1    2    0    0 -0.25471182358E+02 -0.24662266943E+02 -0.19903707313E+02  0.40659145420E+02  0.00000000000E+00 0. -1.
         11    1    3    3    0    0  0.34737900710E+01  0.11388166003E+02  0.92214425403E+01  0.15059632969E+02  0.51100000000E-03 0. -1.
        -11    1    3    3    0    0  0.99042576089E+01  0.49610469985E+01  0.16340544471E+02  0.19741319611E+02  0.51100000000E-03 0.  1.
         12    1    3    3    0    0  0.12093134678E+02  0.83130539419E+01 -0.56582796984E+01  0.15727902000E+02  0.00000000000E+00 0. -1.
</event>
<event>
 7    1  0.2500839E-011  0.5052887E+02  0.7816164E-02  0.1300439E+00
        -11   -1    0    0    0    0  0.00000000000E+00  0.00000000000E+00  0.45593999997E+02  0.45594000000E+02  0.51100000000E-03 0. -1.
         11   -1    0    0    0    0 -0.00000000000E+00 -0.00000000000E+00 -0.45593999997E+02  0.45594000000E+02  0.51100000000E-03 0.  1.
    9900012    2    1    2    0    0  0.28532584080E+02 -0.26385674605E+02 -0.11952110939E+02  0.50528866530E+02  0.30000020304E+02 0.  0.
         12    1    1    2    0    0 -0.28532584080E+02  0.26385674605E+02  0.11952110939E+02  0.40659133470E+02  0.00000000000E+00 0. -1.
         11    1    3    3    0    0  0.15907929619E+02 -0.15178436240E+02  0.33447323856E+01  0.22240377390E+02  0.51100000000E-03 0. -1.
        -11    1    3    3    0    0  0.16276073936E+02 -0.88253476328E+01 -0.88885873605E+01  0.20537875477E+02  0.51100000000E-03 0.  1.
        -12    1    3    3    0    0 -0.36514194743E+01 -0.23818907321E+01 -0.64082559646E+01  0.77506136625E+01  0.00000000000E+00 0.  1.
</event>
<event>
 7    1  0.2500839E-011  0.5052886E+02  0.7816164E-02  0.1300439E+00
        -11   -1    0    0    0    0  0.00000000000E+00  0.00000000000E+00  0.45593999997E+02  0.45594000000E+02  0.51100000000E-03 0.  1.
         11   -1    0    0    0    0 -0.00000000000E+00 -0.00000000000E+00 -0.45593999997E+02  0.45594000000E+02  0.51100000000E-03 0. -1.
    9900012    2    1    2    0    0  0.19981535298E+02 -0.26019056686E+02  0.24019004025E+02  0.50528860584E+02  0.30000002230E+02 0.  0.
         12    1    1    2    0    0 -0.19981535298E+02  0.26019056686E+02 -0.24019004025E+02  0.40659139416E+02  0.00000000000E+00 0. -1.
         11    1    3    3    0    0 -0.27207205656E+01 -0.76287894397E+01  0.36393431988E+01  0.88795026826E+01  0.51100000000E-03 0. -1.
        -11    1    3    3    0    0  0.21023738306E+02 -0.23105425955E+02  0.16584170920E+02  0.35367965821E+02  0.51100000000E-03 0.  1.
         12    1    3    3    0    0  0.16785175576E+01  0.47151587083E+01  0.37954899062E+01  0.62813920801E+01  0.00000000000E+00 0. -1.
</event>
<event>
 7    1  0.2500839E-011  0.5052879E+02  0.7816164E-02  0.1300439E+00
        -11   -1    0    0    0    0  0.00000000000E+00  0.00000000000E+00  0.45593999997E+02  0.45594000000E+02  0.51100000000E-03 0. -1.
         11   -1    0    0    0    0 -0.00000000000E+00 -0.00000000000E+00 -0.45593999997E+02  0.45594000000E+02  0.51100000000E-03 0.  1.
    9900012    2    1    2    0    0  0.11946012222E+02  0.37659510180E+02 -0.96033899330E+01  0.50528794238E+02  0.29999800566E+02 0.  0.
         12    1    1    2    0    0 -0.11946012222E+02 -0.37659510180E+02  0.96033899330E+01  0.40659205762E+02  0.00000000000E+00 0. -1.
         11    1    3    3    0    0 -0.27868488541E+01  0.50233777188E+00 -0.49864175107E+01  0.57343900830E+01  0.51100000000E-03 0. -1.
        -11    1    3    3    0    0  0.96422681211E+01  0.37959938563E+02 -0.25713035268E+01  0.39249737226E+02  0.51100000000E-03 0.  1.
         12    1    3    3    0    0  0.50905929548E+01 -0.80276615483E+00 -0.20456688955E+01  0.55446669296E+01  0.00000000000E+00 0. -1.
</event>
<event>
 7    1  0.2514086E-011  0.5052890E+02  0.7816164E-02  0.1300439E+00
        -11   -1    0    0    0    0  0.00000000000E+00  0.00000000000E+00  0.45593999997E+02  0.45594000000E+02  0.51100000000E-03 0. -1.
         11   -1    0    0    0    0 -0.00000000000E+00 -0.00000000000E+00 -0.45593999997E+02  0.45594000000E+02  0.51100000000E-03 0.  1.
    9900012    2    1    2    0    0 -0.25177090630E+02 -0.22634659820E+02  0.22515522027E+02  0.50528899544E+02  0.30000120652E+02 0.  0.
         12    1    1    2    0    0  0.25177090630E+02  0.22634659820E+02 -0.22515522027E+02  0.40659100456E+02  0.00000000000E+00 0. -1.
         11    1    3    3    0    0  0.40959589184E+01 -0.51185211129E+01 -0.15832312032E+01  0.67440906836E+01  0.51100000000E-03 0. -1.
        -11    1    3    3    0    0 -0.17488764159E+02 -0.41607490498E+01  0.76383087264E+01  0.19532344072E+02  0.51100000000E-03 0.  1.
        -12    1    3    3    0    0 -0.11784285389E+02 -0.13355389658E+02  0.16460444504E+02  0.24252464788E+02  0.00000000000E+00 0.  1.
</event>
<event>
 7    1  0.2500839E-011  0.5052884E+02  0.7816164E-02  0.1300439E+00
        -11   -1    0    0    0    0  0.00000000000E+00  0.00000000000E+00  0.45593999997E+02  0.45594000000E+02  0.51100000000E-03 0.  1.
         11   -1    0    0    0    0 -0.00000000000E+00 -0.00000000000E+00 -0.45593999997E+02  0.45594000000E+02  0.51100000000E-03 0. -1.
    9900012    2    1    2    0    0  0.81598304005E+01 -0.39225996802E+02  0.69213673463E+01  0.50528843796E+02  0.29999951203E+02 0.  0.
         12    1    1    2    0    0 -0.81598304005E+01  0.39225996802E+02 -0.69213673463E+01  0.40659156204E+02  0.00000000000E+00 0. -1.
         11    1    3    3    0    0 -0.31154634755E+01  0.70291371711E+00  0.80885070133E+01  0.86962144826E+01  0.51100000000E-03 0. -1.
        -11    1    3    3    0    0  0.27218393713E+01 -0.55143132940E+01  0.12996809436E+01  0.62853187257E+01  0.51100000000E-03 0.  1.
         12    1    3    3    0    0  0.85534545047E+01 -0.34414597225E+02 -0.24668206106E+01  0.35547310588E+02  0.00000000000E+00 0. -1.
</event>
<event>
 7    1  0.2500839E-011  0.5052885E+02  0.7816164E-02  0.1300439E+00
        -11   -1    0    0    0    0  0.00000000000E+00  0.00000000000E+00  0.45593999997E+02  0.45594000000E+02  0.51100000000E-03 0. -1.
         11   -1    0    0    0    0 -0.00000000000E+00 -0.00000000000E+00 -0.45593999997E+02  0.45594000000E+02  0.51100000000E-03 0.  1.
    9900012    2    1    2    0    0 -0.26532416210E+02  0.22742158232E+02 -0.20784398256E+02  0.50528854880E+02  0.29999984894E+02 0.  0.
         12    1    1    2    0    0  0.26532416210E+02 -0.22742158232E+02  0.20784398256E+02  0.40659145120E+02  0.00000000000E+00 0. -1.
         11    1    3    3    0    0 -0.67624518868E+01 -0.14853980469E+01  0.31959568209E+01  0.76257001738E+01  0.51100000000E-03 0. -1.
        -11    1    3    3    0    0 -0.14541295896E+02  0.86421351722E+01 -0.19600775039E+02  0.25890657950E+02  0.51100000000E-03 0.  1.
         12    1    3    3    0    0 -0.52286684271E+01  0.15585421106E+02 -0.43795800384E+01  0.17012496757E+02  0.00000000000E+00 0. -1.
</event>
<event>
 7    1  0.2500839E-011  0.5052886E+02  0.7816164E-02  0.1300439E+00
        -11   -1    0    0    0    0  0.00000000000E+00  0.00000000000E+00  0.45593999997E+02  0.45594000000E+02  0.51100000000E-03 0. -1.
         11   -1    0    0    0    0 -0.00000000000E+00 -0.00000000000E+00 -0.45593999997E+02  0.45594000000E+02  0.51100000000E-03 0.  1.
    9900012    2    1    2    0    0  0.14966991461E+02 -0.95504580005E+01 -0.36577907945E+02  0.50528862884E+02  0.30000009222E+02 0.  0.
         12    1    1    2    0    0 -0.14966991461E+02  0.95504580005E+01  0.36577907945E+02  0.40659137116E+02  0.00000000000E+00 0. -1.
         11    1    3    3    0    0  0.46442510443E+01  0.58554663559E+01 -0.12005051420E+02  0.14141315846E+02  0.51100000000E-03 0. -1.
        -11    1    3    3    0    0  0.11225069815E+02 -0.18599947719E+02 -0.24908742192E+02  0.33051561012E+02  0.51100000000E-03 0.  1.
         12    1    3    3    0    0 -0.90232939869E+00  0.31940233624E+01  0.33588566674E+00  0.33359860258E+01  0.00000000000E+00 0. -1.
</event>
<event>
 7    1  0.2500839E-011  0.5052887E+02  0.7816164E-02  0.1300439E+00
        -11   -1    0    0    0    0  0.00000000000E+00  0.00000000000E+00  0.45593999997E+02  0.45594000000E+02  0.51100000000E-03 0. -1.
         11   -1    0    0    0    0 -0.00000000000E+00 -0.00000000000E+00 -0.45593999997E+02  0.45594000000E+02  0.51100000000E-03 0.  1.
    9900012    2    1    2    0    0  0.38440803893E+01 -0.40274469504E+02 -0.40441339945E+01  0.50528869812E+02  0.30000030281E+02 0.  0.
         12    1    1    2    0    0 -0.38440803893E+01  0.40274469504E+02  0.40441339945E+01  0.40659130188E+02  0.00000000000E+00 0. -1.
         11    1    3    3    0    0  0.10395977940E+02 -0.66523689524E+01 -0.28888524463E+01  0.12675797361E+02  0.51100000000E-03 0. -1.
        -11    1    3    3    0    0  0.31908911094E+01 -0.16177197012E+02 -0.55433586368E+01  0.17395755646E+02  0.51100000000E-03 0.  1.
        -12    1    3    3    0    0 -0.97427886601E+01 -0.17444903539E+02  0.43880770886E+01  0.20457316806E+02  0.00000000000E+00 0.  1.
</event>
<event>
 7    1  0.2500839E-011  0.5052885E+02  0.7816164E-02  0.1300439E+00
        -11   -1    0    0    0    0  0.00000000000E+00  0.00000000000E+00  0.45593999997E+02  0.45594000000E+02  0.51100000000E-03 0. -1.
         11   -1    0    0    0    0 -0.00000000000E+00 -0.00000000000E+00 -0.45593999997E+02  0.45594000000E+02  0.51100000000E-03 0.  1.
    9900012    2    1    2    0    0 -0.24093294730E+02  0.29417340550E+02 -0.14397895985E+02  0.50528853614E+02  0.29999981046E+02 0.  0.
         12    1    1    2    0    0  0.24093294730E+02 -0.29417340550E+02  0.14397895985E+02  0.40659146386E+02  0.00000000000E+00 0. -1.
         11    1    3    3    0    0 -0.15281719034E+02  0.23685851046E+02 -0.11431159262E+02  0.30417460097E+02  0.51100000000E-03 0. -1.
        -11    1    3    3    0    0 -0.46912573370E+01  0.50570561763E+01 -0.98713188519E+01  0.12042618017E+02  0.51100000000E-03 0.  1.
         12    1    3    3    0    0 -0.41203183592E+01  0.67443332824E+00  0.69045821291E+01  0.80687755002E+01  0.00000000000E+00 0. -1.
</event>
<event>
 7    1  0.2500839E-011  0.5052880E+02  0.7816164E-02  0.1300439E+00
        -11   -1    0    0    0    0  0.00000000000E+00  0.00000000000E+00  0.45593999997E+02  0.45594000000E+02  0.51100000000E-03 0.  1.
         11   -1    0    0    0    0 -0.00000000000E+00 -0.00000000000E+00 -0.45593999997E+02  0.45594000000E+02  0.51100000000E-03 0. -1.
    9900012    2    1    2    0    0  0.21932396659E+02 -0.19411365119E+02  0.28201761265E+02  0.50528801072E+02  0.29999821339E+02 0.  0.
         12    1    1    2    0    0 -0.21932396659E+02  0.19411365119E+02 -0.28201761265E+02  0.40659198928E+02  0.00000000000E+00 0. -1.
         11    1    3    3    0    0 -0.11437225388E+01 -0.33823383883E+01  0.10589390551E+02  0.11175128935E+02  0.51100000000E-03 0.  1.
        -11    1    3    3    0    0 -0.42627891704E+00  0.89408784955E+00 -0.34202936433E+01  0.35608307550E+01  0.51100000000E-03 0. -1.
         12    1    3    3    0    0  0.23502398115E+02 -0.16923114580E+02  0.21032664357E+02  0.35792841382E+02  0.00000000000E+00 0. -1.
</event>
<event>
 7    1  0.2500839E-011  0.5052886E+02  0.7816164E-02  0.1300439E+00
        -11   -1    0    0    0    0  0.00000000000E+00  0.00000000000E+00  0.45593999997E+02  0.45594000000E+02  0.51100000000E-03 0.  1.
         11   -1    0    0    0    0 -0.00000000000E+00 -0.00000000000E+00 -0.45593999997E+02  0.45594000000E+02  0.51100000000E-03 0. -1.
    9900012    2    1    2    0    0  0.12752210784E+02 -0.28178386803E+02  0.26391771715E+02  0.50528856170E+02  0.29999988814E+02 0.  0.
         12    1    1    2    0    0 -0.12752210784E+02  0.28178386803E+02 -0.26391771715E+02  0.40659143830E+02  0.00000000000E+00 0. -1.
         11    1    3    3    0    0  0.16646046087E+01 -0.19232061710E+02  0.21932915265E+02  0.29218074516E+02  0.51100000000E-03 0.  1.
        -11    1    3    3    0    0  0.45234956479E+01 -0.12555165724E+02  0.30336902169E+01  0.13685666802E+02  0.51100000000E-03 0. -1.
         12    1    3    3    0    0  0.65641105279E+01  0.36088406302E+01  0.14251662331E+01  0.76251148522E+01  0.00000000000E+00 0. -1.
</event>
<event>
 7    1  0.2500839E-011  0.5052891E+02  0.7816164E-02  0.1300439E+00
        -11   -1    0    0    0    0  0.00000000000E+00  0.00000000000E+00  0.45593999997E+02  0.45594000000E+02  0.51100000000E-03 0.  1.
         11   -1    0    0    0    0 -0.00000000000E+00 -0.00000000000E+00 -0.45593999997E+02  0.45594000000E+02  0.51100000000E-03 0. -1.
    9900012    2    1    2    0    0 -0.29441685117E+02 -0.16698720778E+02  0.22527790980E+02  0.50528911660E+02  0.30000157482E+02 0.  0.
         12    1    1    2    0    0  0.29441685117E+02  0.16698720778E+02 -0.22527790980E+02  0.40659088340E+02  0.00000000000E+00 0. -1.
         11    1    3    3    0    0 -0.19009927850E+02  0.27891856695E+01  0.99028401488E+01  0.21615345402E+02  0.51100000000E-03 0. -1.
        -11    1    3    3    0    0 -0.13190058236E+02 -0.13693505352E+02  0.66416069273E+01  0.20139529983E+02  0.51100000000E-03 0.  1.
        -12    1    3    3    0    0  0.27583009685E+01 -0.57944010959E+01  0.59833439042E+01  0.87740362758E+01  0.00000000000E+00 0.  1.
</event>
<event>
 7    1  0.2500839E-011  0.5052885E+02  0.7816164E-02  0.1300439E+00
        -11   -1    0    0    0    0  0.00000000000E+00  0.00000000000E+00  0.45593999997E+02  0.45594000000E+02  0.51100000000E-03 0. -1.
         11   -1    0    0    0    0 -0.00000000000E+00 -0.00000000000E+00 -0.45593999997E+02  0.45594000000E+02  0.51100000000E-03 0.  1.
    9900012    2    1    2    0    0 -0.14941142443E+02 -0.28276019908E+02 -0.25107673209E+02  0.50528852280E+02  0.29999976989E+02 0.  0.
         12    1    1    2    0    0  0.14941142443E+02  0.28276019908E+02  0.25107673209E+02  0.40659147720E+02  0.00000000000E+00 0. -1.
         11    1    3    3    0    0 -0.31381914845E+01 -0.34772085207E+01 -0.84442468520E+01  0.96563207304E+01  0.51100000000E-03 0. -1.
        -11    1    3    3    0    0  0.66084794321E+01 -0.23202129964E+00 -0.26194642422E+01  0.71124839167E+01  0.51100000000E-03 0.  1.
         12    1    3    3    0    0 -0.18411430391E+02 -0.24566790088E+02 -0.14043962115E+02  0.33760047633E+02  0.00000000000E+00 0. -1.
</event>
<event>
 7    1  0.2500839E-011  0.5052886E+02  0.7816164E-02  0.1300439E+00
        -11   -1    0    0    0    0  0.00000000000E+00  0.00000000000E+00  0.45593999997E+02  0.45594000000E+02  0.51100000000E-03 0.  1.
         11   -1    0    0    0    0 -0.00000000000E+00 -0.00000000000E+00 -0.45593999997E+02  0.45594000000E+02  0.51100000000E-03 0. -1.
    9900012    2    1    2    0    0  0.30934219094E+02  0.11344818204E+02  0.23822990774E+02  0.50528859571E+02  0.29999999151E+02 0.  0.
         12    1    1    2    0    0 -0.30934219094E+02 -0.11344818204E+02 -0.23822990774E+02  0.40659140429E+02  0.00000000000E+00 0. -1.
         11    1    3    3    0    0  0.92937135566E+01 -0.28316983704E+01  0.12953870943E+01  0.98015129097E+01  0.51100000000E-03 0. -1.
        -11    1    3    3    0    0  0.19780864293E+02  0.16047918074E+02  0.91087076705E+01  0.27051558595E+02  0.51100000000E-03 0.  1.
        -12    1    3    3    0    0  0.18596412441E+01 -0.18714015004E+01  0.13418896009E+02  0.13675788066E+02  0.00000000000E+00 0.  1.
</event>
<event>
 7    1  0.2500839E-011  0.5052885E+02  0.7816164E-02  0.1300439E+00
        -11   -1    0    0    0    0  0.00000000000E+00  0.00000000000E+00  0.45593999997E+02  0.45594000000E+02  0.51100000000E-03 0.  1.
         11   -1    0    0    0    0 -0.00000000000E+00 -0.00000000000E+00 -0.45593999997E+02  0.45594000000E+02  0.51100000000E-03 0. -1.
    9900012    2    1    2    0    0 -0.23009587264E+02  0.23459944093E+02  0.23944855283E+02  0.50528853705E+02  0.29999981323E+02 0.  0.
         12    1    1    2    0    0  0.23009587264E+02 -0.23459944093E+02 -0.23944855283E+02  0.40659146295E+02  0.00000000000E+00 0. -1.
         11    1    3    3    0    0  0.18870661803E+01 -0.10437283051E+01 -0.13450935693E+01  0.25415870072E+01  0.51100000000E-03 0. -1.
        -11    1    3    3    0    0 -0.12055789585E+02 -0.10894714860E+01  0.65121112655E+01  0.13745421203E+02  0.51100000000E-03 0.  1.
         12    1    3    3    0    0 -0.12840863859E+02  0.25593143884E+02  0.18777837586E+02  0.34241845496E+02  0.00000000000E+00 0. -1.
</event>
<event>
 7    1  0.2500839E-011  0.5052887E+02  0.7816164E-02  0.1300439E+00
        -11   -1    0    0    0    0  0.00000000000E+00  0.00000000000E+00  0.45593999997E+02  0.45594000000E+02  0.51100000000E-03 0. -1.
         11   -1    0    0    0    0 -0.00000000000E+00 -0.00000000000E+00 -0.45593999997E+02  0.45594000000E+02  0.51100000000E-03 0.  1.
    9900012    2    1    2    0    0 -0.21187149789E+02  0.24115927068E+02 -0.24953791039E+02  0.50528868901E+02  0.30000027510E+02 0.  0.
         12    1    1    2    0    0  0.21187149789E+02 -0.24115927068E+02  0.24953791039E+02  0.40659131099E+02  0.00000000000E+00 0. -1.
         11    1    3    3    0    0  0.34447202074E+01  0.11126379569E+02  0.87208910908E+00  0.11680023942E+02  0.51100000000E-03 0. -1.
        -11    1    3    3    0    0 -0.36013684072E+01  0.40009349162E+01 -0.17957292080E+01  0.56746786921E+01  0.51100000000E-03 0.  1.
        -12    1    3    3    0    0 -0.21030501589E+02  0.89886125832E+01 -0.24030150940E+02  0.33174166267E+02  0.00000000000E+00 0.  1.
</event>
<event>
 7    1  0.2500839E-011  0.5052885E+02  0.7816164E-02  0.1300439E+00
        -11   -1    0    0    0    0  0.00000000000E+00  0.00000000000E+00  0.45593999997E+02  0.45594000000E+02  0.51100000000E-03 0.  1.
         11   -1    0    0    0    0 -0.00000000000E+00 -0.00000000000E+00 -0.45593999997E+02  0.45594000000E+02  0.51100000000E-03 0. -1.
    9900012    2    1    2    0    0  0.63013469040E+01 -0.20521702983E+02  0.34529971695E+02  0.50528853288E+02  0.29999980054E+02 0.  0.
         12    1    1    2    0    0 -0.63013469040E+01  0.20521702983E+02 -0.34529971695E+02  0.40659146712E+02  0.00000000000E+00 0. -1.
         11    1    3    3    0    0 -0.47757371664E+01 -0.31647186643E+01  0.13585038597E+01  0.58880083818E+01  0.51100000000E-03 0. -1.
        -11    1    3    3    0    0  0.67519391034E+01 -0.70951427397E+01  0.15358707231E+00  0.97955766244E+01  0.51100000000E-03 0.  1.
        -12    1    3    3    0    0  0.43251449670E+01 -0.10261841579E+02  0.33017880763E+02  0.34845268282E+02  0.00000000000E+00 0.  1.
</event>
<event>
 7    1  0.2500839E-011  0.5052885E+02  0.7816164E-02  0.1300439E+00
        -11   -1    0    0    0    0  0.00000000000E+00  0.00000000000E+00  0.45593999997E+02  0.45594000000E+02  0.51100000000E-03 0. -1.
         11   -1    0    0    0    0 -0.00000000000E+00 -0.00000000000E+00 -0.45593999997E+02  0.45594000000E+02  0.51100000000E-03 0.  1.
    9900012    2    1    2    0    0  0.33033318870E+02  0.21733012025E+02 -0.94679906191E+01  0.50528845882E+02  0.29999957542E+02 0.  0.
         12    1    1    2    0    0 -0.33033318870E+02 -0.21733012025E+02  0.94679906191E+01  0.40659154118E+02  0.00000000000E+00 0. -1.
         11    1    3    3    0    0  0.16351750813E+01  0.17546500908E+01  0.25770776421E+01  0.35205005215E+01  0.51100000000E-03 0. -1.
        -11    1    3    3    0    0  0.13013989179E+02  0.21784816922E+02 -0.12997724162E+02  0.28511103036E+02  0.51100000000E-03 0.  1.
         12    1    3    3    0    0  0.18384154610E+02 -0.18064549881E+01  0.95265590039E+00  0.18497242324E+02  0.00000000000E+00 0. -1.
</event>
<event>
 7    1  0.2500839E-011  0.5052885E+02  0.7816164E-02  0.1300439E+00
        -11   -1    0    0    0    0  0.00000000000E+00  0.00000000000E+00  0.45593999997E+02  0.45594000000E+02  0.51100000000E-03 0. -1.
         11   -1    0    0    0    0 -0.00000000000E+00 -0.00000000000E+00 -0.45593999997E+02  0.45594000000E+02  0.51100000000E-03 0.  1.
    9900012    2    1    2    0    0  0.86219448993E+01 -0.33625984058E+02 -0.21168882547E+02  0.50528851878E+02  0.29999975768E+02 0.  0.
         12    1    1    2    0    0 -0.86219448993E+01  0.33625984058E+02  0.21168882547E+02  0.40659148122E+02  0.00000000000E+00 0. -1.
         11    1    3    3    0    0  0.37660109058E+01 -0.27296023165E+01  0.17300229111E+01  0.49625141293E+01  0.51100000000E-03 0. -1.
        -11    1    3    3    0    0 -0.53017068707E+01 -0.16561412091E+02 -0.89969909462E+00  0.17412579502E+02  0.51100000000E-03 0.  1.
        -12    1    3    3    0    0  0.10157640864E+02 -0.14334969651E+02 -0.21999206363E+02  0.28153758247E+02  0.00000000000E+00 0.  1.
</event>
<event>
 7    1  0.2500839E-011  0.5052885E+02  0.7816164E-02  0.1300439E+00
        -11   -1    0    0    0    0  0.00000000000E+00  0.00000000000E+00  0.45593999997E+02  0.45594000000E+02  0.51100000000E-03 0. -1.
         11   -1    0    0    0    0 -0.00000000000E+00 -0.00000000000E+00 -0.45593999997E+02  0.45594000000E+02  0.51100000000E-03 0.  1.
    9900012    2    1    2    0    0  0.17805666174E+02  0.36395032355E+02  0.33949997017E+01  0.50528854030E+02  0.29999982310E+02 0.  0.
         12    1    1    2    0    0 -0.17805666174E+02 -0.36395032355E+02 -0.33949997017E+01  0.40659145970E+02  0.00000000000E+00 0. -1.
         11    1    3    3    0    0  0.14143840016E+02  0.13346606467E+02  0.74338604211E+00  0.19461056951E+02  0.51100000000E-03 0. -1.
        -11    1    3    3    0    0  0.38241951671E+01  0.72766517364E+01 -0.84431235173E+01  0.11783906999E+02  0.51100000000E-03 0.  1.
        -12    1    3    3    0    0 -0.16236900938E+00  0.15771774152E+02  0.11094737177E+02  0.19283890080E+02  0.00000000000E+00 0.  1.
</event>
<event>
 7    1  0.2500839E-011  0.5052886E+02  0.7816164E-02  0.1300439E+00
        -11   -1    0    0    0    0  0.00000000000E+00  0.00000000000E+00  0.45593999997E+02  0.45594000000E+02  0.51100000000E-03 0. -1.
         11   -1    0    0    0    0 -0.00000000000E+00 -0.00000000000E+00 -0.45593999997E+02  0.45594000000E+02  0.51100000000E-03 0.  1.
    9900012    2    1    2    0    0 -0.31258857652E+02  0.13486531865E+02 -0.22229780484E+02  0.50528857562E+02  0.29999993044E+02 0.  0.
         12    1    1    2    0    0  0.31258857652E+02 -0.13486531865E+02  0.22229780484E+02  0.40659142438E+02  0.00000000000E+00 0. -1.
         11    1    3    3    0    0 -0.12390897708E+02 -0.39857839579E+01 -0.93356496112E+01  0.16017964093E+02  0.51100000000E-03 0. -1.
        -11    1    3    3    0    0  0.37029512757E+01  0.77078078315E+00 -0.26672046810E+01  0.46281672655E+01  0.51100000000E-03 0.  1.
        -12    1    3    3    0    0 -0.22570911220E+02  0.16701535040E+02 -0.10226926191E+02  0.29882726203E+02  0.00000000000E+00 0.  1.
</event>
<event>
 7    1  0.2500839E-011  0.5052885E+02  0.7816164E-02  0.1300439E+00
        -11   -1    0    0    0    0  0.00000000000E+00  0.00000000000E+00  0.45593999997E+02  0.45594000000E+02  0.51100000000E-03 0.  1.
         11   -1    0    0    0    0 -0.00000000000E+00 -0.00000000000E+00 -0.45593999997E+02  0.45594000000E+02  0.51100000000E-03 0. -1.
    9900012    2    1    2    0    0 -0.23526666092E+02  0.31022755474E+02  0.11715411100E+02  0.50528853036E+02  0.29999979287E+02 0.  0.
         12    1    1    2    0    0  0.23526666092E+02 -0.31022755474E+02 -0.11715411100E+02  0.40659146964E+02  0.00000000000E+00 0. -1.
         11    1    3    3    0    0 -0.52492800266E+01 -0.19068043080E+01 -0.48431997961E+00  0.56058370981E+01  0.51100000000E-03 0. -1.
        -11    1    3    3    0    0 -0.18532199421E+02  0.18517341257E+02  0.24961252096E+00  0.26199172683E+02  0.51100000000E-03 0.  1.
        -12    1    3    3    0    0  0.25481335517E+00  0.14412218525E+02  0.11950118559E+02  0.18723843255E+02  0.00000000000E+00 0.  1.
</event>
<event>
 7    1  0.2500839E-011  0.5052886E+02  0.7816164E-02  0.1300439E+00
        -11   -1    0    0    0    0  0.00000000000E+00  0.00000000000E+00  0.45593999997E+02  0.45594000000E+02  0.51100000000E-03 0.  1.
         11   -1    0    0    0    0 -0.00000000000E+00 -0.00000000000E+00 -0.45593999997E+02  0.45594000000E+02  0.51100000000E-03 0. -1.
    9900012    2    1    2    0    0  0.24111004524E+01  0.10855673652E+02  0.39108911114E+02  0.50528856079E+02  0.29999988539E+02 0.  0.
         12    1    1    2    0    0 -0.24111004524E+01 -0.10855673652E+02 -0.39108911114E+02  0.40659143921E+02  0.00000000000E+00 0. -1.
         11    1    3    3    0    0 -0.61961583457E+00  0.14347177449E+02  0.12373645523E+02  0.18956068377E+02  0.51100000000E-03 0. -1.
        -11    1    3    3    0    0  0.24346587241E+01  0.27036651743E+01  0.24784969384E+02  0.25050590334E+02  0.51100000000E-03 0.  1.
        -12    1    3    3    0    0  0.59605756288E+00 -0.61951689716E+01  0.19502962072E+01  0.65221973675E+01  0.00000000000E+00 0.  1.
</event>
<event>
 7    1  0.2500839E-011  0.5052888E+02  0.7816164E-02  0.1300439E+00
        -11   -1    0    0    0    0  0.00000000000E+00  0.00000000000E+00  0.45593999997E+02  0.45594000000E+02  0.51100000000E-03 0.  1.
         11   -1    0    0    0    0 -0.00000000000E+00 -0.00000000000E+00 -0.45593999997E+02  0.45594000000E+02  0.51100000000E-03 0. -1.
    9900012    2    1    2    0    0  0.26196954925E+02  0.30912235842E+02  0.33640595376E+01  0.50528884557E+02  0.30000075098E+02 0.  0.
         12    1    1    2    0    0 -0.26196954925E+02 -0.30912235842E+02 -0.33640595376E+01  0.40659115443E+02  0.00000000000E+00 0. -1.
         11    1    3    3    0    0  0.58556116990E+01  0.50963001274E+01  0.65236719972E+01  0.10139958577E+02  0.51100000000E-03 0.  1.
        -11    1    3    3    0    0  0.22623720216E+02  0.26404259867E+02  0.18838128184E+01  0.34821924222E+02  0.51100000000E-03 0. -1.
         12    1    3    3    0    0 -0.22823769902E+01 -0.58832415225E+00 -0.50434252780E+01  0.55670017575E+01  0.00000000000E+00 0. -1.
</event>
<event>
 7    1  0.2500839E-011  0.5052886E+02  0.7816164E-02  0.1300439E+00
        -11   -1    0    0    0    0  0.00000000000E+00  0.00000000000E+00  0.45593999997E+02  0.45594000000E+02  0.51100000000E-03 0.  1.
         11   -1    0    0    0    0 -0.00000000000E+00 -0.00000000000E+00 -0.45593999997E+02  0.45594000000E+02  0.51100000000E-03 0. -1.
    9900012    2    1    2    0    0 -0.29360233098E+02 -0.26972838587E+02  0.79754933359E+01  0.50528858310E+02  0.29999995320E+02 0.  0.
         12    1    1    2    0    0  0.29360233098E+02  0.26972838587E+02 -0.79754933359E+01  0.40659141690E+02  0.00000000000E+00 0. -1.
         11    1    3    3    0    0 -0.11049188799E+02 -0.15997978519E+02  0.67598105705E+01  0.20584336983E+02  0.51100000000E-03 0.  1.
        -11    1    3    3    0    0 -0.61576966788E+01 -0.11229094550E+02 -0.76331531898E+01  0.14908883951E+02  0.51100000000E-03 0. -1.
         12    1    3    3    0    0 -0.12153347620E+02  0.25423448191E+00  0.88488359552E+01  0.15035637376E+02  0.00000000000E+00 0. -1.
</event>
<event>
 7    1  0.2500839E-011  0.5052887E+02  0.7816164E-02  0.1300439E+00
        -11   -1    0    0    0    0  0.00000000000E+00  0.00000000000E+00  0.45593999997E+02  0.45594000000E+02  0.51100000000E-03 0. -1.
         11   -1    0    0    0    0 -0.00000000000E+00 -0.00000000000E+00 -0.45593999997E+02  0.45594000000E+02  0.51100000000E-03 0.  1.
    9900012    2    1    2    0    0  0.22862299192E+02 -0.33599414898E+02  0.12488858617E+01  0.50528866688E+02  0.30000020783E+02 0.  0.
         12    1    1    2    0    0 -0.22862299192E+02  0.33599414898E+02 -0.12488858617E+01  0.40659133312E+02  0.00000000000E+00 0. -1.
         11    1    3    3    0    0  0.11246999175E+02 -0.10368549327E+02  0.12254702058E+02  0.19600498166E+02  0.51100000000E-03 0. -1.
        -11    1    3    3    0    0  0.44209517789E+00  0.12905184544E+01 -0.21823246991E+01  0.25736020246E+01  0.51100000000E-03 0.  1.
         12    1    3    3    0    0  0.11173204840E+02 -0.24521384025E+02 -0.88234914968E+01  0.28354766497E+02  0.00000000000E+00 0. -1.
</event>
<event>
 7    1  0.2500839E-011  0.5052887E+02  0.7816164E-02  0.1300439E+00
        -11   -1    0    0    0    0  0.00000000000E+00  0.00000000000E+00  0.45593999997E+02  0.45594000000E+02  0.51100000000E-03 0.  1.
         11   -1    0    0    0    0 -0.00000000000E+00 -0.00000000000E+00 -0.45593999997E+02  0.45594000000E+02  0.51100000000E-03 0. -1.
    9900012    2    1    2    0    0  0.22793565180E+02 -0.25864044797E+01  0.33569755978E+02  0.50528872880E+02  0.30000039606E+02 0.  0.
         12    1    1    2    0    0 -0.22793565180E+02  0.25864044797E+01 -0.33569755978E+02  0.40659127120E+02  0.00000000000E+00 0. -1.
         11    1    3    3    0    0  0.10705552814E+02  0.16927050307E+01  0.33741978910E+01  0.11351622044E+02  0.51100000000E-03 0. -1.
        -11    1    3    3    0    0  0.12902890030E+02  0.55692364556E+00  0.55644174058E+01  0.14062626938E+02  0.51100000000E-03 0.  1.
         12    1    3    3    0    0 -0.81487766300E+00 -0.48360331559E+01  0.24631140681E+02  0.25114623898E+02  0.00000000000E+00 0. -1.
</event>
<event>
 7    1  0.2500839E-011  0.5052884E+02  0.7816164E-02  0.1300439E+00
        -11   -1    0    0    0    0  0.00000000000E+00  0.00000000000E+00  0.45593999997E+02  0.45594000000E+02  0.51100000000E-03 0.  1.
         11   -1    0    0    0    0 -0.00000000000E+00 -0.00000000000E+00 -0.45593999997E+02  0.45594000000E+02  0.51100000000E-03 0. -1.
    9900012    2    1    2    0    0 -0.20520388959E+02  0.65492033902E+01  0.34484618383E+02  0.50528839493E+02  0.29999938123E+02 0.  0.
         12    1    1    2    0    0  0.20520388959E+02 -0.65492033902E+01 -0.34484618383E+02  0.40659160507E+02  0.00000000000E+00 0. -1.
         11    1    3    3    0    0 -0.38615538934E+00  0.55582243155E+01  0.98693201131E+01  0.11333421958E+02  0.51100000000E-03 0. -1.
        -11    1    3    3    0    0 -0.13451452572E+02  0.78229523662E+01  0.25203687950E+02  0.29620365403E+02  0.51100000000E-03 0.  1.
        -12    1    3    3    0    0 -0.66827809978E+01 -0.68319732916E+01 -0.58838968014E+00  0.95750521324E+01  0.00000000000E+00 0.  1.
</event>
<event>
 7    1  0.2500839E-011  0.5052886E+02  0.7816164E-02  0.1300439E+00
        -11   -1    0    0    0    0  0.00000000000E+00  0.00000000000E+00  0.45593999997E+02  0.45594000000E+02  0.51100000000E-03 0.  1.
         11   -1    0    0    0    0 -0.00000000000E+00 -0.00000000000E+00 -0.45593999997E+02  0.45594000000E+02  0.51100000000E-03 0. -1.
    9900012    2    1    2    0    0 -0.16768739056E+02  0.75252582888E+01  0.36267687762E+02  0.50528864526E+02  0.30000014215E+02 0.  0.
         12    1    1    2    0    0  0.16768739056E+02 -0.75252582888E+01 -0.36267687762E+02  0.40659135474E+02  0.00000000000E+00 0. -1.
         11    1    3    3    0    0 -0.75659124504E+01  0.74846295833E+01  0.35180778371E+00  0.10648308795E+02  0.51100000000E-03 0. -1.
        -11    1    3    3    0    0  0.36722884681E+01  0.14712167753E+01  0.51148636800E+01  0.64662208529E+01  0.51100000000E-03 0.  1.
        -12    1    3    3    0    0 -0.12875115074E+02 -0.14305880698E+01  0.30801016298E+02  0.33414334879E+02  0.00000000000E+00 0.  1.
</event>
<event>
 7    1  0.2500839E-011  0.5052889E+02  0.7816164E-02  0.1300439E+00
        -11   -1    0    0    0    0  0.00000000000E+00  0.00000000000E+00  0.45593999997E+02  0.45594000000E+02  0.51100000000E-03 0.  1.
         11   -1    0    0    0    0 -0.00000000000E+00 -0.00000000000E+00 -0.45593999997E+02  0.45594000000E+02  0.51100000000E-03 0. -1.
    9900012    2    1    2    0    0 -0.22358362341E+02 -0.13599244031E+02  0.31117965502E+02  0.50528885625E+02  0.30000078346E+02 0.  0.
         12    1    1    2    0    0  0.22358362341E+02  0.13599244031E+02 -0.31117965502E+02  0.40659114375E+02  0.00000000000E+00 0. -1.
         11    1    3    3    0    0 -0.18797044807E+02 -0.12156538955E+02  0.24795058552E+02  0.33405168188E+02  0.51100000000E-03 0. -1.
        -11    1    3    3    0    0 -0.16308804789E+01 -0.84622432994E+00  0.11458544676E+02  0.11604917626E+02  0.51100000000E-03 0.  1.
         12    1    3    3    0    0 -0.19304370548E+01 -0.59648074594E+00 -0.51356377258E+01  0.55187998110E+01  0.00000000000E+00 0. -1.
</event>
<event>
 7    1  0.2500839E-011  0.5052887E+02  0.7816164E-02  0.1300439E+00
        -11   -1    0    0    0    0  0.00000000000E+00  0.00000000000E+00  0.45593999997E+02  0.45594000000E+02  0.51100000000E-03 0. -1.
         11   -1    0    0    0    0 -0.00000000000E+00 -0.00000000000E+00 -0.45593999997E+02  0.45594000000E+02  0.51100000000E-03 0.  1.
    9900012    2    1    2    0    0 -0.39682797137E+01  0.27138702895E+02 -0.30015142291E+02  0.50528865658E+02  0.30000017655E+02 0.  0.
         12    1    1    2    0    0  0.39682797137E+01 -0.27138702895E+02  0.30015142291E+02  0.40659134342E+02  0.00000000000E+00 0. -1.
         11    1    3    3    0    0  0.33154585623E+01  0.24585671838E+02 -0.11220342154E+02  0.27227625742E+02  0.51100000000E-03 0. -1.
        -11    1    3    3    0    0 -0.19212580932E+01  0.67031164418E+01 -0.10147241617E+02  0.12312169402E+02  0.51100000000E-03 0.  1.
         12    1    3    3    0    0 -0.53624801827E+01 -0.41500853857E+01 -0.86475585193E+01  0.10989070514E+02  0.00000000000E+00 0. -1.
</event>
<event>
 7    1  0.2500839E-011  0.5052885E+02  0.7816164E-02  0.1300439E+00
        -11   -1    0    0    0    0  0.00000000000E+00  0.00000000000E+00  0.45593999997E+02  0.45594000000E+02  0.51100000000E-03 0.  1.
         11   -1    0    0    0    0 -0.00000000000E+00 -0.00000000000E+00 -0.45593999997E+02  0.45594000000E+02  0.51100000000E-03 0. -1.
    9900012    2    1    2    0    0  0.37951435721E+02 -0.31248410969E+01  0.14250971390E+02  0.50528852312E+02  0.29999977089E+02 0.  0.
         12    1    1    2    0    0 -0.37951435721E+02  0.31248410969E+01 -0.14250971390E+02  0.40659147688E+02  0.00000000000E+00 0. -1.
         11    1    3    3    0    0  0.13492450365E+02  0.39788521888E+01  0.90436060246E+01  0.16723166320E+02  0.51100000000E-03 0. -1.
        -11    1    3    3    0    0  0.90836184537E+01  0.49840008055E+01 -0.52632439197E+01  0.11621278977E+02  0.51100000000E-03 0.  1.
         12    1    3    3    0    0  0.15375366902E+02 -0.12087694091E+02  0.10470609285E+02  0.22184407015E+02  0.00000000000E+00 0. -1.
</event>
<event>
 7    1  0.2500839E-011  0.5052886E+02  0.7816164E-02  0.1300439E+00
        -11   -1    0    0    0    0  0.00000000000E+00  0.00000000000E+00  0.45593999997E+02  0.45594000000E+02  0.51100000000E-03 0. -1.
         11   -1    0    0    0    0 -0.00000000000E+00 -0.00000000000E+00 -0.45593999997E+02  0.45594000000E+02  0.51100000000E-03 0.  1.
    9900012    2    1    2    0    0  0.11486741898E+02 -0.28726678411E+02 -0.26381775062E+02  0.50528863912E+02  0.30000012348E+02 0.  0.
         12    1    1    2    0    0 -0.11486741898E+02  0.28726678411E+02  0.26381775062E+02  0.40659136088E+02  0.00000000000E+00 0. -1.
         11    1    3    3    0    0 -0.18739738579E+01 -0.37224976457E+01 -0.20456212967E+02  0.20876432070E+02  0.51100000000E-03 0. -1.
        -11    1    3    3    0    0  0.67493732387E+01 -0.75749141641E+01 -0.40245594497E+01  0.10914689310E+02  0.51100000000E-03 0.  1.
        -12    1    3    3    0    0  0.66113425173E+01 -0.17429266602E+02 -0.19010026447E+01  0.18737742532E+02  0.00000000000E+00 0.  1.
</event>
<event>
 7    1  0.2500839E-011  0.5052886E+02  0.7816164E-02  0.1300439E+00
        -11   -1    0    0    0    0  0.00000000000E+00  0.00000000000E+00  0.45593999997E+02  0.45594000000E+02  0.51100000000E-03 0.  1.
         11   -1    0    0    0    0 -0.00000000000E+00 -0.00000000000E+00 -0.45593999997E+02  0.45594000000E+02  0.51100000000E-03 0. -1.
    9900012    2    1    2    0    0  0.14280308135E+02 -0.17092027074E+01  0.38030471183E+02  0.50528864339E+02  0.30000013644E+02 0.  0.
         12    1    1    2    0    0 -0.14280308135E+02  0.17092027074E+01 -0.38030471183E+02  0.40659135661E+02  0.00000000000E+00 0. -1.
         11    1    3    3    0    0 -0.34144091178E+00 -0.19322517760E+01  0.14007952280E+01  0.24108932689E+01  0.51100000000E-03 0. -1.
        -11    1    3    3    0    0  0.19642133270E+02  0.56799750919E+01  0.15303918855E+02  0.25539879581E+02  0.51100000000E-03 0.  1.
        -12    1    3    3    0    0 -0.50203842236E+01 -0.54569260233E+01  0.21325757100E+02  0.22578091489E+02  0.00000000000E+00 0.  1.
</event>
<event>
 7    1  0.2500839E-011  0.5052884E+02  0.7816164E-02  0.1300439E+00
        -11   -1    0    0    0    0  0.00000000000E+00  0.00000000000E+00  0.45593999997E+02  0.45594000000E+02  0.51100000000E-03 0.  1.
         11   -1    0    0    0    0 -0.00000000000E+00 -0.00000000000E+00 -0.45593999997E+02  0.45594000000E+02  0.51100000000E-03 0. -1.
    9900012    2    1    2    0    0 -0.56238361623E+01 -0.49680166824E+01  0.39960710138E+02  0.50528842635E+02  0.29999947673E+02 0.  0.
         12    1    1    2    0    0  0.56238361623E+01  0.49680166824E+01 -0.39960710138E+02  0.40659157365E+02  0.00000000000E+00 0. -1.
         11    1    3    3    0    0  0.37472239564E+01  0.52820104205E+01  0.15005244637E+01  0.66477737168E+01  0.51100000000E-03 0. -1.
        -11    1    3    3    0    0  0.38129245466E+01 -0.12080410014E+01  0.14765422255E+02  0.15297563573E+02  0.51100000000E-03 0.  1.
         12    1    3    3    0    0 -0.13183984665E+02 -0.90419861015E+01  0.23694763419E+02  0.28583505345E+02  0.00000000000E+00 0. -1.
</event>
<event>
 7    1  0.2500839E-011  0.5052884E+02  0.7816164E-02  0.1300439E+00
        -11   -1    0    0    0    0  0.00000000000E+00  0.00000000000E+00  0.45593999997E+02  0.45594000000E+02  0.51100000000E-03 0. -1.
         11   -1    0    0    0    0 -0.00000000000E+00 -0.00000000000E+00 -0.45593999997E+02  0.45594000000E+02  0.51100000000E-03 0.  1.
    9900012    2    1    2    0    0  0.39116825090E+02  0.10902552283E+02 -0.20434868862E+01  0.50528837563E+02  0.29999932257E+02 0.  0.
         12    1    1    2    0    0 -0.39116825090E+02 -0.10902552283E+02  0.20434868862E+01  0.40659162437E+02  0.00000000000E+00 0. -1.
         11    1    3    3    0    0  0.30792129179E+01  0.98871263520E+01  0.34732651972E+01  0.10922471840E+02  0.51100000000E-03 0. -1.
        -11    1    3    3    0    0  0.69607144245E+01  0.85158247673E+00 -0.77397441866E+01  0.10444155224E+02  0.51100000000E-03 0.  1.
        -12    1    3    3    0    0  0.29076897748E+02  0.16384345411E+00  0.22229921033E+01  0.29162210499E+02  0.00000000000E+00 0.  1.
</event>
<event>
 7    1  0.2500839E-011  0.5052886E+02  0.7816164E-02  0.1300439E+00
        -11   -1    0    0    0    0  0.00000000000E+00  0.00000000000E+00  0.45593999997E+02  0.45594000000E+02  0.51100000000E-03 0.  1.
         11   -1    0    0    0    0 -0.00000000000E+00 -0.00000000000E+00 -0.45593999997E+02  0.45594000000E+02  0.51100000000E-03 0. -1.
    9900012    2    1    2    0    0  0.64135509025E+01  0.37757118933E+02 -0.13654019965E+02  0.50528856791E+02  0.29999990700E+02 0.  0.
         12    1    1    2    0    0 -0.64135509025E+01 -0.37757118933E+02  0.13654019965E+02  0.40659143209E+02  0.00000000000E+00 0. -1.
         11    1    3    3    0    0  0.24370692318E+01  0.15863534261E+02 -0.70054991720E+01  0.17511940058E+02  0.51100000000E-03 0. -1.
        -11    1    3    3    0    0  0.38364371616E+00  0.11696695206E+02  0.84585844278E+01  0.14439789196E+02  0.51100000000E-03 0.  1.
         12    1    3    3    0    0  0.35928379545E+01  0.10196889467E+02 -0.15107105221E+02  0.18577127537E+02  0.00000000000E+00 0. -1.
</event>
<event>
 7    1  0.2500839E-011  0.5052886E+02  0.7816164E-02  0.1300439E+00
        -11   -1    0    0    0    0  0.00000000000E+00  0.00000000000E+00  0.45593999997E+02  0.45594000000E+02  0.51100000000E-03 0.  1.
         11   -1    0    0    0    0 -0.00000000000E+00 -0.00000000000E+00 -0.45593999997E+02  0.45594000000E+02  0.51100000000E-03 0. -1.
    9900012    2    1    2    0    0  0.25070917274E+02  0.94390711358E+01  0.30586252701E+02  0.50528858209E+02  0.29999995013E+02 0.  0.
         12    1    1    2    0    0 -0.25070917274E+02 -0.94390711358E+01 -0.30586252701E+02  0.40659141791E+02  0.00000000000E+00 0. -1.
         11    1    3    3    0    0  0.75708777206E+00 -0.14916434302E+01 -0.24260999895E+01  0.29468870758E+01  0.51100000000E-03 0. -1.
        -11    1    3    3    0    0  0.16813936938E+02 -0.34363841212E+01  0.11543263053E+02  0.20682459558E+02  0.51100000000E-03 0.  1.
        -12    1    3    3    0    0  0.74998925637E+01  0.14367098687E+02  0.21469089637E+02  0.26899511576E+02  0.00000000000E+00 0.  1.
</event>
<event>
 7    1  0.2500839E-011  0.5052888E+02  0.7816164E-02  0.1300439E+00
        -11   -1    0    0    0    0  0.00000000000E+00  0.00000000000E+00  0.45593999997E+02  0.45594000000E+02  0.51100000000E-03 0.  1.
         11   -1    0    0    0    0 -0.00000000000E+00 -0.00000000000E+00 -0.45593999997E+02  0.45594000000E+02  0.51100000000E-03 0. -1.
    9900012    2    1    2    0    0 -0.35884762263E+02  0.17319337312E+02  0.80924961645E+01  0.50528879230E+02  0.30000058907E+02 0.  0.
         12    1    1    2    0    0  0.35884762263E+02 -0.17319337312E+02 -0.80924961645E+01  0.40659120770E+02  0.00000000000E+00 0. -1.
         11    1    3    3    0    0 -0.49311867967E+01 -0.62753250809E+01  0.24593578204E+01  0.83513321839E+01  0.51100000000E-03 0. -1.
        -11    1    3    3    0    0 -0.60832620537E+01  0.12630025305E+02 -0.14393711260E+01  0.14092388226E+02  0.51100000000E-03 0.  1.
        -12    1    3    3    0    0 -0.24870313413E+02  0.10964637088E+02  0.70725094701E+01  0.28085158820E+02  0.00000000000E+00 0.  1.
</event>
<event>
 7    1  0.2500839E-011  0.5052885E+02  0.7816164E-02  0.1300439E+00
        -11   -1    0    0    0    0  0.00000000000E+00  0.00000000000E+00  0.45593999997E+02  0.45594000000E+02  0.51100000000E-03 0. -1.
         11   -1    0    0    0    0 -0.00000000000E+00 -0.00000000000E+00 -0.45593999997E+02  0.45594000000E+02  0.51100000000E-03 0.  1.
    9900012    2    1    2    0    0 -0.19383228303E+02 -0.35326426139E+02  0.54314121356E+01  0.50528853907E+02  0.29999981937E+02 0.  0.
         12    1    1    2    0    0  0.19383228303E+02  0.35326426139E+02 -0.54314121356E+01  0.40659146093E+02  0.00000000000E+00 0. -1.
         11    1    3    3    0    0 -0.14957906821E+02 -0.31468265102E+02  0.15099440339E+02  0.37973461572E+02  0.51100000000E-03 0. -1.
        -11    1    3    3    0    0 -0.23037249157E+01 -0.34623624664E+01 -0.20480734798E+01  0.46356992542E+01  0.51100000000E-03 0.  1.
         12    1    3    3    0    0 -0.21215965662E+01 -0.39579857093E+00 -0.76199547237E+01  0.79196930806E+01  0.00000000000E+00 0. -1.
</event>
<event>
 7    1  0.2500839E-011  0.5052886E+02  0.7816164E-02  0.1300439E+00
        -11   -1    0    0    0    0  0.00000000000E+00  0.00000000000E+00  0.45593999997E+02  0.45594000000E+02  0.51100000000E-03 0.  1.
         11   -1    0    0    0    0 -0.00000000000E+00 -0.00000000000E+00 -0.45593999997E+02  0.45594000000E+02  0.51100000000E-03 0. -1.
    9900012    2    1    2    0    0 -0.60451778550E+01  0.21995000594E+01  0.40147028653E+02  0.50528857296E+02  0.29999992236E+02 0.  0.
         12    1    1    2    0    0  0.60451778550E+01 -0.21995000594E+01 -0.40147028653E+02  0.40659142704E+02  0.00000000000E+00 0. -1.
         11    1    3    3    0    0 -0.79772069246E+00 -0.10318949275E+01  0.16900389940E+02  0.16950644408E+02  0.51100000000E-03 0. -1.
        -11    1    3    3    0    0 -0.25523188977E+01  0.36505581811E+01  0.27862723151E+02  0.28216524386E+02  0.51100000000E-03 0.  1.
         12    1    3    3    0    0 -0.26951382649E+01 -0.41916319420E+00 -0.46160844385E+01  0.53616885021E+01  0.00000000000E+00 0. -1.
</event>
<event>
 7    1  0.2500839E-011  0.5052886E+02  0.7816164E-02  0.1300439E+00
        -11   -1    0    0    0    0  0.00000000000E+00  0.00000000000E+00  0.45593999997E+02  0.45594000000E+02  0.51100000000E-03 0.  1.
         11   -1    0    0    0    0 -0.00000000000E+00 -0.00000000000E+00 -0.45593999997E+02  0.45594000000E+02  0.51100000000E-03 0. -1.
    9900012    2    1    2    0    0 -0.24301491375E+02  0.43762848065E+01  0.32302502177E+02  0.50528855903E+02  0.29999988004E+02 0.  0.
         12    1    1    2    0    0  0.24301491375E+02 -0.43762848065E+01 -0.32302502177E+02  0.40659144097E+02  0.00000000000E+00 0. -1.
         11    1    3    3    0    0 -0.28417217174E+01 -0.12558386111E+01  0.12222061597E+01  0.33386076580E+01  0.51100000000E-03 0. -1.
        -11    1    3    3    0    0 -0.12626824840E+02  0.16932774172E+02  0.19657356765E+02  0.28854240970E+02  0.51100000000E-03 0.  1.
        -12    1    3    3    0    0 -0.88329448174E+01 -0.11300650755E+02  0.11422939252E+02  0.18336007275E+02  0.00000000000E+00 0.  1.
</event>
<event>
 7    1  0.2500839E-011  0.5052886E+02  0.7816164E-02  0.1300439E+00
        -11   -1    0    0    0    0  0.00000000000E+00  0.00000000000E+00  0.45593999997E+02  0.45594000000E+02  0.51100000000E-03 0.  1.
         11   -1    0    0    0    0 -0.00000000000E+00 -0.00000000000E+00 -0.45593999997E+02  0.45594000000E+02  0.51100000000E-03 0. -1.
    9900012    2    1    2    0    0  0.31179212720E+02  0.25936491892E+02  0.28845395231E+01  0.50528862210E+02  0.30000007174E+02 0.  0.
         12    1    1    2    0    0 -0.31179212720E+02 -0.25936491892E+02 -0.28845395231E+01  0.40659137790E+02  0.00000000000E+00 0. -1.
         11    1    3    3    0    0  0.90028432468E+01  0.68141868659E+01  0.55889014781E+01  0.12598418518E+02  0.51100000000E-03 0. -1.
        -11    1    3    3    0    0  0.15836812547E+02 -0.18260189557E+01 -0.81753008752E+00  0.15962685632E+02  0.51100000000E-03 0.  1.
         12    1    3    3    0    0  0.63395569262E+01  0.20948323982E+02 -0.18868318675E+01  0.21967758060E+02  0.00000000000E+00 0. -1.
</event>
<event>
 7    1  0.2500839E-011  0.5052885E+02  0.7816164E-02  0.1300439E+00
        -11   -1    0    0    0    0  0.00000000000E+00  0.00000000000E+00  0.45593999997E+02  0.45594000000E+02  0.51100000000E-03 0. -1.
         11   -1    0    0    0    0 -0.00000000000E+00 -0.00000000000E+00 -0.45593999997E+02  0.45594000000E+02  0.51100000000E-03 0.  1.
    9900012    2    1    2    0    0  0.13590908778E+02  0.16651479295E+02  0.34513500428E+02  0.50528852494E+02  0.29999977640E+02 0.  0.
         12    1    1    2    0    0 -0.13590908778E+02 -0.16651479295E+02 -0.34513500428E+02  0.40659147506E+02  0.00000000000E+00 0. -1.
         11    1    3    3    0    0  0.43865777751E+01  0.86392005725E+01  0.18948868036E+02  0.21282327204E+02  0.51100000000E-03 0. -1.
        -11    1    3    3    0    0  0.14203978399E+02  0.11764084519E+02  0.10668162403E+02  0.21306252046E+02  0.51100000000E-03 0.  1.
        -12    1    3    3    0    0 -0.49996473964E+01 -0.37518057966E+01  0.48964699895E+01  0.79402732435E+01  0.00000000000E+00 0.  1.
</event>
<event>
 7    1  0.2500839E-011  0.5052885E+02  0.7816164E-02  0.1300439E+00
        -11   -1    0    0    0    0  0.00000000000E+00  0.00000000000E+00  0.45593999997E+02  0.45594000000E+02  0.51100000000E-03 0.  1.
         11   -1    0    0    0    0 -0.00000000000E+00 -0.00000000000E+00 -0.45593999997E+02  0.45594000000E+02  0.51100000000E-03 0. -1.
    9900012    2    1    2    0    0 -0.21950552159E+02 -0.13317245478E+02  0.31527617404E+02  0.50528850644E+02  0.29999972017E+02 0.  0.
         12    1    1    2    0    0  0.21950552159E+02  0.13317245478E+02 -0.31527617404E+02  0.40659149356E+02  0.00000000000E+00 0. -1.
         11    1    3    3    0    0  0.45027604301E+01  0.88913796547E+00  0.13708501831E+02  0.14456432497E+02  0.51100000000E-03 0. -1.
        -11    1    3    3    0    0 -0.63776269837E+01 -0.42743788876E+01  0.38201140945E+00  0.76870263298E+01  0.51100000000E-03 0.  1.
        -12    1    3    3    0    0 -0.20075685605E+02 -0.99320045563E+01  0.17437104163E+02  0.28385391817E+02  0.00000000000E+00 0.  1.
</event>
<event>
 7    1  0.2500839E-011  0.5052886E+02  0.7816164E-02  0.1300439E+00
        -11   -1    0    0    0    0  0.00000000000E+00  0.00000000000E+00  0.45593999997E+02  0.45594000000E+02  0.51100000000E-03 0.  1.
         11   -1    0    0    0    0 -0.00000000000E+00 -0.00000000000E+00 -0.45593999997E+02  0.45594000000E+02  0.51100000000E-03 0. -1.
    9900012    2    1    2    0    0  0.36054801105E+02  0.14914590214E+01  0.18734802151E+02  0.50528856571E+02  0.29999990034E+02 0.  0.
         12    1    1    2    0    0 -0.36054801105E+02 -0.14914590214E+01 -0.18734802151E+02  0.40659143429E+02  0.00000000000E+00 0. -1.
         11    1    3    3    0    0  0.34792899544E+01  0.38175588892E+01  0.61540884903E+01  0.80344271648E+01  0.51100000000E-03 0. -1.
        -11    1    3    3    0    0  0.10869587650E+02 -0.12061871124E+02  0.16705253422E+01  0.16322601688E+02  0.51100000000E-03 0.  1.
         12    1    3    3    0    0  0.21705923501E+02  0.97357712564E+01  0.10910188319E+02  0.26171827718E+02  0.00000000000E+00 0. -1.
</event>
<event>
 7    1  0.2500839E-011  0.5052885E+02  0.7816164E-02  0.1300439E+00
        -11   -1    0    0    0    0  0.00000000000E+00  0.00000000000E+00  0.45593999997E+02  0.45594000000E+02  0.51100000000E-03 0. -1.
         11   -1    0    0    0    0 -0.00000000000E+00 -0.00000000000E+00 -0.45593999997E+02  0.45594000000E+02  0.51100000000E-03 0.  1.
    9900012    2    1    2    0    0 -0.18126984528E+02 -0.34125455404E+02 -0.12650374427E+02  0.50528852840E+02  0.29999978693E+02 0.  0.
         12    1    1    2    0    0  0.18126984528E+02  0.34125455404E+02  0.12650374427E+02  0.40659147160E+02  0.00000000000E+00 0. -1.
         11    1    3    3    0    0  0.40228561224E+01 -0.18304895487E+02 -0.57815090016E+01  0.19613220459E+02  0.51100000000E-03 0. -1.
        -11    1    3    3    0    0 -0.55532810712E+01 -0.48653047882E+01  0.38477774894E+01  0.83255938651E+01  0.51100000000E-03 0.  1.
        -12    1    3    3    0    0 -0.16596559579E+02 -0.10955255129E+02 -0.10716642914E+02  0.22590038516E+02  0.00000000000E+00 0.  1.
</event>
<event>
 7    1  0.2500839E-011  0.5052872E+02  0.7816164E-02  0.1300439E+00
        -11   -1    0    0    0    0  0.00000000000E+00  0.00000000000E+00  0.45593999997E+02  0.45594000000E+02  0.51100000000E-03 0. -1.
         11   -1    0    0    0    0 -0.00000000000E+00 -0.00000000000E+00 -0.45593999997E+02  0.45594000000E+02  0.51100000000E-03 0.  1.
    9900012    2    1    2    0    0  0.35574016272E+02  0.15234360604E+02  0.12473203462E+02  0.50528718386E+02  0.29999570004E+02 0.  0.
         12    1    1    2    0    0 -0.35574016272E+02 -0.15234360604E+02 -0.12473203462E+02  0.40659281614E+02  0.00000000000E+00 0. -1.
         11    1    3    3    0    0  0.13931482566E+02  0.34428761266E+01 -0.33586067389E+01  0.14738379897E+02  0.51100000000E-03 0. -1.
        -11    1    3    3    0    0  0.18113326201E+02 -0.12554517214E+01  0.61709683244E+01  0.19176798362E+02  0.51100000000E-03 0.  1.
         12    1    3    3    0    0  0.35292075047E+01  0.13046936199E+02  0.96608418768E+01  0.16613540127E+02  0.00000000000E+00 0. -1.
</event>
<event>
 7    1  0.2500839E-011  0.5052886E+02  0.7816164E-02  0.1300439E+00
        -11   -1    0    0    0    0  0.00000000000E+00  0.00000000000E+00  0.45593999997E+02  0.45594000000E+02  0.51100000000E-03 0.  1.
         11   -1    0    0    0    0 -0.00000000000E+00 -0.00000000000E+00 -0.45593999997E+02  0.45594000000E+02  0.51100000000E-03 0. -1.
    9900012    2    1    2    0    0 -0.27636158762E+02 -0.10107264561E+02  0.28058003344E+02  0.50528860564E+02  0.30000002169E+02 0.  0.
         12    1    1    2    0    0  0.27636158762E+02  0.10107264561E+02 -0.28058003344E+02  0.40659139436E+02  0.00000000000E+00 0. -1.
         11    1    3    3    0    0  0.52425863559E+01 -0.37563381320E+01  0.34075193872E+01  0.72942426952E+01  0.51100000000E-03 0. -1.
        -11    1    3    3    0    0  0.15313375159E+00  0.18213731009E+00 -0.92248068062E+00  0.95267770670E+00  0.51100000000E-03 0.  1.
        -12    1    3    3    0    0 -0.33031878870E+02 -0.65330637392E+01  0.25572964638E+02  0.42281940162E+02  0.00000000000E+00 0.  1.
</event>
<event>
 7    1  0.2500839E-011  0.5052887E+02  0.7816164E-02  0.1300439E+00
        -11   -1    0    0    0    0  0.00000000000E+00  0.00000000000E+00  0.45593999997E+02  0.45594000000E+02  0.51100000000E-03 0.  1.
         11   -1    0    0    0    0 -0.00000000000E+00 -0.00000000000E+00 -0.45593999997E+02  0.45594000000E+02  0.51100000000E-03 0. -1.
    9900012    2    1    2    0    0  0.13190609516E+02  0.30882327792E+02  0.22922795774E+02  0.50528869225E+02  0.30000028498E+02 0.  0.
         12    1    1    2    0    0 -0.13190609516E+02 -0.30882327792E+02 -0.22922795774E+02  0.40659130775E+02  0.00000000000E+00 0. -1.
         11    1    3    3    0    0 -0.68100781442E+01  0.11968893832E+02  0.10192349147E+02  0.17132295973E+02  0.51100000000E-03 0. -1.
        -11    1    3    3    0    0  0.27252816605E+01  0.18310766667E+01  0.79969936871E+01  0.86447620083E+01  0.51100000000E-03 0.  1.
         12    1    3    3    0    0  0.17275406000E+02  0.17082357293E+02  0.47334529396E+01  0.24751811244E+02  0.00000000000E+00 0. -1.
</event>
<event>
 7    1  0.2500839E-011  0.5052887E+02  0.7816164E-02  0.1300439E+00
        -11   -1    0    0    0    0  0.00000000000E+00  0.00000000000E+00  0.45593999997E+02  0.45594000000E+02  0.51100000000E-03 0. -1.
         11   -1    0    0    0    0 -0.00000000000E+00 -0.00000000000E+00 -0.45593999997E+02  0.45594000000E+02  0.51100000000E-03 0.  1.
    9900012    2    1    2    0    0  0.35405074391E+02  0.88723780070E+01 -0.17914425492E+02  0.50528867879E+02  0.30000024406E+02 0.  0.
         12    1    1    2    0    0 -0.35405074391E+02 -0.88723780070E+01  0.17914425492E+02  0.40659132121E+02  0.00000000000E+00 0. -1.
         11    1    3    3    0    0  0.51745672324E+01  0.99842303862E+00 -0.11539936181E+02  0.12686336033E+02  0.51100000000E-03 0. -1.
        -11    1    3    3    0    0  0.32515950549E+02  0.41738029170E+01 -0.44378133386E+01  0.33081745093E+02  0.51100000000E-03 0.  1.
         12    1    3    3    0    0 -0.22854433910E+01  0.37001520513E+01 -0.19366759720E+01  0.47607867540E+01  0.00000000000E+00 0. -1.
</event>
<event>
 7    1  0.2500839E-011  0.5052886E+02  0.7816164E-02  0.1300439E+00
        -11   -1    0    0    0    0  0.00000000000E+00  0.00000000000E+00  0.45593999997E+02  0.45594000000E+02  0.51100000000E-03 0.  1.
         11   -1    0    0    0    0 -0.00000000000E+00 -0.00000000000E+00 -0.45593999997E+02  0.45594000000E+02  0.51100000000E-03 0. -1.
    9900012    2    1    2    0    0  0.21715363402E+02  0.30727197317E+02  0.15409341701E+02  0.50528862352E+02  0.30000007606E+02 0.  0.
         12    1    1    2    0    0 -0.21715363402E+02 -0.30727197317E+02 -0.15409341701E+02  0.40659137648E+02  0.00000000000E+00 0. -1.
         11    1    3    3    0    0  0.96875726523E+01  0.14160555737E+01  0.10138767983E+02  0.14094285855E+02  0.51100000000E-03 0. -1.
        -11    1    3    3    0    0  0.16438571154E+02  0.21426155723E+02  0.35612272190E+01  0.27239477055E+02  0.51100000000E-03 0.  1.
        -12    1    3    3    0    0 -0.44107804044E+01  0.78849860198E+01  0.17093464994E+01  0.91950994429E+01  0.00000000000E+00 0.  1.
</event>
<event>
 7    1  0.2500839E-011  0.5052886E+02  0.7816164E-02  0.1300439E+00
        -11   -1    0    0    0    0  0.00000000000E+00  0.00000000000E+00  0.45593999997E+02  0.45594000000E+02  0.51100000000E-03 0. -1.
         11   -1    0    0    0    0 -0.00000000000E+00 -0.00000000000E+00 -0.45593999997E+02  0.45594000000E+02  0.51100000000E-03 0.  1.
    9900012    2    1    2    0    0 -0.16052367617E+02  0.34300124734E+02 -0.14798256380E+02  0.50528862592E+02  0.30000008334E+02 0.  0.
         12    1    1    2    0    0  0.16052367617E+02 -0.34300124734E+02  0.14798256380E+02  0.40659137408E+02  0.00000000000E+00 0. -1.
         11    1    3    3    0    0 -0.77239058013E+01  0.14091368374E+02 -0.14684208781E+02  0.21768127417E+02  0.51100000000E-03 0. -1.
        -11    1    3    3    0    0 -0.10010778749E+02  0.21188828429E+02 -0.45897732115E+01  0.23879869341E+02  0.51100000000E-03 0.  1.
         12    1    3    3    0    0  0.16823169326E+01 -0.98007206857E+00  0.44757256131E+01  0.48808658335E+01  0.00000000000E+00 0. -1.
</event>
<event>
 7    1  0.2500839E-011  0.5052886E+02  0.7816164E-02  0.1300439E+00
        -11   -1    0    0    0    0  0.00000000000E+00  0.00000000000E+00  0.45593999997E+02  0.45594000000E+02  0.51100000000E-03 0. -1.
         11   -1    0    0    0    0 -0.00000000000E+00 -0.00000000000E+00 -0.45593999997E+02  0.45594000000E+02  0.51100000000E-03 0.  1.
    9900012    2    1    2    0    0 -0.29984665212E+02  0.80317443103E+01 -0.26259796001E+02  0.50528856495E+02  0.29999989801E+02 0.  0.
         12    1    1    2    0    0  0.29984665212E+02 -0.80317443103E+01  0.26259796001E+02  0.40659143505E+02  0.00000000000E+00 0. -1.
         11    1    3    3    0    0 -0.58262194504E+01 -0.56528100540E+01 -0.80787348124E+01  0.11452731160E+02  0.51100000000E-03 0.  1.
        -11    1    3    3    0    0 -0.11927199360E+01  0.77620405149E+01  0.18084600066E+01  0.80586836181E+01  0.51100000000E-03 0. -1.
         12    1    3    3    0    0 -0.22965725826E+02  0.59225138495E+01 -0.19989521195E+02  0.31017441716E+02  0.00000000000E+00 0. -1.
</event>
<event>
 7    1  0.2500839E-011  0.5052886E+02  0.7816164E-02  0.1300439E+00
        -11   -1    0    0    0    0  0.00000000000E+00  0.00000000000E+00  0.45593999997E+02  0.45594000000E+02  0.51100000000E-03 0.  1.
         11   -1    0    0    0    0 -0.00000000000E+00 -0.00000000000E+00 -0.45593999997E+02  0.45594000000E+02  0.51100000000E-03 0. -1.
    9900012    2    1    2    0    0 -0.20691341816E+02  0.32806705286E+02 -0.12196474318E+02  0.50528861745E+02  0.30000005759E+02 0.  0.
         12    1    1    2    0    0  0.20691341816E+02 -0.32806705286E+02  0.12196474318E+02  0.40659138255E+02  0.00000000000E+00 0. -1.
         11    1    3    3    0    0 -0.96875141528E+01  0.10695187249E+02 -0.98095960821E+01  0.17448872064E+02  0.51100000000E-03 0.  1.
        -11    1    3    3    0    0 -0.27471005106E+01 -0.43939628708E+01 -0.10415848901E+01  0.52856759520E+01  0.51100000000E-03 0. -1.
         12    1    3    3    0    0 -0.82567271525E+01  0.26505480908E+02 -0.13452933457E+01  0.27794313729E+02  0.00000000000E+00 0. -1.
</event>
<event>
 7    1  0.2500839E-011  0.5052885E+02  0.7816164E-02  0.1300439E+00
        -11   -1    0    0    0    0  0.00000000000E+00  0.00000000000E+00  0.45593999997E+02  0.45594000000E+02  0.51100000000E-03 0. -1.
         11   -1    0    0    0    0 -0.00000000000E+00 -0.00000000000E+00 -0.45593999997E+02  0.45594000000E+02  0.51100000000E-03 0.  1.
    9900012    2    1    2    0    0  0.30079806465E+02 -0.27169451791E+02 -0.31925326538E+01  0.50528854260E+02  0.29999983008E+02 0.  0.
         12    1    1    2    0    0 -0.30079806465E+02  0.27169451791E+02  0.31925326538E+01  0.40659145740E+02  0.00000000000E+00 0. -1.
         11    1    3    3    0    0  0.18632155468E+01 -0.33194657086E+01  0.30700223983E+01  0.48903438071E+01  0.51100000000E-03 0. -1.
        -11    1    3    3    0    0  0.22897100945E+02 -0.29436688015E+02 -0.67895158319E+01  0.37906376224E+02  0.51100000000E-03 0.  1.
        -12    1    3    3    0    0  0.53194899735E+01  0.55867019326E+01  0.52696077990E+00  0.77321342283E+01  0.00000000000E+00 0.  1.
</event>
<event>
 7    1  0.2500839E-011  0.5052887E+02  0.7816164E-02  0.1300439E+00
        -11   -1    0    0    0    0  0.00000000000E+00  0.00000000000E+00  0.45593999997E+02  0.45594000000E+02  0.51100000000E-03 0.  1.
         11   -1    0    0    0    0 -0.00000000000E+00 -0.00000000000E+00 -0.45593999997E+02  0.45594000000E+02  0.51100000000E-03 0. -1.
    9900012    2    1    2    0    0  0.32205133603E+02  0.10587264905E+02  0.22447814728E+02  0.50528865791E+02  0.30000018058E+02 0.  0.
         12    1    1    2    0    0 -0.32205133603E+02 -0.10587264905E+02 -0.22447814728E+02  0.40659134209E+02  0.00000000000E+00 0. -1.
         11    1    3    3    0    0  0.50798424298E+01 -0.16964967056E+01 -0.46957050476E+01  0.71226783122E+01  0.51100000000E-03 0. -1.
        -11    1    3    3    0    0  0.86114268523E+01  0.77611835893E+00  0.17601306402E+02  0.19610329407E+02  0.51100000000E-03 0.  1.
        -12    1    3    3    0    0  0.18513864321E+02  0.11507643252E+02  0.95422133740E+01  0.23795858072E+02  0.00000000000E+00 0.  1.
</event>
<event>
 7    1  0.2500839E-011  0.5052886E+02  0.7816164E-02  0.1300439E+00
        -11   -1    0    0    0    0  0.00000000000E+00  0.00000000000E+00  0.45593999997E+02  0.45594000000E+02  0.51100000000E-03 0.  1.
         11   -1    0    0    0    0 -0.00000000000E+00 -0.00000000000E+00 -0.45593999997E+02  0.45594000000E+02  0.51100000000E-03 0. -1.
    9900012    2    1    2    0    0 -0.27041215286E+02  0.77961875392E+00  0.30353424602E+02  0.50528861856E+02  0.30000006097E+02 0.  0.
         12    1    1    2    0    0  0.27041215286E+02 -0.77961875392E+00 -0.30353424602E+02  0.40659138144E+02  0.00000000000E+00 0. -1.
         11    1    3    3    0    0  0.22752126700E+01 -0.13827606953E+00 -0.14478257049E+01  0.27003541430E+01  0.51100000000E-03 0. -1.
        -11    1    3    3    0    0 -0.51694406560E+01 -0.63375338998E+01  0.16284818745E+02  0.18223138436E+02  0.51100000000E-03 0.  1.
        -12    1    3    3    0    0 -0.24146987300E+02  0.72554287232E+01  0.15516431562E+02  0.29605369277E+02  0.00000000000E+00 0.  1.
</event>
<event>
 7    1  0.2500839E-011  0.5052886E+02  0.7816164E-02  0.1300439E+00
        -11   -1    0    0    0    0  0.00000000000E+00  0.00000000000E+00  0.45593999997E+02  0.45594000000E+02  0.51100000000E-03 0. -1.
         11   -1    0    0    0    0 -0.00000000000E+00 -0.00000000000E+00 -0.45593999997E+02  0.45594000000E+02  0.51100000000E-03 0.  1.
    9900012    2    1    2    0    0 -0.19455023439E+02 -0.26930909072E+02 -0.23439153807E+02  0.50528859187E+02  0.29999997984E+02 0.  0.
         12    1    1    2    0    0  0.19455023439E+02  0.26930909072E+02  0.23439153807E+02  0.40659140813E+02  0.00000000000E+00 0. -1.
         11    1    3    3    0    0 -0.36356492223E+01 -0.81590052152E+01  0.52552455494E+01  0.10363634373E+02  0.51100000000E-03 0. -1.
        -11    1    3    3    0    0 -0.16558892752E+02 -0.13024993420E+02 -0.16841683595E+02  0.26972016783E+02  0.51100000000E-03 0.  1.
        -12    1    3    3    0    0  0.73951853460E+00 -0.57469104364E+01 -0.11852715761E+02  0.13193208031E+02  0.00000000000E+00 0.  1.
</event>
<event>
 7    1  0.2500839E-011  0.5052888E+02  0.7816164E-02  0.1300439E+00
        -11   -1    0    0    0    0  0.00000000000E+00  0.00000000000E+00  0.45593999997E+02  0.45594000000E+02  0.51100000000E-03 0.  1.
         11   -1    0    0    0    0 -0.00000000000E+00 -0.00000000000E+00 -0.45593999997E+02  0.45594000000E+02  0.51100000000E-03 0. -1.
    9900012    2    1    2    0    0  0.24960090900E+02  0.41769854373E+00  0.32093354071E+02  0.50528880662E+02  0.30000063260E+02 0.  0.
         12    1    1    2    0    0 -0.24960090900E+02 -0.41769854373E+00 -0.32093354071E+02  0.40659119338E+02  0.00000000000E+00 0. -1.
         11    1    3    3    0    0  0.18119433385E+02 -0.34357589955E+01  0.11175012424E+02  0.21563840312E+02  0.51100000000E-03 0. -1.
        -11    1    3    3    0    0  0.19174312686E+01 -0.57966382877E+01  0.15887927127E+02  0.17020687023E+02  0.51100000000E-03 0.  1.
         12    1    3    3    0    0  0.49232262461E+01  0.96500958269E+01  0.50304145210E+01  0.11944353327E+02  0.00000000000E+00 0. -1.
</event>
<event>
 7    1  0.2500839E-011  0.5052886E+02  0.7816164E-02  0.1300439E+00
        -11   -1    0    0    0    0  0.00000000000E+00  0.00000000000E+00  0.45593999997E+02  0.45594000000E+02  0.51100000000E-03 0.  1.
         11   -1    0    0    0    0 -0.00000000000E+00 -0.00000000000E+00 -0.45593999997E+02  0.45594000000E+02  0.51100000000E-03 0. -1.
    9900012    2    1    2    0    0 -0.14064633850E+02 -0.29340311857E+02  0.24382328491E+02  0.50528858742E+02  0.29999996632E+02 0.  0.
         12    1    1    2    0    0  0.14064633850E+02  0.29340311857E+02 -0.24382328491E+02  0.40659141258E+02  0.00000000000E+00 0. -1.
         11    1    3    3    0    0  0.18492612976E+01 -0.23072522974E+01 -0.31874274788E+01  0.43477436337E+01  0.51100000000E-03 0. -1.
        -11    1    3    3    0    0 -0.31246498178E+01 -0.77285945884E+01  0.20244224772E+02  0.21893452165E+02  0.51100000000E-03 0.  1.
         12    1    3    3    0    0 -0.12789245330E+02 -0.19304464971E+02  0.73255311980E+01  0.24287662944E+02  0.00000000000E+00 0. -1.
</event>
<event>
 7    1  0.2500839E-011  0.5052886E+02  0.7816164E-02  0.1300439E+00
        -11   -1    0    0    0    0  0.00000000000E+00  0.00000000000E+00  0.45593999997E+02  0.45594000000E+02  0.51100000000E-03 0.  1.
         11   -1    0    0    0    0 -0.00000000000E+00 -0.00000000000E+00 -0.45593999997E+02  0.45594000000E+02  0.51100000000E-03 0. -1.
    9900012    2    1    2    0    0 -0.26117258839E+02 -0.10412667424E+02  0.29370579597E+02  0.50528858371E+02  0.29999995503E+02 0.  0.
         12    1    1    2    0    0  0.26117258839E+02  0.10412667424E+02 -0.29370579597E+02  0.40659141629E+02  0.00000000000E+00 0. -1.
         11    1    3    3    0    0 -0.10533624450E+02 -0.10203701090E+02  0.12046456876E+02  0.18978669171E+02  0.51100000000E-03 0. -1.
        -11    1    3    3    0    0 -0.23224007361E+01 -0.25667378585E+01  0.17740019969E+02  0.18074567690E+02  0.51100000000E-03 0.  1.
        -12    1    3    3    0    0 -0.13261233653E+02  0.23577715235E+01 -0.41589724750E+00  0.13475621510E+02  0.00000000000E+00 0.  1.
</event>
<event>
 7    1  0.2500839E-011  0.5052886E+02  0.7816164E-02  0.1300439E+00
        -11   -1    0    0    0    0  0.00000000000E+00  0.00000000000E+00  0.45593999997E+02  0.45594000000E+02  0.51100000000E-03 0. -1.
         11   -1    0    0    0    0 -0.00000000000E+00 -0.00000000000E+00 -0.45593999997E+02  0.45594000000E+02  0.51100000000E-03 0.  1.
    9900012    2    1    2    0    0 -0.22854606292E+02 -0.25352548151E+01 -0.33532155730E+02  0.50528855719E+02  0.29999987445E+02 0.  0.
         12    1    1    2    0    0  0.22854606292E+02  0.25352548151E+01  0.33532155730E+02  0.40659144281E+02  0.00000000000E+00 0. -1.
         11    1    3    3    0    0 -0.69120462822E+01  0.85479828070E+01 -0.11507609431E+02  0.15914442150E+02  0.51100000000E-03 0. -1.
        -11    1    3    3    0    0 -0.16256384687E+02 -0.16567111708E+01 -0.93857574369E+01  0.18844287673E+02  0.51100000000E-03 0.  1.
         12    1    3    3    0    0  0.31382467769E+00 -0.94265264513E+01 -0.12638788862E+02  0.15770125896E+02  0.00000000000E+00 0. -1.
</event>
<event>
 7    1  0.2500839E-011  0.5052887E+02  0.7816164E-02  0.1300439E+00
        -11   -1    0    0    0    0  0.00000000000E+00  0.00000000000E+00  0.45593999997E+02  0.45594000000E+02  0.51100000000E-03 0. -1.
         11   -1    0    0    0    0 -0.00000000000E+00 -0.00000000000E+00 -0.45593999997E+02  0.45594000000E+02  0.51100000000E-03 0.  1.
    9900012    2    1    2    0    0 -0.34753990219E+02 -0.20084554426E+02 -0.64758022357E+01  0.50528866005E+02  0.30000018709E+02 0.  0.
         12    1    1    2    0    0  0.34753990219E+02  0.20084554426E+02  0.64758022357E+01  0.40659133995E+02  0.00000000000E+00 0. -1.
         11    1    3    3    0    0 -0.40652895908E+01 -0.11938802529E+02  0.24510936221E+01  0.12847935456E+02  0.51100000000E-03 0. -1.
        -11    1    3    3    0    0 -0.21979948417E+02 -0.13995844062E+02 -0.53877511275E+01  0.26608826465E+02  0.51100000000E-03 0.  1.
         12    1    3    3    0    0 -0.87087522115E+01  0.58500921644E+01 -0.35391447303E+01  0.11072104083E+02  0.00000000000E+00 0. -1.
</event>
<event>
 7    1  0.3279253E-011  0.5052886E+02  0.7816164E-02  0.1300439E+00
        -11   -1    0    0    0    0  0.00000000000E+00  0.00000000000E+00  0.45593999997E+02  0.45594000000E+02  0.51100000000E-03 0.  1.
         11   -1    0    0    0    0 -0.00000000000E+00 -0.00000000000E+00 -0.45593999997E+02  0.45594000000E+02  0.51100000000E-03 0. -1.
    9900012    2    1    2    0    0 -0.13297400249E+02 -0.38352524469E+02  0.23298890472E+01  0.50528863641E+02  0.30000011523E+02 0.  0.
         12    1    1    2    0    0  0.13297400249E+02  0.38352524469E+02 -0.23298890472E+01  0.40659136359E+02  0.00000000000E+00 0. -1.
         11    1    3    3    0    0 -0.52658431671E+01 -0.42973429975E+01 -0.68553681479E+01  0.96536176537E+01  0.51100000000E-03 0. -1.
        -11    1    3    3    0    0 -0.14310290367E+02 -0.24326170633E+02  0.58198715712E+01  0.28816972315E+02  0.51100000000E-03 0.  1.
        -12    1    3    3    0    0  0.62787332850E+01 -0.97290108384E+01  0.33653856239E+01  0.12058273672E+02  0.00000000000E+00 0.  1.
</event>
<event>
 7    1  0.2500839E-011  0.5052886E+02  0.7816164E-02  0.1300439E+00
        -11   -1    0    0    0    0  0.00000000000E+00  0.00000000000E+00  0.45593999997E+02  0.45594000000E+02  0.51100000000E-03 0.  1.
         11   -1    0    0    0    0 -0.00000000000E+00 -0.00000000000E+00 -0.45593999997E+02  0.45594000000E+02  0.51100000000E-03 0. -1.
    9900012    2    1    2    0    0  0.33491433517E+02  0.22994293409E+02 -0.16589514971E+01  0.50528858734E+02  0.29999996609E+02 0.  0.
         12    1    1    2    0    0 -0.33491433517E+02 -0.22994293409E+02  0.16589514971E+01  0.40659141266E+02  0.00000000000E+00 0. -1.
         11    1    3    3    0    0  0.64891484984E+01 -0.13959017016E+01 -0.63634478029E+00  0.66680225506E+01  0.51100000000E-03 0. -1.
        -11    1    3    3    0    0  0.18971796773E+02  0.25754537649E+02 -0.81802680237E+01  0.33017299519E+02  0.51100000000E-03 0.  1.
         12    1    3    3    0    0  0.80304882450E+01 -0.13643425381E+01  0.71576613069E+01  0.10843536665E+02  0.00000000000E+00 0. -1.
</event>
<event>
 7    1  0.2500839E-011  0.5052886E+02  0.7816164E-02  0.1300439E+00
        -11   -1    0    0    0    0  0.00000000000E+00  0.00000000000E+00  0.45593999997E+02  0.45594000000E+02  0.51100000000E-03 0.  1.
         11   -1    0    0    0    0 -0.00000000000E+00 -0.00000000000E+00 -0.45593999997E+02  0.45594000000E+02  0.51100000000E-03 0. -1.
    9900012    2    1    2    0    0 -0.16059087796E+02  0.17719578191E+02  0.32882939580E+02  0.50528862435E+02  0.30000007858E+02 0.  0.
         12    1    1    2    0    0  0.16059087796E+02 -0.17719578191E+02 -0.32882939580E+02  0.40659137565E+02  0.00000000000E+00 0. -1.
         11    1    3    3    0    0  0.37456386829E+01 -0.13782253950E+00 -0.87027302731E-01  0.37491836722E+01  0.51100000000E-03 0. -1.
        -11    1    3    3    0    0 -0.17636740632E+01 -0.80814756235E+00  0.15194398847E+02  0.15317748048E+02  0.51100000000E-03 0.  1.
        -12    1    3    3    0    0 -0.18041052415E+02  0.18665548292E+02  0.17775568036E+02  0.31461930715E+02  0.00000000000E+00 0.  1.
</event>
<event>
 7    1  0.2500839E-011  0.5052882E+02  0.7816164E-02  0.1300439E+00
        -11   -1    0    0    0    0  0.00000000000E+00  0.00000000000E+00  0.45593999997E+02  0.45594000000E+02  0.51100000000E-03 0.  1.
         11   -1    0    0    0    0 -0.00000000000E+00 -0.00000000000E+00 -0.45593999997E+02  0.45594000000E+02  0.51100000000E-03 0. -1.
    9900012    2    1    2    0    0  0.22083208266E+02 -0.33682172388E+02  0.55688836611E+01  0.50528815437E+02  0.29999865002E+02 0.  0.
         12    1    1    2    0    0 -0.22083208266E+02  0.33682172388E+02 -0.55688836611E+01  0.40659184563E+02  0.00000000000E+00 0. -1.
         11    1    3    3    0    0 -0.32588063934E+01 -0.16110124002E+02  0.19104686692E+01  0.16547078451E+02  0.51100000000E-03 0. -1.
        -11    1    3    3    0    0  0.46221378506E+01 -0.44844103637E+01  0.66921198579E+01  0.92875488194E+01  0.51100000000E-03 0.  1.
         12    1    3    3    0    0  0.20719876809E+02 -0.13087638023E+02 -0.30337048659E+01  0.24694188167E+02  0.00000000000E+00 0. -1.
</event>
<event>
 7    1  0.2500839E-011  0.5052885E+02  0.7816164E-02  0.1300439E+00
        -11   -1    0    0    0    0  0.00000000000E+00  0.00000000000E+00  0.45593999997E+02  0.45594000000E+02  0.51100000000E-03 0.  1.
         11   -1    0    0    0    0 -0.00000000000E+00 -0.00000000000E+00 -0.45593999997E+02  0.45594000000E+02  0.51100000000E-03 0. -1.
    9900012    2    1    2    0    0  0.21806534669E+02 -0.34299142952E+02  0.10999815239E+01  0.50528854400E+02  0.29999983435E+02 0.  0.
         12    1    1    2    0    0 -0.21806534669E+02  0.34299142952E+02 -0.10999815239E+01  0.40659145600E+02  0.00000000000E+00 0. -1.
         11    1    3    3    0    0  0.49054852296E+01 -0.16202148350E+02  0.40381868293E+01  0.17403457979E+02  0.51100000000E-03 0. -1.
        -11    1    3    3    0    0  0.80111337326E+01 -0.13454780873E+01  0.78590725997E+01  0.11302813692E+02  0.51100000000E-03 0.  1.
         12    1    3    3    0    0  0.88899157072E+01 -0.16751516514E+02 -0.10797277905E+02  0.21822582729E+02  0.00000000000E+00 0. -1.
</event>
<event>
 7    1  0.2500839E-011  0.5052887E+02  0.7816164E-02  0.1300439E+00
        -11   -1    0    0    0    0  0.00000000000E+00  0.00000000000E+00  0.45593999997E+02  0.45594000000E+02  0.51100000000E-03 0. -1.
         11   -1    0    0    0    0 -0.00000000000E+00 -0.00000000000E+00 -0.45593999997E+02  0.45594000000E+02  0.51100000000E-03 0.  1.
    9900012    2    1    2    0    0  0.38330498981E+02  0.99057662685E+01 -0.92635701609E+01  0.50528867082E+02  0.30000021984E+02 0.  0.
         12    1    1    2    0    0 -0.38330498981E+02 -0.99057662685E+01  0.92635701609E+01  0.40659132918E+02  0.00000000000E+00 0. -1.
         11    1    3    3    0    0  0.21747904330E+02  0.68870012030E+00  0.35725174800E+00  0.21761738893E+02  0.51100000000E-03 0. -1.
        -11    1    3    3    0    0  0.18361537850E+02  0.12408078653E+02 -0.47260404320E+01  0.22659257413E+02  0.51100000000E-03 0.  1.
        -12    1    3    3    0    0 -0.17789431988E+01 -0.31910125050E+01 -0.48947814769E+01  0.61078707762E+01  0.00000000000E+00 0.  1.
</event>
<event>
 7    1  0.2500839E-011  0.5052887E+02  0.7816164E-02  0.1300439E+00
        -11   -1    0    0    0    0  0.00000000000E+00  0.00000000000E+00  0.45593999997E+02  0.45594000000E+02  0.51100000000E-03 0. -1.
         11   -1    0    0    0    0 -0.00000000000E+00 -0.00000000000E+00 -0.45593999997E+02  0.45594000000E+02  0.51100000000E-03 0.  1.
    9900012    2    1    2    0    0 -0.12945349000E+02 -0.17670935696E+02 -0.34253773518E+02  0.50528867824E+02  0.30000024237E+02 0.  0.
         12    1    1    2    0    0  0.12945349000E+02  0.17670935696E+02  0.34253773518E+02  0.40659132176E+02  0.00000000000E+00 0. -1.
         11    1    3    3    0    0  0.67488007248E+01 -0.80390169799E+01 -0.10949552940E+02  0.15167887627E+02  0.51100000000E-03 0. -1.
        -11    1    3    3    0    0 -0.43916862634E+01 -0.85650711008E+01 -0.15254918699E+02  0.18037735334E+02  0.51100000000E-03 0.  1.
        -12    1    3    3    0    0 -0.15302463462E+02 -0.10668476152E+01 -0.80493018784E+01  0.17323244862E+02  0.00000000000E+00 0.  1.
</event>
<event>
 7    1  0.2500839E-011  0.5052886E+02  0.7816164E-02  0.1300439E+00
        -11   -1    0    0    0    0  0.00000000000E+00  0.00000000000E+00  0.45593999997E+02  0.45594000000E+02  0.51100000000E-03 0.  1.
         11   -1    0    0    0    0 -0.00000000000E+00 -0.00000000000E+00 -0.45593999997E+02  0.45594000000E+02  0.51100000000E-03 0. -1.
    9900012    2    1    2    0    0 -0.28703786738E+02  0.17402936783E+02  0.22943323248E+02  0.50528860025E+02  0.30000000533E+02 0.  0.
         12    1    1    2    0    0  0.28703786738E+02 -0.17402936783E+02 -0.22943323248E+02  0.40659139975E+02  0.00000000000E+00 0. -1.
         11    1    3    3    0    0 -0.25965061833E+02  0.39954373490E+01  0.15658042674E+02  0.30583038702E+02  0.51100000000E-03 0. -1.
        -11    1    3    3    0    0 -0.52303087240E+01  0.29948329992E+01 -0.13670449031E+01  0.61801267034E+01  0.51100000000E-03 0.  1.
        -12    1    3    3    0    0  0.24915838186E+01  0.10412666435E+02  0.86523254776E+01  0.13765694620E+02  0.00000000000E+00 0.  1.
</event>
<event>
 7    1  0.2590302E-011  0.5052889E+02  0.7816164E-02  0.1300439E+00
        -11   -1    0    0    0    0  0.00000000000E+00  0.00000000000E+00  0.45593999997E+02  0.45594000000E+02  0.51100000000E-03 0. -1.
         11   -1    0    0    0    0 -0.00000000000E+00 -0.00000000000E+00 -0.45593999997E+02  0.45594000000E+02  0.51100000000E-03 0.  1.
    9900012    2    1    2    0    0  0.23253368177E+01 -0.11224974297E+02 -0.39009687949E+02  0.50528892863E+02  0.30000100346E+02 0.  0.
         12    1    1    2    0    0 -0.23253368177E+01  0.11224974297E+02  0.39009687949E+02  0.40659107137E+02  0.00000000000E+00 0. -1.
         11    1    3    3    0    0 -0.23785820383E+01  0.55381146447E+01 -0.84975424864E+01  0.10418089791E+02  0.51100000000E-03 0. -1.
        -11    1    3    3    0    0 -0.53016566234E+01 -0.89904273820E+01 -0.23302755394E+02  0.25533385140E+02  0.51100000000E-03 0.  1.
        -12    1    3    3    0    0  0.10005575479E+02 -0.77726615598E+01 -0.72093900689E+01  0.14577417932E+02  0.00000000000E+00 0.  1.
</event>
<event>
 7    1  0.2500839E-011  0.5052886E+02  0.7816164E-02  0.1300439E+00
        -11   -1    0    0    0    0  0.00000000000E+00  0.00000000000E+00  0.45593999997E+02  0.45594000000E+02  0.51100000000E-03 0.  1.
         11   -1    0    0    0    0 -0.00000000000E+00 -0.00000000000E+00 -0.45593999997E+02  0.45594000000E+02  0.51100000000E-03 0. -1.
    9900012    2    1    2    0    0 -0.36186925882E+01  0.22655601633E+02  0.33567758890E+02  0.50528860089E+02  0.30000000727E+02 0.  0.
         12    1    1    2    0    0  0.36186925882E+01 -0.22655601633E+02 -0.33567758890E+02  0.40659139911E+02  0.00000000000E+00 0. -1.
         11    1    3    3    0    0 -0.69227376869E+01  0.27253304017E+01  0.74216649317E+01  0.10508702751E+02  0.51100000000E-03 0. -1.
        -11    1    3    3    0    0 -0.15433014525E+01  0.17716055155E+02  0.53770246294E+01  0.18578287966E+02  0.51100000000E-03 0.  1.
        -12    1    3    3    0    0  0.48473465513E+01  0.22142160770E+01  0.20769069329E+02  0.21441869373E+02  0.00000000000E+00 0.  1.
</event>
<event>
 7    1  0.2500839E-011  0.5052886E+02  0.7816164E-02  0.1300439E+00
        -11   -1    0    0    0    0  0.00000000000E+00  0.00000000000E+00  0.45593999997E+02  0.45594000000E+02  0.51100000000E-03 0.  1.
         11   -1    0    0    0    0 -0.00000000000E+00 -0.00000000000E+00 -0.45593999997E+02  0.45594000000E+02  0.51100000000E-03 0. -1.
    9900012    2    1    2    0    0  0.12026394168E+02 -0.27783753934E+02  0.27140273654E+02  0.50528860888E+02  0.30000003155E+02 0.  0.
         12    1    1    2    0    0 -0.12026394168E+02  0.27783753934E+02 -0.27140273654E+02  0.40659139112E+02  0.00000000000E+00 0. -1.
         11    1    3    3    0    0  0.10839265309E+02 -0.21348049061E+02  0.13227746656E+02  0.27353284136E+02  0.51100000000E-03 0.  1.
        -11    1    3    3    0    0 -0.22710866637E+01 -0.10143947678E+02  0.14741222665E+02  0.18037770235E+02  0.51100000000E-03 0. -1.
        -12    1    3    3    0    0  0.34582155225E+01  0.37082428048E+01 -0.82869566734E+00  0.51378065172E+01  0.00000000000E+00 0.  1.
</event>
<event>
 7    1  0.2500839E-011  0.5052885E+02  0.7816164E-02  0.1300439E+00
        -11   -1    0    0    0    0  0.00000000000E+00  0.00000000000E+00  0.45593999997E+02  0.45594000000E+02  0.51100000000E-03 0.  1.
         11   -1    0    0    0    0 -0.00000000000E+00 -0.00000000000E+00 -0.45593999997E+02  0.45594000000E+02  0.51100000000E-03 0. -1.
    9900012    2    1    2    0    0 -0.11687177228E+02  0.51364732323E+01  0.38603014935E+02  0.50528853047E+02  0.29999979323E+02 0.  0.
         12    1    1    2    0    0  0.11687177228E+02 -0.51364732323E+01 -0.38603014935E+02  0.40659146953E+02  0.00000000000E+00 0. -1.
         11    1    3    3    0    0 -0.90508525726E+01 -0.34628632687E+01  0.17513865967E+01  0.98476753389E+01  0.51100000000E-03 0. -1.
        -11    1    3    3    0    0 -0.63784574244E+01 -0.14210011517E+01  0.13902105961E+02  0.15361396870E+02  0.51100000000E-03 0.  1.
        -12    1    3    3    0    0  0.37421327691E+01  0.10020337653E+02  0.22949522378E+02  0.25319780839E+02  0.00000000000E+00 0.  1.
</event>
<event>
 7    1  0.2500839E-011  0.5052886E+02  0.7816164E-02  0.1300439E+00
        -11   -1    0    0    0    0  0.00000000000E+00  0.00000000000E+00  0.45593999997E+02  0.45594000000E+02  0.51100000000E-03 0.  1.
         11   -1    0    0    0    0 -0.00000000000E+00 -0.00000000000E+00 -0.45593999997E+02  0.45594000000E+02  0.51100000000E-03 0. -1.
    9900012    2    1    2    0    0 -0.38794387239E+01  0.40392359829E+02  0.25637633208E+01  0.50528860071E+02  0.30000000673E+02 0.  0.
         12    1    1    2    0    0  0.38794387239E+01 -0.40392359829E+02 -0.25637633208E+01  0.40659139929E+02  0.00000000000E+00 0. -1.
         11    1    3    3    0    0 -0.64695045860E+01  0.34886502613E+01 -0.24862299908E+01  0.77592854092E+01  0.51100000000E-03 0. -1.
        -11    1    3    3    0    0 -0.84143034698E+01  0.22795261591E+02  0.48349565975E+00  0.24303461116E+02  0.51100000000E-03 0.  1.
        -12    1    3    3    0    0  0.11004369332E+02  0.14108447976E+02  0.45664976518E+01  0.18466113546E+02  0.00000000000E+00 0.  1.
</event>
<event>
 7    1  0.2500839E-011  0.5052886E+02  0.7816164E-02  0.1300439E+00
        -11   -1    0    0    0    0  0.00000000000E+00  0.00000000000E+00  0.45593999997E+02  0.45594000000E+02  0.51100000000E-03 0.  1.
         11   -1    0    0    0    0 -0.00000000000E+00 -0.00000000000E+00 -0.45593999997E+02  0.45594000000E+02  0.51100000000E-03 0. -1.
    9900012    2    1    2    0    0  0.34242048064E+02 -0.19131191432E+02  0.10707247974E+02  0.50528862031E+02  0.30000006630E+02 0.  0.
         12    1    1    2    0    0 -0.34242048064E+02  0.19131191432E+02 -0.10707247974E+02  0.40659137969E+02  0.00000000000E+00 0. -1.
         11    1    3    3    0    0  0.39374084780E+01  0.10146071499E+01 -0.53021434533E+01  0.66817167444E+01  0.51100000000E-03 0. -1.
        -11    1    3    3    0    0  0.56853775702E+00  0.12651669808E+01 -0.24517645074E+01  0.28169189075E+01  0.51100000000E-03 0.  1.
        -12    1    3    3    0    0  0.29736101829E+02 -0.21410965563E+02  0.18461155935E+02  0.41030226379E+02  0.00000000000E+00 0.  1.
</event>
<event>
 7    1  0.2500839E-011  0.5052886E+02  0.7816164E-02  0.1300439E+00
        -11   -1    0    0    0    0  0.00000000000E+00  0.00000000000E+00  0.45593999997E+02  0.45594000000E+02  0.51100000000E-03 0.  1.
         11   -1    0    0    0    0 -0.00000000000E+00 -0.00000000000E+00 -0.45593999997E+02  0.45594000000E+02  0.51100000000E-03 0. -1.
    9900012    2    1    2    0    0 -0.21281952014E+02  0.49316486188E+01  0.34291731561E+02  0.50528862120E+02  0.30000006901E+02 0.  0.
         12    1    1    2    0    0  0.21281952014E+02 -0.49316486188E+01 -0.34291731561E+02  0.40659137880E+02  0.00000000000E+00 0. -1.
         11    1    3    3    0    0 -0.71362584042E+01  0.26030885354E+01  0.29788861344E+00  0.76020386622E+01  0.51100000000E-03 0. -1.
        -11    1    3    3    0    0  0.85810747796E+00  0.72942446680E+01  0.21684533416E+02  0.22894570174E+02  0.51100000000E-03 0.  1.
         12    1    3    3    0    0 -0.15003801088E+02 -0.49656845846E+01  0.12309309532E+02  0.20032253284E+02  0.00000000000E+00 0. -1.
</event>
<event>
 7    1  0.2500839E-011  0.5052884E+02  0.7816164E-02  0.1300439E+00
        -11   -1    0    0    0    0  0.00000000000E+00  0.00000000000E+00  0.45593999997E+02  0.45594000000E+02  0.51100000000E-03 0. -1.
         11   -1    0    0    0    0 -0.00000000000E+00 -0.00000000000E+00 -0.45593999997E+02  0.45594000000E+02  0.51100000000E-03 0.  1.
    9900012    2    1    2    0    0  0.35109607073E+02 -0.16218577026E+02 -0.12547542610E+02  0.50528836517E+02  0.29999929078E+02 0.  0.
         12    1    1    2    0    0 -0.35109607073E+02  0.16218577026E+02  0.12547542610E+02  0.40659163483E+02  0.00000000000E+00 0. -1.
         11    1    3    3    0    0  0.25848970289E+02 -0.34399407105E+01 -0.22147331723E+01  0.26170737482E+02  0.51100000000E-03 0. -1.
        -11    1    3    3    0    0 -0.22711664530E+01 -0.24566037264E+01  0.25617185865E+01  0.42137277206E+01  0.51100000000E-03 0.  1.
        -12    1    3    3    0    0  0.11531803237E+02 -0.10322032590E+02 -0.12894528025E+02  0.20144371314E+02  0.00000000000E+00 0.  1.
</event>
<event>
 7    1  0.2500839E-011  0.5052886E+02  0.7816164E-02  0.1300439E+00
        -11   -1    0    0    0    0  0.00000000000E+00  0.00000000000E+00  0.45593999997E+02  0.45594000000E+02  0.51100000000E-03 0.  1.
         11   -1    0    0    0    0 -0.00000000000E+00 -0.00000000000E+00 -0.45593999997E+02  0.45594000000E+02  0.51100000000E-03 0. -1.
    9900012    2    1    2    0    0  0.19700789729E+01  0.16628637907E+02  0.37050948772E+02  0.50528860625E+02  0.30000002356E+02 0.  0.
         12    1    1    2    0    0 -0.19700789729E+01 -0.16628637907E+02 -0.37050948772E+02  0.40659139375E+02  0.00000000000E+00 0. -1.
         11    1    3    3    0    0 -0.98632002265E+01  0.84033000626E+01  0.16103315590E+02  0.20669178598E+02  0.51100000000E-03 0. -1.
        -11    1    3    3    0    0  0.19421788970E+01  0.10707856440E+02  0.12841580547E+02  0.16832600501E+02  0.51100000000E-03 0.  1.
         12    1    3    3    0    0  0.98911003025E+01 -0.24825185962E+01  0.81060526342E+01  0.13027081526E+02  0.00000000000E+00 0. -1.
</event>
<event>
 7    1  0.2500839E-011  0.5052885E+02  0.7816164E-02  0.1300439E+00
        -11   -1    0    0    0    0  0.00000000000E+00  0.00000000000E+00  0.45593999997E+02  0.45594000000E+02  0.51100000000E-03 0.  1.
         11   -1    0    0    0    0 -0.00000000000E+00 -0.00000000000E+00 -0.45593999997E+02  0.45594000000E+02  0.51100000000E-03 0. -1.
    9900012    2    1    2    0    0  0.49101018943E+01 -0.18842399732E+02  0.35693434466E+02  0.50528851063E+02  0.29999973292E+02 0.  0.
         12    1    1    2    0    0 -0.49101018943E+01  0.18842399732E+02 -0.35693434466E+02  0.40659148937E+02  0.00000000000E+00 0. -1.
         11    1    3    3    0    0 -0.88680187634E+01 -0.13791460333E+02  0.12329325807E+02  0.20514833902E+02  0.51100000000E-03 0. -1.
        -11    1    3    3    0    0  0.11268573593E+01 -0.39445042158E+01  0.12969564050E+02  0.13602886198E+02  0.51100000000E-03 0.  1.
         12    1    3    3    0    0  0.12651263298E+02 -0.11064351836E+01  0.10394544609E+02  0.16411130963E+02  0.00000000000E+00 0. -1.
</event>
<event>
 7    1  0.2500839E-011  0.5052886E+02  0.7816164E-02  0.1300439E+00
        -11   -1    0    0    0    0  0.00000000000E+00  0.00000000000E+00  0.45593999997E+02  0.45594000000E+02  0.51100000000E-03 0. -1.
         11   -1    0    0    0    0 -0.00000000000E+00 -0.00000000000E+00 -0.45593999997E+02  0.45594000000E+02  0.51100000000E-03 0.  1.
    9900012    2    1    2    0    0  0.29361762381E+02  0.17990654285E+02 -0.21619170803E+02  0.50528864767E+02  0.30000014945E+02 0.  0.
         12    1    1    2    0    0 -0.29361762381E+02 -0.17990654285E+02  0.21619170803E+02  0.40659135233E+02  0.00000000000E+00 0. -1.
         11    1    3    3    0    0  0.25708645497E+02  0.92243119211E+01 -0.15316350983E+02  0.31314740800E+02  0.51100000000E-03 0. -1.
        -11    1    3    3    0    0  0.66925682616E+01  0.96183762370E+01 -0.92244962075E+01  0.14912912590E+02  0.51100000000E-03 0.  1.
         12    1    3    3    0    0 -0.30394513774E+01 -0.85203387324E+00  0.29216763873E+01  0.43012113769E+01  0.00000000000E+00 0. -1.
</event>
<event>
 7    1  0.2500839E-011  0.5052885E+02  0.7816164E-02  0.1300439E+00
        -11   -1    0    0    0    0  0.00000000000E+00  0.00000000000E+00  0.45593999997E+02  0.45594000000E+02  0.51100000000E-03 0.  1.
         11   -1    0    0    0    0 -0.00000000000E+00 -0.00000000000E+00 -0.45593999997E+02  0.45594000000E+02  0.51100000000E-03 0. -1.
    9900012    2    1    2    0    0 -0.46553505192E+01  0.56220608738E+01  0.39998577845E+02  0.50528854823E+02  0.29999984720E+02 0.  0.
         12    1    1    2    0    0  0.46553505192E+01 -0.56220608738E+01 -0.39998577845E+02  0.40659145177E+02  0.00000000000E+00 0. -1.
         11    1    3    3    0    0 -0.39232104373E-01 -0.61088767566E+01  0.11084571241E+02  0.12656525362E+02  0.51100000000E-03 0. -1.
        -11    1    3    3    0    0  0.50052597681E+01  0.56607398598E+01  0.24552082293E+02  0.25688545040E+02  0.51100000000E-03 0.  1.
         12    1    3    3    0    0 -0.96213781829E+01  0.60701977706E+01  0.43619243105E+01  0.12183784420E+02  0.00000000000E+00 0. -1.
</event>
<event>
 7    1  0.2500839E-011  0.5052886E+02  0.7816164E-02  0.1300439E+00
        -11   -1    0    0    0    0  0.00000000000E+00  0.00000000000E+00  0.45593999997E+02  0.45594000000E+02  0.51100000000E-03 0. -1.
         11   -1    0    0    0    0 -0.00000000000E+00 -0.00000000000E+00 -0.45593999997E+02  0.45594000000E+02  0.51100000000E-03 0.  1.
    9900012    2    1    2    0    0  0.22654180898E+02 -0.31072056589E+02 -0.13209118664E+02  0.50528862913E+02  0.30000009310E+02 0.  0.
         12    1    1    2    0    0 -0.22654180898E+02  0.31072056589E+02  0.13209118664E+02  0.40659137087E+02  0.00000000000E+00 0. -1.
         11    1    3    3    0    0  0.17780075226E+01  0.23258700996E+01 -0.94595971340E+00  0.30766576851E+01  0.51100000000E-03 0.  1.
        -11    1    3    3    0    0  0.69256696156E+01 -0.24834351393E+02  0.18371524050E+01  0.25847341023E+02  0.51100000000E-03 0. -1.
         12    1    3    3    0    0  0.13950503759E+02 -0.85635752951E+01 -0.14100311356E+02  0.21604864205E+02  0.00000000000E+00 0. -1.
</event>
<event>
 7    1  0.2500839E-011  0.5052886E+02  0.7816164E-02  0.1300439E+00
        -11   -1    0    0    0    0  0.00000000000E+00  0.00000000000E+00  0.45593999997E+02  0.45594000000E+02  0.51100000000E-03 0. -1.
         11   -1    0    0    0    0 -0.00000000000E+00 -0.00000000000E+00 -0.45593999997E+02  0.45594000000E+02  0.51100000000E-03 0.  1.
    9900012    2    1    2    0    0  0.18227847477E+02  0.36244244877E+02 -0.26955241110E+01  0.50528861291E+02  0.30000004379E+02 0.  0.
         12    1    1    2    0    0 -0.18227847477E+02 -0.36244244877E+02  0.26955241110E+01  0.40659138709E+02  0.00000000000E+00 0. -1.
         11    1    3    3    0    0  0.92557894374E+01  0.65525645970E+00 -0.17427184293E+01  0.94411899103E+01  0.51100000000E-03 0. -1.
        -11    1    3    3    0    0  0.16223769981E+01 -0.20521313070E+01  0.67340687927E+00  0.27012639840E+01  0.51100000000E-03 0.  1.
        -12    1    3    3    0    0  0.73496810415E+01  0.37641119724E+02 -0.16262125610E+01  0.38386407396E+02  0.00000000000E+00 0.  1.
</event>
<event>
 7    1  0.2500839E-011  0.5052886E+02  0.7816164E-02  0.1300439E+00
        -11   -1    0    0    0    0  0.00000000000E+00  0.00000000000E+00  0.45593999997E+02  0.45594000000E+02  0.51100000000E-03 0.  1.
         11   -1    0    0    0    0 -0.00000000000E+00 -0.00000000000E+00 -0.45593999997E+02  0.45594000000E+02  0.51100000000E-03 0. -1.
    9900012    2    1    2    0    0 -0.88127380790E+01  0.31117080250E+02  0.24642008898E+02  0.50528860336E+02  0.30000001476E+02 0.  0.
         12    1    1    2    0    0  0.88127380790E+01 -0.31117080250E+02 -0.24642008898E+02  0.40659139664E+02  0.00000000000E+00 0. -1.
         11    1    3    3    0    0 -0.86713467022E+01  0.59190547844E+01  0.50683676964E+01  0.11658293809E+02  0.51100000000E-03 0. -1.
        -11    1    3    3    0    0  0.63081888972E+01  0.27153682301E+01  0.12789973922E+02  0.14517227868E+02  0.51100000000E-03 0.  1.
         12    1    3    3    0    0 -0.64495802740E+01  0.22482657235E+02  0.67836672796E+01  0.24353338659E+02  0.00000000000E+00 0. -1.
</event>
<event>
 7    1  0.2500839E-011  0.5052887E+02  0.7816164E-02  0.1300439E+00
        -11   -1    0    0    0    0  0.00000000000E+00  0.00000000000E+00  0.45593999997E+02  0.45594000000E+02  0.51100000000E-03 0. -1.
         11   -1    0    0    0    0 -0.00000000000E+00 -0.00000000000E+00 -0.45593999997E+02  0.45594000000E+02  0.51100000000E-03 0.  1.
    9900012    2    1    2    0    0  0.20449546091E+02 -0.32178031327E+02 -0.14126415091E+02  0.50528865249E+02  0.30000016411E+02 0.  0.
         12    1    1    2    0    0 -0.20449546091E+02  0.32178031327E+02  0.14126415091E+02  0.40659134751E+02  0.00000000000E+00 0. -1.
         11    1    3    3    0    0  0.48425482970E+01 -0.10155491474E+01 -0.37599484746E+01  0.62144047883E+01  0.51100000000E-03 0. -1.
        -11    1    3    3    0    0  0.16811558807E+02 -0.87150137599E+01  0.13130122611E+01  0.18981674737E+02  0.51100000000E-03 0.  1.
        -12    1    3    3    0    0 -0.12045610133E+01 -0.22447468419E+02 -0.11679478877E+02  0.25332785724E+02  0.00000000000E+00 0.  1.
</event>
<event>
 7    1  0.2500839E-011  0.5052886E+02  0.7816164E-02  0.1300439E+00
        -11   -1    0    0    0    0  0.00000000000E+00  0.00000000000E+00  0.45593999997E+02  0.45594000000E+02  0.51100000000E-03 0. -1.
         11   -1    0    0    0    0 -0.00000000000E+00 -0.00000000000E+00 -0.45593999997E+02  0.45594000000E+02  0.51100000000E-03 0.  1.
    9900012    2    1    2    0    0 -0.19221733062E+02 -0.29175201634E+02 -0.20796594632E+02  0.50528858831E+02  0.29999996904E+02 0.  0.
         12    1    1    2    0    0  0.19221733062E+02  0.29175201634E+02  0.20796594632E+02  0.40659141169E+02  0.00000000000E+00 0. -1.
         11    1    3    3    0    0 -0.11518005442E+01 -0.97590592096E+01  0.51474217747E+01  0.11093323773E+02  0.51100000000E-03 0. -1.
        -11    1    3    3    0    0 -0.25685375764E+01  0.19988526843E+01 -0.25570220895E+01  0.41389804979E+01  0.51100000000E-03 0.  1.
        -12    1    3    3    0    0 -0.15501394941E+02 -0.21414995109E+02 -0.23386994317E+02  0.35296554560E+02  0.00000000000E+00 0.  1.
</event>
<event>
 7    1  0.2500839E-011  0.5052886E+02  0.7816164E-02  0.1300439E+00
        -11   -1    0    0    0    0  0.00000000000E+00  0.00000000000E+00  0.45593999997E+02  0.45594000000E+02  0.51100000000E-03 0.  1.
         11   -1    0    0    0    0 -0.00000000000E+00 -0.00000000000E+00 -0.45593999997E+02  0.45594000000E+02  0.51100000000E-03 0. -1.
    9900012    2    1    2    0    0 -0.21325784892E+02 -0.18877119558E+02  0.29017768221E+02  0.50528860602E+02  0.30000002285E+02 0.  0.
         12    1    1    2    0    0  0.21325784892E+02  0.18877119558E+02 -0.29017768221E+02  0.40659139398E+02  0.00000000000E+00 0. -1.
         11    1    3    3    0    0 -0.10714680872E+02 -0.13727445524E+02  0.15184338714E+01  0.17480068321E+02  0.51100000000E-03 0. -1.
        -11    1    3    3    0    0 -0.11010247514E+02 -0.27099171686E+01  0.92513131423E+01  0.14634069718E+02  0.51100000000E-03 0.  1.
         12    1    3    3    0    0  0.39914349369E+00 -0.24397568646E+01  0.18248021208E+02  0.18414722563E+02  0.00000000000E+00 0. -1.
</event>
<event>
 7    1  0.2500839E-011  0.5052885E+02  0.7816164E-02  0.1300439E+00
        -11   -1    0    0    0    0  0.00000000000E+00  0.00000000000E+00  0.45593999997E+02  0.45594000000E+02  0.51100000000E-03 0.  1.
         11   -1    0    0    0    0 -0.00000000000E+00 -0.00000000000E+00 -0.45593999997E+02  0.45594000000E+02  0.51100000000E-03 0. -1.
    9900012    2    1    2    0    0 -0.57755633881E+01 -0.38570589485E+01  0.40061604845E+02  0.50528853194E+02  0.29999979769E+02 0.  0.
         12    1    1    2    0    0  0.57755633881E+01  0.38570589485E+01 -0.40061604845E+02  0.40659146806E+02  0.00000000000E+00 0. -1.
         11    1    3    3    0    0  0.43924981684E+01 -0.21282840712E+01  0.11170644969E+02  0.12190444723E+02  0.51100000000E-03 0. -1.
        -11    1    3    3    0    0 -0.78762730329E+01 -0.12100338332E+02  0.18632060941E+02  0.23571329190E+02  0.51100000000E-03 0.  1.
         12    1    3    3    0    0 -0.22917885235E+01  0.10371563455E+02  0.10258898935E+02  0.14767079281E+02  0.00000000000E+00 0. -1.
</event>
<event>
 7    1  0.2500839E-011  0.5052887E+02  0.7816164E-02  0.1300439E+00
        -11   -1    0    0    0    0  0.00000000000E+00  0.00000000000E+00  0.45593999997E+02  0.45594000000E+02  0.51100000000E-03 0.  1.
         11   -1    0    0    0    0 -0.00000000000E+00 -0.00000000000E+00 -0.45593999997E+02  0.45594000000E+02  0.51100000000E-03 0. -1.
    9900012    2    1    2    0    0  0.12899187945E+02  0.10210015852E+02  0.37182406636E+02  0.50528870194E+02  0.30000031441E+02 0.  0.
         12    1    1    2    0    0 -0.12899187945E+02 -0.10210015852E+02 -0.37182406636E+02  0.40659129806E+02  0.00000000000E+00 0. -1.
         11    1    3    3    0    0  0.11310905166E+02 -0.36807506618E+01  0.56961188767E+01  0.13188262646E+02  0.51100000000E-03 0. -1.
        -11    1    3    3    0    0 -0.26958192194E+01 -0.15300145376E+01  0.10499099410E+02  0.10947121742E+02  0.51100000000E-03 0.  1.
        -12    1    3    3    0    0  0.42841019985E+01  0.15420781051E+02  0.20987188349E+02  0.26393485806E+02  0.00000000000E+00 0.  1.
</event>
<event>
 7    1  0.2500839E-011  0.5052886E+02  0.7816164E-02  0.1300439E+00
        -11   -1    0    0    0    0  0.00000000000E+00  0.00000000000E+00  0.45593999997E+02  0.45594000000E+02  0.51100000000E-03 0.  1.
         11   -1    0    0    0    0 -0.00000000000E+00 -0.00000000000E+00 -0.45593999997E+02  0.45594000000E+02  0.51100000000E-03 0. -1.
    9900012    2    1    2    0    0 -0.22789379696E+02  0.33400795680E+02  0.42657279275E+01  0.50528863097E+02  0.30000009869E+02 0.  0.
         12    1    1    2    0    0  0.22789379696E+02 -0.33400795680E+02 -0.42657279275E+01  0.40659136903E+02  0.00000000000E+00 0. -1.
         11    1    3    3    0    0  0.19412303417E+00  0.14664875533E+01  0.57387279564E+01  0.59263199640E+01  0.51100000000E-03 0.  1.
        -11    1    3    3    0    0 -0.82400873186E+01 -0.10554915755E+01 -0.16400404912E+01  0.84677526273E+01  0.51100000000E-03 0. -1.
         12    1    3    3    0    0 -0.14743415411E+02  0.32989799702E+02  0.16704046218E+00  0.36134790506E+02  0.00000000000E+00 0. -1.
</event>
<event>
 7    1  0.2500839E-011  0.5052886E+02  0.7816164E-02  0.1300439E+00
        -11   -1    0    0    0    0  0.00000000000E+00  0.00000000000E+00  0.45593999997E+02  0.45594000000E+02  0.51100000000E-03 0.  1.
         11   -1    0    0    0    0 -0.00000000000E+00 -0.00000000000E+00 -0.45593999997E+02  0.45594000000E+02  0.51100000000E-03 0. -1.
    9900012    2    1    2    0    0 -0.33548044038E+02 -0.89708237875E+01  0.21147550983E+02  0.50528857722E+02  0.29999993531E+02 0.  0.
         12    1    1    2    0    0  0.33548044038E+02  0.89708237875E+01 -0.21147550983E+02  0.40659142278E+02  0.00000000000E+00 0. -1.
         11    1    3    3    0    0  0.18189671668E+01 -0.28218324708E+01  0.21491534188E+01  0.39862564802E+01  0.51100000000E-03 0. -1.
        -11    1    3    3    0    0 -0.19663030458E+02  0.61469212587E+01  0.16593608580E+02  0.26453114254E+02  0.51100000000E-03 0.  1.
         12    1    3    3    0    0 -0.15703980747E+02 -0.12295912575E+02  0.24047889841E+01  0.20089486988E+02  0.00000000000E+00 0. -1.
</event>
<event>
 7    1  0.2500839E-011  0.5052886E+02  0.7816164E-02  0.1300439E+00
        -11   -1    0    0    0    0  0.00000000000E+00  0.00000000000E+00  0.45593999997E+02  0.45594000000E+02  0.51100000000E-03 0. -1.
         11   -1    0    0    0    0 -0.00000000000E+00 -0.00000000000E+00 -0.45593999997E+02  0.45594000000E+02  0.51100000000E-03 0.  1.
    9900012    2    1    2    0    0 -0.27455347190E+02  0.12007141096E+02 -0.27480866390E+02  0.50528861493E+02  0.30000004993E+02 0.  0.
         12    1    1    2    0    0  0.27455347190E+02 -0.12007141096E+02  0.27480866390E+02  0.40659138507E+02  0.00000000000E+00 0. -1.
         11    1    3    3    0    0 -0.99769608543E+01  0.47373682474E+01 -0.10130132199E+02  0.14986726942E+02  0.51100000000E-03 0. -1.
        -11    1    3    3    0    0 -0.20401916734E+01  0.14006663768E+02 -0.85704548646E+01  0.16546954669E+02  0.51100000000E-03 0.  1.
         12    1    3    3    0    0 -0.15438194662E+02 -0.67368909198E+01 -0.87802793269E+01  0.18995179882E+02  0.00000000000E+00 0. -1.
</event>
<event>
 7    1  0.2500839E-011  0.5052885E+02  0.7816164E-02  0.1300439E+00
        -11   -1    0    0    0    0  0.00000000000E+00  0.00000000000E+00  0.45593999997E+02  0.45594000000E+02  0.51100000000E-03 0.  1.
         11   -1    0    0    0    0 -0.00000000000E+00 -0.00000000000E+00 -0.45593999997E+02  0.45594000000E+02  0.51100000000E-03 0. -1.
    9900012    2    1    2    0    0  0.20116798131E+02 -0.32668470121E+02  0.13462991070E+02  0.50528848070E+02  0.29999964194E+02 0.  0.
         12    1    1    2    0    0 -0.20116798131E+02  0.32668470121E+02 -0.13462991070E+02  0.40659151930E+02  0.00000000000E+00 0. -1.
         11    1    3    3    0    0  0.10197871322E+02 -0.54509920617E+01 -0.11216456493E+01  0.11617572172E+02  0.51100000000E-03 0. -1.
        -11    1    3    3    0    0  0.12921013346E+02 -0.10666084935E+02  0.14394266958E+02  0.22088749970E+02  0.51100000000E-03 0.  1.
        -12    1    3    3    0    0 -0.30020865369E+01 -0.16551393125E+02  0.19036976147E+00  0.16822525928E+02  0.00000000000E+00 0.  1.
</event>
<event>
 7    1  0.2500839E-011  0.5052886E+02  0.7816164E-02  0.1300439E+00
        -11   -1    0    0    0    0  0.00000000000E+00  0.00000000000E+00  0.45593999997E+02  0.45594000000E+02  0.51100000000E-03 0.  1.
         11   -1    0    0    0    0 -0.00000000000E+00 -0.00000000000E+00 -0.45593999997E+02  0.45594000000E+02  0.51100000000E-03 0. -1.
    9900012    2    1    2    0    0 -0.71571932028E+01 -0.32711364907E+02  0.23063111082E+02  0.50528857100E+02  0.29999991640E+02 0.  0.
         12    1    1    2    0    0  0.71571932028E+01  0.32711364907E+02 -0.23063111082E+02  0.40659142900E+02  0.00000000000E+00 0. -1.
         11    1    3    3    0    0  0.45042836701E+00  0.30324754810E+01  0.33329126728E+00  0.30838087792E+01  0.51100000000E-03 0. -1.
        -11    1    3    3    0    0 -0.97454374726E+01 -0.10316527602E+02  0.15299676652E+02  0.20868262965E+02  0.51100000000E-03 0.  1.
         12    1    3    3    0    0  0.21378159029E+01 -0.25427312787E+02  0.74301431628E+01  0.26576785355E+02  0.00000000000E+00 0. -1.
</event>
<event>
 7    1  0.2500839E-011  0.5052890E+02  0.7816164E-02  0.1300439E+00
        -11   -1    0    0    0    0  0.00000000000E+00  0.00000000000E+00  0.45593999997E+02  0.45594000000E+02  0.51100000000E-03 0.  1.
         11   -1    0    0    0    0 -0.00000000000E+00 -0.00000000000E+00 -0.45593999997E+02  0.45594000000E+02  0.51100000000E-03 0. -1.
    9900012    2    1    2    0    0 -0.10184409689E+02 -0.17138995116E+02  0.35435784215E+02  0.50528903143E+02  0.30000131592E+02 0.  0.
         12    1    1    2    0    0  0.10184409689E+02  0.17138995116E+02 -0.35435784215E+02  0.40659096857E+02  0.00000000000E+00 0. -1.
         11    1    3    3    0    0  0.44074326549E+01 -0.48835571157E+01  0.46816847329E+01  0.80742036702E+01  0.51100000000E-03 0. -1.
        -11    1    3    3    0    0 -0.81711103468E+01 -0.16072511428E+02  0.10494864439E+02  0.20862282899E+02  0.51100000000E-03 0.  1.
        -12    1    3    3    0    0 -0.64207319969E+01  0.38170734279E+01  0.20259235044E+02  0.21592416573E+02  0.00000000000E+00 0.  1.
</event>
<event>
 7    1  0.2500839E-011  0.5052886E+02  0.7816164E-02  0.1300439E+00
        -11   -1    0    0    0    0  0.00000000000E+00  0.00000000000E+00  0.45593999997E+02  0.45594000000E+02  0.51100000000E-03 0. -1.
         11   -1    0    0    0    0 -0.00000000000E+00 -0.00000000000E+00 -0.45593999997E+02  0.45594000000E+02  0.51100000000E-03 0.  1.
    9900012    2    1    2    0    0  0.30879946531E+02  0.88991043786E+01 -0.24907848040E+02  0.50528855266E+02  0.29999986066E+02 0.  0.
         12    1    1    2    0    0 -0.30879946531E+02 -0.88991043786E+01  0.24907848040E+02  0.40659144734E+02  0.00000000000E+00 0. -1.
         11    1    3    3    0    0  0.84237813042E+01  0.31875008746E+01 -0.16496794105E+02  0.18795331050E+02  0.51100000000E-03 0. -1.
        -11    1    3    3    0    0  0.23438360358E+02  0.16195314225E+01 -0.11836393615E+02  0.26307410218E+02  0.51100000000E-03 0.  1.
         12    1    3    3    0    0 -0.98219513096E+00  0.40920720816E+01  0.34253396793E+01  0.54261139976E+01  0.00000000000E+00 0. -1.
</event>
<event>
 7    1  0.2500839E-011  0.5052886E+02  0.7816164E-02  0.1300439E+00
        -11   -1    0    0    0    0  0.00000000000E+00  0.00000000000E+00  0.45593999997E+02  0.45594000000E+02  0.51100000000E-03 0. -1.
         11   -1    0    0    0    0 -0.00000000000E+00 -0.00000000000E+00 -0.45593999997E+02  0.45594000000E+02  0.51100000000E-03 0.  1.
    9900012    2    1    2    0    0  0.28545147771E+02  0.10127853376E+02 -0.27125017653E+02  0.50528862552E+02  0.30000008214E+02 0.  0.
         12    1    1    2    0    0 -0.28545147771E+02 -0.10127853376E+02  0.27125017653E+02  0.40659137448E+02  0.00000000000E+00 0. -1.
         11    1    3    3    0    0  0.18806663808E+01 -0.23214631717E+01  0.22051701180E+01  0.37133371519E+01  0.51100000000E-03 0. -1.
        -11    1    3    3    0    0  0.22043151966E+01 -0.38550757288E+00 -0.15979355043E+02  0.16135284609E+02  0.51100000000E-03 0.  1.
        -12    1    3    3    0    0  0.24460166194E+02  0.12834824121E+02 -0.13350832728E+02  0.30680240791E+02  0.00000000000E+00 0.  1.
</event>
<event>
 7    1  0.2500839E-011  0.5052886E+02  0.7816164E-02  0.1300439E+00
        -11   -1    0    0    0    0  0.00000000000E+00  0.00000000000E+00  0.45593999997E+02  0.45594000000E+02  0.51100000000E-03 0.  1.
         11   -1    0    0    0    0 -0.00000000000E+00 -0.00000000000E+00 -0.45593999997E+02  0.45594000000E+02  0.51100000000E-03 0. -1.
    9900012    2    1    2    0    0  0.32974604215E+01 -0.39369146319E+02  0.96105680373E+01  0.50528856562E+02  0.29999990007E+02 0.  0.
         12    1    1    2    0    0 -0.32974604215E+01  0.39369146319E+02 -0.96105680373E+01  0.40659143438E+02  0.00000000000E+00 0. -1.
         11    1    3    3    0    0  0.57821998697E+01 -0.28824305062E+00  0.21271226256E+01  0.61677848791E+01  0.51100000000E-03 0. -1.
        -11    1    3    3    0    0  0.29265761357E+00 -0.87461595230E+00 -0.42093146510E+01  0.43091683229E+01  0.51100000000E-03 0.  1.
        -12    1    3    3    0    0 -0.27773970617E+01 -0.38206287316E+02  0.11692760063E+02  0.40051903360E+02  0.00000000000E+00 0.  1.
</event>
<event>
 7    1  0.2500839E-011  0.5052887E+02  0.7816164E-02  0.1300439E+00
        -11   -1    0    0    0    0  0.00000000000E+00  0.00000000000E+00  0.45593999997E+02  0.45594000000E+02  0.51100000000E-03 0.  1.
         11   -1    0    0    0    0 -0.00000000000E+00 -0.00000000000E+00 -0.45593999997E+02  0.45594000000E+02  0.51100000000E-03 0. -1.
    9900012    2    1    2    0    0  0.26976163920E+02  0.22846317903E+02 -0.20087247014E+02  0.50528866288E+02  0.30000019570E+02 0.  0.
         12    1    1    2    0    0 -0.26976163920E+02 -0.22846317903E+02  0.20087247014E+02  0.40659133712E+02  0.00000000000E+00 0. -1.
         11    1    3    3    0    0  0.13623146575E+02  0.70853185329E+01 -0.14872755394E+02  0.21377341149E+02  0.51100000000E-03 0. -1.
        -11    1    3    3    0    0  0.15684381801E+02  0.17399736754E+02 -0.83920928638E+01  0.24883285444E+02  0.51100000000E-03 0.  1.
         12    1    3    3    0    0 -0.23313644553E+01 -0.16387373835E+01  0.31776012440E+01  0.42682396958E+01  0.00000000000E+00 0. -1.
</event>
<event>
 7    1  0.2500839E-011  0.5052886E+02  0.7816164E-02  0.1300439E+00
        -11   -1    0    0    0    0  0.00000000000E+00  0.00000000000E+00  0.45593999997E+02  0.45594000000E+02  0.51100000000E-03 0.  1.
         11   -1    0    0    0    0 -0.00000000000E+00 -0.00000000000E+00 -0.45593999997E+02  0.45594000000E+02  0.51100000000E-03 0. -1.
    9900012    2    1    2    0    0 -0.17526094306E+02 -0.59454959385E+01  0.36202943503E+02  0.50528855618E+02  0.29999987137E+02 0.  0.
         12    1    1    2    0    0  0.17526094306E+02  0.59454959385E+01 -0.36202943503E+02  0.40659144382E+02  0.00000000000E+00 0. -1.
         11    1    3    3    0    0 -0.41701509912E+00 -0.45923977183E+01 -0.48385988340E+00  0.46366085714E+01  0.51100000000E-03 0. -1.
        -11    1    3    3    0    0  0.44121640503E+01 -0.37336270745E+00  0.13655795691E+02  0.14355742668E+02  0.51100000000E-03 0.  1.
        -12    1    3    3    0    0 -0.21521243257E+02 -0.97973551270E+00  0.23031007695E+02  0.31536504379E+02  0.00000000000E+00 0.  1.
</event>
<event>
 7    1  0.2500839E-011  0.5052886E+02  0.7816164E-02  0.1300439E+00
        -11   -1    0    0    0    0  0.00000000000E+00  0.00000000000E+00  0.45593999997E+02  0.45594000000E+02  0.51100000000E-03 0.  1.
         11   -1    0    0    0    0 -0.00000000000E+00 -0.00000000000E+00 -0.45593999997E+02  0.45594000000E+02  0.51100000000E-03 0. -1.
    9900012    2    1    2    0    0 -0.23729419920E+02 -0.28419100507E+02  0.16805801031E+02  0.50528860909E+02  0.30000003217E+02 0.  0.
         12    1    1    2    0    0  0.23729419920E+02  0.28419100507E+02 -0.16805801031E+02  0.40659139091E+02  0.00000000000E+00 0. -1.
         11    1    3    3    0    0 -0.62679868705E+01  0.66329787718E+00 -0.23564681368E+01  0.67290835798E+01  0.51100000000E-03 0. -1.
        -11    1    3    3    0    0 -0.18836729533E+02 -0.22983212304E+02  0.76274787926E+01  0.30679453390E+02  0.51100000000E-03 0.  1.
         12    1    3    3    0    0  0.13752964833E+01 -0.60991860799E+01  0.11534790376E+02  0.13120323939E+02  0.00000000000E+00 0. -1.
</event>
<event>
 7    1  0.2500839E-011  0.5052878E+02  0.7816164E-02  0.1300439E+00
        -11   -1    0    0    0    0  0.00000000000E+00  0.00000000000E+00  0.45593999997E+02  0.45594000000E+02  0.51100000000E-03 0. -1.
         11   -1    0    0    0    0 -0.00000000000E+00 -0.00000000000E+00 -0.45593999997E+02  0.45594000000E+02  0.51100000000E-03 0.  1.
    9900012    2    1    2    0    0  0.19114826555E+02  0.35863095573E+02  0.12783645302E+01  0.50528776764E+02  0.29999747451E+02 0.  0.
         12    1    1    2    0    0 -0.19114826555E+02 -0.35863095573E+02 -0.12783645302E+01  0.40659223236E+02  0.00000000000E+00 0. -1.
         11    1    3    3    0    0 -0.17232382387E+01 -0.17188472859E+01  0.31132062771E+00  0.24537536172E+01  0.51100000000E-03 0. -1.
        -11    1    3    3    0    0 -0.72795366166E+00  0.18779412567E+02  0.42724608052E+01  0.19273042689E+02  0.51100000000E-03 0.  1.
        -12    1    3    3    0    0  0.21566018456E+02  0.18802530291E+02 -0.33054169027E+01  0.28801980458E+02  0.00000000000E+00 0.  1.
</event>
<event>
 7    1  0.2500839E-011  0.5052886E+02  0.7816164E-02  0.1300439E+00
        -11   -1    0    0    0    0  0.00000000000E+00  0.00000000000E+00  0.45593999997E+02  0.45594000000E+02  0.51100000000E-03 0. -1.
         11   -1    0    0    0    0 -0.00000000000E+00 -0.00000000000E+00 -0.45593999997E+02  0.45594000000E+02  0.51100000000E-03 0.  1.
    9900012    2    1    2    0    0  0.37285154699E+02  0.14404074356E+01 -0.16152655963E+02  0.50528857988E+02  0.29999994340E+02 0.  0.
         12    1    1    2    0    0 -0.37285154699E+02 -0.14404074356E+01  0.16152655963E+02  0.40659142012E+02  0.00000000000E+00 0. -1.
         11    1    3    3    0    0  0.42456387812E+01 -0.87318176545E+01 -0.23471460549E+01  0.99889530520E+01  0.51100000000E-03 0. -1.
        -11    1    3    3    0    0  0.16231965087E+02 -0.63541287623E+00  0.13774048762E-01  0.16244403039E+02  0.51100000000E-03 0.  1.
        -12    1    3    3    0    0  0.16807550830E+02  0.10807637966E+02 -0.13819283957E+02  0.24295501897E+02  0.00000000000E+00 0.  1.
</event>
<event>
 7    1  0.2500839E-011  0.5052886E+02  0.7816164E-02  0.1300439E+00
        -11   -1    0    0    0    0  0.00000000000E+00  0.00000000000E+00  0.45593999997E+02  0.45594000000E+02  0.51100000000E-03 0. -1.
         11   -1    0    0    0    0 -0.00000000000E+00 -0.00000000000E+00 -0.45593999997E+02  0.45594000000E+02  0.51100000000E-03 0.  1.
    9900012    2    1    2    0    0 -0.18073316885E+02  0.20380169433E+02 -0.30185589135E+02  0.50528857353E+02  0.29999992411E+02 0.  0.
         12    1    1    2    0    0  0.18073316885E+02 -0.20380169433E+02  0.30185589135E+02  0.40659142647E+02  0.00000000000E+00 0. -1.
         11    1    3    3    0    0  0.74126400720E+00 -0.16382210859E+01  0.18302715802E+01  0.25657620648E+01  0.51100000000E-03 0. -1.
        -11    1    3    3    0    0 -0.13003107973E+02  0.15537820120E+01 -0.18823949004E+02  0.22931116672E+02  0.51100000000E-03 0.  1.
         12    1    3    3    0    0 -0.58114729193E+01  0.20464608507E+02 -0.13191911712E+02  0.25031978616E+02  0.00000000000E+00 0. -1.
</event>
<event>
 7    1  0.2500839E-011  0.5052885E+02  0.7816164E-02  0.1300439E+00
        -11   -1    0    0    0    0  0.00000000000E+00  0.00000000000E+00  0.45593999997E+02  0.45594000000E+02  0.51100000000E-03 0.  1.
         11   -1    0    0    0    0 -0.00000000000E+00 -0.00000000000E+00 -0.45593999997E+02  0.45594000000E+02  0.51100000000E-03 0. -1.
    9900012    2    1    2    0    0 -0.39046218480E+02  0.99790944659E+01  0.53830128623E+01  0.50528851811E+02  0.29999975566E+02 0.  0.
         12    1    1    2    0    0  0.39046218480E+02 -0.99790944659E+01 -0.53830128623E+01  0.40659148189E+02  0.00000000000E+00 0. -1.
         11    1    3    3    0    0  0.20075622440E+01  0.71244208343E+00  0.44294340964E+01  0.49150550924E+01  0.51100000000E-03 0. -1.
        -11    1    3    3    0    0 -0.30459226735E+01  0.41733455223E+01 -0.45359449612E+01  0.68752639756E+01  0.51100000000E-03 0.  1.
        -12    1    3    3    0    0 -0.38007858051E+02  0.50933068602E+01  0.54895237271E+01  0.38738532743E+02  0.00000000000E+00 0.  1.
</event>
<event>
 7    1  0.2500839E-011  0.5052885E+02  0.7816164E-02  0.1300439E+00
        -11   -1    0    0    0    0  0.00000000000E+00  0.00000000000E+00  0.45593999997E+02  0.45594000000E+02  0.51100000000E-03 0. -1.
         11   -1    0    0    0    0 -0.00000000000E+00 -0.00000000000E+00 -0.45593999997E+02  0.45594000000E+02  0.51100000000E-03 0.  1.
    9900012    2    1    2    0    0  0.98832124341E+01 -0.61992970702E+01 -0.38949422944E+02  0.50528847034E+02  0.29999961046E+02 0.  0.
         12    1    1    2    0    0 -0.98832124341E+01  0.61992970702E+01  0.38949422944E+02  0.40659152966E+02  0.00000000000E+00 0. -1.
         11    1    3    3    0    0  0.73893598546E+01 -0.12190987868E+01 -0.14900289446E+02  0.16676554403E+02  0.51100000000E-03 0. -1.
        -11    1    3    3    0    0 -0.34072996454E+01 -0.84034742620E+01 -0.25335924957E+02  0.26909796808E+02  0.51100000000E-03 0.  1.
         12    1    3    3    0    0  0.59011522249E+01  0.34232759786E+01  0.12867914585E+01  0.69424958239E+01  0.00000000000E+00 0. -1.
</event>
<event>
 7    1  0.2500839E-011  0.5052886E+02  0.7816164E-02  0.1300439E+00
        -11   -1    0    0    0    0  0.00000000000E+00  0.00000000000E+00  0.45593999997E+02  0.45594000000E+02  0.51100000000E-03 0. -1.
         11   -1    0    0    0    0 -0.00000000000E+00 -0.00000000000E+00 -0.45593999997E+02  0.45594000000E+02  0.51100000000E-03 0.  1.
    9900012    2    1    2    0    0 -0.30871810787E+02 -0.25825385619E+02 -0.57573061242E+01  0.50528858132E+02  0.29999994778E+02 0.  0.
         12    1    1    2    0    0  0.30871810787E+02  0.25825385619E+02  0.57573061242E+01  0.40659141868E+02  0.00000000000E+00 0. -1.
         11    1    3    3    0    0 -0.10606660491E+02 -0.32438839357E+01 -0.69974646035E+01  0.13114440167E+02  0.51100000000E-03 0. -1.
        -11    1    3    3    0    0 -0.24188362256E+02 -0.21148306752E+02 -0.19043833968E+01  0.32186245875E+02  0.51100000000E-03 0.  1.
         12    1    3    3    0    0  0.39232119601E+01 -0.14331949314E+01  0.31445418760E+01  0.52281720902E+01  0.00000000000E+00 0. -1.
</event>
<event>
 7    1  0.2500839E-011  0.5052886E+02  0.7816164E-02  0.1300439E+00
        -11   -1    0    0    0    0  0.00000000000E+00  0.00000000000E+00  0.45593999997E+02  0.45594000000E+02  0.51100000000E-03 0.  1.
         11   -1    0    0    0    0 -0.00000000000E+00 -0.00000000000E+00 -0.45593999997E+02  0.45594000000E+02  0.51100000000E-03 0. -1.
    9900012    2    1    2    0    0  0.63568528138E+01  0.32207781287E+02  0.23987807602E+02  0.50528859986E+02  0.30000000412E+02 0.  0.
         12    1    1    2    0    0 -0.63568528138E+01 -0.32207781287E+02 -0.23987807602E+02  0.40659140014E+02  0.00000000000E+00 0. -1.
         11    1    3    3    0    0  0.77217027256E+01  0.16013004346E+00  0.45657524689E+01  0.89719802988E+01  0.51100000000E-03 0. -1.
        -11    1    3    3    0    0 -0.35277111458E+01  0.88405546070E+01 -0.21945537114E+01  0.97681225392E+01  0.51100000000E-03 0.  1.
         12    1    3    3    0    0  0.21628612340E+01  0.23207096637E+02  0.21616608845E+02  0.31788757147E+02  0.00000000000E+00 0. -1.
</event>
<event>
 7    1  0.2500839E-011  0.5052886E+02  0.7816164E-02  0.1300439E+00
        -11   -1    0    0    0    0  0.00000000000E+00  0.00000000000E+00  0.45593999997E+02  0.45594000000E+02  0.51100000000E-03 0. -1.
         11   -1    0    0    0    0 -0.00000000000E+00 -0.00000000000E+00 -0.45593999997E+02  0.45594000000E+02  0.51100000000E-03 0.  1.
    9900012    2    1    2    0    0 -0.17211782216E+02  0.35198743550E+02 -0.10861356253E+02  0.50528855220E+02  0.29999985926E+02 0.  0.
         12    1    1    2    0    0  0.17211782216E+02 -0.35198743550E+02  0.10861356253E+02  0.40659144780E+02  0.00000000000E+00 0. -1.
         11    1    3    3    0    0 -0.41301232188E+00  0.23135604334E+02  0.31679316985E+01  0.23355139875E+02  0.51100000000E-03 0. -1.
        -11    1    3    3    0    0 -0.19545148768E+01 -0.16759244281E+01 -0.29587937032E-01  0.25748255863E+01  0.51100000000E-03 0.  1.
        -12    1    3    3    0    0 -0.14844255018E+02  0.13739063645E+02 -0.13999700015E+02  0.24598889759E+02  0.00000000000E+00 0.  1.
</event>
<event>
 7    1  0.2500839E-011  0.5052886E+02  0.7816164E-02  0.1300439E+00
        -11   -1    0    0    0    0  0.00000000000E+00  0.00000000000E+00  0.45593999997E+02  0.45594000000E+02  0.51100000000E-03 0.  1.
         11   -1    0    0    0    0 -0.00000000000E+00 -0.00000000000E+00 -0.45593999997E+02  0.45594000000E+02  0.51100000000E-03 0. -1.
    9900012    2    1    2    0    0 -0.28596434106E+02 -0.13246385174E+02  0.25689357825E+02  0.50528857495E+02  0.29999992842E+02 0.  0.
         12    1    1    2    0    0  0.28596434106E+02  0.13246385174E+02 -0.25689357825E+02  0.40659142505E+02  0.00000000000E+00 0. -1.
         11    1    3    3    0    0 -0.23709268619E+01  0.58804564534E+01  0.68952112479E+01  0.93672301508E+01  0.51100000000E-03 0. -1.
        -11    1    3    3    0    0 -0.89116679715E+01 -0.27695904816E+01  0.14062908389E+02  0.16877613874E+02  0.51100000000E-03 0.  1.
         12    1    3    3    0    0 -0.17313839273E+02 -0.16357251146E+02  0.47312381880E+01  0.24284013470E+02  0.00000000000E+00 0. -1.
</event>
<event>
 7    1  0.3309018E-011  0.5052887E+02  0.7816164E-02  0.1300439E+00
        -11   -1    0    0    0    0  0.00000000000E+00  0.00000000000E+00  0.45593999997E+02  0.45594000000E+02  0.51100000000E-03 0. -1.
         11   -1    0    0    0    0 -0.00000000000E+00 -0.00000000000E+00 -0.45593999997E+02  0.45594000000E+02  0.51100000000E-03 0.  1.
    9900012    2    1    2    0    0 -0.11624187499E+02 -0.87826656352E+01 -0.37959291617E+02  0.50528871004E+02  0.30000033904E+02 0.  0.
         12    1    1    2    0    0  0.11624187499E+02  0.87826656352E+01  0.37959291617E+02  0.40659128996E+02  0.00000000000E+00 0. -1.
         11    1    3    3    0    0 -0.78727939675E+01 -0.17048421975E-01 -0.60266062954E+00  0.78958454644E+01  0.51100000000E-03 0. -1.
        -11    1    3    3    0    0  0.23342595980E+01  0.32780851659E+01 -0.21218491935E+02  0.21596736107E+02  0.51100000000E-03 0.  1.
         12    1    3    3    0    0 -0.60856531299E+01 -0.12043702379E+02 -0.16138139052E+02  0.21036289432E+02  0.00000000000E+00 0. -1.
</event>
<event>
 7    1  0.2500839E-011  0.5052886E+02  0.7816164E-02  0.1300439E+00
        -11   -1    0    0    0    0  0.00000000000E+00  0.00000000000E+00  0.45593999997E+02  0.45594000000E+02  0.51100000000E-03 0.  1.
         11   -1    0    0    0    0 -0.00000000000E+00 -0.00000000000E+00 -0.45593999997E+02  0.45594000000E+02  0.51100000000E-03 0. -1.
    9900012    2    1    2    0    0 -0.75319624600E+01 -0.39304688512E+02  0.71816675189E+01  0.50528863931E+02  0.30000012404E+02 0.  0.
         12    1    1    2    0    0  0.75319624600E+01  0.39304688512E+02 -0.71816675189E+01  0.40659136069E+02  0.00000000000E+00 0. -1.
         11    1    3    3    0    0 -0.92817376248E+00 -0.14667650262E+02 -0.76236094902E+01  0.16556596651E+02  0.51100000000E-03 0. -1.
        -11    1    3    3    0    0 -0.33346122102E+01 -0.19543518886E+02  0.21475168787E+01  0.19941930650E+02  0.51100000000E-03 0.  1.
         12    1    3    3    0    0 -0.32691764874E+01 -0.50935193638E+01  0.12657760130E+02  0.14030336629E+02  0.00000000000E+00 0. -1.
</event>
<event>
 7    1  0.2500839E-011  0.5052887E+02  0.7816164E-02  0.1300439E+00
        -11   -1    0    0    0    0  0.00000000000E+00  0.00000000000E+00  0.45593999997E+02  0.45594000000E+02  0.51100000000E-03 0.  1.
         11   -1    0    0    0    0 -0.00000000000E+00 -0.00000000000E+00 -0.45593999997E+02  0.45594000000E+02  0.51100000000E-03 0. -1.
    9900012    2    1    2    0    0 -0.34596469678E+02 -0.16652063542E+01 -0.21294987445E+02  0.50528866750E+02  0.30000020973E+02 0.  0.
         12    1    1    2    0    0  0.34596469678E+02  0.16652063542E+01  0.21294987445E+02  0.40659133250E+02  0.00000000000E+00 0. -1.
         11    1    3    3    0    0 -0.16995144388E+02  0.98534584632E+01 -0.27861826686E+01  0.19841582361E+02  0.51100000000E-03 0. -1.
        -11    1    3    3    0    0 -0.55947526050E+01 -0.30063756870E+01  0.80785253192E+00  0.64025133703E+01  0.51100000000E-03 0.  1.
         12    1    3    3    0    0 -0.12006572685E+02 -0.85122891304E+01 -0.19316657308E+02  0.24284771019E+02  0.00000000000E+00 0. -1.
</event>
<event>
 7    1  0.2500839E-011  0.5052887E+02  0.7816164E-02  0.1300439E+00
        -11   -1    0    0    0    0  0.00000000000E+00  0.00000000000E+00  0.45593999997E+02  0.45594000000E+02  0.51100000000E-03 0.  1.
         11   -1    0    0    0    0 -0.00000000000E+00 -0.00000000000E+00 -0.45593999997E+02  0.45594000000E+02  0.51100000000E-03 0. -1.
    9900012    2    1    2    0    0  0.45988036761E+01 -0.15333757470E+02  0.37375019373E+02  0.50528865891E+02  0.30000018361E+02 0.  0.
         12    1    1    2    0    0 -0.45988036761E+01  0.15333757470E+02 -0.37375019373E+02  0.40659134109E+02  0.00000000000E+00 0. -1.
         11    1    3    3    0    0 -0.85229440147E+01 -0.31642070159E+01  0.20226723179E+02  0.22175957962E+02  0.51100000000E-03 0.  1.
        -11    1    3    3    0    0 -0.10838391884E+01 -0.17642691045E+01  0.84744505035E+01  0.87237414254E+01  0.51100000000E-03 0. -1.
        -12    1    3    3    0    0  0.14205586879E+02 -0.10405281350E+02  0.86738456902E+01  0.19629166503E+02  0.00000000000E+00 0.  1.
</event>
<event>
 7    1  0.2500839E-011  0.5052891E+02  0.7816164E-02  0.1300439E+00
        -11   -1    0    0    0    0  0.00000000000E+00  0.00000000000E+00  0.45593999997E+02  0.45594000000E+02  0.51100000000E-03 0.  1.
         11   -1    0    0    0    0 -0.00000000000E+00 -0.00000000000E+00 -0.45593999997E+02  0.45594000000E+02  0.51100000000E-03 0. -1.
    9900012    2    1    2    0    0 -0.29809349560E+02 -0.27030739960E+02 -0.58226719711E+01  0.50528908361E+02  0.30000147455E+02 0.  0.
         12    1    1    2    0    0  0.29809349560E+02  0.27030739960E+02  0.58226719711E+01  0.40659091639E+02  0.00000000000E+00 0. -1.
         11    1    3    3    0    0 -0.27427550548E+02 -0.21821748964E+02 -0.95544255493E+01  0.36328312715E+02  0.51100000000E-03 0. -1.
        -11    1    3    3    0    0 -0.37859010267E+00 -0.54790758169E+01 -0.36188006142E+01  0.65771817992E+01  0.51100000000E-03 0.  1.
        -12    1    3    3    0    0 -0.20032089095E+01  0.27008482078E+00  0.73505541924E+01  0.76234138469E+01  0.00000000000E+00 0.  1.
</event>
<event>
 7    1  0.2500839E-011  0.5052885E+02  0.7816164E-02  0.1300439E+00
        -11   -1    0    0    0    0  0.00000000000E+00  0.00000000000E+00  0.45593999997E+02  0.45594000000E+02  0.51100000000E-03 0. -1.
         11   -1    0    0    0    0 -0.00000000000E+00 -0.00000000000E+00 -0.45593999997E+02  0.45594000000E+02  0.51100000000E-03 0.  1.
    9900012    2    1    2    0    0  0.30768418668E+02  0.22853052168E+02 -0.13572362838E+02  0.50528848339E+02  0.29999965013E+02 0.  0.
         12    1    1    2    0    0 -0.30768418668E+02 -0.22853052168E+02  0.13572362838E+02  0.40659151661E+02  0.00000000000E+00 0. -1.
         11    1    3    3    0    0  0.42846488383E+01  0.19366858756E+01  0.73746603985E+01  0.87461182306E+01  0.51100000000E-03 0. -1.
        -11    1    3    3    0    0 -0.26944830786E+00  0.50199000176E+01 -0.31778829345E+01  0.59473472056E+01  0.51100000000E-03 0.  1.
        -12    1    3    3    0    0  0.26753218138E+02  0.15896466275E+02 -0.17769140302E+02  0.35835382903E+02  0.00000000000E+00 0.  1.
</event>
<event>
 7    1  0.2500839E-011  0.5052885E+02  0.7816164E-02  0.1300439E+00
        -11   -1    0    0    0    0  0.00000000000E+00  0.00000000000E+00  0.45593999997E+02  0.45594000000E+02  0.51100000000E-03 0.  1.
         11   -1    0    0    0    0 -0.00000000000E+00 -0.00000000000E+00 -0.45593999997E+02  0.45594000000E+02  0.51100000000E-03 0. -1.
    9900012    2    1    2    0    0  0.27588442243E+02 -0.11355843654E+02  0.27624065328E+02  0.50528852004E+02  0.29999976153E+02 0.  0.
         12    1    1    2    0    0 -0.27588442243E+02  0.11355843654E+02 -0.27624065328E+02  0.40659147996E+02  0.00000000000E+00 0. -1.
         11    1    3    3    0    0  0.10300756299E+02  0.35348630182E+01  0.53449169761E+00  0.10903509459E+02  0.51100000000E-03 0. -1.
        -11    1    3    3    0    0  0.10435460368E+02  0.15387265163E+01  0.14003432210E+02  0.17531760502E+02  0.51100000000E-03 0.  1.
        -12    1    3    3    0    0  0.68522255762E+01 -0.16429433188E+02  0.13086141420E+02  0.22093582043E+02  0.00000000000E+00 0.  1.
</event>
<event>
 7    1  0.2500839E-011  0.5052887E+02  0.7816164E-02  0.1300439E+00
        -11   -1    0    0    0    0  0.00000000000E+00  0.00000000000E+00  0.45593999997E+02  0.45594000000E+02  0.51100000000E-03 0.  1.
         11   -1    0    0    0    0 -0.00000000000E+00 -0.00000000000E+00 -0.45593999997E+02  0.45594000000E+02  0.51100000000E-03 0. -1.
    9900012    2    1    2    0    0  0.10389925909E+02 -0.30921279689E+02  0.24271156045E+02  0.50528866786E+02  0.30000021082E+02 0.  0.
         12    1    1    2    0    0 -0.10389925909E+02  0.30921279689E+02 -0.24271156045E+02  0.40659133214E+02  0.00000000000E+00 0. -1.
         11    1    3    3    0    0  0.11416941678E+02 -0.23132022838E+02  0.58375127481E+01  0.26448319289E+02  0.51100000000E-03 0. -1.
        -11    1    3    3    0    0  0.51741106662E+01 -0.36295064850E+01  0.31309013420E+01  0.70531753122E+01  0.51100000000E-03 0.  1.
        -12    1    3    3    0    0 -0.62011264354E+01 -0.41597503658E+01  0.15302741955E+02  0.17027372185E+02  0.00000000000E+00 0.  1.
</event>
<event>
 7    1  0.2500839E-011  0.5052886E+02  0.7816164E-02  0.1300439E+00
        -11   -1    0    0    0    0  0.00000000000E+00  0.00000000000E+00  0.45593999997E+02  0.45594000000E+02  0.51100000000E-03 0. -1.
         11   -1    0    0    0    0 -0.00000000000E+00 -0.00000000000E+00 -0.45593999997E+02  0.45594000000E+02  0.51100000000E-03 0.  1.
    9900012    2    1    2    0    0  0.31057876039E+02 -0.26225140517E+02  0.90349726312E+00  0.50528856299E+02  0.29999989206E+02 0.  0.
         12    1    1    2    0    0 -0.31057876039E+02  0.26225140517E+02 -0.90349726312E+00  0.40659143701E+02  0.00000000000E+00 0. -1.
         11    1    3    3    0    0  0.49967488961E+01  0.10204478359E+01 -0.39519867910E+01  0.64518999662E+01  0.51100000000E-03 0. -1.
        -11    1    3    3    0    0  0.39415072368E+01 -0.12414978497E+02 -0.71563892873E+01  0.14862068439E+02  0.51100000000E-03 0.  1.
         12    1    3    3    0    0  0.22119619906E+02 -0.14830609856E+02  0.12011873341E+02  0.29214887894E+02  0.00000000000E+00 0. -1.
</event>
<event>
 7    1  0.2500839E-011  0.5052885E+02  0.7816164E-02  0.1300439E+00
        -11   -1    0    0    0    0  0.00000000000E+00  0.00000000000E+00  0.45593999997E+02  0.45594000000E+02  0.51100000000E-03 0.  1.
         11   -1    0    0    0    0 -0.00000000000E+00 -0.00000000000E+00 -0.45593999997E+02  0.45594000000E+02  0.51100000000E-03 0. -1.
    9900012    2    1    2    0    0  0.86678289167E+01 -0.32053175006E+02 -0.23465480999E+02  0.50528854847E+02  0.29999984792E+02 0.  0.
         12    1    1    2    0    0 -0.86678289167E+01  0.32053175006E+02  0.23465480999E+02  0.40659145153E+02  0.00000000000E+00 0. -1.
         11    1    3    3    0    0 -0.76489851505E+01 -0.38275115135E+01 -0.24159019655E+01  0.88878231748E+01  0.51100000000E-03 0. -1.
        -11    1    3    3    0    0  0.16840798614E+01 -0.10791554768E+02 -0.43266269580E+00  0.10930735408E+02  0.51100000000E-03 0.  1.
        -12    1    3    3    0    0  0.14632734206E+02 -0.17434108725E+02 -0.20616916337E+02  0.30710296264E+02  0.00000000000E+00 0.  1.
</event>
<event>
 7    1  0.2500839E-011  0.5052886E+02  0.7816164E-02  0.1300439E+00
        -11   -1    0    0    0    0  0.00000000000E+00  0.00000000000E+00  0.45593999997E+02  0.45594000000E+02  0.51100000000E-03 0.  1.
         11   -1    0    0    0    0 -0.00000000000E+00 -0.00000000000E+00 -0.45593999997E+02  0.45594000000E+02  0.51100000000E-03 0. -1.
    9900012    2    1    2    0    0 -0.31652996799E+02 -0.40936659289E+01  0.25189185221E+02  0.50528863767E+02  0.30000011907E+02 0.  0.
         12    1    1    2    0    0  0.31652996799E+02  0.40936659289E+01 -0.25189185221E+02  0.40659136233E+02  0.00000000000E+00 0. -1.
         11    1    3    3    0    0 -0.22399762937E+01 -0.83425835408E+01  0.73758242233E+00  0.86694995255E+01  0.51100000000E-03 0. -1.
        -11    1    3    3    0    0 -0.60467273785E+01 -0.22455520875E+01  0.14071242207E+02  0.15479188405E+02  0.51100000000E-03 0.  1.
         12    1    3    3    0    0 -0.23366293127E+02  0.64944696994E+01  0.10380360592E+02  0.26380175837E+02  0.00000000000E+00 0. -1.
</event>
<event>
 7    1  0.2500839E-011  0.5052886E+02  0.7816164E-02  0.1300439E+00
        -11   -1    0    0    0    0  0.00000000000E+00  0.00000000000E+00  0.45593999997E+02  0.45594000000E+02  0.51100000000E-03 0.  1.
         11   -1    0    0    0    0 -0.00000000000E+00 -0.00000000000E+00 -0.45593999997E+02  0.45594000000E+02  0.51100000000E-03 0. -1.
    9900012    2    1    2    0    0  0.22066118597E+01  0.36816530462E+02 -0.17112555883E+02  0.50528860560E+02  0.30000002158E+02 0.  0.
         12    1    1    2    0    0 -0.22066118597E+01 -0.36816530462E+02  0.17112555883E+02  0.40659139440E+02  0.00000000000E+00 0. -1.
         11    1    3    3    0    0  0.85934160866E+01  0.74623143800E+01 -0.12784784586E+01  0.11452835604E+02  0.51100000000E-03 0. -1.
        -11    1    3    3    0    0  0.19195591666E+01  0.16559324841E+02 -0.16958510472E+02  0.23779971074E+02  0.51100000000E-03 0.  1.
        -12    1    3    3    0    0 -0.83063633935E+01  0.12794891240E+02  0.11244330471E+01  0.15296053882E+02  0.00000000000E+00 0.  1.
</event>
<event>
 7    1  0.2500839E-011  0.5052886E+02  0.7816164E-02  0.1300439E+00
        -11   -1    0    0    0    0  0.00000000000E+00  0.00000000000E+00  0.45593999997E+02  0.45594000000E+02  0.51100000000E-03 0.  1.
         11   -1    0    0    0    0 -0.00000000000E+00 -0.00000000000E+00 -0.45593999997E+02  0.45594000000E+02  0.51100000000E-03 0. -1.
    9900012    2    1    2    0    0 -0.20506477222E+02  0.13455758934E+02  0.32428268147E+02  0.50528860417E+02  0.30000001725E+02 0.  0.
         12    1    1    2    0    0  0.20506477222E+02 -0.13455758934E+02 -0.32428268147E+02  0.40659139583E+02  0.00000000000E+00 0. -1.
         11    1    3    3    0    0 -0.44941670628E+01  0.15805263022E+02  0.19959688156E+02  0.25853298210E+02  0.51100000000E-03 0. -1.
        -11    1    3    3    0    0 -0.86205372026E+01  0.35312344252E+01  0.12035931149E+02  0.15219951285E+02  0.51100000000E-03 0.  1.
         12    1    3    3    0    0 -0.73917729566E+01 -0.58807385125E+01  0.43264884186E+00  0.94556109224E+01  0.00000000000E+00 0. -1.
</event>
<event>
 7    1  0.2500839E-011  0.5052887E+02  0.7816164E-02  0.1300439E+00
        -11   -1    0    0    0    0  0.00000000000E+00  0.00000000000E+00  0.45593999997E+02  0.45594000000E+02  0.51100000000E-03 0.  1.
         11   -1    0    0    0    0 -0.00000000000E+00 -0.00000000000E+00 -0.45593999997E+02  0.45594000000E+02  0.51100000000E-03 0. -1.
    9900012    2    1    2    0    0 -0.61750450224E+01  0.37103420171E+02  0.15439243769E+02  0.50528865509E+02  0.30000017201E+02 0.  0.
         12    1    1    2    0    0  0.61750450224E+01 -0.37103420171E+02 -0.15439243769E+02  0.40659134491E+02  0.00000000000E+00 0. -1.
         11    1    3    3    0    0  0.27395827316E+01  0.32826617219E+01 -0.52049200320E+01  0.67359018940E+01  0.51100000000E-03 0. -1.
        -11    1    3    3    0    0 -0.10398883182E+01  0.62513050517E+01  0.12454752461E+02  0.13974299327E+02  0.51100000000E-03 0.  1.
         12    1    3    3    0    0 -0.78747394359E+01  0.27569453397E+02  0.81894113399E+01  0.29818664288E+02  0.00000000000E+00 0. -1.
</event>
<event>
 7    1  0.2619499E-011  0.5052889E+02  0.7816164E-02  0.1300439E+00
        -11   -1    0    0    0    0  0.00000000000E+00  0.00000000000E+00  0.45593999997E+02  0.45594000000E+02  0.51100000000E-03 0.  1.
         11   -1    0    0    0    0 -0.00000000000E+00 -0.00000000000E+00 -0.45593999997E+02  0.45594000000E+02  0.51100000000E-03 0. -1.
    9900012    2    1    2    0    0 -0.39106474847E+02 -0.51559551359E+01  0.98622132662E+01  0.50528886644E+02  0.30000081444E+02 0.  0.
         12    1    1    2    0    0  0.39106474847E+02  0.51559551359E+01 -0.98622132662E+01  0.40659113356E+02  0.00000000000E+00 0. -1.
         11    1    3    3    0    0 -0.18218497679E+01  0.46667727416E+01 -0.93100527412E+00  0.50955544821E+01  0.51100000000E-03 0. -1.
        -11    1    3    3    0    0 -0.26046815863E+02  0.38204278834E+01  0.81705806586E+01  0.27564300724E+02  0.51100000000E-03 0.  1.
        -12    1    3    3    0    0 -0.11237809216E+02 -0.13643155761E+02  0.26226378817E+01  0.17869031439E+02  0.00000000000E+00 0.  1.
</event>
<event>
 7    1  0.2500839E-011  0.5052885E+02  0.7816164E-02  0.1300439E+00
        -11   -1    0    0    0    0  0.00000000000E+00  0.00000000000E+00  0.45593999997E+02  0.45594000000E+02  0.51100000000E-03 0.  1.
         11   -1    0    0    0    0 -0.00000000000E+00 -0.00000000000E+00 -0.45593999997E+02  0.45594000000E+02  0.51100000000E-03 0. -1.
    9900012    2    1    2    0    0  0.10822235055E+01 -0.12982115200E+02  0.38515709796E+02  0.50528850675E+02  0.29999972111E+02 0.  0.
         12    1    1    2    0    0 -0.10822235055E+01  0.12982115200E+02 -0.38515709796E+02  0.40659149325E+02  0.00000000000E+00 0. -1.
         11    1    3    3    0    0 -0.11682962310E+01  0.46850928609E+01  0.26909704681E+01  0.55277783530E+01  0.51100000000E-03 0.  1.
        -11    1    3    3    0    0  0.25843883434E+01 -0.20564804142E+02  0.36529892426E+02  0.42000277063E+02  0.51100000000E-03 0. -1.
         12    1    3    3    0    0 -0.33386860685E+00  0.28975960805E+01 -0.70515309824E+00  0.30007952586E+01  0.00000000000E+00 0. -1.
</event>
<event>
 7    1  0.2500839E-011  0.5052885E+02  0.7816164E-02  0.1300439E+00
        -11   -1    0    0    0    0  0.00000000000E+00  0.00000000000E+00  0.45593999997E+02  0.45594000000E+02  0.51100000000E-03 0.  1.
         11   -1    0    0    0    0 -0.00000000000E+00 -0.00000000000E+00 -0.45593999997E+02  0.45594000000E+02  0.51100000000E-03 0. -1.
    9900012    2    1    2    0    0  0.23764598660E+02  0.11026872073E+02  0.31093708306E+02  0.50528846623E+02  0.29999959794E+02 0.  0.
         12    1    1    2    0    0 -0.23764598660E+02 -0.11026872073E+02 -0.31093708306E+02  0.40659153377E+02  0.00000000000E+00 0. -1.
         11    1    3    3    0    0  0.41024541512E+01 -0.11939513537E+01  0.14516351921E+02  0.15132089190E+02  0.51100000000E-03 0. -1.
        -11    1    3    3    0    0  0.83098823589E+01 -0.49586538046E+01  0.13151631139E+01  0.97658612856E+01  0.51100000000E-03 0.  1.
        -12    1    3    3    0    0  0.11352262149E+02  0.17179477231E+02  0.15262193271E+02  0.25630896147E+02  0.00000000000E+00 0.  1.
</event>
<event>
 7    1  0.2768397E-011  0.5052887E+02  0.7816164E-02  0.1300439E+00
        -11   -1    0    0    0    0  0.00000000000E+00  0.00000000000E+00  0.45593999997E+02  0.45594000000E+02  0.51100000000E-03 0. -1.
         11   -1    0    0    0    0 -0.00000000000E+00 -0.00000000000E+00 -0.45593999997E+02  0.45594000000E+02  0.51100000000E-03 0.  1.
    9900012    2    1    2    0    0  0.22995031451E+02 -0.30277707081E+02  0.14410195144E+02  0.50528871362E+02  0.30000034991E+02 0.  0.
         12    1    1    2    0    0 -0.22995031451E+02  0.30277707081E+02 -0.14410195144E+02  0.40659128638E+02  0.00000000000E+00 0. -1.
         11    1    3    3    0    0 -0.57795522837E+01 -0.37921364907E+01 -0.24989153607E+00  0.69170781263E+01  0.51100000000E-03 0. -1.
        -11    1    3    3    0    0  0.84296095156E+01 -0.13100828955E+02  0.10796978683E+02  0.18954281438E+02  0.51100000000E-03 0.  1.
        -12    1    3    3    0    0  0.20344974219E+02 -0.13384741636E+02  0.38631079971E+01  0.24657511798E+02  0.00000000000E+00 0.  1.
</event>
<event>
 7    1  0.2500839E-011  0.5052890E+02  0.7816164E-02  0.1300439E+00
        -11   -1    0    0    0    0  0.00000000000E+00  0.00000000000E+00  0.45593999997E+02  0.45594000000E+02  0.51100000000E-03 0.  1.
         11   -1    0    0    0    0 -0.00000000000E+00 -0.00000000000E+00 -0.45593999997E+02  0.45594000000E+02  0.51100000000E-03 0. -1.
    9900012    2    1    2    0    0  0.32255740995E+02 -0.14125486275E+02  0.20327318450E+02  0.50528904277E+02  0.30000135040E+02 0.  0.
         12    1    1    2    0    0 -0.32255740995E+02  0.14125486275E+02 -0.20327318450E+02  0.40659095723E+02  0.00000000000E+00 0. -1.
         11    1    3    3    0    0  0.13458921323E+02  0.31971169745E+01  0.97360771375E+01  0.16916125987E+02  0.51100000000E-03 0. -1.
        -11    1    3    3    0    0  0.20762541193E+02 -0.95073806833E+01  0.11382497049E+02  0.25515380530E+02  0.51100000000E-03 0.  1.
        -12    1    3    3    0    0 -0.19657215201E+01 -0.78152225659E+01 -0.79125573637E+00  0.80973977603E+01  0.00000000000E+00 0.  1.
</event>
<event>
 7    1  0.2500839E-011  0.5052886E+02  0.7816164E-02  0.1300439E+00
        -11   -1    0    0    0    0  0.00000000000E+00  0.00000000000E+00  0.45593999997E+02  0.45594000000E+02  0.51100000000E-03 0.  1.
         11   -1    0    0    0    0 -0.00000000000E+00 -0.00000000000E+00 -0.45593999997E+02  0.45594000000E+02  0.51100000000E-03 0. -1.
    9900012    2    1    2    0    0 -0.12574866249E+02 -0.37820464033E+02  0.80405790027E+01  0.50528859926E+02  0.30000000232E+02 0.  0.
         12    1    1    2    0    0  0.12574866249E+02  0.37820464033E+02 -0.80405790027E+01  0.40659140074E+02  0.00000000000E+00 0. -1.
         11    1    3    3    0    0  0.60422593194E+00 -0.26566161837E+02  0.65946485418E+00  0.26581214003E+02  0.51100000000E-03 0. -1.
        -11    1    3    3    0    0 -0.46752310684E+01 -0.86483314789E+01  0.10629448948E+02  0.14478833106E+02  0.51100000000E-03 0.  1.
        -12    1    3    3    0    0 -0.85038611127E+01 -0.26059707172E+01 -0.32483347995E+01  0.94688128174E+01  0.00000000000E+00 0.  1.
</event>
<event>
 7    1  0.2500839E-011  0.5052887E+02  0.7816164E-02  0.1300439E+00
        -11   -1    0    0    0    0  0.00000000000E+00  0.00000000000E+00  0.45593999997E+02  0.45594000000E+02  0.51100000000E-03 0.  1.
         11   -1    0    0    0    0 -0.00000000000E+00 -0.00000000000E+00 -0.45593999997E+02  0.45594000000E+02  0.51100000000E-03 0. -1.
    9900012    2    1    2    0    0 -0.10665699064E+02  0.28968696070E+02  0.26461717061E+02  0.50528868697E+02  0.30000026892E+02 0.  0.
         12    1    1    2    0    0  0.10665699064E+02 -0.28968696070E+02 -0.26461717061E+02  0.40659131303E+02  0.00000000000E+00 0. -1.
         11    1    3    3    0    0 -0.83116728612E+01  0.23816095158E+02  0.12824757807E+02  0.28297786264E+02  0.51100000000E-03 0.  1.
        -11    1    3    3    0    0  0.33229848371E+00  0.55833207419E+01  0.17005139828E+02  0.17901359547E+02  0.51100000000E-03 0. -1.
         12    1    3    3    0    0 -0.26863246869E+01 -0.43071983062E+00 -0.33681805744E+01  0.43297228869E+01  0.00000000000E+00 0. -1.
</event>
<event>
 7    1  0.2500839E-011  0.5052885E+02  0.7816164E-02  0.1300439E+00
        -11   -1    0    0    0    0  0.00000000000E+00  0.00000000000E+00  0.45593999997E+02  0.45594000000E+02  0.51100000000E-03 0. -1.
         11   -1    0    0    0    0 -0.00000000000E+00 -0.00000000000E+00 -0.45593999997E+02  0.45594000000E+02  0.51100000000E-03 0.  1.
    9900012    2    1    2    0    0  0.28719458417E+02  0.19281563355E+02 -0.21367746907E+02  0.50528848692E+02  0.29999966083E+02 0.  0.
         12    1    1    2    0    0 -0.28719458417E+02 -0.19281563355E+02  0.21367746907E+02  0.40659151308E+02  0.00000000000E+00 0. -1.
         11    1    3    3    0    0 -0.35500926098E+01  0.25510358037E+01 -0.51485288757E+01  0.67541314064E+01  0.51100000000E-03 0. -1.
        -11    1    3    3    0    0  0.17572208480E+02  0.10333181030E+02 -0.18568271465E+02  0.27574224315E+02  0.51100000000E-03 0.  1.
        -12    1    3    3    0    0  0.14697342547E+02  0.63973465217E+01  0.23490534337E+01  0.16200492971E+02  0.00000000000E+00 0.  1.
</event>
<event>
 7    1  0.2500839E-011  0.5052886E+02  0.7816164E-02  0.1300439E+00
        -11   -1    0    0    0    0  0.00000000000E+00  0.00000000000E+00  0.45593999997E+02  0.45594000000E+02  0.51100000000E-03 0.  1.
         11   -1    0    0    0    0 -0.00000000000E+00 -0.00000000000E+00 -0.45593999997E+02  0.45594000000E+02  0.51100000000E-03 0. -1.
    9900012    2    1    2    0    0  0.45281679202E+01 -0.31864338961E+02  0.24846023766E+02  0.50528864506E+02  0.30000014153E+02 0.  0.
         12    1    1    2    0    0 -0.45281679202E+01  0.31864338961E+02 -0.24846023766E+02  0.40659135494E+02  0.00000000000E+00 0. -1.
         11    1    3    3    0    0 -0.41716356163E+01 -0.70779988516E+01 -0.29367172738E+01  0.87249596025E+01  0.51100000000E-03 0. -1.
        -11    1    3    3    0    0 -0.69943837489E-01 -0.44403869693E+01 -0.18445176447E+01  0.48087601500E+01  0.51100000000E-03 0.  1.
        -12    1    3    3    0    0  0.87697473740E+01 -0.20345953140E+02  0.29627258685E+02  0.36995144754E+02  0.00000000000E+00 0.  1.
</event>
<event>
 7    1  0.2791119E-011  0.5052886E+02  0.7816164E-02  0.1300439E+00
        -11   -1    0    0    0    0  0.00000000000E+00  0.00000000000E+00  0.45593999997E+02  0.45594000000E+02  0.51100000000E-03 0.  1.
         11   -1    0    0    0    0 -0.00000000000E+00 -0.00000000000E+00 -0.45593999997E+02  0.45594000000E+02  0.51100000000E-03 0. -1.
    9900012    2    1    2    0    0  0.32449825116E+02 -0.20413678157E+02  0.13544594897E+02  0.50528862566E+02  0.30000008256E+02 0.  0.
         12    1    1    2    0    0 -0.32449825116E+02  0.20413678157E+02 -0.13544594897E+02  0.40659137434E+02  0.00000000000E+00 0. -1.
         11    1    3    3    0    0  0.39510377922E+01 -0.79178756001E+01 -0.22576384045E+01  0.91323811287E+01  0.51100000000E-03 0. -1.
        -11    1    3    3    0    0  0.23132402064E+02 -0.18918025603E+02  0.12722729873E+02  0.32478724939E+02  0.51100000000E-03 0.  1.
         12    1    3    3    0    0  0.53663852594E+01  0.64222230457E+01  0.30795034288E+01  0.89177564987E+01  0.00000000000E+00 0. -1.
</event>
<event>
 7    1  0.2500839E-011  0.5052885E+02  0.7816164E-02  0.1300439E+00
        -11   -1    0    0    0    0  0.00000000000E+00  0.00000000000E+00  0.45593999997E+02  0.45594000000E+02  0.51100000000E-03 0. -1.
         11   -1    0    0    0    0 -0.00000000000E+00 -0.00000000000E+00 -0.45593999997E+02  0.45594000000E+02  0.51100000000E-03 0.  1.
    9900012    2    1    2    0    0  0.36322604021E+01  0.13066916019E-01 -0.40496577914E+02  0.50528852085E+02  0.29999976398E+02 0.  0.
         12    1    1    2    0    0 -0.36322604021E+01 -0.13066916019E-01  0.40496577914E+02  0.40659147915E+02  0.00000000000E+00 0. -1.
         11    1    3    3    0    0  0.13073447784E+01 -0.61052793605E+01 -0.38698839819E+01  0.73457190754E+01  0.51100000000E-03 0. -1.
        -11    1    3    3    0    0  0.66413002683E+01  0.85387323264E+01 -0.64311733034E+01  0.12584784834E+02  0.51100000000E-03 0.  1.
        -12    1    3    3    0    0 -0.43163846446E+01 -0.24203860499E+01 -0.30195520629E+02  0.30598348176E+02  0.00000000000E+00 0.  1.
</event>
<event>
 7    1  0.2500839E-011  0.5052886E+02  0.7816164E-02  0.1300439E+00
        -11   -1    0    0    0    0  0.00000000000E+00  0.00000000000E+00  0.45593999997E+02  0.45594000000E+02  0.51100000000E-03 0.  1.
         11   -1    0    0    0    0 -0.00000000000E+00 -0.00000000000E+00 -0.45593999997E+02  0.45594000000E+02  0.51100000000E-03 0. -1.
    9900012    2    1    2    0    0 -0.30939125436E+02 -0.44263932162E+01  0.26006596979E+02  0.50528861715E+02  0.30000005669E+02 0.  0.
         12    1    1    2    0    0  0.30939125436E+02  0.44263932162E+01 -0.26006596979E+02  0.40659138285E+02  0.00000000000E+00 0. -1.
         11    1    3    3    0    0 -0.78493583593E+01 -0.11898766649E+01  0.47561550928E+00  0.79532662161E+01  0.51100000000E-03 0. -1.
        -11    1    3    3    0    0 -0.39469851552E+00  0.84173964834E+01  0.47675805508E+01  0.96818477082E+01  0.51100000000E-03 0.  1.
        -12    1    3    3    0    0 -0.22695068561E+02 -0.11653913035E+02  0.20763400919E+02  0.32893747791E+02  0.00000000000E+00 0.  1.
</event>
<event>
 7    1  0.2500839E-011  0.5052886E+02  0.7816164E-02  0.1300439E+00
        -11   -1    0    0    0    0  0.00000000000E+00  0.00000000000E+00  0.45593999997E+02  0.45594000000E+02  0.51100000000E-03 0. -1.
         11   -1    0    0    0    0 -0.00000000000E+00 -0.00000000000E+00 -0.45593999997E+02  0.45594000000E+02  0.51100000000E-03 0.  1.
    9900012    2    1    2    0    0 -0.26705206094E+02  0.30419620244E+02 -0.38267719670E+01  0.50528861888E+02  0.30000006196E+02 0.  0.
         12    1    1    2    0    0  0.26705206094E+02 -0.30419620244E+02  0.38267719670E+01  0.40659138112E+02  0.00000000000E+00 0. -1.
         11    1    3    3    0    0  0.33000132014E+01  0.68926009766E+01 -0.10805517691E+01  0.77178771523E+01  0.51100000000E-03 0. -1.
        -11    1    3    3    0    0 -0.39999029054E+01  0.78522464389E+01  0.66348779300E+01  0.11030802455E+02  0.51100000000E-03 0.  1.
        -12    1    3    3    0    0 -0.26005316390E+02  0.15674772829E+02 -0.93810981280E+01  0.31780182281E+02  0.00000000000E+00 0.  1.
</event>
<event>
 7    1  0.2500839E-011  0.5052886E+02  0.7816164E-02  0.1300439E+00
        -11   -1    0    0    0    0  0.00000000000E+00  0.00000000000E+00  0.45593999997E+02  0.45594000000E+02  0.51100000000E-03 0.  1.
         11   -1    0    0    0    0 -0.00000000000E+00 -0.00000000000E+00 -0.45593999997E+02  0.45594000000E+02  0.51100000000E-03 0. -1.
    9900012    2    1    2    0    0  0.31110490264E+02  0.21187675273E+02  0.15374823711E+02  0.50528863362E+02  0.30000010676E+02 0.  0.
         12    1    1    2    0    0 -0.31110490264E+02 -0.21187675273E+02 -0.15374823711E+02  0.40659136638E+02  0.00000000000E+00 0. -1.
         11    1    3    3    0    0  0.57748133659E+01 -0.68894055493E+01  0.32066283113E+01  0.95443618761E+01  0.51100000000E-03 0. -1.
        -11    1    3    3    0    0  0.10261121476E+02  0.53991733243E+01  0.13107903128E+01  0.11668755633E+02  0.51100000000E-03 0.  1.
        -12    1    3    3    0    0  0.15074555423E+02  0.22677907498E+02  0.10857405087E+02  0.29315745853E+02  0.00000000000E+00 0.  1.
</event>
<event>
 7    1  0.2500839E-011  0.5052886E+02  0.7816164E-02  0.1300439E+00
        -11   -1    0    0    0    0  0.00000000000E+00  0.00000000000E+00  0.45593999997E+02  0.45594000000E+02  0.51100000000E-03 0.  1.
         11   -1    0    0    0    0 -0.00000000000E+00 -0.00000000000E+00 -0.45593999997E+02  0.45594000000E+02  0.51100000000E-03 0. -1.
    9900012    2    1    2    0    0  0.30117309806E+02 -0.17823616678E+02  0.20698601793E+02  0.50528858622E+02  0.29999996267E+02 0.  0.
         12    1    1    2    0    0 -0.30117309806E+02  0.17823616678E+02 -0.20698601793E+02  0.40659141378E+02  0.00000000000E+00 0. -1.
         11    1    3    3    0    0  0.17078922235E+02 -0.16188937344E+02  0.25258013109E+02  0.34521565774E+02  0.51100000000E-03 0.  1.
        -11    1    3    3    0    0 -0.37165898705E+00 -0.18946530866E+01 -0.51658584171E+00  0.19986750397E+01  0.51100000000E-03 0. -1.
        -12    1    3    3    0    0  0.13410046559E+02  0.25997375281E+00 -0.40428254749E+01  0.14008617808E+02  0.00000000000E+00 0.  1.
</event>
<event>
 7    1  0.2500839E-011  0.5052886E+02  0.7816164E-02  0.1300439E+00
        -11   -1    0    0    0    0  0.00000000000E+00  0.00000000000E+00  0.45593999997E+02  0.45594000000E+02  0.51100000000E-03 0. -1.
         11   -1    0    0    0    0 -0.00000000000E+00 -0.00000000000E+00 -0.45593999997E+02  0.45594000000E+02  0.51100000000E-03 0.  1.
    9900012    2    1    2    0    0  0.31628076719E+02  0.24236854462E+02 -0.80873315632E+01  0.50528864705E+02  0.30000014756E+02 0.  0.
         12    1    1    2    0    0 -0.31628076719E+02 -0.24236854462E+02  0.80873315632E+01  0.40659135295E+02  0.00000000000E+00 0. -1.
         11    1    3    3    0    0  0.71652382880E+01 -0.31470918951E+01 -0.35702325501E+01  0.86018246810E+01  0.51100000000E-03 0. -1.
        -11    1    3    3    0    0  0.19579670244E+02  0.72881920045E+01 -0.37942131987E+01  0.21233871140E+02  0.51100000000E-03 0.  1.
         12    1    3    3    0    0  0.48831681875E+01  0.20095754352E+02 -0.72288581430E+00  0.20693168883E+02  0.00000000000E+00 0. -1.
</event>
<event>
 7    1  0.2500839E-011  0.5052886E+02  0.7816164E-02  0.1300439E+00
        -11   -1    0    0    0    0  0.00000000000E+00  0.00000000000E+00  0.45593999997E+02  0.45594000000E+02  0.51100000000E-03 0.  1.
         11   -1    0    0    0    0 -0.00000000000E+00 -0.00000000000E+00 -0.45593999997E+02  0.45594000000E+02  0.51100000000E-03 0. -1.
    9900012    2    1    2    0    0  0.16370737754E+02 -0.92166642626E+01  0.36058526864E+02  0.50528864319E+02  0.30000013583E+02 0.  0.
         12    1    1    2    0    0 -0.16370737754E+02  0.92166642626E+01 -0.36058526864E+02  0.40659135681E+02  0.00000000000E+00 0. -1.
         11    1    3    3    0    0  0.20119140554E+02 -0.50378651478E+01  0.14838068409E+02  0.25501532822E+02  0.51100000000E-03 0. -1.
        -11    1    3    3    0    0 -0.44228167902E+00 -0.81052914411E+01  0.12351735413E+02  0.14780281810E+02  0.51100000000E-03 0.  1.
        -12    1    3    3    0    0 -0.33061211216E+01  0.39264923263E+01  0.88687230432E+01  0.10247049686E+02  0.00000000000E+00 0.  1.
</event>
<event>
 7    1  0.2500839E-011  0.5052886E+02  0.7816164E-02  0.1300439E+00
        -11   -1    0    0    0    0  0.00000000000E+00  0.00000000000E+00  0.45593999997E+02  0.45594000000E+02  0.51100000000E-03 0.  1.
         11   -1    0    0    0    0 -0.00000000000E+00 -0.00000000000E+00 -0.45593999997E+02  0.45594000000E+02  0.51100000000E-03 0. -1.
    9900012    2    1    2    0    0 -0.11070043797E+02 -0.36002115979E+02  0.15312335627E+02  0.50528857769E+02  0.29999993675E+02 0.  0.
         12    1    1    2    0    0  0.11070043797E+02  0.36002115979E+02 -0.15312335627E+02  0.40659142231E+02  0.00000000000E+00 0. -1.
         11    1    3    3    0    0 -0.41619260525E+01 -0.44006512639E+01  0.26684942477E-01  0.60570679673E+01  0.51100000000E-03 0. -1.
        -11    1    3    3    0    0 -0.27672253842E+01 -0.34064952524E+02  0.18320083500E+02  0.38777622239E+02  0.51100000000E-03 0.  1.
         12    1    3    3    0    0 -0.41408923606E+01  0.24634878093E+01 -0.30344328149E+01  0.56941675631E+01  0.00000000000E+00 0. -1.
</event>
<event>
 7    1  0.2500839E-011  0.5052882E+02  0.7816164E-02  0.1300439E+00
        -11   -1    0    0    0    0  0.00000000000E+00  0.00000000000E+00  0.45593999997E+02  0.45594000000E+02  0.51100000000E-03 0.  1.
         11   -1    0    0    0    0 -0.00000000000E+00 -0.00000000000E+00 -0.45593999997E+02  0.45594000000E+02  0.51100000000E-03 0. -1.
    9900012    2    1    2    0    0 -0.10338481925E+02  0.10123748467E+02  0.37997291154E+02  0.50528823588E+02  0.29999889777E+02 0.  0.
         12    1    1    2    0    0  0.10338481925E+02 -0.10123748467E+02 -0.37997291154E+02  0.40659176412E+02  0.00000000000E+00 0. -1.
         11    1    3    3    0    0 -0.31844682786E+01 -0.12512529426E+01  0.45502257365E+01  0.56930682991E+01  0.51100000000E-03 0. -1.
        -11    1    3    3    0    0 -0.15760339633E+02  0.28402406163E+01  0.26220995687E+02  0.30724516061E+02  0.51100000000E-03 0.  1.
         12    1    3    3    0    0  0.86063259870E+01  0.85347607931E+01  0.72260697296E+01  0.14111239227E+02  0.00000000000E+00 0. -1.
</event>
<event>
 7    1  0.2500839E-011  0.5052886E+02  0.7816164E-02  0.1300439E+00
        -11   -1    0    0    0    0  0.00000000000E+00  0.00000000000E+00  0.45593999997E+02  0.45594000000E+02  0.51100000000E-03 0.  1.
         11   -1    0    0    0    0 -0.00000000000E+00 -0.00000000000E+00 -0.45593999997E+02  0.45594000000E+02  0.51100000000E-03 0. -1.
    9900012    2    1    2    0    0 -0.25922709035E+02 -0.27053614515E+01  0.31206723837E+02  0.50528862811E+02  0.30000009002E+02 0.  0.
         12    1    1    2    0    0  0.25922709035E+02  0.27053614515E+01 -0.31206723837E+02  0.40659137189E+02  0.00000000000E+00 0. -1.
         11    1    3    3    0    0 -0.54261024886E+01 -0.37444305082E+01  0.43270120427E+01  0.78858342315E+01  0.51100000000E-03 0. -1.
        -11    1    3    3    0    0 -0.17479894575E+02 -0.63905067074E+01  0.28899469997E+02  0.34373894988E+02  0.51100000000E-03 0.  1.
         12    1    3    3    0    0 -0.30167119718E+01  0.74295757641E+01 -0.20197582029E+01  0.82691335915E+01  0.00000000000E+00 0. -1.
</event>
<event>
 7    1  0.2500839E-011  0.5052886E+02  0.7816164E-02  0.1300439E+00
        -11   -1    0    0    0    0  0.00000000000E+00  0.00000000000E+00  0.45593999997E+02  0.45594000000E+02  0.51100000000E-03 0.  1.
         11   -1    0    0    0    0 -0.00000000000E+00 -0.00000000000E+00 -0.45593999997E+02  0.45594000000E+02  0.51100000000E-03 0. -1.
    9900012    2    1    2    0    0  0.39858303549E+02 -0.25034761346E+01  0.76298010311E+01  0.50528860580E+02  0.30000002219E+02 0.  0.
         12    1    1    2    0    0 -0.39858303549E+02  0.25034761346E+01 -0.76298010311E+01  0.40659139420E+02  0.00000000000E+00 0. -1.
         11    1    3    3    0    0 -0.11232335632E+00 -0.35099801558E+01 -0.74486197723E+00  0.35899020679E+01  0.51100000000E-03 0. -1.
        -11    1    3    3    0    0  0.30521885765E+02 -0.94412846905E+01  0.75465529195E+01  0.32827942800E+02  0.51100000000E-03 0.  1.
        -12    1    3    3    0    0  0.94487411408E+01  0.10447788712E+02  0.82811008875E+00  0.14111015712E+02  0.00000000000E+00 0.  1.
</event>
<event>
 7    1  0.2500839E-011  0.5052885E+02  0.7816164E-02  0.1300439E+00
        -11   -1    0    0    0    0  0.00000000000E+00  0.00000000000E+00  0.45593999997E+02  0.45594000000E+02  0.51100000000E-03 0. -1.
         11   -1    0    0    0    0 -0.00000000000E+00 -0.00000000000E+00 -0.45593999997E+02  0.45594000000E+02  0.51100000000E-03 0.  1.
    9900012    2    1    2    0    0  0.30617406800E+02 -0.26538592657E+02  0.33828467453E+01  0.50528854024E+02  0.29999982292E+02 0.  0.
         12    1    1    2    0    0 -0.30617406800E+02  0.26538592657E+02 -0.33828467453E+01  0.40659145976E+02  0.00000000000E+00 0. -1.
         11    1    3    3    0    0  0.41926276944E+01  0.39258551867E+01  0.32241047651E+01  0.65867532008E+01  0.51100000000E-03 0. -1.
        -11    1    3    3    0    0  0.20016185080E+02 -0.28819150181E+02  0.53997826366E+01  0.35501390608E+02  0.51100000000E-03 0.  1.
         12    1    3    3    0    0  0.64085940252E+01 -0.16452976628E+01 -0.52410406564E+01  0.84407102155E+01  0.00000000000E+00 0. -1.
</event>
<event>
 7    1  0.2500839E-011  0.5052886E+02  0.7816164E-02  0.1300439E+00
        -11   -1    0    0    0    0  0.00000000000E+00  0.00000000000E+00  0.45593999997E+02  0.45594000000E+02  0.51100000000E-03 0. -1.
         11   -1    0    0    0    0 -0.00000000000E+00 -0.00000000000E+00 -0.45593999997E+02  0.45594000000E+02  0.51100000000E-03 0.  1.
    9900012    2    1    2    0    0 -0.33809879814E+02 -0.17048980503E+02 -0.14811831428E+02  0.50528855155E+02  0.29999985730E+02 0.  0.
         12    1    1    2    0    0  0.33809879814E+02  0.17048980503E+02  0.14811831428E+02  0.40659144845E+02  0.00000000000E+00 0. -1.
         11    1    3    3    0    0 -0.11823434208E+02 -0.14508434728E+02 -0.13750835021E+02  0.23224421172E+02  0.51100000000E-03 0.  1.
        -11    1    3    3    0    0  0.15019329348E+01 -0.19728316091E+01 -0.28059438689E+01  0.37444877293E+01  0.51100000000E-03 0. -1.
         12    1    3    3    0    0 -0.23488378541E+02 -0.56771416648E+00  0.17449474620E+01  0.23559946254E+02  0.00000000000E+00 0. -1.
</event>
<event>
 7    1  0.2500839E-011  0.5052886E+02  0.7816164E-02  0.1300439E+00
        -11   -1    0    0    0    0  0.00000000000E+00  0.00000000000E+00  0.45593999997E+02  0.45594000000E+02  0.51100000000E-03 0.  1.
         11   -1    0    0    0    0 -0.00000000000E+00 -0.00000000000E+00 -0.45593999997E+02  0.45594000000E+02  0.51100000000E-03 0. -1.
    9900012    2    1    2    0    0 -0.36317439395E+01 -0.44503320273E+01  0.40251339191E+02  0.50528864177E+02  0.30000013153E+02 0.  0.
         12    1    1    2    0    0  0.36317439395E+01  0.44503320273E+01 -0.40251339191E+02  0.40659135823E+02  0.00000000000E+00 0. -1.
         11    1    3    3    0    0 -0.18820576916E+01 -0.11737600299E+02  0.12611070562E+02  0.17330680971E+02  0.51100000000E-03 0.  1.
        -11    1    3    3    0    0 -0.58442604115E+01  0.25712426187E+01  0.18284634084E+01  0.66415319813E+01  0.51100000000E-03 0. -1.
        -12    1    3    3    0    0  0.40945741636E+01  0.47160256528E+01  0.25811805221E+02  0.26556651225E+02  0.00000000000E+00 0.  1.
</event>
<event>
 7    1  0.2500839E-011  0.5052886E+02  0.7816164E-02  0.1300439E+00
        -11   -1    0    0    0    0  0.00000000000E+00  0.00000000000E+00  0.45593999997E+02  0.45594000000E+02  0.51100000000E-03 0.  1.
         11   -1    0    0    0    0 -0.00000000000E+00 -0.00000000000E+00 -0.45593999997E+02  0.45594000000E+02  0.51100000000E-03 0. -1.
    9900012    2    1    2    0    0 -0.32158255012E+02  0.56013758239E+01  0.24241224405E+02  0.50528859118E+02  0.29999997776E+02 0.  0.
         12    1    1    2    0    0  0.32158255012E+02 -0.56013758239E+01 -0.24241224405E+02  0.40659140882E+02  0.00000000000E+00 0. -1.
         11    1    3    3    0    0  0.31002092553E+01 -0.14490986941E+01 -0.97462950312E+00  0.35582421758E+01  0.51100000000E-03 0. -1.
        -11    1    3    3    0    0 -0.12425670284E+02  0.24731989471E+01  0.30894955976E-01  0.12669449467E+02  0.51100000000E-03 0.  1.
        -12    1    3    3    0    0 -0.22832793983E+02  0.45772755709E+01  0.25184958952E+02  0.34301167475E+02  0.00000000000E+00 0.  1.
</event>
<event>
 7    1  0.2500839E-011  0.5052887E+02  0.7816164E-02  0.1300439E+00
        -11   -1    0    0    0    0  0.00000000000E+00  0.00000000000E+00  0.45593999997E+02  0.45594000000E+02  0.51100000000E-03 0.  1.
         11   -1    0    0    0    0 -0.00000000000E+00 -0.00000000000E+00 -0.45593999997E+02  0.45594000000E+02  0.51100000000E-03 0. -1.
    9900012    2    1    2    0    0  0.69537506523E+01  0.19924624187E+02  0.34753698044E+02  0.50528870338E+02  0.30000031880E+02 0.  0.
         12    1    1    2    0    0 -0.69537506523E+01 -0.19924624187E+02 -0.34753698044E+02  0.40659129662E+02  0.00000000000E+00 0. -1.
         11    1    3    3    0    0  0.34638215988E+01  0.10136519528E+02  0.17666588332E+02  0.20660479950E+02  0.51100000000E-03 0. -1.
        -11    1    3    3    0    0  0.11553756718E+02  0.81007105218E+01  0.44737403000E+01  0.14802876673E+02  0.51100000000E-03 0.  1.
         12    1    3    3    0    0 -0.80638276651E+01  0.16873941372E+01  0.12613369412E+02  0.15065513715E+02  0.00000000000E+00 0. -1.
</event>
<event>
 7    1  0.2500839E-011  0.5052885E+02  0.7816164E-02  0.1300439E+00
        -11   -1    0    0    0    0  0.00000000000E+00  0.00000000000E+00  0.45593999997E+02  0.45594000000E+02  0.51100000000E-03 0. -1.
         11   -1    0    0    0    0 -0.00000000000E+00 -0.00000000000E+00 -0.45593999997E+02  0.45594000000E+02  0.51100000000E-03 0.  1.
    9900012    2    1    2    0    0 -0.23969812420E+02  0.29637398236E+02 -0.14150578675E+02  0.50528853938E+02  0.29999982029E+02 0.  0.
         12    1    1    2    0    0  0.23969812420E+02 -0.29637398236E+02  0.14150578675E+02  0.40659146062E+02  0.00000000000E+00 0. -1.
         11    1    3    3    0    0 -0.82197699083E+01  0.68278596729E+01 -0.49002900328E+01  0.11755727443E+02  0.51100000000E-03 0. -1.
        -11    1    3    3    0    0 -0.16724009438E+02  0.43734589664E+01 -0.10573929131E+02  0.20263948592E+02  0.51100000000E-03 0.  1.
         12    1    3    3    0    0  0.97396692591E+00  0.18436079597E+02  0.13236404888E+01  0.18509177902E+02  0.00000000000E+00 0. -1.
</event>
<event>
 7    1  0.2500839E-011  0.5052886E+02  0.7816164E-02  0.1300439E+00
        -11   -1    0    0    0    0  0.00000000000E+00  0.00000000000E+00  0.45593999997E+02  0.45594000000E+02  0.51100000000E-03 0.  1.
         11   -1    0    0    0    0 -0.00000000000E+00 -0.00000000000E+00 -0.45593999997E+02  0.45594000000E+02  0.51100000000E-03 0. -1.
    9900012    2    1    2    0    0  0.88246035346E+01  0.62775040186E+01  0.39190369445E+02  0.50528859067E+02  0.29999997619E+02 0.  0.
         12    1    1    2    0    0 -0.88246035346E+01 -0.62775040186E+01 -0.39190369445E+02  0.40659140933E+02  0.00000000000E+00 0. -1.
         11    1    3    3    0    0  0.64150287932E+01  0.40478465902E+01  0.66377257207E+01  0.10079536668E+02  0.51100000000E-03 0. -1.
        -11    1    3    3    0    0  0.11080952714E+02 -0.18047354162E+01  0.27343835145E+02  0.29558922572E+02  0.51100000000E-03 0.  1.
         12    1    3    3    0    0 -0.86713779721E+01  0.40343928446E+01  0.52088085791E+01  0.10890399826E+02  0.00000000000E+00 0. -1.
</event>
<event>
 7    1  0.2500839E-011  0.5052886E+02  0.7816164E-02  0.1300439E+00
        -11   -1    0    0    0    0  0.00000000000E+00  0.00000000000E+00  0.45593999997E+02  0.45594000000E+02  0.51100000000E-03 0. -1.
         11   -1    0    0    0    0 -0.00000000000E+00 -0.00000000000E+00 -0.45593999997E+02  0.45594000000E+02  0.51100000000E-03 0.  1.
    9900012    2    1    2    0    0  0.52440461074E+01 -0.52465047111E+01 -0.39976739045E+02  0.50528862085E+02  0.30000006795E+02 0.  0.
         12    1    1    2    0    0 -0.52440461074E+01  0.52465047111E+01  0.39976739045E+02  0.40659137915E+02  0.00000000000E+00 0. -1.
         11    1    3    3    0    0  0.24874449028E+01 -0.14627678851E+01 -0.11973625730E+02  0.12316443700E+02  0.51100000000E-03 0. -1.
        -11    1    3    3    0    0 -0.41309625839E+01  0.91621281654E+01 -0.57998054989E+01  0.11603757515E+02  0.51100000000E-03 0.  1.
         12    1    3    3    0    0  0.68875637884E+01 -0.12945864991E+02 -0.22203307816E+02  0.26608660870E+02  0.00000000000E+00 0. -1.
</event>
<event>
 7    1  0.2500839E-011  0.5052886E+02  0.7816164E-02  0.1300439E+00
        -11   -1    0    0    0    0  0.00000000000E+00  0.00000000000E+00  0.45593999997E+02  0.45594000000E+02  0.51100000000E-03 0.  1.
         11   -1    0    0    0    0 -0.00000000000E+00 -0.00000000000E+00 -0.45593999997E+02  0.45594000000E+02  0.51100000000E-03 0. -1.
    9900012    2    1    2    0    0 -0.21557303608E+02  0.62345055486E+00  0.34468245532E+02  0.50528856139E+02  0.29999988720E+02 0.  0.
         12    1    1    2    0    0  0.21557303608E+02 -0.62345055486E+00 -0.34468245532E+02  0.40659143861E+02  0.00000000000E+00 0. -1.
         11    1    3    3    0    0 -0.36196173479E+01 -0.10079849920E+02  0.72937457979E+01  0.12957767253E+02  0.51100000000E-03 0. -1.
        -11    1    3    3    0    0  0.19682806562E+01  0.18542303865E+01 -0.49029124218E-01  0.27045707947E+01  0.51100000000E-03 0.  1.
         12    1    3    3    0    0 -0.19905966917E+02  0.88490700884E+01  0.27223528858E+02  0.34866518091E+02  0.00000000000E+00 0. -1.
</event>
<event>
 7    1  0.2500839E-011  0.5052885E+02  0.7816164E-02  0.1300439E+00
        -11   -1    0    0    0    0  0.00000000000E+00  0.00000000000E+00  0.45593999997E+02  0.45594000000E+02  0.51100000000E-03 0.  1.
         11   -1    0    0    0    0 -0.00000000000E+00 -0.00000000000E+00 -0.45593999997E+02  0.45594000000E+02  0.51100000000E-03 0. -1.
    9900012    2    1    2    0    0 -0.31853155317E+02  0.79055928375E+01  0.24000922689E+02  0.50528853530E+02  0.29999980789E+02 0.  0.
         12    1    1    2    0    0  0.31853155317E+02 -0.79055928375E+01 -0.24000922689E+02  0.40659146470E+02  0.00000000000E+00 0. -1.
         11    1    3    3    0    0 -0.18136081219E+02  0.43082969980E+01  0.25760144796E+01  0.18817936015E+02  0.51100000000E-03 0. -1.
        -11    1    3    3    0    0 -0.13237634257E+02 -0.51694346865E+01  0.10363749742E+02  0.17588784059E+02  0.51100000000E-03 0.  1.
        -12    1    3    3    0    0 -0.47943984065E+00  0.87667305260E+01  0.11061158468E+02  0.14122133455E+02  0.00000000000E+00 0.  1.
</event>
<event>
 7    1  0.2500839E-011  0.5052886E+02  0.7816164E-02  0.1300439E+00
        -11   -1    0    0    0    0  0.00000000000E+00  0.00000000000E+00  0.45593999997E+02  0.45594000000E+02  0.51100000000E-03 0.  1.
         11   -1    0    0    0    0 -0.00000000000E+00 -0.00000000000E+00 -0.45593999997E+02  0.45594000000E+02  0.51100000000E-03 0. -1.
    9900012    2    1    2    0    0  0.57972162317E+00 -0.28830587403E+02  0.28664040176E+02  0.50528855317E+02  0.29999986221E+02 0.  0.
         12    1    1    2    0    0 -0.57972162317E+00  0.28830587403E+02 -0.28664040176E+02  0.40659144683E+02  0.00000000000E+00 0. -1.
         11    1    3    3    0    0  0.81676455976E+01 -0.10935968166E+02  0.82200902808E+01  0.15933477926E+02  0.51100000000E-03 0. -1.
        -11    1    3    3    0    0  0.74201255148E+00 -0.14587714431E+02  0.21040101658E+02  0.25613236285E+02  0.51100000000E-03 0.  1.
        -12    1    3    3    0    0 -0.83299365259E+01 -0.33069048054E+01 -0.59615176251E+00  0.89821411057E+01  0.00000000000E+00 0.  1.
</event>
<event>
 7    1  0.2500839E-011  0.5052887E+02  0.7816164E-02  0.1300439E+00
        -11   -1    0    0    0    0  0.00000000000E+00  0.00000000000E+00  0.45593999997E+02  0.45594000000E+02  0.51100000000E-03 0.  1.
         11   -1    0    0    0    0 -0.00000000000E+00 -0.00000000000E+00 -0.45593999997E+02  0.45594000000E+02  0.51100000000E-03 0. -1.
    9900012    2    1    2    0    0 -0.21100870748E+02  0.14764553922E+02  0.31463095952E+02  0.50528865654E+02  0.30000017643E+02 0.  0.
         12    1    1    2    0    0  0.21100870748E+02 -0.14764553922E+02 -0.31463095952E+02  0.40659134346E+02  0.00000000000E+00 0. -1.
         11    1    3    3    0    0 -0.44911594173E+00  0.17696909444E+01 -0.55186201008E+01  0.58128030456E+01  0.51100000000E-03 0.  1.
        -11    1    3    3    0    0 -0.41504086290E+01  0.35190035064E+00  0.83780533922E+01  0.93563617153E+01  0.51100000000E-03 0. -1.
        -12    1    3    3    0    0 -0.16501346177E+02  0.12642962627E+02  0.28603662661E+02  0.35359700893E+02  0.00000000000E+00 0.  1.
</event>
<event>
 7    1  0.2500839E-011  0.5052888E+02  0.7816164E-02  0.1300439E+00
        -11   -1    0    0    0    0  0.00000000000E+00  0.00000000000E+00  0.45593999997E+02  0.45594000000E+02  0.51100000000E-03 0. -1.
         11   -1    0    0    0    0 -0.00000000000E+00 -0.00000000000E+00 -0.45593999997E+02  0.45594000000E+02  0.51100000000E-03 0.  1.
    9900012    2    1    2    0    0 -0.12147848940E+02  0.35338334513E+02 -0.16024865338E+02  0.50528875205E+02  0.30000046673E+02 0.  0.
         12    1    1    2    0    0  0.12147848940E+02 -0.35338334513E+02  0.16024865338E+02  0.40659124795E+02  0.00000000000E+00 0. -1.
         11    1    3    3    0    0 -0.21771282845E+01  0.17360619814E+02 -0.18012986125E+02  0.25111723902E+02  0.51100000000E-03 0. -1.
        -11    1    3    3    0    0 -0.13258813035E+02  0.11029374179E+02 -0.73449615249E+00  0.17262175493E+02  0.51100000000E-03 0.  1.
        -12    1    3    3    0    0  0.32880923796E+01  0.69483405195E+01  0.27226169401E+01  0.81549758108E+01  0.00000000000E+00 0.  1.
</event>
<event>
 7    1  0.2500839E-011  0.5052885E+02  0.7816164E-02  0.1300439E+00
        -11   -1    0    0    0    0  0.00000000000E+00  0.00000000000E+00  0.45593999997E+02  0.45594000000E+02  0.51100000000E-03 0.  1.
         11   -1    0    0    0    0 -0.00000000000E+00 -0.00000000000E+00 -0.45593999997E+02  0.45594000000E+02  0.51100000000E-03 0. -1.
    9900012    2    1    2    0    0 -0.31637360649E+02 -0.49135180975E+01  0.25061940693E+02  0.50528854409E+02  0.29999983460E+02 0.  0.
         12    1    1    2    0    0  0.31637360649E+02  0.49135180975E+01 -0.25061940693E+02  0.40659145591E+02  0.00000000000E+00 0. -1.
         11    1    3    3    0    0 -0.73776345097E+01  0.11559285465E+01 -0.12347262170E+01  0.75690297169E+01  0.51100000000E-03 0. -1.
        -11    1    3    3    0    0  0.28054875708E+01  0.41539021518E+01  0.32920516811E+01  0.59969382296E+01  0.51100000000E-03 0.  1.
        -12    1    3    3    0    0 -0.27065213710E+02 -0.10223348796E+02  0.23004615229E+02  0.36962886462E+02  0.00000000000E+00 0.  1.
</event>
<event>
 7    1  0.2500839E-011  0.5052886E+02  0.7816164E-02  0.1300439E+00
        -11   -1    0    0    0    0  0.00000000000E+00  0.00000000000E+00  0.45593999997E+02  0.45594000000E+02  0.51100000000E-03 0.  1.
         11   -1    0    0    0    0 -0.00000000000E+00 -0.00000000000E+00 -0.45593999997E+02  0.45594000000E+02  0.51100000000E-03 0. -1.
    9900012    2    1    2    0    0  0.37185204222E+02  0.12591116840E+02  0.10577820486E+02  0.50528856840E+02  0.29999990851E+02 0.  0.
         12    1    1    2    0    0 -0.37185204222E+02 -0.12591116840E+02 -0.10577820486E+02  0.40659143160E+02  0.00000000000E+00 0. -1.
         11    1    3    3    0    0  0.90264342268E+01  0.36123943982E+00 -0.10710897402E+01  0.90969358730E+01  0.51100000000E-03 0. -1.
        -11    1    3    3    0    0  0.88410594163E+01 -0.14905440767E+01  0.15026461485E+02  0.17498016981E+02  0.51100000000E-03 0.  1.
         12    1    3    3    0    0  0.19317710578E+02  0.13720421477E+02 -0.33775512593E+01  0.23933903986E+02  0.00000000000E+00 0. -1.
</event>
<event>
 7    1  0.2500839E-011  0.5052886E+02  0.7816164E-02  0.1300439E+00
        -11   -1    0    0    0    0  0.00000000000E+00  0.00000000000E+00  0.45593999997E+02  0.45594000000E+02  0.51100000000E-03 0.  1.
         11   -1    0    0    0    0 -0.00000000000E+00 -0.00000000000E+00 -0.45593999997E+02  0.45594000000E+02  0.51100000000E-03 0. -1.
    9900012    2    1    2    0    0 -0.12767075016E+02  0.38271598992E+02 -0.50450051358E+01  0.50528861166E+02  0.30000004000E+02 0.  0.
         12    1    1    2    0    0  0.12767075016E+02 -0.38271598992E+02  0.50450051358E+01  0.40659138834E+02  0.00000000000E+00 0. -1.
         11    1    3    3    0    0  0.67114750610E+01  0.22604259630E+01 -0.14553860025E+00  0.70834034739E+01  0.51100000000E-03 0. -1.
        -11    1    3    3    0    0 -0.51977112106E+01  0.96713424196E+00  0.42722687609E-02  0.52869243407E+01  0.51100000000E-03 0.  1.
         12    1    3    3    0    0 -0.14280838867E+02  0.35044038787E+02 -0.49037388043E+01  0.38158533351E+02  0.00000000000E+00 0. -1.
</event>
<event>
 7    1  0.2500839E-011  0.5052888E+02  0.7816164E-02  0.1300439E+00
        -11   -1    0    0    0    0  0.00000000000E+00  0.00000000000E+00  0.45593999997E+02  0.45594000000E+02  0.51100000000E-03 0.  1.
         11   -1    0    0    0    0 -0.00000000000E+00 -0.00000000000E+00 -0.45593999997E+02  0.45594000000E+02  0.51100000000E-03 0. -1.
    9900012    2    1    2    0    0  0.32790419579E+02 -0.23540715953E+02 -0.48772226007E+01  0.50528877727E+02  0.30000054338E+02 0.  0.
         12    1    1    2    0    0 -0.32790419579E+02  0.23540715953E+02  0.48772226007E+01  0.40659122273E+02  0.00000000000E+00 0. -1.
         11    1    3    3    0    0  0.71905032164E+00 -0.65874367375E+01  0.25887826615E+01  0.71142920986E+01  0.51100000000E-03 0. -1.
        -11    1    3    3    0    0  0.22027389301E+02 -0.22269700971E+02 -0.66479617757E+01  0.32020944033E+02  0.51100000000E-03 0.  1.
         12    1    3    3    0    0  0.10043979956E+02  0.53164217553E+01 -0.81804348657E+00  0.11393641595E+02  0.00000000000E+00 0. -1.
</event>
<event>
 7    1  0.2500839E-011  0.5052886E+02  0.7816164E-02  0.1300439E+00
        -11   -1    0    0    0    0  0.00000000000E+00  0.00000000000E+00  0.45593999997E+02  0.45594000000E+02  0.51100000000E-03 0.  1.
         11   -1    0    0    0    0 -0.00000000000E+00 -0.00000000000E+00 -0.45593999997E+02  0.45594000000E+02  0.51100000000E-03 0. -1.
    9900012    2    1    2    0    0  0.24052743720E+02 -0.32377914914E+02  0.51285664121E+01  0.50528855296E+02  0.29999986157E+02 0.  0.
         12    1    1    2    0    0 -0.24052743720E+02  0.32377914914E+02 -0.51285664121E+01  0.40659144704E+02  0.00000000000E+00 0. -1.
         11    1    3    3    0    0  0.11450467263E+02 -0.18362796195E+02 -0.54754933003E+01  0.22322332132E+02  0.51100000000E-03 0. -1.
        -11    1    3    3    0    0  0.67685190792E+01 -0.54908579120E+00 -0.36829467262E+01  0.77251823655E+01  0.51100000000E-03 0.  1.
        -12    1    3    3    0    0  0.58337573780E+01 -0.13466032927E+02  0.14287006439E+02  0.20481340799E+02  0.00000000000E+00 0.  1.
</event>
<event>
 7    1  0.2500839E-011  0.5052887E+02  0.7816164E-02  0.1300439E+00
        -11   -1    0    0    0    0  0.00000000000E+00  0.00000000000E+00  0.45593999997E+02  0.45594000000E+02  0.51100000000E-03 0.  1.
         11   -1    0    0    0    0 -0.00000000000E+00 -0.00000000000E+00 -0.45593999997E+02  0.45594000000E+02  0.51100000000E-03 0. -1.
    9900012    2    1    2    0    0 -0.35215129574E+02  0.19792667629E+02  0.46162849083E+01  0.50528866597E+02  0.30000020507E+02 0.  0.
         12    1    1    2    0    0  0.35215129574E+02 -0.19792667629E+02 -0.46162849083E+01  0.40659133403E+02  0.00000000000E+00 0. -1.
         11    1    3    3    0    0 -0.35078115455E+01  0.70820499139E+01 -0.33652306270E+01  0.85898166602E+01  0.51100000000E-03 0. -1.
        -11    1    3    3    0    0 -0.33326114754E+02  0.10746262160E+02  0.15816760397E+01  0.35051587330E+02  0.51100000000E-03 0.  1.
         12    1    3    3    0    0  0.16187967257E+01  0.19643555556E+01  0.63998394956E+01  0.68874626066E+01  0.00000000000E+00 0. -1.
</event>
<event>
 7    1  0.2500839E-011  0.5052887E+02  0.7816164E-02  0.1300439E+00
        -11   -1    0    0    0    0  0.00000000000E+00  0.00000000000E+00  0.45593999997E+02  0.45594000000E+02  0.51100000000E-03 0.  1.
         11   -1    0    0    0    0 -0.00000000000E+00 -0.00000000000E+00 -0.45593999997E+02  0.45594000000E+02  0.51100000000E-03 0. -1.
    9900012    2    1    2    0    0 -0.17415399505E+02  0.12499396033E+02  0.34549008223E+02  0.50528868058E+02  0.30000024949E+02 0.  0.
         12    1    1    2    0    0  0.17415399505E+02 -0.12499396033E+02 -0.34549008223E+02  0.40659131942E+02  0.00000000000E+00 0. -1.
         11    1    3    3    0    0 -0.12283969904E+02 -0.72767607723E+01  0.12077153015E+02  0.18700395428E+02  0.51100000000E-03 0. -1.
        -11    1    3    3    0    0 -0.29868733463E+01  0.58122601719E+01  0.13754180255E+02  0.15227647732E+02  0.51100000000E-03 0.  1.
        -12    1    3    3    0    0 -0.21445562544E+01  0.13963896634E+02  0.87176749521E+01  0.16600824898E+02  0.00000000000E+00 0.  1.
</event>
<event>
 7    1  0.2500839E-011  0.5052886E+02  0.7816164E-02  0.1300439E+00
        -11   -1    0    0    0    0  0.00000000000E+00  0.00000000000E+00  0.45593999997E+02  0.45594000000E+02  0.51100000000E-03 0. -1.
         11   -1    0    0    0    0 -0.00000000000E+00 -0.00000000000E+00 -0.45593999997E+02  0.45594000000E+02  0.51100000000E-03 0.  1.
    9900012    2    1    2    0    0  0.37367462375E+02  0.13833286419E+02 -0.80918856354E+01  0.50528859938E+02  0.30000000267E+02 0.  0.
         12    1    1    2    0    0 -0.37367462375E+02 -0.13833286419E+02  0.80918856354E+01  0.40659140062E+02  0.00000000000E+00 0. -1.
         11    1    3    3    0    0  0.91303913489E+01 -0.11685867072E+00  0.18009129664E+01  0.93070398037E+01  0.51100000000E-03 0. -1.
        -11    1    3    3    0    0  0.25879178771E+02  0.19276870932E+02 -0.33212832425E+01  0.32440107420E+02  0.51100000000E-03 0.  1.
         12    1    3    3    0    0  0.23578922548E+01 -0.53267258423E+01 -0.65715153593E+01  0.87817127146E+01  0.00000000000E+00 0. -1.
</event>
<event>
 7    1  0.2500839E-011  0.5052883E+02  0.7816164E-02  0.1300439E+00
        -11   -1    0    0    0    0  0.00000000000E+00  0.00000000000E+00  0.45593999997E+02  0.45594000000E+02  0.51100000000E-03 0. -1.
         11   -1    0    0    0    0 -0.00000000000E+00 -0.00000000000E+00 -0.45593999997E+02  0.45594000000E+02  0.51100000000E-03 0.  1.
    9900012    2    1    2    0    0  0.19294912195E+02 -0.29383313823E+02 -0.20432694642E+02  0.50528834020E+02  0.29999921487E+02 0.  0.
         12    1    1    2    0    0 -0.19294912195E+02  0.29383313823E+02  0.20432694642E+02  0.40659165980E+02  0.00000000000E+00 0. -1.
         11    1    3    3    0    0  0.16801636211E+00  0.23455348611E+01  0.28827476002E+00  0.23691487672E+01  0.51100000000E-03 0. -1.
        -11    1    3    3    0    0  0.17484597019E+02 -0.84269351556E+01 -0.13735398134E+02  0.23777836975E+02  0.51100000000E-03 0.  1.
        -12    1    3    3    0    0  0.16422988138E+01 -0.23301913529E+02 -0.69855712672E+01  0.24381848278E+02  0.00000000000E+00 0.  1.
</event>
<event>
 7    1  0.2500839E-011  0.5052886E+02  0.7816164E-02  0.1300439E+00
        -11   -1    0    0    0    0  0.00000000000E+00  0.00000000000E+00  0.45593999997E+02  0.45594000000E+02  0.51100000000E-03 0. -1.
         11   -1    0    0    0    0 -0.00000000000E+00 -0.00000000000E+00 -0.45593999997E+02  0.45594000000E+02  0.51100000000E-03 0.  1.
    9900012    2    1    2    0    0 -0.12617028037E+02 -0.38437531175E+02  0.40660630947E+01  0.50528855046E+02  0.29999985398E+02 0.  0.
         12    1    1    2    0    0  0.12617028037E+02  0.38437531175E+02 -0.40660630947E+01  0.40659144954E+02  0.00000000000E+00 0. -1.
         11    1    3    3    0    0 -0.10195158779E+02 -0.26644978469E+01  0.19317743377E+01  0.10713195773E+02  0.51100000000E-03 0. -1.
        -11    1    3    3    0    0  0.47648157199E+01 -0.73470292116E+01  0.54407374870E+01  0.10309409864E+02  0.51100000000E-03 0.  1.
        -12    1    3    3    0    0 -0.71866849774E+01 -0.28426004116E+02 -0.33064487300E+01  0.29506249409E+02  0.00000000000E+00 0.  1.
</event>
<event>
 7    1  0.2500839E-011  0.5052890E+02  0.7816164E-02  0.1300439E+00
        -11   -1    0    0    0    0  0.00000000000E+00  0.00000000000E+00  0.45593999997E+02  0.45594000000E+02  0.51100000000E-03 0.  1.
         11   -1    0    0    0    0 -0.00000000000E+00 -0.00000000000E+00 -0.45593999997E+02  0.45594000000E+02  0.51100000000E-03 0. -1.
    9900012    2    1    2    0    0  0.26431636576E+02  0.17777423609E+02  0.25268441033E+02  0.50528901209E+02  0.30000125714E+02 0.  0.
         12    1    1    2    0    0 -0.26431636576E+02 -0.17777423609E+02 -0.25268441033E+02  0.40659098791E+02  0.00000000000E+00 0. -1.
         11    1    3    3    0    0  0.42019914803E+01  0.86435089744E+01  0.17237869384E+02  0.19736036100E+02  0.51100000000E-03 0. -1.
        -11    1    3    3    0    0  0.72037972431E+01  0.11920801166E+02  0.98028006829E+00  0.13962848722E+02  0.51100000000E-03 0.  1.
         12    1    3    3    0    0  0.15025847852E+02 -0.27868865306E+01  0.70502915814E+01  0.16830016387E+02  0.00000000000E+00 0. -1.
</event>
<event>
 7    1  0.2500839E-011  0.5052888E+02  0.7816164E-02  0.1300439E+00
        -11   -1    0    0    0    0  0.00000000000E+00  0.00000000000E+00  0.45593999997E+02  0.45594000000E+02  0.51100000000E-03 0.  1.
         11   -1    0    0    0    0 -0.00000000000E+00 -0.00000000000E+00 -0.45593999997E+02  0.45594000000E+02  0.51100000000E-03 0. -1.
    9900012    2    1    2    0    0  0.21407468607E+01 -0.24376630046E+02  0.32470923621E+02  0.50528883306E+02  0.30000071297E+02 0.  0.
         12    1    1    2    0    0 -0.21407468607E+01  0.24376630046E+02 -0.32470923621E+02  0.40659116694E+02  0.00000000000E+00 0. -1.
         11    1    3    3    0    0 -0.74609285125E+01 -0.56144270910E+01  0.88430689759E+01  0.12860292182E+02  0.51100000000E-03 0. -1.
        -11    1    3    3    0    0  0.24919227637E+01 -0.16657197981E+02  0.49224254122E+01  0.17547142099E+02  0.51100000000E-03 0.  1.
         12    1    3    3    0    0  0.71097526095E+01 -0.21050049742E+01  0.18705429233E+02  0.20121449026E+02  0.00000000000E+00 0. -1.
</event>
<event>
 7    1  0.2500839E-011  0.5052888E+02  0.7816164E-02  0.1300439E+00
        -11   -1    0    0    0    0  0.00000000000E+00  0.00000000000E+00  0.45593999997E+02  0.45594000000E+02  0.51100000000E-03 0.  1.
         11   -1    0    0    0    0 -0.00000000000E+00 -0.00000000000E+00 -0.45593999997E+02  0.45594000000E+02  0.51100000000E-03 0. -1.
    9900012    2    1    2    0    0 -0.35043072826E+02  0.20599670064E+02 -0.89497932209E+00  0.50528876204E+02  0.30000049711E+02 0.  0.
         12    1    1    2    0    0  0.35043072826E+02 -0.20599670064E+02  0.89497932209E+00  0.40659123796E+02  0.00000000000E+00 0. -1.
         11    1    3    3    0    0  0.56921520557E+00  0.77740655328E+01  0.32431151737E+00  0.78016202855E+01  0.51100000000E-03 0. -1.
        -11    1    3    3    0    0 -0.11704593580E+02  0.52154256697E+01  0.89762078140E+01  0.15645142465E+02  0.51100000000E-03 0.  1.
        -12    1    3    3    0    0 -0.23907694452E+02  0.76101788612E+01 -0.10195498653E+02  0.27082113453E+02  0.00000000000E+00 0.  1.
</event>
<event>
 7    1  0.2500839E-011  0.5052885E+02  0.7816164E-02  0.1300439E+00
        -11   -1    0    0    0    0  0.00000000000E+00  0.00000000000E+00  0.45593999997E+02  0.45594000000E+02  0.51100000000E-03 0.  1.
         11   -1    0    0    0    0 -0.00000000000E+00 -0.00000000000E+00 -0.45593999997E+02  0.45594000000E+02  0.51100000000E-03 0. -1.
    9900012    2    1    2    0    0 -0.14643786303E+02  0.16308639868E+02  0.34245495072E+02  0.50528854112E+02  0.29999982558E+02 0.  0.
         12    1    1    2    0    0  0.14643786303E+02 -0.16308639868E+02 -0.34245495072E+02  0.40659145888E+02  0.00000000000E+00 0. -1.
         11    1    3    3    0    0 -0.88242226118E+00  0.66824398567E+01 -0.62653307439E+00  0.67695062922E+01  0.51100000000E-03 0. -1.
        -11    1    3    3    0    0 -0.57092096306E+01  0.12917396913E+02  0.31331945028E+02  0.34367790111E+02  0.51100000000E-03 0.  1.
         12    1    3    3    0    0 -0.80521544114E+01 -0.32911969016E+01  0.35400831184E+01  0.93915577087E+01  0.00000000000E+00 0. -1.
</event>
<event>
 7    1  0.2500839E-011  0.5052885E+02  0.7816164E-02  0.1300439E+00
        -11   -1    0    0    0    0  0.00000000000E+00  0.00000000000E+00  0.45593999997E+02  0.45594000000E+02  0.51100000000E-03 0.  1.
         11   -1    0    0    0    0 -0.00000000000E+00 -0.00000000000E+00 -0.45593999997E+02  0.45594000000E+02  0.51100000000E-03 0. -1.
    9900012    2    1    2    0    0 -0.18801002261E+02 -0.35649178542E+02 -0.53689150336E+01  0.50528845246E+02  0.29999955609E+02 0.  0.
         12    1    1    2    0    0  0.18801002261E+02  0.35649178542E+02  0.53689150336E+01  0.40659154754E+02  0.00000000000E+00 0. -1.
         11    1    3    3    0    0 -0.38142275096E+01 -0.47321178346E+01 -0.73436274879E+01  0.95325828419E+01  0.51100000000E-03 0. -1.
        -11    1    3    3    0    0 -0.37592895702E+01 -0.26329424867E+02 -0.49159126740E+01  0.27046941964E+02  0.51100000000E-03 0.  1.
        -12    1    3    3    0    0 -0.11227485181E+02 -0.45876358399E+01  0.68906251283E+01  0.13949320440E+02  0.00000000000E+00 0.  1.
</event>
<event>
 7    1  0.2500839E-011  0.5052887E+02  0.7816164E-02  0.1300439E+00
        -11   -1    0    0    0    0  0.00000000000E+00  0.00000000000E+00  0.45593999997E+02  0.45594000000E+02  0.51100000000E-03 0. -1.
         11   -1    0    0    0    0 -0.00000000000E+00 -0.00000000000E+00 -0.45593999997E+02  0.45594000000E+02  0.51100000000E-03 0.  1.
    9900012    2    1    2    0    0  0.20550119895E+02  0.29592480021E+02  0.18845228853E+02  0.50528868774E+02  0.30000027126E+02 0.  0.
         12    1    1    2    0    0 -0.20550119895E+02 -0.29592480021E+02 -0.18845228853E+02  0.40659131226E+02  0.00000000000E+00 0. -1.
         11    1    3    3    0    0  0.13287364282E+02  0.52464290830E+01  0.12904068444E+02  0.19250819473E+02  0.51100000000E-03 0. -1.
        -11    1    3    3    0    0  0.10796981968E+02  0.20149426850E+02  0.94817157494E+01  0.24748275815E+02  0.51100000000E-03 0.  1.
         12    1    3    3    0    0 -0.35342263550E+01  0.41966240879E+01 -0.35405553406E+01  0.65297734864E+01  0.00000000000E+00 0. -1.
</event>
<event>
 7    1  0.2500839E-011  0.5052885E+02  0.7816164E-02  0.1300439E+00
        -11   -1    0    0    0    0  0.00000000000E+00  0.00000000000E+00  0.45593999997E+02  0.45594000000E+02  0.51100000000E-03 0. -1.
         11   -1    0    0    0    0 -0.00000000000E+00 -0.00000000000E+00 -0.45593999997E+02  0.45594000000E+02  0.51100000000E-03 0.  1.
    9900012    2    1    2    0    0  0.20857254157E+02  0.30509998348E+02 -0.16949368414E+02  0.50528854168E+02  0.29999982729E+02 0.  0.
         12    1    1    2    0    0 -0.20857254157E+02 -0.30509998348E+02  0.16949368414E+02  0.40659145832E+02  0.00000000000E+00 0. -1.
         11    1    3    3    0    0  0.14122869767E+02  0.14838616023E+02 -0.84900904274E+00  0.20502702079E+02  0.51100000000E-03 0. -1.
        -11    1    3    3    0    0  0.11554437496E+02  0.32254134867E+01 -0.74483060974E+01  0.14120395957E+02  0.51100000000E-03 0.  1.
        -12    1    3    3    0    0 -0.48200531056E+01  0.12445968838E+02 -0.86520532734E+01  0.15905756131E+02  0.00000000000E+00 0.  1.
</event>
<event>
 7    1  0.2500839E-011  0.5052886E+02  0.7816164E-02  0.1300439E+00
        -11   -1    0    0    0    0  0.00000000000E+00  0.00000000000E+00  0.45593999997E+02  0.45594000000E+02  0.51100000000E-03 0. -1.
         11   -1    0    0    0    0 -0.00000000000E+00 -0.00000000000E+00 -0.45593999997E+02  0.45594000000E+02  0.51100000000E-03 0.  1.
    9900012    2    1    2    0    0 -0.11331345167E+02  0.16355596893E+02 -0.35457877921E+02  0.50528855399E+02  0.29999986470E+02 0.  0.
         12    1    1    2    0    0  0.11331345167E+02 -0.16355596893E+02  0.35457877921E+02  0.40659144601E+02  0.00000000000E+00 0. -1.
         11    1    3    3    0    0 -0.41476904201E+01  0.78356585850E+00 -0.79850507998E+01  0.90320732842E+01  0.51100000000E-03 0. -1.
        -11    1    3    3    0    0 -0.53407513738E+01  0.22375374741E+02 -0.25130171714E+02  0.34069143674E+02  0.51100000000E-03 0.  1.
         12    1    3    3    0    0 -0.18429033735E+01 -0.68033437074E+01 -0.23426554081E+01  0.74276384407E+01  0.00000000000E+00 0. -1.
</event>
<event>
 7    1  0.2500839E-011  0.5052885E+02  0.7816164E-02  0.1300439E+00
        -11   -1    0    0    0    0  0.00000000000E+00  0.00000000000E+00  0.45593999997E+02  0.45594000000E+02  0.51100000000E-03 0. -1.
         11   -1    0    0    0    0 -0.00000000000E+00 -0.00000000000E+00 -0.45593999997E+02  0.45594000000E+02  0.51100000000E-03 0.  1.
    9900012    2    1    2    0    0  0.17737999397E+02  0.31823981836E+02 -0.18048928006E+02  0.50528852878E+02  0.29999978808E+02 0.  0.
         12    1    1    2    0    0 -0.17737999397E+02 -0.31823981836E+02  0.18048928006E+02  0.40659147122E+02  0.00000000000E+00 0. -1.
         11    1    3    3    0    0 -0.42252974805E+01  0.92586235462E+01  0.70194937221E+00  0.10201371572E+02  0.51100000000E-03 0. -1.
        -11    1    3    3    0    0  0.12058818139E+02  0.65011846627E+01  0.34291554237E-01  0.13699696095E+02  0.51100000000E-03 0.  1.
        -12    1    3    3    0    0  0.99044787382E+01  0.16064173627E+02 -0.18785168933E+02  0.26627785211E+02  0.00000000000E+00 0.  1.
</event>
<event>
 7    1  0.2500839E-011  0.5052886E+02  0.7816164E-02  0.1300439E+00
        -11   -1    0    0    0    0  0.00000000000E+00  0.00000000000E+00  0.45593999997E+02  0.45594000000E+02  0.51100000000E-03 0. -1.
         11   -1    0    0    0    0 -0.00000000000E+00 -0.00000000000E+00 -0.45593999997E+02  0.45594000000E+02  0.51100000000E-03 0.  1.
    9900012    2    1    2    0    0 -0.31583966344E+02 -0.73938273811E+01 -0.24514290696E+02  0.50528855128E+02  0.29999985648E+02 0.  0.
         12    1    1    2    0    0  0.31583966344E+02  0.73938273811E+01  0.24514290696E+02  0.40659144872E+02  0.00000000000E+00 0. -1.
         11    1    3    3    0    0 -0.13549221612E+02  0.77753682361E+01 -0.32721701258E+01  0.15960728527E+02  0.51100000000E-03 0. -1.
        -11    1    3    3    0    0  0.96527724629E+00  0.15858750984E-01 -0.55262947815E+01  0.56099862687E+01  0.51100000000E-03 0.  1.
        -12    1    3    3    0    0 -0.19000021978E+02 -0.15185054368E+02 -0.15715825789E+02  0.28958140333E+02  0.00000000000E+00 0.  1.
</event>
<event>
 7    1  0.2500839E-011  0.5052880E+02  0.7816164E-02  0.1300439E+00
        -11   -1    0    0    0    0  0.00000000000E+00  0.00000000000E+00  0.45593999997E+02  0.45594000000E+02  0.51100000000E-03 0.  1.
         11   -1    0    0    0    0 -0.00000000000E+00 -0.00000000000E+00 -0.45593999997E+02  0.45594000000E+02  0.51100000000E-03 0. -1.
    9900012    2    1    2    0    0 -0.67913980203E+01  0.17490963983E+02  0.36070953778E+02  0.50528799140E+02  0.29999815466E+02 0.  0.
         12    1    1    2    0    0  0.67913980203E+01 -0.17490963983E+02 -0.36070953778E+02  0.40659200860E+02  0.00000000000E+00 0. -1.
         11    1    3    3    0    0 -0.13313344108E+01  0.63366583587E+01 -0.36561394196E+00  0.64853191351E+01  0.51100000000E-03 0. -1.
        -11    1    3    3    0    0  0.68121671735E+01 -0.12270351315E+01  0.70831778448E+01  0.99036682828E+01  0.51100000000E-03 0.  1.
        -12    1    3    3    0    0 -0.12272230783E+02  0.12381340756E+02  0.29353389875E+02  0.34139811722E+02  0.00000000000E+00 0.  1.
</event>
<event>
 7    1  0.2500839E-011  0.5052883E+02  0.7816164E-02  0.1300439E+00
        -11   -1    0    0    0    0  0.00000000000E+00  0.00000000000E+00  0.45593999997E+02  0.45594000000E+02  0.51100000000E-03 0.  1.
         11   -1    0    0    0    0 -0.00000000000E+00 -0.00000000000E+00 -0.45593999997E+02  0.45594000000E+02  0.51100000000E-03 0. -1.
    9900012    2    1    2    0    0  0.17812433167E+02  0.36035362999E+02  0.61104587465E+01  0.50528832917E+02  0.29999918136E+02 0.  0.
         12    1    1    2    0    0 -0.17812433167E+02 -0.36035362999E+02 -0.61104587465E+01  0.40659167083E+02  0.00000000000E+00 0. -1.
         11    1    3    3    0    0  0.87209742252E+01  0.12952974924E+02  0.10839028869E+02  0.19008405980E+02  0.51100000000E-03 0.  1.
        -11    1    3    3    0    0  0.11731581408E+02  0.68026852312E+01 -0.63003792086E+01  0.14953304221E+02  0.51100000000E-03 0. -1.
         12    1    3    3    0    0 -0.26401224662E+01  0.16279702843E+02  0.15718090859E+01  0.16567122717E+02  0.00000000000E+00 0. -1.
</event>
<event>
 7    1  0.2500839E-011  0.5052886E+02  0.7816164E-02  0.1300439E+00
        -11   -1    0    0    0    0  0.00000000000E+00  0.00000000000E+00  0.45593999997E+02  0.45594000000E+02  0.51100000000E-03 0.  1.
         11   -1    0    0    0    0 -0.00000000000E+00 -0.00000000000E+00 -0.45593999997E+02  0.45594000000E+02  0.51100000000E-03 0. -1.
    9900012    2    1    2    0    0 -0.20257686933E+02 -0.32293962672E+02  0.14138308460E+02  0.50528859932E+02  0.30000000250E+02 0.  0.
         12    1    1    2    0    0  0.20257686933E+02  0.32293962672E+02 -0.14138308460E+02  0.40659140068E+02  0.00000000000E+00 0. -1.
         11    1    3    3    0    0 -0.20507693434E+01 -0.23993614970E+02  0.25744883010E+01  0.24218323734E+02  0.51100000000E-03 0.  1.
        -11    1    3    3    0    0 -0.51532846592E+01 -0.88629884343E+01  0.72284499830E+01  0.12544297357E+02  0.51100000000E-03 0. -1.
         12    1    3    3    0    0 -0.13053632930E+02  0.56264073162E+00  0.43353701756E+01  0.13766238841E+02  0.00000000000E+00 0. -1.
</event>
<event>
 7    1  0.2500839E-011  0.5052887E+02  0.7816164E-02  0.1300439E+00
        -11   -1    0    0    0    0  0.00000000000E+00  0.00000000000E+00  0.45593999997E+02  0.45594000000E+02  0.51100000000E-03 0.  1.
         11   -1    0    0    0    0 -0.00000000000E+00 -0.00000000000E+00 -0.45593999997E+02  0.45594000000E+02  0.51100000000E-03 0. -1.
    9900012    2    1    2    0    0 -0.50863040554E+00  0.40525258533E+02  0.32572027737E+01  0.50528872439E+02  0.30000038266E+02 0.  0.
         12    1    1    2    0    0  0.50863040554E+00 -0.40525258533E+02 -0.32572027737E+01  0.40659127561E+02  0.00000000000E+00 0. -1.
         11    1    3    3    0    0 -0.73965916531E+01  0.18145443986E+02 -0.94166676697E+01  0.21740292910E+02  0.51100000000E-03 0. -1.
        -11    1    3    3    0    0  0.14588829326E+00  0.85189075632E+01  0.10012299106E+02  0.13146832436E+02  0.51100000000E-03 0.  1.
        -12    1    3    3    0    0  0.67420729543E+01  0.13860906984E+02  0.26615713377E+01  0.15641747093E+02  0.00000000000E+00 0.  1.
</event>
<event>
 7    1  0.2500839E-011  0.5052886E+02  0.7816164E-02  0.1300439E+00
        -11   -1    0    0    0    0  0.00000000000E+00  0.00000000000E+00  0.45593999997E+02  0.45594000000E+02  0.51100000000E-03 0. -1.
         11   -1    0    0    0    0 -0.00000000000E+00 -0.00000000000E+00 -0.45593999997E+02  0.45594000000E+02  0.51100000000E-03 0.  1.
    9900012    2    1    2    0    0 -0.31737774771E+02 -0.16838969809E+01 -0.25358315307E+02  0.50528855743E+02  0.29999987518E+02 0.  0.
         12    1    1    2    0    0  0.31737774771E+02  0.16838969809E+01  0.25358315307E+02  0.40659144257E+02  0.00000000000E+00 0. -1.
         11    1    3    3    0    0 -0.26139466471E+02 -0.10941713716E+01 -0.21881500108E+02  0.34106729037E+02  0.51100000000E-03 0.  1.
        -11    1    3    3    0    0 -0.65602796719E+01 -0.14049232962E+01  0.46725389992E+01  0.81757996429E+01  0.51100000000E-03 0. -1.
        -12    1    3    3    0    0  0.96197137161E+00  0.81519768692E+00 -0.81493541983E+01  0.82463270635E+01  0.00000000000E+00 0.  1.
</event>
<event>
 7    1  0.2500839E-011  0.5052886E+02  0.7816164E-02  0.1300439E+00
        -11   -1    0    0    0    0  0.00000000000E+00  0.00000000000E+00  0.45593999997E+02  0.45594000000E+02  0.51100000000E-03 0. -1.
         11   -1    0    0    0    0 -0.00000000000E+00 -0.00000000000E+00 -0.45593999997E+02  0.45594000000E+02  0.51100000000E-03 0.  1.
    9900012    2    1    2    0    0 -0.22238719441E+02  0.32596706338E+02 -0.98010058444E+01  0.50528860535E+02  0.30000002083E+02 0.  0.
         12    1    1    2    0    0  0.22238719441E+02 -0.32596706338E+02  0.98010058444E+01  0.40659139465E+02  0.00000000000E+00 0. -1.
         11    1    3    3    0    0 -0.14949617508E+02  0.15624126422E+02 -0.79045872185E+01  0.23023615907E+02  0.51100000000E-03 0. -1.
        -11    1    3    3    0    0 -0.47540699277E+01  0.30182519893E+01 -0.97750779845E+01  0.11281098165E+02  0.51100000000E-03 0.  1.
         12    1    3    3    0    0 -0.25350320052E+01  0.13954327927E+02  0.78786593587E+01  0.16224146463E+02  0.00000000000E+00 0. -1.
</event>
<event>
 7    1  0.2500839E-011  0.5052877E+02  0.7816164E-02  0.1300439E+00
        -11   -1    0    0    0    0  0.00000000000E+00  0.00000000000E+00  0.45593999997E+02  0.45594000000E+02  0.51100000000E-03 0. -1.
         11   -1    0    0    0    0 -0.00000000000E+00 -0.00000000000E+00 -0.45593999997E+02  0.45594000000E+02  0.51100000000E-03 0.  1.
    9900012    2    1    2    0    0 -0.40348403513E+02 -0.11760482993E+01  0.48781070138E+01  0.50528773695E+02  0.29999738123E+02 0.  0.
         12    1    1    2    0    0  0.40348403513E+02  0.11760482993E+01 -0.48781070138E+01  0.40659226305E+02  0.00000000000E+00 0. -1.
         11    1    3    3    0    0 -0.27793395196E+02 -0.62853356281E+01  0.76361347364E+01  0.29500657865E+02  0.51100000000E-03 0. -1.
        -11    1    3    3    0    0 -0.37106839626E+01 -0.57433911239E+01 -0.62265933533E+00  0.68661067558E+01  0.51100000000E-03 0.  1.
        -12    1    3    3    0    0 -0.88443243543E+01  0.10852678453E+02 -0.21353683873E+01  0.14162009075E+02  0.00000000000E+00 0.  1.
</event>
<event>
 7    1  0.2500839E-011  0.5052886E+02  0.7816164E-02  0.1300439E+00
        -11   -1    0    0    0    0  0.00000000000E+00  0.00000000000E+00  0.45593999997E+02  0.45594000000E+02  0.51100000000E-03 0.  1.
         11   -1    0    0    0    0 -0.00000000000E+00 -0.00000000000E+00 -0.45593999997E+02  0.45594000000E+02  0.51100000000E-03 0. -1.
    9900012    2    1    2    0    0 -0.12558059605E+02  0.19782496425E+02  0.33228203189E+02  0.50528861876E+02  0.30000006158E+02 0.  0.
         12    1    1    2    0    0  0.12558059605E+02 -0.19782496425E+02 -0.33228203189E+02  0.40659138124E+02  0.00000000000E+00 0. -1.
         11    1    3    3    0    0 -0.86619736284E+01  0.11585939933E+02  0.90225720252E+01  0.17049064417E+02  0.51100000000E-03 0.  1.
        -11    1    3    3    0    0 -0.21744282398E+01  0.54917583965E-01 -0.37372248750E+01  0.43241188858E+01  0.51100000000E-03 0. -1.
         12    1    3    3    0    0 -0.17216577365E+01  0.81416389074E+01  0.27942856039E+02  0.29155678573E+02  0.00000000000E+00 0. -1.
</event>
<event>
 7    1  0.2500839E-011  0.5052887E+02  0.7816164E-02  0.1300439E+00
        -11   -1    0    0    0    0  0.00000000000E+00  0.00000000000E+00  0.45593999997E+02  0.45594000000E+02  0.51100000000E-03 0.  1.
         11   -1    0    0    0    0 -0.00000000000E+00 -0.00000000000E+00 -0.45593999997E+02  0.45594000000E+02  0.51100000000E-03 0. -1.
    9900012    2    1    2    0    0 -0.40579488467E+02 -0.16073010489E+01 -0.19715278304E+01  0.50528865443E+02  0.30000017000E+02 0.  0.
         12    1    1    2    0    0  0.40579488467E+02  0.16073010489E+01  0.19715278304E+01  0.40659134557E+02  0.00000000000E+00 0. -1.
         11    1    3    3    0    0 -0.21363401498E+02  0.27678373881E+01  0.30939855503E+01  0.21763009769E+02  0.51100000000E-03 0.  1.
        -11    1    3    3    0    0 -0.71743377697E+01 -0.12054670584E+02 -0.28102196959E+01  0.14306765544E+02  0.51100000000E-03 0. -1.
         12    1    3    3    0    0 -0.12041749200E+02  0.76795321470E+01 -0.22552936848E+01  0.14459090130E+02  0.00000000000E+00 0. -1.
</event>
<event>
 7    1  0.2500839E-011  0.5052886E+02  0.7816164E-02  0.1300439E+00
        -11   -1    0    0    0    0  0.00000000000E+00  0.00000000000E+00  0.45593999997E+02  0.45594000000E+02  0.51100000000E-03 0.  1.
         11   -1    0    0    0    0 -0.00000000000E+00 -0.00000000000E+00 -0.45593999997E+02  0.45594000000E+02  0.51100000000E-03 0. -1.
    9900012    2    1    2    0    0 -0.39004089525E+02 -0.64174726893E+01  0.95217178420E+01  0.50528855075E+02  0.29999985486E+02 0.  0.
         12    1    1    2    0    0  0.39004089525E+02  0.64174726893E+01 -0.95217178420E+01  0.40659144925E+02  0.00000000000E+00 0. -1.
         11    1    3    3    0    0 -0.65634162069E+01 -0.19191709213E+01  0.89548790406E+01  0.11267275990E+02  0.51100000000E-03 0. -1.
        -11    1    3    3    0    0 -0.13145028380E+02  0.31915133260E+01  0.96241513980E+01  0.16601259555E+02  0.51100000000E-03 0.  1.
        -12    1    3    3    0    0 -0.19295644938E+02 -0.76898150941E+01 -0.90573125966E+01  0.22660319531E+02  0.00000000000E+00 0.  1.
</event>
<event>
 7    1  0.2500839E-011  0.5052886E+02  0.7816164E-02  0.1300439E+00
        -11   -1    0    0    0    0  0.00000000000E+00  0.00000000000E+00  0.45593999997E+02  0.45594000000E+02  0.51100000000E-03 0. -1.
         11   -1    0    0    0    0 -0.00000000000E+00 -0.00000000000E+00 -0.45593999997E+02  0.45594000000E+02  0.51100000000E-03 0.  1.
    9900012    2    1    2    0    0 -0.28370065488E+02  0.16949623793E+01 -0.29076319644E+02  0.50528857396E+02  0.29999992540E+02 0.  0.
         12    1    1    2    0    0  0.28370065488E+02 -0.16949623793E+01  0.29076319644E+02  0.40659142604E+02  0.00000000000E+00 0. -1.
         11    1    3    3    0    0  0.24521745989E+01 -0.49036076893E+01 -0.22210319089E+00  0.54870628502E+01  0.51100000000E-03 0. -1.
        -11    1    3    3    0    0 -0.91617015428E+01 -0.14964092510E+01 -0.18071500674E+01  0.94573678914E+01  0.51100000000E-03 0.  1.
         12    1    3    3    0    0 -0.21660538544E+02  0.80949793196E+01 -0.27047066386E+02  0.35584426654E+02  0.00000000000E+00 0. -1.
</event>
<event>
 7    1  0.2500839E-011  0.5052886E+02  0.7816164E-02  0.1300439E+00
        -11   -1    0    0    0    0  0.00000000000E+00  0.00000000000E+00  0.45593999997E+02  0.45594000000E+02  0.51100000000E-03 0. -1.
         11   -1    0    0    0    0 -0.00000000000E+00 -0.00000000000E+00 -0.45593999997E+02  0.45594000000E+02  0.51100000000E-03 0.  1.
    9900012    2    1    2    0    0  0.18798685256E+02 -0.21250358255E+02 -0.29123833317E+02  0.50528856374E+02  0.29999989434E+02 0.  0.
         12    1    1    2    0    0 -0.18798685256E+02  0.21250358255E+02  0.29123833317E+02  0.40659143626E+02  0.00000000000E+00 0. -1.
         11    1    3    3    0    0  0.10524645242E+02 -0.31054682550E+00 -0.17219522968E+02  0.20183571743E+02  0.51100000000E-03 0. -1.
        -11    1    3    3    0    0 -0.17418427290E+01 -0.84086891001E+01 -0.11429884006E+02  0.14296234369E+02  0.51100000000E-03 0.  1.
        -12    1    3    3    0    0  0.10015882743E+02 -0.12531122330E+02 -0.47442634295E+00  0.16049050263E+02  0.00000000000E+00 0.  1.
</event>
<event>
 7    1  0.2500839E-011  0.5052888E+02  0.7816164E-02  0.1300439E+00
        -11   -1    0    0    0    0  0.00000000000E+00  0.00000000000E+00  0.45593999997E+02  0.45594000000E+02  0.51100000000E-03 0.  1.
         11   -1    0    0    0    0 -0.00000000000E+00 -0.00000000000E+00 -0.45593999997E+02  0.45594000000E+02  0.51100000000E-03 0. -1.
    9900012    2    1    2    0    0  0.28441734672E+02  0.19237453520E+02 -0.21775039362E+02  0.50528877674E+02  0.30000054178E+02 0.  0.
         12    1    1    2    0    0 -0.28441734672E+02 -0.19237453520E+02  0.21775039362E+02  0.40659122326E+02  0.00000000000E+00 0. -1.
         11    1    3    3    0    0  0.85761944077E+01 -0.21360862497E+01 -0.10730292946E+02  0.13901552501E+02  0.51100000000E-03 0. -1.
        -11    1    3    3    0    0  0.18410270076E+02  0.69291882388E+01 -0.10013931758E+02  0.22073298880E+02  0.51100000000E-03 0.  1.
         12    1    3    3    0    0  0.14552701886E+01  0.14444351531E+02 -0.10308146578E+01  0.14554026293E+02  0.00000000000E+00 0. -1.
</event>
<event>
 7    1  0.2500839E-011  0.5052885E+02  0.7816164E-02  0.1300439E+00
        -11   -1    0    0    0    0  0.00000000000E+00  0.00000000000E+00  0.45593999997E+02  0.45594000000E+02  0.51100000000E-03 0. -1.
         11   -1    0    0    0    0 -0.00000000000E+00 -0.00000000000E+00 -0.45593999997E+02  0.45594000000E+02  0.51100000000E-03 0.  1.
    9900012    2    1    2    0    0  0.10258756697E+02  0.35102362249E+02 -0.17769303712E+02  0.50528854917E+02  0.29999985007E+02 0.  0.
         12    1    1    2    0    0 -0.10258756697E+02 -0.35102362249E+02  0.17769303712E+02  0.40659145083E+02  0.00000000000E+00 0. -1.
         11    1    3    3    0    0 -0.34508804853E+01  0.17525430326E+02 -0.12366267662E+02  0.21724959388E+02  0.51100000000E-03 0. -1.
        -11    1    3    3    0    0  0.14904112580E+00  0.39766595499E+01  0.54466342907E+01  0.67455066371E+01  0.51100000000E-03 0.  1.
        -12    1    3    3    0    0  0.13560596057E+02  0.13600272373E+02 -0.10849670340E+02  0.22058388893E+02  0.00000000000E+00 0.  1.
</event>
<event>
 7    1  0.2500839E-011  0.5052884E+02  0.7816164E-02  0.1300439E+00
        -11   -1    0    0    0    0  0.00000000000E+00  0.00000000000E+00  0.45593999997E+02  0.45594000000E+02  0.51100000000E-03 0. -1.
         11   -1    0    0    0    0 -0.00000000000E+00 -0.00000000000E+00 -0.45593999997E+02  0.45594000000E+02  0.51100000000E-03 0.  1.
    9900012    2    1    2    0    0  0.37208485843E+02 -0.13846203906E+02 -0.87737287432E+01  0.50528842392E+02  0.29999946936E+02 0.  0.
         12    1    1    2    0    0 -0.37208485843E+02  0.13846203906E+02  0.87737287432E+01  0.40659157608E+02  0.00000000000E+00 0. -1.
         11    1    3    3    0    0  0.14233173032E+02  0.49453072417E+01 -0.12442474967E+01  0.15119108121E+02  0.51100000000E-03 0. -1.
        -11    1    3    3    0    0  0.11912748192E+02  0.77213372810E+00 -0.43772406321E+01  0.12714951663E+02  0.51100000000E-03 0.  1.
         12    1    3    3    0    0  0.11062564618E+02 -0.19563644876E+02 -0.31522406145E+01  0.22694782609E+02  0.00000000000E+00 0. -1.
</event>
<event>
 7    1  0.2500839E-011  0.5052882E+02  0.7816164E-02  0.1300439E+00
        -11   -1    0    0    0    0  0.00000000000E+00  0.00000000000E+00  0.45593999997E+02  0.45594000000E+02  0.51100000000E-03 0.  1.
         11   -1    0    0    0    0 -0.00000000000E+00 -0.00000000000E+00 -0.45593999997E+02  0.45594000000E+02  0.51100000000E-03 0. -1.
    9900012    2    1    2    0    0 -0.30287363862E+01 -0.38642044960E+02  0.12279586484E+02  0.50528817433E+02  0.29999871068E+02 0.  0.
         12    1    1    2    0    0  0.30287363862E+01  0.38642044960E+02 -0.12279586484E+02  0.40659182567E+02  0.00000000000E+00 0. -1.
         11    1    3    3    0    0  0.65828483665E+01 -0.50678336471E+01  0.73789596458E+01  0.11111519977E+02  0.51100000000E-03 0.  1.
        -11    1    3    3    0    0 -0.30448472026E+01 -0.12690048463E+02  0.10580252708E+02  0.16800302739E+02  0.51100000000E-03 0. -1.
         12    1    3    3    0    0 -0.65667375502E+01 -0.20884162850E+02 -0.56796258696E+01  0.22616994717E+02  0.00000000000E+00 0. -1.
</event>
<event>
 7    1  0.2500839E-011  0.5052886E+02  0.7816164E-02  0.1300439E+00
        -11   -1    0    0    0    0  0.00000000000E+00  0.00000000000E+00  0.45593999997E+02  0.45594000000E+02  0.51100000000E-03 0.  1.
         11   -1    0    0    0    0 -0.00000000000E+00 -0.00000000000E+00 -0.45593999997E+02  0.45594000000E+02  0.51100000000E-03 0. -1.
    9900012    2    1    2    0    0 -0.34701908605E+02 -0.12679479329E+02  0.16975691767E+02  0.50528858742E+02  0.29999996631E+02 0.  0.
         12    1    1    2    0    0  0.34701908605E+02  0.12679479329E+02 -0.16975691767E+02  0.40659141258E+02  0.00000000000E+00 0. -1.
         11    1    3    3    0    0  0.25744747811E+01 -0.22525389733E+01 -0.96605231373E+00  0.35545899284E+01  0.51100000000E-03 0. -1.
        -11    1    3    3    0    0 -0.14685946859E+02  0.53481258300E+01  0.41974717536E+01  0.16183270819E+02  0.51100000000E-03 0.  1.
         12    1    3    3    0    0 -0.22590436528E+02 -0.15775066185E+02  0.13744272328E+02  0.30790997994E+02  0.00000000000E+00 0. -1.
</event>
<event>
 7    1  0.2500839E-011  0.5052887E+02  0.7816164E-02  0.1300439E+00
        -11   -1    0    0    0    0  0.00000000000E+00  0.00000000000E+00  0.45593999997E+02  0.45594000000E+02  0.51100000000E-03 0.  1.
         11   -1    0    0    0    0 -0.00000000000E+00 -0.00000000000E+00 -0.45593999997E+02  0.45594000000E+02  0.51100000000E-03 0. -1.
    9900012    2    1    2    0    0  0.69464662651E+01  0.30887028161E+02  0.25512801181E+02  0.50528869091E+02  0.30000028088E+02 0.  0.
         12    1    1    2    0    0 -0.69464662651E+01 -0.30887028161E+02 -0.25512801181E+02  0.40659130909E+02  0.00000000000E+00 0. -1.
         11    1    3    3    0    0  0.13234868636E+02  0.95166922047E+01  0.20074221398E+02  0.25859302839E+02  0.51100000000E-03 0.  1.
        -11    1    3    3    0    0  0.21838768879E+01  0.53434009227E+01  0.10746357598E+00  0.57734565352E+01  0.51100000000E-03 0. -1.
        -12    1    3    3    0    0 -0.84722792584E+01  0.16026935034E+02  0.53311162065E+01  0.18896109716E+02  0.00000000000E+00 0.  1.
</event>
<event>
 7    1  0.2500839E-011  0.5052873E+02  0.7816164E-02  0.1300439E+00
        -11   -1    0    0    0    0  0.00000000000E+00  0.00000000000E+00  0.45593999997E+02  0.45594000000E+02  0.51100000000E-03 0. -1.
         11   -1    0    0    0    0 -0.00000000000E+00 -0.00000000000E+00 -0.45593999997E+02  0.45594000000E+02  0.51100000000E-03 0.  1.
    9900012    2    1    2    0    0  0.22095209743E+02  0.44347104079E+01 -0.33842446275E+02  0.50528731440E+02  0.29999609682E+02 0.  0.
         12    1    1    2    0    0 -0.22095209743E+02 -0.44347104079E+01  0.33842446275E+02  0.40659268560E+02  0.00000000000E+00 0. -1.
         11    1    3    3    0    0  0.76109540894E+01  0.64288774765E+01 -0.18456734577E+01  0.10132304700E+02  0.51100000000E-03 0. -1.
        -11    1    3    3    0    0  0.12986962268E+02 -0.80362892599E+01 -0.11910155951E+02  0.19367368150E+02  0.51100000000E-03 0.  1.
        -12    1    3    3    0    0  0.14972933862E+01  0.60421221913E+01 -0.20086616866E+02  0.21029058590E+02  0.00000000000E+00 0.  1.
</event>
<event>
 7    1  0.2500839E-011  0.5052885E+02  0.7816164E-02  0.1300439E+00
        -11   -1    0    0    0    0  0.00000000000E+00  0.00000000000E+00  0.45593999997E+02  0.45594000000E+02  0.51100000000E-03 0.  1.
         11   -1    0    0    0    0 -0.00000000000E+00 -0.00000000000E+00 -0.45593999997E+02  0.45594000000E+02  0.51100000000E-03 0. -1.
    9900012    2    1    2    0    0  0.24606040832E+02  0.28304724482E+00  0.32367095024E+02  0.50528853409E+02  0.29999980422E+02 0.  0.
         12    1    1    2    0    0 -0.24606040832E+02 -0.28304724482E+00 -0.32367095024E+02  0.40659146591E+02  0.00000000000E+00 0. -1.
         11    1    3    3    0    0  0.16801106563E+02 -0.75140231821E+01  0.92827482465E+01  0.20613275853E+02  0.51100000000E-03 0. -1.
        -11    1    3    3    0    0  0.15229995640E+01 -0.41372668920E+01  0.10830380867E+02  0.11693316680E+02  0.51100000000E-03 0.  1.
        -12    1    3    3    0    0  0.62819347056E+01  0.11934337319E+02  0.12253965911E+02  0.18222260876E+02  0.00000000000E+00 0.  1.
</event>
<event>
 7    1  0.2500839E-011  0.5052886E+02  0.7816164E-02  0.1300439E+00
        -11   -1    0    0    0    0  0.00000000000E+00  0.00000000000E+00  0.45593999997E+02  0.45594000000E+02  0.51100000000E-03 0.  1.
         11   -1    0    0    0    0 -0.00000000000E+00 -0.00000000000E+00 -0.45593999997E+02  0.45594000000E+02  0.51100000000E-03 0. -1.
    9900012    2    1    2    0    0 -0.52519063955E+01  0.19974809430E+02  0.35022708529E+02  0.50528860250E+02  0.30000001215E+02 0.  0.
         12    1    1    2    0    0  0.52519063955E+01 -0.19974809430E+02 -0.35022708529E+02  0.40659139750E+02  0.00000000000E+00 0. -1.
         11    1    3    3    0    0  0.10124199875E+01  0.12490446850E+02  0.10847286494E+02  0.16574072561E+02  0.51100000000E-03 0. -1.
        -11    1    3    3    0    0  0.12474405329E+01  0.13459501095E+02  0.99094980224E+01  0.16760442385E+02  0.51100000000E-03 0.  1.
        -12    1    3    3    0    0 -0.75117669159E+01 -0.59751385149E+01  0.14265924013E+02  0.17194345303E+02  0.00000000000E+00 0.  1.
</event>
<event>
 7    1  0.2500839E-011  0.5052885E+02  0.7816164E-02  0.1300439E+00
        -11   -1    0    0    0    0  0.00000000000E+00  0.00000000000E+00  0.45593999997E+02  0.45594000000E+02  0.51100000000E-03 0.  1.
         11   -1    0    0    0    0 -0.00000000000E+00 -0.00000000000E+00 -0.45593999997E+02  0.45594000000E+02  0.51100000000E-03 0. -1.
    9900012    2    1    2    0    0 -0.68610153800E+01  0.11627240453E+02  0.38352312416E+02  0.50528854408E+02  0.29999983459E+02 0.  0.
         12    1    1    2    0    0  0.68610153800E+01 -0.11627240453E+02 -0.38352312416E+02  0.40659145592E+02  0.00000000000E+00 0. -1.
         11    1    3    3    0    0  0.49638681308E+01  0.42219357308E+01  0.17604718377E+02  0.18772076004E+02  0.51100000000E-03 0. -1.
        -11    1    3    3    0    0 -0.13363978044E+02  0.56480599285E+01  0.23823958928E+02  0.27894040750E+02  0.51100000000E-03 0.  1.
         12    1    3    3    0    0  0.15390945330E+01  0.17572447941E+01 -0.30763648889E+01  0.38627376532E+01  0.00000000000E+00 0. -1.
</event>
<event>
 7    1  0.2500839E-011  0.5052885E+02  0.7816164E-02  0.1300439E+00
        -11   -1    0    0    0    0  0.00000000000E+00  0.00000000000E+00  0.45593999997E+02  0.45594000000E+02  0.51100000000E-03 0.  1.
         11   -1    0    0    0    0 -0.00000000000E+00 -0.00000000000E+00 -0.45593999997E+02  0.45594000000E+02  0.51100000000E-03 0. -1.
    9900012    2    1    2    0    0  0.17612161410E+01  0.13535866683E+02  0.38299414792E+02  0.50528846755E+02  0.29999960197E+02 0.  0.
         12    1    1    2    0    0 -0.17612161410E+01 -0.13535866683E+02 -0.38299414792E+02  0.40659153245E+02  0.00000000000E+00 0. -1.
         11    1    3    3    0    0  0.58733157890E+01  0.42900666435E+01 -0.68819270729E+00  0.73057593463E+01  0.51100000000E-03 0. -1.
        -11    1    3    3    0    0 -0.50702545351E+01  0.80470178850E+01  0.86795503801E+01  0.12876201806E+02  0.51100000000E-03 0.  1.
         12    1    3    3    0    0  0.95815488714E+00  0.11987821549E+01  0.30308057119E+02  0.30346885603E+02  0.00000000000E+00 0. -1.
</event>
<event>
 7    1  0.2500839E-011  0.5052885E+02  0.7816164E-02  0.1300439E+00
        -11   -1    0    0    0    0  0.00000000000E+00  0.00000000000E+00  0.45593999997E+02  0.45594000000E+02  0.51100000000E-03 0. -1.
         11   -1    0    0    0    0 -0.00000000000E+00 -0.00000000000E+00 -0.45593999997E+02  0.45594000000E+02  0.51100000000E-03 0.  1.
    9900012    2    1    2    0    0  0.18582435230E+02  0.28679042961E+02  0.22031158663E+02  0.50528851506E+02  0.29999974637E+02 0.  0.
         12    1    1    2    0    0 -0.18582435230E+02 -0.28679042961E+02 -0.22031158663E+02  0.40659148494E+02  0.00000000000E+00 0. -1.
         11    1    3    3    0    0  0.30069854390E+01 -0.32822790747E+00  0.13388507056E+02  0.13725954118E+02  0.51100000000E-03 0. -1.
        -11    1    3    3    0    0  0.75027285186E+01  0.20650730086E+02  0.11554812857E+02  0.24824529981E+02  0.51100000000E-03 0.  1.
        -12    1    3    3    0    0  0.80727212723E+01  0.83565407822E+01 -0.29121612510E+01  0.11978367407E+02  0.00000000000E+00 0.  1.
</event>
<event>
 7    1  0.2500839E-011  0.5052890E+02  0.7816164E-02  0.1300439E+00
        -11   -1    0    0    0    0  0.00000000000E+00  0.00000000000E+00  0.45593999997E+02  0.45594000000E+02  0.51100000000E-03 0.  1.
         11   -1    0    0    0    0 -0.00000000000E+00 -0.00000000000E+00 -0.45593999997E+02  0.45594000000E+02  0.51100000000E-03 0. -1.
    9900012    2    1    2    0    0  0.25303357290E+02  0.20902796768E+02  0.23999494543E+02  0.50528898421E+02  0.30000117241E+02 0.  0.
         12    1    1    2    0    0 -0.25303357290E+02 -0.20902796768E+02 -0.23999494543E+02  0.40659101579E+02  0.00000000000E+00 0. -1.
         11    1    3    3    0    0 -0.12812251474E+01  0.29273746987E+01 -0.19780713477E+01  0.37581680408E+01  0.51100000000E-03 0. -1.
        -11    1    3    3    0    0  0.10185196977E+02  0.19375089280E+02  0.18639512676E+02  0.28750021828E+02  0.51100000000E-03 0.  1.
         12    1    3    3    0    0  0.16399385459E+02 -0.13996672100E+01  0.73380532152E+01  0.18020708553E+02  0.00000000000E+00 0. -1.
</event>
<event>
 7    1  0.2500839E-011  0.5052886E+02  0.7816164E-02  0.1300439E+00
        -11   -1    0    0    0    0  0.00000000000E+00  0.00000000000E+00  0.45593999997E+02  0.45594000000E+02  0.51100000000E-03 0.  1.
         11   -1    0    0    0    0 -0.00000000000E+00 -0.00000000000E+00 -0.45593999997E+02  0.45594000000E+02  0.51100000000E-03 0. -1.
    9900012    2    1    2    0    0  0.76745020133E+00 -0.36808163301E+02  0.17255019946E+02  0.50528861067E+02  0.30000003701E+02 0.  0.
         12    1    1    2    0    0 -0.76745020133E+00  0.36808163301E+02 -0.17255019946E+02  0.40659138933E+02  0.00000000000E+00 0. -1.
         11    1    3    3    0    0  0.38687894863E+01  0.14749849954E+01  0.62473689248E+01  0.74948470011E+01  0.51100000000E-03 0.  1.
        -11    1    3    3    0    0 -0.49415788800E+01 -0.48901763197E+01 -0.18658453037E+01  0.71982223655E+01  0.51100000000E-03 0. -1.
        -12    1    3    3    0    0  0.18402395950E+01 -0.33392971977E+02  0.12873496325E+02  0.35835791701E+02  0.00000000000E+00 0.  1.
</event>
<event>
 7    1  0.2500839E-011  0.5052887E+02  0.7816164E-02  0.1300439E+00
        -11   -1    0    0    0    0  0.00000000000E+00  0.00000000000E+00  0.45593999997E+02  0.45594000000E+02  0.51100000000E-03 0. -1.
         11   -1    0    0    0    0 -0.00000000000E+00 -0.00000000000E+00 -0.45593999997E+02  0.45594000000E+02  0.51100000000E-03 0.  1.
    9900012    2    1    2    0    0 -0.21096839652E+02 -0.30465852485E+02 -0.16730806838E+02  0.50528871770E+02  0.30000036233E+02 0.  0.
         12    1    1    2    0    0  0.21096839652E+02  0.30465852485E+02  0.16730806838E+02  0.40659128230E+02  0.00000000000E+00 0. -1.
         11    1    3    3    0    0 -0.61097023384E+01 -0.66103535695E+00  0.18877937057E+01  0.64287787132E+01  0.51100000000E-03 0. -1.
        -11    1    3    3    0    0 -0.15185467968E+02 -0.20386811625E+02 -0.26481534699E+01  0.25558428017E+02  0.51100000000E-03 0.  1.
         12    1    3    3    0    0  0.19833065454E+00 -0.94180055029E+01 -0.15970447074E+02  0.18541665040E+02  0.00000000000E+00 0. -1.
</event>
<event>
 7    1  0.2500839E-011  0.5052886E+02  0.7816164E-02  0.1300439E+00
        -11   -1    0    0    0    0  0.00000000000E+00  0.00000000000E+00  0.45593999997E+02  0.45594000000E+02  0.51100000000E-03 0.  1.
         11   -1    0    0    0    0 -0.00000000000E+00 -0.00000000000E+00 -0.45593999997E+02  0.45594000000E+02  0.51100000000E-03 0. -1.
    9900012    2    1    2    0    0  0.23599250993E+02 -0.21212076167E+02  0.25422208535E+02  0.50528861918E+02  0.30000006287E+02 0.  0.
         12    1    1    2    0    0 -0.23599250993E+02  0.21212076167E+02 -0.25422208535E+02  0.40659138082E+02  0.00000000000E+00 0. -1.
         11    1    3    3    0    0  0.17757804310E+02 -0.86376088157E+01  0.22234201531E+01  0.19871877048E+02  0.51100000000E-03 0. -1.
        -11    1    3    3    0    0  0.91914935615E+01 -0.13035782474E+02  0.15467305253E+02  0.22218296755E+02  0.51100000000E-03 0.  1.
         12    1    3    3    0    0 -0.33500468792E+01  0.46131512323E+00  0.77314831290E+01  0.84386881155E+01  0.00000000000E+00 0. -1.
</event>
<event>
 7    1  0.2500839E-011  0.5052889E+02  0.7816164E-02  0.1300439E+00
        -11   -1    0    0    0    0  0.00000000000E+00  0.00000000000E+00  0.45593999997E+02  0.45594000000E+02  0.51100000000E-03 0. -1.
         11   -1    0    0    0    0 -0.00000000000E+00 -0.00000000000E+00 -0.45593999997E+02  0.45594000000E+02  0.51100000000E-03 0.  1.
    9900012    2    1    2    0    0  0.15762214402E+02  0.26337175171E+02 -0.26665884489E+02  0.50528885469E+02  0.30000077873E+02 0.  0.
         12    1    1    2    0    0 -0.15762214402E+02 -0.26337175171E+02  0.26665884489E+02  0.40659114531E+02  0.00000000000E+00 0. -1.
         11    1    3    3    0    0  0.50158712710E+01  0.99074371243E+01 -0.31267198696E+00  0.11109187144E+02  0.51100000000E-03 0. -1.
        -11    1    3    3    0    0  0.14361163373E+02  0.39158522527E+01 -0.79562679430E+01  0.16878362247E+02  0.51100000000E-03 0.  1.
        -12    1    3    3    0    0 -0.36148202429E+01  0.12513885794E+02 -0.18396944559E+02  0.22541336078E+02  0.00000000000E+00 0.  1.
</event>
<event>
 7    1  0.2500839E-011  0.5052886E+02  0.7816164E-02  0.1300439E+00
        -11   -1    0    0    0    0  0.00000000000E+00  0.00000000000E+00  0.45593999997E+02  0.45594000000E+02  0.51100000000E-03 0.  1.
         11   -1    0    0    0    0 -0.00000000000E+00 -0.00000000000E+00 -0.45593999997E+02  0.45594000000E+02  0.51100000000E-03 0. -1.
    9900012    2    1    2    0    0 -0.11356431085E+02 -0.17689494107E+02  0.34803435073E+02  0.50528858080E+02  0.29999994620E+02 0.  0.
         12    1    1    2    0    0  0.11356431085E+02  0.17689494107E+02 -0.34803435073E+02  0.40659141920E+02  0.00000000000E+00 0. -1.
         11    1    3    3    0    0 -0.24848168213E+01 -0.11251590891E+02  0.62017139134E+01  0.13085635940E+02  0.51100000000E-03 0. -1.
        -11    1    3    3    0    0 -0.12481853661E+02 -0.11063299854E+02  0.26294598584E+02  0.31138387714E+02  0.51100000000E-03 0.  1.
        -12    1    3    3    0    0  0.36102393968E+01  0.46253966384E+01  0.23071225763E+01  0.63048344266E+01  0.00000000000E+00 0.  1.
</event>
<event>
 7    1  0.2500839E-011  0.5052885E+02  0.7816164E-02  0.1300439E+00
        -11   -1    0    0    0    0  0.00000000000E+00  0.00000000000E+00  0.45593999997E+02  0.45594000000E+02  0.51100000000E-03 0.  1.
         11   -1    0    0    0    0 -0.00000000000E+00 -0.00000000000E+00 -0.45593999997E+02  0.45594000000E+02  0.51100000000E-03 0. -1.
    9900012    2    1    2    0    0 -0.25654237736E+02 -0.26309459853E+02  0.17402264676E+02  0.50528850877E+02  0.29999972726E+02 0.  0.
         12    1    1    2    0    0  0.25654237736E+02  0.26309459853E+02 -0.17402264676E+02  0.40659149123E+02  0.00000000000E+00 0. -1.
         11    1    3    3    0    0  0.24616793371E+01 -0.90944971128E+01  0.73904593669E+01  0.11974499272E+02  0.51100000000E-03 0. -1.
        -11    1    3    3    0    0 -0.21531772003E+02 -0.41170176224E+01  0.94832295219E+01  0.23885114237E+02  0.51100000000E-03 0.  1.
         12    1    3    3    0    0 -0.65841450701E+01 -0.13097945117E+02  0.52857578722E+00  0.14669237368E+02  0.00000000000E+00 0. -1.
</event>
<event>
 7    1  0.2500839E-011  0.5052886E+02  0.7816164E-02  0.1300439E+00
        -11   -1    0    0    0    0  0.00000000000E+00  0.00000000000E+00  0.45593999997E+02  0.45594000000E+02  0.51100000000E-03 0.  1.
         11   -1    0    0    0    0 -0.00000000000E+00 -0.00000000000E+00 -0.45593999997E+02  0.45594000000E+02  0.51100000000E-03 0. -1.
    9900012    2    1    2    0    0  0.15517931852E+02  0.93230157185E+01  0.36406605918E+02  0.50528858524E+02  0.29999995971E+02 0.  0.
         12    1    1    2    0    0 -0.15517931852E+02 -0.93230157185E+01 -0.36406605918E+02  0.40659141476E+02  0.00000000000E+00 0. -1.
         11    1    3    3    0    0  0.21493398107E+01  0.53930670241E+01  0.44852018103E+01  0.73363389432E+01  0.51100000000E-03 0. -1.
        -11    1    3    3    0    0  0.19715341496E+01 -0.64748509038E-01  0.31019361520E+02  0.31082019379E+02  0.51100000000E-03 0.  1.
         12    1    3    3    0    0  0.11397057891E+02  0.39946972034E+01  0.90204258789E+00  0.12110500203E+02  0.00000000000E+00 0. -1.
</event>
<event>
 7    1  0.2500839E-011  0.5052886E+02  0.7816164E-02  0.1300439E+00
        -11   -1    0    0    0    0  0.00000000000E+00  0.00000000000E+00  0.45593999997E+02  0.45594000000E+02  0.51100000000E-03 0.  1.
         11   -1    0    0    0    0 -0.00000000000E+00 -0.00000000000E+00 -0.45593999997E+02  0.45594000000E+02  0.51100000000E-03 0. -1.
    9900012    2    1    2    0    0 -0.37512315584E+02 -0.15680106179E+02  0.35539749642E+00  0.50528857638E+02  0.29999993276E+02 0.  0.
         12    1    1    2    0    0  0.37512315584E+02  0.15680106179E+02 -0.35539749642E+00  0.40659142362E+02  0.00000000000E+00 0. -1.
         11    1    3    3    0    0 -0.12870752054E+02 -0.18479457824E+01  0.10128607213E+01  0.13042125944E+02  0.51100000000E-03 0. -1.
        -11    1    3    3    0    0 -0.29664880001E+02 -0.11841216580E+02  0.56845698545E+00  0.31945933375E+02  0.51100000000E-03 0.  1.
         12    1    3    3    0    0  0.50233164710E+01 -0.19909438165E+01 -0.12259202104E+01  0.55407983189E+01  0.00000000000E+00 0. -1.
</event>
<event>
 7    1  0.2500839E-011  0.5052885E+02  0.7816164E-02  0.1300439E+00
        -11   -1    0    0    0    0  0.00000000000E+00  0.00000000000E+00  0.45593999997E+02  0.45594000000E+02  0.51100000000E-03 0.  1.
         11   -1    0    0    0    0 -0.00000000000E+00 -0.00000000000E+00 -0.45593999997E+02  0.45594000000E+02  0.51100000000E-03 0. -1.
    9900012    2    1    2    0    0  0.35150989216E+02  0.19851602392E+02  0.48464590988E+01  0.50528851876E+02  0.29999975762E+02 0.  0.
         12    1    1    2    0    0 -0.35150989216E+02 -0.19851602392E+02 -0.48464590988E+01  0.40659148124E+02  0.00000000000E+00 0. -1.
         11    1    3    3    0    0  0.10590130887E+02  0.99130730275E+01 -0.87069357520E+01  0.16918351560E+02  0.51100000000E-03 0. -1.
        -11    1    3    3    0    0  0.53199642785E+01  0.57463500934E+01 -0.24824535585E+01  0.82149336730E+01  0.51100000000E-03 0.  1.
        -12    1    3    3    0    0  0.19240894050E+02  0.41921792708E+01  0.16035848409E+02  0.25395566643E+02  0.00000000000E+00 0.  1.
</event>
<event>
 7    1  0.2500839E-011  0.5052888E+02  0.7816164E-02  0.1300439E+00
        -11   -1    0    0    0    0  0.00000000000E+00  0.00000000000E+00  0.45593999997E+02  0.45594000000E+02  0.51100000000E-03 0.  1.
         11   -1    0    0    0    0 -0.00000000000E+00 -0.00000000000E+00 -0.45593999997E+02  0.45594000000E+02  0.51100000000E-03 0. -1.
    9900012    2    1    2    0    0 -0.24747626186E+02  0.20345438986E+02  0.25035625325E+02  0.50528875258E+02  0.30000046834E+02 0.  0.
         12    1    1    2    0    0  0.24747626186E+02 -0.20345438986E+02 -0.25035625325E+02  0.40659124742E+02  0.00000000000E+00 0. -1.
         11    1    3    3    0    0 -0.13524942528E+02  0.13556157162E+02 -0.20090843992E+01  0.19254347243E+02  0.51100000000E-03 0. -1.
        -11    1    3    3    0    0 -0.79470333087E+01  0.33885305428E+01  0.84315690007E+01  0.12071819818E+02  0.51100000000E-03 0.  1.
        -12    1    3    3    0    0 -0.32756503491E+01  0.34007512813E+01  0.18613140724E+02  0.19202708197E+02  0.00000000000E+00 0.  1.
</event>
<event>
 7    1  0.2500839E-011  0.5052885E+02  0.7816164E-02  0.1300439E+00
        -11   -1    0    0    0    0  0.00000000000E+00  0.00000000000E+00  0.45593999997E+02  0.45594000000E+02  0.51100000000E-03 0. -1.
         11   -1    0    0    0    0 -0.00000000000E+00 -0.00000000000E+00 -0.45593999997E+02  0.45594000000E+02  0.51100000000E-03 0.  1.
    9900012    2    1    2    0    0  0.57155004988E+01 -0.38578126749E+02 -0.11499026754E+02  0.50528850652E+02  0.29999972042E+02 0.  0.
         12    1    1    2    0    0 -0.57155004988E+01  0.38578126749E+02  0.11499026754E+02  0.40659149348E+02  0.00000000000E+00 0. -1.
         11    1    3    3    0    0 -0.14964253430E+01  0.20871296721E+01 -0.10275359204E+01  0.27660855743E+01  0.51100000000E-03 0. -1.
        -11    1    3    3    0    0 -0.47596401901E+01 -0.27367237639E+02 -0.10962945795E+02  0.29863121932E+02  0.51100000000E-03 0.  1.
         12    1    3    3    0    0  0.11971566032E+02 -0.13298018782E+02  0.49145496122E+00  0.17899643146E+02  0.00000000000E+00 0. -1.
</event>
<event>
 7    1  0.2500839E-011  0.5052886E+02  0.7816164E-02  0.1300439E+00
        -11   -1    0    0    0    0  0.00000000000E+00  0.00000000000E+00  0.45593999997E+02  0.45594000000E+02  0.51100000000E-03 0.  1.
         11   -1    0    0    0    0 -0.00000000000E+00 -0.00000000000E+00 -0.45593999997E+02  0.45594000000E+02  0.51100000000E-03 0. -1.
    9900012    2    1    2    0    0  0.79932791133E+00  0.43096780069E+01  0.40422191566E+02  0.50528858093E+02  0.29999994659E+02 0.  0.
         12    1    1    2    0    0 -0.79932791133E+00 -0.43096780069E+01 -0.40422191566E+02  0.40659141907E+02  0.00000000000E+00 0. -1.
         11    1    3    3    0    0 -0.41781325647E+01  0.44194533535E+01  0.14436681868E+02  0.15665444242E+02  0.51100000000E-03 0. -1.
        -11    1    3    3    0    0  0.69298864663E+00 -0.35579328458E+01  0.28561320069E+02  0.28790417221E+02  0.51100000000E-03 0.  1.
         12    1    3    3    0    0  0.42844718294E+01  0.34481574991E+01 -0.25758103715E+01  0.60729966298E+01  0.00000000000E+00 0. -1.
</event>
<event>
 7    1  0.2500839E-011  0.5052886E+02  0.7816164E-02  0.1300439E+00
        -11   -1    0    0    0    0  0.00000000000E+00  0.00000000000E+00  0.45593999997E+02  0.45594000000E+02  0.51100000000E-03 0.  1.
         11   -1    0    0    0    0 -0.00000000000E+00 -0.00000000000E+00 -0.45593999997E+02  0.45594000000E+02  0.51100000000E-03 0. -1.
    9900012    2    1    2    0    0  0.20731278042E+02 -0.29189483475E+02 -0.19270543750E+02  0.50528859684E+02  0.29999999497E+02 0.  0.
         12    1    1    2    0    0 -0.20731278042E+02  0.29189483475E+02  0.19270543750E+02  0.40659140316E+02  0.00000000000E+00 0. -1.
         11    1    3    3    0    0  0.17059700578E+02 -0.19634431655E+02 -0.16379341181E+02  0.30738040081E+02  0.51100000000E-03 0. -1.
        -11    1    3    3    0    0  0.49007466989E+01 -0.57472815732E+01 -0.94562997647E+01  0.12102486075E+02  0.51100000000E-03 0.  1.
        -12    1    3    3    0    0 -0.12291692351E+01 -0.38077702468E+01  0.65650971958E+01  0.76883335289E+01  0.00000000000E+00 0.  1.
</event>
<event>
 7    1  0.2500839E-011  0.5052887E+02  0.7816164E-02  0.1300439E+00
        -11   -1    0    0    0    0  0.00000000000E+00  0.00000000000E+00  0.45593999997E+02  0.45594000000E+02  0.51100000000E-03 0.  1.
         11   -1    0    0    0    0 -0.00000000000E+00 -0.00000000000E+00 -0.45593999997E+02  0.45594000000E+02  0.51100000000E-03 0. -1.
    9900012    2    1    2    0    0 -0.15482119976E+01  0.96747761811E+01  0.39460955055E+02  0.50528865375E+02  0.30000016795E+02 0.  0.
         12    1    1    2    0    0  0.15482119976E+01 -0.96747761811E+01 -0.39460955055E+02  0.40659134625E+02  0.00000000000E+00 0. -1.
         11    1    3    3    0    0  0.23870442036E+01  0.54737895023E+01 -0.32056832789E+01  0.67776660504E+01  0.51100000000E-03 0. -1.
        -11    1    3    3    0    0  0.19881703269E+01 -0.30919765959E+00  0.13511333519E+02  0.13660327894E+02  0.51100000000E-03 0.  1.
        -12    1    3    3    0    0 -0.59234265282E+01  0.45101843384E+01  0.29155304815E+02  0.30090871431E+02  0.00000000000E+00 0.  1.
</event>
<event>
 7    1  0.2500839E-011  0.5052885E+02  0.7816164E-02  0.1300439E+00
        -11   -1    0    0    0    0  0.00000000000E+00  0.00000000000E+00  0.45593999997E+02  0.45594000000E+02  0.51100000000E-03 0.  1.
         11   -1    0    0    0    0 -0.00000000000E+00 -0.00000000000E+00 -0.45593999997E+02  0.45594000000E+02  0.51100000000E-03 0. -1.
    9900012    2    1    2    0    0  0.71265562093E+01 -0.34013386033E+02  0.21106110013E+02  0.50528854501E+02  0.29999983742E+02 0.  0.
         12    1    1    2    0    0 -0.71265562093E+01  0.34013386033E+02 -0.21106110013E+02  0.40659145499E+02  0.00000000000E+00 0. -1.
         11    1    3    3    0    0  0.56347076040E+01 -0.20469143459E+01  0.61696832044E+01  0.86026030494E+01  0.51100000000E-03 0. -1.
        -11    1    3    3    0    0 -0.20556474595E+01 -0.33301666143E+02  0.17172972036E+02  0.37525159869E+02  0.51100000000E-03 0.  1.
         12    1    3    3    0    0  0.35474960648E+01  0.13351944556E+01 -0.22365452281E+01  0.44010915829E+01  0.00000000000E+00 0. -1.
</event>
<event>
 7    1  0.2500839E-011  0.5052886E+02  0.7816164E-02  0.1300439E+00
        -11   -1    0    0    0    0  0.00000000000E+00  0.00000000000E+00  0.45593999997E+02  0.45594000000E+02  0.51100000000E-03 0.  1.
         11   -1    0    0    0    0 -0.00000000000E+00 -0.00000000000E+00 -0.45593999997E+02  0.45594000000E+02  0.51100000000E-03 0. -1.
    9900012    2    1    2    0    0  0.40178194922E+02 -0.10851869358E+01  0.61400985835E+01  0.50528858488E+02  0.29999995860E+02 0.  0.
         12    1    1    2    0    0 -0.40178194922E+02  0.10851869358E+01 -0.61400985835E+01  0.40659141512E+02  0.00000000000E+00 0. -1.
         11    1    3    3    0    0  0.38539888288E-01 -0.69670839487E+01  0.37578993170E+00  0.69773177085E+01  0.51100000000E-03 0. -1.
        -11    1    3    3    0    0  0.88957420457E+01 -0.12084956562E+01  0.71596445904E+01  0.11482821919E+02  0.51100000000E-03 0.  1.
         12    1    3    3    0    0  0.31243912988E+02  0.70903926691E+01 -0.13953359386E+01  0.32068718861E+02  0.00000000000E+00 0. -1.
</event>
<event>
 7    1  0.2500839E-011  0.5052886E+02  0.7816164E-02  0.1300439E+00
        -11   -1    0    0    0    0  0.00000000000E+00  0.00000000000E+00  0.45593999997E+02  0.45594000000E+02  0.51100000000E-03 0.  1.
         11   -1    0    0    0    0 -0.00000000000E+00 -0.00000000000E+00 -0.45593999997E+02  0.45594000000E+02  0.51100000000E-03 0. -1.
    9900012    2    1    2    0    0 -0.31909764729E+02  0.20149434065E+02 -0.15130529158E+02  0.50528859690E+02  0.29999999513E+02 0.  0.
         12    1    1    2    0    0  0.31909764729E+02 -0.20149434065E+02  0.15130529158E+02  0.40659140310E+02  0.00000000000E+00 0. -1.
         11    1    3    3    0    0 -0.38324839702E+00  0.13538761141E+01 -0.74868475124E+01  0.76179226697E+01  0.51100000000E-03 0. -1.
        -11    1    3    3    0    0  0.13458367081E+00  0.61092080904E+01  0.34831735415E+01  0.70337070196E+01  0.51100000000E-03 0.  1.
         12    1    3    3    0    0 -0.31661100002E+02  0.12686349861E+02 -0.11126855187E+02  0.35877230000E+02  0.00000000000E+00 0. -1.
</event>
<event>
 7    1  0.2500839E-011  0.5052887E+02  0.7816164E-02  0.1300439E+00
        -11   -1    0    0    0    0  0.00000000000E+00  0.00000000000E+00  0.45593999997E+02  0.45594000000E+02  0.51100000000E-03 0.  1.
         11   -1    0    0    0    0 -0.00000000000E+00 -0.00000000000E+00 -0.45593999997E+02  0.45594000000E+02  0.51100000000E-03 0. -1.
    9900012    2    1    2    0    0 -0.26474149882E+02  0.90112929167E+01 -0.29514082321E+02  0.50528867357E+02  0.30000022818E+02 0.  0.
         12    1    1    2    0    0  0.26474149882E+02 -0.90112929167E+01  0.29514082321E+02  0.40659132643E+02  0.00000000000E+00 0. -1.
         11    1    3    3    0    0 -0.60511025562E+01  0.12054023801E+01  0.17191340302E+01  0.64050182762E+01  0.51100000000E-03 0. -1.
        -11    1    3    3    0    0 -0.99963231925E+01  0.12723218253E+02 -0.77009741944E+01  0.17919591622E+02  0.51100000000E-03 0.  1.
         12    1    3    3    0    0 -0.10426724133E+02 -0.49173277167E+01 -0.23532242157E+02  0.26204257459E+02  0.00000000000E+00 0. -1.
</event>
<event>
 7    1  0.2500839E-011  0.5052886E+02  0.7816164E-02  0.1300439E+00
        -11   -1    0    0    0    0  0.00000000000E+00  0.00000000000E+00  0.45593999997E+02  0.45594000000E+02  0.51100000000E-03 0.  1.
         11   -1    0    0    0    0 -0.00000000000E+00 -0.00000000000E+00 -0.45593999997E+02  0.45594000000E+02  0.51100000000E-03 0. -1.
    9900012    2    1    2    0    0  0.17912057715E+02 -0.25892167259E+02  0.25727790914E+02  0.50528863729E+02  0.30000011792E+02 0.  0.
         12    1    1    2    0    0 -0.17912057715E+02  0.25892167259E+02 -0.25727790914E+02  0.40659136271E+02  0.00000000000E+00 0. -1.
         11    1    3    3    0    0  0.10253969328E+02 -0.38304175570E+01  0.25006783908E+01  0.11228062091E+02  0.51100000000E-03 0. -1.
        -11    1    3    3    0    0 -0.47542236327E+00  0.41578267489E+01  0.22500093044E+01  0.47514305034E+01  0.51100000000E-03 0.  1.
        -12    1    3    3    0    0  0.81335107501E+01 -0.26219576451E+02  0.20977103219E+02  0.34549371135E+02  0.00000000000E+00 0.  1.
</event>
<event>
 7    1  0.2500839E-011  0.5052889E+02  0.7816164E-02  0.1300439E+00
        -11   -1    0    0    0    0  0.00000000000E+00  0.00000000000E+00  0.45593999997E+02  0.45594000000E+02  0.51100000000E-03 0.  1.
         11   -1    0    0    0    0 -0.00000000000E+00 -0.00000000000E+00 -0.45593999997E+02  0.45594000000E+02  0.51100000000E-03 0. -1.
    9900012    2    1    2    0    0  0.36955078870E+01 -0.15484196941E+02  0.37413185586E+02  0.50528885534E+02  0.30000078069E+02 0.  0.
         12    1    1    2    0    0 -0.36955078870E+01  0.15484196941E+02 -0.37413185586E+02  0.40659114466E+02  0.00000000000E+00 0. -1.
         11    1    3    3    0    0 -0.76697678654E+01 -0.10952317491E+02  0.15458872373E+02  0.20439063893E+02  0.51100000000E-03 0. -1.
        -11    1    3    3    0    0  0.70356143886E+01 -0.10587175711E+02  0.10802549530E+02  0.16681823520E+02  0.51100000000E-03 0.  1.
         12    1    3    3    0    0  0.43296613638E+01  0.60552962613E+01  0.11151763684E+02  0.13407998120E+02  0.00000000000E+00 0. -1.
</event>
<event>
 7    1  0.2500839E-011  0.5052886E+02  0.7816164E-02  0.1300439E+00
        -11   -1    0    0    0    0  0.00000000000E+00  0.00000000000E+00  0.45593999997E+02  0.45594000000E+02  0.51100000000E-03 0. -1.
         11   -1    0    0    0    0 -0.00000000000E+00 -0.00000000000E+00 -0.45593999997E+02  0.45594000000E+02  0.51100000000E-03 0.  1.
    9900012    2    1    2    0    0  0.13695614861E+02 -0.61815083212E+01 -0.37780741553E+02  0.50528863956E+02  0.30000012480E+02 0.  0.
         12    1    1    2    0    0 -0.13695614861E+02  0.61815083212E+01  0.37780741553E+02  0.40659136044E+02  0.00000000000E+00 0. -1.
         11    1    3    3    0    0 -0.27897845804E+01  0.28227761313E+01  0.73996705761E+00  0.40371418851E+01  0.51100000000E-03 0.  1.
        -11    1    3    3    0    0  0.17069908997E+02 -0.16783553975E+01 -0.18813236644E+02  0.25458525945E+02  0.51100000000E-03 0. -1.
         12    1    3    3    0    0 -0.58450955537E+00 -0.73259290549E+01 -0.19707471967E+02  0.21033196126E+02  0.00000000000E+00 0. -1.
</event>
<event>
 7    1  0.2500839E-011  0.5052886E+02  0.7816164E-02  0.1300439E+00
        -11   -1    0    0    0    0  0.00000000000E+00  0.00000000000E+00  0.45593999997E+02  0.45594000000E+02  0.51100000000E-03 0. -1.
         11   -1    0    0    0    0 -0.00000000000E+00 -0.00000000000E+00 -0.45593999997E+02  0.45594000000E+02  0.51100000000E-03 0.  1.
    9900012    2    1    2    0    0 -0.32016121718E+02 -0.16912957345E+02 -0.18495559301E+02  0.50528857242E+02  0.29999992072E+02 0.  0.
         12    1    1    2    0    0  0.32016121718E+02  0.16912957345E+02  0.18495559301E+02  0.40659142758E+02  0.00000000000E+00 0. -1.
         11    1    3    3    0    0 -0.15828394817E+02 -0.16320266765E+01 -0.66942656057E+01  0.17263104756E+02  0.51100000000E-03 0.  1.
        -11    1    3    3    0    0 -0.10111434671E+02 -0.18445677442E+02 -0.14868350533E+02  0.25759502620E+02  0.51100000000E-03 0. -1.
         12    1    3    3    0    0 -0.60762922296E+01  0.31647467736E+01  0.30670568378E+01  0.75062498657E+01  0.00000000000E+00 0. -1.
</event>
<event>
 7    1  0.2500839E-011  0.5052887E+02  0.7816164E-02  0.1300439E+00
        -11   -1    0    0    0    0  0.00000000000E+00  0.00000000000E+00  0.45593999997E+02  0.45594000000E+02  0.51100000000E-03 0.  1.
         11   -1    0    0    0    0 -0.00000000000E+00 -0.00000000000E+00 -0.45593999997E+02  0.45594000000E+02  0.51100000000E-03 0. -1.
    9900012    2    1    2    0    0 -0.48674264269E+01  0.23733828186E+02  0.32652386147E+02  0.50528871118E+02  0.30000034249E+02 0.  0.
         12    1    1    2    0    0  0.48674264269E+01 -0.23733828186E+02 -0.32652386147E+02  0.40659128882E+02  0.00000000000E+00 0. -1.
         11    1    3    3    0    0  0.75488965616E+00  0.14615475424E+02  0.17363213587E+02  0.22708218041E+02  0.51100000000E-03 0. -1.
        -11    1    3    3    0    0 -0.63615675027E+01  0.29052207384E+01  0.19205438298E+02  0.20439146487E+02  0.51100000000E-03 0.  1.
         12    1    3    3    0    0  0.73925141963E+00  0.62131320234E+01 -0.39162657383E+01  0.73815065898E+01  0.00000000000E+00 0. -1.
</event>
<event>
 7    1  0.2500839E-011  0.5052886E+02  0.7816164E-02  0.1300439E+00
        -11   -1    0    0    0    0  0.00000000000E+00  0.00000000000E+00  0.45593999997E+02  0.45594000000E+02  0.51100000000E-03 0.  1.
         11   -1    0    0    0    0 -0.00000000000E+00 -0.00000000000E+00 -0.45593999997E+02  0.45594000000E+02  0.51100000000E-03 0. -1.
    9900012    2    1    2    0    0  0.70084428589E+01 -0.37036856879E+02  0.15242012217E+02  0.50528856192E+02  0.29999988881E+02 0.  0.
         12    1    1    2    0    0 -0.70084428589E+01  0.37036856879E+02 -0.15242012217E+02  0.40659143808E+02  0.00000000000E+00 0. -1.
         11    1    3    3    0    0 -0.65446404020E+01 -0.55294633286E+01 -0.10781603834E+01  0.86353756588E+01  0.51100000000E-03 0. -1.
        -11    1    3    3    0    0 -0.91201289335E-01 -0.12394339863E+02  0.13360067589E+02  0.18224142904E+02  0.51100000000E-03 0.  1.
         12    1    3    3    0    0  0.13644284550E+02 -0.19113053687E+02  0.29601050116E+01  0.23669337629E+02  0.00000000000E+00 0. -1.
</event>
<event>
 7    1  0.2500839E-011  0.5052875E+02  0.7816164E-02  0.1300439E+00
        -11   -1    0    0    0    0  0.00000000000E+00  0.00000000000E+00  0.45593999997E+02  0.45594000000E+02  0.51100000000E-03 0. -1.
         11   -1    0    0    0    0 -0.00000000000E+00 -0.00000000000E+00 -0.45593999997E+02  0.45594000000E+02  0.51100000000E-03 0.  1.
    9900012    2    1    2    0    0  0.25365776590E+02  0.25528557809E+02 -0.18922063328E+02  0.50528753002E+02  0.29999675225E+02 0.  0.
         12    1    1    2    0    0 -0.25365776590E+02 -0.25528557809E+02  0.18922063328E+02  0.40659246998E+02  0.00000000000E+00 0. -1.
         11    1    3    3    0    0  0.98056932737E+01  0.90325060501E+01  0.51201956182E+01  0.14281253081E+02  0.51100000000E-03 0. -1.
        -11    1    3    3    0    0  0.14382760916E+02  0.49410250078E+01 -0.10914015465E+02  0.18718794660E+02  0.51100000000E-03 0.  1.
         12    1    3    3    0    0  0.11773224003E+01  0.11555026751E+02 -0.13128243481E+02  0.17528705262E+02  0.00000000000E+00 0. -1.
</event>
<event>
 7    1  0.2500839E-011  0.5052887E+02  0.7816164E-02  0.1300439E+00
        -11   -1    0    0    0    0  0.00000000000E+00  0.00000000000E+00  0.45593999997E+02  0.45594000000E+02  0.51100000000E-03 0.  1.
         11   -1    0    0    0    0 -0.00000000000E+00 -0.00000000000E+00 -0.45593999997E+02  0.45594000000E+02  0.51100000000E-03 0. -1.
    9900012    2    1    2    0    0 -0.37201962389E+02  0.62602994115E+01  0.15165351689E+02  0.50528865157E+02  0.30000016131E+02 0.  0.
         12    1    1    2    0    0  0.37201962389E+02 -0.62602994115E+01 -0.15165351689E+02  0.40659134843E+02  0.00000000000E+00 0. -1.
         11    1    3    3    0    0 -0.94700703724E+00  0.36577519034E+01  0.94325337916E+01  0.10161135040E+02  0.51100000000E-03 0. -1.
        -11    1    3    3    0    0 -0.17803768500E+02 -0.15479016719E+01  0.10680133974E+02  0.20819112238E+02  0.51100000000E-03 0.  1.
        -12    1    3    3    0    0 -0.18451186851E+02  0.41504491800E+01 -0.49473160766E+01  0.19548617879E+02  0.00000000000E+00 0.  1.
</event>
<event>
 7    1  0.2500839E-011  0.5052885E+02  0.7816164E-02  0.1300439E+00
        -11   -1    0    0    0    0  0.00000000000E+00  0.00000000000E+00  0.45593999997E+02  0.45594000000E+02  0.51100000000E-03 0. -1.
         11   -1    0    0    0    0 -0.00000000000E+00 -0.00000000000E+00 -0.45593999997E+02  0.45594000000E+02  0.51100000000E-03 0.  1.
    9900012    2    1    2    0    0  0.28339453292E+02  0.28411957350E+02 -0.65423531983E+01  0.50528851968E+02  0.29999976041E+02 0.  0.
         12    1    1    2    0    0 -0.28339453292E+02 -0.28411957350E+02  0.65423531983E+01  0.40659148032E+02  0.00000000000E+00 0. -1.
         11    1    3    3    0    0 -0.17773381031E+01  0.18194650141E+01 -0.28368516531E+01  0.38101327055E+01  0.51100000000E-03 0. -1.
        -11    1    3    3    0    0  0.22364226383E+02  0.84806878211E+01 -0.10160623996E+02  0.25986899928E+02  0.51100000000E-03 0.  1.
         12    1    3    3    0    0  0.77525650126E+01  0.18111804514E+02  0.64551224510E+01  0.20731819334E+02  0.00000000000E+00 0. -1.
</event>
<event>
 7    1  0.2500839E-011  0.5052886E+02  0.7816164E-02  0.1300439E+00
        -11   -1    0    0    0    0  0.00000000000E+00  0.00000000000E+00  0.45593999997E+02  0.45594000000E+02  0.51100000000E-03 0.  1.
         11   -1    0    0    0    0 -0.00000000000E+00 -0.00000000000E+00 -0.45593999997E+02  0.45594000000E+02  0.51100000000E-03 0. -1.
    9900012    2    1    2    0    0 -0.16019263774E+02  0.33505281709E+02  0.16551291857E+02  0.50528856178E+02  0.29999988838E+02 0.  0.
         12    1    1    2    0    0  0.16019263774E+02 -0.33505281709E+02 -0.16551291857E+02  0.40659143822E+02  0.00000000000E+00 0. -1.
         11    1    3    3    0    0 -0.75334265499E+01 -0.14306893723E+01  0.38726131732E+01  0.85904901323E+01  0.51100000000E-03 0. -1.
        -11    1    3    3    0    0 -0.12397177404E+02  0.18787444805E+02  0.11511751043E+02  0.25281979792E+02  0.51100000000E-03 0.  1.
        -12    1    3    3    0    0  0.39113401800E+01  0.16148526276E+02  0.11669276408E+01  0.16656386253E+02  0.00000000000E+00 0.  1.
</event>
<event>
 7    1  0.2500839E-011  0.5052885E+02  0.7816164E-02  0.1300439E+00
        -11   -1    0    0    0    0  0.00000000000E+00  0.00000000000E+00  0.45593999997E+02  0.45594000000E+02  0.51100000000E-03 0.  1.
         11   -1    0    0    0    0 -0.00000000000E+00 -0.00000000000E+00 -0.45593999997E+02  0.45594000000E+02  0.51100000000E-03 0. -1.
    9900012    2    1    2    0    0 -0.16679933538E+02 -0.12098488621E+02  0.35051001923E+02  0.50528851638E+02  0.29999975038E+02 0.  0.
         12    1    1    2    0    0  0.16679933538E+02  0.12098488621E+02 -0.35051001923E+02  0.40659148362E+02  0.00000000000E+00 0. -1.
         11    1    3    3    0    0 -0.12090191893E+02 -0.30255464979E+01  0.12844113554E+02  0.17896869136E+02  0.51100000000E-03 0. -1.
        -11    1    3    3    0    0 -0.83782105159E+01 -0.14022447491E+02  0.20416738797E+02  0.26147020260E+02  0.51100000000E-03 0.  1.
         12    1    3    3    0    0  0.37884688717E+01  0.49495053687E+01  0.17901495727E+01  0.64849622419E+01  0.00000000000E+00 0. -1.
</event>
<event>
 7    1  0.2500839E-011  0.5052885E+02  0.7816164E-02  0.1300439E+00
        -11   -1    0    0    0    0  0.00000000000E+00  0.00000000000E+00  0.45593999997E+02  0.45594000000E+02  0.51100000000E-03 0.  1.
         11   -1    0    0    0    0 -0.00000000000E+00 -0.00000000000E+00 -0.45593999997E+02  0.45594000000E+02  0.51100000000E-03 0. -1.
    9900012    2    1    2    0    0  0.19176629810E+02  0.35344064328E+02 -0.60183730935E+01  0.50528845695E+02  0.29999956976E+02 0.  0.
         12    1    1    2    0    0 -0.19176629810E+02 -0.35344064328E+02  0.60183730935E+01  0.40659154305E+02  0.00000000000E+00 0. -1.
         11    1    3    3    0    0  0.37035267684E+01  0.17291911869E+02  0.10021104839E+01  0.17712440608E+02  0.51100000000E-03 0. -1.
        -11    1    3    3    0    0  0.19690033594E+02  0.10276174794E+02 -0.12308837869E+01  0.22244376064E+02  0.51100000000E-03 0.  1.
         12    1    3    3    0    0 -0.42169305528E+01  0.77759776648E+01 -0.57895997905E+01  0.10572029023E+02  0.00000000000E+00 0. -1.
</event>
<event>
 7    1  0.2500839E-011  0.5052886E+02  0.7816164E-02  0.1300439E+00
        -11   -1    0    0    0    0  0.00000000000E+00  0.00000000000E+00  0.45593999997E+02  0.45594000000E+02  0.51100000000E-03 0.  1.
         11   -1    0    0    0    0 -0.00000000000E+00 -0.00000000000E+00 -0.45593999997E+02  0.45594000000E+02  0.51100000000E-03 0. -1.
    9900012    2    1    2    0    0 -0.22795339338E+02  0.29708343068E+01  0.33536729350E+02  0.50528861206E+02  0.30000004120E+02 0.  0.
         12    1    1    2    0    0  0.22795339338E+02 -0.29708343068E+01 -0.33536729350E+02  0.40659138794E+02  0.00000000000E+00 0. -1.
         11    1    3    3    0    0 -0.19203409935E+02  0.26588064243E+00  0.16581630106E+02  0.25373058603E+02  0.51100000000E-03 0. -1.
        -11    1    3    3    0    0 -0.97329043481E+01 -0.23479181665E+01  0.12584381696E+02  0.16081318656E+02  0.51100000000E-03 0.  1.
         12    1    3    3    0    0  0.61409749452E+01  0.50528718308E+01  0.43707175479E+01  0.90744839467E+01  0.00000000000E+00 0. -1.
</event>
<event>
 7    1  0.2500839E-011  0.5052886E+02  0.7816164E-02  0.1300439E+00
        -11   -1    0    0    0    0  0.00000000000E+00  0.00000000000E+00  0.45593999997E+02  0.45594000000E+02  0.51100000000E-03 0.  1.
         11   -1    0    0    0    0 -0.00000000000E+00 -0.00000000000E+00 -0.45593999997E+02  0.45594000000E+02  0.51100000000E-03 0. -1.
    9900012    2    1    2    0    0 -0.13592912975E+02 -0.22020466682E+02  0.31360758990E+02  0.50528862768E+02  0.30000008869E+02 0.  0.
         12    1    1    2    0    0  0.13592912975E+02  0.22020466682E+02 -0.31360758990E+02  0.40659137232E+02  0.00000000000E+00 0. -1.
         11    1    3    3    0    0 -0.65053432375E+01 -0.12099832248E+02  0.61025963383E+01  0.15032202546E+02  0.51100000000E-03 0. -1.
        -11    1    3    3    0    0  0.33867870758E+01 -0.13357062435E+02  0.15865204826E+02  0.21013951747E+02  0.51100000000E-03 0.  1.
        -12    1    3    3    0    0 -0.10474356813E+02  0.34364280003E+01  0.93929578257E+01  0.14482708475E+02  0.00000000000E+00 0.  1.
</event>
<event>
 7    1  0.2500839E-011  0.5052887E+02  0.7816164E-02  0.1300439E+00
        -11   -1    0    0    0    0  0.00000000000E+00  0.00000000000E+00  0.45593999997E+02  0.45594000000E+02  0.51100000000E-03 0. -1.
         11   -1    0    0    0    0 -0.00000000000E+00 -0.00000000000E+00 -0.45593999997E+02  0.45594000000E+02  0.51100000000E-03 0.  1.
    9900012    2    1    2    0    0 -0.21005096036E+02 -0.20783746351E+02 -0.27928234761E+02  0.50528874718E+02  0.30000045192E+02 0.  0.
         12    1    1    2    0    0  0.21005096036E+02  0.20783746351E+02  0.27928234761E+02  0.40659125282E+02  0.00000000000E+00 0. -1.
         11    1    3    3    0    0 -0.35764437455E+01  0.34695436376E+01 -0.14335426088E+02  0.15176729697E+02  0.51100000000E-03 0. -1.
        -11    1    3    3    0    0 -0.44893001422E+01 -0.27014644216E+01 -0.80590252333E+01  0.96124717821E+01  0.51100000000E-03 0.  1.
        -12    1    3    3    0    0 -0.12939352148E+02 -0.21551825567E+02 -0.55337834401E+01  0.25739673239E+02  0.00000000000E+00 0.  1.
</event>
<event>
 7    1  0.2500839E-011  0.5052887E+02  0.7816164E-02  0.1300439E+00
        -11   -1    0    0    0    0  0.00000000000E+00  0.00000000000E+00  0.45593999997E+02  0.45594000000E+02  0.51100000000E-03 0.  1.
         11   -1    0    0    0    0 -0.00000000000E+00 -0.00000000000E+00 -0.45593999997E+02  0.45594000000E+02  0.51100000000E-03 0. -1.
    9900012    2    1    2    0    0 -0.16845679887E+02  0.21411843747E+02  0.30181466211E+02  0.50528869584E+02  0.30000029588E+02 0.  0.
         12    1    1    2    0    0  0.16845679887E+02 -0.21411843747E+02 -0.30181466211E+02  0.40659130416E+02  0.00000000000E+00 0. -1.
         11    1    3    3    0    0 -0.84336656819E+01  0.88532480037E+01  0.36268401322E+01  0.12753849876E+02  0.51100000000E-03 0. -1.
        -11    1    3    3    0    0 -0.14192989374E+02  0.12166821722E+02  0.25902949353E+02  0.31944252748E+02  0.51100000000E-03 0.  1.
        -12    1    3    3    0    0  0.57809751690E+01  0.39177402107E+00  0.65167672618E+00  0.58307669601E+01  0.00000000000E+00 0.  1.
</event>
<event>
 7    1  0.2500839E-011  0.5052886E+02  0.7816164E-02  0.1300439E+00
        -11   -1    0    0    0    0  0.00000000000E+00  0.00000000000E+00  0.45593999997E+02  0.45594000000E+02  0.51100000000E-03 0. -1.
         11   -1    0    0    0    0 -0.00000000000E+00 -0.00000000000E+00 -0.45593999997E+02  0.45594000000E+02  0.51100000000E-03 0.  1.
    9900012    2    1    2    0    0  0.22068628531E+02  0.16844583034E+02 -0.29705247177E+02  0.50528855240E+02  0.29999985987E+02 0.  0.
         12    1    1    2    0    0 -0.22068628531E+02 -0.16844583034E+02  0.29705247177E+02  0.40659144760E+02  0.00000000000E+00 0. -1.
         11    1    3    3    0    0  0.38370266376E+01 -0.23507185280E+01 -0.10378882522E+02  0.11312376129E+02  0.51100000000E-03 0. -1.
        -11    1    3    3    0    0  0.16406913302E+02  0.18552955030E+01 -0.74121743846E+01  0.18098874409E+02  0.51100000000E-03 0.  1.
        -12    1    3    3    0    0  0.18246885916E+01  0.17340006059E+02 -0.11914190270E+02  0.21117604703E+02  0.00000000000E+00 0.  1.
</event>
<event>
 7    1  0.2500839E-011  0.5052883E+02  0.7816164E-02  0.1300439E+00
        -11   -1    0    0    0    0  0.00000000000E+00  0.00000000000E+00  0.45593999997E+02  0.45594000000E+02  0.51100000000E-03 0. -1.
         11   -1    0    0    0    0 -0.00000000000E+00 -0.00000000000E+00 -0.45593999997E+02  0.45594000000E+02  0.51100000000E-03 0.  1.
    9900012    2    1    2    0    0  0.38038650351E+02  0.10995018855E+02 -0.92379120081E+01  0.50528826639E+02  0.29999899051E+02 0.  0.
         12    1    1    2    0    0 -0.38038650351E+02 -0.10995018855E+02  0.92379120081E+01  0.40659173361E+02  0.00000000000E+00 0. -1.
         11    1    3    3    0    0  0.39268597622E+01 -0.58391007100E+01  0.29680453092E+01  0.76370555787E+01  0.51100000000E-03 0. -1.
        -11    1    3    3    0    0  0.27784255512E+02  0.61505565316E+01 -0.10620651734E+02  0.30374206879E+02  0.51100000000E-03 0.  1.
         12    1    3    3    0    0  0.63275350773E+01  0.10683563034E+02 -0.15853055829E+01  0.12517564181E+02  0.00000000000E+00 0. -1.
</event>
<event>
 7    1  0.2500839E-011  0.5052885E+02  0.7816164E-02  0.1300439E+00
        -11   -1    0    0    0    0  0.00000000000E+00  0.00000000000E+00  0.45593999997E+02  0.45594000000E+02  0.51100000000E-03 0. -1.
         11   -1    0    0    0    0 -0.00000000000E+00 -0.00000000000E+00 -0.45593999997E+02  0.45594000000E+02  0.51100000000E-03 0.  1.
    9900012    2    1    2    0    0  0.12018438977E+02 -0.21377239195E+02 -0.32430496579E+02  0.50528851713E+02  0.29999975268E+02 0.  0.
         12    1    1    2    0    0 -0.12018438977E+02  0.21377239195E+02  0.32430496579E+02  0.40659148287E+02  0.00000000000E+00 0. -1.
         11    1    3    3    0    0  0.47340299853E+01 -0.11005210328E+02 -0.56985930865E+01  0.13266486260E+02  0.51100000000E-03 0.  1.
        -11    1    3    3    0    0 -0.48790752754E+01 -0.40998947262E+01  0.89124504989E+00  0.64349693324E+01  0.51100000000E-03 0. -1.
         12    1    3    3    0    0  0.12163484267E+02 -0.62721341411E+01 -0.27623148542E+02  0.30827396121E+02  0.00000000000E+00 0. -1.
</event>
<event>
 7    1  0.2500839E-011  0.5052886E+02  0.7816164E-02  0.1300439E+00
        -11   -1    0    0    0    0  0.00000000000E+00  0.00000000000E+00  0.45593999997E+02  0.45594000000E+02  0.51100000000E-03 0.  1.
         11   -1    0    0    0    0 -0.00000000000E+00 -0.00000000000E+00 -0.45593999997E+02  0.45594000000E+02  0.51100000000E-03 0. -1.
    9900012    2    1    2    0    0 -0.25570831222E+02 -0.21463557728E+01  0.31538727726E+02  0.50528860817E+02  0.30000002939E+02 0.  0.
         12    1    1    2    0    0  0.25570831222E+02  0.21463557728E+01 -0.31538727726E+02  0.40659139183E+02  0.00000000000E+00 0. -1.
         11    1    3    3    0    0  0.29913022263E+01  0.21535314076E+01  0.42411674644E+01  0.56189935268E+01  0.51100000000E-03 0. -1.
        -11    1    3    3    0    0 -0.80873772693E+01  0.77244289525E+01  0.46999472539E+01  0.12131033682E+02  0.51100000000E-03 0.  1.
        -12    1    3    3    0    0 -0.20474756179E+02 -0.12024316133E+02  0.22597613008E+02  0.32778833608E+02  0.00000000000E+00 0.  1.
</event>
<event>
 7    1  0.2500839E-011  0.5052886E+02  0.7816164E-02  0.1300439E+00
        -11   -1    0    0    0    0  0.00000000000E+00  0.00000000000E+00  0.45593999997E+02  0.45594000000E+02  0.51100000000E-03 0. -1.
         11   -1    0    0    0    0 -0.00000000000E+00 -0.00000000000E+00 -0.45593999997E+02  0.45594000000E+02  0.51100000000E-03 0.  1.
    9900012    2    1    2    0    0 -0.17583120887E+02  0.31472009352E+02 -0.18801915646E+02  0.50528861486E+02  0.30000004971E+02 0.  0.
         12    1    1    2    0    0  0.17583120887E+02 -0.31472009352E+02  0.18801915646E+02  0.40659138514E+02  0.00000000000E+00 0. -1.
         11    1    3    3    0    0  0.43340139128E+01  0.88307835536E+01  0.24706017819E+01  0.10142499110E+02  0.51100000000E-03 0. -1.
        -11    1    3    3    0    0 -0.64327086607E+00  0.74795837739E+01 -0.83917075379E+01  0.11259605966E+02  0.51100000000E-03 0.  1.
         12    1    3    3    0    0 -0.21273863934E+02  0.15161642025E+02 -0.12880809890E+02  0.29126756410E+02  0.00000000000E+00 0. -1.
</event>
<event>
 7    1  0.2500839E-011  0.5052887E+02  0.7816164E-02  0.1300439E+00
        -11   -1    0    0    0    0  0.00000000000E+00  0.00000000000E+00  0.45593999997E+02  0.45594000000E+02  0.51100000000E-03 0. -1.
         11   -1    0    0    0    0 -0.00000000000E+00 -0.00000000000E+00 -0.45593999997E+02  0.45594000000E+02  0.51100000000E-03 0.  1.
    9900012    2    1    2    0    0  0.24407065373E+02  0.22915210739E+02 -0.23072778210E+02  0.50528870426E+02  0.30000032148E+02 0.  0.
         12    1    1    2    0    0 -0.24407065373E+02 -0.22915210739E+02  0.23072778210E+02  0.40659129574E+02  0.00000000000E+00 0. -1.
         11    1    3    3    0    0 -0.19083272151E+00  0.14563975418E+02 -0.23471819486E+00  0.14567116736E+02  0.51100000000E-03 0. -1.
        -11    1    3    3    0    0  0.91273526603E+01 -0.42678741111E+00 -0.37678047717E+01  0.98836768026E+01  0.51100000000E-03 0.  1.
        -12    1    3    3    0    0  0.15470545435E+02  0.87780227323E+01 -0.19070255243E+02  0.26078076888E+02  0.00000000000E+00 0.  1.
</event>
<event>
 7    1  0.2500839E-011  0.5052888E+02  0.7816164E-02  0.1300439E+00
        -11   -1    0    0    0    0  0.00000000000E+00  0.00000000000E+00  0.45593999997E+02  0.45594000000E+02  0.51100000000E-03 0.  1.
         11   -1    0    0    0    0 -0.00000000000E+00 -0.00000000000E+00 -0.45593999997E+02  0.45594000000E+02  0.51100000000E-03 0. -1.
    9900012    2    1    2    0    0 -0.10309741346E+02 -0.15412781967E+02  0.36184523739E+02  0.50528875898E+02  0.30000048779E+02 0.  0.
         12    1    1    2    0    0  0.10309741346E+02  0.15412781967E+02 -0.36184523739E+02  0.40659124102E+02  0.00000000000E+00 0. -1.
         11    1    3    3    0    0  0.13952591069E+01 -0.84314024797E+01  0.10248636353E+02  0.13344281288E+02  0.51100000000E-03 0.  1.
        -11    1    3    3    0    0 -0.12808571995E+02 -0.13887425089E+02  0.22538965184E+02  0.29409608021E+02  0.51100000000E-03 0. -1.
        -12    1    3    3    0    0  0.11035715421E+01  0.69060456017E+01  0.33969222021E+01  0.77749865883E+01  0.00000000000E+00 0.  1.
</event>
<event>
 7    1  0.2500839E-011  0.5052886E+02  0.7816164E-02  0.1300439E+00
        -11   -1    0    0    0    0  0.00000000000E+00  0.00000000000E+00  0.45593999997E+02  0.45594000000E+02  0.51100000000E-03 0.  1.
         11   -1    0    0    0    0 -0.00000000000E+00 -0.00000000000E+00 -0.45593999997E+02  0.45594000000E+02  0.51100000000E-03 0. -1.
    9900012    2    1    2    0    0 -0.14201218902E+00  0.19618083040E+02  0.35612862576E+02  0.50528864120E+02  0.30000012981E+02 0.  0.
         12    1    1    2    0    0  0.14201218902E+00 -0.19618083040E+02 -0.35612862576E+02  0.40659135880E+02  0.00000000000E+00 0. -1.
         11    1    3    3    0    0  0.44820712113E+01  0.52863204132E+01 -0.21651095988E+01  0.72609810419E+01  0.51100000000E-03 0. -1.
        -11    1    3    3    0    0 -0.79497803755E+00 -0.15596161716E+01  0.15699868209E+02  0.15797159704E+02  0.51100000000E-03 0.  1.
        -12    1    3    3    0    0 -0.38291053628E+01  0.15891378799E+02  0.22078103966E+02  0.27470723375E+02  0.00000000000E+00 0.  1.
</event>
<event>
 7    1  0.2500839E-011  0.5052885E+02  0.7816164E-02  0.1300439E+00
        -11   -1    0    0    0    0  0.00000000000E+00  0.00000000000E+00  0.45593999997E+02  0.45594000000E+02  0.51100000000E-03 0.  1.
         11   -1    0    0    0    0 -0.00000000000E+00 -0.00000000000E+00 -0.45593999997E+02  0.45594000000E+02  0.51100000000E-03 0. -1.
    9900012    2    1    2    0    0  0.47252775466E+01  0.78031975265E+01  0.39622571735E+02  0.50528851823E+02  0.29999975602E+02 0.  0.
         12    1    1    2    0    0 -0.47252775466E+01 -0.78031975265E+01 -0.39622571735E+02  0.40659148177E+02  0.00000000000E+00 0. -1.
         11    1    3    3    0    0 -0.52956827439E+01 -0.34508376962E-01  0.26065484817E+02  0.26598025219E+02  0.51100000000E-03 0. -1.
        -11    1    3    3    0    0  0.90903772681E+00  0.94395364922E+01  0.31192868146E+01  0.99830430866E+01  0.51100000000E-03 0.  1.
        -12    1    3    3    0    0  0.91119225637E+01 -0.16018305887E+01  0.10437800104E+02  0.13947783518E+02  0.00000000000E+00 0.  1.
</event>
<event>
 7    1  0.2500839E-011  0.5052888E+02  0.7816164E-02  0.1300439E+00
        -11   -1    0    0    0    0  0.00000000000E+00  0.00000000000E+00  0.45593999997E+02  0.45594000000E+02  0.51100000000E-03 0. -1.
         11   -1    0    0    0    0 -0.00000000000E+00 -0.00000000000E+00 -0.45593999997E+02  0.45594000000E+02  0.51100000000E-03 0.  1.
    9900012    2    1    2    0    0  0.29548505574E+02 -0.19763568762E+02 -0.19734519324E+02  0.50528879439E+02  0.30000059542E+02 0.  0.
         12    1    1    2    0    0 -0.29548505574E+02  0.19763568762E+02  0.19734519324E+02  0.40659120561E+02  0.00000000000E+00 0. -1.
         11    1    3    3    0    0  0.14023035877E+01 -0.31980370585E+01 -0.73867709819E+01  0.81705741646E+01  0.51100000000E-03 0. -1.
        -11    1    3    3    0    0  0.18286690597E+02  0.11719157166E+01 -0.12291248198E+02  0.22064705345E+02  0.51100000000E-03 0.  1.
         12    1    3    3    0    0  0.98595113895E+01 -0.17737447420E+02 -0.56500143959E-01  0.20293599929E+02  0.00000000000E+00 0. -1.
</event>
<event>
 7    1  0.2500839E-011  0.5052886E+02  0.7816164E-02  0.1300439E+00
        -11   -1    0    0    0    0  0.00000000000E+00  0.00000000000E+00  0.45593999997E+02  0.45594000000E+02  0.51100000000E-03 0.  1.
         11   -1    0    0    0    0 -0.00000000000E+00 -0.00000000000E+00 -0.45593999997E+02  0.45594000000E+02  0.51100000000E-03 0. -1.
    9900012    2    1    2    0    0  0.19694885131E+02  0.15700317260E+02  0.31918286539E+02  0.50528862306E+02  0.30000007466E+02 0.  0.
         12    1    1    2    0    0 -0.19694885131E+02 -0.15700317260E+02 -0.31918286539E+02  0.40659137694E+02  0.00000000000E+00 0. -1.
         11    1    3    3    0    0  0.14706672394E+02  0.23252949966E+02  0.29957338032E+02  0.40674660383E+02  0.51100000000E-03 0.  1.
        -11    1    3    3    0    0  0.24537471845E+01 -0.14783127838E+01 -0.33321303682E+00  0.28839755757E+01  0.51100000000E-03 0. -1.
        -12    1    3    3    0    0  0.25344655527E+01 -0.60743199216E+01  0.22941615437E+01  0.69702263476E+01  0.00000000000E+00 0.  1.
</event>
<event>
 7    1  0.2500839E-011  0.5052886E+02  0.7816164E-02  0.1300439E+00
        -11   -1    0    0    0    0  0.00000000000E+00  0.00000000000E+00  0.45593999997E+02  0.45594000000E+02  0.51100000000E-03 0.  1.
         11   -1    0    0    0    0 -0.00000000000E+00 -0.00000000000E+00 -0.45593999997E+02  0.45594000000E+02  0.51100000000E-03 0. -1.
    9900012    2    1    2    0    0 -0.36191267411E+02  0.16866327711E+02  0.76736350239E+01  0.50528861768E+02  0.30000005831E+02 0.  0.
         12    1    1    2    0    0  0.36191267411E+02 -0.16866327711E+02 -0.76736350239E+01  0.40659138232E+02  0.00000000000E+00 0. -1.
         11    1    3    3    0    0 -0.16133872408E+02 -0.53293431038E+01 -0.20511416998E+01  0.17114640497E+02  0.51100000000E-03 0. -1.
        -11    1    3    3    0    0 -0.75696698564E+01  0.11019115146E+02 -0.11788556837E+01  0.13420525374E+02  0.51100000000E-03 0.  1.
        -12    1    3    3    0    0 -0.12487725146E+02  0.11176555669E+02  0.10903632407E+02  0.19993695897E+02  0.00000000000E+00 0.  1.
</event>
<event>
 7    1  0.2500839E-011  0.5052886E+02  0.7816164E-02  0.1300439E+00
        -11   -1    0    0    0    0  0.00000000000E+00  0.00000000000E+00  0.45593999997E+02  0.45594000000E+02  0.51100000000E-03 0. -1.
         11   -1    0    0    0    0 -0.00000000000E+00 -0.00000000000E+00 -0.45593999997E+02  0.45594000000E+02  0.51100000000E-03 0.  1.
    9900012    2    1    2    0    0 -0.28852774677E+02  0.22036774447E+02 -0.18304739726E+02  0.50528861654E+02  0.30000005484E+02 0.  0.
         12    1    1    2    0    0  0.28852774677E+02 -0.22036774447E+02  0.18304739726E+02  0.40659138346E+02  0.00000000000E+00 0. -1.
         11    1    3    3    0    0 -0.12308926040E+02  0.20055094825E+02 -0.10393668178E+02  0.25724401395E+02  0.51100000000E-03 0. -1.
        -11    1    3    3    0    0 -0.14916307420E+02  0.75732460186E+01 -0.26132034226E+01  0.16931601067E+02  0.51100000000E-03 0.  1.
         12    1    3    3    0    0 -0.16275412163E+01 -0.55915663961E+01 -0.52978681252E+01  0.78728591912E+01  0.00000000000E+00 0. -1.
</event>
<event>
 7    1  0.2500839E-011  0.5052886E+02  0.7816164E-02  0.1300439E+00
        -11   -1    0    0    0    0  0.00000000000E+00  0.00000000000E+00  0.45593999997E+02  0.45594000000E+02  0.51100000000E-03 0. -1.
         11   -1    0    0    0    0 -0.00000000000E+00 -0.00000000000E+00 -0.45593999997E+02  0.45594000000E+02  0.51100000000E-03 0.  1.
    9900012    2    1    2    0    0 -0.12403773362E+01  0.72267459866E+01 -0.39992516897E+02  0.50528858331E+02  0.29999995383E+02 0.  0.
         12    1    1    2    0    0  0.12403773362E+01 -0.72267459866E+01  0.39992516897E+02  0.40659141669E+02  0.00000000000E+00 0. -1.
         11    1    3    3    0    0  0.58900891732E+01  0.52156476027E+01 -0.16697179294E+02  0.18457841884E+02  0.51100000000E-03 0.  1.
        -11    1    3    3    0    0 -0.41189956561E+01  0.11383023872E+02 -0.11370741762E+02  0.16608224654E+02  0.51100000000E-03 0. -1.
        -12    1    3    3    0    0 -0.30114708534E+01 -0.93719254877E+01 -0.11924595842E+02  0.15462791793E+02  0.00000000000E+00 0.  1.
</event>
<event>
 7    1  0.2500839E-011  0.5052885E+02  0.7816164E-02  0.1300439E+00
        -11   -1    0    0    0    0  0.00000000000E+00  0.00000000000E+00  0.45593999997E+02  0.45594000000E+02  0.51100000000E-03 0.  1.
         11   -1    0    0    0    0 -0.00000000000E+00 -0.00000000000E+00 -0.45593999997E+02  0.45594000000E+02  0.51100000000E-03 0. -1.
    9900012    2    1    2    0    0  0.32826834577E+02 -0.14977596048E+02  0.18741312429E+02  0.50528852896E+02  0.29999978862E+02 0.  0.
         12    1    1    2    0    0 -0.32826834577E+02  0.14977596048E+02 -0.18741312429E+02  0.40659147104E+02  0.00000000000E+00 0. -1.
         11    1    3    3    0    0  0.57273502993E+01 -0.37111377300E+01  0.65776136047E+00  0.68562187079E+01  0.51100000000E-03 0. -1.
        -11    1    3    3    0    0  0.23185013477E+02  0.17550759772E+01  0.19024996044E+02  0.30042896271E+02  0.51100000000E-03 0.  1.
         12    1    3    3    0    0  0.39144708001E+01 -0.13021534295E+02 -0.94144497592E+00  0.13629737917E+02  0.00000000000E+00 0. -1.
</event>
<event>
 7    1  0.2500839E-011  0.5052886E+02  0.7816164E-02  0.1300439E+00
        -11   -1    0    0    0    0  0.00000000000E+00  0.00000000000E+00  0.45593999997E+02  0.45594000000E+02  0.51100000000E-03 0. -1.
         11   -1    0    0    0    0 -0.00000000000E+00 -0.00000000000E+00 -0.45593999997E+02  0.45594000000E+02  0.51100000000E-03 0.  1.
    9900012    2    1    2    0    0  0.27999268846E+02 -0.21284533349E+02 -0.20400382906E+02  0.50528855414E+02  0.29999986516E+02 0.  0.
         12    1    1    2    0    0 -0.27999268846E+02  0.21284533349E+02  0.20400382906E+02  0.40659144586E+02  0.00000000000E+00 0. -1.
         11    1    3    3    0    0  0.13461374058E+02 -0.21425910196E+02 -0.13885896923E+02  0.28863408546E+02  0.51100000000E-03 0.  1.
        -11    1    3    3    0    0 -0.16731877351E+01 -0.17483139645E+01 -0.46453894710E+01  0.52379196743E+01  0.51100000000E-03 0. -1.
        -12    1    3    3    0    0  0.16211082523E+02  0.18896908120E+01 -0.18690965115E+01  0.16427527193E+02  0.00000000000E+00 0.  1.
</event>
<event>
 7    1  0.2500839E-011  0.5052888E+02  0.7816164E-02  0.1300439E+00
        -11   -1    0    0    0    0  0.00000000000E+00  0.00000000000E+00  0.45593999997E+02  0.45594000000E+02  0.51100000000E-03 0. -1.
         11   -1    0    0    0    0 -0.00000000000E+00 -0.00000000000E+00 -0.45593999997E+02  0.45594000000E+02  0.51100000000E-03 0.  1.
    9900012    2    1    2    0    0 -0.14918913421E+02  0.37805283471E+02 -0.11620831203E+01  0.50528882041E+02  0.30000067453E+02 0.  0.
         12    1    1    2    0    0  0.14918913421E+02 -0.37805283471E+02  0.11620831203E+01  0.40659117959E+02  0.00000000000E+00 0. -1.
         11    1    3    3    0    0 -0.73444882149E+01  0.15510017680E+02  0.12042878312E+01  0.17203269021E+02  0.51100000000E-03 0.  1.
        -11    1    3    3    0    0  0.19260965013E+01 -0.42912788492E+01 -0.19434980760E+01  0.50894112554E+01  0.51100000000E-03 0. -1.
         12    1    3    3    0    0 -0.95005217073E+01  0.26586544641E+02 -0.42287287557E+00  0.28236201765E+02  0.00000000000E+00 0. -1.
</event>
<event>
 7    1  0.2500839E-011  0.5052888E+02  0.7816164E-02  0.1300439E+00
        -11   -1    0    0    0    0  0.00000000000E+00  0.00000000000E+00  0.45593999997E+02  0.45594000000E+02  0.51100000000E-03 0.  1.
         11   -1    0    0    0    0 -0.00000000000E+00 -0.00000000000E+00 -0.45593999997E+02  0.45594000000E+02  0.51100000000E-03 0. -1.
    9900012    2    1    2    0    0  0.24942697615E+02  0.21686123390E+02  0.23679913824E+02  0.50528875185E+02  0.30000046613E+02 0.  0.
         12    1    1    2    0    0 -0.24942697615E+02 -0.21686123390E+02 -0.23679913824E+02  0.40659124815E+02  0.00000000000E+00 0. -1.
         11    1    3    3    0    0  0.82445616565E+01 -0.78469196499E+00  0.17043731574E+01  0.84553785550E+01  0.51100000000E-03 0. -1.
        -11    1    3    3    0    0  0.19888172384E+02  0.15372311732E+02  0.23186623903E+02  0.34197469161E+02  0.51100000000E-03 0.  1.
         12    1    3    3    0    0 -0.31900364253E+01  0.70985036234E+01 -0.12110832367E+01  0.78760274690E+01  0.00000000000E+00 0. -1.
</event>
<event>
 7    1  0.2500839E-011  0.5052887E+02  0.7816164E-02  0.1300439E+00
        -11   -1    0    0    0    0  0.00000000000E+00  0.00000000000E+00  0.45593999997E+02  0.45594000000E+02  0.51100000000E-03 0.  1.
         11   -1    0    0    0    0 -0.00000000000E+00 -0.00000000000E+00 -0.45593999997E+02  0.45594000000E+02  0.51100000000E-03 0. -1.
    9900012    2    1    2    0    0 -0.12263540382E+02 -0.30961157823E+02  0.23327604419E+02  0.50528870098E+02  0.30000031150E+02 0.  0.
         12    1    1    2    0    0  0.12263540382E+02  0.30961157823E+02 -0.23327604419E+02  0.40659129902E+02  0.00000000000E+00 0. -1.
         11    1    3    3    0    0  0.13609641354E+01 -0.19722496734E+02  0.73211029785E+01  0.21081452746E+02  0.51100000000E-03 0. -1.
        -11    1    3    3    0    0 -0.12210530087E+02 -0.15665213715E+02  0.14391917267E+02  0.24528009472E+02  0.51100000000E-03 0.  1.
        -12    1    3    3    0    0 -0.14139744298E+01  0.44265526258E+01  0.16145841731E+01  0.49194078800E+01  0.00000000000E+00 0.  1.
</event>
<event>
 7    1  0.2500839E-011  0.5052887E+02  0.7816164E-02  0.1300439E+00
        -11   -1    0    0    0    0  0.00000000000E+00  0.00000000000E+00  0.45593999997E+02  0.45594000000E+02  0.51100000000E-03 0.  1.
         11   -1    0    0    0    0 -0.00000000000E+00 -0.00000000000E+00 -0.45593999997E+02  0.45594000000E+02  0.51100000000E-03 0. -1.
    9900012    2    1    2    0    0  0.34075074064E+01  0.15664133069E+02  0.37365605420E+02  0.50528872612E+02  0.30000038793E+02 0.  0.
         12    1    1    2    0    0 -0.34075074064E+01 -0.15664133069E+02 -0.37365605420E+02  0.40659127388E+02  0.00000000000E+00 0. -1.
         11    1    3    3    0    0  0.12775328679E+02  0.40996403227E+01  0.84162318791E+01  0.15838214323E+02  0.51100000000E-03 0. -1.
        -11    1    3    3    0    0 -0.62634075293E+01 -0.59948654632E+00  0.70604417868E+01  0.94572457134E+01  0.51100000000E-03 0.  1.
        -12    1    3    3    0    0 -0.31044137431E+01  0.12163979293E+02  0.21888931754E+02  0.25233412576E+02  0.00000000000E+00 0.  1.
</event>
<event>
 7    1  0.2500839E-011  0.5052885E+02  0.7816164E-02  0.1300439E+00
        -11   -1    0    0    0    0  0.00000000000E+00  0.00000000000E+00  0.45593999997E+02  0.45594000000E+02  0.51100000000E-03 0.  1.
         11   -1    0    0    0    0 -0.00000000000E+00 -0.00000000000E+00 -0.45593999997E+02  0.45594000000E+02  0.51100000000E-03 0. -1.
    9900012    2    1    2    0    0  0.32220113225E+02  0.10282989477E+02  0.22567469556E+02  0.50528852801E+02  0.29999978574E+02 0.  0.
         12    1    1    2    0    0 -0.32220113225E+02 -0.10282989477E+02 -0.22567469556E+02  0.40659147199E+02  0.00000000000E+00 0. -1.
         11    1    3    3    0    0  0.35678825948E+01  0.10044229026E+01  0.73470132191E+01  0.82290494639E+01  0.51100000000E-03 0. -1.
        -11    1    3    3    0    0 -0.49474450569E+00 -0.61006197646E+01  0.31090201935E+00  0.61285393010E+01  0.51100000000E-03 0.  1.
         12    1    3    3    0    0  0.29146975136E+02  0.15379186339E+02  0.14909554317E+02  0.36171264036E+02  0.00000000000E+00 0. -1.
</event>
<event>
 7    1  0.2500839E-011  0.5052881E+02  0.7816164E-02  0.1300439E+00
        -11   -1    0    0    0    0  0.00000000000E+00  0.00000000000E+00  0.45593999997E+02  0.45594000000E+02  0.51100000000E-03 0.  1.
         11   -1    0    0    0    0 -0.00000000000E+00 -0.00000000000E+00 -0.45593999997E+02  0.45594000000E+02  0.51100000000E-03 0. -1.
    9900012    2    1    2    0    0 -0.19877543972E+02 -0.86703908650E+01  0.34392981834E+02  0.50528811228E+02  0.29999852209E+02 0.  0.
         12    1    1    2    0    0  0.19877543972E+02  0.86703908650E+01 -0.34392981834E+02  0.40659188772E+02  0.00000000000E+00 0. -1.
         11    1    3    3    0    0 -0.17561242333E+02 -0.24775997322E+01  0.84327746671E+01  0.19637907769E+02  0.51100000000E-03 0. -1.
        -11    1    3    3    0    0 -0.42735326641E+01 -0.74492427224E+01  0.52820953131E+01  0.10082401982E+02  0.51100000000E-03 0.  1.
         12    1    3    3    0    0  0.19572310242E+01  0.12564515896E+01  0.20678111854E+02  0.20808501477E+02  0.00000000000E+00 0. -1.
</event>
<event>
 7    1  0.2500839E-011  0.5052886E+02  0.7816164E-02  0.1300439E+00
        -11   -1    0    0    0    0  0.00000000000E+00  0.00000000000E+00  0.45593999997E+02  0.45594000000E+02  0.51100000000E-03 0.  1.
         11   -1    0    0    0    0 -0.00000000000E+00 -0.00000000000E+00 -0.45593999997E+02  0.45594000000E+02  0.51100000000E-03 0. -1.
    9900012    2    1    2    0    0  0.32277685049E+01 -0.37811156318E+02  0.14596707452E+02  0.50528857116E+02  0.29999991689E+02 0.  0.
         12    1    1    2    0    0 -0.32277685049E+01  0.37811156318E+02 -0.14596707452E+02  0.40659142884E+02  0.00000000000E+00 0. -1.
         11    1    3    3    0    0  0.86317213196E+01 -0.13617433314E+02  0.71884375526E+01  0.17652612773E+02  0.51100000000E-03 0. -1.
        -11    1    3    3    0    0 -0.37165598353E+01 -0.24101671341E+02  0.12576669936E+02  0.27438586068E+02  0.51100000000E-03 0.  1.
         12    1    3    3    0    0 -0.16873929794E+01 -0.92051663507E-01 -0.51684000372E+01  0.54376582754E+01  0.00000000000E+00 0. -1.
</event>
<event>
 7    1  0.2500839E-011  0.5052887E+02  0.7816164E-02  0.1300439E+00
        -11   -1    0    0    0    0  0.00000000000E+00  0.00000000000E+00  0.45593999997E+02  0.45594000000E+02  0.51100000000E-03 0. -1.
         11   -1    0    0    0    0 -0.00000000000E+00 -0.00000000000E+00 -0.45593999997E+02  0.45594000000E+02  0.51100000000E-03 0.  1.
    9900012    2    1    2    0    0 -0.38881973476E+01  0.39432326635E+02  0.91180423376E+01  0.50528866234E+02  0.30000019406E+02 0.  0.
         12    1    1    2    0    0  0.38881973476E+01 -0.39432326635E+02 -0.91180423376E+01  0.40659133766E+02  0.00000000000E+00 0. -1.
         11    1    3    3    0    0 -0.11941399216E+02  0.23714311082E+02  0.32708405467E+01  0.26751896447E+02  0.51100000000E-03 0. -1.
        -11    1    3    3    0    0  0.19670648167E+01 -0.22604337802E+01  0.35689293128E+01  0.46600602538E+01  0.51100000000E-03 0.  1.
        -12    1    3    3    0    0  0.60861370522E+01  0.17978449333E+02  0.22782724781E+01  0.19116909534E+02  0.00000000000E+00 0.  1.
</event>
<event>
 7    1  0.2500839E-011  0.5052888E+02  0.7816164E-02  0.1300439E+00
        -11   -1    0    0    0    0  0.00000000000E+00  0.00000000000E+00  0.45593999997E+02  0.45594000000E+02  0.51100000000E-03 0. -1.
         11   -1    0    0    0    0 -0.00000000000E+00 -0.00000000000E+00 -0.45593999997E+02  0.45594000000E+02  0.51100000000E-03 0.  1.
    9900012    2    1    2    0    0  0.70753554303E+01  0.13555488213E+02 -0.37674293518E+02  0.50528876704E+02  0.30000051228E+02 0.  0.
         12    1    1    2    0    0 -0.70753554303E+01 -0.13555488213E+02  0.37674293518E+02  0.40659123296E+02  0.00000000000E+00 0. -1.
         11    1    3    3    0    0 -0.12332738874E+01 -0.11759768834E+01 -0.32766459523E+01  0.36932770096E+01  0.51100000000E-03 0. -1.
        -11    1    3    3    0    0  0.13522334176E+02  0.16265926994E+02 -0.35467748428E+02  0.41296429402E+02  0.51100000000E-03 0.  1.
         12    1    3    3    0    0 -0.52137048587E+01 -0.15344618972E+01  0.10701008623E+01  0.55391702919E+01  0.00000000000E+00 0. -1.
</event>
<event>
 7    1  0.2500839E-011  0.5052887E+02  0.7816164E-02  0.1300439E+00
        -11   -1    0    0    0    0  0.00000000000E+00  0.00000000000E+00  0.45593999997E+02  0.45594000000E+02  0.51100000000E-03 0.  1.
         11   -1    0    0    0    0 -0.00000000000E+00 -0.00000000000E+00 -0.45593999997E+02  0.45594000000E+02  0.51100000000E-03 0. -1.
    9900012    2    1    2    0    0 -0.32899673606E+02  0.53449859581E+01  0.23285354057E+02  0.50528866809E+02  0.30000021153E+02 0.  0.
         12    1    1    2    0    0  0.32899673606E+02 -0.53449859581E+01 -0.23285354057E+02  0.40659133191E+02  0.00000000000E+00 0. -1.
         11    1    3    3    0    0  0.47160589672E+01  0.20136605136E+01 -0.41075429140E+00  0.51443911394E+01  0.51100000000E-03 0. -1.
        -11    1    3    3    0    0 -0.12081982172E+02  0.36493332819E+01  0.43566559897E+01  0.13351867970E+02  0.51100000000E-03 0.  1.
        -12    1    3    3    0    0 -0.25533750401E+02 -0.31800783732E+00  0.19339452359E+02  0.32032607700E+02  0.00000000000E+00 0.  1.
</event>
<event>
 7    1  0.2500839E-011  0.5052886E+02  0.7816164E-02  0.1300439E+00
        -11   -1    0    0    0    0  0.00000000000E+00  0.00000000000E+00  0.45593999997E+02  0.45594000000E+02  0.51100000000E-03 0.  1.
         11   -1    0    0    0    0 -0.00000000000E+00 -0.00000000000E+00 -0.45593999997E+02  0.45594000000E+02  0.51100000000E-03 0. -1.
    9900012    2    1    2    0    0  0.94700503958E+01  0.16890629259E+02  0.35751791597E+02  0.50528858179E+02  0.29999994921E+02 0.  0.
         12    1    1    2    0    0 -0.94700503958E+01 -0.16890629259E+02 -0.35751791597E+02  0.40659141821E+02  0.00000000000E+00 0. -1.
         11    1    3    3    0    0  0.12725685801E+02  0.60987957024E+01  0.85960370594E+01  0.16523626766E+02  0.51100000000E-03 0. -1.
        -11    1    3    3    0    0  0.53290395709E+01  0.95116159429E+01  0.19905855618E+02  0.22696091927E+02  0.51100000000E-03 0.  1.
         12    1    3    3    0    0 -0.85846749758E+01  0.12802176137E+01  0.72498989187E+01  0.11309139486E+02  0.00000000000E+00 0. -1.
</event>
<event>
 7    1  0.2500839E-011  0.5052884E+02  0.7816164E-02  0.1300439E+00
        -11   -1    0    0    0    0  0.00000000000E+00  0.00000000000E+00  0.45593999997E+02  0.45594000000E+02  0.51100000000E-03 0. -1.
         11   -1    0    0    0    0 -0.00000000000E+00 -0.00000000000E+00 -0.45593999997E+02  0.45594000000E+02  0.51100000000E-03 0.  1.
    9900012    2    1    2    0    0 -0.17881414125E+02 -0.32157287507E+02  0.17301194342E+02  0.50528838221E+02  0.29999934257E+02 0.  0.
         12    1    1    2    0    0  0.17881414125E+02  0.32157287507E+02 -0.17301194342E+02  0.40659161779E+02  0.00000000000E+00 0. -1.
         11    1    3    3    0    0 -0.67642212169E+01  0.35642613540E+01  0.73754176235E+01  0.10623343779E+02  0.51100000000E-03 0. -1.
        -11    1    3    3    0    0 -0.56681741120E+01 -0.82640208372E+01  0.58878223156E+01  0.11622766024E+02  0.51100000000E-03 0.  1.
        -12    1    3    3    0    0 -0.54490187958E+01 -0.27457528024E+02  0.40379544030E+01  0.28282728418E+02  0.00000000000E+00 0.  1.
</event>
<event>
 7    1  0.2500839E-011  0.5052879E+02  0.7816164E-02  0.1300439E+00
        -11   -1    0    0    0    0  0.00000000000E+00  0.00000000000E+00  0.45593999997E+02  0.45594000000E+02  0.51100000000E-03 0.  1.
         11   -1    0    0    0    0 -0.00000000000E+00 -0.00000000000E+00 -0.45593999997E+02  0.45594000000E+02  0.51100000000E-03 0. -1.
    9900012    2    1    2    0    0 -0.38030392539E+02 -0.72447844823E+01  0.12424707143E+02  0.50528794321E+02  0.29999800817E+02 0.  0.
         12    1    1    2    0    0  0.38030392539E+02  0.72447844823E+01 -0.12424707143E+02  0.40659205679E+02  0.00000000000E+00 0. -1.
         11    1    3    3    0    0 -0.26015509903E+02 -0.47617615604E+01 -0.15097888746E+00  0.26448136485E+02  0.51100000000E-03 0. -1.
        -11    1    3    3    0    0  0.65697920987E+00 -0.64601726574E+01  0.12212552059E+01  0.66073381164E+01  0.51100000000E-03 0.  1.
        -12    1    3    3    0    0 -0.12671861846E+02  0.39771497355E+01  0.11354430824E+02  0.17473319719E+02  0.00000000000E+00 0.  1.
</event>
<event>
 7    1  0.2500839E-011  0.5052886E+02  0.7816164E-02  0.1300439E+00
        -11   -1    0    0    0    0  0.00000000000E+00  0.00000000000E+00  0.45593999997E+02  0.45594000000E+02  0.51100000000E-03 0.  1.
         11   -1    0    0    0    0 -0.00000000000E+00 -0.00000000000E+00 -0.45593999997E+02  0.45594000000E+02  0.51100000000E-03 0. -1.
    9900012    2    1    2    0    0  0.33795534052E+02 -0.17449123784E+02  0.14372051364E+02  0.50528857078E+02  0.29999991576E+02 0.  0.
         12    1    1    2    0    0 -0.33795534052E+02  0.17449123784E+02 -0.14372051364E+02  0.40659142922E+02  0.00000000000E+00 0. -1.
         11    1    3    3    0    0  0.13247446269E+01 -0.15947640997E+01 -0.49425165432E+01  0.53597286220E+01  0.51100000000E-03 0. -1.
        -11    1    3    3    0    0  0.31532140869E+02 -0.93221808162E+01  0.11258863100E+02  0.34755445063E+02  0.51100000000E-03 0.  1.
         12    1    3    3    0    0  0.93864855587E+00 -0.65321788681E+01  0.80557048071E+01  0.10413683393E+02  0.00000000000E+00 0. -1.
</event>
<event>
 7    1  0.2500839E-011  0.5052886E+02  0.7816164E-02  0.1300439E+00
        -11   -1    0    0    0    0  0.00000000000E+00  0.00000000000E+00  0.45593999997E+02  0.45594000000E+02  0.51100000000E-03 0. -1.
         11   -1    0    0    0    0 -0.00000000000E+00 -0.00000000000E+00 -0.45593999997E+02  0.45594000000E+02  0.51100000000E-03 0.  1.
    9900012    2    1    2    0    0 -0.24338308669E+02 -0.31828671003E+02 -0.69099794730E+01  0.50528863474E+02  0.30000011017E+02 0.  0.
         12    1    1    2    0    0  0.24338308669E+02  0.31828671003E+02  0.69099794730E+01  0.40659136526E+02  0.00000000000E+00 0. -1.
         11    1    3    3    0    0 -0.97450379559E+01 -0.13404532302E+02 -0.12162553824E+02  0.20556628293E+02  0.51100000000E-03 0. -1.
        -11    1    3    3    0    0 -0.15238836867E+02 -0.55970689967E+01  0.54584268362E+01  0.17127280993E+02  0.51100000000E-03 0.  1.
         12    1    3    3    0    0  0.64556615399E+00 -0.12827069704E+02 -0.20585248518E+00  0.12844954188E+02  0.00000000000E+00 0. -1.
</event>
<event>
 7    1  0.2500839E-011  0.5052886E+02  0.7816164E-02  0.1300439E+00
        -11   -1    0    0    0    0  0.00000000000E+00  0.00000000000E+00  0.45593999997E+02  0.45594000000E+02  0.51100000000E-03 0.  1.
         11   -1    0    0    0    0 -0.00000000000E+00 -0.00000000000E+00 -0.45593999997E+02  0.45594000000E+02  0.51100000000E-03 0. -1.
    9900012    2    1    2    0    0  0.40045494247E+02  0.96924736428E+00  0.69702757568E+01  0.50528858420E+02  0.29999995653E+02 0.  0.
         12    1    1    2    0    0 -0.40045494247E+02 -0.96924736428E+00 -0.69702757568E+01  0.40659141580E+02  0.00000000000E+00 0. -1.
         11    1    3    3    0    0  0.16285994728E+01 -0.40778986988E+01 -0.32491509441E+01  0.54624697856E+01  0.51100000000E-03 0. -1.
        -11    1    3    3    0    0  0.15667536965E+02  0.12309055929E+02  0.32327540284E+01  0.20185025918E+02  0.51100000000E-03 0.  1.
         12    1    3    3    0    0  0.22749357808E+02 -0.72619098664E+01  0.69866726724E+01  0.24881362717E+02  0.00000000000E+00 0. -1.
</event>
<event>
 7    1  0.2500839E-011  0.5052886E+02  0.7816164E-02  0.1300439E+00
        -11   -1    0    0    0    0  0.00000000000E+00  0.00000000000E+00  0.45593999997E+02  0.45594000000E+02  0.51100000000E-03 0. -1.
         11   -1    0    0    0    0 -0.00000000000E+00 -0.00000000000E+00 -0.45593999997E+02  0.45594000000E+02  0.51100000000E-03 0.  1.
    9900012    2    1    2    0    0  0.35974773985E+02  0.16365662805E+02 -0.95470629595E+01  0.50528859656E+02  0.29999999411E+02 0.  0.
         12    1    1    2    0    0 -0.35974773985E+02 -0.16365662805E+02  0.95470629595E+01  0.40659140344E+02  0.00000000000E+00 0. -1.
         11    1    3    3    0    0  0.23134733020E+02  0.73157466630E+01 -0.14362223648E+01  0.24306352176E+02  0.51100000000E-03 0.  1.
        -11    1    3    3    0    0  0.17809207322E+02  0.90060840622E+01 -0.67937630180E+01  0.21081570904E+02  0.51100000000E-03 0. -1.
         12    1    3    3    0    0 -0.49691663572E+01  0.43832080249E-01 -0.13170775768E+01  0.51409365762E+01  0.00000000000E+00 0. -1.
</event>
<event>
 7    1  0.2500839E-011  0.5052886E+02  0.7816164E-02  0.1300439E+00
        -11   -1    0    0    0    0  0.00000000000E+00  0.00000000000E+00  0.45593999997E+02  0.45594000000E+02  0.51100000000E-03 0.  1.
         11   -1    0    0    0    0 -0.00000000000E+00 -0.00000000000E+00 -0.45593999997E+02  0.45594000000E+02  0.51100000000E-03 0. -1.
    9900012    2    1    2    0    0  0.20225831875E+01 -0.39013101348E+02 -0.11271756009E+02  0.50528863228E+02  0.30000010268E+02 0.  0.
         12    1    1    2    0    0 -0.20225831875E+01  0.39013101348E+02  0.11271756009E+02  0.40659136772E+02  0.00000000000E+00 0. -1.
         11    1    3    3    0    0 -0.29753479039E+00 -0.51342560753E+01  0.66662490114E+01  0.84195004924E+01  0.51100000000E-03 0. -1.
        -11    1    3    3    0    0 -0.74552630143E+01 -0.11992120800E+02 -0.62768254077E+01  0.15452845866E+02  0.51100000000E-03 0.  1.
         12    1    3    3    0    0  0.97753809922E+01 -0.21886724473E+02 -0.11661179613E+02  0.26656516870E+02  0.00000000000E+00 0. -1.
</event>
<event>
 7    1  0.2500839E-011  0.5052895E+02  0.7816164E-02  0.1300438E+00
        -11   -1    0    0    0    0  0.00000000000E+00  0.00000000000E+00  0.45593999997E+02  0.45594000000E+02  0.51100000000E-03 0.  1.
         11   -1    0    0    0    0 -0.00000000000E+00 -0.00000000000E+00 -0.45593999997E+02  0.45594000000E+02  0.51100000000E-03 0. -1.
    9900012    2    1    2    0    0 -0.93810987705E+01 -0.84808809094E+00  0.39552923271E+02  0.50528954182E+02  0.30000286729E+02 0.  0.
         12    1    1    2    0    0  0.93810987705E+01  0.84808809094E+00 -0.39552923271E+02  0.40659045818E+02  0.00000000000E+00 0. -1.
         11    1    3    3    0    0  0.96838368104E+00  0.21197496975E+01  0.26300655867E+02  0.26403704381E+02  0.51100000000E-03 0. -1.
        -11    1    3    3    0    0  0.47327082347E+01 -0.15008767513E+01  0.39487805403E+01  0.63438179572E+01  0.51100000000E-03 0.  1.
         12    1    3    3    0    0 -0.15082190686E+02 -0.14669610372E+01  0.93034868641E+01  0.17781431844E+02  0.00000000000E+00 0. -1.
</event>
<event>
 7    1  0.2500839E-011  0.5052886E+02  0.7816164E-02  0.1300439E+00
        -11   -1    0    0    0    0  0.00000000000E+00  0.00000000000E+00  0.45593999997E+02  0.45594000000E+02  0.51100000000E-03 0.  1.
         11   -1    0    0    0    0 -0.00000000000E+00 -0.00000000000E+00 -0.45593999997E+02  0.45594000000E+02  0.51100000000E-03 0. -1.
    9900012    2    1    2    0    0 -0.11672696521E+02  0.27790660971E+02  0.27287232638E+02  0.50528859007E+02  0.29999997437E+02 0.  0.
         12    1    1    2    0    0  0.11672696521E+02 -0.27790660971E+02 -0.27287232638E+02  0.40659140993E+02  0.00000000000E+00 0. -1.
         11    1    3    3    0    0 -0.12839609627E+02  0.19308891285E+02  0.14889929909E+02  0.27557192727E+02  0.51100000000E-03 0.  1.
        -11    1    3    3    0    0 -0.73092384897E+01  0.19546328089E+01  0.89768938882E+01  0.11740109917E+02  0.51100000000E-03 0. -1.
        -12    1    3    3    0    0  0.84761515965E+01  0.65271368773E+01  0.34204088413E+01  0.11231556363E+02  0.00000000000E+00 0.  1.
</event>
<event>
 7    1  0.2500839E-011  0.5052880E+02  0.7816164E-02  0.1300439E+00
        -11   -1    0    0    0    0  0.00000000000E+00  0.00000000000E+00  0.45593999997E+02  0.45594000000E+02  0.51100000000E-03 0. -1.
         11   -1    0    0    0    0 -0.00000000000E+00 -0.00000000000E+00 -0.45593999997E+02  0.45594000000E+02  0.51100000000E-03 0.  1.
    9900012    2    1    2    0    0 -0.39953504527E+02  0.55309528694E+01 -0.51279936783E+01  0.50528803220E+02  0.29999827867E+02 0.  0.
         12    1    1    2    0    0  0.39953504527E+02 -0.55309528694E+01  0.51279936783E+01  0.40659196780E+02  0.00000000000E+00 0. -1.
         11    1    3    3    0    0 -0.32468306548E+02  0.10334236330E+02  0.47399440443E+01  0.34401372653E+02  0.51100000000E-03 0. -1.
        -11    1    3    3    0    0  0.99891355490E+00 -0.22904261292E+00  0.11152502907E+01  0.15146195168E+01  0.51100000000E-03 0.  1.
        -12    1    3    3    0    0 -0.84841115342E+01 -0.45742408475E+01 -0.10983188013E+02  0.14612811050E+02  0.00000000000E+00 0.  1.
</event>
<event>
 7    1  0.2500839E-011  0.5052886E+02  0.7816164E-02  0.1300439E+00
        -11   -1    0    0    0    0  0.00000000000E+00  0.00000000000E+00  0.45593999997E+02  0.45594000000E+02  0.51100000000E-03 0.  1.
         11   -1    0    0    0    0 -0.00000000000E+00 -0.00000000000E+00 -0.45593999997E+02  0.45594000000E+02  0.51100000000E-03 0. -1.
    9900012    2    1    2    0    0  0.27279793193E+00 -0.12929173536E+01  0.40637666312E+02  0.50528856167E+02  0.29999988804E+02 0.  0.
         12    1    1    2    0    0 -0.27279793193E+00  0.12929173536E+01 -0.40637666312E+02  0.40659143833E+02  0.00000000000E+00 0. -1.
         11    1    3    3    0    0  0.91469578438E+00 -0.32587875783E+01 -0.38264297949E+00  0.34062854797E+01  0.51100000000E-03 0. -1.
        -11    1    3    3    0    0  0.97631168221E+01 -0.46582577616E+01  0.17791807110E+02  0.20822252903E+02  0.51100000000E-03 0.  1.
         12    1    3    3    0    0 -0.10405014675E+02  0.66241279863E+01  0.23228502181E+02  0.26300317784E+02  0.00000000000E+00 0. -1.
</event>
<event>
 7    1  0.2500839E-011  0.5052891E+02  0.7816164E-02  0.1300439E+00
        -11   -1    0    0    0    0  0.00000000000E+00  0.00000000000E+00  0.45593999997E+02  0.45594000000E+02  0.51100000000E-03 0. -1.
         11   -1    0    0    0    0 -0.00000000000E+00 -0.00000000000E+00 -0.45593999997E+02  0.45594000000E+02  0.51100000000E-03 0.  1.
    9900012    2    1    2    0    0  0.32546993402E+01 -0.23702708350E+02 -0.32874769913E+02  0.50528905718E+02  0.30000139422E+02 0.  0.
         12    1    1    2    0    0 -0.32546993402E+01  0.23702708350E+02  0.32874769913E+02  0.40659094282E+02  0.00000000000E+00 0. -1.
         11    1    3    3    0    0  0.53532865430E+01 -0.11562558569E+02 -0.19343357558E+02  0.23162813286E+02  0.51100000000E-03 0.  1.
        -11    1    3    3    0    0  0.42317242385E+01 -0.13316967155E+02 -0.15268367141E+02  0.20697152936E+02  0.51100000000E-03 0. -1.
         12    1    3    3    0    0 -0.63303114414E+01  0.11768173735E+01  0.17369547857E+01  0.66689394961E+01  0.00000000000E+00 0. -1.
</event>
<event>
 7    1  0.2849096E-011  0.5052885E+02  0.7816164E-02  0.1300439E+00
        -11   -1    0    0    0    0  0.00000000000E+00  0.00000000000E+00  0.45593999997E+02  0.45594000000E+02  0.51100000000E-03 0. -1.
         11   -1    0    0    0    0 -0.00000000000E+00 -0.00000000000E+00 -0.45593999997E+02  0.45594000000E+02  0.51100000000E-03 0.  1.
    9900012    2    1    2    0    0 -0.25611684261E+01 -0.14102847748E+02 -0.38048868579E+02  0.50528852217E+02  0.29999976798E+02 0.  0.
         12    1    1    2    0    0  0.25611684261E+01  0.14102847748E+02  0.38048868579E+02  0.40659147783E+02  0.00000000000E+00 0. -1.
         11    1    3    3    0    0 -0.83818882303E+00  0.22230510297E+01  0.92555871852E+00  0.25497402978E+01  0.51100000000E-03 0. -1.
        -11    1    3    3    0    0 -0.77239356066E+01 -0.96611018828E+01 -0.58885892861E+01  0.13699326804E+02  0.51100000000E-03 0.  1.
        -12    1    3    3    0    0  0.60009560035E+01 -0.66647968947E+01 -0.33085838011E+02  0.34279785115E+02  0.00000000000E+00 0.  1.
</event>
<event>
 7    1  0.2500839E-011  0.5052885E+02  0.7816164E-02  0.1300439E+00
        -11   -1    0    0    0    0  0.00000000000E+00  0.00000000000E+00  0.45593999997E+02  0.45594000000E+02  0.51100000000E-03 0.  1.
         11   -1    0    0    0    0 -0.00000000000E+00 -0.00000000000E+00 -0.45593999997E+02  0.45594000000E+02  0.51100000000E-03 0. -1.
    9900012    2    1    2    0    0 -0.13567684820E+02 -0.36988986359E+01  0.38149735540E+02  0.50528852884E+02  0.29999978826E+02 0.  0.
         12    1    1    2    0    0  0.13567684820E+02  0.36988986359E+01 -0.38149735540E+02  0.40659147116E+02  0.00000000000E+00 0. -1.
         11    1    3    3    0    0 -0.35406194968E+00  0.40432192873E+01  0.58757102860E+00  0.41010025657E+01  0.51100000000E-03 0. -1.
        -11    1    3    3    0    0  0.19835681041E+01  0.35411027865E+01  0.20649797331E+02  0.21044906306E+02  0.51100000000E-03 0.  1.
         12    1    3    3    0    0 -0.15197190974E+02 -0.11283220710E+02  0.16912367180E+02  0.25382944012E+02  0.00000000000E+00 0. -1.
</event>
<event>
 7    1  0.2500839E-011  0.5052887E+02  0.7816164E-02  0.1300439E+00
        -11   -1    0    0    0    0  0.00000000000E+00  0.00000000000E+00  0.45593999997E+02  0.45594000000E+02  0.51100000000E-03 0.  1.
         11   -1    0    0    0    0 -0.00000000000E+00 -0.00000000000E+00 -0.45593999997E+02  0.45594000000E+02  0.51100000000E-03 0. -1.
    9900012    2    1    2    0    0  0.14310798439E+02  0.32647755945E+02  0.19557354973E+02  0.50528867523E+02  0.30000023324E+02 0.  0.
         12    1    1    2    0    0 -0.14310798439E+02 -0.32647755945E+02 -0.19557354973E+02  0.40659132477E+02  0.00000000000E+00 0. -1.
         11    1    3    3    0    0  0.38116086503E+01  0.14790921085E+02 -0.55035638983E+01  0.16235421857E+02  0.51100000000E-03 0. -1.
        -11    1    3    3    0    0  0.61326740237E+01  0.60057051123E+01  0.34265464196E+01  0.92422619095E+01  0.51100000000E-03 0.  1.
        -12    1    3    3    0    0  0.43665157652E+01  0.11851129748E+02  0.21634372452E+02  0.25051183757E+02  0.00000000000E+00 0.  1.
</event>
<event>
 7    1  0.2500839E-011  0.5052886E+02  0.7816164E-02  0.1300439E+00
        -11   -1    0    0    0    0  0.00000000000E+00  0.00000000000E+00  0.45593999997E+02  0.45594000000E+02  0.51100000000E-03 0. -1.
         11   -1    0    0    0    0 -0.00000000000E+00 -0.00000000000E+00 -0.45593999997E+02  0.45594000000E+02  0.51100000000E-03 0.  1.
    9900012    2    1    2    0    0 -0.36030821422E+02 -0.74577134417E+01  0.17301106356E+02  0.50528857568E+02  0.29999993065E+02 0.  0.
         12    1    1    2    0    0  0.36030821422E+02  0.74577134417E+01 -0.17301106356E+02  0.40659142432E+02  0.00000000000E+00 0. -1.
         11    1    3    3    0    0 -0.14715897605E+02 -0.92896432057E+01 -0.22833744252E+01  0.17551891984E+02  0.51100000000E-03 0.  1.
        -11    1    3    3    0    0  0.20520915371E+01 -0.19360715134E+01  0.15394777450E+01  0.32139453278E+01  0.51100000000E-03 0. -1.
         12    1    3    3    0    0 -0.23367015355E+02  0.37680012774E+01  0.18045003036E+02  0.29763020256E+02  0.00000000000E+00 0. -1.
</event>
<event>
 7    1  0.2500839E-011  0.5052885E+02  0.7816164E-02  0.1300439E+00
        -11   -1    0    0    0    0  0.00000000000E+00  0.00000000000E+00  0.45593999997E+02  0.45594000000E+02  0.51100000000E-03 0. -1.
         11   -1    0    0    0    0 -0.00000000000E+00 -0.00000000000E+00 -0.45593999997E+02  0.45594000000E+02  0.51100000000E-03 0.  1.
    9900012    2    1    2    0    0  0.26141670900E+01 -0.40030221388E+02 -0.66267680582E+01  0.50528849138E+02  0.29999967440E+02 0.  0.
         12    1    1    2    0    0 -0.26141670900E+01  0.40030221388E+02  0.66267680582E+01  0.40659150862E+02  0.00000000000E+00 0. -1.
         11    1    3    3    0    0  0.39379161869E+01 -0.12452404478E+01  0.14363758781E+01  0.43727546915E+01  0.51100000000E-03 0. -1.
        -11    1    3    3    0    0 -0.20431541372E+01 -0.16805578098E+02 -0.15488164338E+02  0.22945264628E+02  0.51100000000E-03 0.  1.
         12    1    3    3    0    0  0.71940504033E+00 -0.21979402842E+02  0.74250204018E+01  0.23210829819E+02  0.00000000000E+00 0. -1.
</event>
<event>
 7    1  0.2500839E-011  0.5052885E+02  0.7816164E-02  0.1300439E+00
        -11   -1    0    0    0    0  0.00000000000E+00  0.00000000000E+00  0.45593999997E+02  0.45594000000E+02  0.51100000000E-03 0.  1.
         11   -1    0    0    0    0 -0.00000000000E+00 -0.00000000000E+00 -0.45593999997E+02  0.45594000000E+02  0.51100000000E-03 0. -1.
    9900012    2    1    2    0    0  0.24255338227E+02  0.20676925140E+02  0.25244999385E+02  0.50528847774E+02  0.29999963295E+02 0.  0.
         12    1    1    2    0    0 -0.24255338227E+02 -0.20676925140E+02 -0.25244999385E+02  0.40659152226E+02  0.00000000000E+00 0. -1.
         11    1    3    3    0    0  0.12856378510E+02  0.41604081204E+01  0.53593123793E+01  0.14536770396E+02  0.51100000000E-03 0. -1.
        -11    1    3    3    0    0  0.26838917249E+01 -0.47599876026E+01 -0.19132750704E+00  0.54678481365E+01  0.51100000000E-03 0.  1.
        -12    1    3    3    0    0  0.87150679927E+01  0.21276504622E+02  0.20077014513E+02  0.30524229242E+02  0.00000000000E+00 0.  1.
</event>
<event>
 7    1  0.2500839E-011  0.5052886E+02  0.7816164E-02  0.1300439E+00
        -11   -1    0    0    0    0  0.00000000000E+00  0.00000000000E+00  0.45593999997E+02  0.45594000000E+02  0.51100000000E-03 0.  1.
         11   -1    0    0    0    0 -0.00000000000E+00 -0.00000000000E+00 -0.45593999997E+02  0.45594000000E+02  0.51100000000E-03 0. -1.
    9900012    2    1    2    0    0  0.32142588794E+02 -0.13474474808E+02  0.20939387160E+02  0.50528863015E+02  0.30000009619E+02 0.  0.
         12    1    1    2    0    0 -0.32142588794E+02  0.13474474808E+02 -0.20939387160E+02  0.40659136985E+02  0.00000000000E+00 0. -1.
         11    1    3    3    0    0  0.31935220263E+00 -0.52750505001E+01 -0.38062829812E+01  0.65127516459E+01  0.51100000000E-03 0. -1.
        -11    1    3    3    0    0  0.13707794532E+02 -0.14503246970E+01  0.16271750540E+01  0.13880013385E+02  0.51100000000E-03 0.  1.
        -12    1    3    3    0    0  0.18115442060E+02 -0.67490996104E+01  0.23118495087E+02  0.30136097984E+02  0.00000000000E+00 0.  1.
</event>
<event>
 7    1  0.2500839E-011  0.5052886E+02  0.7816164E-02  0.1300439E+00
        -11   -1    0    0    0    0  0.00000000000E+00  0.00000000000E+00  0.45593999997E+02  0.45594000000E+02  0.51100000000E-03 0.  1.
         11   -1    0    0    0    0 -0.00000000000E+00 -0.00000000000E+00 -0.45593999997E+02  0.45594000000E+02  0.51100000000E-03 0. -1.
    9900012    2    1    2    0    0  0.18984490505E+01  0.16062460820E+02  0.37303605964E+02  0.50528858663E+02  0.29999996391E+02 0.  0.
         12    1    1    2    0    0 -0.18984490505E+01 -0.16062460820E+02 -0.37303605964E+02  0.40659141337E+02  0.00000000000E+00 0. -1.
         11    1    3    3    0    0 -0.52183803606E-01  0.16172017830E+02  0.64020026908E+01  0.17393174597E+02  0.51100000000E-03 0. -1.
        -11    1    3    3    0    0  0.36558370595E+00  0.34982103669E+01  0.21650453198E+01  0.41301995975E+01  0.51100000000E-03 0.  1.
        -12    1    3    3    0    0  0.15850491482E+01 -0.36077673766E+01  0.28736557953E+02  0.29005484468E+02  0.00000000000E+00 0.  1.
</event>
<event>
 7    1  0.2500839E-011  0.5052886E+02  0.7816164E-02  0.1300439E+00
        -11   -1    0    0    0    0  0.00000000000E+00  0.00000000000E+00  0.45593999997E+02  0.45594000000E+02  0.51100000000E-03 0. -1.
         11   -1    0    0    0    0 -0.00000000000E+00 -0.00000000000E+00 -0.45593999997E+02  0.45594000000E+02  0.51100000000E-03 0.  1.
    9900012    2    1    2    0    0  0.32600824168E+02 -0.23073333174E+02  0.76140147962E+01  0.50528860050E+02  0.30000000607E+02 0.  0.
         12    1    1    2    0    0 -0.32600824168E+02  0.23073333174E+02 -0.76140147962E+01  0.40659139950E+02  0.00000000000E+00 0. -1.
         11    1    3    3    0    0  0.61723212891E+01 -0.79992664293E+01  0.11458708011E+02  0.15277035153E+02  0.51100000000E-03 0. -1.
        -11    1    3    3    0    0 -0.10644911300E+01  0.22751722840E+01 -0.58743585395E+00  0.25796572314E+01  0.51100000000E-03 0.  1.
        -12    1    3    3    0    0  0.27492994009E+02 -0.17349239028E+02 -0.32572573612E+01  0.32672167666E+02  0.00000000000E+00 0.  1.
</event>
<event>
 7    1  0.2500839E-011  0.5052886E+02  0.7816164E-02  0.1300439E+00
        -11   -1    0    0    0    0  0.00000000000E+00  0.00000000000E+00  0.45593999997E+02  0.45594000000E+02  0.51100000000E-03 0.  1.
         11   -1    0    0    0    0 -0.00000000000E+00 -0.00000000000E+00 -0.45593999997E+02  0.45594000000E+02  0.51100000000E-03 0. -1.
    9900012    2    1    2    0    0 -0.80534224695E+01  0.39059298172E+02  0.79170124324E+01  0.50528862368E+02  0.30000007653E+02 0.  0.
         12    1    1    2    0    0  0.80534224695E+01 -0.39059298172E+02 -0.79170124324E+01  0.40659137632E+02  0.00000000000E+00 0. -1.
         11    1    3    3    0    0  0.81446629158E+01  0.12666495133E+02 -0.11432177919E+01  0.15102403125E+02  0.51100000000E-03 0.  1.
        -11    1    3    3    0    0 -0.40096902288E+01  0.61723917667E+00  0.52895246618E+01  0.66661586646E+01  0.51100000000E-03 0. -1.
        -12    1    3    3    0    0 -0.12188395156E+02  0.25775563862E+02  0.37707055625E+01  0.28760300578E+02  0.00000000000E+00 0.  1.
</event>
<event>
 7    1  0.2500839E-011  0.5052885E+02  0.7816164E-02  0.1300439E+00
        -11   -1    0    0    0    0  0.00000000000E+00  0.00000000000E+00  0.45593999997E+02  0.45594000000E+02  0.51100000000E-03 0.  1.
         11   -1    0    0    0    0 -0.00000000000E+00 -0.00000000000E+00 -0.45593999997E+02  0.45594000000E+02  0.51100000000E-03 0. -1.
    9900012    2    1    2    0    0  0.21521335227E+02 -0.32775850611E+02  0.10758349869E+02  0.50528851643E+02  0.29999975053E+02 0.  0.
         12    1    1    2    0    0 -0.21521335227E+02  0.32775850611E+02 -0.10758349869E+02  0.40659148357E+02  0.00000000000E+00 0. -1.
         11    1    3    3    0    0  0.11056536897E+02 -0.22816248751E+02  0.14026419868E+01  0.25392826153E+02  0.51100000000E-03 0. -1.
        -11    1    3    3    0    0  0.26332232618E+01 -0.10870662789E+02  0.12386444772E+02  0.16689193766E+02  0.51100000000E-03 0.  1.
         12    1    3    3    0    0  0.78315750684E+01  0.91106092907E+00 -0.30307368899E+01  0.84468317234E+01  0.00000000000E+00 0. -1.
</event>
<event>
 7    1  0.2500839E-011  0.5052888E+02  0.7816164E-02  0.1300439E+00
        -11   -1    0    0    0    0  0.00000000000E+00  0.00000000000E+00  0.45593999997E+02  0.45594000000E+02  0.51100000000E-03 0.  1.
         11   -1    0    0    0    0 -0.00000000000E+00 -0.00000000000E+00 -0.45593999997E+02  0.45594000000E+02  0.51100000000E-03 0. -1.
    9900012    2    1    2    0    0 -0.13056157185E+02 -0.30160519761E+02  0.23938336987E+02  0.50528878386E+02  0.30000056342E+02 0.  0.
         12    1    1    2    0    0  0.13056157185E+02  0.30160519761E+02 -0.23938336987E+02  0.40659121614E+02  0.00000000000E+00 0. -1.
         11    1    3    3    0    0 -0.15159501318E+02 -0.70511907279E+01  0.64001150466E+01  0.17902269235E+02  0.51100000000E-03 0. -1.
        -11    1    3    3    0    0  0.40558165168E+00 -0.19255318272E+02  0.57361372442E+01  0.20095647513E+02  0.51100000000E-03 0.  1.
        -12    1    3    3    0    0  0.16977624813E+01 -0.38540107616E+01  0.11802084696E+02  0.12530961638E+02  0.00000000000E+00 0.  1.
</event>
<event>
 7    1  0.2500839E-011  0.5052886E+02  0.7816164E-02  0.1300439E+00
        -11   -1    0    0    0    0  0.00000000000E+00  0.00000000000E+00  0.45593999997E+02  0.45594000000E+02  0.51100000000E-03 0.  1.
         11   -1    0    0    0    0 -0.00000000000E+00 -0.00000000000E+00 -0.45593999997E+02  0.45594000000E+02  0.51100000000E-03 0. -1.
    9900012    2    1    2    0    0  0.36796869200E+02  0.16287231875E+02 -0.58208461735E+01  0.50528858897E+02  0.29999997104E+02 0.  0.
         12    1    1    2    0    0 -0.36796869200E+02 -0.16287231875E+02  0.58208461735E+01  0.40659141103E+02  0.00000000000E+00 0. -1.
         11    1    3    3    0    0  0.30620429928E+01 -0.50994319807E+01 -0.65405854541E+01  0.88407902452E+01  0.51100000000E-03 0. -1.
        -11    1    3    3    0    0  0.74725374835E+01  0.26157915172E+01  0.46294519099E+01  0.91713143524E+01  0.51100000000E-03 0.  1.
         12    1    3    3    0    0  0.26262288723E+02  0.18770872338E+02 -0.39097126293E+01  0.32516754300E+02  0.00000000000E+00 0. -1.
</event>
<event>
 7    1  0.2500839E-011  0.5052886E+02  0.7816164E-02  0.1300439E+00
        -11   -1    0    0    0    0  0.00000000000E+00  0.00000000000E+00  0.45593999997E+02  0.45594000000E+02  0.51100000000E-03 0. -1.
         11   -1    0    0    0    0 -0.00000000000E+00 -0.00000000000E+00 -0.45593999997E+02  0.45594000000E+02  0.51100000000E-03 0.  1.
    9900012    2    1    2    0    0  0.19434536337E+00  0.23797755904E+02 -0.32966565261E+02  0.50528863496E+02  0.30000011082E+02 0.  0.
         12    1    1    2    0    0 -0.19434536337E+00 -0.23797755904E+02  0.32966565261E+02  0.40659136504E+02  0.00000000000E+00 0. -1.
         11    1    3    3    0    0  0.68461301889E+01 -0.43593422274E+00 -0.71769394645E+01  0.99281416966E+01  0.51100000000E-03 0. -1.
        -11    1    3    3    0    0  0.39626960165E+01  0.11264414807E+02 -0.19163087496E+02  0.22579059399E+02  0.51100000000E-03 0.  1.
        -12    1    3    3    0    0 -0.10614480842E+02  0.12969275319E+02 -0.66265383000E+01  0.18021662401E+02  0.00000000000E+00 0.  1.
</event>
<event>
 7    1  0.2500839E-011  0.5052874E+02  0.7816164E-02  0.1300439E+00
        -11   -1    0    0    0    0  0.00000000000E+00  0.00000000000E+00  0.45593999997E+02  0.45594000000E+02  0.51100000000E-03 0.  1.
         11   -1    0    0    0    0 -0.00000000000E+00 -0.00000000000E+00 -0.45593999997E+02  0.45594000000E+02  0.51100000000E-03 0. -1.
    9900012    2    1    2    0    0  0.10082455855E+02  0.32478415951E+02  0.22286133195E+02  0.50528743347E+02  0.29999645876E+02 0.  0.
         12    1    1    2    0    0 -0.10082455855E+02 -0.32478415951E+02 -0.22286133195E+02  0.40659256653E+02  0.00000000000E+00 0. -1.
         11    1    3    3    0    0  0.15659301755E+02  0.33962697127E+02  0.22510924913E+02  0.43651119897E+02  0.51100000000E-03 0. -1.
        -11    1    3    3    0    0 -0.76679638154E+00 -0.12781025135E+00  0.14178141253E+01  0.16169444351E+01  0.51100000000E-03 0.  1.
         12    1    3    3    0    0 -0.48100495184E+01 -0.13564709244E+01 -0.16426058437E+01  0.52606790147E+01  0.00000000000E+00 0. -1.
</event>
<event>
 7    1  0.2500839E-011  0.5052887E+02  0.7816164E-02  0.1300439E+00
        -11   -1    0    0    0    0  0.00000000000E+00  0.00000000000E+00  0.45593999997E+02  0.45594000000E+02  0.51100000000E-03 0.  1.
         11   -1    0    0    0    0 -0.00000000000E+00 -0.00000000000E+00 -0.45593999997E+02  0.45594000000E+02  0.51100000000E-03 0. -1.
    9900012    2    1    2    0    0 -0.29339602209E+02  0.79219385138E+01  0.27011020125E+02  0.50528873401E+02  0.30000041191E+02 0.  0.
         12    1    1    2    0    0  0.29339602209E+02 -0.79219385138E+01 -0.27011020125E+02  0.40659126599E+02  0.00000000000E+00 0. -1.
         11    1    3    3    0    0 -0.14388164578E+01  0.93894114782E+00  0.14558657077E+02  0.14659682787E+02  0.51100000000E-03 0.  1.
        -11    1    3    3    0    0 -0.71237529979E+01  0.98941432720E+01  0.17491156647E+01  0.12316709533E+02  0.51100000000E-03 0. -1.
        -12    1    3    3    0    0 -0.20777032753E+02 -0.29111459061E+01  0.10703247383E+02  0.23552481081E+02  0.00000000000E+00 0.  1.
</event>
<event>
 7    1  0.2500839E-011  0.5052886E+02  0.7816164E-02  0.1300439E+00
        -11   -1    0    0    0    0  0.00000000000E+00  0.00000000000E+00  0.45593999997E+02  0.45594000000E+02  0.51100000000E-03 0.  1.
         11   -1    0    0    0    0 -0.00000000000E+00 -0.00000000000E+00 -0.45593999997E+02  0.45594000000E+02  0.51100000000E-03 0. -1.
    9900012    2    1    2    0    0 -0.16332217997E+02  0.25997194478E+02  0.26656520709E+02  0.50528861276E+02  0.30000004335E+02 0.  0.
         12    1    1    2    0    0  0.16332217997E+02 -0.25997194478E+02 -0.26656520709E+02  0.40659138724E+02  0.00000000000E+00 0. -1.
         11    1    3    3    0    0 -0.76844685565E+01 -0.42526634820E+00 -0.11538834608E+01  0.77822461902E+01  0.51100000000E-03 0. -1.
        -11    1    3    3    0    0 -0.69517294509E+01  0.32366844391E+01  0.13269643608E+02  0.15325994593E+02  0.51100000000E-03 0.  1.
        -12    1    3    3    0    0 -0.16960199899E+01  0.23185776387E+02  0.14540760562E+02  0.27420620493E+02  0.00000000000E+00 0.  1.
</event>
<event>
 7    1  0.2500839E-011  0.5052885E+02  0.7816164E-02  0.1300439E+00
        -11   -1    0    0    0    0  0.00000000000E+00  0.00000000000E+00  0.45593999997E+02  0.45594000000E+02  0.51100000000E-03 0. -1.
         11   -1    0    0    0    0 -0.00000000000E+00 -0.00000000000E+00 -0.45593999997E+02  0.45594000000E+02  0.51100000000E-03 0.  1.
    9900012    2    1    2    0    0 -0.39292471857E+02 -0.54556719771E+01 -0.89164821946E+01  0.50528851508E+02  0.29999974644E+02 0.  0.
         12    1    1    2    0    0  0.39292471857E+02  0.54556719771E+01  0.89164821946E+01  0.40659148492E+02  0.00000000000E+00 0. -1.
         11    1    3    3    0    0 -0.39159795564E+02  0.12232281901E+01 -0.48994222496E+01  0.39484050127E+02  0.51100000000E-03 0. -1.
        -11    1    3    3    0    0 -0.14727426603E+01 -0.25864782618E+01 -0.56928605264E+01  0.64239786718E+01  0.51100000000E-03 0.  1.
        -12    1    3    3    0    0  0.13400663671E+01 -0.40924219055E+01  0.16758005814E+01  0.46208227091E+01  0.00000000000E+00 0.  1.
</event>
<event>
 7    1  0.2500839E-011  0.5052886E+02  0.7816164E-02  0.1300439E+00
        -11   -1    0    0    0    0  0.00000000000E+00  0.00000000000E+00  0.45593999997E+02  0.45594000000E+02  0.51100000000E-03 0.  1.
         11   -1    0    0    0    0 -0.00000000000E+00 -0.00000000000E+00 -0.45593999997E+02  0.45594000000E+02  0.51100000000E-03 0. -1.
    9900012    2    1    2    0    0  0.18454508101E+02  0.32908992424E+02 -0.15152397724E+02  0.50528858243E+02  0.29999995116E+02 0.  0.
         12    1    1    2    0    0 -0.18454508101E+02 -0.32908992424E+02  0.15152397724E+02  0.40659141757E+02  0.00000000000E+00 0. -1.
         11    1    3    3    0    0 -0.18619588217E+01  0.77214794531E+01 -0.15922994793E+02  0.17794097309E+02  0.51100000000E-03 0. -1.
        -11    1    3    3    0    0  0.31217880771E+01  0.68238384611E+01 -0.68720222093E+00  0.75354216402E+01  0.51100000000E-03 0.  1.
         12    1    3    3    0    0  0.17194678846E+02  0.18363674510E+02  0.14577992896E+01  0.25199339294E+02  0.00000000000E+00 0. -1.
</event>
<event>
 7    1  0.2500839E-011  0.5052885E+02  0.7816164E-02  0.1300439E+00
        -11   -1    0    0    0    0  0.00000000000E+00  0.00000000000E+00  0.45593999997E+02  0.45594000000E+02  0.51100000000E-03 0. -1.
         11   -1    0    0    0    0 -0.00000000000E+00 -0.00000000000E+00 -0.45593999997E+02  0.45594000000E+02  0.51100000000E-03 0.  1.
    9900012    2    1    2    0    0 -0.11630031304E+02  0.28958431302E+02 -0.26063726839E+02  0.50528853079E+02  0.29999979418E+02 0.  0.
         12    1    1    2    0    0  0.11630031304E+02 -0.28958431302E+02  0.26063726839E+02  0.40659146921E+02  0.00000000000E+00 0. -1.
         11    1    3    3    0    0 -0.14804505847E+01 -0.18709914169E+01 -0.27532328448E+01  0.36431626610E+01  0.51100000000E-03 0. -1.
        -11    1    3    3    0    0  0.80824286049E+01  0.97248865378E+01 -0.54635897913E+01  0.13774973103E+02  0.51100000000E-03 0.  1.
         12    1    3    3    0    0 -0.18232009324E+02  0.21104536181E+02 -0.17846904203E+02  0.33110717314E+02  0.00000000000E+00 0. -1.
</event>
<event>
 7    1  0.2500839E-011  0.5052886E+02  0.7816164E-02  0.1300439E+00
        -11   -1    0    0    0    0  0.00000000000E+00  0.00000000000E+00  0.45593999997E+02  0.45594000000E+02  0.51100000000E-03 0. -1.
         11   -1    0    0    0    0 -0.00000000000E+00 -0.00000000000E+00 -0.45593999997E+02  0.45594000000E+02  0.51100000000E-03 0.  1.
    9900012    2    1    2    0    0  0.33275883349E+01 -0.23359426766E+02 -0.33112382630E+02  0.50528861465E+02  0.30000004909E+02 0.  0.
         12    1    1    2    0    0 -0.33275883349E+01  0.23359426766E+02  0.33112382630E+02  0.40659138535E+02  0.00000000000E+00 0. -1.
         11    1    3    3    0    0  0.64690956808E+01 -0.20106889955E+01 -0.42921559789E+01  0.80196429081E+01  0.51100000000E-03 0.  1.
        -11    1    3    3    0    0  0.57075330920E+01  0.13612872464E+01 -0.10464182874E+02  0.11997006311E+02  0.51100000000E-03 0. -1.
        -12    1    3    3    0    0 -0.88490404379E+01 -0.22710025017E+02 -0.18356043777E+02  0.30512212245E+02  0.00000000000E+00 0.  1.
</event>
<event>
 7    1  0.2500839E-011  0.5052886E+02  0.7816164E-02  0.1300439E+00
        -11   -1    0    0    0    0  0.00000000000E+00  0.00000000000E+00  0.45593999997E+02  0.45594000000E+02  0.51100000000E-03 0. -1.
         11   -1    0    0    0    0 -0.00000000000E+00 -0.00000000000E+00 -0.45593999997E+02  0.45594000000E+02  0.51100000000E-03 0.  1.
    9900012    2    1    2    0    0 -0.10588219291E+02 -0.32696443165E+02  0.21725517738E+02  0.50528857063E+02  0.29999991529E+02 0.  0.
         12    1    1    2    0    0  0.10588219291E+02  0.32696443165E+02 -0.21725517738E+02  0.40659142937E+02  0.00000000000E+00 0. -1.
         11    1    3    3    0    0 -0.11314251521E+02 -0.86630117944E+01  0.16406994542E+02  0.21731303021E+02  0.51100000000E-03 0. -1.
        -11    1    3    3    0    0  0.77303305036E+01 -0.14107221087E+02  0.40098237617E+01  0.16578612226E+02  0.51100000000E-03 0.  1.
        -12    1    3    3    0    0 -0.70042982735E+01 -0.99262102833E+01  0.13086994344E+01  0.12218941816E+02  0.00000000000E+00 0.  1.
</event>
<event>
 7    1  0.2500839E-011  0.5052885E+02  0.7816164E-02  0.1300439E+00
        -11   -1    0    0    0    0  0.00000000000E+00  0.00000000000E+00  0.45593999997E+02  0.45594000000E+02  0.51100000000E-03 0.  1.
         11   -1    0    0    0    0 -0.00000000000E+00 -0.00000000000E+00 -0.45593999997E+02  0.45594000000E+02  0.51100000000E-03 0. -1.
    9900012    2    1    2    0    0 -0.28508203787E+02 -0.15450973286E+02  0.24529906663E+02  0.50528848760E+02  0.29999966289E+02 0.  0.
         12    1    1    2    0    0  0.28508203787E+02  0.15450973286E+02 -0.24529906663E+02  0.40659151240E+02  0.00000000000E+00 0. -1.
         11    1    3    3    0    0 -0.95477662153E+01 -0.69714477008E+01 -0.15871710581E+01  0.11928119507E+02  0.51100000000E-03 0. -1.
        -11    1    3    3    0    0 -0.13754154526E+02 -0.14470021124E+02  0.21822227701E+02  0.29576475452E+02  0.51100000000E-03 0.  1.
         12    1    3    3    0    0 -0.52062830465E+01  0.59904955387E+01  0.42948500202E+01  0.90242538005E+01  0.00000000000E+00 0. -1.
</event>
<event>
 7    1  0.2500839E-011  0.5052886E+02  0.7816164E-02  0.1300439E+00
        -11   -1    0    0    0    0  0.00000000000E+00  0.00000000000E+00  0.45593999997E+02  0.45594000000E+02  0.51100000000E-03 0.  1.
         11   -1    0    0    0    0 -0.00000000000E+00 -0.00000000000E+00 -0.45593999997E+02  0.45594000000E+02  0.51100000000E-03 0. -1.
    9900012    2    1    2    0    0  0.30256758891E+02 -0.26551918449E+02  0.57175135417E+01  0.50528858432E+02  0.29999995691E+02 0.  0.
         12    1    1    2    0    0 -0.30256758891E+02  0.26551918449E+02 -0.57175135417E+01  0.40659141568E+02  0.00000000000E+00 0. -1.
         11    1    3    3    0    0  0.12882769879E+01  0.12239110786E+01 -0.17860094249E+01  0.25194137914E+01  0.51100000000E-03 0. -1.
        -11    1    3    3    0    0  0.23760214796E+02 -0.20477951071E+02 -0.58670585822E+01  0.31911074314E+02  0.51100000000E-03 0.  1.
        -12    1    3    3    0    0  0.52082671074E+01 -0.72978784567E+01  0.13370581549E+02  0.16098370327E+02  0.00000000000E+00 0.  1.
</event>
<event>
 7    1  0.2500839E-011  0.5052887E+02  0.7816164E-02  0.1300439E+00
        -11   -1    0    0    0    0  0.00000000000E+00  0.00000000000E+00  0.45593999997E+02  0.45594000000E+02  0.51100000000E-03 0. -1.
         11   -1    0    0    0    0 -0.00000000000E+00 -0.00000000000E+00 -0.45593999997E+02  0.45594000000E+02  0.51100000000E-03 0.  1.
    9900012    2    1    2    0    0  0.19111858866E+02 -0.32354855277E+02 -0.15526272759E+02  0.50528868737E+02  0.30000027012E+02 0.  0.
         12    1    1    2    0    0 -0.19111858866E+02  0.32354855277E+02  0.15526272759E+02  0.40659131263E+02  0.00000000000E+00 0. -1.
         11    1    3    3    0    0  0.11962987376E+02 -0.15044443037E+02  0.54750297597E+01  0.19985601927E+02  0.51100000000E-03 0. -1.
        -11    1    3    3    0    0  0.21827132806E+01 -0.19315428449E+01  0.11415074589E+01  0.31301972089E+01  0.51100000000E-03 0.  1.
        -12    1    3    3    0    0  0.49661582096E+01 -0.15378869396E+02 -0.22142809978E+02  0.27413069601E+02  0.00000000000E+00 0.  1.
</event>
<event>
 7    1  0.2500839E-011  0.5052891E+02  0.7816164E-02  0.1300439E+00
        -11   -1    0    0    0    0  0.00000000000E+00  0.00000000000E+00  0.45593999997E+02  0.45594000000E+02  0.51100000000E-03 0. -1.
         11   -1    0    0    0    0 -0.00000000000E+00 -0.00000000000E+00 -0.45593999997E+02  0.45594000000E+02  0.51100000000E-03 0.  1.
    9900012    2    1    2    0    0  0.13907346946E+02  0.20031312017E+02 -0.32534499620E+02  0.50528912138E+02  0.30000158936E+02 0.  0.
         12    1    1    2    0    0 -0.13907346946E+02 -0.20031312017E+02  0.32534499620E+02  0.40659087862E+02  0.00000000000E+00 0. -1.
         11    1    3    3    0    0 -0.54023008108E+01  0.24300885909E+01 -0.74147219089E+01  0.94904312788E+01  0.51100000000E-03 0. -1.
        -11    1    3    3    0    0  0.13376814001E+02 -0.51486136008E+00 -0.10098259034E+02  0.16768394998E+02  0.51100000000E-03 0.  1.
         12    1    3    3    0    0  0.59328337561E+01  0.18116084787E+02 -0.15021518677E+02  0.24270085862E+02  0.00000000000E+00 0. -1.
</event>
<event>
 7    1  0.2500839E-011  0.5052886E+02  0.7816164E-02  0.1300439E+00
        -11   -1    0    0    0    0  0.00000000000E+00  0.00000000000E+00  0.45593999997E+02  0.45594000000E+02  0.51100000000E-03 0. -1.
         11   -1    0    0    0    0 -0.00000000000E+00 -0.00000000000E+00 -0.45593999997E+02  0.45594000000E+02  0.51100000000E-03 0.  1.
    9900012    2    1    2    0    0 -0.17324773256E+01  0.57277237398E+01 -0.40216383792E+02  0.50528858074E+02  0.29999994600E+02 0.  0.
         12    1    1    2    0    0  0.17324773256E+01 -0.57277237398E+01  0.40216383792E+02  0.40659141926E+02  0.00000000000E+00 0. -1.
         11    1    3    3    0    0  0.70896403079E+01 -0.56219948978E+01 -0.13008169909E+02  0.15845577016E+02  0.51100000000E-03 0. -1.
        -11    1    3    3    0    0  0.18901339312E+01 -0.12158575297E+00 -0.14121319522E+02  0.14247773674E+02  0.51100000000E-03 0.  1.
         12    1    3    3    0    0 -0.10712251565E+02  0.11471304391E+02 -0.13086894361E+02  0.20435507384E+02  0.00000000000E+00 0. -1.
</event>
<event>
 7    1  0.2500839E-011  0.5052888E+02  0.7816164E-02  0.1300439E+00
        -11   -1    0    0    0    0  0.00000000000E+00  0.00000000000E+00  0.45593999997E+02  0.45594000000E+02  0.51100000000E-03 0.  1.
         11   -1    0    0    0    0 -0.00000000000E+00 -0.00000000000E+00 -0.45593999997E+02  0.45594000000E+02  0.51100000000E-03 0. -1.
    9900012    2    1    2    0    0  0.34535488193E+02 -0.18295443290E+02 -0.11213430150E+02  0.50528877953E+02  0.30000055026E+02 0.  0.
         12    1    1    2    0    0 -0.34535488193E+02  0.18295443290E+02  0.11213430150E+02  0.40659122047E+02  0.00000000000E+00 0. -1.
         11    1    3    3    0    0  0.71119220584E+01 -0.20240141100E+00 -0.98210418707E+01  0.12127376690E+02  0.51100000000E-03 0.  1.
        -11    1    3    3    0    0  0.78997604357E+01 -0.11962473943E+02 -0.85862003164E+01  0.16710171571E+02  0.51100000000E-03 0. -1.
        -12    1    3    3    0    0  0.19523805699E+02 -0.61305679356E+01  0.71938120374E+01  0.21691329692E+02  0.00000000000E+00 0.  1.
</event>
<event>
 7    1  0.2500839E-011  0.5052883E+02  0.7816164E-02  0.1300439E+00
        -11   -1    0    0    0    0  0.00000000000E+00  0.00000000000E+00  0.45593999997E+02  0.45594000000E+02  0.51100000000E-03 0.  1.
         11   -1    0    0    0    0 -0.00000000000E+00 -0.00000000000E+00 -0.45593999997E+02  0.45594000000E+02  0.51100000000E-03 0. -1.
    9900012    2    1    2    0    0  0.38664899908E+00 -0.30358170186E+01  0.40543835658E+02  0.50528827698E+02  0.29999902271E+02 0.  0.
         12    1    1    2    0    0 -0.38664899908E+00  0.30358170186E+01 -0.40543835658E+02  0.40659172302E+02  0.00000000000E+00 0. -1.
         11    1    3    3    0    0  0.26501530793E+00  0.69382409431E+01  0.16631270698E+02  0.18022446720E+02  0.51100000000E-03 0. -1.
        -11    1    3    3    0    0 -0.21119013000E+01 -0.97152274480E+01  0.26951076541E+02  0.28726404203E+02  0.51100000000E-03 0.  1.
         12    1    3    3    0    0  0.22335349912E+01 -0.25883051362E+00 -0.30385115807E+01  0.37799767747E+01  0.00000000000E+00 0. -1.
</event>
<event>
 7    1  0.2500839E-011  0.5052886E+02  0.7816164E-02  0.1300439E+00
        -11   -1    0    0    0    0  0.00000000000E+00  0.00000000000E+00  0.45593999997E+02  0.45594000000E+02  0.51100000000E-03 0.  1.
         11   -1    0    0    0    0 -0.00000000000E+00 -0.00000000000E+00 -0.45593999997E+02  0.45594000000E+02  0.51100000000E-03 0. -1.
    9900012    2    1    2    0    0  0.31669110278E+02  0.25170157850E+02  0.40860832024E+01  0.50528862430E+02  0.30000007842E+02 0.  0.
         12    1    1    2    0    0 -0.31669110278E+02 -0.25170157850E+02 -0.40860832024E+01  0.40659137570E+02  0.00000000000E+00 0. -1.
         11    1    3    3    0    0  0.17498177243E+02  0.27178446470E+02 -0.12781835848E+01  0.32349465419E+02  0.51100000000E-03 0.  1.
        -11    1    3    3    0    0 -0.61191493214E+00  0.31075841721E+00 -0.15502947318E+01  0.16954128390E+01  0.51100000000E-03 0. -1.
         12    1    3    3    0    0  0.14782847967E+02 -0.23190470374E+01  0.69145615190E+01  0.16483984172E+02  0.00000000000E+00 0. -1.
</event>
<event>
 7    1  0.2500839E-011  0.5052886E+02  0.7816164E-02  0.1300439E+00
        -11   -1    0    0    0    0  0.00000000000E+00  0.00000000000E+00  0.45593999997E+02  0.45594000000E+02  0.51100000000E-03 0.  1.
         11   -1    0    0    0    0 -0.00000000000E+00 -0.00000000000E+00 -0.45593999997E+02  0.45594000000E+02  0.51100000000E-03 0. -1.
    9900012    2    1    2    0    0  0.46151738494E+01 -0.40396265946E+02  0.87510603620E-01  0.50528858467E+02  0.29999995798E+02 0.  0.
         12    1    1    2    0    0 -0.46151738494E+01  0.40396265946E+02 -0.87510603620E-01  0.40659141533E+02  0.00000000000E+00 0. -1.
         11    1    3    3    0    0 -0.43207440697E+00 -0.75550006264E+01 -0.49468221144E+01  0.90407838183E+01  0.51100000000E-03 0. -1.
        -11    1    3    3    0    0 -0.75568436905E+01 -0.20501619138E+01  0.19849382395E+01  0.80776872006E+01  0.51100000000E-03 0.  1.
         12    1    3    3    0    0  0.12604091947E+02 -0.30791103406E+02  0.30493944785E+01  0.33410387448E+02  0.00000000000E+00 0. -1.
</event>
<event>
 7    1  0.2500839E-011  0.5052886E+02  0.7816164E-02  0.1300439E+00
        -11   -1    0    0    0    0  0.00000000000E+00  0.00000000000E+00  0.45593999997E+02  0.45594000000E+02  0.51100000000E-03 0. -1.
         11   -1    0    0    0    0 -0.00000000000E+00 -0.00000000000E+00 -0.45593999997E+02  0.45594000000E+02  0.51100000000E-03 0.  1.
    9900012    2    1    2    0    0 -0.39293420960E+02  0.25042122093E+01  0.10145029098E+02  0.50528860499E+02  0.30000001974E+02 0.  0.
         12    1    1    2    0    0  0.39293420960E+02 -0.25042122093E+01 -0.10145029098E+02  0.40659139501E+02  0.00000000000E+00 0. -1.
         11    1    3    3    0    0 -0.10733715807E+02 -0.43090706242E+01  0.93319964139E+01  0.14861591503E+02  0.51100000000E-03 0. -1.
        -11    1    3    3    0    0 -0.61673451373E+01  0.72020712253E+01  0.77237258998E+01  0.12229551014E+02  0.51100000000E-03 0.  1.
        -12    1    3    3    0    0 -0.22392360016E+02 -0.38878839178E+00 -0.69106932159E+01  0.23437717982E+02  0.00000000000E+00 0.  1.
</event>
<event>
 7    1  0.2500839E-011  0.5052880E+02  0.7816164E-02  0.1300439E+00
        -11   -1    0    0    0    0  0.00000000000E+00  0.00000000000E+00  0.45593999997E+02  0.45594000000E+02  0.51100000000E-03 0.  1.
         11   -1    0    0    0    0 -0.00000000000E+00 -0.00000000000E+00 -0.45593999997E+02  0.45594000000E+02  0.51100000000E-03 0. -1.
    9900012    2    1    2    0    0  0.12338019746E+02  0.38625171694E+02  0.30065941574E+01  0.50528803893E+02  0.29999829912E+02 0.  0.
         12    1    1    2    0    0 -0.12338019746E+02 -0.38625171694E+02 -0.30065941574E+01  0.40659196107E+02  0.00000000000E+00 0. -1.
         11    1    3    3    0    0  0.82918691555E+01  0.18902863501E+02 -0.80994665434E+01  0.22173738999E+02  0.51100000000E-03 0. -1.
        -11    1    3    3    0    0 -0.23284269235E+01  0.17431396942E+02  0.12321545673E+02  0.21473138088E+02  0.51100000000E-03 0.  1.
         12    1    3    3    0    0  0.63745775143E+01  0.22909112504E+01 -0.12154849723E+01  0.68819268058E+01  0.00000000000E+00 0. -1.
</event>
<event>
 7    1  0.2500839E-011  0.5052886E+02  0.7816164E-02  0.1300439E+00
        -11   -1    0    0    0    0  0.00000000000E+00  0.00000000000E+00  0.45593999997E+02  0.45594000000E+02  0.51100000000E-03 0. -1.
         11   -1    0    0    0    0 -0.00000000000E+00 -0.00000000000E+00 -0.45593999997E+02  0.45594000000E+02  0.51100000000E-03 0.  1.
    9900012    2    1    2    0    0  0.31532328574E+01  0.52522059650E+01 -0.40194990299E+02  0.50528858468E+02  0.29999995800E+02 0.  0.
         12    1    1    2    0    0 -0.31532328574E+01 -0.52522059650E+01  0.40194990299E+02  0.40659141532E+02  0.00000000000E+00 0. -1.
         11    1    3    3    0    0  0.14860011004E+02 -0.95906896943E+00 -0.23233444987E+02  0.27595882058E+02  0.51100000000E-03 0. -1.
        -11    1    3    3    0    0 -0.14558380158E+01  0.19225005833E+01 -0.88571011131E+01  0.91795268510E+01  0.51100000000E-03 0.  1.
         12    1    3    3    0    0 -0.10250940131E+02  0.42887743511E+01 -0.81044441992E+01  0.13753449559E+02  0.00000000000E+00 0. -1.
</event>
<event>
 7    1  0.2500839E-011  0.5052886E+02  0.7816164E-02  0.1300439E+00
        -11   -1    0    0    0    0  0.00000000000E+00  0.00000000000E+00  0.45593999997E+02  0.45594000000E+02  0.51100000000E-03 0.  1.
         11   -1    0    0    0    0 -0.00000000000E+00 -0.00000000000E+00 -0.45593999997E+02  0.45594000000E+02  0.51100000000E-03 0. -1.
    9900012    2    1    2    0    0 -0.39021560071E+02  0.19261995481E+01  0.11259375397E+02  0.50528856755E+02  0.29999990594E+02 0.  0.
         12    1    1    2    0    0  0.39021560071E+02 -0.19261995481E+01 -0.11259375397E+02  0.40659143245E+02  0.00000000000E+00 0. -1.
         11    1    3    3    0    0 -0.15452884984E+02 -0.10115728380E+01  0.73226438220E+01  0.17129975095E+02  0.51100000000E-03 0. -1.
        -11    1    3    3    0    0 -0.42255717062E+01  0.29580495121E+01  0.11520284363E+02  0.12622300314E+02  0.51100000000E-03 0.  1.
         12    1    3    3    0    0 -0.19343103380E+02 -0.20277126032E-01 -0.75835527879E+01  0.20776581346E+02  0.00000000000E+00 0. -1.
</event>
<event>
 7    1  0.2500839E-011  0.5052881E+02  0.7816164E-02  0.1300439E+00
        -11   -1    0    0    0    0  0.00000000000E+00  0.00000000000E+00  0.45593999997E+02  0.45594000000E+02  0.51100000000E-03 0. -1.
         11   -1    0    0    0    0 -0.00000000000E+00 -0.00000000000E+00 -0.45593999997E+02  0.45594000000E+02  0.51100000000E-03 0.  1.
    9900012    2    1    2    0    0 -0.14438040055E+02  0.69712591109E+01 -0.37364608490E+02  0.50528813807E+02  0.29999860048E+02 0.  0.
         12    1    1    2    0    0  0.14438040055E+02 -0.69712591109E+01  0.37364608490E+02  0.40659186193E+02  0.00000000000E+00 0. -1.
         11    1    3    3    0    0  0.66502204629E+00 -0.64540207374E+01 -0.16953957707E+02  0.18153052641E+02  0.51100000000E-03 0. -1.
        -11    1    3    3    0    0 -0.18098226596E+01 -0.32968545820E+01 -0.33607824270E+01  0.50437651587E+01  0.51100000000E-03 0.  1.
         12    1    3    3    0    0 -0.13293239442E+02  0.16722134430E+02 -0.17049868357E+02  0.27331996007E+02  0.00000000000E+00 0. -1.
</event>
<event>
 7    1  0.2500839E-011  0.5052885E+02  0.7816164E-02  0.1300439E+00
        -11   -1    0    0    0    0  0.00000000000E+00  0.00000000000E+00  0.45593999997E+02  0.45594000000E+02  0.51100000000E-03 0.  1.
         11   -1    0    0    0    0 -0.00000000000E+00 -0.00000000000E+00 -0.45593999997E+02  0.45594000000E+02  0.51100000000E-03 0. -1.
    9900012    2    1    2    0    0  0.91466130817E+01 -0.30527280461E+02  0.25250558683E+02  0.50528854694E+02  0.29999984328E+02 0.  0.
         12    1    1    2    0    0 -0.91466130817E+01  0.30527280461E+02 -0.25250558683E+02  0.40659145306E+02  0.00000000000E+00 0. -1.
         11    1    3    3    0    0  0.72567670578E+01 -0.17468682195E+01  0.22955586966E+01  0.78090848823E+01  0.51100000000E-03 0. -1.
        -11    1    3    3    0    0 -0.24214830336E+01  0.15857811205E+01  0.81775431513E+01  0.86747042657E+01  0.51100000000E-03 0.  1.
        -12    1    3    3    0    0  0.43113290575E+01 -0.30366193362E+02  0.14777456835E+02  0.34045065546E+02  0.00000000000E+00 0.  1.
</event>
<event>
 7    1  0.2500839E-011  0.5052895E+02  0.7816164E-02  0.1300438E+00
        -11   -1    0    0    0    0  0.00000000000E+00  0.00000000000E+00  0.45593999997E+02  0.45594000000E+02  0.51100000000E-03 0.  1.
         11   -1    0    0    0    0 -0.00000000000E+00 -0.00000000000E+00 -0.45593999997E+02  0.45594000000E+02  0.51100000000E-03 0. -1.
    9900012    2    1    2    0    0 -0.15554421505E+02  0.22962096497E+02  0.29731467437E+02  0.50528953530E+02  0.30000284748E+02 0.  0.
         12    1    1    2    0    0  0.15554421505E+02 -0.22962096497E+02 -0.29731467437E+02  0.40659046470E+02  0.00000000000E+00 0. -1.
         11    1    3    3    0    0  0.19919902215E+01  0.16175210116E+01  0.53053478320E+01  0.58933110511E+01  0.51100000000E-03 0. -1.
        -11    1    3    3    0    0 -0.19792894043E+02  0.17413086249E+02  0.28300138647E+02  0.38676505465E+02  0.51100000000E-03 0.  1.
         12    1    3    3    0    0  0.22464823172E+01  0.39314892361E+01 -0.38740190410E+01  0.59591370135E+01  0.00000000000E+00 0. -1.
</event>
<event>
 7    1  0.2500839E-011  0.5052886E+02  0.7816164E-02  0.1300439E+00
        -11   -1    0    0    0    0  0.00000000000E+00  0.00000000000E+00  0.45593999997E+02  0.45594000000E+02  0.51100000000E-03 0. -1.
         11   -1    0    0    0    0 -0.00000000000E+00 -0.00000000000E+00 -0.45593999997E+02  0.45594000000E+02  0.51100000000E-03 0.  1.
    9900012    2    1    2    0    0 -0.11832643810E+02  0.36101621721E+02 -0.14485410529E+02  0.50528859962E+02  0.30000000341E+02 0.  0.
         12    1    1    2    0    0  0.11832643810E+02 -0.36101621721E+02  0.14485410529E+02  0.40659140038E+02  0.00000000000E+00 0. -1.
         11    1    3    3    0    0  0.52933102428E+01  0.16975561146E+02 -0.18770429034E+01  0.17880494956E+02  0.51100000000E-03 0. -1.
        -11    1    3    3    0    0 -0.13469987490E+02  0.12416640546E+02 -0.49494300763E+00  0.18326442488E+02  0.51100000000E-03 0.  1.
        -12    1    3    3    0    0 -0.36559665633E+01  0.67094200292E+01 -0.12113424618E+02  0.14321922518E+02  0.00000000000E+00 0.  1.
</event>
<event>
 7    1  0.2500839E-011  0.5052886E+02  0.7816164E-02  0.1300439E+00
        -11   -1    0    0    0    0  0.00000000000E+00  0.00000000000E+00  0.45593999997E+02  0.45594000000E+02  0.51100000000E-03 0.  1.
         11   -1    0    0    0    0 -0.00000000000E+00 -0.00000000000E+00 -0.45593999997E+02  0.45594000000E+02  0.51100000000E-03 0. -1.
    9900012    2    1    2    0    0  0.86979380271E+01  0.63689724187E+01  0.39203921016E+02  0.50528863774E+02  0.30000011928E+02 0.  0.
         12    1    1    2    0    0 -0.86979380271E+01 -0.63689724187E+01 -0.39203921016E+02  0.40659136226E+02  0.00000000000E+00 0. -1.
         11    1    3    3    0    0 -0.36617938606E+01  0.29214074617E+01  0.14198629374E+02  0.14951402349E+02  0.51100000000E-03 0. -1.
        -11    1    3    3    0    0  0.16365097220E+02  0.78215333443E+01  0.23053922148E+02  0.29333873211E+02  0.51100000000E-03 0.  1.
         12    1    3    3    0    0 -0.40053653319E+01 -0.43739683872E+01  0.19513694940E+01  0.62435882148E+01  0.00000000000E+00 0. -1.
</event>
<event>
 7    1  0.2500839E-011  0.5052887E+02  0.7816164E-02  0.1300439E+00
        -11   -1    0    0    0    0  0.00000000000E+00  0.00000000000E+00  0.45593999997E+02  0.45594000000E+02  0.51100000000E-03 0.  1.
         11   -1    0    0    0    0 -0.00000000000E+00 -0.00000000000E+00 -0.45593999997E+02  0.45594000000E+02  0.51100000000E-03 0. -1.
    9900012    2    1    2    0    0 -0.15769070872E+02 -0.11130443490E+02  0.35785676510E+02  0.50528868040E+02  0.30000024896E+02 0.  0.
         12    1    1    2    0    0  0.15769070872E+02  0.11130443490E+02 -0.35785676510E+02  0.40659131960E+02  0.00000000000E+00 0. -1.
         11    1    3    3    0    0 -0.40763468194E+00  0.53797716011E+01  0.10194428638E+02  0.11534057570E+02  0.51100000000E-03 0. -1.
        -11    1    3    3    0    0 -0.61964776267E+01 -0.44155963636E+01 -0.16743254461E+01  0.77908402746E+01  0.51100000000E-03 0.  1.
        -12    1    3    3    0    0 -0.91649585637E+01 -0.12094618727E+02  0.27265573318E+02  0.31203970196E+02  0.00000000000E+00 0.  1.
</event>
<event>
 7    1  0.2500839E-011  0.5052886E+02  0.7816164E-02  0.1300439E+00
        -11   -1    0    0    0    0  0.00000000000E+00  0.00000000000E+00  0.45593999997E+02  0.45594000000E+02  0.51100000000E-03 0. -1.
         11   -1    0    0    0    0 -0.00000000000E+00 -0.00000000000E+00 -0.45593999997E+02  0.45594000000E+02  0.51100000000E-03 0.  1.
    9900012    2    1    2    0    0  0.25317617718E+02 -0.56222655298E+01 -0.31314115680E+02  0.50528862314E+02  0.30000007488E+02 0.  0.
         12    1    1    2    0    0 -0.25317617718E+02  0.56222655298E+01  0.31314115680E+02  0.40659137686E+02  0.00000000000E+00 0. -1.
         11    1    3    3    0    0  0.13572336037E+02  0.59420298091E+00 -0.18418424076E+02  0.22886671414E+02  0.51100000000E-03 0.  1.
        -11    1    3    3    0    0  0.73252050048E+01 -0.94296890355E+01 -0.17023572235E+02  0.20793741260E+02  0.51100000000E-03 0. -1.
         12    1    3    3    0    0  0.44200766754E+01  0.32132205248E+01  0.41278806316E+01  0.68484496397E+01  0.00000000000E+00 0. -1.
</event>
<event>
 7    1  0.2500839E-011  0.5052886E+02  0.7816164E-02  0.1300439E+00
        -11   -1    0    0    0    0  0.00000000000E+00  0.00000000000E+00  0.45593999997E+02  0.45594000000E+02  0.51100000000E-03 0.  1.
         11   -1    0    0    0    0 -0.00000000000E+00 -0.00000000000E+00 -0.45593999997E+02  0.45594000000E+02  0.51100000000E-03 0. -1.
    9900012    2    1    2    0    0  0.11906227265E+02 -0.37721755584E+02  0.94062055321E+01  0.50528858414E+02  0.29999995635E+02 0.  0.
         12    1    1    2    0    0 -0.11906227265E+02  0.37721755584E+02 -0.94062055321E+01  0.40659141586E+02  0.00000000000E+00 0. -1.
         11    1    3    3    0    0 -0.34516023025E+00 -0.19187535012E+02  0.41157105600E+01  0.19627014778E+02  0.51100000000E-03 0.  1.
        -11    1    3    3    0    0 -0.23023059662E+01  0.32296714506E+01  0.22078332908E+01  0.45393742457E+01  0.51100000000E-03 0. -1.
        -12    1    3    3    0    0  0.14553693461E+02 -0.21763892022E+02  0.30826616813E+01  0.26362469391E+02  0.00000000000E+00 0.  1.
</event>
<event>
 7    1  0.2500839E-011  0.5052885E+02  0.7816164E-02  0.1300439E+00
        -11   -1    0    0    0    0  0.00000000000E+00  0.00000000000E+00  0.45593999997E+02  0.45594000000E+02  0.51100000000E-03 0. -1.
         11   -1    0    0    0    0 -0.00000000000E+00 -0.00000000000E+00 -0.45593999997E+02  0.45594000000E+02  0.51100000000E-03 0.  1.
    9900012    2    1    2    0    0  0.28666195930E+02 -0.17104625310E+02 -0.23213083917E+02  0.50528852677E+02  0.29999978198E+02 0.  0.
         12    1    1    2    0    0 -0.28666195930E+02  0.17104625310E+02  0.23213083917E+02  0.40659147323E+02  0.00000000000E+00 0. -1.
         11    1    3    3    0    0  0.14345703500E+01  0.14666445557E+01 -0.69420137519E+01  0.72388254251E+01  0.51100000000E-03 0. -1.
        -11    1    3    3    0    0  0.95027532835E+01 -0.17944208454E+02 -0.15479238114E+02  0.25532405877E+02  0.51100000000E-03 0.  1.
         12    1    3    3    0    0  0.17728872297E+02 -0.62706141174E+00 -0.79183205026E+00  0.17757621376E+02  0.00000000000E+00 0. -1.
</event>
<event>
 7    1  0.2500839E-011  0.5052886E+02  0.7816164E-02  0.1300439E+00
        -11   -1    0    0    0    0  0.00000000000E+00  0.00000000000E+00  0.45593999997E+02  0.45594000000E+02  0.51100000000E-03 0.  1.
         11   -1    0    0    0    0 -0.00000000000E+00 -0.00000000000E+00 -0.45593999997E+02  0.45594000000E+02  0.51100000000E-03 0. -1.
    9900012    2    1    2    0    0  0.97758100249E+01 -0.38331274120E+02  0.93974870024E+01  0.50528858355E+02  0.29999995457E+02 0.  0.
         12    1    1    2    0    0 -0.97758100249E+01  0.38331274120E+02 -0.93974870024E+01  0.40659141645E+02  0.00000000000E+00 0. -1.
         11    1    3    3    0    0  0.10206772249E+02 -0.16303166115E+02  0.85548773914E+01  0.21051302871E+02  0.51100000000E-03 0. -1.
        -11    1    3    3    0    0 -0.23215456047E+01 -0.20462533845E+02  0.78603456656E+01  0.22042910415E+02  0.51100000000E-03 0.  1.
         12    1    3    3    0    0  0.18905833809E+01 -0.15655741601E+01 -0.70177360546E+01  0.74346450691E+01  0.00000000000E+00 0. -1.
</event>
<event>
 7    1  0.2500839E-011  0.5052885E+02  0.7816164E-02  0.1300439E+00
        -11   -1    0    0    0    0  0.00000000000E+00  0.00000000000E+00  0.45593999997E+02  0.45594000000E+02  0.51100000000E-03 0.  1.
         11   -1    0    0    0    0 -0.00000000000E+00 -0.00000000000E+00 -0.45593999997E+02  0.45594000000E+02  0.51100000000E-03 0. -1.
    9900012    2    1    2    0    0 -0.25314229727E+02 -0.31731317289E+02 -0.23408189958E+01  0.50528853955E+02  0.29999982081E+02 0.  0.
         12    1    1    2    0    0  0.25314229727E+02  0.31731317289E+02  0.23408189958E+01  0.40659146045E+02  0.00000000000E+00 0. -1.
         11    1    3    3    0    0 -0.51554017063E+01 -0.10777514778E+02  0.99787895666E+01  0.15566285139E+02  0.51100000000E-03 0. -1.
        -11    1    3    3    0    0 -0.10746226658E+02 -0.17025249449E+01 -0.15850664795E+01  0.10995108666E+02  0.51100000000E-03 0.  1.
         12    1    3    3    0    0 -0.94126013630E+01 -0.19251277566E+02 -0.10734542083E+02  0.23967460150E+02  0.00000000000E+00 0. -1.
</event>
<event>
 7    1  0.2500839E-011  0.5052886E+02  0.7816164E-02  0.1300439E+00
        -11   -1    0    0    0    0  0.00000000000E+00  0.00000000000E+00  0.45593999997E+02  0.45594000000E+02  0.51100000000E-03 0.  1.
         11   -1    0    0    0    0 -0.00000000000E+00 -0.00000000000E+00 -0.45593999997E+02  0.45594000000E+02  0.51100000000E-03 0. -1.
    9900012    2    1    2    0    0  0.34034109979E+02 -0.20644643313E+02 -0.82851327738E+01  0.50528863700E+02  0.30000011701E+02 0.  0.
         12    1    1    2    0    0 -0.34034109979E+02  0.20644643313E+02  0.82851327738E+01  0.40659136300E+02  0.00000000000E+00 0. -1.
         11    1    3    3    0    0  0.61589630625E+01 -0.97380447832E+01 -0.11251790933E+02  0.16104817344E+02  0.51100000000E-03 0. -1.
        -11    1    3    3    0    0  0.27695032539E+02 -0.59946834157E+01 -0.61375013755E+00  0.28343036995E+02  0.51100000000E-03 0.  1.
         12    1    3    3    0    0  0.18011437798E+00 -0.49119151143E+01  0.35804082971E+01  0.60810093614E+01  0.00000000000E+00 0. -1.
</event>
<event>
 7    1  0.2500839E-011  0.5052881E+02  0.7816164E-02  0.1300439E+00
        -11   -1    0    0    0    0  0.00000000000E+00  0.00000000000E+00  0.45593999997E+02  0.45594000000E+02  0.51100000000E-03 0.  1.
         11   -1    0    0    0    0 -0.00000000000E+00 -0.00000000000E+00 -0.45593999997E+02  0.45594000000E+02  0.51100000000E-03 0. -1.
    9900012    2    1    2    0    0 -0.28592239523E+02  0.28336911084E+02  0.57160569305E+01  0.50528806728E+02  0.29999838529E+02 0.  0.
         12    1    1    2    0    0  0.28592239523E+02 -0.28336911084E+02 -0.57160569305E+01  0.40659193272E+02  0.00000000000E+00 0. -1.
         11    1    3    3    0    0  0.13612496733E+01  0.15639611006E+01 -0.38235442638E-01  0.20737495527E+01  0.51100000000E-03 0. -1.
        -11    1    3    3    0    0 -0.24805850475E+02  0.27496465952E+02 -0.41554820114E+01  0.37264646632E+02  0.51100000000E-03 0.  1.
        -12    1    3    3    0    0 -0.51476387218E+01 -0.72351596880E+00  0.99097743845E+01  0.11190410543E+02  0.00000000000E+00 0.  1.
</event>
<event>
 7    1  0.2500839E-011  0.5052886E+02  0.7816164E-02  0.1300439E+00
        -11   -1    0    0    0    0  0.00000000000E+00  0.00000000000E+00  0.45593999997E+02  0.45594000000E+02  0.51100000000E-03 0.  1.
         11   -1    0    0    0    0 -0.00000000000E+00 -0.00000000000E+00 -0.45593999997E+02  0.45594000000E+02  0.51100000000E-03 0. -1.
    9900012    2    1    2    0    0 -0.38395015432E+02 -0.11979851477E+02 -0.59557933518E+01  0.50528861717E+02  0.30000005675E+02 0.  0.
         12    1    1    2    0    0  0.38395015432E+02  0.11979851477E+02  0.59557933518E+01  0.40659138283E+02  0.00000000000E+00 0. -1.
         11    1    3    3    0    0 -0.20186148347E+01  0.38238169712E+01 -0.56423186606E+01  0.71085963600E+01  0.51100000000E-03 0. -1.
        -11    1    3    3    0    0 -0.14053691676E+02 -0.33304041195E+01 -0.82659523693E+01  0.16641027918E+02  0.51100000000E-03 0.  1.
        -12    1    3    3    0    0 -0.22322708922E+02 -0.12473264329E+02  0.79524776781E+01  0.26779237439E+02  0.00000000000E+00 0.  1.
</event>
<event>
 7    1  0.2500839E-011  0.5052885E+02  0.7816164E-02  0.1300439E+00
        -11   -1    0    0    0    0  0.00000000000E+00  0.00000000000E+00  0.45593999997E+02  0.45594000000E+02  0.51100000000E-03 0.  1.
         11   -1    0    0    0    0 -0.00000000000E+00 -0.00000000000E+00 -0.45593999997E+02  0.45594000000E+02  0.51100000000E-03 0. -1.
    9900012    2    1    2    0    0 -0.64678308375E+01 -0.33362890374E+02  0.22321547700E+02  0.50528846276E+02  0.29999958739E+02 0.  0.
         12    1    1    2    0    0  0.64678308375E+01  0.33362890374E+02 -0.22321547700E+02  0.40659153724E+02  0.00000000000E+00 0. -1.
         11    1    3    3    0    0 -0.75867437507E-01 -0.24188362221E+01  0.63861761678E+01  0.68293316543E+01  0.51100000000E-03 0. -1.
        -11    1    3    3    0    0  0.14542372603E+01 -0.32242444508E+02  0.15309179805E+02  0.35721996311E+02  0.51100000000E-03 0.  1.
         12    1    3    3    0    0 -0.78462006603E+01  0.12983903556E+01  0.62619172692E+00  0.79775183106E+01  0.00000000000E+00 0. -1.
</event>
<event>
 7    1  0.2500839E-011  0.5052881E+02  0.7816164E-02  0.1300439E+00
        -11   -1    0    0    0    0  0.00000000000E+00  0.00000000000E+00  0.45593999997E+02  0.45594000000E+02  0.51100000000E-03 0.  1.
         11   -1    0    0    0    0 -0.00000000000E+00 -0.00000000000E+00 -0.45593999997E+02  0.45594000000E+02  0.51100000000E-03 0. -1.
    9900012    2    1    2    0    0  0.27842148043E+02  0.10945365454E+02  0.27535132257E+02  0.50528809883E+02  0.29999848119E+02 0.  0.
         12    1    1    2    0    0 -0.27842148043E+02 -0.10945365454E+02 -0.27535132257E+02  0.40659190117E+02  0.00000000000E+00 0. -1.
         11    1    3    3    0    0  0.32303245822E+01  0.75934514506E+01  0.15535751383E+02  0.17591335172E+02  0.51100000000E-03 0. -1.
        -11    1    3    3    0    0  0.12284059194E+01  0.48600377623E+01  0.75872571236E+01  0.90937021655E+01  0.51100000000E-03 0.  1.
         12    1    3    3    0    0  0.23383417542E+02 -0.15081237587E+01  0.44121237500E+01  0.23843772545E+02  0.00000000000E+00 0. -1.
</event>
<event>
 7    1  0.2500839E-011  0.5052886E+02  0.7816164E-02  0.1300439E+00
        -11   -1    0    0    0    0  0.00000000000E+00  0.00000000000E+00  0.45593999997E+02  0.45594000000E+02  0.51100000000E-03 0.  1.
         11   -1    0    0    0    0 -0.00000000000E+00 -0.00000000000E+00 -0.45593999997E+02  0.45594000000E+02  0.51100000000E-03 0. -1.
    9900012    2    1    2    0    0 -0.21987758669E+02  0.27454612431E+02  0.20394804552E+02  0.50528864154E+02  0.30000013081E+02 0.  0.
         12    1    1    2    0    0  0.21987758669E+02 -0.27454612431E+02 -0.20394804552E+02  0.40659135846E+02  0.00000000000E+00 0. -1.
         11    1    3    3    0    0 -0.11593326929E+01  0.84506478987E+00 -0.17162955953E+01  0.22369304020E+01  0.51100000000E-03 0. -1.
        -11    1    3    3    0    0  0.33117260781E+01  0.39602591661E+01 -0.36706226593E+01  0.63344023591E+01  0.51100000000E-03 0.  1.
        -12    1    3    3    0    0 -0.24140152054E+02  0.22649288475E+02  0.25781722807E+02  0.41957531392E+02  0.00000000000E+00 0.  1.
</event>
<event>
 7    1  0.2500839E-011  0.5052885E+02  0.7816164E-02  0.1300439E+00
        -11   -1    0    0    0    0  0.00000000000E+00  0.00000000000E+00  0.45593999997E+02  0.45594000000E+02  0.51100000000E-03 0.  1.
         11   -1    0    0    0    0 -0.00000000000E+00 -0.00000000000E+00 -0.45593999997E+02  0.45594000000E+02  0.51100000000E-03 0. -1.
    9900012    2    1    2    0    0  0.20375846923E+01  0.22282520684E+02  0.33948545560E+02  0.50528853120E+02  0.29999979543E+02 0.  0.
         12    1    1    2    0    0 -0.20375846923E+01 -0.22282520684E+02 -0.33948545560E+02  0.40659146880E+02  0.00000000000E+00 0. -1.
         11    1    3    3    0    0 -0.53805907686E+01  0.47649320977E+00  0.16812293570E+02  0.17658737728E+02  0.51100000000E-03 0. -1.
        -11    1    3    3    0    0  0.56755353958E+01  0.91030498388E+00  0.83459307422E+01  0.10133850078E+02  0.51100000000E-03 0.  1.
        -12    1    3    3    0    0  0.17426400651E+01  0.20895722490E+02  0.87903212479E+01  0.22736265314E+02  0.00000000000E+00 0.  1.
</event>
<event>
 7    1  0.2500839E-011  0.5052882E+02  0.7816164E-02  0.1300439E+00
        -11   -1    0    0    0    0  0.00000000000E+00  0.00000000000E+00  0.45593999997E+02  0.45594000000E+02  0.51100000000E-03 0.  1.
         11   -1    0    0    0    0 -0.00000000000E+00 -0.00000000000E+00 -0.45593999997E+02  0.45594000000E+02  0.51100000000E-03 0. -1.
    9900012    2    1    2    0    0  0.26009821742E+02 -0.14743562576E+02  0.27555132419E+02  0.50528821613E+02  0.29999883776E+02 0.  0.
         12    1    1    2    0    0 -0.26009821742E+02  0.14743562576E+02 -0.27555132419E+02  0.40659178387E+02  0.00000000000E+00 0. -1.
         11    1    3    3    0    0  0.32330994178E+01  0.39060236890E+01 -0.45152682592E+01  0.67895213836E+01  0.51100000000E-03 0. -1.
        -11    1    3    3    0    0  0.31646948284E+01 -0.35188059502E+01  0.73660905488E+01  0.87553742871E+01  0.51100000000E-03 0.  1.
        -12    1    3    3    0    0  0.19612027495E+02 -0.15130780315E+02  0.24704310129E+02  0.34983925943E+02  0.00000000000E+00 0.  1.
</event>
<event>
 7    1  0.2500839E-011  0.5052884E+02  0.7816164E-02  0.1300439E+00
        -11   -1    0    0    0    0  0.00000000000E+00  0.00000000000E+00  0.45593999997E+02  0.45594000000E+02  0.51100000000E-03 0.  1.
         11   -1    0    0    0    0 -0.00000000000E+00 -0.00000000000E+00 -0.45593999997E+02  0.45594000000E+02  0.51100000000E-03 0. -1.
    9900012    2    1    2    0    0 -0.32900831127E+02 -0.82043074852E+01  0.22436390806E+02  0.50528843804E+02  0.29999951226E+02 0.  0.
         12    1    1    2    0    0  0.32900831127E+02  0.82043074852E+01 -0.22436390806E+02  0.40659156196E+02  0.00000000000E+00 0. -1.
         11    1    3    3    0    0 -0.16320498195E+02 -0.33540653780E+00  0.11453957132E+01  0.16364079274E+02  0.51100000000E-03 0. -1.
        -11    1    3    3    0    0 -0.15204733293E+02  0.25471777756E+01  0.84748193911E+01  0.17592458415E+02  0.51100000000E-03 0.  1.
         12    1    3    3    0    0 -0.13755996393E+01 -0.10416078723E+02  0.12816175702E+02  0.16572306114E+02  0.00000000000E+00 0. -1.
</event>
<event>
 7    1  0.2500839E-011  0.5052885E+02  0.7816164E-02  0.1300439E+00
        -11   -1    0    0    0    0  0.00000000000E+00  0.00000000000E+00  0.45593999997E+02  0.45594000000E+02  0.51100000000E-03 0.  1.
         11   -1    0    0    0    0 -0.00000000000E+00 -0.00000000000E+00 -0.45593999997E+02  0.45594000000E+02  0.51100000000E-03 0. -1.
    9900012    2    1    2    0    0 -0.39178415522E+01 -0.16492947241E+02  0.36956724409E+02  0.50528852565E+02  0.29999977856E+02 0.  0.
         12    1    1    2    0    0  0.39178415522E+01  0.16492947241E+02 -0.36956724409E+02  0.40659147435E+02  0.00000000000E+00 0. -1.
         11    1    3    3    0    0  0.29071056608E+01 -0.40208378486E-01  0.32625276885E+01  0.43700076906E+01  0.51100000000E-03 0. -1.
        -11    1    3    3    0    0  0.77481688601E+01 -0.14093684956E+01  0.19017923400E+02  0.20584019310E+02  0.51100000000E-03 0.  1.
         12    1    3    3    0    0 -0.14573116073E+02 -0.15043370367E+02  0.14676273320E+02  0.25574825564E+02  0.00000000000E+00 0. -1.
</event>
<event>
 7    1  0.2500839E-011  0.5052886E+02  0.7816164E-02  0.1300439E+00
        -11   -1    0    0    0    0  0.00000000000E+00  0.00000000000E+00  0.45593999997E+02  0.45594000000E+02  0.51100000000E-03 0.  1.
         11   -1    0    0    0    0 -0.00000000000E+00 -0.00000000000E+00 -0.45593999997E+02  0.45594000000E+02  0.51100000000E-03 0. -1.
    9900012    2    1    2    0    0  0.36420425938E+02 -0.16938205571E+02  0.63099635840E+01  0.50528857438E+02  0.29999992668E+02 0.  0.
         12    1    1    2    0    0 -0.36420425938E+02  0.16938205571E+02 -0.63099635840E+01  0.40659142562E+02  0.00000000000E+00 0. -1.
         11    1    3    3    0    0  0.12322331775E+01 -0.83971335636E+01 -0.10116205641E+01  0.85471414587E+01  0.51100000000E-03 0. -1.
        -11    1    3    3    0    0  0.23844403014E+02 -0.44370331342E+01 -0.49718722396E+01  0.24758076095E+02  0.51100000000E-03 0.  1.
        -12    1    3    3    0    0  0.11343789747E+02 -0.41040388730E+01  0.12293456388E+02  0.17223639884E+02  0.00000000000E+00 0.  1.
</event>
<event>
 7    1  0.2500839E-011  0.5052885E+02  0.7816164E-02  0.1300439E+00
        -11   -1    0    0    0    0  0.00000000000E+00  0.00000000000E+00  0.45593999997E+02  0.45594000000E+02  0.51100000000E-03 0.  1.
         11   -1    0    0    0    0 -0.00000000000E+00 -0.00000000000E+00 -0.45593999997E+02  0.45594000000E+02  0.51100000000E-03 0. -1.
    9900012    2    1    2    0    0  0.27291464886E+02 -0.12465341788E+02  0.27440072569E+02  0.50528851163E+02  0.29999973595E+02 0.  0.
         12    1    1    2    0    0 -0.27291464886E+02  0.12465341788E+02 -0.27440072569E+02  0.40659148837E+02  0.00000000000E+00 0. -1.
         11    1    3    3    0    0  0.90343128248E+01  0.20958244841E+00  0.24117825759E+01  0.93530438079E+01  0.51100000000E-03 0. -1.
        -11    1    3    3    0    0  0.19080450536E+02 -0.13797231557E+02  0.28773767374E+02  0.37180060253E+02  0.51100000000E-03 0.  1.
         12    1    3    3    0    0 -0.82329847397E+00  0.11223073206E+01 -0.37454773801E+01  0.39957471021E+01  0.00000000000E+00 0. -1.
</event>
<event>
 7    1  0.2500839E-011  0.5052886E+02  0.7816164E-02  0.1300439E+00
        -11   -1    0    0    0    0  0.00000000000E+00  0.00000000000E+00  0.45593999997E+02  0.45594000000E+02  0.51100000000E-03 0.  1.
         11   -1    0    0    0    0 -0.00000000000E+00 -0.00000000000E+00 -0.45593999997E+02  0.45594000000E+02  0.51100000000E-03 0. -1.
    9900012    2    1    2    0    0 -0.94551175975E+01  0.39487023390E+02  0.21310331949E+01  0.50528861206E+02  0.30000004123E+02 0.  0.
         12    1    1    2    0    0  0.94551175975E+01 -0.39487023390E+02 -0.21310331949E+01  0.40659138794E+02  0.00000000000E+00 0. -1.
         11    1    3    3    0    0 -0.10998023384E+01 -0.27916214662E+01 -0.18620237518E+01  0.35312672382E+01  0.51100000000E-03 0. -1.
        -11    1    3    3    0    0 -0.10315446445E+02  0.10194595649E+02 -0.66337565006E+00  0.14518205238E+02  0.51100000000E-03 0.  1.
         12    1    3    3    0    0  0.19601311860E+01  0.32084049207E+02  0.46564325968E+01  0.32479388730E+02  0.00000000000E+00 0. -1.
</event>
<event>
 7    1  0.2500839E-011  0.5052886E+02  0.7816164E-02  0.1300439E+00
        -11   -1    0    0    0    0  0.00000000000E+00  0.00000000000E+00  0.45593999997E+02  0.45594000000E+02  0.51100000000E-03 0. -1.
         11   -1    0    0    0    0 -0.00000000000E+00 -0.00000000000E+00 -0.45593999997E+02  0.45594000000E+02  0.51100000000E-03 0.  1.
    9900012    2    1    2    0    0  0.32724612789E+01  0.35842200138E+02 -0.18915420302E+02  0.50528862788E+02  0.30000008932E+02 0.  0.
         12    1    1    2    0    0 -0.32724612789E+01 -0.35842200138E+02  0.18915420302E+02  0.40659137212E+02  0.00000000000E+00 0. -1.
         11    1    3    3    0    0  0.70206842137E+01  0.63708977595E+01 -0.25913765649E+00  0.94839600208E+01  0.51100000000E-03 0. -1.
        -11    1    3    3    0    0  0.51368949919E+01  0.55767035109E+01 -0.12816864732E+02  0.14891586014E+02  0.51100000000E-03 0.  1.
        -12    1    3    3    0    0 -0.88851179267E+01  0.23894598868E+02 -0.58394179142E+01  0.26153316753E+02  0.00000000000E+00 0.  1.
</event>
<event>
 7    1  0.2500839E-011  0.5052886E+02  0.7816164E-02  0.1300439E+00
        -11   -1    0    0    0    0  0.00000000000E+00  0.00000000000E+00  0.45593999997E+02  0.45594000000E+02  0.51100000000E-03 0. -1.
         11   -1    0    0    0    0 -0.00000000000E+00 -0.00000000000E+00 -0.45593999997E+02  0.45594000000E+02  0.51100000000E-03 0.  1.
    9900012    2    1    2    0    0  0.28211601846E+02 -0.23778678154E+02 -0.17083496887E+02  0.50528857371E+02  0.29999992464E+02 0.  0.
         12    1    1    2    0    0 -0.28211601846E+02  0.23778678154E+02  0.17083496887E+02  0.40659142629E+02  0.00000000000E+00 0. -1.
         11    1    3    3    0    0  0.10517379546E+02 -0.39050569561E+01 -0.29047680108E+01  0.11588892087E+02  0.51100000000E-03 0. -1.
        -11    1    3    3    0    0  0.14739088559E+01  0.55241466303E+01 -0.45396466561E+01  0.73004791166E+01  0.51100000000E-03 0.  1.
        -12    1    3    3    0    0  0.16220313444E+02 -0.25397767828E+02 -0.96390822196E+01  0.31639486167E+02  0.00000000000E+00 0.  1.
</event>
<event>
 7    1  0.3162957E-011  0.5052890E+02  0.7816164E-02  0.1300439E+00
        -11   -1    0    0    0    0  0.00000000000E+00  0.00000000000E+00  0.45593999997E+02  0.45594000000E+02  0.51100000000E-03 0.  1.
         11   -1    0    0    0    0 -0.00000000000E+00 -0.00000000000E+00 -0.45593999997E+02  0.45594000000E+02  0.51100000000E-03 0. -1.
    9900012    2    1    2    0    0  0.20008669054E+01 -0.24772368387E+02  0.32179006537E+02  0.50528903041E+02  0.30000131283E+02 0.  0.
         12    1    1    2    0    0 -0.20008669054E+01  0.24772368387E+02 -0.32179006537E+02  0.40659096959E+02  0.00000000000E+00 0. -1.
         11    1    3    3    0    0 -0.50972709289E+01 -0.14972153156E+02  0.31899832888E+01  0.16134544762E+02  0.51100000000E-03 0. -1.
        -11    1    3    3    0    0  0.25486388660E+01  0.27267946014E+01  0.18639633446E+01  0.41719693766E+01  0.51100000000E-03 0.  1.
        -12    1    3    3    0    0  0.45494989683E+01 -0.12527009832E+02  0.27125059903E+02  0.30222388902E+02  0.00000000000E+00 0.  1.
</event>
<event>
 7    1  0.2500839E-011  0.5052887E+02  0.7816164E-02  0.1300439E+00
        -11   -1    0    0    0    0  0.00000000000E+00  0.00000000000E+00  0.45593999997E+02  0.45594000000E+02  0.51100000000E-03 0. -1.
         11   -1    0    0    0    0 -0.00000000000E+00 -0.00000000000E+00 -0.45593999997E+02  0.45594000000E+02  0.51100000000E-03 0.  1.
    9900012    2    1    2    0    0  0.13010165302E+02 -0.34813099299E+02 -0.16490866234E+02  0.50528868761E+02  0.30000027085E+02 0.  0.
         12    1    1    2    0    0 -0.13010165302E+02  0.34813099299E+02  0.16490866234E+02  0.40659131239E+02  0.00000000000E+00 0. -1.
         11    1    3    3    0    0  0.48129850183E+01 -0.68442463992E+01  0.54029126102E+00  0.83845362702E+01  0.51100000000E-03 0.  1.
        -11    1    3    3    0    0  0.10493329174E+02 -0.33262008130E+01  0.16568086011E+01  0.11131872440E+02  0.51100000000E-03 0. -1.
        -12    1    3    3    0    0 -0.22961488905E+01 -0.24642652087E+02 -0.18687966096E+02  0.31012460051E+02  0.00000000000E+00 0.  1.
</event>
<event>
 7    1  0.2500839E-011  0.5052889E+02  0.7816164E-02  0.1300439E+00
        -11   -1    0    0    0    0  0.00000000000E+00  0.00000000000E+00  0.45593999997E+02  0.45594000000E+02  0.51100000000E-03 0.  1.
         11   -1    0    0    0    0 -0.00000000000E+00 -0.00000000000E+00 -0.45593999997E+02  0.45594000000E+02  0.51100000000E-03 0. -1.
    9900012    2    1    2    0    0  0.27044453574E+02  0.62148368446E+01  0.29717617738E+02  0.50528886997E+02  0.30000082517E+02 0.  0.
         12    1    1    2    0    0 -0.27044453574E+02 -0.62148368446E+01 -0.29717617738E+02  0.40659113003E+02  0.00000000000E+00 0. -1.
         11    1    3    3    0    0 -0.33194066752E+01 -0.60082855159E+00  0.22981716616E+00  0.33811642691E+01  0.51100000000E-03 0. -1.
        -11    1    3    3    0    0  0.54077777461E+01  0.10922924034E+01  0.18465469768E+02  0.19272019532E+02  0.51100000000E-03 0.  1.
         12    1    3    3    0    0  0.24956082503E+02  0.57233729928E+01  0.11022330805E+02  0.27875703196E+02  0.00000000000E+00 0. -1.
</event>
<event>
 7    1  0.2500839E-011  0.5052886E+02  0.7816164E-02  0.1300439E+00
        -11   -1    0    0    0    0  0.00000000000E+00  0.00000000000E+00  0.45593999997E+02  0.45594000000E+02  0.51100000000E-03 0.  1.
         11   -1    0    0    0    0 -0.00000000000E+00 -0.00000000000E+00 -0.45593999997E+02  0.45594000000E+02  0.51100000000E-03 0. -1.
    9900012    2    1    2    0    0  0.26565604239E+02 -0.24246447517E+02  0.18961652085E+02  0.50528858401E+02  0.29999995595E+02 0.  0.
         12    1    1    2    0    0 -0.26565604239E+02  0.24246447517E+02 -0.18961652085E+02  0.40659141599E+02  0.00000000000E+00 0. -1.
         11    1    3    3    0    0  0.69933119388E+01 -0.16783996613E+02  0.53318489352E-01  0.18182733493E+02  0.51100000000E-03 0. -1.
        -11    1    3    3    0    0  0.18348215099E+02 -0.11472004054E+02  0.13507381480E+02  0.25509081306E+02  0.51100000000E-03 0.  1.
        -12    1    3    3    0    0  0.12240772008E+01  0.40095531498E+01  0.54009521155E+01  0.68370436015E+01  0.00000000000E+00 0.  1.
</event>
<event>
 7    1  0.2500839E-011  0.5052885E+02  0.7816164E-02  0.1300439E+00
        -11   -1    0    0    0    0  0.00000000000E+00  0.00000000000E+00  0.45593999997E+02  0.45594000000E+02  0.51100000000E-03 0. -1.
         11   -1    0    0    0    0 -0.00000000000E+00 -0.00000000000E+00 -0.45593999997E+02  0.45594000000E+02  0.51100000000E-03 0.  1.
    9900012    2    1    2    0    0 -0.34781918886E+02  0.20844083021E+02  0.29846964326E+01  0.50528854766E+02  0.29999984547E+02 0.  0.
         12    1    1    2    0    0  0.34781918886E+02 -0.20844083021E+02 -0.29846964326E+01  0.40659145234E+02  0.00000000000E+00 0. -1.
         11    1    3    3    0    0 -0.20741174713E+02  0.45046799444E+01  0.59873774262E+01  0.22053053271E+02  0.51100000000E-03 0. -1.
        -11    1    3    3    0    0 -0.15337003042E+02  0.12515440875E+02 -0.85927855178E+01  0.21579988087E+02  0.51100000000E-03 0.  1.
        -12    1    3    3    0    0  0.12962588688E+01  0.38239622015E+01  0.55901045242E+01  0.68958134085E+01  0.00000000000E+00 0.  1.
</event>
<event>
 7    1  0.2500839E-011  0.5052882E+02  0.7816164E-02  0.1300439E+00
        -11   -1    0    0    0    0  0.00000000000E+00  0.00000000000E+00  0.45593999997E+02  0.45594000000E+02  0.51100000000E-03 0. -1.
         11   -1    0    0    0    0 -0.00000000000E+00 -0.00000000000E+00 -0.45593999997E+02  0.45594000000E+02  0.51100000000E-03 0.  1.
    9900012    2    1    2    0    0 -0.37549138991E+01  0.25576914154E+02 -0.31382970075E+02  0.50528822355E+02  0.29999886031E+02 0.  0.
         12    1    1    2    0    0  0.37549138991E+01 -0.25576914154E+02  0.31382970075E+02  0.40659177645E+02  0.00000000000E+00 0. -1.
         11    1    3    3    0    0 -0.28512047172E+01  0.53905526993E+01 -0.12777088453E+02  0.14157733446E+02  0.51100000000E-03 0. -1.
        -11    1    3    3    0    0  0.11249517478E+02  0.10427984183E+02 -0.11851665025E+02  0.19384438649E+02  0.51100000000E-03 0.  1.
         12    1    3    3    0    0 -0.12153226660E+02  0.97583772720E+01 -0.67542165965E+01  0.16986650260E+02  0.00000000000E+00 0. -1.
</event>
<event>
 7    1  0.2500839E-011  0.5052891E+02  0.7816164E-02  0.1300439E+00
        -11   -1    0    0    0    0  0.00000000000E+00  0.00000000000E+00  0.45593999997E+02  0.45594000000E+02  0.51100000000E-03 0. -1.
         11   -1    0    0    0    0 -0.00000000000E+00 -0.00000000000E+00 -0.45593999997E+02  0.45594000000E+02  0.51100000000E-03 0.  1.
    9900012    2    1    2    0    0 -0.34994033998E+02  0.52424518471E+01 -0.20027387853E+02  0.50528905309E+02  0.30000138178E+02 0.  0.
         12    1    1    2    0    0  0.34994033998E+02 -0.52424518471E+01  0.20027387853E+02  0.40659094691E+02  0.00000000000E+00 0. -1.
         11    1    3    3    0    0 -0.10378383633E+02  0.88761688523E+01 -0.49552035155E+01  0.14527603467E+02  0.51100000000E-03 0. -1.
        -11    1    3    3    0    0 -0.26118125823E+02  0.22313569883E+01 -0.98400653799E+01  0.27999327446E+02  0.51100000000E-03 0.  1.
         12    1    3    3    0    0  0.15024754581E+01 -0.58650739936E+01 -0.52321189578E+01  0.80019743964E+01  0.00000000000E+00 0. -1.
</event>
<event>
 7    1  0.2500839E-011  0.5052886E+02  0.7816164E-02  0.1300439E+00
        -11   -1    0    0    0    0  0.00000000000E+00  0.00000000000E+00  0.45593999997E+02  0.45594000000E+02  0.51100000000E-03 0.  1.
         11   -1    0    0    0    0 -0.00000000000E+00 -0.00000000000E+00 -0.45593999997E+02  0.45594000000E+02  0.51100000000E-03 0. -1.
    9900012    2    1    2    0    0  0.59948136382E+01 -0.33246422547E+02  0.22625281211E+02  0.50528858929E+02  0.29999997201E+02 0.  0.
         12    1    1    2    0    0 -0.59948136382E+01  0.33246422547E+02 -0.22625281211E+02  0.40659141071E+02  0.00000000000E+00 0. -1.
         11    1    3    3    0    0 -0.70683490675E+01 -0.15200958141E+02  0.13288612741E+02  0.21392005885E+02  0.51100000000E-03 0. -1.
        -11    1    3    3    0    0  0.57438454361E+01 -0.11447895644E+02  0.13346783443E+02  0.18498181089E+02  0.51100000000E-03 0.  1.
         12    1    3    3    0    0  0.73193172696E+01 -0.65975687626E+01 -0.40101149731E+01  0.10638671955E+02  0.00000000000E+00 0. -1.
</event>
<event>
 7    1  0.2500839E-011  0.5052886E+02  0.7816164E-02  0.1300439E+00
        -11   -1    0    0    0    0  0.00000000000E+00  0.00000000000E+00  0.45593999997E+02  0.45594000000E+02  0.51100000000E-03 0. -1.
         11   -1    0    0    0    0 -0.00000000000E+00 -0.00000000000E+00 -0.45593999997E+02  0.45594000000E+02  0.51100000000E-03 0.  1.
    9900012    2    1    2    0    0  0.17542641763E+02  0.25995127364E+02 -0.25878078935E+02  0.50528857165E+02  0.29999991840E+02 0.  0.
         12    1    1    2    0    0 -0.17542641763E+02 -0.25995127364E+02  0.25878078935E+02  0.40659142835E+02  0.00000000000E+00 0. -1.
         11    1    3    3    0    0 -0.58865079416E+01  0.14143018091E+02 -0.10068715328E+02  0.18331802014E+02  0.51100000000E-03 0. -1.
        -11    1    3    3    0    0  0.21151023038E+01  0.71817248851E+00 -0.56807143197E+01  0.61040924732E+01  0.51100000000E-03 0.  1.
         12    1    3    3    0    0  0.21314047401E+02  0.11133936784E+02 -0.10128649287E+02  0.26092962678E+02  0.00000000000E+00 0. -1.
</event>
<event>
 7    1  0.2500839E-011  0.5052886E+02  0.7816164E-02  0.1300439E+00
        -11   -1    0    0    0    0  0.00000000000E+00  0.00000000000E+00  0.45593999997E+02  0.45594000000E+02  0.51100000000E-03 0. -1.
         11   -1    0    0    0    0 -0.00000000000E+00 -0.00000000000E+00 -0.45593999997E+02  0.45594000000E+02  0.51100000000E-03 0.  1.
    9900012    2    1    2    0    0 -0.31885635608E+02 -0.19742299381E+02 -0.15707116989E+02  0.50528859981E+02  0.30000000397E+02 0.  0.
         12    1    1    2    0    0  0.31885635608E+02  0.19742299381E+02  0.15707116989E+02  0.40659140019E+02  0.00000000000E+00 0. -1.
         11    1    3    3    0    0 -0.81671254580E+01 -0.10201132714E+02 -0.15435548055E+01  0.13158556478E+02  0.51100000000E-03 0. -1.
        -11    1    3    3    0    0 -0.48522283305E+01 -0.11966099775E+02 -0.12984999084E+02  0.18312341878E+02  0.51100000000E-03 0.  1.
        -12    1    3    3    0    0 -0.18866281820E+02  0.24249331076E+01 -0.11785630995E+01  0.19057961624E+02  0.00000000000E+00 0.  1.
</event>
<event>
 7    1  0.2500839E-011  0.5052889E+02  0.7816164E-02  0.1300439E+00
        -11   -1    0    0    0    0  0.00000000000E+00  0.00000000000E+00  0.45593999997E+02  0.45594000000E+02  0.51100000000E-03 0.  1.
         11   -1    0    0    0    0 -0.00000000000E+00 -0.00000000000E+00 -0.45593999997E+02  0.45594000000E+02  0.51100000000E-03 0. -1.
    9900012    2    1    2    0    0  0.28837764912E+01 -0.25231243049E+02  0.31752661698E+02  0.50528888874E+02  0.30000088221E+02 0.  0.
         12    1    1    2    0    0 -0.28837764912E+01  0.25231243049E+02 -0.31752661698E+02  0.40659111126E+02  0.00000000000E+00 0. -1.
         11    1    3    3    0    0  0.29377969667E+01  0.16919797201E+01  0.12163600051E+01  0.36018020926E+01  0.51100000000E-03 0.  1.
        -11    1    3    3    0    0 -0.11497589547E+02 -0.13737396146E+02  0.18288190413E+02  0.25600166545E+02  0.51100000000E-03 0. -1.
         12    1    3    3    0    0  0.11443569072E+02 -0.13185826623E+02  0.12248111279E+02  0.21326920236E+02  0.00000000000E+00 0. -1.
</event>
<event>
 7    1  0.2500839E-011  0.5052886E+02  0.7816164E-02  0.1300439E+00
        -11   -1    0    0    0    0  0.00000000000E+00  0.00000000000E+00  0.45593999997E+02  0.45594000000E+02  0.51100000000E-03 0.  1.
         11   -1    0    0    0    0 -0.00000000000E+00 -0.00000000000E+00 -0.45593999997E+02  0.45594000000E+02  0.51100000000E-03 0. -1.
    9900012    2    1    2    0    0 -0.18735661821E+01 -0.15570452239E+02  0.37512882529E+02  0.50528860944E+02  0.30000003326E+02 0.  0.
         12    1    1    2    0    0  0.18735661821E+01  0.15570452239E+02 -0.37512882529E+02  0.40659139056E+02  0.00000000000E+00 0. -1.
         11    1    3    3    0    0 -0.44339962431E+01 -0.11659056829E+02  0.29927331529E+02  0.32422817606E+02  0.51100000000E-03 0. -1.
        -11    1    3    3    0    0  0.58747630945E+01 -0.71783428958E+01  0.93107840698E+01  0.13142760304E+02  0.51100000000E-03 0.  1.
         12    1    3    3    0    0 -0.33143330334E+01  0.32669474861E+01 -0.17252330697E+01  0.49632830343E+01  0.00000000000E+00 0. -1.
</event>
<event>
 7    1  0.2500839E-011  0.5052883E+02  0.7816164E-02  0.1300439E+00
        -11   -1    0    0    0    0  0.00000000000E+00  0.00000000000E+00  0.45593999997E+02  0.45594000000E+02  0.51100000000E-03 0.  1.
         11   -1    0    0    0    0 -0.00000000000E+00 -0.00000000000E+00 -0.45593999997E+02  0.45594000000E+02  0.51100000000E-03 0. -1.
    9900012    2    1    2    0    0 -0.35697971900E+02  0.84113860841E+01  0.17551971658E+02  0.50528827324E+02  0.29999901133E+02 0.  0.
         12    1    1    2    0    0  0.35697971900E+02 -0.84113860841E+01 -0.17551971658E+02  0.40659172676E+02  0.00000000000E+00 0. -1.
         11    1    3    3    0    0 -0.34728754652E+01  0.75395874457E+01  0.16773685703E+01  0.84687548335E+01  0.51100000000E-03 0. -1.
        -11    1    3    3    0    0 -0.34354986995E+02  0.44087081727E+01  0.12856188459E+02  0.36945682036E+02  0.51100000000E-03 0.  1.
         12    1    3    3    0    0  0.21298905593E+01 -0.35369095344E+01  0.30184146286E+01  0.51143904543E+01  0.00000000000E+00 0. -1.
</event>
<event>
 7    1  0.2500839E-011  0.5052887E+02  0.7816164E-02  0.1300439E+00
        -11   -1    0    0    0    0  0.00000000000E+00  0.00000000000E+00  0.45593999997E+02  0.45594000000E+02  0.51100000000E-03 0.  1.
         11   -1    0    0    0    0 -0.00000000000E+00 -0.00000000000E+00 -0.45593999997E+02  0.45594000000E+02  0.51100000000E-03 0. -1.
    9900012    2    1    2    0    0 -0.12928108118E+02  0.19717236345E+01  0.38498590467E+02  0.50528866443E+02  0.30000020041E+02 0.  0.
         12    1    1    2    0    0  0.12928108118E+02 -0.19717236345E+01 -0.38498590467E+02  0.40659133557E+02  0.00000000000E+00 0. -1.
         11    1    3    3    0    0 -0.48101482288E+01  0.93556833467E+01  0.14854279721E+02  0.18202086780E+02  0.51100000000E-03 0. -1.
        -11    1    3    3    0    0 -0.11632612381E+02 -0.11686191509E+02  0.17768051684E+02  0.24240222847E+02  0.51100000000E-03 0.  1.
         12    1    3    3    0    0  0.35146524918E+01  0.43022317963E+01  0.58762590632E+01  0.80865568164E+01  0.00000000000E+00 0. -1.
</event>
<event>
 7    1  0.2500839E-011  0.5052885E+02  0.7816164E-02  0.1300439E+00
        -11   -1    0    0    0    0  0.00000000000E+00  0.00000000000E+00  0.45593999997E+02  0.45594000000E+02  0.51100000000E-03 0.  1.
         11   -1    0    0    0    0 -0.00000000000E+00 -0.00000000000E+00 -0.45593999997E+02  0.45594000000E+02  0.51100000000E-03 0. -1.
    9900012    2    1    2    0    0 -0.33231142420E+02  0.23286257280E+02  0.25705273242E+01  0.50528853239E+02  0.29999979905E+02 0.  0.
         12    1    1    2    0    0  0.33231142420E+02 -0.23286257280E+02 -0.25705273242E+01  0.40659146761E+02  0.00000000000E+00 0. -1.
         11    1    3    3    0    0 -0.11517248899E+02  0.10272711952E+02  0.76798636792E+01  0.17238211608E+02  0.51100000000E-03 0.  1.
        -11    1    3    3    0    0 -0.13362073212E+02 -0.38635296237E+01 -0.57195338703E+00  0.13921170662E+02  0.51100000000E-03 0. -1.
         12    1    3    3    0    0 -0.83518203088E+01  0.16877074952E+02 -0.45373829680E+01  0.19369470969E+02  0.00000000000E+00 0. -1.
</event>
<event>
 7    1  0.2500839E-011  0.5052886E+02  0.7816164E-02  0.1300439E+00
        -11   -1    0    0    0    0  0.00000000000E+00  0.00000000000E+00  0.45593999997E+02  0.45594000000E+02  0.51100000000E-03 0.  1.
         11   -1    0    0    0    0 -0.00000000000E+00 -0.00000000000E+00 -0.45593999997E+02  0.45594000000E+02  0.51100000000E-03 0. -1.
    9900012    2    1    2    0    0  0.28989959932E+01 -0.36633458434E+01  0.40389870161E+02  0.50528857213E+02  0.29999991985E+02 0.  0.
         12    1    1    2    0    0 -0.28989959932E+01  0.36633458434E+01 -0.40389870161E+02  0.40659142787E+02  0.00000000000E+00 0. -1.
         11    1    3    3    0    0  0.49672249165E+01 -0.33751487819E+01  0.13991594282E+02  0.15225953615E+02  0.51100000000E-03 0. -1.
        -11    1    3    3    0    0 -0.11822470664E+02 -0.21674637954E+01  0.20460989295E+02  0.23730166352E+02  0.51100000000E-03 0.  1.
         12    1    3    3    0    0  0.97542417405E+01  0.18792667339E+01  0.59372865840E+01  0.11572737246E+02  0.00000000000E+00 0. -1.
</event>
<event>
 7    1  0.2500839E-011  0.5052894E+02  0.7816164E-02  0.1300439E+00
        -11   -1    0    0    0    0  0.00000000000E+00  0.00000000000E+00  0.45593999997E+02  0.45594000000E+02  0.51100000000E-03 0.  1.
         11   -1    0    0    0    0 -0.00000000000E+00 -0.00000000000E+00 -0.45593999997E+02  0.45594000000E+02  0.51100000000E-03 0. -1.
    9900012    2    1    2    0    0 -0.79335807909E+01  0.39862925498E+02 -0.10792972104E+01  0.50528936854E+02  0.30000234062E+02 0.  0.
         12    1    1    2    0    0  0.79335807909E+01 -0.39862925498E+02  0.10792972104E+01  0.40659063146E+02  0.00000000000E+00 0. -1.
         11    1    3    3    0    0 -0.19261352240E+01  0.50127979630E+01 -0.50089875977E+01  0.73435752419E+01  0.51100000000E-03 0. -1.
        -11    1    3    3    0    0 -0.15527638797E+02  0.21271908512E+02  0.37441678996E+01  0.26601136289E+02  0.51100000000E-03 0.  1.
        -12    1    3    3    0    0  0.95201932305E+01  0.13578219023E+02  0.18552248761E+00  0.16584225323E+02  0.00000000000E+00 0.  1.
</event>
<event>
 7    1  0.2500839E-011  0.5052886E+02  0.7816164E-02  0.1300439E+00
        -11   -1    0    0    0    0  0.00000000000E+00  0.00000000000E+00  0.45593999997E+02  0.45594000000E+02  0.51100000000E-03 0.  1.
         11   -1    0    0    0    0 -0.00000000000E+00 -0.00000000000E+00 -0.45593999997E+02  0.45594000000E+02  0.51100000000E-03 0. -1.
    9900012    2    1    2    0    0 -0.35219856386E+02  0.36424753671E+01  0.19986487782E+02  0.50528860750E+02  0.30000002737E+02 0.  0.
         12    1    1    2    0    0  0.35219856386E+02 -0.36424753671E+01 -0.19986487782E+02  0.40659139250E+02  0.00000000000E+00 0. -1.
         11    1    3    3    0    0 -0.10115159250E+02 -0.26913375860E+01 -0.21290083256E+01  0.10681405402E+02  0.51100000000E-03 0. -1.
        -11    1    3    3    0    0 -0.15461920891E+02 -0.61123365297E+01  0.15630057691E+02  0.22819517067E+02  0.51100000000E-03 0.  1.
        -12    1    3    3    0    0 -0.96427762456E+01  0.12446149483E+02  0.64854384175E+01  0.17027938282E+02  0.00000000000E+00 0.  1.
</event>
<event>
 7    1  0.2500839E-011  0.5052886E+02  0.7816164E-02  0.1300439E+00
        -11   -1    0    0    0    0  0.00000000000E+00  0.00000000000E+00  0.45593999997E+02  0.45594000000E+02  0.51100000000E-03 0. -1.
         11   -1    0    0    0    0 -0.00000000000E+00 -0.00000000000E+00 -0.45593999997E+02  0.45594000000E+02  0.51100000000E-03 0.  1.
    9900012    2    1    2    0    0 -0.16610623673E+01 -0.30802775254E+02  0.26487649131E+02  0.50528860216E+02  0.30000001112E+02 0.  0.
         12    1    1    2    0    0  0.16610623673E+01  0.30802775254E+02 -0.26487649131E+02  0.40659139784E+02  0.00000000000E+00 0. -1.
         11    1    3    3    0    0 -0.99745772132E+01 -0.96105965418E+01  0.48938705441E+01  0.14690327622E+02  0.51100000000E-03 0. -1.
        -11    1    3    3    0    0  0.17416080082E+01 -0.15736735923E+02  0.40754045078E+01  0.16348913668E+02  0.51100000000E-03 0.  1.
         12    1    3    3    0    0  0.65719068377E+01 -0.54554427884E+01  0.17518374079E+02  0.19489618926E+02  0.00000000000E+00 0. -1.
</event>
<event>
 7    1  0.2500839E-011  0.5052887E+02  0.7816164E-02  0.1300439E+00
        -11   -1    0    0    0    0  0.00000000000E+00  0.00000000000E+00  0.45593999997E+02  0.45594000000E+02  0.51100000000E-03 0. -1.
         11   -1    0    0    0    0 -0.00000000000E+00 -0.00000000000E+00 -0.45593999997E+02  0.45594000000E+02  0.51100000000E-03 0.  1.
    9900012    2    1    2    0    0  0.33621171822E+02  0.17836029265E+01 -0.22794739823E+02  0.50528873132E+02  0.30000040372E+02 0.  0.
         12    1    1    2    0    0 -0.33621171822E+02 -0.17836029265E+01  0.22794739823E+02  0.40659126868E+02  0.00000000000E+00 0. -1.
         11    1    3    3    0    0  0.73017156277E+01  0.18388696103E+01 -0.12239065890E+02  0.14369802597E+02  0.51100000000E-03 0.  1.
        -11    1    3    3    0    0  0.10429947690E+01 -0.61450648734E+01 -0.78431871081E+01  0.10018245588E+02  0.51100000000E-03 0. -1.
         12    1    3    3    0    0  0.25276461425E+02  0.60897981896E+01 -0.27124868256E+01  0.26140824947E+02  0.00000000000E+00 0. -1.
</event>
<event>
 7    1  0.2500839E-011  0.5052887E+02  0.7816164E-02  0.1300439E+00
        -11   -1    0    0    0    0  0.00000000000E+00  0.00000000000E+00  0.45593999997E+02  0.45594000000E+02  0.51100000000E-03 0.  1.
         11   -1    0    0    0    0 -0.00000000000E+00 -0.00000000000E+00 -0.45593999997E+02  0.45594000000E+02  0.51100000000E-03 0. -1.
    9900012    2    1    2    0    0  0.27053711455E+02  0.30058829239E+02 -0.42105228720E+01  0.50528867920E+02  0.30000024529E+02 0.  0.
         12    1    1    2    0    0 -0.27053711455E+02 -0.30058829239E+02  0.42105228720E+01  0.40659132080E+02  0.00000000000E+00 0. -1.
         11    1    3    3    0    0  0.16269190151E+02  0.41930564838E+01 -0.65765822123E+01  0.18042164634E+02  0.51100000000E-03 0.  1.
        -11    1    3    3    0    0  0.46494965542E+01  0.29122607710E+01  0.63543299761E+01  0.83950336933E+01  0.51100000000E-03 0. -1.
        -12    1    3    3    0    0  0.61350247498E+01  0.22953511984E+02 -0.39882706358E+01  0.24091669592E+02  0.00000000000E+00 0.  1.
</event>
<event>
 7    1  0.3699212E-011  0.5052887E+02  0.7816164E-02  0.1300439E+00
        -11   -1    0    0    0    0  0.00000000000E+00  0.00000000000E+00  0.45593999997E+02  0.45594000000E+02  0.51100000000E-03 0. -1.
         11   -1    0    0    0    0 -0.00000000000E+00 -0.00000000000E+00 -0.45593999997E+02  0.45594000000E+02  0.51100000000E-03 0.  1.
    9900012    2    1    2    0    0  0.40174752835E+02 -0.59613399144E+01 -0.19017197113E+01  0.50528869700E+02  0.30000029939E+02 0.  0.
         12    1    1    2    0    0 -0.40174752835E+02  0.59613399144E+01  0.19017197113E+01  0.40659130300E+02  0.00000000000E+00 0. -1.
         11    1    3    3    0    0  0.13915377543E+01 -0.54295872024E+01 -0.57046547601E+01  0.79974921509E+01  0.51100000000E-03 0.  1.
        -11    1    3    3    0    0  0.50026397057E+01  0.31441106879E+01  0.60762765327E+01  0.84754334878E+01  0.51100000000E-03 0. -1.
        -12    1    3    3    0    0  0.33780575375E+02 -0.36758633999E+01 -0.22733414838E+01  0.34055944061E+02  0.00000000000E+00 0.  1.
</event>
<event>
 7    1  0.2500839E-011  0.5052887E+02  0.7816164E-02  0.1300439E+00
        -11   -1    0    0    0    0  0.00000000000E+00  0.00000000000E+00  0.45593999997E+02  0.45594000000E+02  0.51100000000E-03 0.  1.
         11   -1    0    0    0    0 -0.00000000000E+00 -0.00000000000E+00 -0.45593999997E+02  0.45594000000E+02  0.51100000000E-03 0. -1.
    9900012    2    1    2    0    0 -0.70491594396E+01  0.39696294601E+02 -0.52610165418E+01  0.50528871272E+02  0.30000034719E+02 0.  0.
         12    1    1    2    0    0  0.70491594396E+01 -0.39696294601E+02  0.52610165418E+01  0.40659128728E+02  0.00000000000E+00 0. -1.
         11    1    3    3    0    0  0.32377446209E+01  0.61303480771E+01 -0.41034244637E+01  0.80561932926E+01  0.51100000000E-03 0. -1.
        -11    1    3    3    0    0  0.40354154105E+01  0.21721410151E+02  0.54363134833E+01  0.22752093113E+02  0.51100000000E-03 0.  1.
        -12    1    3    3    0    0 -0.14322319471E+02  0.11844536373E+02 -0.65939055615E+01  0.19720584867E+02  0.00000000000E+00 0.  1.
</event>
<event>
 7    1  0.2500839E-011  0.5052886E+02  0.7816164E-02  0.1300439E+00
        -11   -1    0    0    0    0  0.00000000000E+00  0.00000000000E+00  0.45593999997E+02  0.45594000000E+02  0.51100000000E-03 0.  1.
         11   -1    0    0    0    0 -0.00000000000E+00 -0.00000000000E+00 -0.45593999997E+02  0.45594000000E+02  0.51100000000E-03 0. -1.
    9900012    2    1    2    0    0  0.25173370391E+01  0.28830812916E+02  0.28558943701E+02  0.50528855586E+02  0.29999987039E+02 0.  0.
         12    1    1    2    0    0 -0.25173370391E+01 -0.28830812916E+02 -0.28558943701E+02  0.40659144414E+02  0.00000000000E+00 0. -1.
         11    1    3    3    0    0 -0.55733568643E+01 -0.22194409479E+01  0.37686151536E+01  0.70845384673E+01  0.51100000000E-03 0. -1.
        -11    1    3    3    0    0 -0.37019150334E+01  0.16685402422E+02  0.11757292716E+02  0.20744656208E+02  0.51100000000E-03 0.  1.
         12    1    3    3    0    0  0.11792608937E+02  0.14364851442E+02  0.13033035832E+02  0.22699660911E+02  0.00000000000E+00 0. -1.
</event>
<event>
 7    1  0.2500839E-011  0.5052883E+02  0.7816164E-02  0.1300439E+00
        -11   -1    0    0    0    0  0.00000000000E+00  0.00000000000E+00  0.45593999997E+02  0.45594000000E+02  0.51100000000E-03 0. -1.
         11   -1    0    0    0    0 -0.00000000000E+00 -0.00000000000E+00 -0.45593999997E+02  0.45594000000E+02  0.51100000000E-03 0.  1.
    9900012    2    1    2    0    0  0.89554996379E+01  0.12815844287E+02 -0.37532931081E+02  0.50528834317E+02  0.29999922389E+02 0.  0.
         12    1    1    2    0    0 -0.89554996379E+01 -0.12815844287E+02  0.37532931081E+02  0.40659165683E+02  0.00000000000E+00 0. -1.
         11    1    3    3    0    0 -0.26180389317E+01 -0.27599132657E+01  0.12336085010E+01  0.39991298150E+01  0.51100000000E-03 0. -1.
        -11    1    3    3    0    0  0.97283741305E+01  0.15728739049E+01 -0.80613797888E+01  0.12731890665E+02  0.51100000000E-03 0.  1.
         12    1    3    3    0    0  0.18451644391E+01  0.14002883647E+02 -0.30705159793E+02  0.33797813837E+02  0.00000000000E+00 0. -1.
</event>
<event>
 7    1  0.2500839E-011  0.5052886E+02  0.7816164E-02  0.1300439E+00
        -11   -1    0    0    0    0  0.00000000000E+00  0.00000000000E+00  0.45593999997E+02  0.45594000000E+02  0.51100000000E-03 0. -1.
         11   -1    0    0    0    0 -0.00000000000E+00 -0.00000000000E+00 -0.45593999997E+02  0.45594000000E+02  0.51100000000E-03 0.  1.
    9900012    2    1    2    0    0 -0.28473064023E+02  0.24420325718E+02 -0.15687514314E+02  0.50528858490E+02  0.29999995865E+02 0.  0.
         12    1    1    2    0    0  0.28473064023E+02 -0.24420325718E+02  0.15687514314E+02  0.40659141510E+02  0.00000000000E+00 0. -1.
         11    1    3    3    0    0  0.29687042718E+01  0.28250972892E+01  0.25656788751E+01  0.48349858426E+01  0.51100000000E-03 0. -1.
        -11    1    3    3    0    0 -0.53273454212E+01  0.13512411138E+02 -0.55364587423E+01  0.15544074101E+02  0.51100000000E-03 0.  1.
         12    1    3    3    0    0 -0.26114422873E+02  0.80828172909E+01 -0.12716734447E+02  0.30149798546E+02  0.00000000000E+00 0. -1.
</event>
<event>
 7    1  0.2500839E-011  0.5052886E+02  0.7816164E-02  0.1300439E+00
        -11   -1    0    0    0    0  0.00000000000E+00  0.00000000000E+00  0.45593999997E+02  0.45594000000E+02  0.51100000000E-03 0.  1.
         11   -1    0    0    0    0 -0.00000000000E+00 -0.00000000000E+00 -0.45593999997E+02  0.45594000000E+02  0.51100000000E-03 0. -1.
    9900012    2    1    2    0    0 -0.36896813230E+02  0.16725857017E+02  0.34693965493E+01  0.50528857954E+02  0.29999994237E+02 0.  0.
         12    1    1    2    0    0  0.36896813230E+02 -0.16725857017E+02 -0.34693965493E+01  0.40659142046E+02  0.00000000000E+00 0. -1.
         11    1    3    3    0    0 -0.12743271169E+02  0.80883332605E-01  0.77033093440E+01  0.14890885713E+02  0.51100000000E-03 0. -1.
        -11    1    3    3    0    0  0.34130854140E+01  0.56514017272E+00 -0.13502281806E+00  0.34621910520E+01  0.51100000000E-03 0.  1.
        -12    1    3    3    0    0 -0.27566627475E+02  0.16079833511E+02 -0.40988899766E+01  0.32175781189E+02  0.00000000000E+00 0.  1.
</event>
<event>
 7    1  0.2500839E-011  0.5052886E+02  0.7816164E-02  0.1300439E+00
        -11   -1    0    0    0    0  0.00000000000E+00  0.00000000000E+00  0.45593999997E+02  0.45594000000E+02  0.51100000000E-03 0.  1.
         11   -1    0    0    0    0 -0.00000000000E+00 -0.00000000000E+00 -0.45593999997E+02  0.45594000000E+02  0.51100000000E-03 0. -1.
    9900012    2    1    2    0    0  0.33991765860E+02 -0.19629364104E+02  0.10602534341E+02  0.50528858151E+02  0.29999994836E+02 0.  0.
         12    1    1    2    0    0 -0.33991765860E+02  0.19629364104E+02 -0.10602534341E+02  0.40659141849E+02  0.00000000000E+00 0. -1.
         11    1    3    3    0    0  0.10649310495E+02 -0.16553704273E+02  0.85473496695E+01  0.21459033664E+02  0.51100000000E-03 0.  1.
        -11    1    3    3    0    0  0.14019052527E+02 -0.38159732701E+01  0.92901271990E+01  0.17245345731E+02  0.51100000000E-03 0. -1.
         12    1    3    3    0    0  0.93234028391E+01  0.74031343814E+00 -0.72349425273E+01  0.11824478756E+02  0.00000000000E+00 0. -1.
</event>
<event>
 7    1  0.4215212E-011  0.5052886E+02  0.7816164E-02  0.1300439E+00
        -11   -1    0    0    0    0  0.00000000000E+00  0.00000000000E+00  0.45593999997E+02  0.45594000000E+02  0.51100000000E-03 0. -1.
         11   -1    0    0    0    0 -0.00000000000E+00 -0.00000000000E+00 -0.45593999997E+02  0.45594000000E+02  0.51100000000E-03 0.  1.
    9900012    2    1    2    0    0 -0.13146774179E+02 -0.51098340160E+01 -0.38134206017E+02  0.50528859041E+02  0.29999997542E+02 0.  0.
         12    1    1    2    0    0  0.13146774179E+02  0.51098340160E+01  0.38134206017E+02  0.40659140959E+02  0.00000000000E+00 0. -1.
         11    1    3    3    0    0 -0.10553191496E+02 -0.31714938957E+01 -0.49892973053E+01  0.12096334658E+02  0.51100000000E-03 0. -1.
        -11    1    3    3    0    0  0.26153123345E+01 -0.68119500006E+01 -0.37880287769E+01  0.82214161611E+01  0.51100000000E-03 0.  1.
        -12    1    3    3    0    0 -0.52088950172E+01  0.48736098803E+01 -0.29356879934E+02  0.30211108223E+02  0.00000000000E+00 0.  1.
</event>
<event>
 7    1  0.2500839E-011  0.5052883E+02  0.7816164E-02  0.1300439E+00
        -11   -1    0    0    0    0  0.00000000000E+00  0.00000000000E+00  0.45593999997E+02  0.45594000000E+02  0.51100000000E-03 0.  1.
         11   -1    0    0    0    0 -0.00000000000E+00 -0.00000000000E+00 -0.45593999997E+02  0.45594000000E+02  0.51100000000E-03 0. -1.
    9900012    2    1    2    0    0 -0.25225416011E+02  0.79677284598E+01  0.30876561678E+02  0.50528826733E+02  0.29999899337E+02 0.  0.
         12    1    1    2    0    0  0.25225416011E+02 -0.79677284598E+01 -0.30876561678E+02  0.40659173267E+02  0.00000000000E+00 0. -1.
         11    1    3    3    0    0  0.16896300451E+01 -0.21870593802E+01  0.35889842047E+00  0.27869134825E+01  0.51100000000E-03 0. -1.
        -11    1    3    3    0    0 -0.10844109497E+02  0.58104582802E+01 -0.74259751402E+00  0.12325079616E+02  0.51100000000E-03 0.  1.
        -12    1    3    3    0    0 -0.16070936558E+02  0.43443295597E+01  0.31260260771E+02  0.35416833634E+02  0.00000000000E+00 0.  1.
</event>
<event>
 7    1  0.2500839E-011  0.5052886E+02  0.7816164E-02  0.1300439E+00
        -11   -1    0    0    0    0  0.00000000000E+00  0.00000000000E+00  0.45593999997E+02  0.45594000000E+02  0.51100000000E-03 0. -1.
         11   -1    0    0    0    0 -0.00000000000E+00 -0.00000000000E+00 -0.45593999997E+02  0.45594000000E+02  0.51100000000E-03 0.  1.
    9900012    2    1    2    0    0  0.46736947373E+01  0.25570318839E+02 -0.31264687327E+02  0.50528864475E+02  0.30000014057E+02 0.  0.
         12    1    1    2    0    0 -0.46736947373E+01 -0.25570318839E+02  0.31264687327E+02  0.40659135525E+02  0.00000000000E+00 0. -1.
         11    1    3    3    0    0 -0.21587823950E+01 -0.72157230786E+00 -0.12804911903E+01  0.26116404756E+01  0.51100000000E-03 0. -1.
        -11    1    3    3    0    0  0.31381569324E+00  0.21438083509E+02 -0.55217062544E+01  0.22139989726E+02  0.51100000000E-03 0.  1.
         12    1    3    3    0    0  0.65186614390E+01  0.48538076371E+01 -0.24462489882E+02  0.25777234273E+02  0.00000000000E+00 0. -1.
</event>
<event>
 7    1  0.2500839E-011  0.5052886E+02  0.7816164E-02  0.1300439E+00
        -11   -1    0    0    0    0  0.00000000000E+00  0.00000000000E+00  0.45593999997E+02  0.45594000000E+02  0.51100000000E-03 0.  1.
         11   -1    0    0    0    0 -0.00000000000E+00 -0.00000000000E+00 -0.45593999997E+02  0.45594000000E+02  0.51100000000E-03 0. -1.
    9900012    2    1    2    0    0 -0.33825003099E+02 -0.18184351372E+02  0.13355295355E+02  0.50528863468E+02  0.30000010998E+02 0.  0.
         12    1    1    2    0    0  0.33825003099E+02  0.18184351372E+02 -0.13355295355E+02  0.40659136532E+02  0.00000000000E+00 0. -1.
         11    1    3    3    0    0  0.72717516836E+00 -0.27082139325E+01  0.20613461766E+01  0.34802808436E+01  0.51100000000E-03 0. -1.
        -11    1    3    3    0    0 -0.71138950505E+01  0.64671390080E+01 -0.13513933894E+01  0.97086381173E+01  0.51100000000E-03 0.  1.
        -12    1    3    3    0    0 -0.27438283217E+02 -0.21943276447E+02  0.12645342568E+02  0.37339944507E+02  0.00000000000E+00 0.  1.
</event>
<event>
 7    1  0.2500839E-011  0.5052887E+02  0.7816164E-02  0.1300439E+00
        -11   -1    0    0    0    0  0.00000000000E+00  0.00000000000E+00  0.45593999997E+02  0.45594000000E+02  0.51100000000E-03 0. -1.
         11   -1    0    0    0    0 -0.00000000000E+00 -0.00000000000E+00 -0.45593999997E+02  0.45594000000E+02  0.51100000000E-03 0.  1.
    9900012    2    1    2    0    0 -0.14515834645E+01  0.37995558350E+02  0.14401235735E+02  0.50528866467E+02  0.30000020114E+02 0.  0.
         12    1    1    2    0    0  0.14515834645E+01 -0.37995558350E+02 -0.14401235735E+02  0.40659133533E+02  0.00000000000E+00 0. -1.
         11    1    3    3    0    0  0.33964524938E+01  0.28256796420E+01 -0.29599238387E+01  0.53180357627E+01  0.51100000000E-03 0. -1.
        -11    1    3    3    0    0 -0.39240917419E+01  0.25673048533E+02  0.66406808794E+00  0.25979701762E+02  0.51100000000E-03 0.  1.
        -12    1    3    3    0    0 -0.92394421635E+00  0.94968301752E+01  0.16697091486E+02  0.19231128942E+02  0.00000000000E+00 0.  1.
</event>
<event>
 7    1  0.2500839E-011  0.5052885E+02  0.7816164E-02  0.1300439E+00
        -11   -1    0    0    0    0  0.00000000000E+00  0.00000000000E+00  0.45593999997E+02  0.45594000000E+02  0.51100000000E-03 0.  1.
         11   -1    0    0    0    0 -0.00000000000E+00 -0.00000000000E+00 -0.45593999997E+02  0.45594000000E+02  0.51100000000E-03 0. -1.
    9900012    2    1    2    0    0  0.34475779861E+02  0.12165357792E+02 -0.17793011448E+02  0.50528848711E+02  0.29999966141E+02 0.  0.
         12    1    1    2    0    0 -0.34475779861E+02 -0.12165357792E+02  0.17793011448E+02  0.40659151289E+02  0.00000000000E+00 0. -1.
         11    1    3    3    0    0  0.23352500549E+02  0.53172634909E+01 -0.22124128001E+02  0.32605055022E+02  0.51100000000E-03 0. -1.
        -11    1    3    3    0    0  0.81278982391E+00 -0.24474981788E+01 -0.13656713936E+01  0.29182071978E+01  0.51100000000E-03 0.  1.
         12    1    3    3    0    0  0.10310489488E+02  0.92955924795E+01  0.56967879469E+01  0.15005586491E+02  0.00000000000E+00 0. -1.
</event>
<event>
 7    1  0.2500839E-011  0.5052886E+02  0.7816164E-02  0.1300439E+00
        -11   -1    0    0    0    0  0.00000000000E+00  0.00000000000E+00  0.45593999997E+02  0.45594000000E+02  0.51100000000E-03 0.  1.
         11   -1    0    0    0    0 -0.00000000000E+00 -0.00000000000E+00 -0.45593999997E+02  0.45594000000E+02  0.51100000000E-03 0. -1.
    9900012    2    1    2    0    0 -0.15322037967E+02 -0.30539368493E+02  0.22039679650E+02  0.50528863825E+02  0.30000012082E+02 0.  0.
         12    1    1    2    0    0  0.15322037967E+02  0.30539368493E+02 -0.22039679650E+02  0.40659136175E+02  0.00000000000E+00 0. -1.
         11    1    3    3    0    0 -0.18312934095E+01 -0.61312977641E+01  0.11798892675E+02  0.13422381176E+02  0.51100000000E-03 0. -1.
        -11    1    3    3    0    0  0.54623497938E+01 -0.39558109098E+01  0.57509747390E+01  0.88633749742E+01  0.51100000000E-03 0.  1.
         12    1    3    3    0    0 -0.18953094351E+02 -0.20452259819E+02  0.44898122366E+01  0.28243107675E+02  0.00000000000E+00 0. -1.
</event>
<event>
 7    1  0.2500839E-011  0.5052885E+02  0.7816164E-02  0.1300439E+00
        -11   -1    0    0    0    0  0.00000000000E+00  0.00000000000E+00  0.45593999997E+02  0.45594000000E+02  0.51100000000E-03 0.  1.
         11   -1    0    0    0    0 -0.00000000000E+00 -0.00000000000E+00 -0.45593999997E+02  0.45594000000E+02  0.51100000000E-03 0. -1.
    9900012    2    1    2    0    0  0.10895193769E+01 -0.26806486396E+02  0.30551457324E+02  0.50528852075E+02  0.29999976367E+02 0.  0.
         12    1    1    2    0    0 -0.10895193769E+01  0.26806486396E+02 -0.30551457324E+02  0.40659147925E+02  0.00000000000E+00 0. -1.
         11    1    3    3    0    0  0.12943099215E+00 -0.76035965178E+01 -0.22000514770E+01  0.79165433840E+01  0.51100000000E-03 0. -1.
        -11    1    3    3    0    0 -0.69566961577E+01 -0.17411064419E+02  0.19345684722E+02  0.26940606958E+02  0.51100000000E-03 0.  1.
        -12    1    3    3    0    0  0.79167845424E+01 -0.17918254588E+01  0.13405824079E+02  0.15671701733E+02  0.00000000000E+00 0.  1.
</event>
<event>
 7    1  0.2500839E-011  0.5052885E+02  0.7816164E-02  0.1300439E+00
        -11   -1    0    0    0    0  0.00000000000E+00  0.00000000000E+00  0.45593999997E+02  0.45594000000E+02  0.51100000000E-03 0. -1.
         11   -1    0    0    0    0 -0.00000000000E+00 -0.00000000000E+00 -0.45593999997E+02  0.45594000000E+02  0.51100000000E-03 0.  1.
    9900012    2    1    2    0    0 -0.25424271851E+02 -0.28726212922E+02 -0.13475065985E+02  0.50528852059E+02  0.29999976320E+02 0.  0.
         12    1    1    2    0    0  0.25424271851E+02  0.28726212922E+02  0.13475065985E+02  0.40659147941E+02  0.00000000000E+00 0. -1.
         11    1    3    3    0    0 -0.22083075459E+00 -0.32983016495E+01 -0.41131103313E+01  0.52768586159E+01  0.51100000000E-03 0. -1.
        -11    1    3    3    0    0 -0.30594274699E+02 -0.20039748623E+02 -0.87512902417E+01  0.37605667796E+02  0.51100000000E-03 0.  1.
         12    1    3    3    0    0  0.53908336027E+01 -0.53881626490E+01 -0.61066541177E+00  0.76463256476E+01  0.00000000000E+00 0. -1.
</event>
<event>
 7    1  0.2500839E-011  0.5052886E+02  0.7816164E-02  0.1300439E+00
        -11   -1    0    0    0    0  0.00000000000E+00  0.00000000000E+00  0.45593999997E+02  0.45594000000E+02  0.51100000000E-03 0. -1.
         11   -1    0    0    0    0 -0.00000000000E+00 -0.00000000000E+00 -0.45593999997E+02  0.45594000000E+02  0.51100000000E-03 0.  1.
    9900012    2    1    2    0    0  0.27337473995E+02  0.78726994789E+01 -0.29049071514E+02  0.50528862806E+02  0.30000008986E+02 0.  0.
         12    1    1    2    0    0 -0.27337473995E+02 -0.78726994789E+01  0.29049071514E+02  0.40659137194E+02  0.00000000000E+00 0. -1.
         11    1    3    3    0    0  0.10648563295E+02  0.51492913723E+01 -0.67032382337E+01  0.13595606090E+02  0.51100000000E-03 0.  1.
        -11    1    3    3    0    0  0.18313690315E+02 -0.65117585730E+01 -0.11452871798E+02  0.22560197812E+02  0.51100000000E-03 0. -1.
         12    1    3    3    0    0 -0.16247796141E+01  0.92351666796E+01 -0.10892961483E+02  0.14373058904E+02  0.00000000000E+00 0. -1.
</event>
<event>
 7    1  0.2500839E-011  0.5052886E+02  0.7816164E-02  0.1300439E+00
        -11   -1    0    0    0    0  0.00000000000E+00  0.00000000000E+00  0.45593999997E+02  0.45594000000E+02  0.51100000000E-03 0. -1.
         11   -1    0    0    0    0 -0.00000000000E+00 -0.00000000000E+00 -0.45593999997E+02  0.45594000000E+02  0.51100000000E-03 0.  1.
    9900012    2    1    2    0    0  0.46090952851E+01 -0.19881336747E+02 -0.35166096162E+02  0.50528860444E+02  0.30000001805E+02 0.  0.
         12    1    1    2    0    0 -0.46090952851E+01  0.19881336747E+02  0.35166096162E+02  0.40659139556E+02  0.00000000000E+00 0. -1.
         11    1    3    3    0    0 -0.81265977649E+00 -0.16737741676E+02 -0.38402579449E+01  0.17191858354E+02  0.51100000000E-03 0. -1.
        -11    1    3    3    0    0  0.46665647054E+01 -0.90048372806E+00 -0.49757382021E+01  0.68808188474E+01  0.51100000000E-03 0.  1.
        -12    1    3    3    0    0  0.75519035623E+00 -0.22431113427E+01 -0.26350100015E+02  0.26456183242E+02  0.00000000000E+00 0.  1.
</event>
<event>
 7    1  0.2500839E-011  0.5052887E+02  0.7816164E-02  0.1300439E+00
        -11   -1    0    0    0    0  0.00000000000E+00  0.00000000000E+00  0.45593999997E+02  0.45594000000E+02  0.51100000000E-03 0. -1.
         11   -1    0    0    0    0 -0.00000000000E+00 -0.00000000000E+00 -0.45593999997E+02  0.45594000000E+02  0.51100000000E-03 0.  1.
    9900012    2    1    2    0    0  0.11157524892E+02  0.38755010150E+02 -0.51695129316E+01  0.50528867724E+02  0.30000023935E+02 0.  0.
         12    1    1    2    0    0 -0.11157524892E+02 -0.38755010150E+02  0.51695129316E+01  0.40659132276E+02  0.00000000000E+00 0. -1.
         11    1    3    3    0    0 -0.20257139469E+01  0.95499550845E+01 -0.60558020477E+01  0.11488163379E+02  0.51100000000E-03 0. -1.
        -11    1    3    3    0    0 -0.19219154335E+00  0.23858121994E+02  0.42849277340E+01  0.24240617331E+02  0.51100000000E-03 0.  1.
        -12    1    3    3    0    0  0.13375430382E+02  0.53469330722E+01 -0.33986386179E+01  0.14800087014E+02  0.00000000000E+00 0.  1.
</event>
<event>
 7    1  0.2500839E-011  0.5052884E+02  0.7816164E-02  0.1300439E+00
        -11   -1    0    0    0    0  0.00000000000E+00  0.00000000000E+00  0.45593999997E+02  0.45594000000E+02  0.51100000000E-03 0.  1.
         11   -1    0    0    0    0 -0.00000000000E+00 -0.00000000000E+00 -0.45593999997E+02  0.45594000000E+02  0.51100000000E-03 0. -1.
    9900012    2    1    2    0    0 -0.15504184710E+02  0.37304563238E+02  0.45996437704E+01  0.50528844762E+02  0.29999954138E+02 0.  0.
         12    1    1    2    0    0  0.15504184710E+02 -0.37304563238E+02 -0.45996437704E+01  0.40659155238E+02  0.00000000000E+00 0. -1.
         11    1    3    3    0    0 -0.59613575217E+00 -0.22003444601E+01  0.37695326898E+01  0.44052548779E+01  0.51100000000E-03 0. -1.
        -11    1    3    3    0    0  0.34164567554E+01  0.10763512548E+02 -0.33576410923E+01  0.11781304388E+02  0.51100000000E-03 0.  1.
        -12    1    3    3    0    0 -0.18324505713E+02  0.28741395150E+02  0.41877521730E+01  0.34342285496E+02  0.00000000000E+00 0.  1.
</event>
<event>
 7    1  0.2500839E-011  0.5052886E+02  0.7816164E-02  0.1300439E+00
        -11   -1    0    0    0    0  0.00000000000E+00  0.00000000000E+00  0.45593999997E+02  0.45594000000E+02  0.51100000000E-03 0. -1.
         11   -1    0    0    0    0 -0.00000000000E+00 -0.00000000000E+00 -0.45593999997E+02  0.45594000000E+02  0.51100000000E-03 0.  1.
    9900012    2    1    2    0    0 -0.29905309534E+02  0.75762680550E+01 -0.26484683326E+02  0.50528858016E+02  0.29999994426E+02 0.  0.
         12    1    1    2    0    0  0.29905309534E+02 -0.75762680550E+01  0.26484683326E+02  0.40659141984E+02  0.00000000000E+00 0. -1.
         11    1    3    3    0    0 -0.32862487185E+01  0.41249949904E+01 -0.86541046673E+01  0.10134522296E+02  0.51100000000E-03 0.  1.
        -11    1    3    3    0    0  0.96224302407E+00 -0.59187770811E+01 -0.72366647356E+01  0.93982525253E+01  0.51100000000E-03 0. -1.
        -12    1    3    3    0    0 -0.27581303840E+02  0.93700501457E+01 -0.10593913923E+02  0.30996083195E+02  0.00000000000E+00 0.  1.
</event>
<event>
 7    1  0.2500839E-011  0.5052886E+02  0.7816164E-02  0.1300439E+00
        -11   -1    0    0    0    0  0.00000000000E+00  0.00000000000E+00  0.45593999997E+02  0.45594000000E+02  0.51100000000E-03 0.  1.
         11   -1    0    0    0    0 -0.00000000000E+00 -0.00000000000E+00 -0.45593999997E+02  0.45594000000E+02  0.51100000000E-03 0. -1.
    9900012    2    1    2    0    0  0.73219154592E+01  0.23309776597E+02  0.32499374044E+02  0.50528862722E+02  0.30000008730E+02 0.  0.
         12    1    1    2    0    0 -0.73219154592E+01 -0.23309776597E+02 -0.32499374044E+02  0.40659137278E+02  0.00000000000E+00 0. -1.
         11    1    3    3    0    0  0.80551983819E+01  0.11111322005E+02  0.20312743623E+02  0.24514388661E+02  0.51100000000E-03 0. -1.
        -11    1    3    3    0    0  0.22291231598E+01  0.16860095856E+02  0.68509228499E+01  0.18334856599E+02  0.51100000000E-03 0.  1.
         12    1    3    3    0    0 -0.29624060826E+01 -0.46616412648E+01  0.53357075703E+01  0.76796174615E+01  0.00000000000E+00 0. -1.
</event>
<event>
 7    1  0.2500839E-011  0.5052886E+02  0.7816164E-02  0.1300439E+00
        -11   -1    0    0    0    0  0.00000000000E+00  0.00000000000E+00  0.45593999997E+02  0.45594000000E+02  0.51100000000E-03 0.  1.
         11   -1    0    0    0    0 -0.00000000000E+00 -0.00000000000E+00 -0.45593999997E+02  0.45594000000E+02  0.51100000000E-03 0. -1.
    9900012    2    1    2    0    0  0.16979213143E+02 -0.14648738273E+02  0.33915874414E+02  0.50528858971E+02  0.29999997329E+02 0.  0.
         12    1    1    2    0    0 -0.16979213143E+02  0.14648738273E+02 -0.33915874414E+02  0.40659141029E+02  0.00000000000E+00 0. -1.
         11    1    3    3    0    0 -0.56928212746E+01  0.11607731888E+01  0.91834565140E+01  0.10866990488E+02  0.51100000000E-03 0. -1.
        -11    1    3    3    0    0  0.79702857640E+01 -0.35435897027E+01  0.16815156756E+02  0.18942860928E+02  0.51100000000E-03 0.  1.
         12    1    3    3    0    0  0.14701748653E+02 -0.12265921759E+02  0.79172611438E+01  0.20719007556E+02  0.00000000000E+00 0. -1.
</event>
<event>
 7    1  0.2500839E-011  0.5052886E+02  0.7816164E-02  0.1300439E+00
        -11   -1    0    0    0    0  0.00000000000E+00  0.00000000000E+00  0.45593999997E+02  0.45594000000E+02  0.51100000000E-03 0.  1.
         11   -1    0    0    0    0 -0.00000000000E+00 -0.00000000000E+00 -0.45593999997E+02  0.45594000000E+02  0.51100000000E-03 0. -1.
    9900012    2    1    2    0    0 -0.84699762880E+01  0.38661794981E+02  0.93107954782E+01  0.50528858323E+02  0.29999995358E+02 0.  0.
         12    1    1    2    0    0  0.84699762880E+01 -0.38661794981E+02 -0.93107954782E+01  0.40659141677E+02  0.00000000000E+00 0. -1.
         11    1    3    3    0    0 -0.12731790994E+02  0.87581234482E+01  0.10393666237E+02  0.18623413392E+02  0.51100000000E-03 0. -1.
        -11    1    3    3    0    0  0.46748647346E+01  0.45287389996E+01 -0.23484298638E+00  0.65129861587E+01  0.51100000000E-03 0.  1.
        -12    1    3    3    0    0 -0.41305002840E+00  0.25374932533E+02 -0.84802777281E+00  0.25392458772E+02  0.00000000000E+00 0.  1.
</event>
<event>
 7    1  0.2500839E-011  0.5052884E+02  0.7816164E-02  0.1300439E+00
        -11   -1    0    0    0    0  0.00000000000E+00  0.00000000000E+00  0.45593999997E+02  0.45594000000E+02  0.51100000000E-03 0.  1.
         11   -1    0    0    0    0 -0.00000000000E+00 -0.00000000000E+00 -0.45593999997E+02  0.45594000000E+02  0.51100000000E-03 0. -1.
    9900012    2    1    2    0    0 -0.28131632253E+02  0.76136823844E+01  0.28351544597E+02  0.50528843913E+02  0.29999951557E+02 0.  0.
         12    1    1    2    0    0  0.28131632253E+02 -0.76136823844E+01 -0.28351544597E+02  0.40659156087E+02  0.00000000000E+00 0. -1.
         11    1    3    3    0    0  0.29167206087E+01  0.65524071540E+01  0.83985430657E+01  0.11044311862E+02  0.51100000000E-03 0. -1.
        -11    1    3    3    0    0 -0.24889452318E+01  0.27772585500E+01  0.73065524180E+01  0.82032750727E+01  0.51100000000E-03 0.  1.
         12    1    3    3    0    0 -0.28559407630E+02 -0.17159833195E+01  0.12646449114E+02  0.31281256978E+02  0.00000000000E+00 0. -1.
</event>
<event>
 7    1  0.2500839E-011  0.5052887E+02  0.7816164E-02  0.1300439E+00
        -11   -1    0    0    0    0  0.00000000000E+00  0.00000000000E+00  0.45593999997E+02  0.45594000000E+02  0.51100000000E-03 0.  1.
         11   -1    0    0    0    0 -0.00000000000E+00 -0.00000000000E+00 -0.45593999997E+02  0.45594000000E+02  0.51100000000E-03 0. -1.
    9900012    2    1    2    0    0 -0.15675718916E+02 -0.15642044681E+02  0.34099309626E+02  0.50528872583E+02  0.30000038704E+02 0.  0.
         12    1    1    2    0    0  0.15675718916E+02  0.15642044681E+02 -0.34099309626E+02  0.40659127417E+02  0.00000000000E+00 0. -1.
         11    1    3    3    0    0 -0.26431874126E+01 -0.10604904669E+01  0.95633090982E+01  0.99783746621E+01  0.51100000000E-03 0. -1.
        -11    1    3    3    0    0 -0.41940161191E+01  0.65558781349E+01  0.12483947042E+01  0.78821189363E+01  0.51100000000E-03 0.  1.
        -12    1    3    3    0    0 -0.88385153841E+01 -0.21137432349E+02  0.23287605823E+02  0.32668378985E+02  0.00000000000E+00 0.  1.
</event>
<event>
 7    1  0.2500839E-011  0.5052887E+02  0.7816164E-02  0.1300439E+00
        -11   -1    0    0    0    0  0.00000000000E+00  0.00000000000E+00  0.45593999997E+02  0.45594000000E+02  0.51100000000E-03 0.  1.
         11   -1    0    0    0    0 -0.00000000000E+00 -0.00000000000E+00 -0.45593999997E+02  0.45594000000E+02  0.51100000000E-03 0. -1.
    9900012    2    1    2    0    0 -0.29461098409E+02  0.26354589012E+02  0.95207340163E+01  0.50528867475E+02  0.30000023178E+02 0.  0.
         12    1    1    2    0    0  0.29461098409E+02 -0.26354589012E+02 -0.95207340163E+01  0.40659132525E+02  0.00000000000E+00 0. -1.
         11    1    3    3    0    0 -0.16820329877E+02  0.11032732131E+02 -0.10340336614E+01  0.20142341009E+02  0.51100000000E-03 0. -1.
        -11    1    3    3    0    0 -0.17113599862E+02  0.80058637580E+01  0.33537014904E+01  0.19188967370E+02  0.51100000000E-03 0.  1.
        -12    1    3    3    0    0  0.44728313310E+01  0.73159931230E+01  0.72010661873E+01  0.11197559097E+02  0.00000000000E+00 0.  1.
</event>
<event>
 7    1  0.2500839E-011  0.5052886E+02  0.7816164E-02  0.1300439E+00
        -11   -1    0    0    0    0  0.00000000000E+00  0.00000000000E+00  0.45593999997E+02  0.45594000000E+02  0.51100000000E-03 0.  1.
         11   -1    0    0    0    0 -0.00000000000E+00 -0.00000000000E+00 -0.45593999997E+02  0.45594000000E+02  0.51100000000E-03 0. -1.
    9900012    2    1    2    0    0  0.40195827930E+02 -0.19332585719E+01  0.58072032726E+01  0.50528859803E+02  0.29999999858E+02 0.  0.
         12    1    1    2    0    0 -0.40195827930E+02  0.19332585719E+01 -0.58072032726E+01  0.40659140197E+02  0.00000000000E+00 0. -1.
         11    1    3    3    0    0  0.95268485223E+01  0.33678455904E+01  0.74555032470E+01  0.12557378533E+02  0.51100000000E-03 0. -1.
        -11    1    3    3    0    0  0.32417671321E+02 -0.29036111864E+01  0.27525375814E+01  0.32663631690E+02  0.51100000000E-03 0.  1.
        -12    1    3    3    0    0 -0.17486919130E+01 -0.23974929759E+01 -0.44008375558E+01  0.53078495805E+01  0.00000000000E+00 0.  1.
</event>
<event>
 7    1  0.2500839E-011  0.5052886E+02  0.7816164E-02  0.1300439E+00
        -11   -1    0    0    0    0  0.00000000000E+00  0.00000000000E+00  0.45593999997E+02  0.45594000000E+02  0.51100000000E-03 0.  1.
         11   -1    0    0    0    0 -0.00000000000E+00 -0.00000000000E+00 -0.45593999997E+02  0.45594000000E+02  0.51100000000E-03 0. -1.
    9900012    2    1    2    0    0  0.32746129100E+02 -0.12715054030E+02  0.20473987990E+02  0.50528858909E+02  0.29999997140E+02 0.  0.
         12    1    1    2    0    0 -0.32746129100E+02  0.12715054030E+02 -0.20473987990E+02  0.40659141091E+02  0.00000000000E+00 0. -1.
         11    1    3    3    0    0  0.56369583820E+01 -0.96790859210E+01  0.12868051436E+02  0.17060092382E+02  0.51100000000E-03 0. -1.
        -11    1    3    3    0    0  0.34326935172E+00  0.12761155531E+01 -0.38246915386E+01  0.40465504296E+01  0.51100000000E-03 0.  1.
        -12    1    3    3    0    0  0.26765901367E+02 -0.43120836624E+01  0.11430628092E+02  0.29422216097E+02  0.00000000000E+00 0.  1.
</event>
<event>
 7    1  0.2500839E-011  0.5052884E+02  0.7816164E-02  0.1300439E+00
        -11   -1    0    0    0    0  0.00000000000E+00  0.00000000000E+00  0.45593999997E+02  0.45594000000E+02  0.51100000000E-03 0.  1.
         11   -1    0    0    0    0 -0.00000000000E+00 -0.00000000000E+00 -0.45593999997E+02  0.45594000000E+02  0.51100000000E-03 0. -1.
    9900012    2    1    2    0    0  0.33333123860E+02  0.74522805911E+01  0.22057500697E+02  0.50528843967E+02  0.29999951722E+02 0.  0.
         12    1    1    2    0    0 -0.33333123860E+02 -0.74522805911E+01 -0.22057500697E+02  0.40659156033E+02  0.00000000000E+00 0. -1.
         11    1    3    3    0    0 -0.11197470720E+01 -0.34586579572E-01 -0.35111248317E+01  0.36855159180E+01  0.51100000000E-03 0. -1.
        -11    1    3    3    0    0  0.10758136992E+02 -0.42396844752E+01  0.26700689871E+01  0.11867674779E+02  0.51100000000E-03 0.  1.
         12    1    3    3    0    0  0.23694733940E+02  0.11726551646E+02  0.22898556542E+02  0.34975653270E+02  0.00000000000E+00 0. -1.
</event>
<event>
 7    1  0.2500839E-011  0.5052885E+02  0.7816164E-02  0.1300439E+00
        -11   -1    0    0    0    0  0.00000000000E+00  0.00000000000E+00  0.45593999997E+02  0.45594000000E+02  0.51100000000E-03 0.  1.
         11   -1    0    0    0    0 -0.00000000000E+00 -0.00000000000E+00 -0.45593999997E+02  0.45594000000E+02  0.51100000000E-03 0. -1.
    9900012    2    1    2    0    0 -0.39471174650E+02  0.72292624917E+01 -0.65521203351E+01  0.50528854100E+02  0.29999982522E+02 0.  0.
         12    1    1    2    0    0  0.39471174650E+02 -0.72292624917E+01  0.65521203351E+01  0.40659145900E+02  0.00000000000E+00 0. -1.
         11    1    3    3    0    0 -0.22364445860E+02 -0.40611121002E+01  0.13508688214E+01  0.22770285834E+02  0.51100000000E-03 0. -1.
        -11    1    3    3    0    0 -0.18968323512E+02  0.67963475158E+01 -0.22092675186E+01  0.20269891457E+02  0.51100000000E-03 0.  1.
         12    1    3    3    0    0  0.18615947223E+01  0.44940270761E+01 -0.56937216380E+01  0.74886768098E+01  0.00000000000E+00 0. -1.
</event>
<event>
 7    1  0.2500839E-011  0.5052886E+02  0.7816164E-02  0.1300439E+00
        -11   -1    0    0    0    0  0.00000000000E+00  0.00000000000E+00  0.45593999997E+02  0.45594000000E+02  0.51100000000E-03 0. -1.
         11   -1    0    0    0    0 -0.00000000000E+00 -0.00000000000E+00 -0.45593999997E+02  0.45594000000E+02  0.51100000000E-03 0.  1.
    9900012    2    1    2    0    0  0.27803017458E+02  0.14148254221E+02 -0.26076518389E+02  0.50528859717E+02  0.29999999595E+02 0.  0.
         12    1    1    2    0    0 -0.27803017458E+02 -0.14148254221E+02  0.26076518389E+02  0.40659140283E+02  0.00000000000E+00 0. -1.
         11    1    3    3    0    0  0.11226531304E+02  0.41063324590E+01 -0.20653274155E+02  0.23863250092E+02  0.51100000000E-03 0. -1.
        -11    1    3    3    0    0  0.19515110836E+02  0.51754802967E+01 -0.56845705531E+01  0.20974734560E+02  0.51100000000E-03 0.  1.
         12    1    3    3    0    0 -0.29386246816E+01  0.48664414657E+01  0.26132631878E+00  0.56908750648E+01  0.00000000000E+00 0. -1.
</event>
<event>
 7    1  0.2500839E-011  0.5052886E+02  0.7816164E-02  0.1300439E+00
        -11   -1    0    0    0    0  0.00000000000E+00  0.00000000000E+00  0.45593999997E+02  0.45594000000E+02  0.51100000000E-03 0.  1.
         11   -1    0    0    0    0 -0.00000000000E+00 -0.00000000000E+00 -0.45593999997E+02  0.45594000000E+02  0.51100000000E-03 0. -1.
    9900012    2    1    2    0    0  0.39353015585E+02 -0.78900999956E+01 -0.65001784175E+01  0.50528857940E+02  0.29999994196E+02 0.  0.
         12    1    1    2    0    0 -0.39353015585E+02  0.78900999956E+01  0.65001784175E+01  0.40659142060E+02  0.00000000000E+00 0. -1.
         11    1    3    3    0    0  0.84038229037E+01 -0.71474785904E+01  0.74846224532E+01  0.13331551415E+02  0.51100000000E-03 0. -1.
        -11    1    3    3    0    0  0.15660034255E+02 -0.17770249786E+00  0.11157005780E+01  0.15700733711E+02  0.51100000000E-03 0.  1.
        -12    1    3    3    0    0  0.15289158427E+02 -0.56491890730E+00 -0.15100501449E+02  0.21496572814E+02  0.00000000000E+00 0.  1.
</event>
<event>
 7    1  0.2500839E-011  0.5052886E+02  0.7816164E-02  0.1300439E+00
        -11   -1    0    0    0    0  0.00000000000E+00  0.00000000000E+00  0.45593999997E+02  0.45594000000E+02  0.51100000000E-03 0.  1.
         11   -1    0    0    0    0 -0.00000000000E+00 -0.00000000000E+00 -0.45593999997E+02  0.45594000000E+02  0.51100000000E-03 0. -1.
    9900012    2    1    2    0    0  0.60236967403E+01  0.25267420528E+02  0.31280001484E+02  0.50528856436E+02  0.29999989622E+02 0.  0.
         12    1    1    2    0    0 -0.60236967403E+01 -0.25267420528E+02 -0.31280001484E+02  0.40659143564E+02  0.00000000000E+00 0. -1.
         11    1    3    3    0    0  0.74858828249E+01  0.14322623425E+02  0.40106960062E+01  0.16651176119E+02  0.51100000000E-03 0. -1.
        -11    1    3    3    0    0  0.34157796662E-01  0.14148529090E+02  0.26806956355E+02  0.30311630630E+02  0.51100000000E-03 0.  1.
         12    1    3    3    0    0 -0.14963438813E+01 -0.32037319869E+01  0.46234912245E+00  0.35660496864E+01  0.00000000000E+00 0. -1.
</event>
<event>
 7    1  0.2500839E-011  0.5052885E+02  0.7816164E-02  0.1300439E+00
        -11   -1    0    0    0    0  0.00000000000E+00  0.00000000000E+00  0.45593999997E+02  0.45594000000E+02  0.51100000000E-03 0.  1.
         11   -1    0    0    0    0 -0.00000000000E+00 -0.00000000000E+00 -0.45593999997E+02  0.45594000000E+02  0.51100000000E-03 0. -1.
    9900012    2    1    2    0    0  0.83665837139E+00 -0.22763542775E+02  0.33679192190E+02  0.50528845269E+02  0.29999955679E+02 0.  0.
         12    1    1    2    0    0 -0.83665837139E+00  0.22763542775E+02 -0.33679192190E+02  0.40659154731E+02  0.00000000000E+00 0. -1.
         11    1    3    3    0    0 -0.70923285990E+01 -0.30692946385E+00  0.62365169352E+01  0.94493107895E+01  0.51100000000E-03 0. -1.
        -11    1    3    3    0    0  0.84758203471E+00 -0.73897727888E+01  0.22523565823E+02  0.23719994832E+02  0.51100000000E-03 0.  1.
        -12    1    3    3    0    0  0.70814049357E+01 -0.15066840522E+02  0.49191094316E+01  0.17359539648E+02  0.00000000000E+00 0.  1.
</event>
<event>
 7    1  0.2500839E-011  0.5052885E+02  0.7816164E-02  0.1300439E+00
        -11   -1    0    0    0    0  0.00000000000E+00  0.00000000000E+00  0.45593999997E+02  0.45594000000E+02  0.51100000000E-03 0. -1.
         11   -1    0    0    0    0 -0.00000000000E+00 -0.00000000000E+00 -0.45593999997E+02  0.45594000000E+02  0.51100000000E-03 0.  1.
    9900012    2    1    2    0    0  0.33578967671E+02  0.47999220916E+01 -0.22418294273E+02  0.50528852935E+02  0.29999978981E+02 0.  0.
         12    1    1    2    0    0 -0.33578967671E+02 -0.47999220916E+01  0.22418294273E+02  0.40659147065E+02  0.00000000000E+00 0. -1.
         11    1    3    3    0    0 -0.13897300500E+01  0.18380009168E+01  0.93314935877E+00  0.24860339839E+01  0.51100000000E-03 0. -1.
        -11    1    3    3    0    0  0.12550592035E+02  0.91952172871E+01 -0.18678674129E+02  0.24309715113E+02  0.51100000000E-03 0.  1.
         12    1    3    3    0    0  0.22418105686E+02 -0.62332961124E+01 -0.46727695028E+01  0.23733103838E+02  0.00000000000E+00 0. -1.
</event>
<event>
 7    1  0.2500839E-011  0.5052888E+02  0.7816164E-02  0.1300439E+00
        -11   -1    0    0    0    0  0.00000000000E+00  0.00000000000E+00  0.45593999997E+02  0.45594000000E+02  0.51100000000E-03 0.  1.
         11   -1    0    0    0    0 -0.00000000000E+00 -0.00000000000E+00 -0.45593999997E+02  0.45594000000E+02  0.51100000000E-03 0. -1.
    9900012    2    1    2    0    0 -0.11316468203E+02 -0.88901855775E+01  0.38027182046E+02  0.50528875236E+02  0.30000046769E+02 0.  0.
         12    1    1    2    0    0  0.11316468203E+02  0.88901855775E+01 -0.38027182046E+02  0.40659124764E+02  0.00000000000E+00 0. -1.
         11    1    3    3    0    0  0.40033719512E+01  0.85385251622E-01  0.70218447436E+01  0.80833521193E+01  0.51100000000E-03 0. -1.
        -11    1    3    3    0    0  0.43555234049E+01 -0.67094360547E+01  0.14927482144E+02  0.16935667679E+02  0.51100000000E-03 0.  1.
        -12    1    3    3    0    0 -0.19675363559E+02 -0.22661347744E+01  0.16077855158E+02  0.25509855438E+02  0.00000000000E+00 0.  1.
</event>
<event>
 7    1  0.2500839E-011  0.5052892E+02  0.7816164E-02  0.1300439E+00
        -11   -1    0    0    0    0  0.00000000000E+00  0.00000000000E+00  0.45593999997E+02  0.45594000000E+02  0.51100000000E-03 0.  1.
         11   -1    0    0    0    0 -0.00000000000E+00 -0.00000000000E+00 -0.45593999997E+02  0.45594000000E+02  0.51100000000E-03 0. -1.
    9900012    2    1    2    0    0 -0.18194512019E+02 -0.96522030008E+01  0.35056467277E+02  0.50528915058E+02  0.30000167809E+02 0.  0.
         12    1    1    2    0    0  0.18194512019E+02  0.96522030008E+01 -0.35056467277E+02  0.40659084942E+02  0.00000000000E+00 0. -1.
         11    1    3    3    0    0 -0.93953588908E+01  0.33207387706E+01  0.24267928383E+02  0.26234184243E+02  0.51100000000E-03 0. -1.
        -11    1    3    3    0    0 -0.41645289780E+01  0.28616204993E+01  0.11337826755E+01  0.51785747950E+01  0.51100000000E-03 0.  1.
         12    1    3    3    0    0 -0.46346241503E+01 -0.15834562271E+02  0.96547562189E+01  0.19116156020E+02  0.00000000000E+00 0. -1.
</event>
<event>
 7    1  0.2500839E-011  0.5052886E+02  0.7816164E-02  0.1300439E+00
        -11   -1    0    0    0    0  0.00000000000E+00  0.00000000000E+00  0.45593999997E+02  0.45594000000E+02  0.51100000000E-03 0.  1.
         11   -1    0    0    0    0 -0.00000000000E+00 -0.00000000000E+00 -0.45593999997E+02  0.45594000000E+02  0.51100000000E-03 0. -1.
    9900012    2    1    2    0    0 -0.36478116911E+02  0.11220674440E+02  0.14021742368E+02  0.50528858257E+02  0.29999995157E+02 0.  0.
         12    1    1    2    0    0  0.36478116911E+02 -0.11220674440E+02 -0.14021742368E+02  0.40659141743E+02  0.00000000000E+00 0. -1.
         11    1    3    3    0    0 -0.13346435207E+02 -0.45661957489E+01  0.84913387638E+01  0.16464516713E+02  0.51100000000E-03 0. -1.
        -11    1    3    3    0    0 -0.10865183377E+02  0.67433595851E+01  0.11973694386E+02  0.17518403633E+02  0.51100000000E-03 0.  1.
         12    1    3    3    0    0 -0.12266498327E+02  0.90435106034E+01 -0.64432907817E+01  0.16545937911E+02  0.00000000000E+00 0. -1.
</event>
<event>
 7    1  0.2500839E-011  0.5052886E+02  0.7816164E-02  0.1300439E+00
        -11   -1    0    0    0    0  0.00000000000E+00  0.00000000000E+00  0.45593999997E+02  0.45594000000E+02  0.51100000000E-03 0.  1.
         11   -1    0    0    0    0 -0.00000000000E+00 -0.00000000000E+00 -0.45593999997E+02  0.45594000000E+02  0.51100000000E-03 0. -1.
    9900012    2    1    2    0    0  0.19985058462E+01  0.23464590962E+02  0.33144904006E+02  0.50528859377E+02  0.29999998562E+02 0.  0.
         12    1    1    2    0    0 -0.19985058462E+01 -0.23464590962E+02 -0.33144904006E+02  0.40659140623E+02  0.00000000000E+00 0. -1.
         11    1    3    3    0    0  0.19056981865E+01  0.13946283776E+01 -0.22598987583E+01  0.32686107980E+01  0.51100000000E-03 0. -1.
        -11    1    3    3    0    0 -0.86659735126E+01  0.20699156756E+02  0.25408971186E+02  0.33899410088E+02  0.51100000000E-03 0.  1.
         12    1    3    3    0    0  0.87587811723E+01  0.13708058288E+01  0.99958315779E+01  0.13360838491E+02  0.00000000000E+00 0. -1.
</event>
<event>
 7    1  0.2500839E-011  0.5052886E+02  0.7816164E-02  0.1300439E+00
        -11   -1    0    0    0    0  0.00000000000E+00  0.00000000000E+00  0.45593999997E+02  0.45594000000E+02  0.51100000000E-03 0.  1.
         11   -1    0    0    0    0 -0.00000000000E+00 -0.00000000000E+00 -0.45593999997E+02  0.45594000000E+02  0.51100000000E-03 0. -1.
    9900012    2    1    2    0    0 -0.69443551121E+01 -0.32758494823E+02  0.23061281681E+02  0.50528858793E+02  0.29999996786E+02 0.  0.
         12    1    1    2    0    0  0.69443551121E+01  0.32758494823E+02 -0.23061281681E+02  0.40659141207E+02  0.00000000000E+00 0. -1.
         11    1    3    3    0    0 -0.32992386979E+01  0.27608434223E+01 -0.34883776219E+01  0.55385928792E+01  0.51100000000E-03 0. -1.
        -11    1    3    3    0    0  0.13109787949E+01 -0.62142627162E+01  0.27787417687E+01  0.69323251933E+01  0.51100000000E-03 0.  1.
         12    1    3    3    0    0 -0.49560952092E+01 -0.29305075529E+02  0.23770917534E+02  0.38057940720E+02  0.00000000000E+00 0. -1.
</event>
<event>
 7    1  0.2500839E-011  0.5052885E+02  0.7816164E-02  0.1300439E+00
        -11   -1    0    0    0    0  0.00000000000E+00  0.00000000000E+00  0.45593999997E+02  0.45594000000E+02  0.51100000000E-03 0.  1.
         11   -1    0    0    0    0 -0.00000000000E+00 -0.00000000000E+00 -0.45593999997E+02  0.45594000000E+02  0.51100000000E-03 0. -1.
    9900012    2    1    2    0    0  0.30836071693E+02  0.13671213973E+02  0.22702442107E+02  0.50528852363E+02  0.29999977243E+02 0.  0.
         12    1    1    2    0    0 -0.30836071693E+02 -0.13671213973E+02 -0.22702442107E+02  0.40659147637E+02  0.00000000000E+00 0. -1.
         11    1    3    3    0    0  0.29850024171E+01 -0.44733780100E+01 -0.11364647732E+01  0.54966264829E+01  0.51100000000E-03 0. -1.
        -11    1    3    3    0    0  0.91184313287E+00  0.58743851454E+01 -0.14271889381E+01  0.61136508947E+01  0.51100000000E-03 0.  1.
        -12    1    3    3    0    0  0.26939226143E+02  0.12270206838E+02  0.25266095818E+02  0.38918574986E+02  0.00000000000E+00 0.  1.
</event>
<event>
 7    1  0.2500839E-011  0.5052889E+02  0.7816164E-02  0.1300439E+00
        -11   -1    0    0    0    0  0.00000000000E+00  0.00000000000E+00  0.45593999997E+02  0.45594000000E+02  0.51100000000E-03 0.  1.
         11   -1    0    0    0    0 -0.00000000000E+00 -0.00000000000E+00 -0.45593999997E+02  0.45594000000E+02  0.51100000000E-03 0. -1.
    9900012    2    1    2    0    0  0.16944607597E+02 -0.21973933412E+02  0.29718503141E+02  0.50528893945E+02  0.30000103635E+02 0.  0.
         12    1    1    2    0    0 -0.16944607597E+02  0.21973933412E+02 -0.29718503141E+02  0.40659106055E+02  0.00000000000E+00 0. -1.
         11    1    3    3    0    0  0.61717286719E+01 -0.38722508255E+01  0.39174619869E+01  0.82723074130E+01  0.51100000000E-03 0. -1.
        -11    1    3    3    0    0  0.11528125382E+02 -0.92874478347E+01 -0.18600822300E+00  0.14805031625E+02  0.51100000000E-03 0.  1.
        -12    1    3    3    0    0 -0.75524645656E+00 -0.88142347520E+01  0.25987049377E+02  0.27451554907E+02  0.00000000000E+00 0.  1.
</event>
<event>
 7    1  0.2500839E-011  0.5052901E+02  0.7816164E-02  0.1300438E+00
        -11   -1    0    0    0    0  0.00000000000E+00  0.00000000000E+00  0.45593999997E+02  0.45594000000E+02  0.51100000000E-03 0.  1.
         11   -1    0    0    0    0 -0.00000000000E+00 -0.00000000000E+00 -0.45593999997E+02  0.45594000000E+02  0.51100000000E-03 0. -1.
    9900012    2    1    2    0    0  0.23377599334E+02  0.17250359417E+01  0.33221467502E+02  0.50529005883E+02  0.30000443878E+02 0.  0.
         12    1    1    2    0    0 -0.23377599334E+02 -0.17250359417E+01 -0.33221467502E+02  0.40658994117E+02  0.00000000000E+00 0. -1.
         11    1    3    3    0    0  0.95508830299E+01  0.51991727381E+01  0.23859873082E+02  0.26221066102E+02  0.51100000000E-03 0. -1.
        -11    1    3    3    0    0  0.16267202716E+02 -0.32180483008E+01  0.12177012777E+02  0.20573219474E+02  0.51100000000E-03 0.  1.
         12    1    3    3    0    0 -0.24404864122E+01 -0.25608849560E+00 -0.28154183568E+01  0.37347203067E+01  0.00000000000E+00 0. -1.
</event>
<event>
 7    1  0.2500839E-011  0.5052886E+02  0.7816164E-02  0.1300439E+00
        -11   -1    0    0    0    0  0.00000000000E+00  0.00000000000E+00  0.45593999997E+02  0.45594000000E+02  0.51100000000E-03 0. -1.
         11   -1    0    0    0    0 -0.00000000000E+00 -0.00000000000E+00 -0.45593999997E+02  0.45594000000E+02  0.51100000000E-03 0.  1.
    9900012    2    1    2    0    0  0.36673820648E+02  0.44285826369E+01 -0.16987773183E+02  0.50528857082E+02  0.29999991587E+02 0.  0.
         12    1    1    2    0    0 -0.36673820648E+02 -0.44285826369E+01  0.16987773183E+02  0.40659142918E+02  0.00000000000E+00 0. -1.
         11    1    3    3    0    0  0.63036802708E+01  0.32226851299E+01  0.15016146928E+01  0.72371908465E+01  0.51100000000E-03 0. -1.
        -11    1    3    3    0    0  0.33312960380E+02  0.52269419663E+01 -0.18155868180E+02  0.38297647463E+02  0.51100000000E-03 0.  1.
        -12    1    3    3    0    0 -0.29428200026E+01 -0.40210444593E+01 -0.33351969539E+00  0.49940187723E+01  0.00000000000E+00 0.  1.
</event>
<event>
 7    1  0.2500839E-011  0.5052884E+02  0.7816164E-02  0.1300439E+00
        -11   -1    0    0    0    0  0.00000000000E+00  0.00000000000E+00  0.45593999997E+02  0.45594000000E+02  0.51100000000E-03 0. -1.
         11   -1    0    0    0    0 -0.00000000000E+00 -0.00000000000E+00 -0.45593999997E+02  0.45594000000E+02  0.51100000000E-03 0.  1.
    9900012    2    1    2    0    0 -0.21123115460E+02  0.36102695966E+00 -0.34739762921E+02  0.50528837748E+02  0.29999932818E+02 0.  0.
         12    1    1    2    0    0  0.21123115460E+02 -0.36102695966E+00  0.34739762921E+02  0.40659162252E+02  0.00000000000E+00 0. -1.
         11    1    3    3    0    0  0.60067660722E+01  0.41878557063E+01 -0.39033763857E+01  0.82979347752E+01  0.51100000000E-03 0. -1.
        -11    1    3    3    0    0 -0.69030655724E+01 -0.32536620868E+01 -0.13841761573E+02  0.15806106256E+02  0.51100000000E-03 0.  1.
        -12    1    3    3    0    0 -0.20226815960E+02 -0.57316665983E+00 -0.16994624962E+02  0.26424796716E+02  0.00000000000E+00 0.  1.
</event>
<event>
 7    1  0.2500839E-011  0.5052886E+02  0.7816164E-02  0.1300439E+00
        -11   -1    0    0    0    0  0.00000000000E+00  0.00000000000E+00  0.45593999997E+02  0.45594000000E+02  0.51100000000E-03 0.  1.
         11   -1    0    0    0    0 -0.00000000000E+00 -0.00000000000E+00 -0.45593999997E+02  0.45594000000E+02  0.51100000000E-03 0. -1.
    9900012    2    1    2    0    0  0.49761249562E+01  0.36376174435E+02  0.17469331289E+02  0.50528862998E+02  0.30000009568E+02 0.  0.
         12    1    1    2    0    0 -0.49761249562E+01 -0.36376174435E+02 -0.17469331289E+02  0.40659137002E+02  0.00000000000E+00 0. -1.
         11    1    3    3    0    0  0.35422304244E+01  0.16132344264E+02  0.50218869308E+01  0.17263234819E+02  0.51100000000E-03 0. -1.
        -11    1    3    3    0    0 -0.97561681720E+01  0.16039869989E+02  0.90320621664E+01  0.20833588119E+02  0.51100000000E-03 0.  1.
         12    1    3    3    0    0  0.11190062704E+02  0.42039601818E+01  0.34153821915E+01  0.12432040059E+02  0.00000000000E+00 0. -1.
</event>
<event>
 7    1  0.2500839E-011  0.5052886E+02  0.7816164E-02  0.1300439E+00
        -11   -1    0    0    0    0  0.00000000000E+00  0.00000000000E+00  0.45593999997E+02  0.45594000000E+02  0.51100000000E-03 0.  1.
         11   -1    0    0    0    0 -0.00000000000E+00 -0.00000000000E+00 -0.45593999997E+02  0.45594000000E+02  0.51100000000E-03 0. -1.
    9900012    2    1    2    0    0 -0.23488393963E+02  0.24209283317E+02  0.22701790325E+02  0.50528864082E+02  0.30000012863E+02 0.  0.
         12    1    1    2    0    0  0.23488393963E+02 -0.24209283317E+02 -0.22701790325E+02  0.40659135918E+02  0.00000000000E+00 0. -1.
         11    1    3    3    0    0 -0.29235138481E+01 -0.61920695621E+01  0.80305258864E+01  0.10553577827E+02  0.51100000000E-03 0. -1.
        -11    1    3    3    0    0 -0.87583951580E+01  0.10481252250E+02  0.27588373665E+01  0.13934752181E+02  0.51100000000E-03 0.  1.
        -12    1    3    3    0    0 -0.11806484957E+02  0.19920100628E+02  0.11912427072E+02  0.26040534073E+02  0.00000000000E+00 0.  1.
</event>
<event>
 7    1  0.2500839E-011  0.5052885E+02  0.7816164E-02  0.1300439E+00
        -11   -1    0    0    0    0  0.00000000000E+00  0.00000000000E+00  0.45593999997E+02  0.45594000000E+02  0.51100000000E-03 0. -1.
         11   -1    0    0    0    0 -0.00000000000E+00 -0.00000000000E+00 -0.45593999997E+02  0.45594000000E+02  0.51100000000E-03 0.  1.
    9900012    2    1    2    0    0  0.39187819986E+02 -0.76319312906E+01 -0.76964438473E+01  0.50528845331E+02  0.29999955869E+02 0.  0.
         12    1    1    2    0    0 -0.39187819986E+02  0.76319312906E+01  0.76964438473E+01  0.40659154669E+02  0.00000000000E+00 0. -1.
         11    1    3    3    0    0  0.16090124718E+00 -0.29700187326E+01 -0.43782280910E+01  0.52929936672E+01  0.51100000000E-03 0. -1.
        -11    1    3    3    0    0  0.90866732489E+01  0.66887410845E+01 -0.65618165824E+01  0.13052368565E+02  0.51100000000E-03 0.  1.
         12    1    3    3    0    0  0.29940245490E+02 -0.11350653643E+02  0.32436008260E+01  0.32183483100E+02  0.00000000000E+00 0. -1.
</event>
<event>
 7    1  0.2500839E-011  0.5052885E+02  0.7816164E-02  0.1300439E+00
        -11   -1    0    0    0    0  0.00000000000E+00  0.00000000000E+00  0.45593999997E+02  0.45594000000E+02  0.51100000000E-03 0.  1.
         11   -1    0    0    0    0 -0.00000000000E+00 -0.00000000000E+00 -0.45593999997E+02  0.45594000000E+02  0.51100000000E-03 0. -1.
    9900012    2    1    2    0    0  0.64874910570E+01 -0.59900885670E+01  0.39688756986E+02  0.50528854259E+02  0.29999983006E+02 0.  0.
         12    1    1    2    0    0 -0.64874910570E+01  0.59900885670E+01 -0.39688756986E+02  0.40659145741E+02  0.00000000000E+00 0. -1.
         11    1    3    3    0    0  0.39447644419E+01  0.96384998471E+01  0.82593706884E+01  0.13292067192E+02  0.51100000000E-03 0. -1.
        -11    1    3    3    0    0 -0.35301720176E+01 -0.34578978458E+01  0.15612241398E+02  0.16375629873E+02  0.51100000000E-03 0.  1.
        -12    1    3    3    0    0  0.60728986326E+01 -0.12170690568E+02  0.15817144900E+02  0.20861157194E+02  0.00000000000E+00 0.  1.
</event>
<event>
 7    1  0.2500839E-011  0.5052891E+02  0.7816164E-02  0.1300439E+00
        -11   -1    0    0    0    0  0.00000000000E+00  0.00000000000E+00  0.45593999997E+02  0.45594000000E+02  0.51100000000E-03 0.  1.
         11   -1    0    0    0    0 -0.00000000000E+00 -0.00000000000E+00 -0.45593999997E+02  0.45594000000E+02  0.51100000000E-03 0. -1.
    9900012    2    1    2    0    0  0.25363554607E+02  0.30225993707E+02  0.98102667123E+01  0.50528905927E+02  0.30000140054E+02 0.  0.
         12    1    1    2    0    0 -0.25363554607E+02 -0.30225993707E+02 -0.98102667123E+01  0.40659094073E+02  0.00000000000E+00 0. -1.
         11    1    3    3    0    0  0.14165725375E+02  0.10556814866E+01 -0.59698178603E+01  0.15408470539E+02  0.51100000000E-03 0. -1.
        -11    1    3    3    0    0  0.19824074910E+01  0.43276316387E+01  0.13437973419E+01  0.49461223820E+01  0.51100000000E-03 0.  1.
         12    1    3    3    0    0  0.92154217413E+01  0.24842680582E+02  0.14436287231E+02  0.30174313006E+02  0.00000000000E+00 0. -1.
</event>
<event>
 7    1  0.2500839E-011  0.5052886E+02  0.7816164E-02  0.1300439E+00
        -11   -1    0    0    0    0  0.00000000000E+00  0.00000000000E+00  0.45593999997E+02  0.45594000000E+02  0.51100000000E-03 0.  1.
         11   -1    0    0    0    0 -0.00000000000E+00 -0.00000000000E+00 -0.45593999997E+02  0.45594000000E+02  0.51100000000E-03 0. -1.
    9900012    2    1    2    0    0  0.28324198784E+02 -0.19662577089E+02 -0.21547352541E+02  0.50528861100E+02  0.30000003801E+02 0.  0.
         12    1    1    2    0    0 -0.28324198784E+02  0.19662577089E+02  0.21547352541E+02  0.40659138900E+02  0.00000000000E+00 0. -1.
         11    1    3    3    0    0  0.66670164740E+01  0.63018988058E+01 -0.90912938936E+01  0.12915675056E+02  0.51100000000E-03 0.  1.
        -11    1    3    3    0    0  0.91964574150E+01 -0.37991873384E+01 -0.48687515840E+01  0.11077607849E+02  0.51100000000E-03 0. -1.
         12    1    3    3    0    0  0.12460724895E+02 -0.22165288556E+02 -0.75873070634E+01  0.26535578195E+02  0.00000000000E+00 0. -1.
</event>
<event>
 7    1  0.2500839E-011  0.5052887E+02  0.7816164E-02  0.1300439E+00
        -11   -1    0    0    0    0  0.00000000000E+00  0.00000000000E+00  0.45593999997E+02  0.45594000000E+02  0.51100000000E-03 0.  1.
         11   -1    0    0    0    0 -0.00000000000E+00 -0.00000000000E+00 -0.45593999997E+02  0.45594000000E+02  0.51100000000E-03 0. -1.
    9900012    2    1    2    0    0 -0.10329341014E+02 -0.10917900939E+02  0.37779218752E+02  0.50528865526E+02  0.30000017252E+02 0.  0.
         12    1    1    2    0    0  0.10329341014E+02  0.10917900939E+02 -0.37779218752E+02  0.40659134474E+02  0.00000000000E+00 0. -1.
         11    1    3    3    0    0  0.74423960557E+00  0.49242072682E+01 -0.18807209702E+01  0.53234219671E+01  0.51100000000E-03 0. -1.
        -11    1    3    3    0    0  0.12871821403E+01 -0.85107459583E+00  0.72928050143E+01  0.74542720012E+01  0.51100000000E-03 0.  1.
        -12    1    3    3    0    0 -0.12360762760E+02 -0.14991033612E+02  0.32367134708E+02  0.37751171557E+02  0.00000000000E+00 0.  1.
</event>
<event>
 7    1  0.2500839E-011  0.5052885E+02  0.7816164E-02  0.1300439E+00
        -11   -1    0    0    0    0  0.00000000000E+00  0.00000000000E+00  0.45593999997E+02  0.45594000000E+02  0.51100000000E-03 0. -1.
         11   -1    0    0    0    0 -0.00000000000E+00 -0.00000000000E+00 -0.45593999997E+02  0.45594000000E+02  0.51100000000E-03 0.  1.
    9900012    2    1    2    0    0  0.59949612150E+00  0.24398930808E+02 -0.32519213044E+02  0.50528850510E+02  0.29999971611E+02 0.  0.
         12    1    1    2    0    0 -0.59949612150E+00 -0.24398930808E+02  0.32519213044E+02  0.40659149490E+02  0.00000000000E+00 0. -1.
         11    1    3    3    0    0  0.12912005070E+02  0.98574342984E+01 -0.17461630660E+02  0.23849474448E+02  0.51100000000E-03 0. -1.
        -11    1    3    3    0    0 -0.14565651958E+00  0.83778248094E+01 -0.60314782132E+01  0.10324141323E+02  0.51100000000E-03 0.  1.
         12    1    3    3    0    0 -0.12166852429E+02  0.61636717007E+01 -0.90261041713E+01  0.16355234739E+02  0.00000000000E+00 0. -1.
</event>
<event>
 7    1  0.2500839E-011  0.5052885E+02  0.7816164E-02  0.1300439E+00
        -11   -1    0    0    0    0  0.00000000000E+00  0.00000000000E+00  0.45593999997E+02  0.45594000000E+02  0.51100000000E-03 0.  1.
         11   -1    0    0    0    0 -0.00000000000E+00 -0.00000000000E+00 -0.45593999997E+02  0.45594000000E+02  0.51100000000E-03 0. -1.
    9900012    2    1    2    0    0  0.79974309175E+01 -0.29253983670E+02  0.27081585551E+02  0.50528846814E+02  0.29999960376E+02 0.  0.
         12    1    1    2    0    0 -0.79974309175E+01  0.29253983670E+02 -0.27081585551E+02  0.40659153186E+02  0.00000000000E+00 0. -1.
         11    1    3    3    0    0  0.39481046786E+00 -0.78153482119E+01  0.45745113784E+01  0.90643089969E+01  0.51100000000E-03 0. -1.
        -11    1    3    3    0    0 -0.33891416028E+01 -0.20388795616E+01  0.18364629177E+02  0.18785710414E+02  0.51100000000E-03 0.  1.
         12    1    3    3    0    0  0.10991762052E+02 -0.19399755896E+02  0.41424449957E+01  0.22678827403E+02  0.00000000000E+00 0. -1.
</event>
<event>
 7    1  0.2500839E-011  0.5052885E+02  0.7816164E-02  0.1300439E+00
        -11   -1    0    0    0    0  0.00000000000E+00  0.00000000000E+00  0.45593999997E+02  0.45594000000E+02  0.51100000000E-03 0.  1.
         11   -1    0    0    0    0 -0.00000000000E+00 -0.00000000000E+00 -0.45593999997E+02  0.45594000000E+02  0.51100000000E-03 0. -1.
    9900012    2    1    2    0    0  0.11749249022E+02  0.34811035078E+02 -0.17415903504E+02  0.50528847148E+02  0.29999961392E+02 0.  0.
         12    1    1    2    0    0 -0.11749249022E+02 -0.34811035078E+02  0.17415903504E+02  0.40659152852E+02  0.00000000000E+00 0. -1.
         11    1    3    3    0    0 -0.49246013396E+01  0.13661639201E+02 -0.80265739654E+01  0.16592708455E+02  0.51100000000E-03 0. -1.
        -11    1    3    3    0    0  0.41799166014E+01  0.44925866015E+01  0.55782568742E+01  0.82928877469E+01  0.51100000000E-03 0.  1.
        -12    1    3    3    0    0  0.12493933760E+02  0.16656809276E+02 -0.14967586413E+02  0.25643250946E+02  0.00000000000E+00 0.  1.
</event>
<event>
 7    1  0.2500839E-011  0.5052886E+02  0.7816164E-02  0.1300439E+00
        -11   -1    0    0    0    0  0.00000000000E+00  0.00000000000E+00  0.45593999997E+02  0.45594000000E+02  0.51100000000E-03 0. -1.
         11   -1    0    0    0    0 -0.00000000000E+00 -0.00000000000E+00 -0.45593999997E+02  0.45594000000E+02  0.51100000000E-03 0.  1.
    9900012    2    1    2    0    0 -0.18283680408E+02  0.26489365025E+02 -0.24843239460E+02  0.50528856188E+02  0.29999988869E+02 0.  0.
         12    1    1    2    0    0  0.18283680408E+02 -0.26489365025E+02  0.24843239460E+02  0.40659143812E+02  0.00000000000E+00 0. -1.
         11    1    3    3    0    0 -0.41976514177E+01 -0.13932514813E+01  0.11176013931E+01  0.45618483370E+01  0.51100000000E-03 0. -1.
        -11    1    3    3    0    0 -0.17653496009E+02  0.28101076583E+02 -0.19253547097E+02  0.38366854217E+02  0.51100000000E-03 0.  1.
         12    1    3    3    0    0  0.35674670181E+01 -0.21846007687E+00 -0.67072937553E+01  0.76001536334E+01  0.00000000000E+00 0. -1.
</event>
<event>
 7    1  0.2678992E-011  0.5052887E+02  0.7816164E-02  0.1300439E+00
        -11   -1    0    0    0    0  0.00000000000E+00  0.00000000000E+00  0.45593999997E+02  0.45594000000E+02  0.51100000000E-03 0.  1.
         11   -1    0    0    0    0 -0.00000000000E+00 -0.00000000000E+00 -0.45593999997E+02  0.45594000000E+02  0.51100000000E-03 0. -1.
    9900012    2    1    2    0    0 -0.35379263323E+02 -0.44444695687E+01 -0.19537632373E+02  0.50528872344E+02  0.30000037976E+02 0.  0.
         12    1    1    2    0    0  0.35379263323E+02  0.44444695687E+01  0.19537632373E+02  0.40659127656E+02  0.00000000000E+00 0. -1.
         11    1    3    3    0    0 -0.17139755617E+01  0.28806836912E+01  0.39637192859E+01  0.51910617019E+01  0.51100000000E-03 0.  1.
        -11    1    3    3    0    0 -0.21816348057E+02  0.23935843118E+01 -0.75293889924E+01  0.23202887477E+02  0.51100000000E-03 0. -1.
        -12    1    3    3    0    0 -0.11848939704E+02 -0.97187375718E+01 -0.15971962667E+02  0.22134923165E+02  0.00000000000E+00 0.  1.
</event>
<event>
 7    1  0.2500839E-011  0.5052886E+02  0.7816164E-02  0.1300439E+00
        -11   -1    0    0    0    0  0.00000000000E+00  0.00000000000E+00  0.45593999997E+02  0.45594000000E+02  0.51100000000E-03 0.  1.
         11   -1    0    0    0    0 -0.00000000000E+00 -0.00000000000E+00 -0.45593999997E+02  0.45594000000E+02  0.51100000000E-03 0. -1.
    9900012    2    1    2    0    0  0.11385077362E+02 -0.24185507631E+02  0.30636689235E+02  0.50528862120E+02  0.30000006899E+02 0.  0.
         12    1    1    2    0    0 -0.11385077362E+02  0.24185507631E+02 -0.30636689235E+02  0.40659137880E+02  0.00000000000E+00 0. -1.
         11    1    3    3    0    0  0.10545075712E+02 -0.34759662619E+01  0.12730948324E+01  0.11175944431E+02  0.51100000000E-03 0. -1.
        -11    1    3    3    0    0  0.68395585828E-02 -0.23389596055E+02  0.26010772620E+02  0.34980473738E+02  0.51100000000E-03 0.  1.
         12    1    3    3    0    0  0.83316209137E+00  0.26800546864E+01  0.33528217826E+01  0.43724439503E+01  0.00000000000E+00 0. -1.
</event>
<event>
 7    1  0.2500839E-011  0.5052886E+02  0.7816164E-02  0.1300439E+00
        -11   -1    0    0    0    0  0.00000000000E+00  0.00000000000E+00  0.45593999997E+02  0.45594000000E+02  0.51100000000E-03 0. -1.
         11   -1    0    0    0    0 -0.00000000000E+00 -0.00000000000E+00 -0.45593999997E+02  0.45594000000E+02  0.51100000000E-03 0.  1.
    9900012    2    1    2    0    0 -0.23994656398E+02  0.20776319260E+02  0.25411945039E+02  0.50528856769E+02  0.29999990635E+02 0.  0.
         12    1    1    2    0    0  0.23994656398E+02 -0.20776319260E+02 -0.25411945039E+02  0.40659143231E+02  0.00000000000E+00 0. -1.
         11    1    3    3    0    0 -0.32731353411E+01  0.62392491652E+01  0.17890892257E+02  0.19228251899E+02  0.51100000000E-03 0. -1.
        -11    1    3    3    0    0 -0.80436824453E+01 -0.31358442966E+01  0.22015467320E+01  0.89096102613E+01  0.51100000000E-03 0.  1.
        -12    1    3    3    0    0 -0.12677838611E+02  0.17672914391E+02  0.53195060503E+01  0.22390994608E+02  0.00000000000E+00 0.  1.
</event>
<event>
 7    1  0.2500839E-011  0.5052887E+02  0.7816164E-02  0.1300439E+00
        -11   -1    0    0    0    0  0.00000000000E+00  0.00000000000E+00  0.45593999997E+02  0.45594000000E+02  0.51100000000E-03 0.  1.
         11   -1    0    0    0    0 -0.00000000000E+00 -0.00000000000E+00 -0.45593999997E+02  0.45594000000E+02  0.51100000000E-03 0. -1.
    9900012    2    1    2    0    0 -0.10720204018E+01 -0.30858114026E+02  0.26453586809E+02  0.50528872070E+02  0.30000037143E+02 0.  0.
         12    1    1    2    0    0  0.10720204018E+01  0.30858114026E+02 -0.26453586809E+02  0.40659127930E+02  0.00000000000E+00 0. -1.
         11    1    3    3    0    0 -0.37590065732E+00 -0.17888852447E+01 -0.28869580366E+01  0.34170072709E+01  0.51100000000E-03 0. -1.
        -11    1    3    3    0    0  0.99763639353E+01 -0.14269606661E+02  0.83826837125E+01  0.19324049734E+02  0.51100000000E-03 0.  1.
        -12    1    3    3    0    0 -0.10672483680E+02 -0.14799622121E+02  0.20957861133E+02  0.27787815065E+02  0.00000000000E+00 0.  1.
</event>
<event>
 7    1  0.2500839E-011  0.5052886E+02  0.7816164E-02  0.1300439E+00
        -11   -1    0    0    0    0  0.00000000000E+00  0.00000000000E+00  0.45593999997E+02  0.45594000000E+02  0.51100000000E-03 0.  1.
         11   -1    0    0    0    0 -0.00000000000E+00 -0.00000000000E+00 -0.45593999997E+02  0.45594000000E+02  0.51100000000E-03 0. -1.
    9900012    2    1    2    0    0  0.58999909847E+01  0.24549554167E+02  0.31869664352E+02  0.50528855772E+02  0.29999987606E+02 0.  0.
         12    1    1    2    0    0 -0.58999909847E+01 -0.24549554167E+02 -0.31869664352E+02  0.40659144228E+02  0.00000000000E+00 0. -1.
         11    1    3    3    0    0  0.10976524130E+02  0.55321522703E+01  0.55189182366E+01  0.13473947064E+02  0.51100000000E-03 0. -1.
        -11    1    3    3    0    0 -0.33471809531E+01  0.14102168743E+02  0.28050738139E+02  0.31574019288E+02  0.51100000000E-03 0.  1.
        -12    1    3    3    0    0 -0.17293521921E+01  0.49152331535E+01 -0.16999920238E+01  0.54808894204E+01  0.00000000000E+00 0.  1.
</event>
<event>
 7    1  0.2500839E-011  0.5052886E+02  0.7816164E-02  0.1300439E+00
        -11   -1    0    0    0    0  0.00000000000E+00  0.00000000000E+00  0.45593999997E+02  0.45594000000E+02  0.51100000000E-03 0.  1.
         11   -1    0    0    0    0 -0.00000000000E+00 -0.00000000000E+00 -0.45593999997E+02  0.45594000000E+02  0.51100000000E-03 0. -1.
    9900012    2    1    2    0    0 -0.13025284607E+02  0.37807930976E+02  0.73531171737E+01  0.50528855691E+02  0.29999987358E+02 0.  0.
         12    1    1    2    0    0  0.13025284607E+02 -0.37807930976E+02 -0.73531171737E+01  0.40659144309E+02  0.00000000000E+00 0. -1.
         11    1    3    3    0    0 -0.83800496757E+01  0.35819660144E+00 -0.30575550524E+01  0.89276077721E+01  0.51100000000E-03 0. -1.
        -11    1    3    3    0    0 -0.34557960621E+01  0.13782622180E+02 -0.27825531836E+01  0.14479150633E+02  0.51100000000E-03 0.  1.
        -12    1    3    3    0    0 -0.11894388688E+01  0.23667112194E+02  0.13193225410E+02  0.27122097285E+02  0.00000000000E+00 0.  1.
</event>
<event>
 7    1  0.2500839E-011  0.5052883E+02  0.7816164E-02  0.1300439E+00
        -11   -1    0    0    0    0  0.00000000000E+00  0.00000000000E+00  0.45593999997E+02  0.45594000000E+02  0.51100000000E-03 0.  1.
         11   -1    0    0    0    0 -0.00000000000E+00 -0.00000000000E+00 -0.45593999997E+02  0.45594000000E+02  0.51100000000E-03 0. -1.
    9900012    2    1    2    0    0  0.12097617206E+02 -0.24825379611E+01  0.38738258136E+02  0.50528831536E+02  0.29999913937E+02 0.  0.
         12    1    1    2    0    0 -0.12097617206E+02  0.24825379611E+01 -0.38738258136E+02  0.40659168464E+02  0.00000000000E+00 0. -1.
         11    1    3    3    0    0  0.11724537940E+02 -0.14770801539E+01  0.35400837041E+01  0.12336075088E+02  0.51100000000E-03 0. -1.
        -11    1    3    3    0    0 -0.52924197148E+01  0.37356084337E+01  0.98441715345E+01  0.11784404536E+02  0.51100000000E-03 0.  1.
        -12    1    3    3    0    0  0.56654989813E+01 -0.47410662410E+01  0.25354002897E+02  0.26408351912E+02  0.00000000000E+00 0.  1.
</event>
<event>
 7    1  0.2500839E-011  0.5052886E+02  0.7816164E-02  0.1300439E+00
        -11   -1    0    0    0    0  0.00000000000E+00  0.00000000000E+00  0.45593999997E+02  0.45594000000E+02  0.51100000000E-03 0.  1.
         11   -1    0    0    0    0 -0.00000000000E+00 -0.00000000000E+00 -0.45593999997E+02  0.45594000000E+02  0.51100000000E-03 0. -1.
    9900012    2    1    2    0    0  0.13197772632E+01  0.23128938996E+02  0.33413709915E+02  0.50528860297E+02  0.30000001358E+02 0.  0.
         12    1    1    2    0    0 -0.13197772632E+01 -0.23128938996E+02 -0.33413709915E+02  0.40659139703E+02  0.00000000000E+00 0. -1.
         11    1    3    3    0    0 -0.22204653582E+01  0.13701377852E+02  0.12457372131E+02  0.18650585570E+02  0.51100000000E-03 0. -1.
        -11    1    3    3    0    0 -0.33751421696E+01  0.75456452283E+01 -0.14155779838E+01  0.83864299833E+01  0.51100000000E-03 0.  1.
        -12    1    3    3    0    0  0.69153847910E+01  0.18819159164E+01  0.22371915767E+02  0.23491844743E+02  0.00000000000E+00 0.  1.
</event>
<event>
 7    1  0.2500839E-011  0.5052885E+02  0.7816164E-02  0.1300439E+00
        -11   -1    0    0    0    0  0.00000000000E+00  0.00000000000E+00  0.45593999997E+02  0.45594000000E+02  0.51100000000E-03 0.  1.
         11   -1    0    0    0    0 -0.00000000000E+00 -0.00000000000E+00 -0.45593999997E+02  0.45594000000E+02  0.51100000000E-03 0. -1.
    9900012    2    1    2    0    0 -0.19264665828E+02 -0.91068623753E+01  0.34628089163E+02  0.50528845424E+02  0.29999956150E+02 0.  0.
         12    1    1    2    0    0  0.19264665828E+02  0.91068623753E+01 -0.34628089163E+02  0.40659154576E+02  0.00000000000E+00 0. -1.
         11    1    3    3    0    0 -0.33204592902E+01  0.61983505521E+00  0.33769571362E+00  0.33946552181E+01  0.51100000000E-03 0. -1.
        -11    1    3    3    0    0 -0.21944766627E+02 -0.97655451735E+01  0.33289926625E+02  0.41050674413E+02  0.51100000000E-03 0.  1.
         12    1    3    3    0    0  0.60005600891E+01  0.38847743031E-01  0.10004668242E+01  0.60835157924E+01  0.00000000000E+00 0. -1.
</event>
<event>
 7    1  0.2500839E-011  0.5052886E+02  0.7816164E-02  0.1300439E+00
        -11   -1    0    0    0    0  0.00000000000E+00  0.00000000000E+00  0.45593999997E+02  0.45594000000E+02  0.51100000000E-03 0. -1.
         11   -1    0    0    0    0 -0.00000000000E+00 -0.00000000000E+00 -0.45593999997E+02  0.45594000000E+02  0.51100000000E-03 0.  1.
    9900012    2    1    2    0    0  0.21449801390E+02  0.27764543466E+02  0.20547543688E+02  0.50528863202E+02  0.30000010188E+02 0.  0.
         12    1    1    2    0    0 -0.21449801390E+02 -0.27764543466E+02 -0.20547543688E+02  0.40659136798E+02  0.00000000000E+00 0. -1.
         11    1    3    3    0    0  0.16095652911E+02  0.19919101405E+02  0.16086251904E+02  0.30242489051E+02  0.51100000000E-03 0. -1.
        -11    1    3    3    0    0  0.11171222599E+02  0.20731169507E+01  0.41146088460E+01  0.12084040485E+02  0.51100000000E-03 0.  1.
         12    1    3    3    0    0 -0.58170741199E+01  0.57723251109E+01  0.34668293818E+00  0.82023336656E+01  0.00000000000E+00 0. -1.
</event>
<event>
 7    1  0.2500839E-011  0.5052889E+02  0.7816164E-02  0.1300439E+00
        -11   -1    0    0    0    0  0.00000000000E+00  0.00000000000E+00  0.45593999997E+02  0.45594000000E+02  0.51100000000E-03 0.  1.
         11   -1    0    0    0    0 -0.00000000000E+00 -0.00000000000E+00 -0.45593999997E+02  0.45594000000E+02  0.51100000000E-03 0. -1.
    9900012    2    1    2    0    0  0.24567367304E+02  0.79775993362E+01  0.31400082931E+02  0.50528894802E+02  0.30000106241E+02 0.  0.
         12    1    1    2    0    0 -0.24567367304E+02 -0.79775993362E+01 -0.31400082931E+02  0.40659105198E+02  0.00000000000E+00 0. -1.
         11    1    3    3    0    0  0.35956034350E+01 -0.43900247584E+01  0.48745356286E+01  0.74807606095E+01  0.51100000000E-03 0. -1.
        -11    1    3    3    0    0 -0.46120632160E+01  0.50169607503E+01  0.85260374484E+01  0.10914867709E+02  0.51100000000E-03 0.  1.
        -12    1    3    3    0    0  0.25583827085E+02  0.73506633443E+01  0.17999509854E+02  0.32133266483E+02  0.00000000000E+00 0.  1.
</event>
<event>
 7    1  0.2500839E-011  0.5052886E+02  0.7816164E-02  0.1300439E+00
        -11   -1    0    0    0    0  0.00000000000E+00  0.00000000000E+00  0.45593999997E+02  0.45594000000E+02  0.51100000000E-03 0. -1.
         11   -1    0    0    0    0 -0.00000000000E+00 -0.00000000000E+00 -0.45593999997E+02  0.45594000000E+02  0.51100000000E-03 0.  1.
    9900012    2    1    2    0    0 -0.50908330941E+01  0.38832857783E+02  0.10920547564E+02  0.50528858540E+02  0.29999996018E+02 0.  0.
         12    1    1    2    0    0  0.50908330941E+01 -0.38832857783E+02 -0.10920547564E+02  0.40659141460E+02  0.00000000000E+00 0. -1.
         11    1    3    3    0    0 -0.27788542156E+01  0.41445700479E+01  0.97948960540E+01  0.10992701242E+02  0.51100000000E-03 0. -1.
        -11    1    3    3    0    0 -0.24407041750E+01  0.27454935604E+02  0.88537081205E+01  0.28950279336E+02  0.51100000000E-03 0.  1.
        -12    1    3    3    0    0  0.12872529648E+00  0.72333521311E+01 -0.77280566103E+01  0.10585877962E+02  0.00000000000E+00 0.  1.
</event>
<event>
 7    1  0.2500839E-011  0.5052886E+02  0.7816164E-02  0.1300439E+00
        -11   -1    0    0    0    0  0.00000000000E+00  0.00000000000E+00  0.45593999997E+02  0.45594000000E+02  0.51100000000E-03 0.  1.
         11   -1    0    0    0    0 -0.00000000000E+00 -0.00000000000E+00 -0.45593999997E+02  0.45594000000E+02  0.51100000000E-03 0. -1.
    9900012    2    1    2    0    0  0.59254012442E+01 -0.32352158227E+02  0.23903829632E+02  0.50528860893E+02  0.30000003169E+02 0.  0.
         12    1    1    2    0    0 -0.59254012442E+01  0.32352158227E+02 -0.23903829632E+02  0.40659139107E+02  0.00000000000E+00 0. -1.
         11    1    3    3    0    0  0.29156247186E+01 -0.13500716132E+01  0.57775100470E+01  0.66108383330E+01  0.51100000000E-03 0. -1.
        -11    1    3    3    0    0  0.19956165118E+01 -0.32797290406E+02  0.21990847439E+02  0.39537856727E+02  0.51100000000E-03 0.  1.
         12    1    3    3    0    0  0.10141600138E+01  0.17952037919E+01 -0.38645278537E+01  0.43801658325E+01  0.00000000000E+00 0. -1.
</event>
<event>
 7    1  0.2500839E-011  0.5052888E+02  0.7816164E-02  0.1300439E+00
        -11   -1    0    0    0    0  0.00000000000E+00  0.00000000000E+00  0.45593999997E+02  0.45594000000E+02  0.51100000000E-03 0.  1.
         11   -1    0    0    0    0 -0.00000000000E+00 -0.00000000000E+00 -0.45593999997E+02  0.45594000000E+02  0.51100000000E-03 0. -1.
    9900012    2    1    2    0    0  0.77371348451E+01 -0.17776929310E+02 -0.35739081747E+02  0.50528875127E+02  0.30000046436E+02 0.  0.
         12    1    1    2    0    0 -0.77371348451E+01  0.17776929310E+02  0.35739081747E+02  0.40659124873E+02  0.00000000000E+00 0. -1.
         11    1    3    3    0    0 -0.19830492487E+01  0.13545231430E+00 -0.14062891315E+02  0.14202666793E+02  0.51100000000E-03 0. -1.
        -11    1    3    3    0    0 -0.46360519996E+01 -0.11076477157E+02 -0.14650634749E+02  0.18942608669E+02  0.51100000000E-03 0.  1.
         12    1    3    3    0    0  0.14356236093E+02 -0.68359044668E+01 -0.70255556835E+01  0.17383599665E+02  0.00000000000E+00 0. -1.
</event>
<event>
 7    1  0.2500839E-011  0.5052888E+02  0.7816164E-02  0.1300439E+00
        -11   -1    0    0    0    0  0.00000000000E+00  0.00000000000E+00  0.45593999997E+02  0.45594000000E+02  0.51100000000E-03 0.  1.
         11   -1    0    0    0    0 -0.00000000000E+00 -0.00000000000E+00 -0.45593999997E+02  0.45594000000E+02  0.51100000000E-03 0. -1.
    9900012    2    1    2    0    0  0.12906820093E+02 -0.24344684080E+02  0.29898402920E+02  0.50528878698E+02  0.30000057291E+02 0.  0.
         12    1    1    2    0    0 -0.12906820093E+02  0.24344684080E+02 -0.29898402920E+02  0.40659121302E+02  0.00000000000E+00 0. -1.
         11    1    3    3    0    0  0.48615730800E+01 -0.85329727244E+01  0.11782468172E+01  0.98911466550E+01  0.51100000000E-03 0. -1.
        -11    1    3    3    0    0  0.11374522653E+02  0.76209157870E+00  0.81564819384E+01  0.14017444383E+02  0.51100000000E-03 0.  1.
        -12    1    3    3    0    0 -0.33292756395E+01 -0.16573802935E+02  0.20563674164E+02  0.26620287661E+02  0.00000000000E+00 0.  1.
</event>
<event>
 7    1  0.2500839E-011  0.5052886E+02  0.7816164E-02  0.1300439E+00
        -11   -1    0    0    0    0  0.00000000000E+00  0.00000000000E+00  0.45593999997E+02  0.45594000000E+02  0.51100000000E-03 0. -1.
         11   -1    0    0    0    0 -0.00000000000E+00 -0.00000000000E+00 -0.45593999997E+02  0.45594000000E+02  0.51100000000E-03 0.  1.
    9900012    2    1    2    0    0  0.56913739898E+01 -0.36298348329E+02 -0.17412747450E+02  0.50528860768E+02  0.30000002791E+02 0.  0.
         12    1    1    2    0    0 -0.56913739898E+01  0.36298348329E+02  0.17412747450E+02  0.40659139232E+02  0.00000000000E+00 0. -1.
         11    1    3    3    0    0  0.21044655307E+01 -0.98484421871E+01  0.75676143865E+01  0.12597197166E+02  0.51100000000E-03 0. -1.
        -11    1    3    3    0    0  0.45649797556E+01 -0.53605591253E+01 -0.36935407230E+01  0.79509042026E+01  0.51100000000E-03 0.  1.
        -12    1    3    3    0    0 -0.97807129655E+00 -0.21089347017E+02 -0.21286821113E+02  0.29980759399E+02  0.00000000000E+00 0.  1.
</event>
<event>
 7    1  0.2500839E-011  0.5052886E+02  0.7816164E-02  0.1300439E+00
        -11   -1    0    0    0    0  0.00000000000E+00  0.00000000000E+00  0.45593999997E+02  0.45594000000E+02  0.51100000000E-03 0.  1.
         11   -1    0    0    0    0 -0.00000000000E+00 -0.00000000000E+00 -0.45593999997E+02  0.45594000000E+02  0.51100000000E-03 0. -1.
    9900012    2    1    2    0    0 -0.27718625163E+02  0.70771724008E+01  0.28892170030E+02  0.50528855406E+02  0.29999986491E+02 0.  0.
         12    1    1    2    0    0  0.27718625163E+02 -0.70771724008E+01 -0.28892170030E+02  0.40659144594E+02  0.00000000000E+00 0. -1.
         11    1    3    3    0    0 -0.10979879727E+02  0.13751244663E+02  0.15469645067E+02  0.23429989487E+02  0.51100000000E-03 0. -1.
        -11    1    3    3    0    0 -0.13674948528E+02  0.24469682386E+01  0.72880106921E+01  0.15687796878E+02  0.51100000000E-03 0.  1.
        -12    1    3    3    0    0 -0.30637969079E+01 -0.91210405004E+01  0.61345142708E+01  0.11411069040E+02  0.00000000000E+00 0.  1.
</event>
<event>
 7    1  0.2500839E-011  0.5052885E+02  0.7816164E-02  0.1300439E+00
        -11   -1    0    0    0    0  0.00000000000E+00  0.00000000000E+00  0.45593999997E+02  0.45594000000E+02  0.51100000000E-03 0. -1.
         11   -1    0    0    0    0 -0.00000000000E+00 -0.00000000000E+00 -0.45593999997E+02  0.45594000000E+02  0.51100000000E-03 0.  1.
    9900012    2    1    2    0    0 -0.15379462165E+02 -0.32709354339E+02 -0.18620863616E+02  0.50528852449E+02  0.29999977504E+02 0.  0.
         12    1    1    2    0    0  0.15379462165E+02  0.32709354339E+02  0.18620863616E+02  0.40659147551E+02  0.00000000000E+00 0. -1.
         11    1    3    3    0    0 -0.39599444626E+01 -0.84063076501E+01 -0.12140012654E+01  0.93712842124E+01  0.51100000000E-03 0. -1.
        -11    1    3    3    0    0 -0.82979902667E+01 -0.29392216996E+02 -0.11159086451E+02  0.32515908000E+02  0.51100000000E-03 0.  1.
         12    1    3    3    0    0 -0.31215274353E+01  0.50891703072E+01 -0.62477758997E+01  0.86416602362E+01  0.00000000000E+00 0. -1.
</event>
<event>
 7    1  0.2500839E-011  0.5052885E+02  0.7816164E-02  0.1300439E+00
        -11   -1    0    0    0    0  0.00000000000E+00  0.00000000000E+00  0.45593999997E+02  0.45594000000E+02  0.51100000000E-03 0.  1.
         11   -1    0    0    0    0 -0.00000000000E+00 -0.00000000000E+00 -0.45593999997E+02  0.45594000000E+02  0.51100000000E-03 0. -1.
    9900012    2    1    2    0    0  0.57294873121E+01 -0.40215707213E+02 -0.17423957806E+01  0.50528854970E+02  0.29999985167E+02 0.  0.
         12    1    1    2    0    0 -0.57294873121E+01  0.40215707213E+02  0.17423957806E+01  0.40659145030E+02  0.00000000000E+00 0. -1.
         11    1    3    3    0    0  0.25571094713E+01 -0.66022369045E-01 -0.12321706593E+01  0.28392626853E+01  0.51100000000E-03 0. -1.
        -11    1    3    3    0    0  0.57094503217E+01 -0.39193958961E+02 -0.73933728271E+01  0.40291763477E+02  0.51100000000E-03 0.  1.
         12    1    3    3    0    0 -0.25370724809E+01 -0.95572588291E+00  0.68831477057E+01  0.73978288082E+01  0.00000000000E+00 0. -1.
</event>
<event>
 7    1  0.2500839E-011  0.5052886E+02  0.7816164E-02  0.1300439E+00
        -11   -1    0    0    0    0  0.00000000000E+00  0.00000000000E+00  0.45593999997E+02  0.45594000000E+02  0.51100000000E-03 0.  1.
         11   -1    0    0    0    0 -0.00000000000E+00 -0.00000000000E+00 -0.45593999997E+02  0.45594000000E+02  0.51100000000E-03 0. -1.
    9900012    2    1    2    0    0  0.24065284559E+02 -0.22329192995E+02  0.23988228019E+02  0.50528857557E+02  0.29999993030E+02 0.  0.
         12    1    1    2    0    0 -0.24065284559E+02  0.22329192995E+02 -0.23988228019E+02  0.40659142443E+02  0.00000000000E+00 0. -1.
         11    1    3    3    0    0  0.83997413756E+01 -0.18451089804E+02  0.61325909182E+01  0.21180345648E+02  0.51100000000E-03 0. -1.
        -11    1    3    3    0    0  0.66839194260E+01 -0.99528469479E+01  0.64602105460E+01  0.13618673277E+02  0.51100000000E-03 0.  1.
        -12    1    3    3    0    0  0.89816237573E+01  0.60747437568E+01  0.11395426555E+02  0.15729838632E+02  0.00000000000E+00 0.  1.
</event>
<event>
 7    1  0.2500839E-011  0.5052887E+02  0.7816164E-02  0.1300439E+00
        -11   -1    0    0    0    0  0.00000000000E+00  0.00000000000E+00  0.45593999997E+02  0.45594000000E+02  0.51100000000E-03 0.  1.
         11   -1    0    0    0    0 -0.00000000000E+00 -0.00000000000E+00 -0.45593999997E+02  0.45594000000E+02  0.51100000000E-03 0. -1.
    9900012    2    1    2    0    0  0.15390385493E+02 -0.37535836671E+02  0.27132701728E+01  0.50528870210E+02  0.30000031491E+02 0.  0.
         12    1    1    2    0    0 -0.15390385493E+02  0.37535836671E+02 -0.27132701728E+01  0.40659129790E+02  0.00000000000E+00 0. -1.
         11    1    3    3    0    0  0.94189689315E+01 -0.35558735959E+02 -0.55023364345E+01  0.37194305817E+02  0.51100000000E-03 0. -1.
        -11    1    3    3    0    0  0.48364200612E+01 -0.40652387256E+01  0.19169171344E+01  0.66024008108E+01  0.51100000000E-03 0.  1.
        -12    1    3    3    0    0  0.11349965002E+01  0.20881380134E+01  0.62986894728E+01  0.67321635819E+01  0.00000000000E+00 0.  1.
</event>
<event>
 7    1  0.2500839E-011  0.5052890E+02  0.7816164E-02  0.1300439E+00
        -11   -1    0    0    0    0  0.00000000000E+00  0.00000000000E+00  0.45593999997E+02  0.45594000000E+02  0.51100000000E-03 0. -1.
         11   -1    0    0    0    0 -0.00000000000E+00 -0.00000000000E+00 -0.45593999997E+02  0.45594000000E+02  0.51100000000E-03 0.  1.
    9900012    2    1    2    0    0  0.39414244522E+02 -0.99692466574E+01 -0.54193945219E+00  0.50528902020E+02  0.30000128179E+02 0.  0.
         12    1    1    2    0    0 -0.39414244522E+02  0.99692466574E+01  0.54193945219E+00  0.40659097980E+02  0.00000000000E+00 0. -1.
         11    1    3    3    0    0  0.88592702151E+01  0.53059053606E+01 -0.60977724043E+01  0.11992586418E+02  0.51100000000E-03 0. -1.
        -11    1    3    3    0    0  0.14897198516E+02 -0.16391030480E+02  0.91924666163E+00  0.22168387819E+02  0.51100000000E-03 0.  1.
         12    1    3    3    0    0  0.15657775791E+02  0.11158784616E+01  0.46365862905E+01  0.16367927782E+02  0.00000000000E+00 0. -1.
</event>
<event>
 7    1  0.2500839E-011  0.5052886E+02  0.7816164E-02  0.1300439E+00
        -11   -1    0    0    0    0  0.00000000000E+00  0.00000000000E+00  0.45593999997E+02  0.45594000000E+02  0.51100000000E-03 0.  1.
         11   -1    0    0    0    0 -0.00000000000E+00 -0.00000000000E+00 -0.45593999997E+02  0.45594000000E+02  0.51100000000E-03 0. -1.
    9900012    2    1    2    0    0 -0.38148655117E+02  0.56626047593E+01  0.12875600018E+02  0.50528855202E+02  0.29999985871E+02 0.  0.
         12    1    1    2    0    0  0.38148655117E+02 -0.56626047593E+01 -0.12875600018E+02  0.40659144798E+02  0.00000000000E+00 0. -1.
         11    1    3    3    0    0 -0.76265204825E+01  0.27458985770E+01 -0.72178610037E+01  0.10853630333E+02  0.51100000000E-03 0. -1.
        -11    1    3    3    0    0 -0.24880748099E+01 -0.18288938102E+00 -0.25037670943E+01  0.35345176063E+01  0.51100000000E-03 0.  1.
        -12    1    3    3    0    0 -0.28034059825E+02  0.30995955633E+01  0.22597228116E+02  0.36140707263E+02  0.00000000000E+00 0.  1.
</event>
<event>
 7    1  0.2500839E-011  0.5052886E+02  0.7816164E-02  0.1300439E+00
        -11   -1    0    0    0    0  0.00000000000E+00  0.00000000000E+00  0.45593999997E+02  0.45594000000E+02  0.51100000000E-03 0. -1.
         11   -1    0    0    0    0 -0.00000000000E+00 -0.00000000000E+00 -0.45593999997E+02  0.45594000000E+02  0.51100000000E-03 0.  1.
    9900012    2    1    2    0    0 -0.24364486704E+02  0.77351443085E+01 -0.31618105660E+02  0.50528864799E+02  0.30000015042E+02 0.  0.
         12    1    1    2    0    0  0.24364486704E+02 -0.77351443085E+01  0.31618105660E+02  0.40659135201E+02  0.00000000000E+00 0. -1.
         11    1    3    3    0    0 -0.65556214405E-01  0.94466743628E+01 -0.10021923836E+02  0.13772541950E+02  0.51100000000E-03 0. -1.
        -11    1    3    3    0    0  0.14091056695E+01 -0.17223970987E+01  0.10825695665E+01  0.24747096155E+01  0.51100000000E-03 0.  1.
         12    1    3    3    0    0 -0.25708036159E+02  0.10867044381E-01 -0.22678751390E+02  0.34281613233E+02  0.00000000000E+00 0. -1.
</event>
<event>
 7    1  0.2500839E-011  0.5052887E+02  0.7816164E-02  0.1300439E+00
        -11   -1    0    0    0    0  0.00000000000E+00  0.00000000000E+00  0.45593999997E+02  0.45594000000E+02  0.51100000000E-03 0.  1.
         11   -1    0    0    0    0 -0.00000000000E+00 -0.00000000000E+00 -0.45593999997E+02  0.45594000000E+02  0.51100000000E-03 0. -1.
    9900012    2    1    2    0    0 -0.23257384859E+02 -0.54274673580E+01  0.32905954027E+02  0.50528866182E+02  0.30000019245E+02 0.  0.
         12    1    1    2    0    0  0.23257384859E+02  0.54274673580E+01 -0.32905954027E+02  0.40659133818E+02  0.00000000000E+00 0. -1.
         11    1    3    3    0    0 -0.75055367113E+01 -0.37583441940E+01  0.18689712529E+02  0.20488132835E+02  0.51100000000E-03 0. -1.
        -11    1    3    3    0    0 -0.18339880796E+02 -0.69345151117E+01  0.14138724292E+02  0.24173172161E+02  0.51100000000E-03 0.  1.
         12    1    3    3    0    0  0.25880326478E+01  0.52653919477E+01  0.77517206428E-01  0.58675611855E+01  0.00000000000E+00 0. -1.
</event>
<event>
 7    1  0.2500839E-011  0.5052886E+02  0.7816164E-02  0.1300439E+00
        -11   -1    0    0    0    0  0.00000000000E+00  0.00000000000E+00  0.45593999997E+02  0.45594000000E+02  0.51100000000E-03 0.  1.
         11   -1    0    0    0    0 -0.00000000000E+00 -0.00000000000E+00 -0.45593999997E+02  0.45594000000E+02  0.51100000000E-03 0. -1.
    9900012    2    1    2    0    0 -0.28104611388E+02 -0.11635987344E+02  0.26979623712E+02  0.50528862302E+02  0.30000007453E+02 0.  0.
         12    1    1    2    0    0  0.28104611388E+02  0.11635987344E+02 -0.26979623712E+02  0.40659137698E+02  0.00000000000E+00 0. -1.
         11    1    3    3    0    0 -0.10579022841E+01 -0.85353363760E+01  0.48076878610E+01  0.98531714246E+01  0.51100000000E-03 0. -1.
        -11    1    3    3    0    0 -0.18645060771E+02 -0.96309336652E+01  0.69565771008E+01  0.22108530925E+02  0.51100000000E-03 0.  1.
         12    1    3    3    0    0 -0.84016483326E+01  0.65302826974E+01  0.15215358750E+02  0.18567159952E+02  0.00000000000E+00 0. -1.
</event>
<event>
 7    1  0.2500839E-011  0.5052884E+02  0.7816164E-02  0.1300439E+00
        -11   -1    0    0    0    0  0.00000000000E+00  0.00000000000E+00  0.45593999997E+02  0.45594000000E+02  0.51100000000E-03 0.  1.
         11   -1    0    0    0    0 -0.00000000000E+00 -0.00000000000E+00 -0.45593999997E+02  0.45594000000E+02  0.51100000000E-03 0. -1.
    9900012    2    1    2    0    0 -0.28523517789E+01 -0.33210181754E+02  0.23283368809E+02  0.50528839336E+02  0.29999937646E+02 0.  0.
         12    1    1    2    0    0  0.28523517789E+01  0.33210181754E+02 -0.23283368809E+02  0.40659160664E+02  0.00000000000E+00 0. -1.
         11    1    3    3    0    0  0.42854399874E+01 -0.42229793224E+00  0.25347383726E+01  0.49968220209E+01  0.51100000000E-03 0. -1.
        -11    1    3    3    0    0 -0.23731206584E+01 -0.17339216546E+02  0.23325795307E+02  0.29161153254E+02  0.51100000000E-03 0.  1.
        -12    1    3    3    0    0 -0.47646711080E+01 -0.15448667275E+02 -0.25771648708E+01  0.16370864061E+02  0.00000000000E+00 0.  1.
</event>
<event>
 7    1  0.2500839E-011  0.5052885E+02  0.7816164E-02  0.1300439E+00
        -11   -1    0    0    0    0  0.00000000000E+00  0.00000000000E+00  0.45593999997E+02  0.45594000000E+02  0.51100000000E-03 0.  1.
         11   -1    0    0    0    0 -0.00000000000E+00 -0.00000000000E+00 -0.45593999997E+02  0.45594000000E+02  0.51100000000E-03 0. -1.
    9900012    2    1    2    0    0 -0.37357973990E+02 -0.14332291884E+02  0.72203476337E+01  0.50528853044E+02  0.29999979311E+02 0.  0.
         12    1    1    2    0    0  0.37357973990E+02  0.14332291884E+02 -0.72203476337E+01  0.40659146956E+02  0.00000000000E+00 0. -1.
         11    1    3    3    0    0 -0.79816867161E+00  0.44031892946E+01  0.45638219065E+01  0.63916836473E+01  0.51100000000E-03 0. -1.
        -11    1    3    3    0    0 -0.10665227477E+02  0.90590745308E+00 -0.30707984561E+01  0.11135418667E+02  0.51100000000E-03 0.  1.
        -12    1    3    3    0    0 -0.25894577841E+02 -0.19641388631E+02  0.57273241832E+01  0.33001750730E+02  0.00000000000E+00 0.  1.
</event>
<event>
 7    1  0.2500839E-011  0.5052884E+02  0.7816164E-02  0.1300439E+00
        -11   -1    0    0    0    0  0.00000000000E+00  0.00000000000E+00  0.45593999997E+02  0.45594000000E+02  0.51100000000E-03 0. -1.
         11   -1    0    0    0    0 -0.00000000000E+00 -0.00000000000E+00 -0.45593999997E+02  0.45594000000E+02  0.51100000000E-03 0.  1.
    9900012    2    1    2    0    0  0.31255550533E+02  0.25999527563E+02  0.53135333408E+00  0.50528841019E+02  0.29999942762E+02 0.  0.
         12    1    1    2    0    0 -0.31255550533E+02 -0.25999527563E+02 -0.53135333408E+00  0.40659158981E+02  0.00000000000E+00 0. -1.
         11    1    3    3    0    0  0.26650079755E+02  0.10550609675E+02 -0.34629646415E+01  0.28870993053E+02  0.51100000000E-03 0.  1.
        -11    1    3    3    0    0  0.39989335993E+01 -0.81106377626E+00  0.35052230714E+01  0.53792084383E+01  0.51100000000E-03 0. -1.
         12    1    3    3    0    0  0.60653717857E+00  0.16259981664E+02  0.48909490413E+00  0.16278639528E+02  0.00000000000E+00 0. -1.
</event>
<event>
 7    1  0.2500839E-011  0.5052886E+02  0.7816164E-02  0.1300439E+00
        -11   -1    0    0    0    0  0.00000000000E+00  0.00000000000E+00  0.45593999997E+02  0.45594000000E+02  0.51100000000E-03 0.  1.
         11   -1    0    0    0    0 -0.00000000000E+00 -0.00000000000E+00 -0.45593999997E+02  0.45594000000E+02  0.51100000000E-03 0. -1.
    9900012    2    1    2    0    0  0.19999448818E+02  0.35020777636E+01  0.35226743299E+02  0.50528856562E+02  0.29999990005E+02 0.  0.
         12    1    1    2    0    0 -0.19999448818E+02 -0.35020777636E+01 -0.35226743299E+02  0.40659143438E+02  0.00000000000E+00 0. -1.
         11    1    3    3    0    0 -0.51099253122E+01 -0.20362430352E+01  0.83718467537E-02  0.55006992959E+01  0.51100000000E-03 0. -1.
        -11    1    3    3    0    0  0.11223379197E+01  0.97936789315E+00  0.93065587627E+01  0.94250114133E+01  0.51100000000E-03 0.  1.
        -12    1    3    3    0    0  0.23987036210E+02  0.45589529056E+01  0.25911812690E+02  0.35603145853E+02  0.00000000000E+00 0.  1.
</event>
<event>
 7    1  0.2500839E-011  0.5052885E+02  0.7816164E-02  0.1300439E+00
        -11   -1    0    0    0    0  0.00000000000E+00  0.00000000000E+00  0.45593999997E+02  0.45594000000E+02  0.51100000000E-03 0.  1.
         11   -1    0    0    0    0 -0.00000000000E+00 -0.00000000000E+00 -0.45593999997E+02  0.45594000000E+02  0.51100000000E-03 0. -1.
    9900012    2    1    2    0    0 -0.16414793215E+01 -0.38806794705E+02 -0.12020996368E+02  0.50528854371E+02  0.29999983346E+02 0.  0.
         12    1    1    2    0    0  0.16414793215E+01  0.38806794705E+02  0.12020996368E+02  0.40659145629E+02  0.00000000000E+00 0. -1.
         11    1    3    3    0    0  0.25392783827E+01 -0.21538019164E+02 -0.33065963048E+01  0.21937816291E+02  0.51100000000E-03 0. -1.
        -11    1    3    3    0    0  0.56144710207E+01 -0.64064787037E+01  0.38130405305E+01  0.93329809049E+01  0.51100000000E-03 0.  1.
         12    1    3    3    0    0 -0.97952287250E+01 -0.10862296837E+02 -0.12527440593E+02  0.19258057175E+02  0.00000000000E+00 0. -1.
</event>
<event>
 7    1  0.2500839E-011  0.5052885E+02  0.7816164E-02  0.1300439E+00
        -11   -1    0    0    0    0  0.00000000000E+00  0.00000000000E+00  0.45593999997E+02  0.45594000000E+02  0.51100000000E-03 0.  1.
         11   -1    0    0    0    0 -0.00000000000E+00 -0.00000000000E+00 -0.45593999997E+02  0.45594000000E+02  0.51100000000E-03 0. -1.
    9900012    2    1    2    0    0 -0.21487808165E+02 -0.32975516761E+02  0.10200774060E+02  0.50528851007E+02  0.29999973121E+02 0.  0.
         12    1    1    2    0    0  0.21487808165E+02  0.32975516761E+02 -0.10200774060E+02  0.40659148993E+02  0.00000000000E+00 0. -1.
         11    1    3    3    0    0 -0.11554530867E+02 -0.31412791648E+01 -0.13619746734E+01  0.12051132462E+02  0.51100000000E-03 0. -1.
        -11    1    3    3    0    0 -0.36638363026E+01 -0.20873963720E+02 -0.17312830720E+01  0.21263663823E+02  0.51100000000E-03 0.  1.
        -12    1    3    3    0    0 -0.62694409959E+01 -0.89602738769E+01  0.13294031805E+02  0.17214054723E+02  0.00000000000E+00 0.  1.
</event>
<event>
 7    1  0.2500839E-011  0.5052886E+02  0.7816164E-02  0.1300439E+00
        -11   -1    0    0    0    0  0.00000000000E+00  0.00000000000E+00  0.45593999997E+02  0.45594000000E+02  0.51100000000E-03 0. -1.
         11   -1    0    0    0    0 -0.00000000000E+00 -0.00000000000E+00 -0.45593999997E+02  0.45594000000E+02  0.51100000000E-03 0.  1.
    9900012    2    1    2    0    0 -0.29997641426E+02 -0.45966892336E+00 -0.27442587300E+02  0.50528863457E+02  0.30000010965E+02 0.  0.
         12    1    1    2    0    0  0.29997641426E+02  0.45966892336E+00  0.27442587300E+02  0.40659136543E+02  0.00000000000E+00 0. -1.
         11    1    3    3    0    0 -0.11264811923E+02 -0.55843099484E+01 -0.69607536406E+01  0.14371242005E+02  0.51100000000E-03 0. -1.
        -11    1    3    3    0    0  0.11847517916E+01 -0.42430342408E+01 -0.11625436183E+02  0.12432125445E+02  0.51100000000E-03 0.  1.
        -12    1    3    3    0    0 -0.19917581294E+02  0.93676752658E+01 -0.88563974767E+01  0.23725496007E+02  0.00000000000E+00 0.  1.
</event>
<event>
 7    1  0.2500839E-011  0.5052886E+02  0.7816164E-02  0.1300439E+00
        -11   -1    0    0    0    0  0.00000000000E+00  0.00000000000E+00  0.45593999997E+02  0.45594000000E+02  0.51100000000E-03 0. -1.
         11   -1    0    0    0    0 -0.00000000000E+00 -0.00000000000E+00 -0.45593999997E+02  0.45594000000E+02  0.51100000000E-03 0.  1.
    9900012    2    1    2    0    0 -0.30932531498E+01 -0.19730906237E+02 -0.35415941072E+02  0.50528858863E+02  0.29999997000E+02 0.  0.
         12    1    1    2    0    0  0.30932531498E+01  0.19730906237E+02  0.35415941072E+02  0.40659141137E+02  0.00000000000E+00 0. -1.
         11    1    3    3    0    0  0.82418227189E+01  0.23351440246E+01 -0.96478344205E+01  0.12901986227E+02  0.51100000000E-03 0. -1.
        -11    1    3    3    0    0 -0.27668119619E+01 -0.44338039525E+01 -0.13560567436E+02  0.14532819938E+02  0.51100000000E-03 0.  1.
        -12    1    3    3    0    0 -0.85682639068E+01 -0.17632246309E+02 -0.12207539216E+02  0.23094052697E+02  0.00000000000E+00 0.  1.
</event>
<event>
 7    1  0.2500839E-011  0.5052886E+02  0.7816164E-02  0.1300439E+00
        -11   -1    0    0    0    0  0.00000000000E+00  0.00000000000E+00  0.45593999997E+02  0.45594000000E+02  0.51100000000E-03 0.  1.
         11   -1    0    0    0    0 -0.00000000000E+00 -0.00000000000E+00 -0.45593999997E+02  0.45594000000E+02  0.51100000000E-03 0. -1.
    9900012    2    1    2    0    0  0.38318786403E+02 -0.77463697313E+01  0.11172743618E+02  0.50528857911E+02  0.29999994107E+02 0.  0.
         12    1    1    2    0    0 -0.38318786403E+02  0.77463697313E+01 -0.11172743618E+02  0.40659142089E+02  0.00000000000E+00 0. -1.
         11    1    3    3    0    0 -0.24363933818E+01 -0.32368078158E+01  0.44872605520E+01  0.60455309998E+01  0.51100000000E-03 0. -1.
        -11    1    3    3    0    0  0.20353653071E+02 -0.10223765546E+02  0.40305197094E+01  0.23130967655E+02  0.51100000000E-03 0.  1.
         12    1    3    3    0    0  0.20401526714E+02  0.57142036303E+01  0.26549633561E+01  0.21352359256E+02  0.00000000000E+00 0. -1.
</event>
<event>
 7    1  0.2500839E-011  0.5052886E+02  0.7816164E-02  0.1300439E+00
        -11   -1    0    0    0    0  0.00000000000E+00  0.00000000000E+00  0.45593999997E+02  0.45594000000E+02  0.51100000000E-03 0.  1.
         11   -1    0    0    0    0 -0.00000000000E+00 -0.00000000000E+00 -0.45593999997E+02  0.45594000000E+02  0.51100000000E-03 0. -1.
    9900012    2    1    2    0    0  0.18122836496E+02 -0.22743591517E+02  0.28415794402E+02  0.50528861676E+02  0.30000005549E+02 0.  0.
         12    1    1    2    0    0 -0.18122836496E+02  0.22743591517E+02 -0.28415794402E+02  0.40659138324E+02  0.00000000000E+00 0. -1.
         11    1    3    3    0    0 -0.20189125157E+01 -0.12332453913E+02  0.87812035661E+01  0.15273341598E+02  0.51100000000E-03 0. -1.
        -11    1    3    3    0    0  0.12812913127E+02 -0.10788777325E+02  0.21903595629E+02  0.27574190119E+02  0.51100000000E-03 0.  1.
         12    1    3    3    0    0  0.73288358845E+01  0.37763972058E+00 -0.22690047926E+01  0.76813299584E+01  0.00000000000E+00 0. -1.
</event>
<event>
 7    1  0.2500839E-011  0.5052886E+02  0.7816164E-02  0.1300439E+00
        -11   -1    0    0    0    0  0.00000000000E+00  0.00000000000E+00  0.45593999997E+02  0.45594000000E+02  0.51100000000E-03 0. -1.
         11   -1    0    0    0    0 -0.00000000000E+00 -0.00000000000E+00 -0.45593999997E+02  0.45594000000E+02  0.51100000000E-03 0.  1.
    9900012    2    1    2    0    0 -0.38812724989E+02 -0.95624960907E+01 -0.74361997294E+01  0.50528855654E+02  0.29999987245E+02 0.  0.
         12    1    1    2    0    0  0.38812724989E+02  0.95624960907E+01  0.74361997294E+01  0.40659144346E+02  0.00000000000E+00 0. -1.
         11    1    3    3    0    0 -0.20896645287E+01  0.24448586766E+01 -0.44456076948E+01  0.54870265015E+01  0.51100000000E-03 0. -1.
        -11    1    3    3    0    0 -0.25912049395E+02 -0.11818895581E+02 -0.12060755970E+02  0.30928666823E+02  0.51100000000E-03 0.  1.
         12    1    3    3    0    0 -0.10811011066E+02 -0.18845918673E+00  0.90701639356E+01  0.14113162330E+02  0.00000000000E+00 0. -1.
</event>
<event>
 7    1  0.2500839E-011  0.5052886E+02  0.7816164E-02  0.1300439E+00
        -11   -1    0    0    0    0  0.00000000000E+00  0.00000000000E+00  0.45593999997E+02  0.45594000000E+02  0.51100000000E-03 0.  1.
         11   -1    0    0    0    0 -0.00000000000E+00 -0.00000000000E+00 -0.45593999997E+02  0.45594000000E+02  0.51100000000E-03 0. -1.
    9900012    2    1    2    0    0 -0.16736383657E+02  0.30924443569E+02  0.20414154584E+02  0.50528862584E+02  0.30000008312E+02 0.  0.
         12    1    1    2    0    0  0.16736383657E+02 -0.30924443569E+02 -0.20414154584E+02  0.40659137416E+02  0.00000000000E+00 0. -1.
         11    1    3    3    0    0 -0.13473943010E+02  0.22103469820E+01  0.16229984055E+01  0.13750159930E+02  0.51100000000E-03 0. -1.
        -11    1    3    3    0    0 -0.53104791744E+01  0.59408104668E+01  0.86641674521E+01  0.11771245302E+02  0.51100000000E-03 0.  1.
        -12    1    3    3    0    0  0.20480385280E+01  0.22773286121E+02  0.10126988727E+02  0.25007457352E+02  0.00000000000E+00 0.  1.
</event>
<event>
 7    1  0.2500839E-011  0.5052886E+02  0.7816164E-02  0.1300439E+00
        -11   -1    0    0    0    0  0.00000000000E+00  0.00000000000E+00  0.45593999997E+02  0.45594000000E+02  0.51100000000E-03 0.  1.
         11   -1    0    0    0    0 -0.00000000000E+00 -0.00000000000E+00 -0.45593999997E+02  0.45594000000E+02  0.51100000000E-03 0. -1.
    9900012    2    1    2    0    0  0.26632922668E+02 -0.19461765816E+02 -0.23771676921E+02  0.50528861763E+02  0.30000005815E+02 0.  0.
         12    1    1    2    0    0 -0.26632922668E+02  0.19461765816E+02  0.23771676921E+02  0.40659138237E+02  0.00000000000E+00 0. -1.
         11    1    3    3    0    0  0.12964576885E+02 -0.82106351197E+01 -0.56425828991E+01  0.16350337150E+02  0.51100000000E-03 0. -1.
        -11    1    3    3    0    0 -0.56765750997E+01 -0.33497117762E+01 -0.11960856076E+00  0.65922970439E+01  0.51100000000E-03 0.  1.
         12    1    3    3    0    0  0.19344920883E+02 -0.79014189204E+01 -0.18009485461E+02  0.27586227569E+02  0.00000000000E+00 0. -1.
</event>
<event>
 7    1  0.2500839E-011  0.5052887E+02  0.7816164E-02  0.1300439E+00
        -11   -1    0    0    0    0  0.00000000000E+00  0.00000000000E+00  0.45593999997E+02  0.45594000000E+02  0.51100000000E-03 0.  1.
         11   -1    0    0    0    0 -0.00000000000E+00 -0.00000000000E+00 -0.45593999997E+02  0.45594000000E+02  0.51100000000E-03 0. -1.
    9900012    2    1    2    0    0  0.36476888673E+02  0.16374987572E+02 -0.73797723003E+01  0.50528872311E+02  0.30000037876E+02 0.  0.
         12    1    1    2    0    0 -0.36476888673E+02 -0.16374987572E+02  0.73797723003E+01  0.40659127689E+02  0.00000000000E+00 0. -1.
         11    1    3    3    0    0  0.24064216339E+02  0.13365900431E+02 -0.15336600016E+01  0.27569655704E+02  0.51100000000E-03 0. -1.
        -11    1    3    3    0    0 -0.41096646150E+00  0.75691981236E+01  0.11318342916E+01  0.76643788262E+01  0.51100000000E-03 0.  1.
         12    1    3    3    0    0  0.12823638795E+02 -0.45601109833E+01 -0.69779465903E+01  0.15294837781E+02  0.00000000000E+00 0. -1.
</event>
<event>
 7    1  0.2500839E-011  0.5052886E+02  0.7816164E-02  0.1300439E+00
        -11   -1    0    0    0    0  0.00000000000E+00  0.00000000000E+00  0.45593999997E+02  0.45594000000E+02  0.51100000000E-03 0.  1.
         11   -1    0    0    0    0 -0.00000000000E+00 -0.00000000000E+00 -0.45593999997E+02  0.45594000000E+02  0.51100000000E-03 0. -1.
    9900012    2    1    2    0    0 -0.19010497138E+02  0.34006243916E+02  0.11633655617E+02  0.50528861178E+02  0.30000004038E+02 0.  0.
         12    1    1    2    0    0  0.19010497138E+02 -0.34006243916E+02 -0.11633655617E+02  0.40659138822E+02  0.00000000000E+00 0. -1.
         11    1    3    3    0    0 -0.85900089918E+01 -0.35841578293E+01  0.34776112066E+01  0.99362076160E+01  0.51100000000E-03 0. -1.
        -11    1    3    3    0    0 -0.24695254061E+01  0.68698295188E+01 -0.14395182359E+01  0.74407880202E+01  0.51100000000E-03 0.  1.
        -12    1    3    3    0    0 -0.79509627398E+01  0.30720572227E+02  0.95955626468E+01  0.33151865542E+02  0.00000000000E+00 0.  1.
</event>
<event>
 7    1  0.2500839E-011  0.5052884E+02  0.7816164E-02  0.1300439E+00
        -11   -1    0    0    0    0  0.00000000000E+00  0.00000000000E+00  0.45593999997E+02  0.45594000000E+02  0.51100000000E-03 0.  1.
         11   -1    0    0    0    0 -0.00000000000E+00 -0.00000000000E+00 -0.45593999997E+02  0.45594000000E+02  0.51100000000E-03 0. -1.
    9900012    2    1    2    0    0  0.31308870862E+01 -0.49125714696E+01  0.40239673519E+02  0.50528841902E+02  0.29999945444E+02 0.  0.
         12    1    1    2    0    0 -0.31308870862E+01  0.49125714696E+01 -0.40239673519E+02  0.40659158098E+02  0.00000000000E+00 0. -1.
         11    1    3    3    0    0 -0.68763088990E+01 -0.28320136650E+01  0.55289682123E+01  0.92667909886E+01  0.51100000000E-03 0. -1.
        -11    1    3    3    0    0  0.96462573773E+01 -0.51778866898E+01  0.36190666169E+02  0.37810383626E+02  0.51100000000E-03 0.  1.
         12    1    3    3    0    0  0.36093860796E+00  0.30973288852E+01 -0.14799608626E+01  0.34516672865E+01  0.00000000000E+00 0. -1.
</event>
<event>
 7    1  0.2500839E-011  0.5052886E+02  0.7816164E-02  0.1300439E+00
        -11   -1    0    0    0    0  0.00000000000E+00  0.00000000000E+00  0.45593999997E+02  0.45594000000E+02  0.51100000000E-03 0. -1.
         11   -1    0    0    0    0 -0.00000000000E+00 -0.00000000000E+00 -0.45593999997E+02  0.45594000000E+02  0.51100000000E-03 0.  1.
    9900012    2    1    2    0    0 -0.38799605833E+02 -0.11490047409E+02  0.39667522353E+01  0.50528859262E+02  0.29999998213E+02 0.  0.
         12    1    1    2    0    0  0.38799605833E+02  0.11490047409E+02 -0.39667522353E+01  0.40659140738E+02  0.00000000000E+00 0. -1.
         11    1    3    3    0    0 -0.18182323706E+02 -0.11455634703E+02 -0.65745966583E+00  0.21500249191E+02  0.51100000000E-03 0. -1.
        -11    1    3    3    0    0 -0.15513205915E+02 -0.15798780678E+01 -0.63425057239E+01  0.16833982048E+02  0.51100000000E-03 0.  1.
        -12    1    3    3    0    0 -0.51040762121E+01  0.15454653616E+01  0.10966717625E+02  0.12194628023E+02  0.00000000000E+00 0.  1.
</event>
<event>
 7    1  0.2500839E-011  0.5052885E+02  0.7816164E-02  0.1300439E+00
        -11   -1    0    0    0    0  0.00000000000E+00  0.00000000000E+00  0.45593999997E+02  0.45594000000E+02  0.51100000000E-03 0.  1.
         11   -1    0    0    0    0 -0.00000000000E+00 -0.00000000000E+00 -0.45593999997E+02  0.45594000000E+02  0.51100000000E-03 0. -1.
    9900012    2    1    2    0    0 -0.26508212840E+02 -0.30275686604E+02  0.58192757436E+01  0.50528849523E+02  0.29999968612E+02 0.  0.
         12    1    1    2    0    0  0.26508212840E+02  0.30275686604E+02 -0.58192757436E+01  0.40659150477E+02  0.00000000000E+00 0. -1.
         11    1    3    3    0    0 -0.20044050160E+02 -0.15615011127E+02 -0.80300245097E+01  0.26647210233E+02  0.51100000000E-03 0. -1.
        -11    1    3    3    0    0 -0.30090367013E+01 -0.36559338506E+01 -0.12343665891E+01  0.48932418014E+01  0.51100000000E-03 0.  1.
        -12    1    3    3    0    0 -0.34551259784E+01 -0.11004741626E+02  0.15083666842E+02  0.18988397489E+02  0.00000000000E+00 0.  1.
</event>
<event>
 7    1  0.2500839E-011  0.5052885E+02  0.7816164E-02  0.1300439E+00
        -11   -1    0    0    0    0  0.00000000000E+00  0.00000000000E+00  0.45593999997E+02  0.45594000000E+02  0.51100000000E-03 0.  1.
         11   -1    0    0    0    0 -0.00000000000E+00 -0.00000000000E+00 -0.45593999997E+02  0.45594000000E+02  0.51100000000E-03 0. -1.
    9900012    2    1    2    0    0 -0.37938887516E+02 -0.28338337359E+01  0.14344916024E+02  0.50528850780E+02  0.29999972430E+02 0.  0.
         12    1    1    2    0    0  0.37938887516E+02  0.28338337359E+01 -0.14344916024E+02  0.40659149220E+02  0.00000000000E+00 0. -1.
         11    1    3    3    0    0 -0.42191624823E+01 -0.83004605294E+01  0.54708785986E+01  0.10799513413E+02  0.51100000000E-03 0. -1.
        -11    1    3    3    0    0 -0.12099698230E+02  0.73063398566E+01  0.11023570983E+02  0.17924966299E+02  0.51100000000E-03 0.  1.
        -12    1    3    3    0    0 -0.21620026803E+02 -0.18397130631E+01 -0.21495335573E+01  0.21804371067E+02  0.00000000000E+00 0.  1.
</event>
<event>
 7    1  0.2500839E-011  0.5052886E+02  0.7816164E-02  0.1300439E+00
        -11   -1    0    0    0    0  0.00000000000E+00  0.00000000000E+00  0.45593999997E+02  0.45594000000E+02  0.51100000000E-03 0.  1.
         11   -1    0    0    0    0 -0.00000000000E+00 -0.00000000000E+00 -0.45593999997E+02  0.45594000000E+02  0.51100000000E-03 0. -1.
    9900012    2    1    2    0    0 -0.37047366374E+02 -0.14645763261E+02 -0.81338845396E+01  0.50528858169E+02  0.29999994891E+02 0.  0.
         12    1    1    2    0    0  0.37047366374E+02  0.14645763261E+02  0.81338845396E+01  0.40659141831E+02  0.00000000000E+00 0. -1.
         11    1    3    3    0    0 -0.13042657903E+02  0.52957552200E+01 -0.88908932644E+01  0.16649442388E+02  0.51100000000E-03 0. -1.
        -11    1    3    3    0    0 -0.42178776429E+01 -0.66421924857E+01 -0.50397193610E+01  0.93438741605E+01  0.51100000000E-03 0.  1.
        -12    1    3    3    0    0 -0.19786830827E+02 -0.13299325995E+02  0.57967280859E+01  0.24535541620E+02  0.00000000000E+00 0.  1.
</event>
<event>
 7    1  0.2500839E-011  0.5052886E+02  0.7816164E-02  0.1300439E+00
        -11   -1    0    0    0    0  0.00000000000E+00  0.00000000000E+00  0.45593999997E+02  0.45594000000E+02  0.51100000000E-03 0. -1.
         11   -1    0    0    0    0 -0.00000000000E+00 -0.00000000000E+00 -0.45593999997E+02  0.45594000000E+02  0.51100000000E-03 0.  1.
    9900012    2    1    2    0    0 -0.51254616428E+01 -0.30294981912E+02 -0.26629105279E+02  0.50528861617E+02  0.30000005371E+02 0.  0.
         12    1    1    2    0    0  0.51254616428E+01  0.30294981912E+02  0.26629105279E+02  0.40659138383E+02  0.00000000000E+00 0. -1.
         11    1    3    3    0    0 -0.86075894801E+01 -0.31052736067E+00 -0.19915871865E+01  0.88404436360E+01  0.51100000000E-03 0. -1.
        -11    1    3    3    0    0 -0.18231133847E+00  0.16854059570E+01 -0.17928457373E+01  0.24674129697E+01  0.51100000000E-03 0.  1.
        -12    1    3    3    0    0  0.36644391757E+01 -0.31669860508E+02 -0.22844672355E+02  0.39221005011E+02  0.00000000000E+00 0.  1.
</event>
<event>
 7    1  0.2500839E-011  0.5052885E+02  0.7816164E-02  0.1300439E+00
        -11   -1    0    0    0    0  0.00000000000E+00  0.00000000000E+00  0.45593999997E+02  0.45594000000E+02  0.51100000000E-03 0. -1.
         11   -1    0    0    0    0 -0.00000000000E+00 -0.00000000000E+00 -0.45593999997E+02  0.45594000000E+02  0.51100000000E-03 0.  1.
    9900012    2    1    2    0    0  0.26879583869E+02  0.21803653686E+02  0.21336712202E+02  0.50528848132E+02  0.29999964381E+02 0.  0.
         12    1    1    2    0    0 -0.26879583869E+02 -0.21803653686E+02 -0.21336712202E+02  0.40659151868E+02  0.00000000000E+00 0. -1.
         11    1    3    3    0    0  0.52497338330E+00  0.88342115106E+01 -0.13583422243E+01  0.89534341974E+01  0.51100000000E-03 0.  1.
        -11    1    3    3    0    0 -0.10070196933E+01  0.52935285520E+01  0.30553390455E+00  0.53971181590E+01  0.51100000000E-03 0. -1.
        -12    1    3    3    0    0  0.27361630179E+02  0.76759136236E+01  0.22389520521E+02  0.36178295775E+02  0.00000000000E+00 0.  1.
</event>
<event>
 7    1  0.2500839E-011  0.5052881E+02  0.7816164E-02  0.1300439E+00
        -11   -1    0    0    0    0  0.00000000000E+00  0.00000000000E+00  0.45593999997E+02  0.45594000000E+02  0.51100000000E-03 0.  1.
         11   -1    0    0    0    0 -0.00000000000E+00 -0.00000000000E+00 -0.45593999997E+02  0.45594000000E+02  0.51100000000E-03 0. -1.
    9900012    2    1    2    0    0  0.36566725841E+02  0.10422715046E+02  0.14401779877E+02  0.50528810494E+02  0.29999849978E+02 0.  0.
         12    1    1    2    0    0 -0.36566725841E+02 -0.10422715046E+02 -0.14401779877E+02  0.40659189506E+02  0.00000000000E+00 0. -1.
         11    1    3    3    0    0  0.63293585975E-01 -0.23825638705E+01  0.53908480096E+01  0.58942225271E+01  0.51100000000E-03 0. -1.
        -11    1    3    3    0    0  0.99766143732E+01 -0.18046351630E+01 -0.49559550161E+01  0.11284991485E+02  0.51100000000E-03 0.  1.
         12    1    3    3    0    0  0.26526817882E+02  0.14609914080E+02  0.13966886883E+02  0.33349596483E+02  0.00000000000E+00 0. -1.
</event>
<event>
 7    1  0.2500839E-011  0.5052879E+02  0.7816164E-02  0.1300439E+00
        -11   -1    0    0    0    0  0.00000000000E+00  0.00000000000E+00  0.45593999997E+02  0.45594000000E+02  0.51100000000E-03 0.  1.
         11   -1    0    0    0    0 -0.00000000000E+00 -0.00000000000E+00 -0.45593999997E+02  0.45594000000E+02  0.51100000000E-03 0. -1.
    9900012    2    1    2    0    0 -0.33530799954E+02 -0.20679317688E+02  0.10060962290E+02  0.50528785943E+02  0.29999775351E+02 0.  0.
         12    1    1    2    0    0  0.33530799954E+02  0.20679317688E+02 -0.10060962290E+02  0.40659214057E+02  0.00000000000E+00 0. -1.
         11    1    3    3    0    0 -0.10547056090E+02 -0.18278576774E+02 -0.33723643350E+00  0.21105934941E+02  0.51100000000E-03 0. -1.
        -11    1    3    3    0    0  0.12351871907E+01  0.23548995677E+01  0.49443647673E-01  0.26596398827E+01  0.51100000000E-03 0.  1.
        -12    1    3    3    0    0 -0.24218931054E+02 -0.47556404813E+01  0.10348755076E+02  0.26763211119E+02  0.00000000000E+00 0.  1.
</event>
<event>
 7    1  0.2500839E-011  0.5052886E+02  0.7816164E-02  0.1300439E+00
        -11   -1    0    0    0    0  0.00000000000E+00  0.00000000000E+00  0.45593999997E+02  0.45594000000E+02  0.51100000000E-03 0. -1.
         11   -1    0    0    0    0 -0.00000000000E+00 -0.00000000000E+00 -0.45593999997E+02  0.45594000000E+02  0.51100000000E-03 0.  1.
    9900012    2    1    2    0    0  0.33741778546E+02  0.34022597855E+01 -0.22429501259E+02  0.50528861816E+02  0.30000005977E+02 0.  0.
         12    1    1    2    0    0 -0.33741778546E+02 -0.34022597855E+01  0.22429501259E+02  0.40659138184E+02  0.00000000000E+00 0. -1.
         11    1    3    3    0    0  0.34806509483E+02  0.45498545325E+00 -0.12326323026E+02  0.36927474240E+02  0.51100000000E-03 0.  1.
        -11    1    3    3    0    0 -0.68340279906E+00 -0.30046038133E+01 -0.42073700986E+01  0.52150404474E+01  0.51100000000E-03 0. -1.
        -12    1    3    3    0    0 -0.38132813798E+00  0.59518781456E+01 -0.58958081343E+01  0.83863471288E+01  0.00000000000E+00 0.  1.
</event>
<event>
 7    1  0.3974324E-011  0.5052886E+02  0.7816164E-02  0.1300439E+00
        -11   -1    0    0    0    0  0.00000000000E+00  0.00000000000E+00  0.45593999997E+02  0.45594000000E+02  0.51100000000E-03 0. -1.
         11   -1    0    0    0    0 -0.00000000000E+00 -0.00000000000E+00 -0.45593999997E+02  0.45594000000E+02  0.51100000000E-03 0.  1.
    9900012    2    1    2    0    0 -0.28529727519E+02 -0.54759534902E+01 -0.28447044135E+02  0.50528859097E+02  0.29999997712E+02 0.  0.
         12    1    1    2    0    0  0.28529727519E+02  0.54759534902E+01  0.28447044135E+02  0.40659140903E+02  0.00000000000E+00 0. -1.
         11    1    3    3    0    0 -0.28053142833E+01 -0.16199338147E+01  0.33637490405E+01  0.46699873298E+01  0.51100000000E-03 0. -1.
        -11    1    3    3    0    0 -0.13428234171E+02  0.61308745452E+01 -0.67975861023E+01  0.16251531397E+02  0.51100000000E-03 0.  1.
        -12    1    3    3    0    0 -0.12296179065E+02 -0.99868942206E+01 -0.25013207073E+02  0.29607340371E+02  0.00000000000E+00 0.  1.
</event>
<event>
 7    1  0.2973120E-011  0.5052886E+02  0.7816164E-02  0.1300439E+00
        -11   -1    0    0    0    0  0.00000000000E+00  0.00000000000E+00  0.45593999997E+02  0.45594000000E+02  0.51100000000E-03 0. -1.
         11   -1    0    0    0    0 -0.00000000000E+00 -0.00000000000E+00 -0.45593999997E+02  0.45594000000E+02  0.51100000000E-03 0.  1.
    9900012    2    1    2    0    0 -0.29204414173E+02  0.83572601060E+01 -0.27026362412E+02  0.50528857500E+02  0.29999992856E+02 0.  0.
         12    1    1    2    0    0  0.29204414173E+02 -0.83572601060E+01  0.27026362412E+02  0.40659142500E+02  0.00000000000E+00 0. -1.
         11    1    3    3    0    0 -0.61230433918E+00  0.16572804452E+01  0.44000263535E+01  0.47414899821E+01  0.51100000000E-03 0. -1.
        -11    1    3    3    0    0 -0.90495021940E+01 -0.51645954312E+01 -0.91494148885E+01  0.13866446156E+02  0.51100000000E-03 0.  1.
        -12    1    3    3    0    0 -0.19542607639E+02  0.11864575092E+02 -0.22276973877E+02  0.31920921362E+02  0.00000000000E+00 0.  1.
</event>
<event>
 7    1  0.2500839E-011  0.5052886E+02  0.7816164E-02  0.1300439E+00
        -11   -1    0    0    0    0  0.00000000000E+00  0.00000000000E+00  0.45593999997E+02  0.45594000000E+02  0.51100000000E-03 0.  1.
         11   -1    0    0    0    0 -0.00000000000E+00 -0.00000000000E+00 -0.45593999997E+02  0.45594000000E+02  0.51100000000E-03 0. -1.
    9900012    2    1    2    0    0  0.82753443840E+00 -0.30857307035E+02  0.26463327363E+02  0.50528857046E+02  0.29999991476E+02 0.  0.
         12    1    1    2    0    0 -0.82753443840E+00  0.30857307035E+02 -0.26463327363E+02  0.40659142954E+02  0.00000000000E+00 0. -1.
         11    1    3    3    0    0  0.22448543969E+01 -0.33961931402E+01 -0.66444128318E+00  0.41249220100E+01  0.51100000000E-03 0. -1.
        -11    1    3    3    0    0  0.93159891221E+01 -0.44237546220E+01  0.16990755520E+01  0.10451991020E+02  0.51100000000E-03 0.  1.
        -12    1    3    3    0    0 -0.10733309081E+02 -0.23037359272E+02  0.25428693094E+02  0.35951944016E+02  0.00000000000E+00 0.  1.
</event>
<event>
 7    1  0.2500839E-011  0.5052886E+02  0.7816164E-02  0.1300439E+00
        -11   -1    0    0    0    0  0.00000000000E+00  0.00000000000E+00  0.45593999997E+02  0.45594000000E+02  0.51100000000E-03 0. -1.
         11   -1    0    0    0    0 -0.00000000000E+00 -0.00000000000E+00 -0.45593999997E+02  0.45594000000E+02  0.51100000000E-03 0.  1.
    9900012    2    1    2    0    0  0.38414140527E+02 -0.85029094186E+01 -0.10257672124E+02  0.50528862055E+02  0.30000006704E+02 0.  0.
         12    1    1    2    0    0 -0.38414140527E+02  0.85029094186E+01  0.10257672124E+02  0.40659137945E+02  0.00000000000E+00 0. -1.
         11    1    3    3    0    0 -0.27679654042E+01  0.49541782772E+00 -0.89508765148E+00  0.29509750029E+01  0.51100000000E-03 0. -1.
        -11    1    3    3    0    0  0.22435266972E+02 -0.15769357297E+01 -0.14514782166E+02  0.26767645245E+02  0.51100000000E-03 0.  1.
        -12    1    3    3    0    0  0.18746838959E+02 -0.74213915165E+01  0.51521976932E+01  0.20810241807E+02  0.00000000000E+00 0.  1.
</event>
<event>
 7    1  0.2500839E-011  0.5052886E+02  0.7816164E-02  0.1300439E+00
        -11   -1    0    0    0    0  0.00000000000E+00  0.00000000000E+00  0.45593999997E+02  0.45594000000E+02  0.51100000000E-03 0. -1.
         11   -1    0    0    0    0 -0.00000000000E+00 -0.00000000000E+00 -0.45593999997E+02  0.45594000000E+02  0.51100000000E-03 0.  1.
    9900012    2    1    2    0    0  0.11476667903E+02 -0.38414851744E+02 -0.67639592439E+01  0.50528857298E+02  0.29999992242E+02 0.  0.
         12    1    1    2    0    0 -0.11476667903E+02  0.38414851744E+02  0.67639592439E+01  0.40659142702E+02  0.00000000000E+00 0. -1.
         11    1    3    3    0    0  0.13904487546E+02 -0.79611052875E+01 -0.40397677704E+01  0.16523731274E+02  0.51100000000E-03 0. -1.
        -11    1    3    3    0    0  0.54531131874E+01 -0.13570236401E+02  0.20578314325E+01  0.14768968477E+02  0.51100000000E-03 0.  1.
        -12    1    3    3    0    0 -0.78809328309E+01 -0.16883510055E+02 -0.47820229060E+01  0.19236157546E+02  0.00000000000E+00 0.  1.
</event>
<event>
 7    1  0.3170692E-011  0.5052886E+02  0.7816164E-02  0.1300439E+00
        -11   -1    0    0    0    0  0.00000000000E+00  0.00000000000E+00  0.45593999997E+02  0.45594000000E+02  0.51100000000E-03 0.  1.
         11   -1    0    0    0    0 -0.00000000000E+00 -0.00000000000E+00 -0.45593999997E+02  0.45594000000E+02  0.51100000000E-03 0. -1.
    9900012    2    1    2    0    0 -0.10347631880E+01 -0.40299740584E+02  0.52939155998E+01  0.50528863655E+02  0.30000011565E+02 0.  0.
         12    1    1    2    0    0  0.10347631880E+01  0.40299740584E+02 -0.52939155998E+01  0.40659136345E+02  0.00000000000E+00 0. -1.
         11    1    3    3    0    0 -0.21313656258E+01 -0.10366672715E+02 -0.98218539670E+01  0.14438817064E+02  0.51100000000E-03 0. -1.
        -11    1    3    3    0    0  0.42933968877E+01 -0.31904079157E+01  0.49937648274E+01  0.73177624255E+01  0.51100000000E-03 0.  1.
        -12    1    3    3    0    0 -0.31967944499E+01 -0.26742659953E+02  0.10122004739E+02  0.28772284165E+02  0.00000000000E+00 0.  1.
</event>
<event>
 7    1  0.2500839E-011  0.5052887E+02  0.7816164E-02  0.1300439E+00
        -11   -1    0    0    0    0  0.00000000000E+00  0.00000000000E+00  0.45593999997E+02  0.45594000000E+02  0.51100000000E-03 0. -1.
         11   -1    0    0    0    0 -0.00000000000E+00 -0.00000000000E+00 -0.45593999997E+02  0.45594000000E+02  0.51100000000E-03 0.  1.
    9900012    2    1    2    0    0  0.28090887829E+02 -0.16040733502E+01 -0.29351214673E+02  0.50528870237E+02  0.30000031573E+02 0.  0.
         12    1    1    2    0    0 -0.28090887829E+02  0.16040733502E+01  0.29351214673E+02  0.40659129763E+02  0.00000000000E+00 0. -1.
         11    1    3    3    0    0  0.12131454398E+02 -0.28382057842E+01 -0.22855831273E+01  0.12666944714E+02  0.51100000000E-03 0. -1.
        -11    1    3    3    0    0  0.87300232052E+01 -0.80780385877E+01 -0.22043771237E+02  0.25047871430E+02  0.51100000000E-03 0.  1.
         12    1    3    3    0    0  0.72294102254E+01  0.93121710216E+01 -0.50218603085E+01  0.12814054093E+02  0.00000000000E+00 0. -1.
</event>
<event>
 7    1  0.2500839E-011  0.5052886E+02  0.7816164E-02  0.1300439E+00
        -11   -1    0    0    0    0  0.00000000000E+00  0.00000000000E+00  0.45593999997E+02  0.45594000000E+02  0.51100000000E-03 0.  1.
         11   -1    0    0    0    0 -0.00000000000E+00 -0.00000000000E+00 -0.45593999997E+02  0.45594000000E+02  0.51100000000E-03 0. -1.
    9900012    2    1    2    0    0 -0.27662161926E+02 -0.14910201050E+02  0.25800324892E+02  0.50528855121E+02  0.29999985625E+02 0.  0.
         12    1    1    2    0    0  0.27662161926E+02  0.14910201050E+02 -0.25800324892E+02  0.40659144879E+02  0.00000000000E+00 0. -1.
         11    1    3    3    0    0 -0.78529886209E+01  0.52604716739E+01  0.44219562790E+01  0.10435309775E+02  0.51100000000E-03 0. -1.
        -11    1    3    3    0    0  0.35355536072E+01 -0.26063893324E+01  0.47861165917E+01  0.64961771028E+01  0.51100000000E-03 0.  1.
         12    1    3    3    0    0 -0.23344726913E+02 -0.17564283392E+02  0.16592252021E+02  0.33597368242E+02  0.00000000000E+00 0. -1.
</event>
<event>
 7    1  0.2500839E-011  0.5052877E+02  0.7816164E-02  0.1300439E+00
        -11   -1    0    0    0    0  0.00000000000E+00  0.00000000000E+00  0.45593999997E+02  0.45594000000E+02  0.51100000000E-03 0.  1.
         11   -1    0    0    0    0 -0.00000000000E+00 -0.00000000000E+00 -0.45593999997E+02  0.45594000000E+02  0.51100000000E-03 0. -1.
    9900012    2    1    2    0    0 -0.82576967401E+01 -0.39512195616E+02 -0.48754549725E+01  0.50528767113E+02  0.29999718114E+02 0.  0.
         12    1    1    2    0    0  0.82576967401E+01  0.39512195616E+02  0.48754549725E+01  0.40659232887E+02  0.00000000000E+00 0. -1.
         11    1    3    3    0    0 -0.14416461202E+02 -0.24986657860E+02 -0.17379583808E+01  0.28899618063E+02  0.51100000000E-03 0. -1.
        -11    1    3    3    0    0 -0.87479329665E+00 -0.45487428802E+01  0.51102097065E+01  0.68971420608E+01  0.51100000000E-03 0.  1.
         12    1    3    3    0    0  0.70335577585E+01 -0.99767948752E+01 -0.82477062982E+01  0.14732006988E+02  0.00000000000E+00 0. -1.
</event>
<event>
 7    1  0.2500839E-011  0.5052887E+02  0.7816164E-02  0.1300439E+00
        -11   -1    0    0    0    0  0.00000000000E+00  0.00000000000E+00  0.45593999997E+02  0.45594000000E+02  0.51100000000E-03 0.  1.
         11   -1    0    0    0    0 -0.00000000000E+00 -0.00000000000E+00 -0.45593999997E+02  0.45594000000E+02  0.51100000000E-03 0. -1.
    9900012    2    1    2    0    0 -0.38472604130E+02  0.28991891462E+00  0.13150640697E+02  0.50528872214E+02  0.30000037582E+02 0.  0.
         12    1    1    2    0    0  0.38472604130E+02 -0.28991891462E+00 -0.13150640697E+02  0.40659127786E+02  0.00000000000E+00 0. -1.
         11    1    3    3    0    0 -0.11393474379E+00  0.67673562570E+01  0.19894552737E+01  0.70546455887E+01  0.51100000000E-03 0. -1.
        -11    1    3    3    0    0 -0.32948517671E+01 -0.49204761751E+01  0.51845799553E+01  0.78706418754E+01  0.51100000000E-03 0.  1.
         12    1    3    3    0    0 -0.35063817620E+02 -0.15569611673E+01  0.59766054681E+01  0.35603584750E+02  0.00000000000E+00 0. -1.
</event>
<event>
 7    1  0.2500839E-011  0.5052887E+02  0.7816164E-02  0.1300439E+00
        -11   -1    0    0    0    0  0.00000000000E+00  0.00000000000E+00  0.45593999997E+02  0.45594000000E+02  0.51100000000E-03 0.  1.
         11   -1    0    0    0    0 -0.00000000000E+00 -0.00000000000E+00 -0.45593999997E+02  0.45594000000E+02  0.51100000000E-03 0. -1.
    9900012    2    1    2    0    0  0.34625680089E+02 -0.12110373863E+02  0.17537568658E+02  0.50528865834E+02  0.30000018188E+02 0.  0.
         12    1    1    2    0    0 -0.34625680089E+02  0.12110373863E+02 -0.17537568658E+02  0.40659134166E+02  0.00000000000E+00 0. -1.
         11    1    3    3    0    0  0.25255543777E+01 -0.11267143474E+01  0.54403484194E+01  0.61028928650E+01  0.51100000000E-03 0. -1.
        -11    1    3    3    0    0  0.24596141984E+02  0.49899325663E+01  0.72934512684E+01  0.26135494240E+02  0.51100000000E-03 0.  1.
        -12    1    3    3    0    0  0.75039837268E+01 -0.15973592082E+02  0.48037689701E+01  0.18290478728E+02  0.00000000000E+00 0.  1.
</event>
<event>
 7    1  0.2500839E-011  0.5052890E+02  0.7816164E-02  0.1300439E+00
        -11   -1    0    0    0    0  0.00000000000E+00  0.00000000000E+00  0.45593999997E+02  0.45594000000E+02  0.51100000000E-03 0.  1.
         11   -1    0    0    0    0 -0.00000000000E+00 -0.00000000000E+00 -0.45593999997E+02  0.45594000000E+02  0.51100000000E-03 0. -1.
    9900012    2    1    2    0    0  0.17411797538E+02 -0.24552202003E+01  0.36660107564E+02  0.50528901556E+02  0.30000126769E+02 0.  0.
         12    1    1    2    0    0 -0.17411797538E+02  0.24552202003E+01 -0.36660107564E+02  0.40659098444E+02  0.00000000000E+00 0. -1.
         11    1    3    3    0    0 -0.15782332450E+01 -0.52631312156E+01 -0.24252142998E+01  0.60060831687E+01  0.51100000000E-03 0. -1.
        -11    1    3    3    0    0  0.18699782818E+01  0.37346122651E+01  0.76139152636E+01  0.86842301586E+01  0.51100000000E-03 0.  1.
        -12    1    3    3    0    0  0.17120052501E+02 -0.92670124994E+00  0.31471406600E+02  0.35838588228E+02  0.00000000000E+00 0.  1.
</event>
<event>
 7    1  0.2500839E-011  0.5052885E+02  0.7816164E-02  0.1300439E+00
        -11   -1    0    0    0    0  0.00000000000E+00  0.00000000000E+00  0.45593999997E+02  0.45594000000E+02  0.51100000000E-03 0.  1.
         11   -1    0    0    0    0 -0.00000000000E+00 -0.00000000000E+00 -0.45593999997E+02  0.45594000000E+02  0.51100000000E-03 0. -1.
    9900012    2    1    2    0    0 -0.24416738729E+02 -0.21859336714E+02  0.24065710426E+02  0.50528854042E+02  0.29999982345E+02 0.  0.
         12    1    1    2    0    0  0.24416738729E+02  0.21859336714E+02 -0.24065710426E+02  0.40659145958E+02  0.00000000000E+00 0. -1.
         11    1    3    3    0    0  0.18217745871E+01 -0.68457407265E-02 -0.22133985071E+01  0.28667128777E+01  0.51100000000E-03 0. -1.
        -11    1    3    3    0    0  0.74453868623E-01 -0.17250309658E+01  0.11079689810E+02  0.11213420609E+02  0.51100000000E-03 0.  1.
        -12    1    3    3    0    0 -0.26312967185E+02 -0.20127460007E+02  0.15199419124E+02  0.36448720555E+02  0.00000000000E+00 0.  1.
</event>
<event>
 7    1  0.2500839E-011  0.5052885E+02  0.7816164E-02  0.1300439E+00
        -11   -1    0    0    0    0  0.00000000000E+00  0.00000000000E+00  0.45593999997E+02  0.45594000000E+02  0.51100000000E-03 0.  1.
         11   -1    0    0    0    0 -0.00000000000E+00 -0.00000000000E+00 -0.45593999997E+02  0.45594000000E+02  0.51100000000E-03 0. -1.
    9900012    2    1    2    0    0  0.26373869447E+02  0.11047219765E+02  0.28905785855E+02  0.50528849615E+02  0.29999968890E+02 0.  0.
         12    1    1    2    0    0 -0.26373869447E+02 -0.11047219765E+02 -0.28905785855E+02  0.40659150385E+02  0.00000000000E+00 0. -1.
         11    1    3    3    0    0 -0.24364362789E+01  0.22764186503E+01  0.71687272769E+01  0.79062604716E+01  0.51100000000E-03 0. -1.
        -11    1    3    3    0    0  0.12780485372E+02  0.13917400528E+02  0.16230697018E+02  0.24909242657E+02  0.51100000000E-03 0.  1.
        -12    1    3    3    0    0  0.16029820354E+02 -0.51465994133E+01  0.55063615593E+01  0.17713346486E+02  0.00000000000E+00 0.  1.
</event>
<event>
 7    1  0.2500839E-011  0.5052885E+02  0.7816164E-02  0.1300439E+00
        -11   -1    0    0    0    0  0.00000000000E+00  0.00000000000E+00  0.45593999997E+02  0.45594000000E+02  0.51100000000E-03 0. -1.
         11   -1    0    0    0    0 -0.00000000000E+00 -0.00000000000E+00 -0.45593999997E+02  0.45594000000E+02  0.51100000000E-03 0.  1.
    9900012    2    1    2    0    0 -0.92036215190E+01  0.19078946877E+02 -0.34705234442E+02  0.50528853911E+02  0.29999981949E+02 0.  0.
         12    1    1    2    0    0  0.92036215190E+01 -0.19078946877E+02  0.34705234442E+02  0.40659146089E+02  0.00000000000E+00 0. -1.
         11    1    3    3    0    0 -0.54980997782E+01  0.76432291212E+01 -0.93002864468E+01  0.13234174732E+02  0.51100000000E-03 0. -1.
        -11    1    3    3    0    0 -0.75195302660E+01  0.15392589630E+00 -0.24180105837E+02  0.25322806858E+02  0.51100000000E-03 0.  1.
         12    1    3    3    0    0  0.38140085252E+01  0.11281791859E+02 -0.12248421577E+01  0.11971872322E+02  0.00000000000E+00 0. -1.
</event>
<event>
 7    1  0.2500839E-011  0.5052885E+02  0.7816164E-02  0.1300439E+00
        -11   -1    0    0    0    0  0.00000000000E+00  0.00000000000E+00  0.45593999997E+02  0.45594000000E+02  0.51100000000E-03 0.  1.
         11   -1    0    0    0    0 -0.00000000000E+00 -0.00000000000E+00 -0.45593999997E+02  0.45594000000E+02  0.51100000000E-03 0. -1.
    9900012    2    1    2    0    0  0.12354645801E+02  0.33586193245E+02  0.19300170873E+02  0.50528852871E+02  0.29999978787E+02 0.  0.
         12    1    1    2    0    0 -0.12354645801E+02 -0.33586193245E+02 -0.19300170873E+02  0.40659147129E+02  0.00000000000E+00 0. -1.
         11    1    3    3    0    0  0.67675577873E+00 -0.19938228282E+01  0.91849620736E+00  0.22971642079E+01  0.51100000000E-03 0. -1.
        -11    1    3    3    0    0 -0.17584460454E+01  0.28804849269E+02  0.15998099881E+02  0.32996222116E+02  0.51100000000E-03 0.  1.
         12    1    3    3    0    0  0.13436336067E+02  0.67751668041E+01  0.23835747850E+01  0.15235466547E+02  0.00000000000E+00 0. -1.
</event>
<event>
 7    1  0.2500839E-011  0.5052886E+02  0.7816164E-02  0.1300439E+00
        -11   -1    0    0    0    0  0.00000000000E+00  0.00000000000E+00  0.45593999997E+02  0.45594000000E+02  0.51100000000E-03 0.  1.
         11   -1    0    0    0    0 -0.00000000000E+00 -0.00000000000E+00 -0.45593999997E+02  0.45594000000E+02  0.51100000000E-03 0. -1.
    9900012    2    1    2    0    0 -0.53820717807E+01  0.11619460579E+01  0.40284596316E+02  0.50528861843E+02  0.30000006059E+02 0.  0.
         12    1    1    2    0    0  0.53820717807E+01 -0.11619460579E+01 -0.40284596316E+02  0.40659138157E+02  0.00000000000E+00 0. -1.
         11    1    3    3    0    0  0.60322788581E+01  0.75479003444E+01  0.10912598396E+02  0.14575458546E+02  0.51100000000E-03 0. -1.
        -11    1    3    3    0    0 -0.20960398464E+01 -0.22075443893E+01  0.24410730325E+02  0.24599804685E+02  0.51100000000E-03 0.  1.
         12    1    3    3    0    0 -0.93183107925E+01 -0.41784098972E+01  0.49612675956E+01  0.11353598612E+02  0.00000000000E+00 0. -1.
</event>
<event>
 7    1  0.2500839E-011  0.5052885E+02  0.7816164E-02  0.1300439E+00
        -11   -1    0    0    0    0  0.00000000000E+00  0.00000000000E+00  0.45593999997E+02  0.45594000000E+02  0.51100000000E-03 0.  1.
         11   -1    0    0    0    0 -0.00000000000E+00 -0.00000000000E+00 -0.45593999997E+02  0.45594000000E+02  0.51100000000E-03 0. -1.
    9900012    2    1    2    0    0 -0.11252844829E+02  0.11871335368E+02  0.37223795949E+02  0.50528854595E+02  0.29999984028E+02 0.  0.
         12    1    1    2    0    0  0.11252844829E+02 -0.11871335368E+02 -0.37223795949E+02  0.40659145405E+02  0.00000000000E+00 0. -1.
         11    1    3    3    0    0 -0.79618263912E+01 -0.50356976967E+01  0.94602752133E+01  0.13350870314E+02  0.51100000000E-03 0. -1.
        -11    1    3    3    0    0 -0.49826773680E+00  0.47106727679E+01 -0.18065399401E+01  0.50697431375E+01  0.51100000000E-03 0.  1.
        -12    1    3    3    0    0 -0.27927507013E+01  0.12196360297E+02  0.29570060676E+02  0.32108241144E+02  0.00000000000E+00 0.  1.
</event>
<event>
 7    1  0.2500839E-011  0.5052895E+02  0.7816164E-02  0.1300438E+00
        -11   -1    0    0    0    0  0.00000000000E+00  0.00000000000E+00  0.45593999997E+02  0.45594000000E+02  0.51100000000E-03 0.  1.
         11   -1    0    0    0    0 -0.00000000000E+00 -0.00000000000E+00 -0.45593999997E+02  0.45594000000E+02  0.51100000000E-03 0. -1.
    9900012    2    1    2    0    0 -0.19477487330E+02  0.35663425935E+02 -0.13805689196E+01  0.50528948946E+02  0.30000270814E+02 0.  0.
         12    1    1    2    0    0  0.19477487330E+02 -0.35663425935E+02  0.13805689196E+01  0.40659051054E+02  0.00000000000E+00 0. -1.
         11    1    3    3    0    0 -0.71856692830E+01  0.18441742972E+01  0.10235476338E+02  0.12641194485E+02  0.51100000000E-03 0.  1.
        -11    1    3    3    0    0 -0.46922286445E+01  0.16185331631E+02 -0.49941220075E+01  0.17576211894E+02  0.51100000000E-03 0. -1.
        -12    1    3    3    0    0 -0.75995894026E+01  0.17633920006E+02 -0.66219232505E+01  0.20311542566E+02  0.00000000000E+00 0.  1.
</event>
<event>
 7    1  0.2500839E-011  0.5052891E+02  0.7816164E-02  0.1300439E+00
        -11   -1    0    0    0    0  0.00000000000E+00  0.00000000000E+00  0.45593999997E+02  0.45594000000E+02  0.51100000000E-03 0.  1.
         11   -1    0    0    0    0 -0.00000000000E+00 -0.00000000000E+00 -0.45593999997E+02  0.45594000000E+02  0.51100000000E-03 0. -1.
    9900012    2    1    2    0    0 -0.24586318351E+02 -0.14147472568E+02  0.29129432421E+02  0.50528906758E+02  0.30000142580E+02 0.  0.
         12    1    1    2    0    0  0.24586318351E+02  0.14147472568E+02 -0.29129432421E+02  0.40659093242E+02  0.00000000000E+00 0. -1.
         11    1    3    3    0    0 -0.13968140031E+02 -0.39491525080E+01  0.29502511108E+02  0.32880129309E+02  0.51100000000E-03 0.  1.
        -11    1    3    3    0    0 -0.10912845813E+02 -0.45504619847E+01  0.87932349258E+00  0.11856226975E+02  0.51100000000E-03 0. -1.
        -12    1    3    3    0    0  0.29466749283E+00 -0.56478580753E+01 -0.12524021794E+01  0.57925504735E+01  0.00000000000E+00 0.  1.
</event>
<event>
 7    1  0.2500839E-011  0.5052886E+02  0.7816164E-02  0.1300439E+00
        -11   -1    0    0    0    0  0.00000000000E+00  0.00000000000E+00  0.45593999997E+02  0.45594000000E+02  0.51100000000E-03 0. -1.
         11   -1    0    0    0    0 -0.00000000000E+00 -0.00000000000E+00 -0.45593999997E+02  0.45594000000E+02  0.51100000000E-03 0.  1.
    9900012    2    1    2    0    0  0.34742199585E+02 -0.21107814479E+02  0.77819479130E+00  0.50528857716E+02  0.29999993515E+02 0.  0.
         12    1    1    2    0    0 -0.34742199585E+02  0.21107814479E+02 -0.77819479130E+00  0.40659142284E+02  0.00000000000E+00 0. -1.
         11    1    3    3    0    0  0.20298752543E+02 -0.34802517403E+01  0.85600552639E+01  0.22303050315E+02  0.51100000000E-03 0. -1.
        -11    1    3    3    0    0  0.15540789293E+02 -0.80695772784E+01 -0.50647704984E+01  0.18228716624E+02  0.51100000000E-03 0.  1.
         12    1    3    3    0    0 -0.10973422507E+01 -0.95579854605E+01 -0.27170899742E+01  0.99970907772E+01  0.00000000000E+00 0. -1.
</event>
<event>
 7    1  0.2500839E-011  0.5052885E+02  0.7816164E-02  0.1300439E+00
        -11   -1    0    0    0    0  0.00000000000E+00  0.00000000000E+00  0.45593999997E+02  0.45594000000E+02  0.51100000000E-03 0.  1.
         11   -1    0    0    0    0 -0.00000000000E+00 -0.00000000000E+00 -0.45593999997E+02  0.45594000000E+02  0.51100000000E-03 0. -1.
    9900012    2    1    2    0    0 -0.54588651594E+01  0.77733444137E+01  0.39534065426E+02  0.50528850706E+02  0.29999972206E+02 0.  0.
         12    1    1    2    0    0  0.54588651594E+01 -0.77733444137E+01 -0.39534065426E+02  0.40659149294E+02  0.00000000000E+00 0. -1.
         11    1    3    3    0    0  0.62985099460E+01  0.42918143686E+01  0.22652054725E+01  0.79512297293E+01  0.51100000000E-03 0.  1.
        -11    1    3    3    0    0 -0.42007066424E+01 -0.52388327878E+01  0.51910552389E+01  0.84875414596E+01  0.51100000000E-03 0. -1.
        -12    1    3    3    0    0 -0.75566684631E+01  0.87203628329E+01  0.32077804714E+02  0.34090079517E+02  0.00000000000E+00 0.  1.
</event>
<event>
 7    1  0.2500839E-011  0.5052884E+02  0.7816164E-02  0.1300439E+00
        -11   -1    0    0    0    0  0.00000000000E+00  0.00000000000E+00  0.45593999997E+02  0.45594000000E+02  0.51100000000E-03 0.  1.
         11   -1    0    0    0    0 -0.00000000000E+00 -0.00000000000E+00 -0.45593999997E+02  0.45594000000E+02  0.51100000000E-03 0. -1.
    9900012    2    1    2    0    0  0.14024203695E+02  0.68119543507E+01  0.37551117651E+02  0.50528838078E+02  0.29999933822E+02 0.  0.
         12    1    1    2    0    0 -0.14024203695E+02 -0.68119543507E+01 -0.37551117651E+02  0.40659161922E+02  0.00000000000E+00 0. -1.
         11    1    3    3    0    0  0.12339100565E+02  0.95404467882E+01  0.14086594094E+02  0.21016794739E+02  0.51100000000E-03 0. -1.
        -11    1    3    3    0    0 -0.46743626729E+01  0.56796674116E+01  0.94944480095E+01  0.12010530029E+02  0.51100000000E-03 0.  1.
         12    1    3    3    0    0  0.63594658023E+01 -0.84081598491E+01  0.13970075547E+02  0.17501513310E+02  0.00000000000E+00 0. -1.
</event>
<event>
 7    1  0.2500839E-011  0.5052884E+02  0.7816164E-02  0.1300439E+00
        -11   -1    0    0    0    0  0.00000000000E+00  0.00000000000E+00  0.45593999997E+02  0.45594000000E+02  0.51100000000E-03 0.  1.
         11   -1    0    0    0    0 -0.00000000000E+00 -0.00000000000E+00 -0.45593999997E+02  0.45594000000E+02  0.51100000000E-03 0. -1.
    9900012    2    1    2    0    0 -0.35963610503E+02  0.13131964896E+02  0.13687123912E+02  0.50528841826E+02  0.29999945214E+02 0.  0.
         12    1    1    2    0    0  0.35963610503E+02 -0.13131964896E+02 -0.13687123912E+02  0.40659158174E+02  0.00000000000E+00 0. -1.
         11    1    3    3    0    0 -0.14680196373E+02  0.83880144022E+01 -0.57606270952E+01  0.17862020489E+02  0.51100000000E-03 0. -1.
        -11    1    3    3    0    0 -0.16995003733E+02  0.24019837575E+01  0.57144696867E+01  0.18090186343E+02  0.51100000000E-03 0.  1.
        -12    1    3    3    0    0 -0.42884103972E+01  0.23419667362E+01  0.13733281321E+02  0.14576634994E+02  0.00000000000E+00 0.  1.
</event>
<event>
 7    1  0.2500839E-011  0.5052886E+02  0.7816164E-02  0.1300439E+00
        -11   -1    0    0    0    0  0.00000000000E+00  0.00000000000E+00  0.45593999997E+02  0.45594000000E+02  0.51100000000E-03 0.  1.
         11   -1    0    0    0    0 -0.00000000000E+00 -0.00000000000E+00 -0.45593999997E+02  0.45594000000E+02  0.51100000000E-03 0. -1.
    9900012    2    1    2    0    0 -0.68293572983E+01 -0.22918276131E+02  0.32882795089E+02  0.50528859394E+02  0.29999998615E+02 0.  0.
         12    1    1    2    0    0  0.68293572983E+01  0.22918276131E+02 -0.32882795089E+02  0.40659140606E+02  0.00000000000E+00 0. -1.
         11    1    3    3    0    0  0.74619468879E+01 -0.29433993299E+01  0.13584661493E+01  0.81357041191E+01  0.51100000000E-03 0.  1.
        -11    1    3    3    0    0 -0.50661782136E+01  0.10600528152E+01  0.39832593272E+01  0.65311736152E+01  0.51100000000E-03 0. -1.
        -12    1    3    3    0    0 -0.92251259726E+01 -0.21034929616E+02  0.27541069613E+02  0.35861981660E+02  0.00000000000E+00 0.  1.
</event>
<event>
 7    1  0.2500839E-011  0.5052886E+02  0.7816164E-02  0.1300439E+00
        -11   -1    0    0    0    0  0.00000000000E+00  0.00000000000E+00  0.45593999997E+02  0.45594000000E+02  0.51100000000E-03 0. -1.
         11   -1    0    0    0    0 -0.00000000000E+00 -0.00000000000E+00 -0.45593999997E+02  0.45594000000E+02  0.51100000000E-03 0.  1.
    9900012    2    1    2    0    0  0.90200910158E+01  0.35788417090E+02 -0.17058506670E+02  0.50528862164E+02  0.30000007035E+02 0.  0.
         12    1    1    2    0    0 -0.90200910158E+01 -0.35788417090E+02  0.17058506670E+02  0.40659137836E+02  0.00000000000E+00 0. -1.
         11    1    3    3    0    0 -0.95643086887E+00 -0.30122788963E+00  0.23087699854E+01  0.25171248191E+01  0.51100000000E-03 0. -1.
        -11    1    3    3    0    0  0.37760266105E+01  0.33012116068E+02 -0.71777095325E+01  0.33993789119E+02  0.51100000000E-03 0.  1.
         12    1    3    3    0    0  0.62004952741E+01  0.30775289117E+01 -0.12189567122E+02  0.14017948226E+02  0.00000000000E+00 0. -1.
</event>
<event>
 7    1  0.2500839E-011  0.5052886E+02  0.7816164E-02  0.1300439E+00
        -11   -1    0    0    0    0  0.00000000000E+00  0.00000000000E+00  0.45593999997E+02  0.45594000000E+02  0.51100000000E-03 0.  1.
         11   -1    0    0    0    0 -0.00000000000E+00 -0.00000000000E+00 -0.45593999997E+02  0.45594000000E+02  0.51100000000E-03 0. -1.
    9900012    2    1    2    0    0  0.35254765358E+02 -0.16770018072E+02  0.11359296732E+02  0.50528860698E+02  0.30000002577E+02 0.  0.
         12    1    1    2    0    0 -0.35254765358E+02  0.16770018072E+02 -0.11359296732E+02  0.40659139302E+02  0.00000000000E+00 0. -1.
         11    1    3    3    0    0  0.19651209110E+02 -0.15302111561E+02  0.12185702990E+02  0.27727531360E+02  0.51100000000E-03 0. -1.
        -11    1    3    3    0    0  0.16670385881E+02 -0.39978785854E+01  0.36712932813E+01  0.17531776670E+02  0.51100000000E-03 0.  1.
         12    1    3    3    0    0 -0.10668296328E+01  0.25299720751E+01 -0.44976995393E+01  0.52695526672E+01  0.00000000000E+00 0. -1.
</event>
<event>
 7    1  0.2500839E-011  0.5052883E+02  0.7816164E-02  0.1300439E+00
        -11   -1    0    0    0    0  0.00000000000E+00  0.00000000000E+00  0.45593999997E+02  0.45594000000E+02  0.51100000000E-03 0.  1.
         11   -1    0    0    0    0 -0.00000000000E+00 -0.00000000000E+00 -0.45593999997E+02  0.45594000000E+02  0.51100000000E-03 0. -1.
    9900012    2    1    2    0    0  0.30744199374E+02  0.26004733634E+02 -0.56316967919E+01  0.50528831596E+02  0.29999914120E+02 0.  0.
         12    1    1    2    0    0 -0.30744199374E+02 -0.26004733634E+02  0.56316967919E+01  0.40659168404E+02  0.00000000000E+00 0. -1.
         11    1    3    3    0    0  0.20258242178E+02  0.21272751325E+02 -0.25375583896E+01  0.29485005137E+02  0.51100000000E-03 0. -1.
        -11    1    3    3    0    0  0.52775779664E+00  0.46547730393E+01  0.59627139342E+01  0.75828357533E+01  0.51100000000E-03 0.  1.
        -12    1    3    3    0    0  0.99581993996E+01  0.77209269764E-01 -0.90568523365E+01  0.13460990706E+02  0.00000000000E+00 0.  1.
</event>
<event>
 7    1  0.2500839E-011  0.5052882E+02  0.7816164E-02  0.1300439E+00
        -11   -1    0    0    0    0  0.00000000000E+00  0.00000000000E+00  0.45593999997E+02  0.45594000000E+02  0.51100000000E-03 0.  1.
         11   -1    0    0    0    0 -0.00000000000E+00 -0.00000000000E+00 -0.45593999997E+02  0.45594000000E+02  0.51100000000E-03 0. -1.
    9900012    2    1    2    0    0  0.24185643196E+01 -0.96620164260E+01  0.39420360771E+02  0.50528820740E+02  0.29999881120E+02 0.  0.
         12    1    1    2    0    0 -0.24185643196E+01  0.96620164260E+01 -0.39420360771E+02  0.40659179260E+02  0.00000000000E+00 0. -1.
         11    1    3    3    0    0 -0.38820959726E+01 -0.25331556701E+01  0.80762333206E+01  0.93119864529E+01  0.51100000000E-03 0. -1.
        -11    1    3    3    0    0  0.51690992879E+01 -0.14968413410E+02  0.28853852871E+02  0.32913793662E+02  0.51100000000E-03 0.  1.
         12    1    3    3    0    0  0.11315610043E+01  0.78395526544E+01  0.24902745796E+01  0.83030406243E+01  0.00000000000E+00 0. -1.
</event>
<event>
 7    1  0.2500839E-011  0.5052886E+02  0.7816164E-02  0.1300439E+00
        -11   -1    0    0    0    0  0.00000000000E+00  0.00000000000E+00  0.45593999997E+02  0.45594000000E+02  0.51100000000E-03 0.  1.
         11   -1    0    0    0    0 -0.00000000000E+00 -0.00000000000E+00 -0.45593999997E+02  0.45594000000E+02  0.51100000000E-03 0. -1.
    9900012    2    1    2    0    0  0.14861540495E+02  0.24804430024E+02  0.28583919282E+02  0.50528861098E+02  0.30000003794E+02 0.  0.
         12    1    1    2    0    0 -0.14861540495E+02 -0.24804430024E+02 -0.28583919282E+02  0.40659138902E+02  0.00000000000E+00 0. -1.
         11    1    3    3    0    0  0.86289897674E+01  0.86912074622E+00  0.19778087989E+02  0.21596008891E+02  0.51100000000E-03 0.  1.
        -11    1    3    3    0    0  0.35955346720E+01  0.68014491531E+00 -0.60217849339E+00  0.37085153205E+01  0.51100000000E-03 0. -1.
         12    1    3    3    0    0  0.26370160559E+01  0.23255164363E+02  0.94080097869E+01  0.25224336887E+02  0.00000000000E+00 0. -1.
</event>
<event>
 7    1  0.2500839E-011  0.5052887E+02  0.7816164E-02  0.1300439E+00
        -11   -1    0    0    0    0  0.00000000000E+00  0.00000000000E+00  0.45593999997E+02  0.45594000000E+02  0.51100000000E-03 0.  1.
         11   -1    0    0    0    0 -0.00000000000E+00 -0.00000000000E+00 -0.45593999997E+02  0.45594000000E+02  0.51100000000E-03 0. -1.
    9900012    2    1    2    0    0 -0.25222064307E+02  0.21455569816E+02  0.23593876032E+02  0.50528868305E+02  0.30000025698E+02 0.  0.
         12    1    1    2    0    0  0.25222064307E+02 -0.21455569816E+02 -0.23593876032E+02  0.40659131695E+02  0.00000000000E+00 0. -1.
         11    1    3    3    0    0 -0.24513915017E+02  0.88553608384E+01  0.18701434153E+02  0.32079480742E+02  0.51100000000E-03 0.  1.
        -11    1    3    3    0    0 -0.48282664572E+00 -0.21281519838E+01  0.28329930443E+01  0.35760316395E+01  0.51100000000E-03 0. -1.
        -12    1    3    3    0    0 -0.22532264353E+00  0.14728360962E+02  0.20594488349E+01  0.14873355923E+02  0.00000000000E+00 0.  1.
</event>
<event>
 7    1  0.2500839E-011  0.5052886E+02  0.7816164E-02  0.1300439E+00
        -11   -1    0    0    0    0  0.00000000000E+00  0.00000000000E+00  0.45593999997E+02  0.45594000000E+02  0.51100000000E-03 0.  1.
         11   -1    0    0    0    0 -0.00000000000E+00 -0.00000000000E+00 -0.45593999997E+02  0.45594000000E+02  0.51100000000E-03 0. -1.
    9900012    2    1    2    0    0 -0.15232701938E+00  0.18973275812E+02  0.35960493944E+02  0.50528861750E+02  0.30000005775E+02 0.  0.
         12    1    1    2    0    0  0.15232701938E+00 -0.18973275812E+02 -0.35960493944E+02  0.40659138250E+02  0.00000000000E+00 0. -1.
         11    1    3    3    0    0 -0.48178327489E+01 -0.15760246634E+01 -0.10897499850E+01  0.51848742923E+01  0.51100000000E-03 0. -1.
        -11    1    3    3    0    0 -0.18685132445E+00  0.10966653420E+02  0.31288011174E+02  0.33154819320E+02  0.51100000000E-03 0.  1.
        -12    1    3    3    0    0  0.48523570540E+01  0.95826470551E+01  0.57622327552E+01  0.12189168138E+02  0.00000000000E+00 0.  1.
</event>
<event>
 7    1  0.2500839E-011  0.5052885E+02  0.7816164E-02  0.1300439E+00
        -11   -1    0    0    0    0  0.00000000000E+00  0.00000000000E+00  0.45593999997E+02  0.45594000000E+02  0.51100000000E-03 0.  1.
         11   -1    0    0    0    0 -0.00000000000E+00 -0.00000000000E+00 -0.45593999997E+02  0.45594000000E+02  0.51100000000E-03 0. -1.
    9900012    2    1    2    0    0 -0.25071458934E+02  0.29788402047E+02  0.11714942025E+02  0.50528845849E+02  0.29999957443E+02 0.  0.
         12    1    1    2    0    0  0.25071458934E+02 -0.29788402047E+02 -0.11714942025E+02  0.40659154151E+02  0.00000000000E+00 0. -1.
         11    1    3    3    0    0  0.53730081164E+00 -0.21177447781E+01 -0.31628832846E+01  0.38441339780E+01  0.51100000000E-03 0. -1.
        -11    1    3    3    0    0 -0.13280368282E+02  0.13948019869E+02 -0.16670309900E+01  0.19331177733E+02  0.51100000000E-03 0.  1.
         12    1    3    3    0    0 -0.12328391463E+02  0.17958126957E+02  0.16544856300E+02  0.27353534138E+02  0.00000000000E+00 0. -1.
</event>
<event>
 7    1  0.2500839E-011  0.5052886E+02  0.7816164E-02  0.1300439E+00
        -11   -1    0    0    0    0  0.00000000000E+00  0.00000000000E+00  0.45593999997E+02  0.45594000000E+02  0.51100000000E-03 0. -1.
         11   -1    0    0    0    0 -0.00000000000E+00 -0.00000000000E+00 -0.45593999997E+02  0.45594000000E+02  0.51100000000E-03 0.  1.
    9900012    2    1    2    0    0  0.32287684809E+02  0.17203664427E+02 -0.17739924936E+02  0.50528860846E+02  0.30000003026E+02 0.  0.
         12    1    1    2    0    0 -0.32287684809E+02 -0.17203664427E+02  0.17739924936E+02  0.40659139154E+02  0.00000000000E+00 0. -1.
         11    1    3    3    0    0 -0.40708623163E+01  0.25150265057E+01 -0.33980285123E-01  0.47852307409E+01  0.51100000000E-03 0. -1.
        -11    1    3    3    0    0  0.61480780294E+01 -0.21483273961E+01  0.72636007617E+00  0.65529972744E+01  0.51100000000E-03 0.  1.
        -12    1    3    3    0    0  0.30210469096E+02  0.16836965317E+02 -0.18432304727E+02  0.39190632830E+02  0.00000000000E+00 0.  1.
</event>
<event>
 7    1  0.2748663E-011  0.5052883E+02  0.7816164E-02  0.1300439E+00
        -11   -1    0    0    0    0  0.00000000000E+00  0.00000000000E+00  0.45593999997E+02  0.45594000000E+02  0.51100000000E-03 0. -1.
         11   -1    0    0    0    0 -0.00000000000E+00 -0.00000000000E+00 -0.45593999997E+02  0.45594000000E+02  0.51100000000E-03 0.  1.
    9900012    2    1    2    0    0 -0.73926195093E+00  0.11992831544E+02 -0.38843188858E+02  0.50528833293E+02  0.29999919278E+02 0.  0.
         12    1    1    2    0    0  0.73926195093E+00 -0.11992831544E+02  0.38843188858E+02  0.40659166707E+02  0.00000000000E+00 0. -1.
         11    1    3    3    0    0 -0.11560599747E+01  0.15121778046E+02 -0.73174481393E+01  0.16838933858E+02  0.51100000000E-03 0. -1.
        -11    1    3    3    0    0  0.46206458658E+01  0.18183795220E+01 -0.18224093343E+02  0.18888474018E+02  0.51100000000E-03 0.  1.
        -12    1    3    3    0    0 -0.42038478420E+01 -0.49473260245E+01 -0.13301647375E+02  0.14801425417E+02  0.00000000000E+00 0.  1.
</event>
<event>
 7    1  0.2500839E-011  0.5052886E+02  0.7816164E-02  0.1300439E+00
        -11   -1    0    0    0    0  0.00000000000E+00  0.00000000000E+00  0.45593999997E+02  0.45594000000E+02  0.51100000000E-03 0.  1.
         11   -1    0    0    0    0 -0.00000000000E+00 -0.00000000000E+00 -0.45593999997E+02  0.45594000000E+02  0.51100000000E-03 0. -1.
    9900012    2    1    2    0    0  0.29338754125E+02  0.12481474625E+02  0.25231248219E+02  0.50528860940E+02  0.30000003313E+02 0.  0.
         12    1    1    2    0    0 -0.29338754125E+02 -0.12481474625E+02 -0.25231248219E+02  0.40659139060E+02  0.00000000000E+00 0. -1.
         11    1    3    3    0    0  0.43732740816E+01 -0.71150661837E+01  0.30226910934E+01  0.88817990688E+01  0.51100000000E-03 0. -1.
        -11    1    3    3    0    0  0.13445636345E+02  0.40225434112E+01  0.16048936194E+02  0.21319811102E+02  0.51100000000E-03 0.  1.
         12    1    3    3    0    0  0.11519843699E+02  0.15573997398E+02  0.61596209309E+01  0.20327250769E+02  0.00000000000E+00 0. -1.
</event>
<event>
 7    1  0.2500839E-011  0.5052886E+02  0.7816164E-02  0.1300439E+00
        -11   -1    0    0    0    0  0.00000000000E+00  0.00000000000E+00  0.45593999997E+02  0.45594000000E+02  0.51100000000E-03 0.  1.
         11   -1    0    0    0    0 -0.00000000000E+00 -0.00000000000E+00 -0.45593999997E+02  0.45594000000E+02  0.51100000000E-03 0. -1.
    9900012    2    1    2    0    0 -0.13676957100E+02  0.36288380928E+02  0.12217209602E+02  0.50528856424E+02  0.29999989586E+02 0.  0.
         12    1    1    2    0    0  0.13676957100E+02 -0.36288380928E+02 -0.12217209602E+02  0.40659143576E+02  0.00000000000E+00 0. -1.
         11    1    3    3    0    0  0.13783166149E+01  0.11474158201E+01  0.48212075480E+01  0.51439636699E+01  0.51100000000E-03 0. -1.
        -11    1    3    3    0    0 -0.18189597561E+02  0.12936984528E+02  0.28172032138E+01  0.22498081303E+02  0.51100000000E-03 0.  1.
         12    1    3    3    0    0  0.31343238461E+01  0.22203980580E+02  0.45787988401E+01  0.22886811451E+02  0.00000000000E+00 0. -1.
</event>
<event>
 7    1  0.2500839E-011  0.5052886E+02  0.7816164E-02  0.1300439E+00
        -11   -1    0    0    0    0  0.00000000000E+00  0.00000000000E+00  0.45593999997E+02  0.45594000000E+02  0.51100000000E-03 0. -1.
         11   -1    0    0    0    0 -0.00000000000E+00 -0.00000000000E+00 -0.45593999997E+02  0.45594000000E+02  0.51100000000E-03 0.  1.
    9900012    2    1    2    0    0 -0.12204972537E+01 -0.29268505498E+01 -0.40535287423E+02  0.50528860877E+02  0.30000003123E+02 0.  0.
         12    1    1    2    0    0  0.12204972537E+01  0.29268505498E+01  0.40535287423E+02  0.40659139123E+02  0.00000000000E+00 0. -1.
         11    1    3    3    0    0  0.20051562034E+01  0.94103439980E+00 -0.89789221060E+00  0.23900643976E+01  0.51100000000E-03 0. -1.
        -11    1    3    3    0    0  0.64809197196E+00 -0.15161028493E+02 -0.25057917727E+02  0.29294641988E+02  0.51100000000E-03 0.  1.
        -12    1    3    3    0    0 -0.38737454291E+01  0.11293143543E+02 -0.14579477486E+02  0.18844154492E+02  0.00000000000E+00 0.  1.
</event>
<event>
 7    1  0.2500839E-011  0.5052886E+02  0.7816164E-02  0.1300439E+00
        -11   -1    0    0    0    0  0.00000000000E+00  0.00000000000E+00  0.45593999997E+02  0.45594000000E+02  0.51100000000E-03 0. -1.
         11   -1    0    0    0    0 -0.00000000000E+00 -0.00000000000E+00 -0.45593999997E+02  0.45594000000E+02  0.51100000000E-03 0.  1.
    9900012    2    1    2    0    0 -0.28131326114E+01 -0.31716967533E+02 -0.25284111302E+02  0.50528855531E+02  0.29999986873E+02 0.  0.
         12    1    1    2    0    0  0.28131326114E+01  0.31716967533E+02  0.25284111302E+02  0.40659144469E+02  0.00000000000E+00 0. -1.
         11    1    3    3    0    0 -0.74513190338E+01 -0.52008131285E+01 -0.15621705052E+01  0.92201404268E+01  0.51100000000E-03 0. -1.
        -11    1    3    3    0    0  0.62697843439E+00 -0.26276392499E+02 -0.11955768277E+02  0.28875288745E+02  0.51100000000E-03 0.  1.
        -12    1    3    3    0    0  0.40112079880E+01 -0.23976190580E+00 -0.11766172519E+02  0.12433426360E+02  0.00000000000E+00 0.  1.
</event>
<event>
 7    1  0.2500839E-011  0.5052887E+02  0.7816164E-02  0.1300439E+00
        -11   -1    0    0    0    0  0.00000000000E+00  0.00000000000E+00  0.45593999997E+02  0.45594000000E+02  0.51100000000E-03 0.  1.
         11   -1    0    0    0    0 -0.00000000000E+00 -0.00000000000E+00 -0.45593999997E+02  0.45594000000E+02  0.51100000000E-03 0. -1.
    9900012    2    1    2    0    0  0.14738152763E+02  0.22441918560E+02 -0.30533789298E+02  0.50528866409E+02  0.30000019936E+02 0.  0.
         12    1    1    2    0    0 -0.14738152763E+02 -0.22441918560E+02  0.30533789298E+02  0.40659133591E+02  0.00000000000E+00 0. -1.
         11    1    3    3    0    0  0.59716821323E+00 -0.28757336932E+01  0.15172174210E+01  0.33058135327E+01  0.51100000000E-03 0. -1.
        -11    1    3    3    0    0  0.14199339570E+02  0.15430037005E+02 -0.10368872568E+02  0.23392751116E+02  0.51100000000E-03 0.  1.
         12    1    3    3    0    0 -0.58355020684E-01  0.98876152477E+01 -0.21682134151E+02  0.23830301760E+02  0.00000000000E+00 0. -1.
</event>
<event>
 7    1  0.2500839E-011  0.5052886E+02  0.7816164E-02  0.1300439E+00
        -11   -1    0    0    0    0  0.00000000000E+00  0.00000000000E+00  0.45593999997E+02  0.45594000000E+02  0.51100000000E-03 0.  1.
         11   -1    0    0    0    0 -0.00000000000E+00 -0.00000000000E+00 -0.45593999997E+02  0.45594000000E+02  0.51100000000E-03 0. -1.
    9900012    2    1    2    0    0 -0.27356683345E+02  0.30017079742E+02 -0.19370403434E+01  0.50528864186E+02  0.30000013180E+02 0.  0.
         12    1    1    2    0    0  0.27356683345E+02 -0.30017079742E+02  0.19370403434E+01  0.40659135814E+02  0.00000000000E+00 0. -1.
         11    1    3    3    0    0 -0.73035429236E+01  0.26926016325E+01 -0.65717432266E+01  0.10187229853E+02  0.51100000000E-03 0. -1.
        -11    1    3    3    0    0 -0.15338044952E+02  0.37501102677E+01  0.40153113756E+01  0.16292380908E+02  0.51100000000E-03 0.  1.
        -12    1    3    3    0    0 -0.47150954696E+01  0.23574367842E+02  0.61939150757E+00  0.24049253424E+02  0.00000000000E+00 0.  1.
</event>
<event>
 7    1  0.2500839E-011  0.5052887E+02  0.7816164E-02  0.1300439E+00
        -11   -1    0    0    0    0  0.00000000000E+00  0.00000000000E+00  0.45593999997E+02  0.45594000000E+02  0.51100000000E-03 0.  1.
         11   -1    0    0    0    0 -0.00000000000E+00 -0.00000000000E+00 -0.45593999997E+02  0.45594000000E+02  0.51100000000E-03 0. -1.
    9900012    2    1    2    0    0 -0.12261639042E+02  0.19680300330E+01  0.38716200914E+02  0.50528866372E+02  0.30000019824E+02 0.  0.
         12    1    1    2    0    0  0.12261639042E+02 -0.19680300330E+01 -0.38716200914E+02  0.40659133628E+02  0.00000000000E+00 0. -1.
         11    1    3    3    0    0 -0.85685085433E+01 -0.50687495517E+01  0.78806540325E+01  0.12697096870E+02  0.51100000000E-03 0. -1.
        -11    1    3    3    0    0 -0.99283202929E+01  0.69511336227E+01  0.28842139862E+02  0.31285121616E+02  0.51100000000E-03 0.  1.
        -12    1    3    3    0    0  0.62351897939E+01  0.85645962044E-01  0.19934070194E+01  0.65466478859E+01  0.00000000000E+00 0.  1.
</event>
<event>
 7    1  0.2500839E-011  0.5052887E+02  0.7816164E-02  0.1300439E+00
        -11   -1    0    0    0    0  0.00000000000E+00  0.00000000000E+00  0.45593999997E+02  0.45594000000E+02  0.51100000000E-03 0. -1.
         11   -1    0    0    0    0 -0.00000000000E+00 -0.00000000000E+00 -0.45593999997E+02  0.45594000000E+02  0.51100000000E-03 0.  1.
    9900012    2    1    2    0    0 -0.16912335048E+02  0.25020799048E+02 -0.27223106334E+02  0.50528868427E+02  0.30000026070E+02 0.  0.
         12    1    1    2    0    0  0.16912335048E+02 -0.25020799048E+02  0.27223106334E+02  0.40659131573E+02  0.00000000000E+00 0. -1.
         11    1    3    3    0    0 -0.93950622140E+01 -0.35619670741E+01 -0.48255296666E+01  0.11146324070E+02  0.51100000000E-03 0. -1.
        -11    1    3    3    0    0 -0.50158117396E+01  0.16139771495E+01 -0.29450443874E+01  0.60362717261E+01  0.51100000000E-03 0.  1.
         12    1    3    3    0    0 -0.25014610947E+01  0.26968788973E+02 -0.19452532280E+02  0.33346272631E+02  0.00000000000E+00 0. -1.
</event>
<event>
 7    1  0.2500839E-011  0.5052887E+02  0.7816164E-02  0.1300439E+00
        -11   -1    0    0    0    0  0.00000000000E+00  0.00000000000E+00  0.45593999997E+02  0.45594000000E+02  0.51100000000E-03 0.  1.
         11   -1    0    0    0    0 -0.00000000000E+00 -0.00000000000E+00 -0.45593999997E+02  0.45594000000E+02  0.51100000000E-03 0. -1.
    9900012    2    1    2    0    0  0.45824304314E+01  0.28054275347E+02  0.29071018208E+02  0.50528866542E+02  0.30000020341E+02 0.  0.
         12    1    1    2    0    0 -0.45824304314E+01 -0.28054275347E+02 -0.29071018208E+02  0.40659133458E+02  0.00000000000E+00 0. -1.
         11    1    3    3    0    0 -0.20319356728E+01 -0.11106746179E+01 -0.24298110595E+01  0.33565373126E+01  0.51100000000E-03 0. -1.
        -11    1    3    3    0    0  0.54054118951E+00  0.22735298688E+02  0.11897197518E+02  0.25665722282E+02  0.51100000000E-03 0.  1.
         12    1    3    3    0    0  0.60738249147E+01  0.64296512775E+01  0.19603631749E+02  0.21506606947E+02  0.00000000000E+00 0. -1.
</event>
<event>
 7    1  0.2500839E-011  0.5052887E+02  0.7816164E-02  0.1300439E+00
        -11   -1    0    0    0    0  0.00000000000E+00  0.00000000000E+00  0.45593999997E+02  0.45594000000E+02  0.51100000000E-03 0.  1.
         11   -1    0    0    0    0 -0.00000000000E+00 -0.00000000000E+00 -0.45593999997E+02  0.45594000000E+02  0.51100000000E-03 0. -1.
    9900012    2    1    2    0    0 -0.15644515286E+02 -0.57703364496E+01  0.37082574888E+02  0.50528868165E+02  0.30000025273E+02 0.  0.
         12    1    1    2    0    0  0.15644515286E+02  0.57703364496E+01 -0.37082574888E+02  0.40659131835E+02  0.00000000000E+00 0. -1.
         11    1    3    3    0    0  0.63754781360E+01 -0.49822530361E+01  0.52032984657E+01  0.96199730749E+01  0.51100000000E-03 0. -1.
        -11    1    3    3    0    0 -0.11632838046E+02 -0.64813960408E+01  0.20750999587E+02  0.24656346034E+02  0.51100000000E-03 0.  1.
        -12    1    3    3    0    0 -0.10387155376E+02  0.56933126273E+01  0.11128276835E+02  0.16252549055E+02  0.00000000000E+00 0.  1.
</event>
<event>
 7    1  0.2500839E-011  0.5052886E+02  0.7816164E-02  0.1300439E+00
        -11   -1    0    0    0    0  0.00000000000E+00  0.00000000000E+00  0.45593999997E+02  0.45594000000E+02  0.51100000000E-03 0.  1.
         11   -1    0    0    0    0 -0.00000000000E+00 -0.00000000000E+00 -0.45593999997E+02  0.45594000000E+02  0.51100000000E-03 0. -1.
    9900012    2    1    2    0    0  0.28183303950E+02  0.17679849714E+02  0.23372845860E+02  0.50528860425E+02  0.30000001747E+02 0.  0.
         12    1    1    2    0    0 -0.28183303950E+02 -0.17679849714E+02 -0.23372845860E+02  0.40659139575E+02  0.00000000000E+00 0. -1.
         11    1    3    3    0    0  0.73977526192E+01 -0.26793535329E+01  0.12214661550E+02  0.14529405914E+02  0.51100000000E-03 0. -1.
        -11    1    3    3    0    0  0.15065326045E+02  0.10418982187E+02  0.15237996334E+02  0.23826786842E+02  0.51100000000E-03 0.  1.
         12    1    3    3    0    0  0.57202252850E+01  0.99402210594E+01 -0.40798120242E+01  0.12172667669E+02  0.00000000000E+00 0. -1.
</event>
<event>
 7    1  0.2500839E-011  0.5052886E+02  0.7816164E-02  0.1300439E+00
        -11   -1    0    0    0    0  0.00000000000E+00  0.00000000000E+00  0.45593999997E+02  0.45594000000E+02  0.51100000000E-03 0. -1.
         11   -1    0    0    0    0 -0.00000000000E+00 -0.00000000000E+00 -0.45593999997E+02  0.45594000000E+02  0.51100000000E-03 0.  1.
    9900012    2    1    2    0    0 -0.12529842615E+02 -0.38439275896E+02 -0.43116833056E+01  0.50528862032E+02  0.30000006632E+02 0.  0.
         12    1    1    2    0    0  0.12529842615E+02  0.38439275896E+02  0.43116833056E+01  0.40659137968E+02  0.00000000000E+00 0. -1.
         11    1    3    3    0    0 -0.73550369479E+01 -0.25204438715E+02 -0.33326097112E+01  0.26466329310E+02  0.51100000000E-03 0.  1.
        -11    1    3    3    0    0  0.69287597976E+01 -0.17742209651E+01 -0.17945357445E+01  0.73740037405E+01  0.51100000000E-03 0. -1.
         12    1    3    3    0    0 -0.12103565465E+02 -0.11460616217E+02  0.81546215015E+00  0.16688528981E+02  0.00000000000E+00 0. -1.
</event>
<event>
 7    1  0.2500839E-011  0.5052886E+02  0.7816164E-02  0.1300439E+00
        -11   -1    0    0    0    0  0.00000000000E+00  0.00000000000E+00  0.45593999997E+02  0.45594000000E+02  0.51100000000E-03 0. -1.
         11   -1    0    0    0    0 -0.00000000000E+00 -0.00000000000E+00 -0.45593999997E+02  0.45594000000E+02  0.51100000000E-03 0.  1.
    9900012    2    1    2    0    0 -0.53381150549E-02 -0.16563827994E+02 -0.37132272154E+02  0.50528855129E+02  0.29999985650E+02 0.  0.
         12    1    1    2    0    0  0.53381150549E-02  0.16563827994E+02  0.37132272154E+02  0.40659144871E+02  0.00000000000E+00 0. -1.
         11    1    3    3    0    0  0.24315931749E+01  0.11385361722E+01 -0.11482740041E+02  0.11792464929E+02  0.51100000000E-03 0. -1.
        -11    1    3    3    0    0  0.76901549952E+01 -0.12931656257E+02 -0.22571593878E+02  0.27126427480E+02  0.51100000000E-03 0.  1.
        -12    1    3    3    0    0 -0.10127086285E+02 -0.47707079091E+01 -0.30779382351E+01  0.11609962720E+02  0.00000000000E+00 0.  1.
</event>
<event>
 7    1  0.2500839E-011  0.5052887E+02  0.7816164E-02  0.1300439E+00
        -11   -1    0    0    0    0  0.00000000000E+00  0.00000000000E+00  0.45593999997E+02  0.45594000000E+02  0.51100000000E-03 0.  1.
         11   -1    0    0    0    0 -0.00000000000E+00 -0.00000000000E+00 -0.45593999997E+02  0.45594000000E+02  0.51100000000E-03 0. -1.
    9900012    2    1    2    0    0 -0.39866830508E+02 -0.69043115747E+01  0.40163891804E+01  0.50528867261E+02  0.30000022525E+02 0.  0.
         12    1    1    2    0    0  0.39866830508E+02  0.69043115747E+01 -0.40163891804E+01  0.40659132739E+02  0.00000000000E+00 0. -1.
         11    1    3    3    0    0 -0.98106851222E+01 -0.30590593482E+01  0.87541975574E+01  0.13499754138E+02  0.51100000000E-03 0. -1.
        -11    1    3    3    0    0 -0.13562863132E+02 -0.11411482606E+02 -0.63113267987E+01  0.18815048175E+02  0.51100000000E-03 0.  1.
         12    1    3    3    0    0 -0.16493282254E+02  0.75662303800E+01  0.15735184217E+01  0.18214064947E+02  0.00000000000E+00 0. -1.
</event>
<event>
 7    1  0.2500839E-011  0.5052887E+02  0.7816164E-02  0.1300439E+00
        -11   -1    0    0    0    0  0.00000000000E+00  0.00000000000E+00  0.45593999997E+02  0.45594000000E+02  0.51100000000E-03 0.  1.
         11   -1    0    0    0    0 -0.00000000000E+00 -0.00000000000E+00 -0.45593999997E+02  0.45594000000E+02  0.51100000000E-03 0. -1.
    9900012    2    1    2    0    0  0.49912236619E+01 -0.18659019212E+02  0.35778389293E+02  0.50528874924E+02  0.30000045818E+02 0.  0.
         12    1    1    2    0    0 -0.49912236619E+01  0.18659019212E+02 -0.35778389293E+02  0.40659125076E+02  0.00000000000E+00 0. -1.
         11    1    3    3    0    0  0.11585958060E+02 -0.94448882439E+01  0.11637293656E+02  0.18943783730E+02  0.51100000000E-03 0. -1.
        -11    1    3    3    0    0 -0.88900455448E+00 -0.12373080394E+02  0.97256889734E+01  0.15763009668E+02  0.51100000000E-03 0.  1.
         12    1    3    3    0    0 -0.57057298433E+01  0.31589494265E+01  0.14415406664E+02  0.15822081526E+02  0.00000000000E+00 0. -1.
</event>
<event>
 7    1  0.2500839E-011  0.5052885E+02  0.7816164E-02  0.1300439E+00
        -11   -1    0    0    0    0  0.00000000000E+00  0.00000000000E+00  0.45593999997E+02  0.45594000000E+02  0.51100000000E-03 0.  1.
         11   -1    0    0    0    0 -0.00000000000E+00 -0.00000000000E+00 -0.45593999997E+02  0.45594000000E+02  0.51100000000E-03 0. -1.
    9900012    2    1    2    0    0  0.23092274560E+02  0.17690389509E+02  0.28407101719E+02  0.50528850311E+02  0.29999971005E+02 0.  0.
         12    1    1    2    0    0 -0.23092274560E+02 -0.17690389509E+02 -0.28407101719E+02  0.40659149689E+02  0.00000000000E+00 0. -1.
         11    1    3    3    0    0  0.17712198389E+02  0.11138174654E+02  0.16594137672E+02  0.26704799414E+02  0.51100000000E-03 0. -1.
        -11    1    3    3    0    0  0.49367141272E+01  0.37453547031E+01  0.16898282467E+02  0.17998632693E+02  0.51100000000E-03 0.  1.
         12    1    3    3    0    0  0.44336204373E+00  0.28068601524E+01 -0.50853184201E+01  0.58254182039E+01  0.00000000000E+00 0. -1.
</event>
<event>
 7    1  0.2500839E-011  0.5052885E+02  0.7816164E-02  0.1300439E+00
        -11   -1    0    0    0    0  0.00000000000E+00  0.00000000000E+00  0.45593999997E+02  0.45594000000E+02  0.51100000000E-03 0.  1.
         11   -1    0    0    0    0 -0.00000000000E+00 -0.00000000000E+00 -0.45593999997E+02  0.45594000000E+02  0.51100000000E-03 0. -1.
    9900012    2    1    2    0    0  0.14577115896E+02  0.37847157808E+02 -0.28751968031E+01  0.50528850738E+02  0.29999972305E+02 0.  0.
         12    1    1    2    0    0 -0.14577115896E+02 -0.37847157808E+02  0.28751968031E+01  0.40659149262E+02  0.00000000000E+00 0. -1.
         11    1    3    3    0    0  0.56761615266E+01  0.10761246509E+02 -0.49562396756E+01  0.13137258013E+02  0.51100000000E-03 0. -1.
        -11    1    3    3    0    0 -0.50326942730E+01  0.16522342012E+02 -0.57898686291E+01  0.18216431489E+02  0.51100000000E-03 0.  1.
        -12    1    3    3    0    0  0.13933648643E+02  0.10563569288E+02  0.78709115016E+01  0.19175161237E+02  0.00000000000E+00 0.  1.
</event>
<event>
 7    1  0.2500839E-011  0.5052886E+02  0.7816164E-02  0.1300439E+00
        -11   -1    0    0    0    0  0.00000000000E+00  0.00000000000E+00  0.45593999997E+02  0.45594000000E+02  0.51100000000E-03 0. -1.
         11   -1    0    0    0    0 -0.00000000000E+00 -0.00000000000E+00 -0.45593999997E+02  0.45594000000E+02  0.51100000000E-03 0.  1.
    9900012    2    1    2    0    0 -0.30025396497E+02 -0.49046145951E+01 -0.26973795863E+02  0.50528863974E+02  0.30000012535E+02 0.  0.
         12    1    1    2    0    0  0.30025396497E+02  0.49046145951E+01  0.26973795863E+02  0.40659136026E+02  0.00000000000E+00 0. -1.
         11    1    3    3    0    0 -0.17399243650E+02 -0.29338130216E+01 -0.22101882453E+02  0.28281339195E+02  0.51100000000E-03 0. -1.
        -11    1    3    3    0    0 -0.10654364056E+01  0.51142133424E+01 -0.67754393676E+01  0.85555193724E+01  0.51100000000E-03 0.  1.
         12    1    3    3    0    0 -0.11560716441E+02 -0.70850149159E+01  0.19035259570E+01  0.13692005407E+02  0.00000000000E+00 0. -1.
</event>
<event>
 7    1  0.2500839E-011  0.5052886E+02  0.7816164E-02  0.1300439E+00
        -11   -1    0    0    0    0  0.00000000000E+00  0.00000000000E+00  0.45593999997E+02  0.45594000000E+02  0.51100000000E-03 0. -1.
         11   -1    0    0    0    0 -0.00000000000E+00 -0.00000000000E+00 -0.45593999997E+02  0.45594000000E+02  0.51100000000E-03 0.  1.
    9900012    2    1    2    0    0 -0.62738250002E+01  0.95850984885E+01 -0.39011930721E+02  0.50528859186E+02  0.29999997982E+02 0.  0.
         12    1    1    2    0    0  0.62738250002E+01 -0.95850984885E+01  0.39011930721E+02  0.40659140814E+02  0.00000000000E+00 0. -1.
         11    1    3    3    0    0 -0.10499203695E+02 -0.27441398075E+01 -0.68155709149E+01  0.12814663033E+02  0.51100000000E-03 0. -1.
        -11    1    3    3    0    0 -0.32653012065E+01  0.64461185938E+01 -0.24269557309E+02  0.25322441611E+02  0.51100000000E-03 0.  1.
         12    1    3    3    0    0  0.74906799009E+01  0.58831197022E+01 -0.79268024966E+01  0.12391754542E+02  0.00000000000E+00 0. -1.
</event>
<event>
 7    1  0.2500839E-011  0.5052887E+02  0.7816164E-02  0.1300439E+00
        -11   -1    0    0    0    0  0.00000000000E+00  0.00000000000E+00  0.45593999997E+02  0.45594000000E+02  0.51100000000E-03 0.  1.
         11   -1    0    0    0    0 -0.00000000000E+00 -0.00000000000E+00 -0.45593999997E+02  0.45594000000E+02  0.51100000000E-03 0. -1.
    9900012    2    1    2    0    0 -0.30354897460E+02  0.26194596145E+02  0.67519269937E+01  0.50528865908E+02  0.30000018414E+02 0.  0.
         12    1    1    2    0    0  0.30354897460E+02 -0.26194596145E+02 -0.67519269937E+01  0.40659134092E+02  0.00000000000E+00 0. -1.
         11    1    3    3    0    0 -0.65064365489E+00 -0.10761405607E+00 -0.26230945744E+01  0.27047261152E+01  0.51100000000E-03 0. -1.
        -11    1    3    3    0    0 -0.26849619596E+02  0.29258383192E+02  0.24685813165E+01  0.39787547718E+02  0.51100000000E-03 0.  1.
         12    1    3    3    0    0 -0.28546342086E+01 -0.29561729909E+01  0.69064402517E+01  0.80365920742E+01  0.00000000000E+00 0. -1.
</event>
<event>
 7    1  0.2500839E-011  0.5052882E+02  0.7816164E-02  0.1300439E+00
        -11   -1    0    0    0    0  0.00000000000E+00  0.00000000000E+00  0.45593999997E+02  0.45594000000E+02  0.51100000000E-03 0.  1.
         11   -1    0    0    0    0 -0.00000000000E+00 -0.00000000000E+00 -0.45593999997E+02  0.45594000000E+02  0.51100000000E-03 0. -1.
    9900012    2    1    2    0    0 -0.32453973314E+02 -0.20493061404E+02  0.13414279443E+02  0.50528820931E+02  0.29999881701E+02 0.  0.
         12    1    1    2    0    0  0.32453973314E+02  0.20493061404E+02 -0.13414279443E+02  0.40659179069E+02  0.00000000000E+00 0. -1.
         11    1    3    3    0    0 -0.60325489867E+01 -0.19093342597E+02  0.75259273393E+01  0.21391282369E+02  0.51100000000E-03 0. -1.
        -11    1    3    3    0    0 -0.98442334373E+01  0.58939606450E+00 -0.28870118662E+01  0.10275755810E+02  0.51100000000E-03 0.  1.
        -12    1    3    3    0    0 -0.16577190890E+02 -0.19891148717E+01  0.87753639700E+01  0.18861782752E+02  0.00000000000E+00 0.  1.
</event>
<event>
 7    1  0.2500839E-011  0.5052886E+02  0.7816164E-02  0.1300439E+00
        -11   -1    0    0    0    0  0.00000000000E+00  0.00000000000E+00  0.45593999997E+02  0.45594000000E+02  0.51100000000E-03 0.  1.
         11   -1    0    0    0    0 -0.00000000000E+00 -0.00000000000E+00 -0.45593999997E+02  0.45594000000E+02  0.51100000000E-03 0. -1.
    9900012    2    1    2    0    0  0.57919025061E+01  0.43640938827E+01  0.40007176449E+02  0.50528860591E+02  0.30000002252E+02 0.  0.
         12    1    1    2    0    0 -0.57919025061E+01 -0.43640938827E+01 -0.40007176449E+02  0.40659139409E+02  0.00000000000E+00 0. -1.
         11    1    3    3    0    0 -0.49398589625E+00  0.36109042652E+01  0.14904782309E+02  0.15343897406E+02  0.51100000000E-03 0. -1.
        -11    1    3    3    0    0  0.12405087069E+02  0.11151851282E+01  0.26151417403E+02  0.28965953385E+02  0.51100000000E-03 0.  1.
         12    1    3    3    0    0 -0.61191986672E+01 -0.36199551072E+00 -0.10490232628E+01  0.62190097993E+01  0.00000000000E+00 0. -1.
</event>
<event>
 7    1  0.2500839E-011  0.5052887E+02  0.7816164E-02  0.1300439E+00
        -11   -1    0    0    0    0  0.00000000000E+00  0.00000000000E+00  0.45593999997E+02  0.45594000000E+02  0.51100000000E-03 0. -1.
         11   -1    0    0    0    0 -0.00000000000E+00 -0.00000000000E+00 -0.45593999997E+02  0.45594000000E+02  0.51100000000E-03 0.  1.
    9900012    2    1    2    0    0  0.19826392897E+02  0.28541406717E+02 -0.21106087745E+02  0.50528871965E+02  0.30000036825E+02 0.  0.
         12    1    1    2    0    0 -0.19826392897E+02 -0.28541406717E+02  0.21106087745E+02  0.40659128035E+02  0.00000000000E+00 0. -1.
         11    1    3    3    0    0  0.70081252280E+01  0.27143040964E+02 -0.23204761655E+02  0.36391200251E+02  0.51100000000E-03 0. -1.
        -11    1    3    3    0    0  0.47956387633E+01  0.31897340060E+01  0.77053292445E+00  0.58108756161E+01  0.51100000000E-03 0.  1.
         12    1    3    3    0    0  0.80226289055E+01 -0.17913682535E+01  0.13281409859E+01  0.83267960977E+01  0.00000000000E+00 0. -1.
</event>
<event>
 7    1  0.2500839E-011  0.5052886E+02  0.7816164E-02  0.1300439E+00
        -11   -1    0    0    0    0  0.00000000000E+00  0.00000000000E+00  0.45593999997E+02  0.45594000000E+02  0.51100000000E-03 0.  1.
         11   -1    0    0    0    0 -0.00000000000E+00 -0.00000000000E+00 -0.45593999997E+02  0.45594000000E+02  0.51100000000E-03 0. -1.
    9900012    2    1    2    0    0  0.30501909315E+02 -0.11845786636E+02  0.24134553375E+02  0.50528858353E+02  0.29999995449E+02 0.  0.
         12    1    1    2    0    0 -0.30501909315E+02  0.11845786636E+02 -0.24134553375E+02  0.40659141647E+02  0.00000000000E+00 0. -1.
         11    1    3    3    0    0  0.27724694890E+02 -0.91191323651E+01  0.17732212936E+02  0.34150382981E+02  0.51100000000E-03 0.  1.
        -11    1    3    3    0    0  0.40391729350E+01  0.50972100458E+01  0.52746221054E+01  0.83736555258E+01  0.51100000000E-03 0. -1.
         12    1    3    3    0    0 -0.12619585107E+01 -0.78238643168E+01  0.11277183335E+01  0.80048198462E+01  0.00000000000E+00 0. -1.
</event>
<event>
 7    1  0.2500839E-011  0.5052886E+02  0.7816164E-02  0.1300439E+00
        -11   -1    0    0    0    0  0.00000000000E+00  0.00000000000E+00  0.45593999997E+02  0.45594000000E+02  0.51100000000E-03 0. -1.
         11   -1    0    0    0    0 -0.00000000000E+00 -0.00000000000E+00 -0.45593999997E+02  0.45594000000E+02  0.51100000000E-03 0.  1.
    9900012    2    1    2    0    0 -0.15233594059E+02 -0.31560299014E+02 -0.20616764618E+02  0.50528857791E+02  0.29999993743E+02 0.  0.
         12    1    1    2    0    0  0.15233594059E+02  0.31560299014E+02  0.20616764618E+02  0.40659142209E+02  0.00000000000E+00 0. -1.
         11    1    3    3    0    0 -0.65957594883E+01 -0.25769307732E+01 -0.11778397448E+02  0.13743189664E+02  0.51100000000E-03 0. -1.
        -11    1    3    3    0    0 -0.12890979905E+02 -0.10375388036E+02 -0.52744291485E+01  0.17367948725E+02  0.51100000000E-03 0.  1.
         12    1    3    3    0    0  0.42531453349E+01 -0.18607980206E+02 -0.35639380215E+01  0.19417719402E+02  0.00000000000E+00 0. -1.
</event>
<event>
 7    1  0.2500839E-011  0.5052885E+02  0.7816164E-02  0.1300439E+00
        -11   -1    0    0    0    0  0.00000000000E+00  0.00000000000E+00  0.45593999997E+02  0.45594000000E+02  0.51100000000E-03 0.  1.
         11   -1    0    0    0    0 -0.00000000000E+00 -0.00000000000E+00 -0.45593999997E+02  0.45594000000E+02  0.51100000000E-03 0. -1.
    9900012    2    1    2    0    0  0.40609798725E+02  0.17430708716E+01 -0.98598958751E+00  0.50528853132E+02  0.29999979581E+02 0.  0.
         12    1    1    2    0    0 -0.40609798725E+02 -0.17430708716E+01  0.98598958751E+00  0.40659146868E+02  0.00000000000E+00 0. -1.
         11    1    3    3    0    0  0.48490039461E+01 -0.44409847200E+01 -0.73809732353E+01  0.98850367078E+01  0.51100000000E-03 0. -1.
        -11    1    3    3    0    0  0.76553115498E+01  0.90399513162E+01  0.10489322370E+01  0.11892214841E+02  0.51100000000E-03 0.  1.
        -12    1    3    3    0    0  0.28105483229E+02 -0.28558957246E+01  0.53460514108E+01  0.28751601584E+02  0.00000000000E+00 0.  1.
</event>
<event>
 7    1  0.2500839E-011  0.5052886E+02  0.7816164E-02  0.1300439E+00
        -11   -1    0    0    0    0  0.00000000000E+00  0.00000000000E+00  0.45593999997E+02  0.45594000000E+02  0.51100000000E-03 0.  1.
         11   -1    0    0    0    0 -0.00000000000E+00 -0.00000000000E+00 -0.45593999997E+02  0.45594000000E+02  0.51100000000E-03 0. -1.
    9900012    2    1    2    0    0  0.24247073379E+02  0.11895685213E+02  0.30393054518E+02  0.50528860104E+02  0.30000000772E+02 0.  0.
         12    1    1    2    0    0 -0.24247073379E+02 -0.11895685213E+02 -0.30393054518E+02  0.40659139896E+02  0.00000000000E+00 0. -1.
         11    1    3    3    0    0  0.19095883930E+02  0.69221541967E+01  0.50833861879E+01  0.20938238159E+02  0.51100000000E-03 0.  1.
        -11    1    3    3    0    0 -0.94482476636E-01  0.58330634959E+01  0.28169590655E+01  0.64783343016E+01  0.51100000000E-03 0. -1.
        -12    1    3    3    0    0  0.52456719255E+01 -0.85953247983E+00  0.22492709265E+02  0.23112287643E+02  0.00000000000E+00 0.  1.
</event>
<event>
 7    1  0.2500839E-011  0.5052884E+02  0.7816164E-02  0.1300439E+00
        -11   -1    0    0    0    0  0.00000000000E+00  0.00000000000E+00  0.45593999997E+02  0.45594000000E+02  0.51100000000E-03 0. -1.
         11   -1    0    0    0    0 -0.00000000000E+00 -0.00000000000E+00 -0.45593999997E+02  0.45594000000E+02  0.51100000000E-03 0.  1.
    9900012    2    1    2    0    0  0.26441552833E+02 -0.22022529156E+02 -0.21656860583E+02  0.50528842152E+02  0.29999946205E+02 0.  0.
         12    1    1    2    0    0 -0.26441552833E+02  0.22022529156E+02  0.21656860583E+02  0.40659157848E+02  0.00000000000E+00 0. -1.
         11    1    3    3    0    0  0.12069795301E+02 -0.56811525198E+01 -0.22738098807E+02  0.26362408657E+02  0.51100000000E-03 0. -1.
        -11    1    3    3    0    0  0.18406423499E+01  0.13600074076E+01  0.95040158900E+00  0.24780734151E+01  0.51100000000E-03 0.  1.
        -12    1    3    3    0    0  0.12531115181E+02 -0.17701384043E+02  0.13083663487E+00  0.21688360080E+02  0.00000000000E+00 0.  1.
</event>
<event>
 7    1  0.2500839E-011  0.5052886E+02  0.7816164E-02  0.1300439E+00
        -11   -1    0    0    0    0  0.00000000000E+00  0.00000000000E+00  0.45593999997E+02  0.45594000000E+02  0.51100000000E-03 0.  1.
         11   -1    0    0    0    0 -0.00000000000E+00 -0.00000000000E+00 -0.45593999997E+02  0.45594000000E+02  0.51100000000E-03 0. -1.
    9900012    2    1    2    0    0  0.34857294210E+02 -0.13526946364E+02  0.15973606647E+02  0.50528863918E+02  0.30000012366E+02 0.  0.
         12    1    1    2    0    0 -0.34857294210E+02  0.13526946364E+02 -0.15973606647E+02  0.40659136082E+02  0.00000000000E+00 0. -1.
         11    1    3    3    0    0  0.37544098056E+01  0.24076373819E+01 -0.44831315614E+01  0.63238263423E+01  0.51100000000E-03 0. -1.
        -11    1    3    3    0    0  0.89540600329E+01  0.89651017668E+00  0.12252728879E+02  0.15202246111E+02  0.51100000000E-03 0.  1.
         12    1    3    3    0    0  0.22148824372E+02 -0.16831093923E+02  0.82040093285E+01  0.29002791465E+02  0.00000000000E+00 0. -1.
</event>
<event>
 7    1  0.2500839E-011  0.5052883E+02  0.7816164E-02  0.1300439E+00
        -11   -1    0    0    0    0  0.00000000000E+00  0.00000000000E+00  0.45593999997E+02  0.45594000000E+02  0.51100000000E-03 0.  1.
         11   -1    0    0    0    0 -0.00000000000E+00 -0.00000000000E+00 -0.45593999997E+02  0.45594000000E+02  0.51100000000E-03 0. -1.
    9900012    2    1    2    0    0  0.20058015353E+02  0.87782475155E+01  0.34260571160E+02  0.50528827043E+02  0.29999900279E+02 0.  0.
         12    1    1    2    0    0 -0.20058015353E+02 -0.87782475155E+01 -0.34260571160E+02  0.40659172957E+02  0.00000000000E+00 0. -1.
         11    1    3    3    0    0  0.83835580200E+01  0.19524216123E+01 -0.94670327826E+00  0.86598061517E+01  0.51100000000E-03 0. -1.
        -11    1    3    3    0    0  0.49712463424E+01 -0.61008640637E+01  0.96239048061E+01  0.12431949827E+02  0.51100000000E-03 0.  1.
        -12    1    3    3    0    0  0.67032109909E+01  0.12926689967E+02  0.25583369632E+02  0.29437071064E+02  0.00000000000E+00 0.  1.
</event>
<event>
 7    1  0.2500839E-011  0.5052886E+02  0.7816164E-02  0.1300439E+00
        -11   -1    0    0    0    0  0.00000000000E+00  0.00000000000E+00  0.45593999997E+02  0.45594000000E+02  0.51100000000E-03 0.  1.
         11   -1    0    0    0    0 -0.00000000000E+00 -0.00000000000E+00 -0.45593999997E+02  0.45594000000E+02  0.51100000000E-03 0. -1.
    9900012    2    1    2    0    0 -0.51988030501E+01 -0.37914338373E+02  0.13734654793E+02  0.50528863884E+02  0.30000012262E+02 0.  0.
         12    1    1    2    0    0  0.51988030501E+01  0.37914338373E+02 -0.13734654793E+02  0.40659136116E+02  0.00000000000E+00 0. -1.
         11    1    3    3    0    0  0.59276101219E+00 -0.59877423844E+01  0.77217668827E+01  0.97892853943E+01  0.51100000000E-03 0. -1.
        -11    1    3    3    0    0 -0.13336916487E+02 -0.19410272999E+02  0.10007560292E+02  0.25588733898E+02  0.51100000000E-03 0.  1.
         12    1    3    3    0    0  0.75453524246E+01 -0.12516322990E+02 -0.39946723817E+01  0.15150844591E+02  0.00000000000E+00 0. -1.
</event>
<event>
 7    1  0.4351336E-011  0.5052886E+02  0.7816164E-02  0.1300439E+00
        -11   -1    0    0    0    0  0.00000000000E+00  0.00000000000E+00  0.45593999997E+02  0.45594000000E+02  0.51100000000E-03 0.  1.
         11   -1    0    0    0    0 -0.00000000000E+00 -0.00000000000E+00 -0.45593999997E+02  0.45594000000E+02  0.51100000000E-03 0. -1.
    9900012    2    1    2    0    0  0.37530600305E+02 -0.31835359608E+01  0.15312902493E+02  0.50528857815E+02  0.29999993813E+02 0.  0.
         12    1    1    2    0    0 -0.37530600305E+02  0.31835359608E+01 -0.15312902493E+02  0.40659142185E+02  0.00000000000E+00 0. -1.
         11    1    3    3    0    0  0.62908316901E+00 -0.34300462699E+01  0.10005606925E+02  0.10595901720E+02  0.51100000000E-03 0. -1.
        -11    1    3    3    0    0  0.88459601914E+01  0.15897954922E+01 -0.46665840059E+01  0.10126967362E+02  0.51100000000E-03 0.  1.
        -12    1    3    3    0    0  0.28055556945E+02 -0.13432851830E+01  0.99738795736E+01  0.29805988732E+02  0.00000000000E+00 0.  1.
</event>
<event>
 7    1  0.2500839E-011  0.5052886E+02  0.7816164E-02  0.1300439E+00
        -11   -1    0    0    0    0  0.00000000000E+00  0.00000000000E+00  0.45593999997E+02  0.45594000000E+02  0.51100000000E-03 0. -1.
         11   -1    0    0    0    0 -0.00000000000E+00 -0.00000000000E+00 -0.45593999997E+02  0.45594000000E+02  0.51100000000E-03 0.  1.
    9900012    2    1    2    0    0 -0.64425754008E+01  0.28384895920E+02 -0.28389373304E+02  0.50528860674E+02  0.30000002503E+02 0.  0.
         12    1    1    2    0    0  0.64425754008E+01 -0.28384895920E+02  0.28389373304E+02  0.40659139326E+02  0.00000000000E+00 0. -1.
         11    1    3    3    0    0  0.98203184121E-01  0.72622060659E+00 -0.12009354133E+02  0.12031692615E+02  0.51100000000E-03 0. -1.
        -11    1    3    3    0    0 -0.63065812346E+01  0.17688321838E+02 -0.20415252051E+02  0.27738641150E+02  0.51100000000E-03 0.  1.
        -12    1    3    3    0    0 -0.23419735030E+00  0.99703534761E+01  0.40352328801E+01  0.10758526908E+02  0.00000000000E+00 0.  1.
</event>
<event>
 7    1  0.2500839E-011  0.5052886E+02  0.7816164E-02  0.1300439E+00
        -11   -1    0    0    0    0  0.00000000000E+00  0.00000000000E+00  0.45593999997E+02  0.45594000000E+02  0.51100000000E-03 0. -1.
         11   -1    0    0    0    0 -0.00000000000E+00 -0.00000000000E+00 -0.45593999997E+02  0.45594000000E+02  0.51100000000E-03 0.  1.
    9900012    2    1    2    0    0  0.26122390097E+02 -0.86485356360E+01 -0.29933084528E+02  0.50528856103E+02  0.29999988611E+02 0.  0.
         12    1    1    2    0    0 -0.26122390097E+02  0.86485356360E+01  0.29933084528E+02  0.40659143897E+02  0.00000000000E+00 0. -1.
         11    1    3    3    0    0  0.16513705240E+02  0.46923294442E+01 -0.45982095682E+01  0.17772561657E+02  0.51100000000E-03 0. -1.
        -11    1    3    3    0    0 -0.20356941417E+01  0.19717024420E+00 -0.39545139777E+00  0.20831007688E+01  0.51100000000E-03 0.  1.
        -12    1    3    3    0    0  0.11644379000E+02 -0.13538035324E+02 -0.24939423563E+02  0.30673193677E+02  0.00000000000E+00 0.  1.
</event>
<event>
 7    1  0.2500839E-011  0.5052885E+02  0.7816164E-02  0.1300439E+00
        -11   -1    0    0    0    0  0.00000000000E+00  0.00000000000E+00  0.45593999997E+02  0.45594000000E+02  0.51100000000E-03 0.  1.
         11   -1    0    0    0    0 -0.00000000000E+00 -0.00000000000E+00 -0.45593999997E+02  0.45594000000E+02  0.51100000000E-03 0. -1.
    9900012    2    1    2    0    0  0.99969543706E+01 -0.11978442818E+02  0.37546561233E+02  0.50528850360E+02  0.29999971154E+02 0.  0.
         12    1    1    2    0    0 -0.99969543706E+01  0.11978442818E+02 -0.37546561233E+02  0.40659149640E+02  0.00000000000E+00 0. -1.
         11    1    3    3    0    0 -0.84007251230E+01 -0.97615922492E+01  0.98083298305E+01  0.16188397084E+02  0.51100000000E-03 0. -1.
        -11    1    3    3    0    0  0.27702285903E+01 -0.23790100454E+01  0.10278572758E+02  0.10907928925E+02  0.51100000000E-03 0.  1.
         12    1    3    3    0    0  0.15627450903E+02  0.16215947710E+00  0.17459658645E+02  0.23432524350E+02  0.00000000000E+00 0. -1.
</event>
<event>
 7    1  0.2500839E-011  0.5052887E+02  0.7816164E-02  0.1300439E+00
        -11   -1    0    0    0    0  0.00000000000E+00  0.00000000000E+00  0.45593999997E+02  0.45594000000E+02  0.51100000000E-03 0.  1.
         11   -1    0    0    0    0 -0.00000000000E+00 -0.00000000000E+00 -0.45593999997E+02  0.45594000000E+02  0.51100000000E-03 0. -1.
    9900012    2    1    2    0    0 -0.98695836298E+01 -0.14010013634E+02  0.36871064733E+02  0.50528873379E+02  0.30000041124E+02 0.  0.
         12    1    1    2    0    0  0.98695836298E+01  0.14010013634E+02 -0.36871064733E+02  0.40659126621E+02  0.00000000000E+00 0. -1.
         11    1    3    3    0    0 -0.13225016874E+01  0.72965133847E+01  0.96374270155E+01  0.12160103537E+02  0.51100000000E-03 0. -1.
        -11    1    3    3    0    0 -0.76336122438E+01 -0.23715812419E+01  0.67854029967E+01  0.10485138414E+02  0.51100000000E-03 0.  1.
        -12    1    3    3    0    0 -0.91346969862E+00 -0.18934945776E+02  0.20448234720E+02  0.27883631428E+02  0.00000000000E+00 0.  1.
</event>
<event>
 7    1  0.2500839E-011  0.5052878E+02  0.7816164E-02  0.1300439E+00
        -11   -1    0    0    0    0  0.00000000000E+00  0.00000000000E+00  0.45593999997E+02  0.45594000000E+02  0.51100000000E-03 0.  1.
         11   -1    0    0    0    0 -0.00000000000E+00 -0.00000000000E+00 -0.45593999997E+02  0.45594000000E+02  0.51100000000E-03 0. -1.
    9900012    2    1    2    0    0  0.18174579574E+02 -0.18209658600E+02  0.31484364464E+02  0.50528779462E+02  0.29999755653E+02 0.  0.
         12    1    1    2    0    0 -0.18174579574E+02  0.18209658600E+02 -0.31484364464E+02  0.40659220538E+02  0.00000000000E+00 0. -1.
         11    1    3    3    0    0 -0.70137783707E+01 -0.99333065929E+01  0.91260926335E+01  0.15203592796E+02  0.51100000000E-03 0. -1.
        -11    1    3    3    0    0  0.49962659814E+01 -0.63658322326E+00  0.13796215898E+01  0.52221899572E+01  0.51100000000E-03 0.  1.
        -12    1    3    3    0    0  0.20192091963E+02 -0.76397687836E+01  0.20978650241E+02  0.30102996709E+02  0.00000000000E+00 0.  1.
</event>
<event>
 7    1  0.2500839E-011  0.5052887E+02  0.7816164E-02  0.1300439E+00
        -11   -1    0    0    0    0  0.00000000000E+00  0.00000000000E+00  0.45593999997E+02  0.45594000000E+02  0.51100000000E-03 0. -1.
         11   -1    0    0    0    0 -0.00000000000E+00 -0.00000000000E+00 -0.45593999997E+02  0.45594000000E+02  0.51100000000E-03 0.  1.
    9900012    2    1    2    0    0  0.16249593286E+02 -0.36003107519E+02 -0.96380557038E+01  0.50528866331E+02  0.30000019700E+02 0.  0.
         12    1    1    2    0    0 -0.16249593286E+02  0.36003107519E+02  0.96380557038E+01  0.40659133669E+02  0.00000000000E+00 0. -1.
         11    1    3    3    0    0  0.18141695504E+01 -0.70640229461E+01  0.49404582774E+01  0.88090725728E+01  0.51100000000E-03 0.  1.
        -11    1    3    3    0    0 -0.40754065757E+01 -0.39654225531E+01  0.25448346128E+01  0.62297430324E+01  0.51100000000E-03 0. -1.
        -12    1    3    3    0    0  0.18510830311E+02 -0.24973662019E+02 -0.17123348594E+02  0.35490050726E+02  0.00000000000E+00 0.  1.
</event>
<event>
 7    1  0.2500839E-011  0.5052886E+02  0.7816164E-02  0.1300439E+00
        -11   -1    0    0    0    0  0.00000000000E+00  0.00000000000E+00  0.45593999997E+02  0.45594000000E+02  0.51100000000E-03 0. -1.
         11   -1    0    0    0    0 -0.00000000000E+00 -0.00000000000E+00 -0.45593999997E+02  0.45594000000E+02  0.51100000000E-03 0.  1.
    9900012    2    1    2    0    0 -0.39826647982E+02 -0.61638721151E+01 -0.53861184630E+01  0.50528862269E+02  0.30000007353E+02 0.  0.
         12    1    1    2    0    0  0.39826647982E+02  0.61638721151E+01  0.53861184630E+01  0.40659137731E+02  0.00000000000E+00 0. -1.
         11    1    3    3    0    0 -0.49232426277E+01  0.24364512631E+01 -0.29466187313E+01  0.62335523530E+01  0.51100000000E-03 0. -1.
        -11    1    3    3    0    0 -0.17163476282E+02  0.14522606960E+01 -0.12765550939E+02  0.21439525887E+02  0.51100000000E-03 0.  1.
        -12    1    3    3    0    0 -0.17739929072E+02 -0.10052584074E+02  0.10326051207E+02  0.22855784029E+02  0.00000000000E+00 0.  1.
</event>
<event>
 7    1  0.2500839E-011  0.5052886E+02  0.7816164E-02  0.1300439E+00
        -11   -1    0    0    0    0  0.00000000000E+00  0.00000000000E+00  0.45593999997E+02  0.45594000000E+02  0.51100000000E-03 0.  1.
         11   -1    0    0    0    0 -0.00000000000E+00 -0.00000000000E+00 -0.45593999997E+02  0.45594000000E+02  0.51100000000E-03 0. -1.
    9900012    2    1    2    0    0  0.74147280841E+01 -0.29179119277E+02  0.27327025933E+02  0.50528861535E+02  0.30000005122E+02 0.  0.
         12    1    1    2    0    0 -0.74147280841E+01  0.29179119277E+02 -0.27327025933E+02  0.40659138465E+02  0.00000000000E+00 0. -1.
         11    1    3    3    0    0  0.31891965760E+01  0.12129893092E+01  0.30251307681E+00  0.34254681851E+01  0.51100000000E-03 0. -1.
        -11    1    3    3    0    0  0.32996434758E+01 -0.58918672315E+01  0.20713443291E+02  0.21786428798E+02  0.51100000000E-03 0.  1.
        -12    1    3    3    0    0  0.92588803239E+00 -0.24500241355E+02  0.63110695661E+01  0.25316964552E+02  0.00000000000E+00 0.  1.
</event>
<event>
 7    1  0.2500839E-011  0.5052886E+02  0.7816164E-02  0.1300439E+00
        -11   -1    0    0    0    0  0.00000000000E+00  0.00000000000E+00  0.45593999997E+02  0.45594000000E+02  0.51100000000E-03 0.  1.
         11   -1    0    0    0    0 -0.00000000000E+00 -0.00000000000E+00 -0.45593999997E+02  0.45594000000E+02  0.51100000000E-03 0. -1.
    9900012    2    1    2    0    0  0.33913234375E+01  0.18156801099E+02  0.36221471936E+02  0.50528861666E+02  0.30000005520E+02 0.  0.
         12    1    1    2    0    0 -0.33913234375E+01 -0.18156801099E+02 -0.36221471936E+02  0.40659138334E+02  0.00000000000E+00 0. -1.
         11    1    3    3    0    0  0.79461522614E+01  0.11024708290E+02  0.16770157184E+02  0.21585265828E+02  0.51100000000E-03 0. -1.
        -11    1    3    3    0    0 -0.49787706725E+01  0.73102917602E+00  0.21599847664E+02  0.22178277220E+02  0.51100000000E-03 0.  1.
         12    1    3    3    0    0  0.42394184868E+00  0.64010636336E+01 -0.21485329118E+01  0.67653186182E+01  0.00000000000E+00 0. -1.
</event>
<event>
 7    1  0.2500839E-011  0.5052886E+02  0.7816164E-02  0.1300439E+00
        -11   -1    0    0    0    0  0.00000000000E+00  0.00000000000E+00  0.45593999997E+02  0.45594000000E+02  0.51100000000E-03 0. -1.
         11   -1    0    0    0    0 -0.00000000000E+00 -0.00000000000E+00 -0.45593999997E+02  0.45594000000E+02  0.51100000000E-03 0.  1.
    9900012    2    1    2    0    0 -0.11559059074E+02 -0.26170200603E+02 -0.28890734516E+02  0.50528858505E+02  0.29999995910E+02 0.  0.
         12    1    1    2    0    0  0.11559059074E+02  0.26170200603E+02  0.28890734516E+02  0.40659141495E+02  0.00000000000E+00 0. -1.
         11    1    3    3    0    0 -0.11147250399E+02 -0.12778152564E+02 -0.13838253730E+01  0.17013446074E+02  0.51100000000E-03 0. -1.
        -11    1    3    3    0    0  0.11695629210E+01 -0.90962149029E+01 -0.47992321271E+01  0.10350924222E+02  0.51100000000E-03 0.  1.
         12    1    3    3    0    0 -0.15813715955E+01 -0.42958331361E+01 -0.22707677016E+02  0.23164488208E+02  0.00000000000E+00 0. -1.
</event>
<event>
 7    1  0.2500839E-011  0.5052885E+02  0.7816164E-02  0.1300439E+00
        -11   -1    0    0    0    0  0.00000000000E+00  0.00000000000E+00  0.45593999997E+02  0.45594000000E+02  0.51100000000E-03 0. -1.
         11   -1    0    0    0    0 -0.00000000000E+00 -0.00000000000E+00 -0.45593999997E+02  0.45594000000E+02  0.51100000000E-03 0.  1.
    9900012    2    1    2    0    0 -0.30324494427E+02  0.27081603099E+02  0.42176992293E+00  0.50528854921E+02  0.29999985019E+02 0.  0.
         12    1    1    2    0    0  0.30324494427E+02 -0.27081603099E+02 -0.42176992293E+00  0.40659145079E+02  0.00000000000E+00 0. -1.
         11    1    3    3    0    0 -0.81936887466E+01  0.97158030186E+01  0.14319191739E+01  0.12789986566E+02  0.51100000000E-03 0.  1.
        -11    1    3    3    0    0  0.21615226202E+01  0.11724273568E+02  0.34353327223E+01  0.12406944906E+02  0.51100000000E-03 0. -1.
         12    1    3    3    0    0 -0.24292328301E+02  0.56415265123E+01 -0.44454819734E+01  0.25331923449E+02  0.00000000000E+00 0. -1.
</event>
<event>
 7    1  0.2500839E-011  0.5052886E+02  0.7816164E-02  0.1300439E+00
        -11   -1    0    0    0    0  0.00000000000E+00  0.00000000000E+00  0.45593999997E+02  0.45594000000E+02  0.51100000000E-03 0. -1.
         11   -1    0    0    0    0 -0.00000000000E+00 -0.00000000000E+00 -0.45593999997E+02  0.45594000000E+02  0.51100000000E-03 0.  1.
    9900012    2    1    2    0    0  0.45274282645E+01  0.16470567993E+02 -0.36896993686E+02  0.50528863760E+02  0.30000011884E+02 0.  0.
         12    1    1    2    0    0 -0.45274282645E+01 -0.16470567993E+02  0.36896993686E+02  0.40659136240E+02  0.00000000000E+00 0. -1.
         11    1    3    3    0    0  0.15199304865E+01  0.56080455516E+01 -0.29739321523E+01  0.65272227095E+01  0.51100000000E-03 0. -1.
        -11    1    3    3    0    0  0.29385690082E+01  0.14657151680E+02 -0.64723839557E+01  0.16289844613E+02  0.51100000000E-03 0.  1.
        -12    1    3    3    0    0  0.68928769811E-01 -0.37946292387E+01 -0.27450677578E+02  0.27711796437E+02  0.00000000000E+00 0.  1.
</event>
<event>
 7    1  0.2500839E-011  0.5052886E+02  0.7816164E-02  0.1300439E+00
        -11   -1    0    0    0    0  0.00000000000E+00  0.00000000000E+00  0.45593999997E+02  0.45594000000E+02  0.51100000000E-03 0.  1.
         11   -1    0    0    0    0 -0.00000000000E+00 -0.00000000000E+00 -0.45593999997E+02  0.45594000000E+02  0.51100000000E-03 0. -1.
    9900012    2    1    2    0    0  0.35856925284E+02 -0.15979810459E+02  0.10587353906E+02  0.50528862086E+02  0.30000006798E+02 0.  0.
         12    1    1    2    0    0 -0.35856925284E+02  0.15979810459E+02 -0.10587353906E+02  0.40659137914E+02  0.00000000000E+00 0. -1.
         11    1    3    3    0    0  0.21681172953E+02 -0.15282205861E+02  0.98938794765E+01  0.28310915350E+02  0.51100000000E-03 0. -1.
        -11    1    3    3    0    0  0.17635982851E+02 -0.18388529376E+01 -0.17700190814E+01  0.17819714898E+02  0.51100000000E-03 0.  1.
         12    1    3    3    0    0 -0.34602305196E+01  0.11412483400E+01  0.24634935110E+01  0.43982318380E+01  0.00000000000E+00 0. -1.
</event>
<event>
 7    1  0.2500839E-011  0.5052885E+02  0.7816164E-02  0.1300439E+00
        -11   -1    0    0    0    0  0.00000000000E+00  0.00000000000E+00  0.45593999997E+02  0.45594000000E+02  0.51100000000E-03 0.  1.
         11   -1    0    0    0    0 -0.00000000000E+00 -0.00000000000E+00 -0.45593999997E+02  0.45594000000E+02  0.51100000000E-03 0. -1.
    9900012    2    1    2    0    0  0.37897322747E+02  0.62645724482E+01  0.13330950529E+02  0.50528853657E+02  0.29999981175E+02 0.  0.
         12    1    1    2    0    0 -0.37897322747E+02 -0.62645724482E+01 -0.13330950529E+02  0.40659146343E+02  0.00000000000E+00 0. -1.
         11    1    3    3    0    0 -0.12969496472E+01  0.38488750207E+01  0.34733239796E+01  0.53441460535E+01  0.51100000000E-03 0. -1.
        -11    1    3    3    0    0  0.16619343560E+02  0.10268060618E+02  0.83208249155E+01  0.21233741469E+02  0.51100000000E-03 0.  1.
         12    1    3    3    0    0  0.22574928834E+02 -0.78523631901E+01  0.15368016334E+01  0.23950966135E+02  0.00000000000E+00 0. -1.
</event>
<event>
 7    1  0.2500839E-011  0.5052887E+02  0.7816164E-02  0.1300439E+00
        -11   -1    0    0    0    0  0.00000000000E+00  0.00000000000E+00  0.45593999997E+02  0.45594000000E+02  0.51100000000E-03 0.  1.
         11   -1    0    0    0    0 -0.00000000000E+00 -0.00000000000E+00 -0.45593999997E+02  0.45594000000E+02  0.51100000000E-03 0. -1.
    9900012    2    1    2    0    0 -0.12671681343E+00  0.12707541508E+02  0.38622112009E+02  0.50528865671E+02  0.30000017693E+02 0.  0.
         12    1    1    2    0    0  0.12671681343E+00 -0.12707541508E+02 -0.38622112009E+02  0.40659134329E+02  0.00000000000E+00 0. -1.
         11    1    3    3    0    0  0.94556166362E+01  0.19536088441E-01  0.11112656639E+02  0.14591100215E+02  0.51100000000E-03 0. -1.
        -11    1    3    3    0    0  0.63750760568E+00  0.11481900921E+02  0.20439632400E+02  0.23452484679E+02  0.51100000000E-03 0.  1.
         12    1    3    3    0    0 -0.10219841055E+02  0.12061044982E+01  0.70698229703E+01  0.12485280777E+02  0.00000000000E+00 0. -1.
</event>
<event>
 7    1  0.2500839E-011  0.5052886E+02  0.7816164E-02  0.1300439E+00
        -11   -1    0    0    0    0  0.00000000000E+00  0.00000000000E+00  0.45593999997E+02  0.45594000000E+02  0.51100000000E-03 0. -1.
         11   -1    0    0    0    0 -0.00000000000E+00 -0.00000000000E+00 -0.45593999997E+02  0.45594000000E+02  0.51100000000E-03 0.  1.
    9900012    2    1    2    0    0  0.38854980495E+02 -0.37063999473E+01 -0.11389431405E+02  0.50528855179E+02  0.29999985802E+02 0.  0.
         12    1    1    2    0    0 -0.38854980495E+02  0.37063999473E+01  0.11389431405E+02  0.40659144821E+02  0.00000000000E+00 0. -1.
         11    1    3    3    0    0 -0.22099629916E+01 -0.54453832339E+01  0.21920701821E+00  0.58808321662E+01  0.51100000000E-03 0. -1.
        -11    1    3    3    0    0  0.76941986938E+01 -0.16722935661E+01 -0.74621249849E+01  0.10848067517E+02  0.51100000000E-03 0.  1.
        -12    1    3    3    0    0  0.33370744793E+02  0.34112768527E+01 -0.41465134381E+01  0.33799955495E+02  0.00000000000E+00 0.  1.
</event>
<event>
 7    1  0.2500839E-011  0.5052891E+02  0.7816164E-02  0.1300439E+00
        -11   -1    0    0    0    0  0.00000000000E+00  0.00000000000E+00  0.45593999997E+02  0.45594000000E+02  0.51100000000E-03 0. -1.
         11   -1    0    0    0    0 -0.00000000000E+00 -0.00000000000E+00 -0.45593999997E+02  0.45594000000E+02  0.51100000000E-03 0.  1.
    9900012    2    1    2    0    0  0.73460522039E+00 -0.36588919069E+02 -0.17716450478E+02  0.50528914164E+02  0.30000165093E+02 0.  0.
         12    1    1    2    0    0 -0.73460522039E+00  0.36588919069E+02  0.17716450478E+02  0.40659085836E+02  0.00000000000E+00 0. -1.
         11    1    3    3    0    0 -0.48813714403E+01 -0.33910130256E-01  0.20997239374E+01  0.53139230244E+01  0.51100000000E-03 0. -1.
        -11    1    3    3    0    0  0.98473305684E+01 -0.15670996306E+02 -0.47184544086E+01  0.19100100963E+02  0.51100000000E-03 0.  1.
         12    1    3    3    0    0 -0.42313539077E+01 -0.20884012633E+02 -0.15097720007E+02  0.26114890177E+02  0.00000000000E+00 0. -1.
</event>
<event>
 7    1  0.2500839E-011  0.5052886E+02  0.7816164E-02  0.1300439E+00
        -11   -1    0    0    0    0  0.00000000000E+00  0.00000000000E+00  0.45593999997E+02  0.45594000000E+02  0.51100000000E-03 0. -1.
         11   -1    0    0    0    0 -0.00000000000E+00 -0.00000000000E+00 -0.45593999997E+02  0.45594000000E+02  0.51100000000E-03 0.  1.
    9900012    2    1    2    0    0  0.17523235134E+02 -0.35458508452E+02 -0.94231746621E+01  0.50528858200E+02  0.29999994984E+02 0.  0.
         12    1    1    2    0    0 -0.17523235134E+02  0.35458508452E+02  0.94231746621E+01  0.40659141800E+02  0.00000000000E+00 0. -1.
         11    1    3    3    0    0  0.49092712626E+01 -0.17354527399E+01 -0.72173078164E+01  0.88995658838E+01  0.51100000000E-03 0. -1.
        -11    1    3    3    0    0 -0.34099713365E+01 -0.20809845300E+01  0.39648850283E+01  0.56283847309E+01  0.51100000000E-03 0.  1.
        -12    1    3    3    0    0  0.16023935208E+02 -0.31642071182E+02 -0.61707518740E+01  0.36000907585E+02  0.00000000000E+00 0.  1.
</event>
<event>
 7    1  0.2500839E-011  0.5052886E+02  0.7816164E-02  0.1300439E+00
        -11   -1    0    0    0    0  0.00000000000E+00  0.00000000000E+00  0.45593999997E+02  0.45594000000E+02  0.51100000000E-03 0.  1.
         11   -1    0    0    0    0 -0.00000000000E+00 -0.00000000000E+00 -0.45593999997E+02  0.45594000000E+02  0.51100000000E-03 0. -1.
    9900012    2    1    2    0    0  0.35436122844E+02  0.16201069197E+02  0.11617770522E+02  0.50528855428E+02  0.29999986560E+02 0.  0.
         12    1    1    2    0    0 -0.35436122844E+02 -0.16201069197E+02 -0.11617770522E+02  0.40659144572E+02  0.00000000000E+00 0. -1.
         11    1    3    3    0    0  0.24884346977E+02  0.54153337122E+01  0.74927114279E+01  0.26546135095E+02  0.51100000000E-03 0. -1.
        -11    1    3    3    0    0  0.11876201715E+02  0.96290820566E+01  0.97203516428E+01  0.18117632978E+02  0.51100000000E-03 0.  1.
         12    1    3    3    0    0 -0.13244258474E+01  0.11566534284E+01 -0.55952925482E+01  0.58650873548E+01  0.00000000000E+00 0. -1.
</event>
<event>
 7    1  0.2500839E-011  0.5052886E+02  0.7816164E-02  0.1300439E+00
        -11   -1    0    0    0    0  0.00000000000E+00  0.00000000000E+00  0.45593999997E+02  0.45594000000E+02  0.51100000000E-03 0.  1.
         11   -1    0    0    0    0 -0.00000000000E+00 -0.00000000000E+00 -0.45593999997E+02  0.45594000000E+02  0.51100000000E-03 0. -1.
    9900012    2    1    2    0    0  0.30208399533E+02  0.10606898402E+02  0.25062167497E+02  0.50528856678E+02  0.29999990358E+02 0.  0.
         12    1    1    2    0    0 -0.30208399533E+02 -0.10606898402E+02 -0.25062167497E+02  0.40659143322E+02  0.00000000000E+00 0. -1.
         11    1    3    3    0    0  0.51821401956E+01  0.11699198177E+02  0.10004579355E+01  0.12834591203E+02  0.51100000000E-03 0. -1.
        -11    1    3    3    0    0  0.16666299444E+01  0.82787969922E+00  0.10399446653E+02  0.10564635873E+02  0.51100000000E-03 0.  1.
        -12    1    3    3    0    0  0.23359629393E+02 -0.19201794742E+01  0.13662262908E+02  0.27129629602E+02  0.00000000000E+00 0.  1.
</event>
<event>
 7    1  0.2500839E-011  0.5052883E+02  0.7816164E-02  0.1300439E+00
        -11   -1    0    0    0    0  0.00000000000E+00  0.00000000000E+00  0.45593999997E+02  0.45594000000E+02  0.51100000000E-03 0. -1.
         11   -1    0    0    0    0 -0.00000000000E+00 -0.00000000000E+00 -0.45593999997E+02  0.45594000000E+02  0.51100000000E-03 0.  1.
    9900012    2    1    2    0    0  0.22662675739E+02 -0.31239889986E+02 -0.12792198875E+02  0.50528831907E+02  0.29999915064E+02 0.  0.
         12    1    1    2    0    0 -0.22662675739E+02  0.31239889986E+02  0.12792198875E+02  0.40659168093E+02  0.00000000000E+00 0. -1.
         11    1    3    3    0    0  0.34018580896E+01  0.12553395720E+01  0.25098634272E+01  0.44099807921E+01  0.51100000000E-03 0. -1.
        -11    1    3    3    0    0  0.18050656824E+02 -0.13608505979E+02 -0.15113305272E+02  0.27192455631E+02  0.51100000000E-03 0.  1.
         12    1    3    3    0    0  0.12101608255E+01 -0.18886723579E+02 -0.18875702966E+00  0.18926395483E+02  0.00000000000E+00 0. -1.
</event>
<event>
 7    1  0.2500839E-011  0.5052884E+02  0.7816164E-02  0.1300439E+00
        -11   -1    0    0    0    0  0.00000000000E+00  0.00000000000E+00  0.45593999997E+02  0.45594000000E+02  0.51100000000E-03 0. -1.
         11   -1    0    0    0    0 -0.00000000000E+00 -0.00000000000E+00 -0.45593999997E+02  0.45594000000E+02  0.51100000000E-03 0.  1.
    9900012    2    1    2    0    0 -0.59204181732E+01 -0.40217632442E+02 -0.81091996475E+00  0.50528844797E+02  0.29999954245E+02 0.  0.
         12    1    1    2    0    0  0.59204181732E+01  0.40217632442E+02  0.81091996475E+00  0.40659155203E+02  0.00000000000E+00 0. -1.
         11    1    3    3    0    0  0.73758573627E+01 -0.23132493220E+02  0.41353727007E+01  0.24629592405E+02  0.51100000000E-03 0. -1.
        -11    1    3    3    0    0 -0.26567090409E+01 -0.48996410822E+01  0.45026445937E+01  0.71650815949E+01  0.51100000000E-03 0.  1.
         12    1    3    3    0    0 -0.10639566495E+02 -0.12185498140E+02 -0.94489372592E+01  0.18734170797E+02  0.00000000000E+00 0. -1.
</event>
<event>
 7    1  0.2500839E-011  0.5052887E+02  0.7816164E-02  0.1300439E+00
        -11   -1    0    0    0    0  0.00000000000E+00  0.00000000000E+00  0.45593999997E+02  0.45594000000E+02  0.51100000000E-03 0. -1.
         11   -1    0    0    0    0 -0.00000000000E+00 -0.00000000000E+00 -0.45593999997E+02  0.45594000000E+02  0.51100000000E-03 0.  1.
    9900012    2    1    2    0    0  0.36476722469E+02  0.13225219783E+02 -0.12153494304E+02  0.50528866411E+02  0.30000019944E+02 0.  0.
         12    1    1    2    0    0 -0.36476722469E+02 -0.13225219783E+02  0.12153494304E+02  0.40659133589E+02  0.00000000000E+00 0. -1.
         11    1    3    3    0    0  0.55807877138E+01  0.63119996859E+01 -0.66946032744E+01  0.10761238070E+02  0.51100000000E-03 0. -1.
        -11    1    3    3    0    0  0.15218421553E+02 -0.64469359277E+01 -0.90740785065E+01  0.18854766995E+02  0.51100000000E-03 0.  1.
         12    1    3    3    0    0  0.15677513202E+02  0.13360156025E+02  0.36151874767E+01  0.20912861346E+02  0.00000000000E+00 0. -1.
</event>
<event>
 7    1  0.2500839E-011  0.5052886E+02  0.7816164E-02  0.1300439E+00
        -11   -1    0    0    0    0  0.00000000000E+00  0.00000000000E+00  0.45593999997E+02  0.45594000000E+02  0.51100000000E-03 0.  1.
         11   -1    0    0    0    0 -0.00000000000E+00 -0.00000000000E+00 -0.45593999997E+02  0.45594000000E+02  0.51100000000E-03 0. -1.
    9900012    2    1    2    0    0  0.23961821325E+02 -0.19531007501E+02  0.26410922206E+02  0.50528856539E+02  0.29999989935E+02 0.  0.
         12    1    1    2    0    0 -0.23961821325E+02  0.19531007501E+02 -0.26410922206E+02  0.40659143461E+02  0.00000000000E+00 0. -1.
         11    1    3    3    0    0  0.18171558902E+02 -0.38178984729E+01  0.11442913015E+02  0.21811055917E+02  0.51100000000E-03 0. -1.
        -11    1    3    3    0    0  0.51322142436E+01 -0.13457128951E+02  0.19125575386E+02  0.23942046211E+02  0.51100000000E-03 0.  1.
         12    1    3    3    0    0  0.65804817941E+00 -0.22559800768E+01 -0.41575661956E+01  0.47757544100E+01  0.00000000000E+00 0. -1.
</event>
<event>
 7    1  0.2500839E-011  0.5052884E+02  0.7816164E-02  0.1300439E+00
        -11   -1    0    0    0    0  0.00000000000E+00  0.00000000000E+00  0.45593999997E+02  0.45594000000E+02  0.51100000000E-03 0. -1.
         11   -1    0    0    0    0 -0.00000000000E+00 -0.00000000000E+00 -0.45593999997E+02  0.45594000000E+02  0.51100000000E-03 0.  1.
    9900012    2    1    2    0    0 -0.35323501329E+02  0.10485511175E+01  0.20107658111E+02  0.50528842110E+02  0.29999946077E+02 0.  0.
         12    1    1    2    0    0  0.35323501329E+02 -0.10485511175E+01 -0.20107658111E+02  0.40659157890E+02  0.00000000000E+00 0. -1.
         11    1    3    3    0    0 -0.17821827982E+02  0.45473238969E+01  0.15205202948E+02  0.23864071409E+02  0.51100000000E-03 0. -1.
        -11    1    3    3    0    0 -0.16470194740E+02 -0.71178516428E+01  0.98345782569E+01  0.20460939776E+02  0.51100000000E-03 0.  1.
         12    1    3    3    0    0 -0.10314786076E+01  0.36190788635E+01 -0.49321230935E+01  0.62038309251E+01  0.00000000000E+00 0. -1.
</event>
<event>
 7    1  0.2500839E-011  0.5052886E+02  0.7816164E-02  0.1300439E+00
        -11   -1    0    0    0    0  0.00000000000E+00  0.00000000000E+00  0.45593999997E+02  0.45594000000E+02  0.51100000000E-03 0. -1.
         11   -1    0    0    0    0 -0.00000000000E+00 -0.00000000000E+00 -0.45593999997E+02  0.45594000000E+02  0.51100000000E-03 0.  1.
    9900012    2    1    2    0    0  0.20992521165E+02  0.24785160452E+02 -0.24457628477E+02  0.50528859402E+02  0.29999998637E+02 0.  0.
         12    1    1    2    0    0 -0.20992521165E+02 -0.24785160452E+02  0.24457628477E+02  0.40659140598E+02  0.00000000000E+00 0. -1.
         11    1    3    3    0    0 -0.44701878771E+01  0.10555526069E+02 -0.36107225113E+01  0.12018278894E+02  0.51100000000E-03 0. -1.
        -11    1    3    3    0    0  0.74466325462E+01  0.79244738124E+01 -0.15039782801E+02  0.18559221116E+02  0.51100000000E-03 0.  1.
         12    1    3    3    0    0  0.18016076496E+02  0.63051605703E+01 -0.58071231647E+01  0.19951359392E+02  0.00000000000E+00 0. -1.
</event>
<event>
 7    1  0.2500839E-011  0.5052887E+02  0.7816164E-02  0.1300439E+00
        -11   -1    0    0    0    0  0.00000000000E+00  0.00000000000E+00  0.45593999997E+02  0.45594000000E+02  0.51100000000E-03 0.  1.
         11   -1    0    0    0    0 -0.00000000000E+00 -0.00000000000E+00 -0.45593999997E+02  0.45594000000E+02  0.51100000000E-03 0. -1.
    9900012    2    1    2    0    0  0.11397174831E+02 -0.18854302930E+02  0.34172863034E+02  0.50528869401E+02  0.30000029032E+02 0.  0.
         12    1    1    2    0    0 -0.11397174831E+02  0.18854302930E+02 -0.34172863034E+02  0.40659130599E+02  0.00000000000E+00 0. -1.
         11    1    3    3    0    0  0.89485101395E+00 -0.30662241130E+01 -0.37640757574E+01  0.49366745099E+01  0.51100000000E-03 0. -1.
        -11    1    3    3    0    0  0.68552171775E+01  0.17691107948E+01  0.78866879973E+01  0.10598283039E+02  0.51100000000E-03 0.  1.
         12    1    3    3    0    0  0.36471066400E+01 -0.17557189612E+02  0.30050250794E+02  0.34993911852E+02  0.00000000000E+00 0. -1.
</event>
<event>
 7    1  0.2500839E-011  0.5052887E+02  0.7816164E-02  0.1300439E+00
        -11   -1    0    0    0    0  0.00000000000E+00  0.00000000000E+00  0.45593999997E+02  0.45594000000E+02  0.51100000000E-03 0.  1.
         11   -1    0    0    0    0 -0.00000000000E+00 -0.00000000000E+00 -0.45593999997E+02  0.45594000000E+02  0.51100000000E-03 0. -1.
    9900012    2    1    2    0    0  0.27071263990E+02 -0.30205995718E+01  0.30185887661E+02  0.50528866097E+02  0.30000018989E+02 0.  0.
         12    1    1    2    0    0 -0.27071263990E+02  0.30205995718E+01 -0.30185887661E+02  0.40659133903E+02  0.00000000000E+00 0. -1.
         11    1    3    3    0    0  0.77107360933E+01 -0.10764647109E+02  0.85533346664E+01  0.15763648456E+02  0.51100000000E-03 0. -1.
        -11    1    3    3    0    0  0.62550741551E+01  0.21322677722E+00  0.18226462622E+02  0.19271101638E+02  0.51100000000E-03 0.  1.
        -12    1    3    3    0    0  0.13105453742E+02  0.75308207597E+01  0.34060903726E+01  0.15494116003E+02  0.00000000000E+00 0.  1.
</event>
<event>
 7    1  0.2500839E-011  0.5052884E+02  0.7816164E-02  0.1300439E+00
        -11   -1    0    0    0    0  0.00000000000E+00  0.00000000000E+00  0.45593999997E+02  0.45594000000E+02  0.51100000000E-03 0. -1.
         11   -1    0    0    0    0 -0.00000000000E+00 -0.00000000000E+00 -0.45593999997E+02  0.45594000000E+02  0.51100000000E-03 0.  1.
    9900012    2    1    2    0    0  0.39490313353E+02 -0.59962057777E+00 -0.96603808167E+01  0.50528839273E+02  0.29999937453E+02 0.  0.
         12    1    1    2    0    0 -0.39490313353E+02  0.59962057777E+00  0.96603808167E+01  0.40659160727E+02  0.00000000000E+00 0. -1.
         11    1    3    3    0    0  0.21060922191E+01  0.79487773416E+01 -0.27241971294E+00  0.82275694116E+01  0.51100000000E-03 0. -1.
        -11    1    3    3    0    0  0.16110800754E+02  0.38418354229E+01 -0.49447097798E+01  0.17284899636E+02  0.51100000000E-03 0.  1.
         12    1    3    3    0    0  0.21273420379E+02 -0.12390233342E+02 -0.44432513239E+01  0.25016370225E+02  0.00000000000E+00 0. -1.
</event>
<event>
 7    1  0.2500839E-011  0.5052886E+02  0.7816164E-02  0.1300439E+00
        -11   -1    0    0    0    0  0.00000000000E+00  0.00000000000E+00  0.45593999997E+02  0.45594000000E+02  0.51100000000E-03 0.  1.
         11   -1    0    0    0    0 -0.00000000000E+00 -0.00000000000E+00 -0.45593999997E+02  0.45594000000E+02  0.51100000000E-03 0. -1.
    9900012    2    1    2    0    0 -0.15026331067E+02 -0.16777093787E+02  0.33851210332E+02  0.50528856598E+02  0.29999990115E+02 0.  0.
         12    1    1    2    0    0  0.15026331067E+02  0.16777093787E+02 -0.33851210332E+02  0.40659143402E+02  0.00000000000E+00 0. -1.
         11    1    3    3    0    0 -0.78868360305E+01 -0.20413637723E+01  0.19190110813E+01  0.83697044401E+01  0.51100000000E-03 0. -1.
        -11    1    3    3    0    0  0.70113453076E+01 -0.11867643602E+01  0.43802126501E+01  0.83518642105E+01  0.51100000000E-03 0.  1.
         12    1    3    3    0    0 -0.14150840344E+02 -0.13548965654E+02  0.27551986600E+02  0.33807287947E+02  0.00000000000E+00 0. -1.
</event>
<event>
 7    1  0.2500839E-011  0.5052887E+02  0.7816164E-02  0.1300439E+00
        -11   -1    0    0    0    0  0.00000000000E+00  0.00000000000E+00  0.45593999997E+02  0.45594000000E+02  0.51100000000E-03 0. -1.
         11   -1    0    0    0    0 -0.00000000000E+00 -0.00000000000E+00 -0.45593999997E+02  0.45594000000E+02  0.51100000000E-03 0.  1.
    9900012    2    1    2    0    0  0.38995512579E+02 -0.78664643292E+01  0.84044015639E+01  0.50528865380E+02  0.30000016811E+02 0.  0.
         12    1    1    2    0    0 -0.38995512579E+02  0.78664643292E+01 -0.84044015639E+01  0.40659134620E+02  0.00000000000E+00 0. -1.
         11    1    3    3    0    0 -0.57774093152E+00 -0.61752149572E+00 -0.10045384857E+01  0.13130937560E+01  0.51100000000E-03 0. -1.
        -11    1    3    3    0    0  0.11123495418E+02 -0.15135057394E+02  0.34165949422E+01  0.19091234478E+02  0.51100000000E-03 0.  1.
        -12    1    3    3    0    0  0.28449758092E+02  0.78861145608E+01  0.59923451074E+01  0.30124537146E+02  0.00000000000E+00 0.  1.
</event>
<event>
 7    1  0.2500839E-011  0.5052886E+02  0.7816164E-02  0.1300439E+00
        -11   -1    0    0    0    0  0.00000000000E+00  0.00000000000E+00  0.45593999997E+02  0.45594000000E+02  0.51100000000E-03 0.  1.
         11   -1    0    0    0    0 -0.00000000000E+00 -0.00000000000E+00 -0.45593999997E+02  0.45594000000E+02  0.51100000000E-03 0. -1.
    9900012    2    1    2    0    0  0.12243353570E+02  0.36043950816E+02 -0.14286331483E+02  0.50528863705E+02  0.30000011717E+02 0.  0.
         12    1    1    2    0    0 -0.12243353570E+02 -0.36043950816E+02  0.14286331483E+02  0.40659136295E+02  0.00000000000E+00 0. -1.
         11    1    3    3    0    0  0.19104888405E+01  0.18561645708E+02  0.26700051316E+01  0.18849763570E+02  0.51100000000E-03 0. -1.
        -11    1    3    3    0    0  0.11592999776E+02  0.61442376647E+01 -0.26572793959E+01  0.13386950151E+02  0.51100000000E-03 0.  1.
         12    1    3    3    0    0 -0.12601350468E+01  0.11338067443E+02 -0.14299057218E+02  0.18292149984E+02  0.00000000000E+00 0. -1.
</event>
<event>
 7    1  0.2500839E-011  0.5052879E+02  0.7816164E-02  0.1300439E+00
        -11   -1    0    0    0    0  0.00000000000E+00  0.00000000000E+00  0.45593999997E+02  0.45594000000E+02  0.51100000000E-03 0.  1.
         11   -1    0    0    0    0 -0.00000000000E+00 -0.00000000000E+00 -0.45593999997E+02  0.45594000000E+02  0.51100000000E-03 0. -1.
    9900012    2    1    2    0    0  0.21749829968E+02  0.70399656319E+01  0.33623726832E+02  0.50528791623E+02  0.29999792617E+02 0.  0.
         12    1    1    2    0    0 -0.21749829968E+02 -0.70399656319E+01 -0.33623726832E+02  0.40659208377E+02  0.00000000000E+00 0. -1.
         11    1    3    3    0    0 -0.30289529136E+01  0.10131539857E+02  0.11889612132E+02  0.15911804817E+02  0.51100000000E-03 0. -1.
        -11    1    3    3    0    0 -0.88146391979E+00  0.52993443787E+00  0.78312999371E+00  0.12927111040E+01  0.51100000000E-03 0.  1.
        -12    1    3    3    0    0  0.25660246801E+02 -0.36215086628E+01  0.20950984706E+02  0.33324275702E+02  0.00000000000E+00 0.  1.
</event>
<event>
 7    1  0.2500839E-011  0.5052886E+02  0.7816164E-02  0.1300439E+00
        -11   -1    0    0    0    0  0.00000000000E+00  0.00000000000E+00  0.45593999997E+02  0.45594000000E+02  0.51100000000E-03 0. -1.
         11   -1    0    0    0    0 -0.00000000000E+00 -0.00000000000E+00 -0.45593999997E+02  0.45594000000E+02  0.51100000000E-03 0.  1.
    9900012    2    1    2    0    0 -0.44515470021E+01 -0.36832266910E+02  0.16635304177E+02  0.50528862017E+02  0.30000006587E+02 0.  0.
         12    1    1    2    0    0  0.44515470021E+01  0.36832266910E+02 -0.16635304177E+02  0.40659137983E+02  0.00000000000E+00 0. -1.
         11    1    3    3    0    0 -0.10552413782E+02 -0.86799273545E+01  0.18528995637E+01  0.13788684222E+02  0.51100000000E-03 0. -1.
        -11    1    3    3    0    0  0.63263605287E+01 -0.11033861496E+02 -0.18719493686E+01  0.12855859822E+02  0.51100000000E-03 0.  1.
         12    1    3    3    0    0 -0.22549374853E+00 -0.17118478059E+02  0.16654353982E+02  0.23884317974E+02  0.00000000000E+00 0. -1.
</event>
<event>
 7    1  0.2500839E-011  0.5052886E+02  0.7816164E-02  0.1300439E+00
        -11   -1    0    0    0    0  0.00000000000E+00  0.00000000000E+00  0.45593999997E+02  0.45594000000E+02  0.51100000000E-03 0.  1.
         11   -1    0    0    0    0 -0.00000000000E+00 -0.00000000000E+00 -0.45593999997E+02  0.45594000000E+02  0.51100000000E-03 0. -1.
    9900012    2    1    2    0    0  0.63279667655E+01 -0.20527420170E+02  0.34521698134E+02  0.50528858540E+02  0.29999996018E+02 0.  0.
         12    1    1    2    0    0 -0.63279667655E+01  0.20527420170E+02 -0.34521698134E+02  0.40659141460E+02  0.00000000000E+00 0. -1.
         11    1    3    3    0    0  0.22064849065E+00  0.42192147962E+01  0.14249905316E+02  0.14863050193E+02  0.51100000000E-03 0. -1.
        -11    1    3    3    0    0  0.41160993472E+01  0.38320626309E+00  0.30044889844E+01  0.51103889475E+01  0.51100000000E-03 0.  1.
         12    1    3    3    0    0  0.19912189276E+01 -0.25129841229E+02  0.17267303833E+02  0.30555419400E+02  0.00000000000E+00 0. -1.
</event>
<event>
 7    1  0.2500839E-011  0.5052886E+02  0.7816164E-02  0.1300439E+00
        -11   -1    0    0    0    0  0.00000000000E+00  0.00000000000E+00  0.45593999997E+02  0.45594000000E+02  0.51100000000E-03 0.  1.
         11   -1    0    0    0    0 -0.00000000000E+00 -0.00000000000E+00 -0.45593999997E+02  0.45594000000E+02  0.51100000000E-03 0. -1.
    9900012    2    1    2    0    0 -0.37987641603E+02  0.48726834235E+01  0.13651450422E+02  0.50528855187E+02  0.29999985826E+02 0.  0.
         12    1    1    2    0    0  0.37987641603E+02 -0.48726834235E+01 -0.13651450422E+02  0.40659144813E+02  0.00000000000E+00 0. -1.
         11    1    3    3    0    0 -0.60022093957E+01  0.23100256228E+01 -0.45752644454E+01  0.78927676397E+01  0.51100000000E-03 0. -1.
        -11    1    3    3    0    0 -0.26031336966E+02  0.10704644262E+02  0.10962939182E+02  0.30206058147E+02  0.51100000000E-03 0.  1.
         12    1    3    3    0    0 -0.59540952419E+01 -0.81419864614E+01  0.72637756856E+01  0.12430029400E+02  0.00000000000E+00 0. -1.
</event>
<event>
 7    1  0.2500839E-011  0.5052881E+02  0.7816164E-02  0.1300439E+00
        -11   -1    0    0    0    0  0.00000000000E+00  0.00000000000E+00  0.45593999997E+02  0.45594000000E+02  0.51100000000E-03 0. -1.
         11   -1    0    0    0    0 -0.00000000000E+00 -0.00000000000E+00 -0.45593999997E+02  0.45594000000E+02  0.51100000000E-03 0.  1.
    9900012    2    1    2    0    0  0.16087181613E+02  0.22803366191E+02 -0.29569900729E+02  0.50528807300E+02  0.29999840268E+02 0.  0.
         12    1    1    2    0    0 -0.16087181613E+02 -0.22803366191E+02  0.29569900729E+02  0.40659192700E+02  0.00000000000E+00 0. -1.
         11    1    3    3    0    0  0.73648933056E+01  0.19917699606E+02 -0.52991370379E+01  0.21886919943E+02  0.51100000000E-03 0.  1.
        -11    1    3    3    0    0  0.80614839574E+01  0.28297989561E+01 -0.61935272154E+01  0.10552490955E+02  0.51100000000E-03 0. -1.
         12    1    3    3    0    0  0.66080435005E+00  0.55867629863E-01 -0.18077236476E+02  0.18089396402E+02  0.00000000000E+00 0. -1.
</event>
<event>
 7    1  0.2500839E-011  0.5052887E+02  0.7816164E-02  0.1300439E+00
        -11   -1    0    0    0    0  0.00000000000E+00  0.00000000000E+00  0.45593999997E+02  0.45594000000E+02  0.51100000000E-03 0. -1.
         11   -1    0    0    0    0 -0.00000000000E+00 -0.00000000000E+00 -0.45593999997E+02  0.45594000000E+02  0.51100000000E-03 0.  1.
    9900012    2    1    2    0    0 -0.35055990034E+02  0.49584880874E+01  0.19991389130E+02  0.50528872111E+02  0.30000037268E+02 0.  0.
         12    1    1    2    0    0  0.35055990034E+02 -0.49584880874E+01 -0.19991389130E+02  0.40659127889E+02  0.00000000000E+00 0. -1.
         11    1    3    3    0    0 -0.79969108367E+01  0.48352444586E+01  0.43525653531E+01  0.10308976541E+02  0.51100000000E-03 0. -1.
        -11    1    3    3    0    0 -0.18637398363E+02  0.11890055642E+02  0.62606176459E+01  0.22976539654E+02  0.51100000000E-03 0.  1.
         12    1    3    3    0    0 -0.84216808343E+01 -0.11766812013E+02  0.93782061308E+01  0.17243355916E+02  0.00000000000E+00 0. -1.
</event>
<event>
 7    1  0.2500839E-011  0.5052886E+02  0.7816164E-02  0.1300439E+00
        -11   -1    0    0    0    0  0.00000000000E+00  0.00000000000E+00  0.45593999997E+02  0.45594000000E+02  0.51100000000E-03 0. -1.
         11   -1    0    0    0    0 -0.00000000000E+00 -0.00000000000E+00 -0.45593999997E+02  0.45594000000E+02  0.51100000000E-03 0.  1.
    9900012    2    1    2    0    0 -0.30431115294E+02  0.22482077516E+02 -0.14888545080E+02  0.50528863732E+02  0.30000011800E+02 0.  0.
         12    1    1    2    0    0  0.30431115294E+02 -0.22482077516E+02  0.14888545080E+02  0.40659136268E+02  0.00000000000E+00 0. -1.
         11    1    3    3    0    0 -0.26598568980E+02  0.23989695645E+02 -0.74061223509E+01  0.36576495423E+02  0.51100000000E-03 0. -1.
        -11    1    3    3    0    0 -0.57543327198E+01 -0.11756247533E+01  0.34725804067E+00  0.58834536641E+01  0.51100000000E-03 0.  1.
        -12    1    3    3    0    0  0.19217864057E+01 -0.33199337559E+00 -0.78296807693E+01  0.80689146445E+01  0.00000000000E+00 0.  1.
</event>
<event>
 7    1  0.2500839E-011  0.5052886E+02  0.7816164E-02  0.1300439E+00
        -11   -1    0    0    0    0  0.00000000000E+00  0.00000000000E+00  0.45593999997E+02  0.45594000000E+02  0.51100000000E-03 0. -1.
         11   -1    0    0    0    0 -0.00000000000E+00 -0.00000000000E+00 -0.45593999997E+02  0.45594000000E+02  0.51100000000E-03 0.  1.
    9900012    2    1    2    0    0  0.26628323195E+02  0.30683523473E+02  0.16184211767E+01  0.50528862085E+02  0.30000006793E+02 0.  0.
         12    1    1    2    0    0 -0.26628323195E+02 -0.30683523473E+02 -0.16184211767E+01  0.40659137915E+02  0.00000000000E+00 0. -1.
         11    1    3    3    0    0  0.26138027540E+02  0.29059194789E+02  0.75599104982E+01  0.39809364884E+02  0.51100000000E-03 0. -1.
        -11    1    3    3    0    0  0.31498873035E+01  0.41778913801E+01 -0.36209579255E+01  0.63630105271E+01  0.51100000000E-03 0.  1.
        -12    1    3    3    0    0 -0.26595916485E+01 -0.25535626957E+01 -0.23205313960E+01  0.43564866736E+01  0.00000000000E+00 0.  1.
</event>
<event>
 7    1  0.2500839E-011  0.5052886E+02  0.7816164E-02  0.1300439E+00
        -11   -1    0    0    0    0  0.00000000000E+00  0.00000000000E+00  0.45593999997E+02  0.45594000000E+02  0.51100000000E-03 0.  1.
         11   -1    0    0    0    0 -0.00000000000E+00 -0.00000000000E+00 -0.45593999997E+02  0.45594000000E+02  0.51100000000E-03 0. -1.
    9900012    2    1    2    0    0 -0.18485659787E+02 -0.31228528039E+01  0.36078993745E+02  0.50528860597E+02  0.30000002269E+02 0.  0.
         12    1    1    2    0    0  0.18485659787E+02  0.31228528039E+01 -0.36078993745E+02  0.40659139403E+02  0.00000000000E+00 0. -1.
         11    1    3    3    0    0 -0.11656611694E+02  0.44282024086E+01  0.32408460859E+01  0.12883658501E+02  0.51100000000E-03 0. -1.
        -11    1    3    3    0    0 -0.81682607378E+00 -0.68847344725E+01  0.36466815614E+01  0.78335854028E+01  0.51100000000E-03 0.  1.
        -12    1    3    3    0    0 -0.60122220194E+01 -0.66632073993E+00  0.29191466097E+02  0.29811616693E+02  0.00000000000E+00 0.  1.
</event>
<event>
 7    1  0.2500839E-011  0.5052886E+02  0.7816164E-02  0.1300439E+00
        -11   -1    0    0    0    0  0.00000000000E+00  0.00000000000E+00  0.45593999997E+02  0.45594000000E+02  0.51100000000E-03 0.  1.
         11   -1    0    0    0    0 -0.00000000000E+00 -0.00000000000E+00 -0.45593999997E+02  0.45594000000E+02  0.51100000000E-03 0. -1.
    9900012    2    1    2    0    0 -0.18263399521E+02  0.81923201710E+01  0.35390669730E+02  0.50528863563E+02  0.30000011285E+02 0.  0.
         12    1    1    2    0    0  0.18263399521E+02 -0.81923201710E+01 -0.35390669730E+02  0.40659136437E+02  0.00000000000E+00 0. -1.
         11    1    3    3    0    0 -0.41210973291E+01 -0.39815058135E+01 -0.24042732682E+01  0.62142064617E+01  0.51100000000E-03 0. -1.
        -11    1    3    3    0    0 -0.85999406510E+01  0.30558197092E+00  0.22986081311E+02  0.24544088776E+02  0.51100000000E-03 0.  1.
        -12    1    3    3    0    0 -0.55423615411E+01  0.11868244014E+02  0.14808861688E+02  0.19770568325E+02  0.00000000000E+00 0.  1.
</event>
<event>
 7    1  0.2500839E-011  0.5052886E+02  0.7816164E-02  0.1300439E+00
        -11   -1    0    0    0    0  0.00000000000E+00  0.00000000000E+00  0.45593999997E+02  0.45594000000E+02  0.51100000000E-03 0.  1.
         11   -1    0    0    0    0 -0.00000000000E+00 -0.00000000000E+00 -0.45593999997E+02  0.45594000000E+02  0.51100000000E-03 0. -1.
    9900012    2    1    2    0    0  0.10518380095E+02  0.97690248239E+01  0.38040707344E+02  0.50528861039E+02  0.30000003615E+02 0.  0.
         12    1    1    2    0    0 -0.10518380095E+02 -0.97690248239E+01 -0.38040707344E+02  0.40659138961E+02  0.00000000000E+00 0. -1.
         11    1    3    3    0    0  0.12383270276E+02 -0.22208116717E+01  0.24613917639E+02  0.27642762688E+02  0.51100000000E-03 0. -1.
        -11    1    3    3    0    0 -0.24711365431E+01  0.99890003988E+00  0.11382283106E+02  0.11690196152E+02  0.51100000000E-03 0.  1.
         12    1    3    3    0    0  0.60624636257E+00  0.10990936456E+02  0.20445065984E+01  0.11195902199E+02  0.00000000000E+00 0. -1.
</event>
<event>
 7    1  0.2500839E-011  0.5052887E+02  0.7816164E-02  0.1300439E+00
        -11   -1    0    0    0    0  0.00000000000E+00  0.00000000000E+00  0.45593999997E+02  0.45594000000E+02  0.51100000000E-03 0.  1.
         11   -1    0    0    0    0 -0.00000000000E+00 -0.00000000000E+00 -0.45593999997E+02  0.45594000000E+02  0.51100000000E-03 0. -1.
    9900012    2    1    2    0    0 -0.33357865584E+02 -0.50322369982E+01  0.22695690574E+02  0.50528868478E+02  0.30000026225E+02 0.  0.
         12    1    1    2    0    0  0.33357865584E+02  0.50322369982E+01 -0.22695690574E+02  0.40659131522E+02  0.00000000000E+00 0. -1.
         11    1    3    3    0    0 -0.19488008816E+02 -0.46857612197E+01  0.92956932552E+01  0.22094088784E+02  0.51100000000E-03 0. -1.
        -11    1    3    3    0    0 -0.87812863617E+01 -0.53826364346E+01  0.17410297242E+02  0.20228747254E+02  0.51100000000E-03 0.  1.
         12    1    3    3    0    0 -0.50885704060E+01  0.50361606561E+01 -0.40102999231E+01  0.82060324398E+01  0.00000000000E+00 0. -1.
</event>
<event>
 7    1  0.2500839E-011  0.5052891E+02  0.7816164E-02  0.1300439E+00
        -11   -1    0    0    0    0  0.00000000000E+00  0.00000000000E+00  0.45593999997E+02  0.45594000000E+02  0.51100000000E-03 0.  1.
         11   -1    0    0    0    0 -0.00000000000E+00 -0.00000000000E+00 -0.45593999997E+02  0.45594000000E+02  0.51100000000E-03 0. -1.
    9900012    2    1    2    0    0 -0.26609768336E+02  0.48639550380E+01  0.30354958781E+02  0.50528913044E+02  0.30000161690E+02 0.  0.
         12    1    1    2    0    0  0.26609768336E+02 -0.48639550380E+01 -0.30354958781E+02  0.40659086956E+02  0.00000000000E+00 0. -1.
         11    1    3    3    0    0 -0.69803027681E+01  0.89805690542E+01  0.23418899526E+01  0.11612910750E+02  0.51100000000E-03 0. -1.
        -11    1    3    3    0    0 -0.14264040929E+02  0.59842579425E+00  0.55040204550E+01  0.15300824112E+02  0.51100000000E-03 0.  1.
        -12    1    3    3    0    0 -0.53654246382E+01 -0.47150398104E+01  0.22509048373E+02  0.23615178183E+02  0.00000000000E+00 0.  1.
</event>
<event>
 7    1  0.2500839E-011  0.5052886E+02  0.7816164E-02  0.1300439E+00
        -11   -1    0    0    0    0  0.00000000000E+00  0.00000000000E+00  0.45593999997E+02  0.45594000000E+02  0.51100000000E-03 0.  1.
         11   -1    0    0    0    0 -0.00000000000E+00 -0.00000000000E+00 -0.45593999997E+02  0.45594000000E+02  0.51100000000E-03 0. -1.
    9900012    2    1    2    0    0 -0.41692268425E+01  0.37538986682E+02  0.15053489571E+02  0.50528861768E+02  0.30000005829E+02 0.  0.
         12    1    1    2    0    0  0.41692268425E+01 -0.37538986682E+02 -0.15053489571E+02  0.40659138232E+02  0.00000000000E+00 0. -1.
         11    1    3    3    0    0  0.52688495037E+00 -0.39477422540E+01  0.13828152715E+01  0.42159761611E+01  0.51100000000E-03 0. -1.
        -11    1    3    3    0    0  0.41444927739E+01  0.77447205275E+01  0.58864502452E+01  0.10573921371E+02  0.51100000000E-03 0.  1.
         12    1    3    3    0    0 -0.88406045668E+01  0.33742008408E+02  0.77842240543E+01  0.35738964236E+02  0.00000000000E+00 0. -1.
</event>
<event>
 7    1  0.2500839E-011  0.5052886E+02  0.7816164E-02  0.1300439E+00
        -11   -1    0    0    0    0  0.00000000000E+00  0.00000000000E+00  0.45593999997E+02  0.45594000000E+02  0.51100000000E-03 0. -1.
         11   -1    0    0    0    0 -0.00000000000E+00 -0.00000000000E+00 -0.45593999997E+02  0.45594000000E+02  0.51100000000E-03 0.  1.
    9900012    2    1    2    0    0  0.20460897607E+01  0.40612001634E+01 -0.40404032856E+02  0.50528859563E+02  0.29999999128E+02 0.  0.
         12    1    1    2    0    0 -0.20460897607E+01 -0.40612001634E+01  0.40404032856E+02  0.40659140437E+02  0.00000000000E+00 0. -1.
         11    1    3    3    0    0  0.38198964363E+01  0.40726839011E+01 -0.16649055484E+01  0.58266863386E+01  0.51100000000E-03 0. -1.
        -11    1    3    3    0    0  0.18919872678E+01  0.70517121595E+01 -0.35275697676E+02  0.36023341141E+02  0.51100000000E-03 0.  1.
        -12    1    3    3    0    0 -0.36657939434E+01 -0.70631958972E+01 -0.34634296317E+01  0.86788320834E+01  0.00000000000E+00 0.  1.
</event>
<event>
 7    1  0.2500839E-011  0.5052886E+02  0.7816164E-02  0.1300439E+00
        -11   -1    0    0    0    0  0.00000000000E+00  0.00000000000E+00  0.45593999997E+02  0.45594000000E+02  0.51100000000E-03 0. -1.
         11   -1    0    0    0    0 -0.00000000000E+00 -0.00000000000E+00 -0.45593999997E+02  0.45594000000E+02  0.51100000000E-03 0.  1.
    9900012    2    1    2    0    0 -0.38352488114E+02 -0.81624493457E+00  0.13475379616E+02  0.50528862575E+02  0.30000008283E+02 0.  0.
         12    1    1    2    0    0  0.38352488114E+02  0.81624493457E+00 -0.13475379616E+02  0.40659137425E+02  0.00000000000E+00 0. -1.
         11    1    3    3    0    0 -0.20341293432E+02 -0.69475918572E+00  0.13443278471E+02  0.24392061108E+02  0.51100000000E-03 0. -1.
        -11    1    3    3    0    0 -0.58651563634E+01 -0.91969878848E+01  0.93346393699E+00  0.10947876529E+02  0.51100000000E-03 0.  1.
         12    1    3    3    0    0 -0.12146038319E+02  0.90755021359E+01 -0.90136279244E+00  0.15188924937E+02  0.00000000000E+00 0. -1.
</event>
<event>
 7    1  0.2500839E-011  0.5052885E+02  0.7816164E-02  0.1300439E+00
        -11   -1    0    0    0    0  0.00000000000E+00  0.00000000000E+00  0.45593999997E+02  0.45594000000E+02  0.51100000000E-03 0. -1.
         11   -1    0    0    0    0 -0.00000000000E+00 -0.00000000000E+00 -0.45593999997E+02  0.45594000000E+02  0.51100000000E-03 0.  1.
    9900012    2    1    2    0    0 -0.93084771181E+01  0.39489507314E+02 -0.26641071036E+01  0.50528850958E+02  0.29999972972E+02 0.  0.
         12    1    1    2    0    0  0.93084771181E+01 -0.39489507314E+02  0.26641071036E+01  0.40659149042E+02  0.00000000000E+00 0. -1.
         11    1    3    3    0    0  0.75263072199E+01  0.11418303762E+02  0.42109399517E+01  0.14309261921E+02  0.51100000000E-03 0. -1.
        -11    1    3    3    0    0 -0.30275514717E+01  0.16100529176E+02  0.79332294318E+00  0.16401904438E+02  0.51100000000E-03 0.  1.
         12    1    3    3    0    0 -0.13807232866E+02  0.11970674376E+02 -0.76683699984E+01  0.19817684599E+02  0.00000000000E+00 0. -1.
</event>
<event>
 7    1  0.2695605E-011  0.5052892E+02  0.7816164E-02  0.1300439E+00
        -11   -1    0    0    0    0  0.00000000000E+00  0.00000000000E+00  0.45593999997E+02  0.45594000000E+02  0.51100000000E-03 0. -1.
         11   -1    0    0    0    0 -0.00000000000E+00 -0.00000000000E+00 -0.45593999997E+02  0.45594000000E+02  0.51100000000E-03 0.  1.
    9900012    2    1    2    0    0 -0.20853909800E+02  0.40352718273E+01 -0.34669750036E+02  0.50528923028E+02  0.30000192035E+02 0.  0.
         12    1    1    2    0    0  0.20853909800E+02 -0.40352718273E+01  0.34669750036E+02  0.40659076972E+02  0.00000000000E+00 0. -1.
         11    1    3    3    0    0  0.43131555232E+01 -0.85029089820E+00 -0.20747602499E+01  0.48611660673E+01  0.51100000000E-03 0. -1.
        -11    1    3    3    0    0 -0.17044399688E+02 -0.41429105395E+01 -0.10467399580E+02  0.20426495605E+02  0.51100000000E-03 0.  1.
        -12    1    3    3    0    0 -0.81226656359E+01  0.90284732651E+01 -0.22127590206E+02  0.25241261356E+02  0.00000000000E+00 0.  1.
</event>
<event>
 7    1  0.2500839E-011  0.5052886E+02  0.7816164E-02  0.1300439E+00
        -11   -1    0    0    0    0  0.00000000000E+00  0.00000000000E+00  0.45593999997E+02  0.45594000000E+02  0.51100000000E-03 0. -1.
         11   -1    0    0    0    0 -0.00000000000E+00 -0.00000000000E+00 -0.45593999997E+02  0.45594000000E+02  0.51100000000E-03 0.  1.
    9900012    2    1    2    0    0 -0.11685697113E+02 -0.38279125731E+02 -0.71637023089E+01  0.50528860628E+02  0.30000002364E+02 0.  0.
         12    1    1    2    0    0  0.11685697113E+02  0.38279125731E+02  0.71637023089E+01  0.40659139372E+02  0.00000000000E+00 0. -1.
         11    1    3    3    0    0 -0.85707943312E+01 -0.17066445076E+02 -0.11267419287E+02  0.22173786340E+02  0.51100000000E-03 0.  1.
        -11    1    3    3    0    0  0.39502157847E+01 -0.87262328195E+01 -0.55428544306E+01  0.11066823368E+02  0.51100000000E-03 0. -1.
         12    1    3    3    0    0 -0.70651185667E+01 -0.12486447836E+02  0.96465714087E+01  0.17288250919E+02  0.00000000000E+00 0. -1.
</event>
<event>
 7    1  0.2500839E-011  0.5052886E+02  0.7816164E-02  0.1300439E+00
        -11   -1    0    0    0    0  0.00000000000E+00  0.00000000000E+00  0.45593999997E+02  0.45594000000E+02  0.51100000000E-03 0.  1.
         11   -1    0    0    0    0 -0.00000000000E+00 -0.00000000000E+00 -0.45593999997E+02  0.45594000000E+02  0.51100000000E-03 0. -1.
    9900012    2    1    2    0    0  0.34562526068E+02 -0.48550961123E+01 -0.20857261508E+02  0.50528861740E+02  0.30000005745E+02 0.  0.
         12    1    1    2    0    0 -0.34562526068E+02  0.48550961123E+01  0.20857261508E+02  0.40659138260E+02  0.00000000000E+00 0. -1.
         11    1    3    3    0    0 -0.16434998568E+01  0.49773611639E+01 -0.21079968049E+01  0.56496784622E+01  0.51100000000E-03 0. -1.
        -11    1    3    3    0    0  0.31662903265E+01 -0.50511260580E+01 -0.76499518855E+01  0.96985067406E+01  0.51100000000E-03 0.  1.
         12    1    3    3    0    0  0.33039735598E+02 -0.47813312182E+01 -0.11099312817E+02  0.35180676537E+02  0.00000000000E+00 0. -1.
</event>
<event>
 7    1  0.2500839E-011  0.5052881E+02  0.7816164E-02  0.1300439E+00
        -11   -1    0    0    0    0  0.00000000000E+00  0.00000000000E+00  0.45593999997E+02  0.45594000000E+02  0.51100000000E-03 0. -1.
         11   -1    0    0    0    0 -0.00000000000E+00 -0.00000000000E+00 -0.45593999997E+02  0.45594000000E+02  0.51100000000E-03 0.  1.
    9900012    2    1    2    0    0 -0.32533913416E+02 -0.24206802799E+02  0.29572424244E+01  0.50528805386E+02  0.29999834450E+02 0.  0.
         12    1    1    2    0    0  0.32533913416E+02  0.24206802799E+02 -0.29572424244E+01  0.40659194614E+02  0.00000000000E+00 0. -1.
         11    1    3    3    0    0  0.34940560662E+01  0.22377271707E+01  0.25842503062E+00  0.41572388002E+01  0.51100000000E-03 0. -1.
        -11    1    3    3    0    0 -0.86818437610E+01 -0.16129224356E+01  0.33047863123E+01  0.94285493426E+01  0.51100000000E-03 0.  1.
         12    1    3    3    0    0 -0.27346125721E+02 -0.24831607534E+02 -0.60596891853E+00  0.36943017243E+02  0.00000000000E+00 0. -1.
</event>
<event>
 7    1  0.2500839E-011  0.5052885E+02  0.7816164E-02  0.1300439E+00
        -11   -1    0    0    0    0  0.00000000000E+00  0.00000000000E+00  0.45593999997E+02  0.45594000000E+02  0.51100000000E-03 0.  1.
         11   -1    0    0    0    0 -0.00000000000E+00 -0.00000000000E+00 -0.45593999997E+02  0.45594000000E+02  0.51100000000E-03 0. -1.
    9900012    2    1    2    0    0 -0.51059822972E+01  0.19375099640E+02  0.35379388086E+02  0.50528847985E+02  0.29999963934E+02 0.  0.
         12    1    1    2    0    0  0.51059822972E+01 -0.19375099640E+02 -0.35379388086E+02  0.40659152015E+02  0.00000000000E+00 0. -1.
         11    1    3    3    0    0 -0.24553045980E+01  0.71744495835E+01  0.18251905264E+02  0.19764445186E+02  0.51100000000E-03 0.  1.
        -11    1    3    3    0    0 -0.45366702606E+01 -0.40420802146E+01 -0.12096923385E+01  0.61954132493E+01  0.51100000000E-03 0. -1.
         12    1    3    3    0    0  0.18859925614E+01  0.16242730271E+02  0.18337175160E+02  0.24568989549E+02  0.00000000000E+00 0. -1.
</event>
<event>
 7    1  0.2500839E-011  0.5052887E+02  0.7816164E-02  0.1300439E+00
        -11   -1    0    0    0    0  0.00000000000E+00  0.00000000000E+00  0.45593999997E+02  0.45594000000E+02  0.51100000000E-03 0. -1.
         11   -1    0    0    0    0 -0.00000000000E+00 -0.00000000000E+00 -0.45593999997E+02  0.45594000000E+02  0.51100000000E-03 0.  1.
    9900012    2    1    2    0    0  0.46720295131E+01 -0.33365401108E+02 -0.22761523326E+02  0.50528870706E+02  0.30000032997E+02 0.  0.
         12    1    1    2    0    0 -0.46720295131E+01  0.33365401108E+02  0.22761523326E+02  0.40659129294E+02  0.00000000000E+00 0. -1.
         11    1    3    3    0    0  0.11575647582E+02 -0.11022947821E+02 -0.12921698727E+01  0.16036542609E+02  0.51100000000E-03 0. -1.
        -11    1    3    3    0    0 -0.25652661713E+01  0.21255861264E+00  0.59606470163E+00  0.26421705250E+01  0.51100000000E-03 0.  1.
         12    1    3    3    0    0 -0.43383518981E+01 -0.22555011900E+02 -0.22065418155E+02  0.31850157571E+02  0.00000000000E+00 0. -1.
</event>
<event>
 7    1  0.2500839E-011  0.5052886E+02  0.7816164E-02  0.1300439E+00
        -11   -1    0    0    0    0  0.00000000000E+00  0.00000000000E+00  0.45593999997E+02  0.45594000000E+02  0.51100000000E-03 0.  1.
         11   -1    0    0    0    0 -0.00000000000E+00 -0.00000000000E+00 -0.45593999997E+02  0.45594000000E+02  0.51100000000E-03 0. -1.
    9900012    2    1    2    0    0  0.10080908137E+02 -0.35289177929E+02  0.17498993887E+02  0.50528861115E+02  0.30000003846E+02 0.  0.
         12    1    1    2    0    0 -0.10080908137E+02  0.35289177929E+02 -0.17498993887E+02  0.40659138885E+02  0.00000000000E+00 0. -1.
         11    1    3    3    0    0  0.11798503929E+02 -0.23401627146E+02  0.17283356140E+02  0.31393554239E+02  0.51100000000E-03 0. -1.
        -11    1    3    3    0    0  0.18785270623E+00 -0.96426382863E+01  0.68816560055E+01  0.11847909157E+02  0.51100000000E-03 0.  1.
         12    1    3    3    0    0 -0.19054484981E+01 -0.22449124965E+01 -0.66660182582E+01  0.72873977190E+01  0.00000000000E+00 0. -1.
</event>
<event>
 7    1  0.2500839E-011  0.5052886E+02  0.7816164E-02  0.1300439E+00
        -11   -1    0    0    0    0  0.00000000000E+00  0.00000000000E+00  0.45593999997E+02  0.45594000000E+02  0.51100000000E-03 0.  1.
         11   -1    0    0    0    0 -0.00000000000E+00 -0.00000000000E+00 -0.45593999997E+02  0.45594000000E+02  0.51100000000E-03 0. -1.
    9900012    2    1    2    0    0  0.24145219873E+02 -0.48675746179E+00  0.32709894958E+02  0.50528858301E+02  0.29999995291E+02 0.  0.
         12    1    1    2    0    0 -0.24145219873E+02  0.48675746179E+00 -0.32709894958E+02  0.40659141699E+02  0.00000000000E+00 0. -1.
         11    1    3    3    0    0 -0.48995889108E+01  0.10645532339E+01  0.94169863666E+01  0.10668593046E+02  0.51100000000E-03 0. -1.
        -11    1    3    3    0    0  0.55758894306E+01 -0.62856494399E+01  0.62561942849E+01  0.10475681315E+02  0.51100000000E-03 0.  1.
         12    1    3    3    0    0  0.23468919353E+02  0.47343387442E+01  0.17036714307E+02  0.29384583940E+02  0.00000000000E+00 0. -1.
</event>
<event>
 7    1  0.2500839E-011  0.5052886E+02  0.7816164E-02  0.1300439E+00
        -11   -1    0    0    0    0  0.00000000000E+00  0.00000000000E+00  0.45593999997E+02  0.45594000000E+02  0.51100000000E-03 0. -1.
         11   -1    0    0    0    0 -0.00000000000E+00 -0.00000000000E+00 -0.45593999997E+02  0.45594000000E+02  0.51100000000E-03 0.  1.
    9900012    2    1    2    0    0 -0.17018835045E+02  0.36443539458E+02 -0.59492643750E+01  0.50528855135E+02  0.29999985669E+02 0.  0.
         12    1    1    2    0    0  0.17018835045E+02 -0.36443539458E+02  0.59492643750E+01  0.40659144865E+02  0.00000000000E+00 0. -1.
         11    1    3    3    0    0  0.35321867354E+01 -0.70292169069E+00  0.10932632929E+00  0.36031090109E+01  0.51100000000E-03 0. -1.
        -11    1    3    3    0    0 -0.91257563099E+01  0.16357634469E+02 -0.12285456502E+02  0.22400537390E+02  0.51100000000E-03 0.  1.
        -12    1    3    3    0    0 -0.11425265471E+02  0.20788826680E+02  0.62268657974E+01  0.24525208734E+02  0.00000000000E+00 0.  1.
</event>
<event>
 7    1  0.2500839E-011  0.5052892E+02  0.7816164E-02  0.1300439E+00
        -11   -1    0    0    0    0  0.00000000000E+00  0.00000000000E+00  0.45593999997E+02  0.45594000000E+02  0.51100000000E-03 0.  1.
         11   -1    0    0    0    0 -0.00000000000E+00 -0.00000000000E+00 -0.45593999997E+02  0.45594000000E+02  0.51100000000E-03 0. -1.
    9900012    2    1    2    0    0  0.27568040889E+01  0.35134764923E+02  0.20275832035E+02  0.50528916886E+02  0.30000173366E+02 0.  0.
         12    1    1    2    0    0 -0.27568040889E+01 -0.35134764923E+02 -0.20275832035E+02  0.40659083114E+02  0.00000000000E+00 0. -1.
         11    1    3    3    0    0  0.27459570989E+01  0.27685913076E+02  0.14118975302E+02  0.31199287284E+02  0.51100000000E-03 0. -1.
        -11    1    3    3    0    0  0.40113163884E+01  0.90722932371E+01 -0.19829010371E+01  0.10115782744E+02  0.51100000000E-03 0.  1.
         12    1    3    3    0    0 -0.40004693984E+01 -0.16234413896E+01  0.81397577699E+01  0.92138468571E+01  0.00000000000E+00 0. -1.
</event>
<event>
 7    1  0.2500839E-011  0.5052886E+02  0.7816164E-02  0.1300439E+00
        -11   -1    0    0    0    0  0.00000000000E+00  0.00000000000E+00  0.45593999997E+02  0.45594000000E+02  0.51100000000E-03 0.  1.
         11   -1    0    0    0    0 -0.00000000000E+00 -0.00000000000E+00 -0.45593999997E+02  0.45594000000E+02  0.51100000000E-03 0. -1.
    9900012    2    1    2    0    0  0.20890381519E+02  0.24689658202E+02  0.24640993482E+02  0.50528858077E+02  0.29999994612E+02 0.  0.
         12    1    1    2    0    0 -0.20890381519E+02 -0.24689658202E+02 -0.24640993482E+02  0.40659141923E+02  0.00000000000E+00 0. -1.
         11    1    3    3    0    0 -0.34739071050E+00  0.30537745131E+01 -0.20703063432E+01  0.37057236403E+01  0.51100000000E-03 0. -1.
        -11    1    3    3    0    0  0.11971449933E+02  0.23514626786E+02  0.11216894006E+02  0.28671797952E+02  0.51100000000E-03 0.  1.
        -12    1    3    3    0    0  0.92663222963E+01 -0.18787430971E+01  0.15494405818E+02  0.18151336485E+02  0.00000000000E+00 0.  1.
</event>
<event>
 7    1  0.2500839E-011  0.5052886E+02  0.7816164E-02  0.1300439E+00
        -11   -1    0    0    0    0  0.00000000000E+00  0.00000000000E+00  0.45593999997E+02  0.45594000000E+02  0.51100000000E-03 0.  1.
         11   -1    0    0    0    0 -0.00000000000E+00 -0.00000000000E+00 -0.45593999997E+02  0.45594000000E+02  0.51100000000E-03 0. -1.
    9900012    2    1    2    0    0  0.10038176102E+02 -0.18993563828E+02  0.34520212495E+02  0.50528861826E+02  0.30000006007E+02 0.  0.
         12    1    1    2    0    0 -0.10038176102E+02  0.18993563828E+02 -0.34520212495E+02  0.40659138174E+02  0.00000000000E+00 0. -1.
         11    1    3    3    0    0  0.12371872117E+02 -0.48623123960E+00  0.14915307009E+02  0.19384685293E+02  0.51100000000E-03 0. -1.
        -11    1    3    3    0    0  0.29636657212E+01  0.65780909891E+00  0.69256935373E+01  0.75618290480E+01  0.51100000000E-03 0.  1.
         12    1    3    3    0    0 -0.52973617359E+01 -0.19165141688E+02  0.12679211948E+02  0.23582347485E+02  0.00000000000E+00 0. -1.
</event>
<event>
 7    1  0.3416067E-011  0.5052887E+02  0.7816164E-02  0.1300439E+00
        -11   -1    0    0    0    0  0.00000000000E+00  0.00000000000E+00  0.45593999997E+02  0.45594000000E+02  0.51100000000E-03 0. -1.
         11   -1    0    0    0    0 -0.00000000000E+00 -0.00000000000E+00 -0.45593999997E+02  0.45594000000E+02  0.51100000000E-03 0.  1.
    9900012    2    1    2    0    0  0.84166624563E+01 -0.88730086370E+01 -0.38776205118E+02  0.50528873441E+02  0.30000041311E+02 0.  0.
         12    1    1    2    0    0 -0.84166624563E+01  0.88730086370E+01  0.38776205118E+02  0.40659126559E+02  0.00000000000E+00 0. -1.
         11    1    3    3    0    0 -0.35951484874E+01  0.12946458795E+01 -0.88701498298E+01  0.96581964603E+01  0.51100000000E-03 0. -1.
        -11    1    3    3    0    0 -0.23196375161E+01 -0.29132606392E+01  0.26479740281E+01  0.45694170824E+01  0.51100000000E-03 0.  1.
        -12    1    3    3    0    0  0.14331448460E+02 -0.72543938772E+01 -0.32554029316E+02  0.36301259898E+02  0.00000000000E+00 0.  1.
</event>
<event>
 7    1  0.2500839E-011  0.5052889E+02  0.7816164E-02  0.1300439E+00
        -11   -1    0    0    0    0  0.00000000000E+00  0.00000000000E+00  0.45593999997E+02  0.45594000000E+02  0.51100000000E-03 0. -1.
         11   -1    0    0    0    0 -0.00000000000E+00 -0.00000000000E+00 -0.45593999997E+02  0.45594000000E+02  0.51100000000E-03 0.  1.
    9900012    2    1    2    0    0 -0.17273279884E+02  0.30492839439E+02 -0.20615143992E+02  0.50528885194E+02  0.30000077036E+02 0.  0.
         12    1    1    2    0    0  0.17273279884E+02 -0.30492839439E+02  0.20615143992E+02  0.40659114806E+02  0.00000000000E+00 0. -1.
         11    1    3    3    0    0  0.25950978890E+00  0.16768980537E+02 -0.91178587094E+01  0.19089300702E+02  0.51100000000E-03 0. -1.
        -11    1    3    3    0    0 -0.15118232137E+01  0.81159594985E+01  0.33295751084E+01  0.89017121204E+01  0.51100000000E-03 0.  1.
        -12    1    3    3    0    0 -0.16020966459E+02  0.56078994030E+01 -0.14826860391E+02  0.22537872372E+02  0.00000000000E+00 0.  1.
</event>
<event>
 7    1  0.2500839E-011  0.5052885E+02  0.7816164E-02  0.1300439E+00
        -11   -1    0    0    0    0  0.00000000000E+00  0.00000000000E+00  0.45593999997E+02  0.45594000000E+02  0.51100000000E-03 0.  1.
         11   -1    0    0    0    0 -0.00000000000E+00 -0.00000000000E+00 -0.45593999997E+02  0.45594000000E+02  0.51100000000E-03 0. -1.
    9900012    2    1    2    0    0  0.21442794345E+02 -0.32278545681E+02 -0.12307241135E+02  0.50528854350E+02  0.29999983283E+02 0.  0.
         12    1    1    2    0    0 -0.21442794345E+02  0.32278545681E+02  0.12307241135E+02  0.40659145650E+02  0.00000000000E+00 0. -1.
         11    1    3    3    0    0  0.11288663786E+02 -0.36019435038E+01  0.37727809976E+01  0.12435505771E+02  0.51100000000E-03 0.  1.
        -11    1    3    3    0    0  0.68578951295E+00 -0.69702359511E+01 -0.12240398480E+02  0.14102547702E+02  0.51100000000E-03 0. -1.
        -12    1    3    3    0    0  0.94683410466E+01 -0.21706366226E+02 -0.38396236518E+01  0.23990800877E+02  0.00000000000E+00 0.  1.
</event>
<event>
 7    1  0.2500839E-011  0.5052884E+02  0.7816164E-02  0.1300439E+00
        -11   -1    0    0    0    0  0.00000000000E+00  0.00000000000E+00  0.45593999997E+02  0.45594000000E+02  0.51100000000E-03 0. -1.
         11   -1    0    0    0    0 -0.00000000000E+00 -0.00000000000E+00 -0.45593999997E+02  0.45594000000E+02  0.51100000000E-03 0.  1.
    9900012    2    1    2    0    0  0.19381090371E+02  0.28411945039E+02  0.21686455753E+02  0.50528835621E+02  0.29999926354E+02 0.  0.
         12    1    1    2    0    0 -0.19381090371E+02 -0.28411945039E+02 -0.21686455753E+02  0.40659164379E+02  0.00000000000E+00 0. -1.
         11    1    3    3    0    0  0.26969428416E+00 -0.30334451953E+01 -0.27738851866E+01  0.41193402445E+01  0.51100000000E-03 0. -1.
        -11    1    3    3    0    0  0.11085051205E+02  0.68431154397E+01  0.11899113960E+02  0.17643568302E+02  0.51100000000E-03 0.  1.
        -12    1    3    3    0    0  0.80263448823E+01  0.24602274794E+02  0.12561226979E+02  0.28765927074E+02  0.00000000000E+00 0.  1.
</event>
<event>
 7    1  0.2970632E-011  0.5052887E+02  0.7816164E-02  0.1300439E+00
        -11   -1    0    0    0    0  0.00000000000E+00  0.00000000000E+00  0.45593999997E+02  0.45594000000E+02  0.51100000000E-03 0.  1.
         11   -1    0    0    0    0 -0.00000000000E+00 -0.00000000000E+00 -0.45593999997E+02  0.45594000000E+02  0.51100000000E-03 0. -1.
    9900012    2    1    2    0    0  0.30401393632E+02 -0.25842500403E+02  0.78157187429E+01  0.50528867922E+02  0.30000024535E+02 0.  0.
         12    1    1    2    0    0 -0.30401393632E+02  0.25842500403E+02 -0.78157187429E+01  0.40659132078E+02  0.00000000000E+00 0. -1.
         11    1    3    3    0    0  0.89065921225E+01  0.48402867868E+00 -0.73209829952E+01  0.11539430631E+02  0.51100000000E-03 0. -1.
        -11    1    3    3    0    0  0.59685363584E+01 -0.15520297442E+02  0.42465941199E+01  0.17162069247E+02  0.51100000000E-03 0.  1.
        -12    1    3    3    0    0  0.15526265151E+02 -0.10806231640E+02  0.10890107618E+02  0.21827368044E+02  0.00000000000E+00 0.  1.
</event>
<event>
 7    1  0.2500839E-011  0.5052886E+02  0.7816164E-02  0.1300439E+00
        -11   -1    0    0    0    0  0.00000000000E+00  0.00000000000E+00  0.45593999997E+02  0.45594000000E+02  0.51100000000E-03 0. -1.
         11   -1    0    0    0    0 -0.00000000000E+00 -0.00000000000E+00 -0.45593999997E+02  0.45594000000E+02  0.51100000000E-03 0.  1.
    9900012    2    1    2    0    0  0.20985882661E+01 -0.31014188047E+02 -0.26208431430E+02  0.50528858212E+02  0.29999995022E+02 0.  0.
         12    1    1    2    0    0 -0.20985882661E+01  0.31014188047E+02  0.26208431430E+02  0.40659141788E+02  0.00000000000E+00 0. -1.
         11    1    3    3    0    0 -0.36819471585E+01 -0.76652213844E+01 -0.97373421225E+01  0.12927806683E+02  0.51100000000E-03 0. -1.
        -11    1    3    3    0    0 -0.89867176411E+01 -0.64394899300E+01 -0.78203582155E+01  0.13542013417E+02  0.51100000000E-03 0.  1.
        -12    1    3    3    0    0  0.14767253066E+02 -0.16909476732E+02 -0.86507310917E+01  0.24059038112E+02  0.00000000000E+00 0.  1.
</event>
<event>
 7    1  0.2500839E-011  0.5052886E+02  0.7816164E-02  0.1300439E+00
        -11   -1    0    0    0    0  0.00000000000E+00  0.00000000000E+00  0.45593999997E+02  0.45594000000E+02  0.51100000000E-03 0.  1.
         11   -1    0    0    0    0 -0.00000000000E+00 -0.00000000000E+00 -0.45593999997E+02  0.45594000000E+02  0.51100000000E-03 0. -1.
    9900012    2    1    2    0    0 -0.45076166795E+01 -0.16053567391E+02  0.37082746509E+02  0.50528859296E+02  0.29999998316E+02 0.  0.
         12    1    1    2    0    0  0.45076166795E+01  0.16053567391E+02 -0.37082746509E+02  0.40659140704E+02  0.00000000000E+00 0. -1.
         11    1    3    3    0    0  0.12159465477E+01 -0.18339287212E+02  0.28552407997E+02  0.33956560252E+02  0.51100000000E-03 0. -1.
        -11    1    3    3    0    0 -0.10584276408E+01 -0.52270209393E+01  0.37506914409E+01  0.65199465885E+01  0.51100000000E-03 0.  1.
         12    1    3    3    0    0 -0.46651355864E+01  0.75127407599E+01  0.47796470709E+01  0.10052352455E+02  0.00000000000E+00 0. -1.
</event>
<event>
 7    1  0.2500839E-011  0.5052885E+02  0.7816164E-02  0.1300439E+00
        -11   -1    0    0    0    0  0.00000000000E+00  0.00000000000E+00  0.45593999997E+02  0.45594000000E+02  0.51100000000E-03 0. -1.
         11   -1    0    0    0    0 -0.00000000000E+00 -0.00000000000E+00 -0.45593999997E+02  0.45594000000E+02  0.51100000000E-03 0.  1.
    9900012    2    1    2    0    0  0.12912847028E+02 -0.15224302926E+02 -0.35420969366E+02  0.50528854795E+02  0.29999984635E+02 0.  0.
         12    1    1    2    0    0 -0.12912847028E+02  0.15224302926E+02  0.35420969366E+02  0.40659145205E+02  0.00000000000E+00 0. -1.
         11    1    3    3    0    0 -0.30643319953E+01  0.62115411292E+01 -0.31096992088E+01  0.75923384545E+01  0.51100000000E-03 0. -1.
        -11    1    3    3    0    0  0.24746365075E+01 -0.63342437585E+01 -0.14278924151E+02  0.15815629770E+02  0.51100000000E-03 0.  1.
        -12    1    3    3    0    0  0.13502542516E+02 -0.15101600296E+02 -0.18032346006E+02  0.27120886571E+02  0.00000000000E+00 0.  1.
</event>
<event>
 7    1  0.2500839E-011  0.5052886E+02  0.7816164E-02  0.1300439E+00
        -11   -1    0    0    0    0  0.00000000000E+00  0.00000000000E+00  0.45593999997E+02  0.45594000000E+02  0.51100000000E-03 0.  1.
         11   -1    0    0    0    0 -0.00000000000E+00 -0.00000000000E+00 -0.45593999997E+02  0.45594000000E+02  0.51100000000E-03 0. -1.
    9900012    2    1    2    0    0 -0.14235879093E+02 -0.99992595627E+01  0.36749424052E+02  0.50528860640E+02  0.30000002400E+02 0.  0.
         12    1    1    2    0    0  0.14235879093E+02  0.99992595627E+01 -0.36749424052E+02  0.40659139360E+02  0.00000000000E+00 0. -1.
         11    1    3    3    0    0 -0.12972803660E+02 -0.11752974990E+01  0.11368634692E+02  0.17289326593E+02  0.51100000000E-03 0. -1.
        -11    1    3    3    0    0 -0.19340589206E+01  0.60188072564E+01  0.10181097926E+02  0.11984213780E+02  0.51100000000E-03 0.  1.
        -12    1    3    3    0    0  0.67098348763E+00 -0.14842769320E+02  0.15199691434E+02  0.21255320267E+02  0.00000000000E+00 0.  1.
</event>
<event>
 7    1  0.2500839E-011  0.5052886E+02  0.7816164E-02  0.1300439E+00
        -11   -1    0    0    0    0  0.00000000000E+00  0.00000000000E+00  0.45593999997E+02  0.45594000000E+02  0.51100000000E-03 0. -1.
         11   -1    0    0    0    0 -0.00000000000E+00 -0.00000000000E+00 -0.45593999997E+02  0.45594000000E+02  0.51100000000E-03 0.  1.
    9900012    2    1    2    0    0 -0.34319406671E+02 -0.21299803975E+02  0.46542806863E+01  0.50528860162E+02  0.30000000950E+02 0.  0.
         12    1    1    2    0    0  0.34319406671E+02  0.21299803975E+02 -0.46542806863E+01  0.40659139838E+02  0.00000000000E+00 0. -1.
         11    1    3    3    0    0 -0.11947664961E+02 -0.15892120516E+02  0.19016729281E+01  0.19973045655E+02  0.51100000000E-03 0. -1.
        -11    1    3    3    0    0 -0.48230350431E+01 -0.69524202183E+01 -0.64881433344E+01  0.10662730331E+02  0.51100000000E-03 0.  1.
        -12    1    3    3    0    0 -0.17548706667E+02  0.15447367595E+01  0.92407510925E+01  0.19893084177E+02  0.00000000000E+00 0.  1.
</event>
<event>
 7    1  0.2500839E-011  0.5052886E+02  0.7816164E-02  0.1300439E+00
        -11   -1    0    0    0    0  0.00000000000E+00  0.00000000000E+00  0.45593999997E+02  0.45594000000E+02  0.51100000000E-03 0.  1.
         11   -1    0    0    0    0 -0.00000000000E+00 -0.00000000000E+00 -0.45593999997E+02  0.45594000000E+02  0.51100000000E-03 0. -1.
    9900012    2    1    2    0    0  0.23211055341E+02 -0.28549355821E+02  0.17301645472E+02  0.50528859037E+02  0.29999997529E+02 0.  0.
         12    1    1    2    0    0 -0.23211055341E+02  0.28549355821E+02 -0.17301645472E+02  0.40659140963E+02  0.00000000000E+00 0. -1.
         11    1    3    3    0    0 -0.17872408627E+01 -0.93844951135E+00 -0.19349165450E+01  0.27962152427E+01  0.51100000000E-03 0. -1.
        -11    1    3    3    0    0  0.19632663407E+02 -0.16872472301E+02  0.10078968821E+01  0.25906324525E+02  0.51100000000E-03 0.  1.
         12    1    3    3    0    0  0.53656327965E+01 -0.10738434008E+02  0.18228665134E+02  0.21826319269E+02  0.00000000000E+00 0. -1.
</event>
<event>
 7    1  0.2500839E-011  0.5052887E+02  0.7816164E-02  0.1300439E+00
        -11   -1    0    0    0    0  0.00000000000E+00  0.00000000000E+00  0.45593999997E+02  0.45594000000E+02  0.51100000000E-03 0.  1.
         11   -1    0    0    0    0 -0.00000000000E+00 -0.00000000000E+00 -0.45593999997E+02  0.45594000000E+02  0.51100000000E-03 0. -1.
    9900012    2    1    2    0    0 -0.49271668460E+01 -0.36049880679E+02  0.18146468112E+02  0.50528866032E+02  0.30000018791E+02 0.  0.
         12    1    1    2    0    0  0.49271668460E+01  0.36049880679E+02 -0.18146468112E+02  0.40659133968E+02  0.00000000000E+00 0. -1.
         11    1    3    3    0    0 -0.11364172903E+01  0.20452105888E+01  0.45895544293E+01  0.51515377055E+01  0.51100000000E-03 0. -1.
        -11    1    3    3    0    0 -0.91981396798E+01 -0.69789616159E+01  0.18417172670E+01  0.11692031541E+02  0.51100000000E-03 0.  1.
         12    1    3    3    0    0  0.54073901241E+01 -0.31116129652E+02  0.11715196415E+02  0.33685296785E+02  0.00000000000E+00 0. -1.
</event>
<event>
 7    1  0.2500839E-011  0.5052887E+02  0.7816164E-02  0.1300439E+00
        -11   -1    0    0    0    0  0.00000000000E+00  0.00000000000E+00  0.45593999997E+02  0.45594000000E+02  0.51100000000E-03 0. -1.
         11   -1    0    0    0    0 -0.00000000000E+00 -0.00000000000E+00 -0.45593999997E+02  0.45594000000E+02  0.51100000000E-03 0.  1.
    9900012    2    1    2    0    0  0.10750285554E+02  0.52803248136E+01 -0.38855040609E+02  0.50528872484E+02  0.30000038402E+02 0.  0.
         12    1    1    2    0    0 -0.10750285554E+02 -0.52803248136E+01  0.38855040609E+02  0.40659127516E+02  0.00000000000E+00 0. -1.
         11    1    3    3    0    0 -0.41075998741E+01 -0.53142176075E+01 -0.15720024572E+02  0.17094807934E+02  0.51100000000E-03 0. -1.
        -11    1    3    3    0    0 -0.74551264603E+00  0.60207847363E+01 -0.12807145205E+02  0.14171401008E+02  0.51100000000E-03 0.  1.
         12    1    3    3    0    0  0.15603398074E+02  0.45737576848E+01 -0.10327870832E+02  0.19262663542E+02  0.00000000000E+00 0. -1.
</event>
<event>
 7    1  0.2500839E-011  0.5052886E+02  0.7816164E-02  0.1300439E+00
        -11   -1    0    0    0    0  0.00000000000E+00  0.00000000000E+00  0.45593999997E+02  0.45594000000E+02  0.51100000000E-03 0.  1.
         11   -1    0    0    0    0 -0.00000000000E+00 -0.00000000000E+00 -0.45593999997E+02  0.45594000000E+02  0.51100000000E-03 0. -1.
    9900012    2    1    2    0    0  0.17335774378E+02  0.20757763698E+02  0.30360365927E+02  0.50528860237E+02  0.30000001177E+02 0.  0.
         12    1    1    2    0    0 -0.17335774378E+02 -0.20757763698E+02 -0.30360365927E+02  0.40659139763E+02  0.00000000000E+00 0. -1.
         11    1    3    3    0    0  0.65551859882E+01  0.11405913016E+02  0.13835576885E+02  0.19091581995E+02  0.51100000000E-03 0. -1.
        -11    1    3    3    0    0  0.13623781742E+02  0.31088163874E+01  0.19475075249E+02  0.23969787744E+02  0.51100000000E-03 0.  1.
         12    1    3    3    0    0 -0.28431933522E+01  0.62430342943E+01 -0.29502862065E+01  0.74674904980E+01  0.00000000000E+00 0. -1.
</event>
<event>
 7    1  0.2500839E-011  0.5052886E+02  0.7816164E-02  0.1300439E+00
        -11   -1    0    0    0    0  0.00000000000E+00  0.00000000000E+00  0.45593999997E+02  0.45594000000E+02  0.51100000000E-03 0.  1.
         11   -1    0    0    0    0 -0.00000000000E+00 -0.00000000000E+00 -0.45593999997E+02  0.45594000000E+02  0.51100000000E-03 0. -1.
    9900012    2    1    2    0    0  0.36640695618E+02 -0.13212586930E+01  0.17574962048E+02  0.50528860918E+02  0.30000003247E+02 0.  0.
         12    1    1    2    0    0 -0.36640695618E+02  0.13212586930E+01 -0.17574962048E+02  0.40659139082E+02  0.00000000000E+00 0. -1.
         11    1    3    3    0    0  0.85368139002E+01 -0.59631108839E+01 -0.27827453605E+01  0.10778662022E+02  0.51100000000E-03 0. -1.
        -11    1    3    3    0    0  0.32327480651E+01  0.76445205604E+01  0.15965721869E+01  0.84521238550E+01  0.51100000000E-03 0.  1.
         12    1    3    3    0    0  0.24871133652E+02 -0.30026683696E+01  0.18761135221E+02  0.31298075041E+02  0.00000000000E+00 0. -1.
</event>
<event>
 7    1  0.2500839E-011  0.5052886E+02  0.7816164E-02  0.1300439E+00
        -11   -1    0    0    0    0  0.00000000000E+00  0.00000000000E+00  0.45593999997E+02  0.45594000000E+02  0.51100000000E-03 0. -1.
         11   -1    0    0    0    0 -0.00000000000E+00 -0.00000000000E+00 -0.45593999997E+02  0.45594000000E+02  0.51100000000E-03 0.  1.
    9900012    2    1    2    0    0  0.10331013383E+02 -0.27781478042E+02 -0.27832089555E+02  0.50528861191E+02  0.30000004075E+02 0.  0.
         12    1    1    2    0    0 -0.10331013383E+02  0.27781478042E+02  0.27832089555E+02  0.40659138809E+02  0.00000000000E+00 0. -1.
         11    1    3    3    0    0 -0.19164933894E+01 -0.76788960702E+01 -0.46581392184E+00  0.79281381572E+01  0.51100000000E-03 0. -1.
        -11    1    3    3    0    0  0.13350128333E+02 -0.24573793621E+02 -0.24472697718E+02  0.37161945499E+02  0.51100000000E-03 0.  1.
         12    1    3    3    0    0 -0.11026215606E+01  0.44712116490E+01 -0.28935779149E+01  0.54387775341E+01  0.00000000000E+00 0. -1.
</event>
<event>
 7    1  0.2500839E-011  0.5052886E+02  0.7816164E-02  0.1300439E+00
        -11   -1    0    0    0    0  0.00000000000E+00  0.00000000000E+00  0.45593999997E+02  0.45594000000E+02  0.51100000000E-03 0. -1.
         11   -1    0    0    0    0 -0.00000000000E+00 -0.00000000000E+00 -0.45593999997E+02  0.45594000000E+02  0.51100000000E-03 0.  1.
    9900012    2    1    2    0    0  0.10779294649E+02  0.30006980793E+02 -0.25230020810E+02  0.50528855401E+02  0.29999986476E+02 0.  0.
         12    1    1    2    0    0 -0.10779294649E+02 -0.30006980793E+02  0.25230020810E+02  0.40659144599E+02  0.00000000000E+00 0. -1.
         11    1    3    3    0    0  0.10819207427E+01  0.64676231198E+01 -0.37906962626E+01  0.75743039106E+01  0.51100000000E-03 0. -1.
        -11    1    3    3    0    0  0.16640673894E+02  0.51461156877E+01 -0.81973640264E+01  0.19250748337E+02  0.51100000000E-03 0.  1.
         12    1    3    3    0    0 -0.69432999872E+01  0.18393241986E+02 -0.13241960521E+02  0.23703803153E+02  0.00000000000E+00 0. -1.
</event>
<event>
 7    1  0.2500839E-011  0.5052887E+02  0.7816164E-02  0.1300439E+00
        -11   -1    0    0    0    0  0.00000000000E+00  0.00000000000E+00  0.45593999997E+02  0.45594000000E+02  0.51100000000E-03 0. -1.
         11   -1    0    0    0    0 -0.00000000000E+00 -0.00000000000E+00 -0.45593999997E+02  0.45594000000E+02  0.51100000000E-03 0.  1.
    9900012    2    1    2    0    0  0.37007386414E+01  0.38605375243E+02 -0.12210437711E+02  0.50528865070E+02  0.30000015867E+02 0.  0.
         12    1    1    2    0    0 -0.37007386414E+01 -0.38605375243E+02  0.12210437711E+02  0.40659134930E+02  0.00000000000E+00 0. -1.
         11    1    3    3    0    0  0.30569048866E+01  0.24694603510E+02 -0.14248476604E+02  0.28673806789E+02  0.51100000000E-03 0. -1.
        -11    1    3    3    0    0 -0.61842916332E+01  0.13072250425E+02  0.33678569820E+01  0.14848287951E+02  0.51100000000E-03 0.  1.
         12    1    3    3    0    0  0.68281253880E+01  0.83852130810E+00 -0.13298180895E+01  0.70067703294E+01  0.00000000000E+00 0. -1.
</event>
<event>
 7    1  0.2500839E-011  0.5052890E+02  0.7816164E-02  0.1300439E+00
        -11   -1    0    0    0    0  0.00000000000E+00  0.00000000000E+00  0.45593999997E+02  0.45594000000E+02  0.51100000000E-03 0.  1.
         11   -1    0    0    0    0 -0.00000000000E+00 -0.00000000000E+00 -0.45593999997E+02  0.45594000000E+02  0.51100000000E-03 0. -1.
    9900012    2    1    2    0    0  0.23657364562E+02  0.32300080209E+02  0.70849623398E+01  0.50528895596E+02  0.30000108655E+02 0.  0.
         12    1    1    2    0    0 -0.23657364562E+02 -0.32300080209E+02 -0.70849623398E+01  0.40659104404E+02  0.00000000000E+00 0. -1.
         11    1    3    3    0    0 -0.92273559031E+00  0.11342376236E+02 -0.41899415143E+01  0.12126687503E+02  0.51100000000E-03 0. -1.
        -11    1    3    3    0    0  0.20796248800E+02  0.24070528306E+02  0.97952606130E+01  0.33283951506E+02  0.51100000000E-03 0.  1.
         12    1    3    3    0    0  0.37838513518E+01 -0.31128243324E+01  0.14796432411E+01  0.51182565878E+01  0.00000000000E+00 0. -1.
</event>
<event>
 7    1  0.2719383E-011  0.5052884E+02  0.7816164E-02  0.1300439E+00
        -11   -1    0    0    0    0  0.00000000000E+00  0.00000000000E+00  0.45593999997E+02  0.45594000000E+02  0.51100000000E-03 0. -1.
         11   -1    0    0    0    0 -0.00000000000E+00 -0.00000000000E+00 -0.45593999997E+02  0.45594000000E+02  0.51100000000E-03 0.  1.
    9900012    2    1    2    0    0 -0.22967216097E+02 -0.19628446744E+02 -0.27210256068E+02  0.50528843933E+02  0.29999951618E+02 0.  0.
         12    1    1    2    0    0  0.22967216097E+02  0.19628446744E+02  0.27210256068E+02  0.40659156067E+02  0.00000000000E+00 0. -1.
         11    1    3    3    0    0 -0.20955801404E+02 -0.44767536097E+01 -0.76651848296E+01  0.22758339001E+02  0.51100000000E-03 0.  1.
        -11    1    3    3    0    0  0.28217231705E+01  0.81088910997E+00 -0.40727146354E+01  0.50206242204E+01  0.51100000000E-03 0. -1.
        -12    1    3    3    0    0 -0.48331378637E+01 -0.15962582244E+02 -0.15472356603E+02  0.22749880711E+02  0.00000000000E+00 0.  1.
</event>
<event>
 7    1  0.2500839E-011  0.5052886E+02  0.7816164E-02  0.1300439E+00
        -11   -1    0    0    0    0  0.00000000000E+00  0.00000000000E+00  0.45593999997E+02  0.45594000000E+02  0.51100000000E-03 0.  1.
         11   -1    0    0    0    0 -0.00000000000E+00 -0.00000000000E+00 -0.45593999997E+02  0.45594000000E+02  0.51100000000E-03 0. -1.
    9900012    2    1    2    0    0  0.10058488187E+02  0.10366618846E+02  0.38006917648E+02  0.50528858838E+02  0.29999996924E+02 0.  0.
         12    1    1    2    0    0 -0.10058488187E+02 -0.10366618846E+02 -0.38006917648E+02  0.40659141162E+02  0.00000000000E+00 0. -1.
         11    1    3    3    0    0  0.95361232054E+01  0.21639500745E+01  0.59773713314E+01  0.11460771964E+02  0.51100000000E-03 0. -1.
        -11    1    3    3    0    0  0.78945315989E+01  0.11775903233E+02  0.20190529435E+02  0.24670893888E+02  0.51100000000E-03 0.  1.
        -12    1    3    3    0    0 -0.73721666171E+01 -0.35732344611E+01  0.11839016882E+02  0.14397192986E+02  0.00000000000E+00 0.  1.
</event>
<event>
 7    1  0.2500839E-011  0.5052884E+02  0.7816164E-02  0.1300439E+00
        -11   -1    0    0    0    0  0.00000000000E+00  0.00000000000E+00  0.45593999997E+02  0.45594000000E+02  0.51100000000E-03 0.  1.
         11   -1    0    0    0    0 -0.00000000000E+00 -0.00000000000E+00 -0.45593999997E+02  0.45594000000E+02  0.51100000000E-03 0. -1.
    9900012    2    1    2    0    0 -0.77327254355E+01 -0.37501669130E+02 -0.13674688962E+02  0.50528839305E+02  0.29999937552E+02 0.  0.
         12    1    1    2    0    0  0.77327254355E+01  0.37501669130E+02  0.13674688962E+02  0.40659160695E+02  0.00000000000E+00 0. -1.
         11    1    3    3    0    0 -0.14195089175E+01  0.30628358302E+01 -0.81733542622E+01  0.88430588059E+01  0.51100000000E-03 0. -1.
        -11    1    3    3    0    0 -0.23995612008E+01 -0.56687920243E+01 -0.87222802289E-01  0.61563548509E+01  0.51100000000E-03 0.  1.
         12    1    3    3    0    0 -0.39136553171E+01 -0.34895712936E+02 -0.54141118978E+01  0.35529425648E+02  0.00000000000E+00 0. -1.
</event>
<event>
 7    1  0.2500839E-011  0.5052886E+02  0.7816164E-02  0.1300439E+00
        -11   -1    0    0    0    0  0.00000000000E+00  0.00000000000E+00  0.45593999997E+02  0.45594000000E+02  0.51100000000E-03 0.  1.
         11   -1    0    0    0    0 -0.00000000000E+00 -0.00000000000E+00 -0.45593999997E+02  0.45594000000E+02  0.51100000000E-03 0. -1.
    9900012    2    1    2    0    0  0.11528845754E+02  0.21097906463E+02  0.32789168209E+02  0.50528862117E+02  0.30000006891E+02 0.  0.
         12    1    1    2    0    0 -0.11528845754E+02 -0.21097906463E+02 -0.32789168209E+02  0.40659137883E+02  0.00000000000E+00 0. -1.
         11    1    3    3    0    0  0.27883205378E+00 -0.87689245690E+00  0.87023240868E+01  0.87508361010E+01  0.51100000000E-03 0. -1.
        -11    1    3    3    0    0  0.82308777624E+01  0.15569308682E+02  0.28450503206E+02  0.33460153235E+02  0.51100000000E-03 0.  1.
         12    1    3    3    0    0  0.30191359375E+01  0.64054902383E+01 -0.43636590840E+01  0.83178727811E+01  0.00000000000E+00 0. -1.
</event>
<event>
 7    1  0.2500839E-011  0.5052887E+02  0.7816164E-02  0.1300439E+00
        -11   -1    0    0    0    0  0.00000000000E+00  0.00000000000E+00  0.45593999997E+02  0.45594000000E+02  0.51100000000E-03 0.  1.
         11   -1    0    0    0    0 -0.00000000000E+00 -0.00000000000E+00 -0.45593999997E+02  0.45594000000E+02  0.51100000000E-03 0. -1.
    9900012    2    1    2    0    0  0.19541264986E+01 -0.39480908929E+02 -0.95186144689E+01  0.50528870624E+02  0.30000032749E+02 0.  0.
         12    1    1    2    0    0 -0.19541264986E+01  0.39480908929E+02  0.95186144689E+01  0.40659129376E+02  0.00000000000E+00 0. -1.
         11    1    3    3    0    0 -0.46948691171E+01 -0.41550825348E+02 -0.65507372719E+01  0.42325229382E+02  0.51100000000E-03 0.  1.
        -11    1    3    3    0    0  0.20047250321E+01  0.16329683828E+01  0.15461345110E+00  0.25902536119E+01  0.51100000000E-03 0. -1.
        -12    1    3    3    0    0  0.46442705835E+01  0.43694803707E+00 -0.31224906480E+01  0.56133876302E+01  0.00000000000E+00 0.  1.
</event>
<event>
 7    1  0.2500839E-011  0.5052882E+02  0.7816164E-02  0.1300439E+00
        -11   -1    0    0    0    0  0.00000000000E+00  0.00000000000E+00  0.45593999997E+02  0.45594000000E+02  0.51100000000E-03 0.  1.
         11   -1    0    0    0    0 -0.00000000000E+00 -0.00000000000E+00 -0.45593999997E+02  0.45594000000E+02  0.51100000000E-03 0. -1.
    9900012    2    1    2    0    0 -0.28055539178E+02  0.54421395755E+00  0.29423788920E+02  0.50528821432E+02  0.29999883225E+02 0.  0.
         12    1    1    2    0    0  0.28055539178E+02 -0.54421395755E+00 -0.29423788920E+02  0.40659178568E+02  0.00000000000E+00 0. -1.
         11    1    3    3    0    0  0.98951296168E+00  0.72028306914E+00  0.35716789582E+01  0.37755575009E+01  0.51100000000E-03 0. -1.
        -11    1    3    3    0    0 -0.13509287581E+02  0.92764647058E+01  0.16359465113E+01  0.16469060982E+02  0.51100000000E-03 0.  1.
        -12    1    3    3    0    0 -0.15535764559E+02 -0.94525338174E+01  0.24216163450E+02  0.30284202949E+02  0.00000000000E+00 0.  1.
</event>
<event>
 7    1  0.2500839E-011  0.5052885E+02  0.7816164E-02  0.1300439E+00
        -11   -1    0    0    0    0  0.00000000000E+00  0.00000000000E+00  0.45593999997E+02  0.45594000000E+02  0.51100000000E-03 0. -1.
         11   -1    0    0    0    0 -0.00000000000E+00 -0.00000000000E+00 -0.45593999997E+02  0.45594000000E+02  0.51100000000E-03 0.  1.
    9900012    2    1    2    0    0 -0.28161721060E+02 -0.28421977767E+02 -0.72301310219E+01  0.50528854069E+02  0.29999982428E+02 0.  0.
         12    1    1    2    0    0  0.28161721060E+02  0.28421977767E+02  0.72301310219E+01  0.40659145931E+02  0.00000000000E+00 0. -1.
         11    1    3    3    0    0  0.32448685056E+00 -0.81299640761E+01  0.37372238431E+01  0.89536835944E+01  0.51100000000E-03 0. -1.
        -11    1    3    3    0    0 -0.12170010917E+02 -0.20104570979E+02 -0.88891770035E+01  0.25126090186E+02  0.51100000000E-03 0.  1.
         12    1    3    3    0    0 -0.16316196994E+02 -0.18744271159E+00 -0.20781778615E+01  0.16449080289E+02  0.00000000000E+00 0. -1.
</event>
<event>
 7    1  0.2500839E-011  0.5052886E+02  0.7816164E-02  0.1300439E+00
        -11   -1    0    0    0    0  0.00000000000E+00  0.00000000000E+00  0.45593999997E+02  0.45594000000E+02  0.51100000000E-03 0.  1.
         11   -1    0    0    0    0 -0.00000000000E+00 -0.00000000000E+00 -0.45593999997E+02  0.45594000000E+02  0.51100000000E-03 0. -1.
    9900012    2    1    2    0    0  0.42357811135E+01 -0.35190851968E+02  0.19920532425E+02  0.50528861839E+02  0.30000006047E+02 0.  0.
         12    1    1    2    0    0 -0.42357811135E+01  0.35190851968E+02 -0.19920532425E+02  0.40659138161E+02  0.00000000000E+00 0. -1.
         11    1    3    3    0    0  0.40270459969E+01 -0.70353556715E+01  0.87081564799E+01  0.11897281976E+02  0.51100000000E-03 0. -1.
        -11    1    3    3    0    0 -0.64027263906E+00 -0.26506507573E+02 -0.75140654208E+00  0.26524884633E+02  0.51100000000E-03 0.  1.
         12    1    3    3    0    0  0.84900775571E+00 -0.16489887234E+01  0.11963782487E+02  0.12106695230E+02  0.00000000000E+00 0. -1.
</event>
<event>
 7    1  0.2500839E-011  0.5052887E+02  0.7816164E-02  0.1300439E+00
        -11   -1    0    0    0    0  0.00000000000E+00  0.00000000000E+00  0.45593999997E+02  0.45594000000E+02  0.51100000000E-03 0. -1.
         11   -1    0    0    0    0 -0.00000000000E+00 -0.00000000000E+00 -0.45593999997E+02  0.45594000000E+02  0.51100000000E-03 0.  1.
    9900012    2    1    2    0    0  0.16719220518E+02  0.31262974028E+02 -0.19906260653E+02  0.50528867041E+02  0.30000021856E+02 0.  0.
         12    1    1    2    0    0 -0.16719220518E+02 -0.31262974028E+02  0.19906260653E+02  0.40659132959E+02  0.00000000000E+00 0. -1.
         11    1    3    3    0    0  0.23454693162E+01  0.14955193710E+01 -0.12125154771E+02  0.12440144010E+02  0.51100000000E-03 0. -1.
        -11    1    3    3    0    0  0.17011345917E+02  0.16605235858E+02 -0.37021335647E+01  0.24058793424E+02  0.51100000000E-03 0.  1.
        -12    1    3    3    0    0 -0.26375947155E+01  0.13162218799E+02 -0.40789723168E+01  0.14029929606E+02  0.00000000000E+00 0.  1.
</event>
<event>
 7    1  0.2500839E-011  0.5052886E+02  0.7816164E-02  0.1300439E+00
        -11   -1    0    0    0    0  0.00000000000E+00  0.00000000000E+00  0.45593999997E+02  0.45594000000E+02  0.51100000000E-03 0.  1.
         11   -1    0    0    0    0 -0.00000000000E+00 -0.00000000000E+00 -0.45593999997E+02  0.45594000000E+02  0.51100000000E-03 0. -1.
    9900012    2    1    2    0    0 -0.40565658259E+02 -0.17793444530E+01 -0.21040256214E+01  0.50528860554E+02  0.30000002140E+02 0.  0.
         12    1    1    2    0    0  0.40565658259E+02  0.17793444530E+01  0.21040256214E+01  0.40659139446E+02  0.00000000000E+00 0. -1.
         11    1    3    3    0    0 -0.24736997836E+02 -0.10253406828E+02 -0.74718657251E+01  0.27800722854E+02  0.51100000000E-03 0. -1.
        -11    1    3    3    0    0 -0.18021903467E+02  0.68796824290E+01  0.53423779888E+01  0.20016494142E+02  0.51100000000E-03 0.  1.
        -12    1    3    3    0    0  0.21932430443E+01  0.15943799462E+01  0.25462114853E-01  0.27116435576E+01  0.00000000000E+00 0.  1.
</event>
<event>
 7    1  0.2500839E-011  0.5052886E+02  0.7816164E-02  0.1300439E+00
        -11   -1    0    0    0    0  0.00000000000E+00  0.00000000000E+00  0.45593999997E+02  0.45594000000E+02  0.51100000000E-03 0.  1.
         11   -1    0    0    0    0 -0.00000000000E+00 -0.00000000000E+00 -0.45593999997E+02  0.45594000000E+02  0.51100000000E-03 0. -1.
    9900012    2    1    2    0    0  0.29311267300E+02 -0.23977488563E+02  0.14801878666E+02  0.50528856372E+02  0.29999989427E+02 0.  0.
         12    1    1    2    0    0 -0.29311267300E+02  0.23977488563E+02 -0.14801878666E+02  0.40659143628E+02  0.00000000000E+00 0. -1.
         11    1    3    3    0    0  0.14060638513E+02  0.17441532932E+01  0.68940484296E+00  0.14185164976E+02  0.51100000000E-03 0. -1.
        -11    1    3    3    0    0  0.80131017481E+01 -0.11118204200E+02  0.14617475252E+02  0.20037336332E+02  0.51100000000E-03 0.  1.
        -12    1    3    3    0    0  0.72375270397E+01 -0.14603437656E+02 -0.50500142933E+00  0.16306355064E+02  0.00000000000E+00 0.  1.
</event>
<event>
 7    1  0.2500839E-011  0.5052884E+02  0.7816164E-02  0.1300439E+00
        -11   -1    0    0    0    0  0.00000000000E+00  0.00000000000E+00  0.45593999997E+02  0.45594000000E+02  0.51100000000E-03 0.  1.
         11   -1    0    0    0    0 -0.00000000000E+00 -0.00000000000E+00 -0.45593999997E+02  0.45594000000E+02  0.51100000000E-03 0. -1.
    9900012    2    1    2    0    0  0.14630488790E+02 -0.29902053112E+02  0.23344881370E+02  0.50528837826E+02  0.29999933055E+02 0.  0.
         12    1    1    2    0    0 -0.14630488790E+02  0.29902053112E+02 -0.23344881370E+02  0.40659162174E+02  0.00000000000E+00 0. -1.
         11    1    3    3    0    0  0.13955628607E+02 -0.30481451552E+02  0.84254815020E+01  0.34566851134E+02  0.51100000000E-03 0. -1.
        -11    1    3    3    0    0 -0.69279808229E+00  0.89002430606E+00  0.16359702438E+00  0.11396827171E+01  0.51100000000E-03 0.  1.
        -12    1    3    3    0    0  0.13676582654E+01 -0.31062586596E+00  0.14755802844E+02  0.14822303975E+02  0.00000000000E+00 0.  1.
</event>
<event>
 7    1  0.2500839E-011  0.5052887E+02  0.7816164E-02  0.1300439E+00
        -11   -1    0    0    0    0  0.00000000000E+00  0.00000000000E+00  0.45593999997E+02  0.45594000000E+02  0.51100000000E-03 0. -1.
         11   -1    0    0    0    0 -0.00000000000E+00 -0.00000000000E+00 -0.45593999997E+02  0.45594000000E+02  0.51100000000E-03 0.  1.
    9900012    2    1    2    0    0 -0.33616238255E+02 -0.17015820683E+02 -0.15283170624E+02  0.50528869017E+02  0.30000027865E+02 0.  0.
         12    1    1    2    0    0  0.33616238255E+02  0.17015820683E+02  0.15283170624E+02  0.40659130983E+02  0.00000000000E+00 0. -1.
         11    1    3    3    0    0 -0.22789946020E+02 -0.21849251902E+02 -0.40324997579E+01  0.31828171528E+02  0.51100000000E-03 0. -1.
        -11    1    3    3    0    0 -0.95328540155E+01  0.51409478951E+01 -0.43475646561E+01  0.11670731324E+02  0.51100000000E-03 0.  1.
        -12    1    3    3    0    0 -0.12934382192E+01 -0.30751667597E+00 -0.69031062099E+01  0.70299661648E+01  0.00000000000E+00 0.  1.
</event>
<event>
 7    1  0.2500839E-011  0.5052886E+02  0.7816164E-02  0.1300439E+00
        -11   -1    0    0    0    0  0.00000000000E+00  0.00000000000E+00  0.45593999997E+02  0.45594000000E+02  0.51100000000E-03 0.  1.
         11   -1    0    0    0    0 -0.00000000000E+00 -0.00000000000E+00 -0.45593999997E+02  0.45594000000E+02  0.51100000000E-03 0. -1.
    9900012    2    1    2    0    0 -0.34544023214E+02  0.13875740200E+02  0.16350538205E+02  0.50528858279E+02  0.29999995225E+02 0.  0.
         12    1    1    2    0    0  0.34544023214E+02 -0.13875740200E+02 -0.16350538205E+02  0.40659141721E+02  0.00000000000E+00 0. -1.
         11    1    3    3    0    0 -0.51659616951E+01 -0.25284045486E+01  0.35328174162E+01  0.67498732547E+01  0.51100000000E-03 0.  1.
        -11    1    3    3    0    0 -0.32384582090E+02  0.18131960060E+02  0.14595977770E+02  0.39881972119E+02  0.51100000000E-03 0. -1.
         12    1    3    3    0    0  0.30065205718E+01 -0.17278153108E+01 -0.17782569809E+01  0.38970129056E+01  0.00000000000E+00 0. -1.
</event>
<event>
 7    1  0.2500839E-011  0.5052887E+02  0.7816164E-02  0.1300439E+00
        -11   -1    0    0    0    0  0.00000000000E+00  0.00000000000E+00  0.45593999997E+02  0.45594000000E+02  0.51100000000E-03 0.  1.
         11   -1    0    0    0    0 -0.00000000000E+00 -0.00000000000E+00 -0.45593999997E+02  0.45594000000E+02  0.51100000000E-03 0. -1.
    9900012    2    1    2    0    0 -0.24455358766E+02  0.10978775875E+02  0.30570688089E+02  0.50528867418E+02  0.30000023004E+02 0.  0.
         12    1    1    2    0    0  0.24455358766E+02 -0.10978775875E+02 -0.30570688089E+02  0.40659132582E+02  0.00000000000E+00 0. -1.
         11    1    3    3    0    0 -0.62159432097E+01 -0.44675320219E+01  0.36541319774E+01  0.84823035269E+01  0.51100000000E-03 0. -1.
        -11    1    3    3    0    0 -0.22559524811E+02  0.91043497914E+01  0.17879080451E+02  0.30190774466E+02  0.51100000000E-03 0.  1.
         12    1    3    3    0    0  0.43201092547E+01  0.63419581052E+01  0.90374756608E+01  0.11855789425E+02  0.00000000000E+00 0. -1.
</event>
<event>
 7    1  0.2500839E-011  0.5052887E+02  0.7816164E-02  0.1300439E+00
        -11   -1    0    0    0    0  0.00000000000E+00  0.00000000000E+00  0.45593999997E+02  0.45594000000E+02  0.51100000000E-03 0. -1.
         11   -1    0    0    0    0 -0.00000000000E+00 -0.00000000000E+00 -0.45593999997E+02  0.45594000000E+02  0.51100000000E-03 0.  1.
    9900012    2    1    2    0    0 -0.32884276304E+02 -0.10864397393E+02 -0.21301503770E+02  0.50528870378E+02  0.30000032000E+02 0.  0.
         12    1    1    2    0    0  0.32884276304E+02  0.10864397393E+02  0.21301503770E+02  0.40659129622E+02  0.00000000000E+00 0. -1.
         11    1    3    3    0    0 -0.10981123961E+02 -0.58915996981E+01  0.40823993090E+00  0.12468467851E+02  0.51100000000E-03 0. -1.
        -11    1    3    3    0    0 -0.21880250658E+02 -0.10464194353E+02 -0.21736788221E+02  0.32568891519E+02  0.51100000000E-03 0.  1.
        -12    1    3    3    0    0 -0.22901685037E-01  0.54913966581E+01  0.27044520134E-01  0.54915110079E+01  0.00000000000E+00 0.  1.
</event>
<event>
 7    1  0.2500839E-011  0.5052885E+02  0.7816164E-02  0.1300439E+00
        -11   -1    0    0    0    0  0.00000000000E+00  0.00000000000E+00  0.45593999997E+02  0.45594000000E+02  0.51100000000E-03 0.  1.
         11   -1    0    0    0    0 -0.00000000000E+00 -0.00000000000E+00 -0.45593999997E+02  0.45594000000E+02  0.51100000000E-03 0. -1.
    9900012    2    1    2    0    0  0.26788543785E+02 -0.47444186165E+01  0.30216402327E+02  0.50528849053E+02  0.29999967182E+02 0.  0.
         12    1    1    2    0    0 -0.26788543785E+02  0.47444186165E+01 -0.30216402327E+02  0.40659150947E+02  0.00000000000E+00 0. -1.
         11    1    3    3    0    0  0.11522174831E+02  0.98962939418E+01  0.83119827891E+01  0.17314335239E+02  0.51100000000E-03 0. -1.
        -11    1    3    3    0    0  0.41593495958E+01  0.19537755640E+01  0.19731658929E+01  0.50010810748E+01  0.51100000000E-03 0.  1.
        -12    1    3    3    0    0  0.11107019358E+02 -0.16594488122E+02  0.19931253645E+02  0.28213432739E+02  0.00000000000E+00 0.  1.
</event>
<event>
 7    1  0.2500839E-011  0.5052886E+02  0.7816164E-02  0.1300439E+00
        -11   -1    0    0    0    0  0.00000000000E+00  0.00000000000E+00  0.45593999997E+02  0.45594000000E+02  0.51100000000E-03 0.  1.
         11   -1    0    0    0    0 -0.00000000000E+00 -0.00000000000E+00 -0.45593999997E+02  0.45594000000E+02  0.51100000000E-03 0. -1.
    9900012    2    1    2    0    0 -0.36529723438E+02  0.11584449271E+02  0.13584763967E+02  0.50528856239E+02  0.29999989023E+02 0.  0.
         12    1    1    2    0    0  0.36529723438E+02 -0.11584449271E+02 -0.13584763967E+02  0.40659143761E+02  0.00000000000E+00 0. -1.
         11    1    3    3    0    0 -0.12865582737E+02 -0.73809742998E+01 -0.40420241149E+01  0.15373352269E+02  0.51100000000E-03 0. -1.
        -11    1    3    3    0    0 -0.13283518439E+02  0.11786276249E+02  0.94426265847E+01  0.20112965147E+02  0.51100000000E-03 0.  1.
        -12    1    3    3    0    0 -0.10380622262E+02  0.71791473223E+01  0.81841614970E+01  0.15042538822E+02  0.00000000000E+00 0.  1.
</event>
<event>
 7    1  0.2500839E-011  0.5052886E+02  0.7816164E-02  0.1300439E+00
        -11   -1    0    0    0    0  0.00000000000E+00  0.00000000000E+00  0.45593999997E+02  0.45594000000E+02  0.51100000000E-03 0. -1.
         11   -1    0    0    0    0 -0.00000000000E+00 -0.00000000000E+00 -0.45593999997E+02  0.45594000000E+02  0.51100000000E-03 0.  1.
    9900012    2    1    2    0    0 -0.77279330655E+01 -0.19581837524E+02 -0.34785003430E+02  0.50528858668E+02  0.29999996406E+02 0.  0.
         12    1    1    2    0    0  0.77279330655E+01  0.19581837524E+02  0.34785003430E+02  0.40659141332E+02  0.00000000000E+00 0. -1.
         11    1    3    3    0    0 -0.97703187472E+01 -0.13644652918E+01 -0.66197096174E+01  0.11880296698E+02  0.51100000000E-03 0. -1.
        -11    1    3    3    0    0 -0.16460907363E+01  0.19144581066E+01 -0.12824133872E+02  0.13070316537E+02  0.51100000000E-03 0.  1.
        -12    1    3    3    0    0  0.36884764180E+01 -0.20131830339E+02 -0.15341159940E+02  0.25578245432E+02  0.00000000000E+00 0.  1.
</event>
<event>
 7    1  0.2500839E-011  0.5052885E+02  0.7816164E-02  0.1300439E+00
        -11   -1    0    0    0    0  0.00000000000E+00  0.00000000000E+00  0.45593999997E+02  0.45594000000E+02  0.51100000000E-03 0. -1.
         11   -1    0    0    0    0 -0.00000000000E+00 -0.00000000000E+00 -0.45593999997E+02  0.45594000000E+02  0.51100000000E-03 0.  1.
    9900012    2    1    2    0    0  0.23937098470E+02  0.31214369383E+02 -0.10288082981E+02  0.50528853543E+02  0.29999980830E+02 0.  0.
         12    1    1    2    0    0 -0.23937098470E+02 -0.31214369383E+02  0.10288082981E+02  0.40659146457E+02  0.00000000000E+00 0. -1.
         11    1    3    3    0    0 -0.53392248644E+01 -0.61685161701E+00 -0.23727636710E+01  0.58751881476E+01  0.51100000000E-03 0. -1.
        -11    1    3    3    0    0  0.18332178672E+02  0.16995758428E+02 -0.79038506257E+01  0.26218227141E+02  0.51100000000E-03 0.  1.
        -12    1    3    3    0    0  0.10944144663E+02  0.14835462572E+02 -0.11468684488E-01  0.18435438255E+02  0.00000000000E+00 0.  1.
</event>
<event>
 7    1  0.2500839E-011  0.5052886E+02  0.7816164E-02  0.1300439E+00
        -11   -1    0    0    0    0  0.00000000000E+00  0.00000000000E+00  0.45593999997E+02  0.45594000000E+02  0.51100000000E-03 0.  1.
         11   -1    0    0    0    0 -0.00000000000E+00 -0.00000000000E+00 -0.45593999997E+02  0.45594000000E+02  0.51100000000E-03 0. -1.
    9900012    2    1    2    0    0 -0.38304081189E+02  0.10909321584E+02  0.81822756814E+01  0.50528861194E+02  0.30000004084E+02 0.  0.
         12    1    1    2    0    0  0.38304081189E+02 -0.10909321584E+02 -0.81822756814E+01  0.40659138806E+02  0.00000000000E+00 0. -1.
         11    1    3    3    0    0  0.13262264471E+01  0.24625028776E+01  0.13501925778E+01  0.31057716062E+01  0.51100000000E-03 0. -1.
        -11    1    3    3    0    0 -0.24758531322E+02 -0.13776055734E+01 -0.59366072040E+01  0.25497568035E+02  0.51100000000E-03 0.  1.
         12    1    3    3    0    0 -0.14871776314E+02  0.98244242803E+01  0.12768690308E+02  0.21925521552E+02  0.00000000000E+00 0. -1.
</event>
<event>
 7    1  0.2500839E-011  0.5052877E+02  0.7816164E-02  0.1300439E+00
        -11   -1    0    0    0    0  0.00000000000E+00  0.00000000000E+00  0.45593999997E+02  0.45594000000E+02  0.51100000000E-03 0.  1.
         11   -1    0    0    0    0 -0.00000000000E+00 -0.00000000000E+00 -0.45593999997E+02  0.45594000000E+02  0.51100000000E-03 0. -1.
    9900012    2    1    2    0    0  0.17939763681E+02  0.32073877255E+02 -0.17395527460E+02  0.50528768592E+02  0.29999722610E+02 0.  0.
         12    1    1    2    0    0 -0.17939763681E+02 -0.32073877255E+02  0.17395527460E+02  0.40659231408E+02  0.00000000000E+00 0. -1.
         11    1    3    3    0    0  0.48984985942E+01  0.14475295251E+02  0.33331054699E+01  0.15640941577E+02  0.51100000000E-03 0. -1.
        -11    1    3    3    0    0  0.84525657477E+01  0.18512346651E+02 -0.89840532746E+01  0.22245585175E+02  0.51100000000E-03 0.  1.
         12    1    3    3    0    0  0.45886993391E+01 -0.91376464775E+00 -0.11744579656E+02  0.12642241840E+02  0.00000000000E+00 0. -1.
</event>
<event>
 7    1  0.2500839E-011  0.5052886E+02  0.7816164E-02  0.1300439E+00
        -11   -1    0    0    0    0  0.00000000000E+00  0.00000000000E+00  0.45593999997E+02  0.45594000000E+02  0.51100000000E-03 0.  1.
         11   -1    0    0    0    0 -0.00000000000E+00 -0.00000000000E+00 -0.45593999997E+02  0.45594000000E+02  0.51100000000E-03 0. -1.
    9900012    2    1    2    0    0  0.20478164422E+02  0.30952984770E+02 -0.16604916435E+02  0.50528859157E+02  0.29999997894E+02 0.  0.
         12    1    1    2    0    0 -0.20478164422E+02 -0.30952984770E+02  0.16604916435E+02  0.40659140843E+02  0.00000000000E+00 0. -1.
         11    1    3    3    0    0  0.44123291898E+00  0.81043673351E+01  0.12296631855E+01  0.82089906933E+01  0.51100000000E-03 0. -1.
        -11    1    3    3    0    0  0.22432990047E+02  0.20532954013E+02 -0.73058863431E+01  0.31276464290E+02  0.51100000000E-03 0.  1.
        -12    1    3    3    0    0 -0.23960585438E+01  0.23156634214E+01 -0.10528693277E+02  0.11043404174E+02  0.00000000000E+00 0.  1.
</event>
<event>
 7    1  0.2500839E-011  0.5052886E+02  0.7816164E-02  0.1300439E+00
        -11   -1    0    0    0    0  0.00000000000E+00  0.00000000000E+00  0.45593999997E+02  0.45594000000E+02  0.51100000000E-03 0. -1.
         11   -1    0    0    0    0 -0.00000000000E+00 -0.00000000000E+00 -0.45593999997E+02  0.45594000000E+02  0.51100000000E-03 0.  1.
    9900012    2    1    2    0    0  0.26718788913E+02 -0.12182831402E+02 -0.28122065910E+02  0.50528860154E+02  0.30000000926E+02 0.  0.
         12    1    1    2    0    0 -0.26718788913E+02  0.12182831402E+02  0.28122065910E+02  0.40659139846E+02  0.00000000000E+00 0. -1.
         11    1    3    3    0    0  0.14143231258E+02 -0.17574206950E+02 -0.12342119819E+02  0.25714036288E+02  0.51100000000E-03 0. -1.
        -11    1    3    3    0    0  0.12058322927E+02 -0.12565424741E+01 -0.78015015951E+01  0.14416847027E+02  0.51100000000E-03 0.  1.
        -12    1    3    3    0    0  0.51723472766E+00  0.66479180214E+01 -0.79784444954E+01  0.10397976839E+02  0.00000000000E+00 0.  1.
</event>
<event>
 7    1  0.2500839E-011  0.5052886E+02  0.7816164E-02  0.1300439E+00
        -11   -1    0    0    0    0  0.00000000000E+00  0.00000000000E+00  0.45593999997E+02  0.45594000000E+02  0.51100000000E-03 0.  1.
         11   -1    0    0    0    0 -0.00000000000E+00 -0.00000000000E+00 -0.45593999997E+02  0.45594000000E+02  0.51100000000E-03 0. -1.
    9900012    2    1    2    0    0  0.58164366336E+01 -0.13285257952E+02  0.37984689826E+02  0.50528859882E+02  0.30000000097E+02 0.  0.
         12    1    1    2    0    0 -0.58164366336E+01  0.13285257952E+02 -0.37984689826E+02  0.40659140118E+02  0.00000000000E+00 0. -1.
         11    1    3    3    0    0 -0.15391688891E+01 -0.88957401268E+01  0.16812061140E+01  0.91831197058E+01  0.51100000000E-03 0. -1.
        -11    1    3    3    0    0 -0.58683360573E+01 -0.22372760342E+01  0.96386224493E+01  0.11504165120E+02  0.51100000000E-03 0.  1.
        -12    1    3    3    0    0  0.13223941580E+02 -0.21522417911E+01  0.26664861263E+02  0.29841575056E+02  0.00000000000E+00 0.  1.
</event>
<event>
 7    1  0.2500839E-011  0.5052883E+02  0.7816164E-02  0.1300439E+00
        -11   -1    0    0    0    0  0.00000000000E+00  0.00000000000E+00  0.45593999997E+02  0.45594000000E+02  0.51100000000E-03 0.  1.
         11   -1    0    0    0    0 -0.00000000000E+00 -0.00000000000E+00 -0.45593999997E+02  0.45594000000E+02  0.51100000000E-03 0. -1.
    9900012    2    1    2    0    0  0.11028874520E+01  0.39762869002E+02 -0.84181977061E+01  0.50528829268E+02  0.29999907042E+02 0.  0.
         12    1    1    2    0    0 -0.11028874520E+01 -0.39762869002E+02  0.84181977061E+01  0.40659170732E+02  0.00000000000E+00 0. -1.
         11    1    3    3    0    0  0.94197278022E+01  0.23880159341E+02 -0.84569979436E+01  0.27028024280E+02  0.51100000000E-03 0. -1.
        -11    1    3    3    0    0  0.14697692326E+01  0.10419150483E+02  0.44908665373E+01  0.11440576948E+02  0.51100000000E-03 0.  1.
        -12    1    3    3    0    0 -0.97866095828E+01  0.54635591780E+01 -0.44520662997E+01  0.12060228039E+02  0.00000000000E+00 0.  1.
</event>
<event>
 7    1  0.2500839E-011  0.5052886E+02  0.7816164E-02  0.1300439E+00
        -11   -1    0    0    0    0  0.00000000000E+00  0.00000000000E+00  0.45593999997E+02  0.45594000000E+02  0.51100000000E-03 0. -1.
         11   -1    0    0    0    0 -0.00000000000E+00 -0.00000000000E+00 -0.45593999997E+02  0.45594000000E+02  0.51100000000E-03 0.  1.
    9900012    2    1    2    0    0 -0.34541844333E+02  0.19905089902E+02  0.79883724582E+01  0.50528859473E+02  0.29999998853E+02 0.  0.
         12    1    1    2    0    0  0.34541844333E+02 -0.19905089902E+02 -0.79883724582E+01  0.40659140527E+02  0.00000000000E+00 0. -1.
         11    1    3    3    0    0  0.22839558559E+01 -0.77438650092E+00  0.48695486253E+01  0.54340254765E+01  0.51100000000E-03 0. -1.
        -11    1    3    3    0    0 -0.15602423923E+02  0.93040992673E+01  0.90500230842E+01  0.20295438245E+02  0.51100000000E-03 0.  1.
        -12    1    3    3    0    0 -0.21223376265E+02  0.11375377136E+02 -0.59311992512E+01  0.24799395751E+02  0.00000000000E+00 0.  1.
</event>
<event>
 7    1  0.2500839E-011  0.5052885E+02  0.7816164E-02  0.1300439E+00
        -11   -1    0    0    0    0  0.00000000000E+00  0.00000000000E+00  0.45593999997E+02  0.45594000000E+02  0.51100000000E-03 0. -1.
         11   -1    0    0    0    0 -0.00000000000E+00 -0.00000000000E+00 -0.45593999997E+02  0.45594000000E+02  0.51100000000E-03 0.  1.
    9900012    2    1    2    0    0 -0.16690261759E+02  0.27537786449E+02 -0.24824833553E+02  0.50528845053E+02  0.29999955023E+02 0.  0.
         12    1    1    2    0    0  0.16690261759E+02 -0.27537786449E+02  0.24824833553E+02  0.40659154947E+02  0.00000000000E+00 0. -1.
         11    1    3    3    0    0  0.16064216404E+00  0.16115008196E+02 -0.38533001378E+01  0.16570069924E+02  0.51100000000E-03 0. -1.
        -11    1    3    3    0    0 -0.19648722083E+02  0.12932904136E+02 -0.18217447991E+02  0.29752440243E+02  0.51100000000E-03 0.  1.
         12    1    3    3    0    0  0.27978181607E+01 -0.15101258832E+01 -0.27540854246E+01  0.42063348855E+01  0.00000000000E+00 0. -1.
</event>
<event>
 7    1  0.2500839E-011  0.5052887E+02  0.7816164E-02  0.1300439E+00
        -11   -1    0    0    0    0  0.00000000000E+00  0.00000000000E+00  0.45593999997E+02  0.45594000000E+02  0.51100000000E-03 0.  1.
         11   -1    0    0    0    0 -0.00000000000E+00 -0.00000000000E+00 -0.45593999997E+02  0.45594000000E+02  0.51100000000E-03 0. -1.
    9900012    2    1    2    0    0 -0.87794592275E+01 -0.26334423207E+01  0.39612510218E+02  0.50528869555E+02  0.30000029499E+02 0.  0.
         12    1    1    2    0    0  0.87794592275E+01  0.26334423207E+01 -0.39612510218E+02  0.40659130445E+02  0.00000000000E+00 0. -1.
         11    1    3    3    0    0 -0.10233546760E+02  0.12678471289E+01  0.72789166366E+01  0.12622026117E+02  0.51100000000E-03 0. -1.
        -11    1    3    3    0    0  0.50997652168E+01  0.52046527615E+01  0.49222752012E+01  0.87934526241E+01  0.51100000000E-03 0.  1.
        -12    1    3    3    0    0 -0.36456776843E+01 -0.91059422112E+01  0.27411318380E+02  0.29113390814E+02  0.00000000000E+00 0.  1.
</event>
<event>
 7    1  0.2500839E-011  0.5052885E+02  0.7816164E-02  0.1300439E+00
        -11   -1    0    0    0    0  0.00000000000E+00  0.00000000000E+00  0.45593999997E+02  0.45594000000E+02  0.51100000000E-03 0. -1.
         11   -1    0    0    0    0 -0.00000000000E+00 -0.00000000000E+00 -0.45593999997E+02  0.45594000000E+02  0.51100000000E-03 0.  1.
    9900012    2    1    2    0    0  0.24355188958E+02 -0.16343104661E+02 -0.28158372690E+02  0.50528852792E+02  0.29999978547E+02 0.  0.
         12    1    1    2    0    0 -0.24355188958E+02  0.16343104661E+02  0.28158372690E+02  0.40659147208E+02  0.00000000000E+00 0. -1.
         11    1    3    3    0    0 -0.24617643398E+01  0.30883228444E+01  0.18976731926E+01  0.43816875132E+01  0.51100000000E-03 0. -1.
        -11    1    3    3    0    0  0.79966904476E+01 -0.28613337285E+01 -0.24212231993E+01  0.88315689921E+01  0.51100000000E-03 0.  1.
        -12    1    3    3    0    0  0.18820262850E+02 -0.16570093777E+02 -0.27634822683E+02  0.37315596287E+02  0.00000000000E+00 0.  1.
</event>
<event>
 7    1  0.2500839E-011  0.5052883E+02  0.7816164E-02  0.1300439E+00
        -11   -1    0    0    0    0  0.00000000000E+00  0.00000000000E+00  0.45593999997E+02  0.45594000000E+02  0.51100000000E-03 0.  1.
         11   -1    0    0    0    0 -0.00000000000E+00 -0.00000000000E+00 -0.45593999997E+02  0.45594000000E+02  0.51100000000E-03 0. -1.
    9900012    2    1    2    0    0  0.99054128884E+01 -0.37815009620E+02  0.11183723387E+02  0.50528833434E+02  0.29999919706E+02 0.  0.
         12    1    1    2    0    0 -0.99054128884E+01  0.37815009620E+02 -0.11183723387E+02  0.40659166566E+02  0.00000000000E+00 0. -1.
         11    1    3    3    0    0  0.87505797952E+01 -0.24299008748E+01 -0.16101448380E+00  0.90831157066E+01  0.51100000000E-03 0. -1.
        -11    1    3    3    0    0  0.16430671431E+01 -0.72754897010E+01  0.11048274430E+02  0.13330295877E+02  0.51100000000E-03 0.  1.
         12    1    3    3    0    0 -0.48823404992E+00 -0.28109619044E+02  0.29646344142E+00  0.28115421851E+02  0.00000000000E+00 0. -1.
</event>
<event>
 7    1  0.2500839E-011  0.5052886E+02  0.7816164E-02  0.1300439E+00
        -11   -1    0    0    0    0  0.00000000000E+00  0.00000000000E+00  0.45593999997E+02  0.45594000000E+02  0.51100000000E-03 0.  1.
         11   -1    0    0    0    0 -0.00000000000E+00 -0.00000000000E+00 -0.45593999997E+02  0.45594000000E+02  0.51100000000E-03 0. -1.
    9900012    2    1    2    0    0  0.29803221960E+02 -0.25886877968E+02  0.97366911727E+01  0.50528860251E+02  0.30000001218E+02 0.  0.
         12    1    1    2    0    0 -0.29803221960E+02  0.25886877968E+02 -0.97366911727E+01  0.40659139749E+02  0.00000000000E+00 0. -1.
         11    1    3    3    0    0  0.23874240810E+02 -0.23689450692E+02 -0.16691705567E+01  0.33674256918E+02  0.51100000000E-03 0. -1.
        -11    1    3    3    0    0  0.78372648454E+01 -0.41449088368E+01  0.57258537257E+01  0.10554069863E+02  0.51100000000E-03 0.  1.
         12    1    3    3    0    0 -0.19082836954E+01  0.19474815601E+01  0.56800080037E+01  0.63005334703E+01  0.00000000000E+00 0. -1.
</event>
<event>
 7    1  0.2500839E-011  0.5052886E+02  0.7816164E-02  0.1300439E+00
        -11   -1    0    0    0    0  0.00000000000E+00  0.00000000000E+00  0.45593999997E+02  0.45594000000E+02  0.51100000000E-03 0. -1.
         11   -1    0    0    0    0 -0.00000000000E+00 -0.00000000000E+00 -0.45593999997E+02  0.45594000000E+02  0.51100000000E-03 0.  1.
    9900012    2    1    2    0    0  0.34887859220E+02 -0.13526545261E+02 -0.15907078940E+02  0.50528864396E+02  0.30000013818E+02 0.  0.
         12    1    1    2    0    0 -0.34887859220E+02  0.13526545261E+02  0.15907078940E+02  0.40659135604E+02  0.00000000000E+00 0. -1.
         11    1    3    3    0    0  0.17240408669E+02 -0.11598992347E+02 -0.37425733826E+01  0.21113388414E+02  0.51100000000E-03 0. -1.
        -11    1    3    3    0    0  0.57551169532E+00 -0.28811475335E+01 -0.11960114153E+02  0.12315703619E+02  0.51100000000E-03 0.  1.
         12    1    3    3    0    0  0.17071938856E+02  0.95359461963E+00 -0.20439140436E+00  0.17099772362E+02  0.00000000000E+00 0. -1.
</event>
<event>
 7    1  0.2500839E-011  0.5052887E+02  0.7816164E-02  0.1300439E+00
        -11   -1    0    0    0    0  0.00000000000E+00  0.00000000000E+00  0.45593999997E+02  0.45594000000E+02  0.51100000000E-03 0.  1.
         11   -1    0    0    0    0 -0.00000000000E+00 -0.00000000000E+00 -0.45593999997E+02  0.45594000000E+02  0.51100000000E-03 0. -1.
    9900012    2    1    2    0    0 -0.27972655505E+02  0.28846041227E+02  0.62130214097E+01  0.50528865903E+02  0.30000018398E+02 0.  0.
         12    1    1    2    0    0  0.27972655505E+02 -0.28846041227E+02 -0.62130214097E+01  0.40659134097E+02  0.00000000000E+00 0. -1.
         11    1    3    3    0    0 -0.21277469578E+02  0.97416062270E+01  0.72996679590E+01  0.24513562697E+02  0.51100000000E-03 0.  1.
        -11    1    3    3    0    0 -0.48348492289E+01  0.97411280232E-01 -0.45106313411E+01  0.66129457415E+01  0.51100000000E-03 0. -1.
        -12    1    3    3    0    0 -0.18603366987E+01  0.19007023720E+02  0.34239847919E+01  0.19402357464E+02  0.00000000000E+00 0.  1.
</event>
<event>
 7    1  0.2500839E-011  0.5052887E+02  0.7816164E-02  0.1300439E+00
        -11   -1    0    0    0    0  0.00000000000E+00  0.00000000000E+00  0.45593999997E+02  0.45594000000E+02  0.51100000000E-03 0. -1.
         11   -1    0    0    0    0 -0.00000000000E+00 -0.00000000000E+00 -0.45593999997E+02  0.45594000000E+02  0.51100000000E-03 0.  1.
    9900012    2    1    2    0    0  0.38117448051E+02  0.24863908951E+01 -0.13929926424E+02  0.50528870204E+02  0.30000031472E+02 0.  0.
         12    1    1    2    0    0 -0.38117448051E+02 -0.24863908951E+01  0.13929926424E+02  0.40659129796E+02  0.00000000000E+00 0. -1.
         11    1    3    3    0    0  0.27504393203E+01 -0.84454452611E+00 -0.50174130303E+01  0.57838227574E+01  0.51100000000E-03 0. -1.
        -11    1    3    3    0    0  0.15944255955E+02 -0.97651155901E+01  0.21844669775E+01  0.18824151420E+02  0.51100000000E-03 0.  1.
         12    1    3    3    0    0  0.19422752775E+02  0.13096051011E+02 -0.11096980371E+02  0.25920896026E+02  0.00000000000E+00 0. -1.
</event>
<event>
 7    1  0.2500839E-011  0.5052886E+02  0.7816164E-02  0.1300439E+00
        -11   -1    0    0    0    0  0.00000000000E+00  0.00000000000E+00  0.45593999997E+02  0.45594000000E+02  0.51100000000E-03 0.  1.
         11   -1    0    0    0    0 -0.00000000000E+00 -0.00000000000E+00 -0.45593999997E+02  0.45594000000E+02  0.51100000000E-03 0. -1.
    9900012    2    1    2    0    0  0.34064569999E+02 -0.14553524475E+02  0.16762032789E+02  0.50528858998E+02  0.29999997410E+02 0.  0.
         12    1    1    2    0    0 -0.34064569999E+02  0.14553524475E+02 -0.16762032789E+02  0.40659141002E+02  0.00000000000E+00 0. -1.
         11    1    3    3    0    0  0.19683609727E+01  0.55916416540E+00 -0.48151850038E+01  0.52319323738E+01  0.51100000000E-03 0. -1.
        -11    1    3    3    0    0  0.15885136326E+01 -0.63983671168E+01  0.90246556029E+01  0.11176174942E+02  0.51100000000E-03 0.  1.
        -12    1    3    3    0    0  0.30507695393E+02 -0.87143215234E+01  0.12552562190E+02  0.34120751682E+02  0.00000000000E+00 0.  1.
</event>
<event>
 7    1  0.2500839E-011  0.5052885E+02  0.7816164E-02  0.1300439E+00
        -11   -1    0    0    0    0  0.00000000000E+00  0.00000000000E+00  0.45593999997E+02  0.45594000000E+02  0.51100000000E-03 0. -1.
         11   -1    0    0    0    0 -0.00000000000E+00 -0.00000000000E+00 -0.45593999997E+02  0.45594000000E+02  0.51100000000E-03 0.  1.
    9900012    2    1    2    0    0 -0.32633573708E+02 -0.19166920257E+02 -0.14860877404E+02  0.50528847988E+02  0.29999963944E+02 0.  0.
         12    1    1    2    0    0  0.32633573708E+02  0.19166920257E+02  0.14860877404E+02  0.40659152012E+02  0.00000000000E+00 0. -1.
         11    1    3    3    0    0 -0.20580097846E+02 -0.10976406449E+01 -0.14953379817E+02  0.25462694487E+02  0.51100000000E-03 0. -1.
        -11    1    3    3    0    0 -0.34019377882E+01  0.82526276918E+00  0.22686531908E+01  0.41714538130E+01  0.51100000000E-03 0.  1.
        -12    1    3    3    0    0 -0.86515380746E+01 -0.18894542381E+02 -0.21761507778E+01  0.20894699688E+02  0.00000000000E+00 0.  1.
</event>
<event>
 7    1  0.2500839E-011  0.5052886E+02  0.7816164E-02  0.1300439E+00
        -11   -1    0    0    0    0  0.00000000000E+00  0.00000000000E+00  0.45593999997E+02  0.45594000000E+02  0.51100000000E-03 0.  1.
         11   -1    0    0    0    0 -0.00000000000E+00 -0.00000000000E+00 -0.45593999997E+02  0.45594000000E+02  0.51100000000E-03 0. -1.
    9900012    2    1    2    0    0  0.11155208930E+02  0.11221073333E+02  0.37454166067E+02  0.50528859222E+02  0.29999998092E+02 0.  0.
         12    1    1    2    0    0 -0.11155208930E+02 -0.11221073333E+02 -0.37454166067E+02  0.40659140778E+02  0.00000000000E+00 0. -1.
         11    1    3    3    0    0  0.12081775263E+02  0.38062249676E+01  0.88348525695E+01  0.15443809834E+02  0.51100000000E-03 0. -1.
        -11    1    3    3    0    0 -0.27577768867E+00  0.13160512523E+02  0.13308661487E+02  0.18718857178E+02  0.51100000000E-03 0.  1.
         12    1    3    3    0    0 -0.65078864489E+00 -0.57456641578E+01  0.15310652010E+02  0.16366192210E+02  0.00000000000E+00 0. -1.
</event>
<event>
 7    1  0.2500839E-011  0.5052888E+02  0.7816164E-02  0.1300439E+00
        -11   -1    0    0    0    0  0.00000000000E+00  0.00000000000E+00  0.45593999997E+02  0.45594000000E+02  0.51100000000E-03 0.  1.
         11   -1    0    0    0    0 -0.00000000000E+00 -0.00000000000E+00 -0.45593999997E+02  0.45594000000E+02  0.51100000000E-03 0. -1.
    9900012    2    1    2    0    0 -0.37439322972E+02  0.11400949917E+02  0.11021761881E+02  0.50528882958E+02  0.30000070240E+02 0.  0.
         12    1    1    2    0    0  0.37439322972E+02 -0.11400949917E+02 -0.11021761881E+02  0.40659117042E+02  0.00000000000E+00 0. -1.
         11    1    3    3    0    0 -0.22406600684E+02  0.85151971678E+01 -0.45362295000E+01  0.24395526544E+02  0.51100000000E-03 0.  1.
        -11    1    3    3    0    0 -0.50149370167E+01 -0.58460105176E+01  0.54022100267E+01  0.94079384398E+01  0.51100000000E-03 0. -1.
        -12    1    3    3    0    0 -0.10017785272E+02  0.87317632671E+01  0.10155781355E+02  0.16725417975E+02  0.00000000000E+00 0.  1.
</event>
<event>
 7    1  0.2500839E-011  0.5052884E+02  0.7816164E-02  0.1300439E+00
        -11   -1    0    0    0    0  0.00000000000E+00  0.00000000000E+00  0.45593999997E+02  0.45594000000E+02  0.51100000000E-03 0.  1.
         11   -1    0    0    0    0 -0.00000000000E+00 -0.00000000000E+00 -0.45593999997E+02  0.45594000000E+02  0.51100000000E-03 0. -1.
    9900012    2    1    2    0    0 -0.37950180481E+02  0.27174494347E+01  0.14337593804E+02  0.50528839580E+02  0.29999938386E+02 0.  0.
         12    1    1    2    0    0  0.37950180481E+02 -0.27174494347E+01 -0.14337593804E+02  0.40659160420E+02  0.00000000000E+00 0. -1.
         11    1    3    3    0    0 -0.95143588167E+01 -0.75385439851E+01 -0.54274944087E+00  0.12151018325E+02  0.51100000000E-03 0. -1.
        -11    1    3    3    0    0 -0.29396063201E+02  0.51814694296E+01  0.14539507666E+02  0.33202009587E+02  0.51100000000E-03 0.  1.
         12    1    3    3    0    0  0.96024153618E+00  0.50745239901E+01  0.34083557948E+00  0.51758116684E+01  0.00000000000E+00 0. -1.
</event>
<event>
 7    1  0.2500839E-011  0.5052886E+02  0.7816164E-02  0.1300439E+00
        -11   -1    0    0    0    0  0.00000000000E+00  0.00000000000E+00  0.45593999997E+02  0.45594000000E+02  0.51100000000E-03 0. -1.
         11   -1    0    0    0    0 -0.00000000000E+00 -0.00000000000E+00 -0.45593999997E+02  0.45594000000E+02  0.51100000000E-03 0.  1.
    9900012    2    1    2    0    0  0.27789631527E+02  0.54187182464E+01 -0.29181157126E+02  0.50528855161E+02  0.29999985747E+02 0.  0.
         12    1    1    2    0    0 -0.27789631527E+02 -0.54187182464E+01  0.29181157126E+02  0.40659144839E+02  0.00000000000E+00 0. -1.
         11    1    3    3    0    0  0.16554318458E+02  0.87656936843E+01 -0.23994410727E+02  0.30440344804E+02  0.51100000000E-03 0. -1.
        -11    1    3    3    0    0  0.15043589134E+01  0.32415734210E+01 -0.73191540762E+01  0.81449929795E+01  0.51100000000E-03 0.  1.
         12    1    3    3    0    0  0.97309541555E+01 -0.65885488589E+01  0.21324076775E+01  0.11943517377E+02  0.00000000000E+00 0. -1.
</event>
<event>
 7    1  0.2500839E-011  0.5052885E+02  0.7816164E-02  0.1300439E+00
        -11   -1    0    0    0    0  0.00000000000E+00  0.00000000000E+00  0.45593999997E+02  0.45594000000E+02  0.51100000000E-03 0.  1.
         11   -1    0    0    0    0 -0.00000000000E+00 -0.00000000000E+00 -0.45593999997E+02  0.45594000000E+02  0.51100000000E-03 0. -1.
    9900012    2    1    2    0    0 -0.10980468596E+02 -0.15492201587E+02  0.35952569729E+02  0.50528852558E+02  0.29999977834E+02 0.  0.
         12    1    1    2    0    0  0.10980468596E+02  0.15492201587E+02 -0.35952569729E+02  0.40659147442E+02  0.00000000000E+00 0. -1.
         11    1    3    3    0    0 -0.67016348579E+01  0.70886985922E+01  0.11269074313E+02  0.14904817799E+02  0.51100000000E-03 0. -1.
        -11    1    3    3    0    0  0.16039510968E+01 -0.44353157535E+01  0.11518620908E+02  0.12446819386E+02  0.51100000000E-03 0.  1.
        -12    1    3    3    0    0 -0.58827848350E+01 -0.18145584426E+02  0.13164874508E+02  0.23177215372E+02  0.00000000000E+00 0.  1.
</event>
<event>
 7    1  0.2500839E-011  0.5052886E+02  0.7816164E-02  0.1300439E+00
        -11   -1    0    0    0    0  0.00000000000E+00  0.00000000000E+00  0.45593999997E+02  0.45594000000E+02  0.51100000000E-03 0.  1.
         11   -1    0    0    0    0 -0.00000000000E+00 -0.00000000000E+00 -0.45593999997E+02  0.45594000000E+02  0.51100000000E-03 0. -1.
    9900012    2    1    2    0    0  0.48672540180E+01 -0.39215787886E+02  0.95706522381E+01  0.50528861230E+02  0.30000004196E+02 0.  0.
         12    1    1    2    0    0 -0.48672540180E+01  0.39215787886E+02 -0.95706522381E+01  0.40659138770E+02  0.00000000000E+00 0. -1.
         11    1    3    3    0    0  0.61954978446E+01 -0.10341502181E+01 -0.31871716353E+01  0.70435590087E+01  0.51100000000E-03 0. -1.
        -11    1    3    3    0    0 -0.76895572108E+01 -0.14158164555E+02  0.14331320717E+01  0.16175190307E+02  0.51100000000E-03 0.  1.
         12    1    3    3    0    0  0.63613133842E+01 -0.24023473114E+02  0.11324691802E+02  0.27310111915E+02  0.00000000000E+00 0. -1.
</event>
<event>
 7    1  0.2500839E-011  0.5052886E+02  0.7816164E-02  0.1300439E+00
        -11   -1    0    0    0    0  0.00000000000E+00  0.00000000000E+00  0.45593999997E+02  0.45594000000E+02  0.51100000000E-03 0.  1.
         11   -1    0    0    0    0 -0.00000000000E+00 -0.00000000000E+00 -0.45593999997E+02  0.45594000000E+02  0.51100000000E-03 0. -1.
    9900012    2    1    2    0    0  0.10693389436E+02 -0.24384394545E+02  0.30728137190E+02  0.50528859697E+02  0.29999999536E+02 0.  0.
         12    1    1    2    0    0 -0.10693389436E+02  0.24384394545E+02 -0.30728137190E+02  0.40659140303E+02  0.00000000000E+00 0. -1.
         11    1    3    3    0    0 -0.40394523321E+01 -0.10200563473E+01  0.59498115499E+00  0.42085262184E+01  0.51100000000E-03 0. -1.
        -11    1    3    3    0    0  0.38223784905E+01 -0.23633510621E+02  0.17678209171E+02  0.29760250022E+02  0.51100000000E-03 0.  1.
        -12    1    3    3    0    0  0.10910463277E+02  0.26917242322E+00  0.12454946864E+02  0.16560083457E+02  0.00000000000E+00 0.  1.
</event>
<event>
 7    1  0.3662067E-011  0.5052886E+02  0.7816164E-02  0.1300439E+00
        -11   -1    0    0    0    0  0.00000000000E+00  0.00000000000E+00  0.45593999997E+02  0.45594000000E+02  0.51100000000E-03 0. -1.
         11   -1    0    0    0    0 -0.00000000000E+00 -0.00000000000E+00 -0.45593999997E+02  0.45594000000E+02  0.51100000000E-03 0.  1.
    9900012    2    1    2    0    0 -0.18252817727E+02 -0.13195737562E+02 -0.33850741964E+02  0.50528861097E+02  0.30000003792E+02 0.  0.
         12    1    1    2    0    0  0.18252817727E+02  0.13195737562E+02  0.33850741964E+02  0.40659138903E+02  0.00000000000E+00 0. -1.
         11    1    3    3    0    0 -0.11089788261E+02 -0.63968232892E+01  0.76909501185E+00  0.12825531539E+02  0.51100000000E-03 0. -1.
        -11    1    3    3    0    0  0.24737766611E+01 -0.37238740468E+01 -0.71769900346E+01  0.84555304448E+01  0.51100000000E-03 0.  1.
        -12    1    3    3    0    0 -0.96368061272E+01 -0.30750402258E+01 -0.27442846941E+02  0.29247799113E+02  0.00000000000E+00 0.  1.
</event>
<event>
 7    1  0.2500839E-011  0.5052886E+02  0.7816164E-02  0.1300439E+00
        -11   -1    0    0    0    0  0.00000000000E+00  0.00000000000E+00  0.45593999997E+02  0.45594000000E+02  0.51100000000E-03 0.  1.
         11   -1    0    0    0    0 -0.00000000000E+00 -0.00000000000E+00 -0.45593999997E+02  0.45594000000E+02  0.51100000000E-03 0. -1.
    9900012    2    1    2    0    0  0.26961097104E+02 -0.10331458284E+02  0.28627357553E+02  0.50528863415E+02  0.30000010837E+02 0.  0.
         12    1    1    2    0    0 -0.26961097104E+02  0.10331458284E+02 -0.28627357553E+02  0.40659136585E+02  0.00000000000E+00 0. -1.
         11    1    3    3    0    0  0.22878588137E+01  0.24572968153E+01  0.49773128936E+01  0.60038528873E+01  0.51100000000E-03 0. -1.
        -11    1    3    3    0    0  0.69947144855E+01  0.71351170300E+01  0.19773304118E+01  0.10185566336E+02  0.51100000000E-03 0.  1.
         12    1    3    3    0    0  0.17678523805E+02 -0.19923872129E+02  0.21672714248E+02  0.34339444192E+02  0.00000000000E+00 0. -1.
</event>
<event>
 7    1  0.2500839E-011  0.5052883E+02  0.7816164E-02  0.1300439E+00
        -11   -1    0    0    0    0  0.00000000000E+00  0.00000000000E+00  0.45593999997E+02  0.45594000000E+02  0.51100000000E-03 0.  1.
         11   -1    0    0    0    0 -0.00000000000E+00 -0.00000000000E+00 -0.45593999997E+02  0.45594000000E+02  0.51100000000E-03 0. -1.
    9900012    2    1    2    0    0  0.30675917519E+02  0.13044150567E+02  0.23281025375E+02  0.50528832250E+02  0.29999916106E+02 0.  0.
         12    1    1    2    0    0 -0.30675917519E+02 -0.13044150567E+02 -0.23281025375E+02  0.40659167750E+02  0.00000000000E+00 0. -1.
         11    1    3    3    0    0  0.12717023279E+02  0.21512485343E+01 -0.96718255663E+00  0.12933908678E+02  0.51100000000E-03 0. -1.
        -11    1    3    3    0    0  0.20188002740E+02  0.33060351998E+01  0.20040738633E+02  0.28637676732E+02  0.51100000000E-03 0.  1.
        -12    1    3    3    0    0 -0.22291085005E+01  0.75868668331E+01  0.42074692988E+01  0.89572468399E+01  0.00000000000E+00 0.  1.
</event>
<event>
 7    1  0.2500839E-011  0.5052886E+02  0.7816164E-02  0.1300439E+00
        -11   -1    0    0    0    0  0.00000000000E+00  0.00000000000E+00  0.45593999997E+02  0.45594000000E+02  0.51100000000E-03 0.  1.
         11   -1    0    0    0    0 -0.00000000000E+00 -0.00000000000E+00 -0.45593999997E+02  0.45594000000E+02  0.51100000000E-03 0. -1.
    9900012    2    1    2    0    0 -0.13661221819E+02  0.37869709488E+02 -0.56939919723E+01  0.50528862985E+02  0.30000009528E+02 0.  0.
         12    1    1    2    0    0  0.13661221819E+02 -0.37869709488E+02  0.56939919723E+01  0.40659137015E+02  0.00000000000E+00 0. -1.
         11    1    3    3    0    0 -0.11468214439E+02  0.12768455258E+02 -0.49838983091E+01  0.17871559381E+02  0.51100000000E-03 0. -1.
        -11    1    3    3    0    0 -0.60012795585E+01  0.13674125367E+02  0.87799289326E+01  0.17322938931E+02  0.51100000000E-03 0.  1.
         12    1    3    3    0    0  0.38082721787E+01  0.11427128863E+02 -0.94900225958E+01  0.15334364672E+02  0.00000000000E+00 0. -1.
</event>
<event>
 7    1  0.2500839E-011  0.5052886E+02  0.7816164E-02  0.1300439E+00
        -11   -1    0    0    0    0  0.00000000000E+00  0.00000000000E+00  0.45593999997E+02  0.45594000000E+02  0.51100000000E-03 0.  1.
         11   -1    0    0    0    0 -0.00000000000E+00 -0.00000000000E+00 -0.45593999997E+02  0.45594000000E+02  0.51100000000E-03 0. -1.
    9900012    2    1    2    0    0 -0.21436644483E+02  0.33710526809E+02  0.75654427802E+01  0.50528864878E+02  0.30000015283E+02 0.  0.
         12    1    1    2    0    0  0.21436644483E+02 -0.33710526809E+02 -0.75654427802E+01  0.40659135122E+02  0.00000000000E+00 0. -1.
         11    1    3    3    0    0  0.16813405678E+01  0.46408102830E+01 -0.68412971529E+01  0.84360756981E+01  0.51100000000E-03 0. -1.
        -11    1    3    3    0    0 -0.95572101344E+00 -0.69558974072E+00  0.30703697398E+01  0.32900483800E+01  0.51100000000E-03 0.  1.
        -12    1    3    3    0    0 -0.22162264038E+02  0.29765306266E+02  0.11336370193E+02  0.38802740800E+02  0.00000000000E+00 0.  1.
</event>
<event>
 7    1  0.2500839E-011  0.5052885E+02  0.7816164E-02  0.1300439E+00
        -11   -1    0    0    0    0  0.00000000000E+00  0.00000000000E+00  0.45593999997E+02  0.45594000000E+02  0.51100000000E-03 0.  1.
         11   -1    0    0    0    0 -0.00000000000E+00 -0.00000000000E+00 -0.45593999997E+02  0.45594000000E+02  0.51100000000E-03 0. -1.
    9900012    2    1    2    0    0 -0.36629540929E+02 -0.17546470864E+02  0.18879361420E+01  0.50528853288E+02  0.29999980053E+02 0.  0.
         12    1    1    2    0    0  0.36629540929E+02  0.17546470864E+02 -0.18879361420E+01  0.40659146712E+02  0.00000000000E+00 0. -1.
         11    1    3    3    0    0 -0.99800737347E+01 -0.99402924655E+01 -0.50126022631E+01  0.14951169445E+02  0.51100000000E-03 0. -1.
        -11    1    3    3    0    0 -0.13671856936E+02 -0.13390944134E+02  0.91157902989E+01  0.21197516125E+02  0.51100000000E-03 0.  1.
        -12    1    3    3    0    0 -0.12977610259E+02  0.57847657346E+01 -0.22152518938E+01  0.14380167718E+02  0.00000000000E+00 0.  1.
</event>
<event>
 7    1  0.2500839E-011  0.5052890E+02  0.7816164E-02  0.1300439E+00
        -11   -1    0    0    0    0  0.00000000000E+00  0.00000000000E+00  0.45593999997E+02  0.45594000000E+02  0.51100000000E-03 0.  1.
         11   -1    0    0    0    0 -0.00000000000E+00 -0.00000000000E+00 -0.45593999997E+02  0.45594000000E+02  0.51100000000E-03 0. -1.
    9900012    2    1    2    0    0 -0.12173857757E+02 -0.19780193033E+02  0.33372194849E+02  0.50528902148E+02  0.30000128568E+02 0.  0.
         12    1    1    2    0    0  0.12173857757E+02  0.19780193033E+02 -0.33372194849E+02  0.40659097852E+02  0.00000000000E+00 0. -1.
         11    1    3    3    0    0 -0.12294973526E+02 -0.95268572918E+01  0.43554439478E+01  0.16152314884E+02  0.51100000000E-03 0. -1.
        -11    1    3    3    0    0 -0.43657484741E+01  0.20289376038E+01  0.11897929415E+02  0.12834994046E+02  0.51100000000E-03 0.  1.
        -12    1    3    3    0    0  0.44868642440E+01 -0.12282273345E+02  0.17118821487E+02  0.21541593218E+02  0.00000000000E+00 0.  1.
</event>
<event>
 7    1  0.2500839E-011  0.5052886E+02  0.7816164E-02  0.1300439E+00
        -11   -1    0    0    0    0  0.00000000000E+00  0.00000000000E+00  0.45593999997E+02  0.45594000000E+02  0.51100000000E-03 0.  1.
         11   -1    0    0    0    0 -0.00000000000E+00 -0.00000000000E+00 -0.45593999997E+02  0.45594000000E+02  0.51100000000E-03 0. -1.
    9900012    2    1    2    0    0  0.16724143203E+01  0.37331632996E+02  0.16022426125E+02  0.50528856739E+02  0.29999990544E+02 0.  0.
         12    1    1    2    0    0 -0.16724143203E+01 -0.37331632996E+02 -0.16022426125E+02  0.40659143261E+02  0.00000000000E+00 0. -1.
         11    1    3    3    0    0 -0.52208779587E+01  0.47463025615E+01  0.34958756541E+01  0.78743953111E+01  0.51100000000E-03 0. -1.
        -11    1    3    3    0    0  0.36621131986E+01  0.26113546785E+02  0.19352639573E+02  0.32708608308E+02  0.51100000000E-03 0.  1.
         12    1    3    3    0    0  0.32311790805E+01  0.64717836495E+01 -0.68260891022E+01  0.99458531201E+01  0.00000000000E+00 0. -1.
</event>
<event>
 7    1  0.2500839E-011  0.5052887E+02  0.7816164E-02  0.1300439E+00
        -11   -1    0    0    0    0  0.00000000000E+00  0.00000000000E+00  0.45593999997E+02  0.45594000000E+02  0.51100000000E-03 0. -1.
         11   -1    0    0    0    0 -0.00000000000E+00 -0.00000000000E+00 -0.45593999997E+02  0.45594000000E+02  0.51100000000E-03 0.  1.
    9900012    2    1    2    0    0  0.57289821715E+01  0.39698302759E+02  0.66624611316E+01  0.50528869819E+02  0.30000030303E+02 0.  0.
         12    1    1    2    0    0 -0.57289821715E+01 -0.39698302759E+02 -0.66624611316E+01  0.40659130181E+02  0.00000000000E+00 0. -1.
         11    1    3    3    0    0  0.24051480967E+01  0.51322618718E+01 -0.40550951719E+01  0.69691209203E+01  0.51100000000E-03 0.  1.
        -11    1    3    3    0    0  0.13577248489E+02  0.22956212259E+02  0.56515354861E+01  0.27262964098E+02  0.51100000000E-03 0. -1.
         12    1    3    3    0    0 -0.10253414414E+02  0.11609828629E+02  0.50660208174E+01  0.16296784801E+02  0.00000000000E+00 0. -1.
</event>
<event>
 7    1  0.2500839E-011  0.5052887E+02  0.7816164E-02  0.1300439E+00
        -11   -1    0    0    0    0  0.00000000000E+00  0.00000000000E+00  0.45593999997E+02  0.45594000000E+02  0.51100000000E-03 0.  1.
         11   -1    0    0    0    0 -0.00000000000E+00 -0.00000000000E+00 -0.45593999997E+02  0.45594000000E+02  0.51100000000E-03 0. -1.
    9900012    2    1    2    0    0  0.11874718719E+02 -0.31277684923E+02  0.23105457718E+02  0.50528871933E+02  0.30000036728E+02 0.  0.
         12    1    1    2    0    0 -0.11874718719E+02  0.31277684923E+02 -0.23105457718E+02  0.40659128067E+02  0.00000000000E+00 0. -1.
         11    1    3    3    0    0 -0.20176435757E+01 -0.80532051145E+01  0.10345051034E+02  0.13264429101E+02  0.51100000000E-03 0. -1.
        -11    1    3    3    0    0  0.75621394053E+01  0.28266153139E+01  0.43298309633E+01  0.91609575345E+01  0.51100000000E-03 0.  1.
         12    1    3    3    0    0  0.63302228895E+01 -0.26051095122E+02  0.84305757213E+01  0.28103485298E+02  0.00000000000E+00 0. -1.
</event>
<event>
 7    1  0.2500839E-011  0.5052889E+02  0.7816164E-02  0.1300439E+00
        -11   -1    0    0    0    0  0.00000000000E+00  0.00000000000E+00  0.45593999997E+02  0.45594000000E+02  0.51100000000E-03 0. -1.
         11   -1    0    0    0    0 -0.00000000000E+00 -0.00000000000E+00 -0.45593999997E+02  0.45594000000E+02  0.51100000000E-03 0.  1.
    9900012    2    1    2    0    0  0.79783784371E+01 -0.26238340604E+02  0.30017636506E+02  0.50528886120E+02  0.30000079850E+02 0.  0.
         12    1    1    2    0    0 -0.79783784371E+01  0.26238340604E+02 -0.30017636506E+02  0.40659113880E+02  0.00000000000E+00 0. -1.
         11    1    3    3    0    0 -0.68612135041E+01 -0.53265570481E+01  0.77039141255E+01  0.11610286553E+02  0.51100000000E-03 0. -1.
        -11    1    3    3    0    0  0.52692368441E+01 -0.15678056054E+02  0.31049277931E+01  0.16828751451E+02  0.51100000000E-03 0.  1.
        -12    1    3    3    0    0  0.95703550971E+01 -0.52337275016E+01  0.19208794588E+02  0.22089848115E+02  0.00000000000E+00 0.  1.
</event>
<event>
 7    1  0.2500839E-011  0.5052886E+02  0.7816164E-02  0.1300439E+00
        -11   -1    0    0    0    0  0.00000000000E+00  0.00000000000E+00  0.45593999997E+02  0.45594000000E+02  0.51100000000E-03 0. -1.
         11   -1    0    0    0    0 -0.00000000000E+00 -0.00000000000E+00 -0.45593999997E+02  0.45594000000E+02  0.51100000000E-03 0.  1.
    9900012    2    1    2    0    0 -0.26586084978E+02 -0.13231198471E+02 -0.27771952531E+02  0.50528857426E+02  0.29999992633E+02 0.  0.
         12    1    1    2    0    0  0.26586084978E+02  0.13231198471E+02  0.27771952531E+02  0.40659142574E+02  0.00000000000E+00 0. -1.
         11    1    3    3    0    0 -0.16194942106E+02 -0.20813097925E+02 -0.20561229639E+02  0.33439876788E+02  0.51100000000E-03 0. -1.
        -11    1    3    3    0    0 -0.87656835219E+01  0.42083953960E+01 -0.87110793531E+01  0.13054911075E+02  0.51100000000E-03 0.  1.
        -12    1    3    3    0    0 -0.16254593498E+01  0.33735040581E+01  0.15003564617E+01  0.40340695631E+01  0.00000000000E+00 0.  1.
</event>
<event>
 7    1  0.2500839E-011  0.5052886E+02  0.7816164E-02  0.1300439E+00
        -11   -1    0    0    0    0  0.00000000000E+00  0.00000000000E+00  0.45593999997E+02  0.45594000000E+02  0.51100000000E-03 0.  1.
         11   -1    0    0    0    0 -0.00000000000E+00 -0.00000000000E+00 -0.45593999997E+02  0.45594000000E+02  0.51100000000E-03 0. -1.
    9900012    2    1    2    0    0  0.22263890439E+01 -0.25162910670E+02  0.31859639592E+02  0.50528861833E+02  0.30000006028E+02 0.  0.
         12    1    1    2    0    0 -0.22263890439E+01  0.25162910670E+02 -0.31859639592E+02  0.40659138167E+02  0.00000000000E+00 0. -1.
         11    1    3    3    0    0  0.31811037384E+01  0.14227136184E+01  0.10446261662E+02  0.11012171357E+02  0.51100000000E-03 0. -1.
        -11    1    3    3    0    0 -0.55097275789E+01 -0.73590602496E+01  0.16915874622E+02  0.19252523996E+02  0.51100000000E-03 0.  1.
         12    1    3    3    0    0  0.45550128844E+01 -0.19226564038E+02  0.44975033089E+01  0.20264166480E+02  0.00000000000E+00 0. -1.
</event>
<event>
 7    1  0.2500839E-011  0.5052887E+02  0.7816164E-02  0.1300439E+00
        -11   -1    0    0    0    0  0.00000000000E+00  0.00000000000E+00  0.45593999997E+02  0.45594000000E+02  0.51100000000E-03 0.  1.
         11   -1    0    0    0    0 -0.00000000000E+00 -0.00000000000E+00 -0.45593999997E+02  0.45594000000E+02  0.51100000000E-03 0. -1.
    9900012    2    1    2    0    0  0.31806688399E+02 -0.17228648703E+02  0.18565374267E+02  0.50528869602E+02  0.30000029643E+02 0.  0.
         12    1    1    2    0    0 -0.31806688399E+02  0.17228648703E+02 -0.18565374267E+02  0.40659130398E+02  0.00000000000E+00 0. -1.
         11    1    3    3    0    0 -0.13758476095E+00 -0.41741998854E+01  0.12747826621E+02  0.13414542783E+02  0.51100000000E-03 0. -1.
        -11    1    3    3    0    0  0.81771700524E+01 -0.79993956604E+01  0.57777153219E+01  0.12815554440E+02  0.51100000000E-03 0.  1.
         12    1    3    3    0    0  0.23767103108E+02 -0.50550531571E+01  0.39832323766E-01  0.24298772380E+02  0.00000000000E+00 0. -1.
</event>
<event>
 7    1  0.2500839E-011  0.5052886E+02  0.7816164E-02  0.1300439E+00
        -11   -1    0    0    0    0  0.00000000000E+00  0.00000000000E+00  0.45593999997E+02  0.45594000000E+02  0.51100000000E-03 0. -1.
         11   -1    0    0    0    0 -0.00000000000E+00 -0.00000000000E+00 -0.45593999997E+02  0.45594000000E+02  0.51100000000E-03 0.  1.
    9900012    2    1    2    0    0  0.20848434496E+02  0.10830539052E+02 -0.33184450026E+02  0.50528861782E+02  0.30000005872E+02 0.  0.
         12    1    1    2    0    0 -0.20848434496E+02 -0.10830539052E+02  0.33184450026E+02  0.40659138218E+02  0.00000000000E+00 0. -1.
         11    1    3    3    0    0  0.14327051128E+02 -0.12511772848E+01 -0.72084483014E+01  0.16086999900E+02  0.51100000000E-03 0. -1.
        -11    1    3    3    0    0  0.95244734230E+01  0.10860398924E+01 -0.56208157345E+01  0.11112544552E+02  0.51100000000E-03 0.  1.
        -12    1    3    3    0    0 -0.30030900549E+01  0.10995676445E+02 -0.20355185990E+02  0.23329317330E+02  0.00000000000E+00 0.  1.
</event>
<event>
 7    1  0.2500839E-011  0.5052887E+02  0.7816164E-02  0.1300439E+00
        -11   -1    0    0    0    0  0.00000000000E+00  0.00000000000E+00  0.45593999997E+02  0.45594000000E+02  0.51100000000E-03 0.  1.
         11   -1    0    0    0    0 -0.00000000000E+00 -0.00000000000E+00 -0.45593999997E+02  0.45594000000E+02  0.51100000000E-03 0. -1.
    9900012    2    1    2    0    0  0.66714759065E+01 -0.93562830049E+01  0.39001486344E+02  0.50528873602E+02  0.30000041799E+02 0.  0.
         12    1    1    2    0    0 -0.66714759065E+01  0.93562830049E+01 -0.39001486344E+02  0.40659126398E+02  0.00000000000E+00 0. -1.
         11    1    3    3    0    0  0.31246650859E+01 -0.10940203263E+01 -0.36593004855E+01  0.49346623671E+01  0.51100000000E-03 0. -1.
        -11    1    3    3    0    0  0.25248875918E+00  0.32651559230E+00 -0.94367960157E+00  0.10299973093E+01  0.51100000000E-03 0.  1.
        -12    1    3    3    0    0  0.32943220614E+01 -0.85887782709E+01  0.43604466431E+02  0.44564213925E+02  0.00000000000E+00 0.  1.
</event>
<event>
 7    1  0.2500839E-011  0.5052885E+02  0.7816164E-02  0.1300439E+00
        -11   -1    0    0    0    0  0.00000000000E+00  0.00000000000E+00  0.45593999997E+02  0.45594000000E+02  0.51100000000E-03 0.  1.
         11   -1    0    0    0    0 -0.00000000000E+00 -0.00000000000E+00 -0.45593999997E+02  0.45594000000E+02  0.51100000000E-03 0. -1.
    9900012    2    1    2    0    0  0.28168526750E+02  0.10057425274E+02  0.27541767078E+02  0.50528848063E+02  0.29999964174E+02 0.  0.
         12    1    1    2    0    0 -0.28168526750E+02 -0.10057425274E+02 -0.27541767078E+02  0.40659151937E+02  0.00000000000E+00 0. -1.
         11    1    3    3    0    0 -0.33679796899E+01  0.52658424452E+01  0.39824621417E+01  0.74116387406E+01  0.51100000000E-03 0. -1.
        -11    1    3    3    0    0 -0.16455096883E+00  0.30671363784E+00  0.71165438645E+01  0.71250506745E+01  0.51100000000E-03 0.  1.
         12    1    3    3    0    0  0.31701057409E+02  0.44848691905E+01  0.16442761072E+02  0.35992158648E+02  0.00000000000E+00 0. -1.
</event>
<event>
 7    1  0.2500839E-011  0.5052886E+02  0.7816164E-02  0.1300439E+00
        -11   -1    0    0    0    0  0.00000000000E+00  0.00000000000E+00  0.45593999997E+02  0.45594000000E+02  0.51100000000E-03 0.  1.
         11   -1    0    0    0    0 -0.00000000000E+00 -0.00000000000E+00 -0.45593999997E+02  0.45594000000E+02  0.51100000000E-03 0. -1.
    9900012    2    1    2    0    0  0.33373142456E+02  0.65700527164E+01  0.22276300224E+02  0.50528858570E+02  0.29999996111E+02 0.  0.
         12    1    1    2    0    0 -0.33373142456E+02 -0.65700527164E+01 -0.22276300224E+02  0.40659141430E+02  0.00000000000E+00 0. -1.
         11    1    3    3    0    0  0.53556759293E+01  0.59923612325E+01  0.44976657224E+01  0.92098129738E+01  0.51100000000E-03 0.  1.
        -11    1    3    3    0    0  0.20791712518E+02 -0.80375200282E+01  0.26189983555E+01  0.22444513589E+02  0.51100000000E-03 0. -1.
         12    1    3    3    0    0  0.72257540094E+01  0.86152115121E+01  0.15159636146E+02  0.18874532007E+02  0.00000000000E+00 0. -1.
</event>
<event>
 7    1  0.2500839E-011  0.5052886E+02  0.7816164E-02  0.1300439E+00
        -11   -1    0    0    0    0  0.00000000000E+00  0.00000000000E+00  0.45593999997E+02  0.45594000000E+02  0.51100000000E-03 0. -1.
         11   -1    0    0    0    0 -0.00000000000E+00 -0.00000000000E+00 -0.45593999997E+02  0.45594000000E+02  0.51100000000E-03 0.  1.
    9900012    2    1    2    0    0  0.14154850685E+02  0.17906161552E+02 -0.33647807816E+02  0.50528863385E+02  0.30000010746E+02 0.  0.
         12    1    1    2    0    0 -0.14154850685E+02 -0.17906161552E+02  0.33647807816E+02  0.40659136615E+02  0.00000000000E+00 0. -1.
         11    1    3    3    0    0  0.31626997243E+00  0.69986711395E+01 -0.10992453332E+02  0.13035162252E+02  0.51100000000E-03 0. -1.
        -11    1    3    3    0    0  0.17866321039E+02  0.12213813677E+02 -0.24659001742E+02  0.32809282820E+02  0.51100000000E-03 0.  1.
         12    1    3    3    0    0 -0.40277403261E+01 -0.13063232643E+01  0.20036472577E+01  0.46844183138E+01  0.00000000000E+00 0. -1.
</event>
<event>
 7    1  0.2500839E-011  0.5052886E+02  0.7816164E-02  0.1300439E+00
        -11   -1    0    0    0    0  0.00000000000E+00  0.00000000000E+00  0.45593999997E+02  0.45594000000E+02  0.51100000000E-03 0.  1.
         11   -1    0    0    0    0 -0.00000000000E+00 -0.00000000000E+00 -0.45593999997E+02  0.45594000000E+02  0.51100000000E-03 0. -1.
    9900012    2    1    2    0    0  0.10749469594E+02 -0.12865663282E+01  0.39191320120E+02  0.50528856843E+02  0.29999990861E+02 0.  0.
         12    1    1    2    0    0 -0.10749469594E+02  0.12865663282E+01 -0.39191320120E+02  0.40659143157E+02  0.00000000000E+00 0. -1.
         11    1    3    3    0    0  0.29597799686E+01 -0.40305778231E+01  0.95790516369E+01  0.10805743176E+02  0.51100000000E-03 0. -1.
        -11    1    3    3    0    0  0.16525509516E+02  0.48978454297E+01  0.21925792901E+02  0.27889455879E+02  0.51100000000E-03 0.  1.
         12    1    3    3    0    0 -0.87358198907E+01 -0.21538339348E+01  0.76864755822E+01  0.11833657789E+02  0.00000000000E+00 0. -1.
</event>
<event>
 7    1  0.2500839E-011  0.5052886E+02  0.7816164E-02  0.1300439E+00
        -11   -1    0    0    0    0  0.00000000000E+00  0.00000000000E+00  0.45593999997E+02  0.45594000000E+02  0.51100000000E-03 0.  1.
         11   -1    0    0    0    0 -0.00000000000E+00 -0.00000000000E+00 -0.45593999997E+02  0.45594000000E+02  0.51100000000E-03 0. -1.
    9900012    2    1    2    0    0 -0.72616848806E+01 -0.22358335037E+01  0.39942889872E+02  0.50528862404E+02  0.30000007763E+02 0.  0.
         12    1    1    2    0    0  0.72616848806E+01  0.22358335037E+01 -0.39942889872E+02  0.40659137596E+02  0.00000000000E+00 0. -1.
         11    1    3    3    0    0 -0.60584541974E+01 -0.28449748322E+01  0.23872148571E+02  0.24792705111E+02  0.51100000000E-03 0. -1.
        -11    1    3    3    0    0  0.20619632630E+01 -0.88394299313E+01  0.11744876414E+02  0.14843494745E+02  0.51100000000E-03 0.  1.
         12    1    3    3    0    0 -0.32651939462E+01  0.94485712598E+01  0.43258648863E+01  0.10892662547E+02  0.00000000000E+00 0. -1.
</event>
<event>
 7    1  0.2500839E-011  0.5052887E+02  0.7816164E-02  0.1300439E+00
        -11   -1    0    0    0    0  0.00000000000E+00  0.00000000000E+00  0.45593999997E+02  0.45594000000E+02  0.51100000000E-03 0.  1.
         11   -1    0    0    0    0 -0.00000000000E+00 -0.00000000000E+00 -0.45593999997E+02  0.45594000000E+02  0.51100000000E-03 0. -1.
    9900012    2    1    2    0    0  0.31072461494E+00  0.35024206420E+02  0.20648815609E+02  0.50528866079E+02  0.30000018934E+02 0.  0.
         12    1    1    2    0    0 -0.31072461494E+00 -0.35024206420E+02 -0.20648815609E+02  0.40659133921E+02  0.00000000000E+00 0. -1.
         11    1    3    3    0    0  0.10878561711E+01 -0.35951447503E+01  0.94923117505E+00  0.38742143603E+01  0.51100000000E-03 0. -1.
        -11    1    3    3    0    0  0.59242348882E+01  0.13754919103E+02  0.13561666700E+01  0.15037737425E+02  0.51100000000E-03 0.  1.
        -12    1    3    3    0    0 -0.67013664444E+01  0.24864432067E+02  0.18343417764E+02  0.31616914294E+02  0.00000000000E+00 0.  1.
</event>
<event>
 7    1  0.2500839E-011  0.5052886E+02  0.7816164E-02  0.1300439E+00
        -11   -1    0    0    0    0  0.00000000000E+00  0.00000000000E+00  0.45593999997E+02  0.45594000000E+02  0.51100000000E-03 0. -1.
         11   -1    0    0    0    0 -0.00000000000E+00 -0.00000000000E+00 -0.45593999997E+02  0.45594000000E+02  0.51100000000E-03 0.  1.
    9900012    2    1    2    0    0 -0.95148300647E+01  0.39241164338E+02 -0.47712098939E+01  0.50528863098E+02  0.30000009871E+02 0.  0.
         12    1    1    2    0    0  0.95148300647E+01 -0.39241164338E+02  0.47712098939E+01  0.40659136902E+02  0.00000000000E+00 0. -1.
         11    1    3    3    0    0 -0.15178861230E+02  0.10478127664E+02 -0.21128786554E+01  0.18564838918E+02  0.51100000000E-03 0. -1.
        -11    1    3    3    0    0 -0.21922973509E+00  0.36632575045E+01 -0.48602250073E+01  0.60900988993E+01  0.51100000000E-03 0.  1.
        -12    1    3    3    0    0  0.58832609008E+01  0.25099779170E+02  0.22018937688E+01  0.25873925280E+02  0.00000000000E+00 0.  1.
</event>
<event>
 7    1  0.2500839E-011  0.5052890E+02  0.7816164E-02  0.1300439E+00
        -11   -1    0    0    0    0  0.00000000000E+00  0.00000000000E+00  0.45593999997E+02  0.45594000000E+02  0.51100000000E-03 0. -1.
         11   -1    0    0    0    0 -0.00000000000E+00 -0.00000000000E+00 -0.45593999997E+02  0.45594000000E+02  0.51100000000E-03 0.  1.
    9900012    2    1    2    0    0  0.37678911141E+02  0.81970387710E+01 -0.12894606295E+02  0.50528896949E+02  0.30000112766E+02 0.  0.
         12    1    1    2    0    0 -0.37678911141E+02 -0.81970387710E+01  0.12894606295E+02  0.40659103051E+02  0.00000000000E+00 0. -1.
         11    1    3    3    0    0  0.18756440419E+02  0.81872814343E+01 -0.94805779212E+01  0.22554755429E+02  0.51100000000E-03 0. -1.
        -11    1    3    3    0    0  0.13841213544E+02  0.65357377207E+01  0.50711192682E+01  0.16124866227E+02  0.51100000000E-03 0.  1.
         12    1    3    3    0    0  0.50812571779E+01 -0.65259803840E+01 -0.84851476418E+01  0.11849275294E+02  0.00000000000E+00 0. -1.
</event>
<event>
 7    1  0.2500839E-011  0.5052887E+02  0.7816164E-02  0.1300439E+00
        -11   -1    0    0    0    0  0.00000000000E+00  0.00000000000E+00  0.45593999997E+02  0.45594000000E+02  0.51100000000E-03 0.  1.
         11   -1    0    0    0    0 -0.00000000000E+00 -0.00000000000E+00 -0.45593999997E+02  0.45594000000E+02  0.51100000000E-03 0. -1.
    9900012    2    1    2    0    0  0.58192065560E+00  0.31391074312E+02  0.25834607845E+02  0.50528866455E+02  0.30000020077E+02 0.  0.
         12    1    1    2    0    0 -0.58192065560E+00 -0.31391074312E+02 -0.25834607845E+02  0.40659133545E+02  0.00000000000E+00 0. -1.
         11    1    3    3    0    0  0.26663522164E+01  0.57117886909E+01 -0.28319750829E+01  0.69104303283E+01  0.51100000000E-03 0. -1.
        -11    1    3    3    0    0  0.44045558398E+01  0.22092556871E+02  0.12336563238E+02  0.25684080167E+02  0.51100000000E-03 0.  1.
         12    1    3    3    0    0 -0.64889874006E+01  0.35867287497E+01  0.16330019691E+02  0.17934355960E+02  0.00000000000E+00 0. -1.
</event>
<event>
 7    1  0.2500839E-011  0.5052886E+02  0.7816164E-02  0.1300439E+00
        -11   -1    0    0    0    0  0.00000000000E+00  0.00000000000E+00  0.45593999997E+02  0.45594000000E+02  0.51100000000E-03 0.  1.
         11   -1    0    0    0    0 -0.00000000000E+00 -0.00000000000E+00 -0.45593999997E+02  0.45594000000E+02  0.51100000000E-03 0. -1.
    9900012    2    1    2    0    0 -0.87014444177E+01  0.37373591552E+02  0.13441172203E+02  0.50528860921E+02  0.30000003255E+02 0.  0.
         12    1    1    2    0    0  0.87014444177E+01 -0.37373591552E+02 -0.13441172203E+02  0.40659139079E+02  0.00000000000E+00 0. -1.
         11    1    3    3    0    0  0.31257576955E+01  0.17746562387E+02  0.60240698354E+01  0.19000006720E+02  0.51100000000E-03 0. -1.
        -11    1    3    3    0    0 -0.86160174703E+01  0.22051597652E+02  0.68384473148E+00  0.23684939518E+02  0.51100000000E-03 0.  1.
         12    1    3    3    0    0 -0.32111846428E+01 -0.24245684873E+01  0.67332576362E+01  0.78439146830E+01  0.00000000000E+00 0. -1.
</event>
<event>
 7    1  0.2500839E-011  0.5052886E+02  0.7816164E-02  0.1300439E+00
        -11   -1    0    0    0    0  0.00000000000E+00  0.00000000000E+00  0.45593999997E+02  0.45594000000E+02  0.51100000000E-03 0.  1.
         11   -1    0    0    0    0 -0.00000000000E+00 -0.00000000000E+00 -0.45593999997E+02  0.45594000000E+02  0.51100000000E-03 0. -1.
    9900012    2    1    2    0    0 -0.30773252307E+02 -0.31401002241E+01  0.26387737465E+02  0.50528856188E+02  0.29999988870E+02 0.  0.
         12    1    1    2    0    0  0.30773252307E+02  0.31401002241E+01 -0.26387737465E+02  0.40659143812E+02  0.00000000000E+00 0. -1.
         11    1    3    3    0    0  0.37693920750E+01 -0.28619717257E+01 -0.89563784560E+00  0.48167796488E+01  0.51100000000E-03 0. -1.
        -11    1    3    3    0    0 -0.20224205966E+02  0.43224629365E+01  0.20810031417E+02  0.29338704822E+02  0.51100000000E-03 0.  1.
        -12    1    3    3    0    0 -0.14318438416E+02 -0.46005914349E+01  0.64733438936E+01  0.16373371717E+02  0.00000000000E+00 0.  1.
</event>
<event>
 7    1  0.2500839E-011  0.5052885E+02  0.7816164E-02  0.1300439E+00
        -11   -1    0    0    0    0  0.00000000000E+00  0.00000000000E+00  0.45593999997E+02  0.45594000000E+02  0.51100000000E-03 0.  1.
         11   -1    0    0    0    0 -0.00000000000E+00 -0.00000000000E+00 -0.45593999997E+02  0.45594000000E+02  0.51100000000E-03 0. -1.
    9900012    2    1    2    0    0 -0.31016324470E+02  0.12105093409E+02  0.23337106740E+02  0.50528853169E+02  0.29999979692E+02 0.  0.
         12    1    1    2    0    0  0.31016324470E+02 -0.12105093409E+02 -0.23337106740E+02  0.40659146831E+02  0.00000000000E+00 0. -1.
         11    1    3    3    0    0 -0.15254392508E+02  0.42067337028E+00  0.18071619124E+02  0.23652840737E+02  0.51100000000E-03 0. -1.
        -11    1    3    3    0    0 -0.17399323987E+02  0.44752310760E+01  0.70021570125E+01  0.19281970114E+02  0.51100000000E-03 0.  1.
        -12    1    3    3    0    0  0.16373920248E+01  0.72091889625E+01 -0.17366693971E+01  0.75940423185E+01  0.00000000000E+00 0.  1.
</event>
<event>
 7    1  0.2500839E-011  0.5052886E+02  0.7816164E-02  0.1300439E+00
        -11   -1    0    0    0    0  0.00000000000E+00  0.00000000000E+00  0.45593999997E+02  0.45594000000E+02  0.51100000000E-03 0.  1.
         11   -1    0    0    0    0 -0.00000000000E+00 -0.00000000000E+00 -0.45593999997E+02  0.45594000000E+02  0.51100000000E-03 0. -1.
    9900012    2    1    2    0    0 -0.30444939639E+02  0.18434465895E+02  0.19658123796E+02  0.50528859408E+02  0.29999998658E+02 0.  0.
         12    1    1    2    0    0  0.30444939639E+02 -0.18434465895E+02 -0.19658123796E+02  0.40659140592E+02  0.00000000000E+00 0. -1.
         11    1    3    3    0    0 -0.13284166095E+02  0.15042236885E+02  0.34444634952E+01  0.20361784999E+02  0.51100000000E-03 0.  1.
        -11    1    3    3    0    0 -0.13030996127E+02  0.10369508990E+02  0.14016301437E+02  0.21766724213E+02  0.51100000000E-03 0. -1.
        -12    1    3    3    0    0 -0.41297774180E+01 -0.69772799796E+01  0.21973588634E+01  0.84003501957E+01  0.00000000000E+00 0.  1.
</event>
<event>
 7    1  0.2500839E-011  0.5052886E+02  0.7816164E-02  0.1300439E+00
        -11   -1    0    0    0    0  0.00000000000E+00  0.00000000000E+00  0.45593999997E+02  0.45594000000E+02  0.51100000000E-03 0. -1.
         11   -1    0    0    0    0 -0.00000000000E+00 -0.00000000000E+00 -0.45593999997E+02  0.45594000000E+02  0.51100000000E-03 0.  1.
    9900012    2    1    2    0    0  0.26486838161E+01 -0.29406122812E+02  0.27954066701E+02  0.50528862898E+02  0.30000009264E+02 0.  0.
         12    1    1    2    0    0 -0.26486838161E+01  0.29406122812E+02 -0.27954066701E+02  0.40659137102E+02  0.00000000000E+00 0. -1.
         11    1    3    3    0    0  0.10608367346E+02 -0.47074950560E+01  0.87817453951E+01  0.14553934859E+02  0.51100000000E-03 0. -1.
        -11    1    3    3    0    0 -0.42017738083E+01  0.66781933481E+00  0.53763027611E+01  0.68560569892E+01  0.51100000000E-03 0.  1.
        -12    1    3    3    0    0 -0.37579097214E+01 -0.25366447091E+02  0.13796018544E+02  0.29118871049E+02  0.00000000000E+00 0.  1.
</event>
<event>
 7    1  0.2500839E-011  0.5052887E+02  0.7816164E-02  0.1300439E+00
        -11   -1    0    0    0    0  0.00000000000E+00  0.00000000000E+00  0.45593999997E+02  0.45594000000E+02  0.51100000000E-03 0. -1.
         11   -1    0    0    0    0 -0.00000000000E+00 -0.00000000000E+00 -0.45593999997E+02  0.45594000000E+02  0.51100000000E-03 0.  1.
    9900012    2    1    2    0    0  0.14887326322E+02  0.40295295351E+00 -0.37833455417E+02  0.50528865664E+02  0.30000017674E+02 0.  0.
         12    1    1    2    0    0 -0.14887326322E+02 -0.40295295351E+00  0.37833455417E+02  0.40659134336E+02  0.00000000000E+00 0. -1.
         11    1    3    3    0    0 -0.44342068387E+01  0.42835520693E+01 -0.60227775922E+01  0.86188664455E+01  0.51100000000E-03 0. -1.
        -11    1    3    3    0    0  0.14795131453E+02 -0.37906005997E+01 -0.71976072359E+01  0.16884019598E+02  0.51100000000E-03 0.  1.
         12    1    3    3    0    0  0.45264017078E+01 -0.89998516025E-01 -0.24613070589E+02  0.25025979621E+02  0.00000000000E+00 0. -1.
</event>
<event>
 7    1  0.2500839E-011  0.5052886E+02  0.7816164E-02  0.1300439E+00
        -11   -1    0    0    0    0  0.00000000000E+00  0.00000000000E+00  0.45593999997E+02  0.45594000000E+02  0.51100000000E-03 0. -1.
         11   -1    0    0    0    0 -0.00000000000E+00 -0.00000000000E+00 -0.45593999997E+02  0.45594000000E+02  0.51100000000E-03 0.  1.
    9900012    2    1    2    0    0  0.20251723420E+02 -0.29111672259E+02 -0.19888285133E+02  0.50528860207E+02  0.30000001086E+02 0.  0.
         12    1    1    2    0    0 -0.20251723420E+02  0.29111672259E+02  0.19888285133E+02  0.40659139793E+02  0.00000000000E+00 0. -1.
         11    1    3    3    0    0 -0.57519150815E+01 -0.36119265650E+01 -0.95183527633E+01  0.11693142443E+02  0.51100000000E-03 0. -1.
        -11    1    3    3    0    0  0.33571818422E+01 -0.21667811237E+01  0.14314418567E+01  0.42443652541E+01  0.51100000000E-03 0.  1.
        -12    1    3    3    0    0  0.22646456659E+02 -0.23332964570E+02 -0.11801374226E+02  0.34591352510E+02  0.00000000000E+00 0.  1.
</event>
<event>
 7    1  0.2500839E-011  0.5052886E+02  0.7816164E-02  0.1300439E+00
        -11   -1    0    0    0    0  0.00000000000E+00  0.00000000000E+00  0.45593999997E+02  0.45594000000E+02  0.51100000000E-03 0.  1.
         11   -1    0    0    0    0 -0.00000000000E+00 -0.00000000000E+00 -0.45593999997E+02  0.45594000000E+02  0.51100000000E-03 0. -1.
    9900012    2    1    2    0    0 -0.35386637895E+01 -0.39631213276E+02  0.83672079142E+01  0.50528863568E+02  0.30000011300E+02 0.  0.
         12    1    1    2    0    0  0.35386637895E+01  0.39631213276E+02 -0.83672079142E+01  0.40659136432E+02  0.00000000000E+00 0. -1.
         11    1    3    3    0    0  0.32255760954E+00 -0.55993965751E+01  0.92572058426E+01  0.10823730673E+02  0.51100000000E-03 0. -1.
        -11    1    3    3    0    0  0.30023818800E+01 -0.25084061310E+02  0.66696515664E+01  0.26128694591E+02  0.51100000000E-03 0.  1.
        -12    1    3    3    0    0 -0.68636032790E+01 -0.89477553908E+01 -0.75596494948E+01  0.13576438303E+02  0.00000000000E+00 0.  1.
</event>
<event>
 7    1  0.2500839E-011  0.5052886E+02  0.7816164E-02  0.1300439E+00
        -11   -1    0    0    0    0  0.00000000000E+00  0.00000000000E+00  0.45593999997E+02  0.45594000000E+02  0.51100000000E-03 0.  1.
         11   -1    0    0    0    0 -0.00000000000E+00 -0.00000000000E+00 -0.45593999997E+02  0.45594000000E+02  0.51100000000E-03 0. -1.
    9900012    2    1    2    0    0  0.52981851167E+01 -0.70164639796E+01  0.39697159775E+02  0.50528855561E+02  0.29999986962E+02 0.  0.
         12    1    1    2    0    0 -0.52981851167E+01  0.70164639796E+01 -0.39697159775E+02  0.40659144439E+02  0.00000000000E+00 0. -1.
         11    1    3    3    0    0 -0.19568911713E+01 -0.38743604309E+01 -0.25632154886E-01  0.43405931707E+01  0.51100000000E-03 0. -1.
        -11    1    3    3    0    0  0.30679012275E+00 -0.10995110444E+02  0.29746597668E+02  0.31715085479E+02  0.51100000000E-03 0.  1.
        -12    1    3    3    0    0  0.69482861653E+01  0.78530068955E+01  0.99761942626E+01  0.14473176911E+02  0.00000000000E+00 0.  1.
</event>
<event>
 7    1  0.3029197E-011  0.5052885E+02  0.7816164E-02  0.1300439E+00
        -11   -1    0    0    0    0  0.00000000000E+00  0.00000000000E+00  0.45593999997E+02  0.45594000000E+02  0.51100000000E-03 0.  1.
         11   -1    0    0    0    0 -0.00000000000E+00 -0.00000000000E+00 -0.45593999997E+02  0.45594000000E+02  0.51100000000E-03 0. -1.
    9900012    2    1    2    0    0  0.38301896271E+02 -0.61198145160E+01 -0.12193419103E+02  0.50528845347E+02  0.29999955918E+02 0.  0.
         12    1    1    2    0    0 -0.38301896271E+02  0.61198145160E+01  0.12193419103E+02  0.40659154653E+02  0.00000000000E+00 0. -1.
         11    1    3    3    0    0 -0.28621652002E+00  0.20536899634E+01 -0.57859793308E+01  0.61463094162E+01  0.51100000000E-03 0. -1.
        -11    1    3    3    0    0  0.78943884818E+01  0.23446867081E+01  0.54080653322E+01  0.98522127545E+01  0.51100000000E-03 0.  1.
        -12    1    3    3    0    0  0.30693724309E+02 -0.10518191188E+02 -0.11815505105E+02  0.34530323177E+02  0.00000000000E+00 0.  1.
</event>
<event>
 7    1  0.2500839E-011  0.5052886E+02  0.7816164E-02  0.1300439E+00
        -11   -1    0    0    0    0  0.00000000000E+00  0.00000000000E+00  0.45593999997E+02  0.45594000000E+02  0.51100000000E-03 0. -1.
         11   -1    0    0    0    0 -0.00000000000E+00 -0.00000000000E+00 -0.45593999997E+02  0.45594000000E+02  0.51100000000E-03 0.  1.
    9900012    2    1    2    0    0 -0.29735663516E+02  0.23139732885E+02 -0.15281001454E+02  0.50528856770E+02  0.29999990639E+02 0.  0.
         12    1    1    2    0    0  0.29735663516E+02 -0.23139732885E+02  0.15281001454E+02  0.40659143230E+02  0.00000000000E+00 0. -1.
         11    1    3    3    0    0 -0.98147699923E+01  0.40899331276E+01 -0.12226154403E+01  0.10702899222E+02  0.51100000000E-03 0. -1.
        -11    1    3    3    0    0 -0.24917997891E+02  0.12655381164E+02 -0.64074630966E+01  0.28672650294E+02  0.51100000000E-03 0.  1.
         12    1    3    3    0    0  0.49971043675E+01  0.63944185941E+01 -0.76509229169E+01  0.11153307254E+02  0.00000000000E+00 0. -1.
</event>
<event>
 7    1  0.2500839E-011  0.5052889E+02  0.7816164E-02  0.1300439E+00
        -11   -1    0    0    0    0  0.00000000000E+00  0.00000000000E+00  0.45593999997E+02  0.45594000000E+02  0.51100000000E-03 0.  1.
         11   -1    0    0    0    0 -0.00000000000E+00 -0.00000000000E+00 -0.45593999997E+02  0.45594000000E+02  0.51100000000E-03 0. -1.
    9900012    2    1    2    0    0 -0.23228606953E+02  0.45155733499E+01  0.33063640697E+02  0.50528893765E+02  0.30000103088E+02 0.  0.
         12    1    1    2    0    0  0.23228606953E+02 -0.45155733499E+01 -0.33063640697E+02  0.40659106235E+02  0.00000000000E+00 0. -1.
         11    1    3    3    0    0  0.19065667083E+01  0.48366926462E+01  0.13369786072E+02  0.14345026045E+02  0.51100000000E-03 0. -1.
        -11    1    3    3    0    0 -0.11996077655E+02 -0.75809584030E+01  0.14527732033E+02  0.20308417164E+02  0.51100000000E-03 0.  1.
        -12    1    3    3    0    0 -0.13139096006E+02  0.72598391067E+01  0.51661225920E+01  0.15875450556E+02  0.00000000000E+00 0.  1.
</event>
<event>
 7    1  0.2500839E-011  0.5052886E+02  0.7816164E-02  0.1300439E+00
        -11   -1    0    0    0    0  0.00000000000E+00  0.00000000000E+00  0.45593999997E+02  0.45594000000E+02  0.51100000000E-03 0.  1.
         11   -1    0    0    0    0 -0.00000000000E+00 -0.00000000000E+00 -0.45593999997E+02  0.45594000000E+02  0.51100000000E-03 0. -1.
    9900012    2    1    2    0    0 -0.13415685500E+02 -0.50073363982E+01  0.38054065141E+02  0.50528857006E+02  0.29999991356E+02 0.  0.
         12    1    1    2    0    0  0.13415685500E+02  0.50073363982E+01 -0.38054065141E+02  0.40659142994E+02  0.00000000000E+00 0. -1.
         11    1    3    3    0    0 -0.10727718354E+02  0.35921447125E+01  0.26550102031E+02  0.28859926591E+02  0.51100000000E-03 0. -1.
        -11    1    3    3    0    0  0.22674365361E+01  0.38309725605E+01  0.52925612334E+01  0.69158386241E+01  0.51100000000E-03 0.  1.
        -12    1    3    3    0    0 -0.49554036819E+01 -0.12430453671E+02  0.62114018761E+01  0.14753091791E+02  0.00000000000E+00 0.  1.
</event>
<event>
 7    1  0.2500839E-011  0.5052885E+02  0.7816164E-02  0.1300439E+00
        -11   -1    0    0    0    0  0.00000000000E+00  0.00000000000E+00  0.45593999997E+02  0.45594000000E+02  0.51100000000E-03 0.  1.
         11   -1    0    0    0    0 -0.00000000000E+00 -0.00000000000E+00 -0.45593999997E+02  0.45594000000E+02  0.51100000000E-03 0. -1.
    9900012    2    1    2    0    0 -0.22336399411E+02  0.23651269104E+02  0.24389946612E+02  0.50528846485E+02  0.29999959375E+02 0.  0.
         12    1    1    2    0    0  0.22336399411E+02 -0.23651269104E+02 -0.24389946612E+02  0.40659153515E+02  0.00000000000E+00 0. -1.
         11    1    3    3    0    0  0.19799895121E+01  0.87496800419E+00  0.60746681811E+00  0.22483201891E+01  0.51100000000E-03 0.  1.
        -11    1    3    3    0    0 -0.18099419277E+02  0.87086389049E+01  0.25878045253E+02  0.32758244704E+02  0.51100000000E-03 0. -1.
         12    1    3    3    0    0 -0.62169696459E+01  0.14067662195E+02 -0.20955654595E+01  0.15522281591E+02  0.00000000000E+00 0. -1.
</event>
<event>
 7    1  0.2500839E-011  0.5052887E+02  0.7816164E-02  0.1300439E+00
        -11   -1    0    0    0    0  0.00000000000E+00  0.00000000000E+00  0.45593999997E+02  0.45594000000E+02  0.51100000000E-03 0.  1.
         11   -1    0    0    0    0 -0.00000000000E+00 -0.00000000000E+00 -0.45593999997E+02  0.45594000000E+02  0.51100000000E-03 0. -1.
    9900012    2    1    2    0    0  0.12432360225E+01  0.37207665810E+02  0.16346533419E+02  0.50528865901E+02  0.30000018393E+02 0.  0.
         12    1    1    2    0    0 -0.12432360225E+01 -0.37207665810E+02 -0.16346533419E+02  0.40659134099E+02  0.00000000000E+00 0. -1.
         11    1    3    3    0    0  0.31721082552E+00  0.59236601027E+01  0.92321864109E+01  0.10973770451E+02  0.51100000000E-03 0. -1.
        -11    1    3    3    0    0  0.41250060612E+01  0.20531710552E+02  0.15071500889E+02  0.25801491285E+02  0.51100000000E-03 0.  1.
         12    1    3    3    0    0 -0.31989808642E+01  0.10752295155E+02 -0.79571538804E+01  0.13753604166E+02  0.00000000000E+00 0. -1.
</event>
<event>
 7    1  0.2500839E-011  0.5052885E+02  0.7816164E-02  0.1300439E+00
        -11   -1    0    0    0    0  0.00000000000E+00  0.00000000000E+00  0.45593999997E+02  0.45594000000E+02  0.51100000000E-03 0.  1.
         11   -1    0    0    0    0 -0.00000000000E+00 -0.00000000000E+00 -0.45593999997E+02  0.45594000000E+02  0.51100000000E-03 0. -1.
    9900012    2    1    2    0    0 -0.26286521181E+02  0.25568799724E+02  0.17561940943E+02  0.50528849925E+02  0.29999969832E+02 0.  0.
         12    1    1    2    0    0  0.26286521181E+02 -0.25568799724E+02 -0.17561940943E+02  0.40659150075E+02  0.00000000000E+00 0. -1.
         11    1    3    3    0    0 -0.10269995043E+02  0.10933582540E+01  0.62943666654E+01  0.12094927963E+02  0.51100000000E-03 0. -1.
        -11    1    3    3    0    0 -0.20153793815E+02  0.19949659464E+02  0.14111234664E+02  0.31674773273E+02  0.51100000000E-03 0.  1.
         12    1    3    3    0    0  0.41372676776E+01  0.45257820059E+01 -0.28436603864E+01  0.67591486886E+01  0.00000000000E+00 0. -1.
</event>
<event>
 7    1  0.2500839E-011  0.5052886E+02  0.7816164E-02  0.1300439E+00
        -11   -1    0    0    0    0  0.00000000000E+00  0.00000000000E+00  0.45593999997E+02  0.45594000000E+02  0.51100000000E-03 0.  1.
         11   -1    0    0    0    0 -0.00000000000E+00 -0.00000000000E+00 -0.45593999997E+02  0.45594000000E+02  0.51100000000E-03 0. -1.
    9900012    2    1    2    0    0  0.25986201998E+02  0.23064112043E+02  0.21117052831E+02  0.50528857376E+02  0.29999992481E+02 0.  0.
         12    1    1    2    0    0 -0.25986201998E+02 -0.23064112043E+02 -0.21117052831E+02  0.40659142624E+02  0.00000000000E+00 0. -1.
         11    1    3    3    0    0 -0.14859680976E+01 -0.10697459620E+01  0.68197755034E+01  0.70612885359E+01  0.51100000000E-03 0. -1.
        -11    1    3    3    0    0  0.10612950232E+02  0.20627105479E+02  0.11931120659E+02  0.26085701707E+02  0.51100000000E-03 0.  1.
        -12    1    3    3    0    0  0.16859219863E+02  0.35067525259E+01  0.23661566692E+01  0.17381867134E+02  0.00000000000E+00 0.  1.
</event>
<event>
 7    1  0.4402415E-011  0.5052886E+02  0.7816164E-02  0.1300439E+00
        -11   -1    0    0    0    0  0.00000000000E+00  0.00000000000E+00  0.45593999997E+02  0.45594000000E+02  0.51100000000E-03 0. -1.
         11   -1    0    0    0    0 -0.00000000000E+00 -0.00000000000E+00 -0.45593999997E+02  0.45594000000E+02  0.51100000000E-03 0.  1.
    9900012    2    1    2    0    0 -0.18032245592E+02 -0.88960716080E+01 -0.35339268685E+02  0.50528857334E+02  0.29999992352E+02 0.  0.
         12    1    1    2    0    0  0.18032245592E+02  0.88960716080E+01  0.35339268685E+02  0.40659142666E+02  0.00000000000E+00 0. -1.
         11    1    3    3    0    0 -0.73093580632E+01  0.77843102467E+00 -0.22879161929E+01  0.76985213465E+01  0.51100000000E-03 0. -1.
        -11    1    3    3    0    0 -0.73830630349E+01  0.53548922910E+01 -0.22182734243E+02  0.23984540646E+02  0.51100000000E-03 0.  1.
        -12    1    3    3    0    0 -0.33398244937E+01 -0.15029394924E+02 -0.10868618249E+02  0.18845795342E+02  0.00000000000E+00 0.  1.
</event>
<event>
 7    1  0.2500839E-011  0.5052886E+02  0.7816164E-02  0.1300439E+00
        -11   -1    0    0    0    0  0.00000000000E+00  0.00000000000E+00  0.45593999997E+02  0.45594000000E+02  0.51100000000E-03 0. -1.
         11   -1    0    0    0    0 -0.00000000000E+00 -0.00000000000E+00 -0.45593999997E+02  0.45594000000E+02  0.51100000000E-03 0.  1.
    9900012    2    1    2    0    0  0.14243939939E+02  0.15388404417E+02 -0.34834936265E+02  0.50528860806E+02  0.30000002904E+02 0.  0.
         12    1    1    2    0    0 -0.14243939939E+02 -0.15388404417E+02  0.34834936265E+02  0.40659139194E+02  0.00000000000E+00 0. -1.
         11    1    3    3    0    0  0.45161847572E+01 -0.38985086420E+01 -0.25185462472E+01  0.64759068750E+01  0.51100000000E-03 0. -1.
        -11    1    3    3    0    0  0.14657469133E+02  0.10856038174E+02 -0.12969811680E+02  0.22381040670E+02  0.51100000000E-03 0.  1.
        -12    1    3    3    0    0 -0.49297139516E+01  0.84308748849E+01 -0.19346578338E+02  0.21671913260E+02  0.00000000000E+00 0.  1.
</event>
<event>
 7    1  0.2500839E-011  0.5052886E+02  0.7816164E-02  0.1300439E+00
        -11   -1    0    0    0    0  0.00000000000E+00  0.00000000000E+00  0.45593999997E+02  0.45594000000E+02  0.51100000000E-03 0.  1.
         11   -1    0    0    0    0 -0.00000000000E+00 -0.00000000000E+00 -0.45593999997E+02  0.45594000000E+02  0.51100000000E-03 0. -1.
    9900012    2    1    2    0    0 -0.33869669201E+02 -0.11036714327E+02  0.19601069861E+02  0.50528862102E+02  0.30000006844E+02 0.  0.
         12    1    1    2    0    0  0.33869669201E+02  0.11036714327E+02 -0.19601069861E+02  0.40659137898E+02  0.00000000000E+00 0. -1.
         11    1    3    3    0    0 -0.28316755848E+02 -0.10471067492E+02  0.12261914807E+02  0.32585832369E+02  0.51100000000E-03 0. -1.
        -11    1    3    3    0    0 -0.63653535077E+01  0.52525753791E+01  0.86164839956E+01  0.11931096768E+02  0.51100000000E-03 0.  1.
         12    1    3    3    0    0  0.81244015470E+00 -0.58182222144E+01 -0.12773289412E+01  0.60119329642E+01  0.00000000000E+00 0. -1.
</event>
<event>
 7    1  0.2500839E-011  0.5052890E+02  0.7816164E-02  0.1300439E+00
        -11   -1    0    0    0    0  0.00000000000E+00  0.00000000000E+00  0.45593999997E+02  0.45594000000E+02  0.51100000000E-03 0.  1.
         11   -1    0    0    0    0 -0.00000000000E+00 -0.00000000000E+00 -0.45593999997E+02  0.45594000000E+02  0.51100000000E-03 0. -1.
    9900012    2    1    2    0    0 -0.16247501645E+02 -0.30281861013E+02  0.21729929044E+02  0.50528902219E+02  0.30000128784E+02 0.  0.
         12    1    1    2    0    0  0.16247501645E+02  0.30281861013E+02 -0.21729929044E+02  0.40659097781E+02  0.00000000000E+00 0. -1.
         11    1    3    3    0    0 -0.41458422979E+01 -0.13916040723E+02  0.62522580304E+01  0.15809330425E+02  0.51100000000E-03 0.  1.
        -11    1    3    3    0    0 -0.14838878851E+01 -0.18629486277E+02  0.14805390559E+02  0.23842383943E+02  0.51100000000E-03 0. -1.
         12    1    3    3    0    0 -0.10617771462E+02  0.22636659869E+01  0.67228045424E+00  0.10877187851E+02  0.00000000000E+00 0. -1.
</event>
<event>
 7    1  0.2500839E-011  0.5052886E+02  0.7816164E-02  0.1300439E+00
        -11   -1    0    0    0    0  0.00000000000E+00  0.00000000000E+00  0.45593999997E+02  0.45594000000E+02  0.51100000000E-03 0. -1.
         11   -1    0    0    0    0 -0.00000000000E+00 -0.00000000000E+00 -0.45593999997E+02  0.45594000000E+02  0.51100000000E-03 0.  1.
    9900012    2    1    2    0    0  0.15139711389E+02 -0.11759554348E+02 -0.35856205782E+02  0.50528862374E+02  0.30000007672E+02 0.  0.
         12    1    1    2    0    0 -0.15139711389E+02  0.11759554348E+02  0.35856205782E+02  0.40659137626E+02  0.00000000000E+00 0. -1.
         11    1    3    3    0    0  0.86863598950E+00 -0.98074557032E+01 -0.94709812430E+01  0.13661632473E+02  0.51100000000E-03 0. -1.
        -11    1    3    3    0    0  0.13694500943E+02 -0.32071337658E+01 -0.29926088605E+02  0.33066536597E+02  0.51100000000E-03 0.  1.
         12    1    3    3    0    0  0.57657445657E+00  0.12550351211E+01  0.35408640659E+01  0.38006933042E+01  0.00000000000E+00 0. -1.
</event>
<event>
 7    1  0.2500839E-011  0.5052887E+02  0.7816164E-02  0.1300439E+00
        -11   -1    0    0    0    0  0.00000000000E+00  0.00000000000E+00  0.45593999997E+02  0.45594000000E+02  0.51100000000E-03 0. -1.
         11   -1    0    0    0    0 -0.00000000000E+00 -0.00000000000E+00 -0.45593999997E+02  0.45594000000E+02  0.51100000000E-03 0.  1.
    9900012    2    1    2    0    0 -0.37418443548E+02 -0.14815598874E+02  0.57899370531E+01  0.50528865004E+02  0.30000015666E+02 0.  0.
         12    1    1    2    0    0  0.37418443548E+02  0.14815598874E+02 -0.57899370531E+01  0.40659134996E+02  0.00000000000E+00 0. -1.
         11    1    3    3    0    0 -0.86690536116E+00  0.13984896987E+01  0.28441452292E+01  0.32857968118E+01  0.51100000000E-03 0. -1.
        -11    1    3    3    0    0 -0.74860587226E+01  0.59092564531E+01  0.47832371855E+01  0.10669570997E+02  0.51100000000E-03 0.  1.
        -12    1    3    3    0    0 -0.29065479464E+02 -0.22123345026E+02 -0.18374453617E+01  0.36573497195E+02  0.00000000000E+00 0.  1.
</event>
<event>
 7    1  0.2500839E-011  0.5052883E+02  0.7816164E-02  0.1300439E+00
        -11   -1    0    0    0    0  0.00000000000E+00  0.00000000000E+00  0.45593999997E+02  0.45594000000E+02  0.51100000000E-03 0. -1.
         11   -1    0    0    0    0 -0.00000000000E+00 -0.00000000000E+00 -0.45593999997E+02  0.45594000000E+02  0.51100000000E-03 0.  1.
    9900012    2    1    2    0    0  0.16472256767E+02  0.63224542958E+01 -0.36631398747E+02  0.50528830733E+02  0.29999911495E+02 0.  0.
         12    1    1    2    0    0 -0.16472256767E+02 -0.63224542958E+01  0.36631398747E+02  0.40659169267E+02  0.00000000000E+00 0. -1.
         11    1    3    3    0    0  0.66503897898E+00 -0.14635651493E+01 -0.28552981755E+02  0.28598200419E+02  0.51100000000E-03 0. -1.
        -11    1    3    3    0    0  0.27551137574E+01  0.14765227473E+01  0.24849283377E+01  0.39931992618E+01  0.51100000000E-03 0.  1.
        -12    1    3    3    0    0  0.13052104031E+02  0.63094966978E+01 -0.10563345330E+02  0.17937431052E+02  0.00000000000E+00 0.  1.
</event>
<event>
 7    1  0.2500839E-011  0.5052880E+02  0.7816164E-02  0.1300439E+00
        -11   -1    0    0    0    0  0.00000000000E+00  0.00000000000E+00  0.45593999997E+02  0.45594000000E+02  0.51100000000E-03 0.  1.
         11   -1    0    0    0    0 -0.00000000000E+00 -0.00000000000E+00 -0.45593999997E+02  0.45594000000E+02  0.51100000000E-03 0. -1.
    9900012    2    1    2    0    0 -0.17474783677E+02  0.33650926429E+02  0.14677103409E+02  0.50528803272E+02  0.29999828025E+02 0.  0.
         12    1    1    2    0    0  0.17474783677E+02 -0.33650926429E+02 -0.14677103409E+02  0.40659196728E+02  0.00000000000E+00 0. -1.
         11    1    3    3    0    0  0.49102706164E+00  0.16565335977E+02  0.14424415225E+02  0.21970781016E+02  0.51100000000E-03 0. -1.
        -11    1    3    3    0    0 -0.10908100813E+02  0.13931671052E+02  0.62591216295E+01  0.18768450268E+02  0.51100000000E-03 0.  1.
        -12    1    3    3    0    0 -0.70577099260E+01  0.31539194003E+01 -0.60064334452E+01  0.97895719884E+01  0.00000000000E+00 0.  1.
</event>
<event>
 7    1  0.2500839E-011  0.5052886E+02  0.7816164E-02  0.1300439E+00
        -11   -1    0    0    0    0  0.00000000000E+00  0.00000000000E+00  0.45593999997E+02  0.45594000000E+02  0.51100000000E-03 0.  1.
         11   -1    0    0    0    0 -0.00000000000E+00 -0.00000000000E+00 -0.45593999997E+02  0.45594000000E+02  0.51100000000E-03 0. -1.
    9900012    2    1    2    0    0  0.13887760459E+00 -0.14999028804E+02  0.37791209659E+02  0.50528859827E+02  0.29999999931E+02 0.  0.
         12    1    1    2    0    0 -0.13887760459E+00  0.14999028804E+02 -0.37791209659E+02  0.40659140173E+02  0.00000000000E+00 0. -1.
         11    1    3    3    0    0  0.43354177116E+01 -0.64649078641E+00  0.22987101576E+01  0.49495318689E+01  0.51100000000E-03 0. -1.
        -11    1    3    3    0    0  0.62600218441E+00 -0.13603588434E+01  0.30963518399E+02  0.30999708495E+02  0.51100000000E-03 0.  1.
         12    1    3    3    0    0 -0.48225422914E+01 -0.12992179174E+02  0.45289811033E+01  0.14579619463E+02  0.00000000000E+00 0. -1.
</event>
<event>
 7    1  0.2500839E-011  0.5052885E+02  0.7816164E-02  0.1300439E+00
        -11   -1    0    0    0    0  0.00000000000E+00  0.00000000000E+00  0.45593999997E+02  0.45594000000E+02  0.51100000000E-03 0. -1.
         11   -1    0    0    0    0 -0.00000000000E+00 -0.00000000000E+00 -0.45593999997E+02  0.45594000000E+02  0.51100000000E-03 0.  1.
    9900012    2    1    2    0    0  0.35453294560E+02  0.69586300701E+01 -0.18649598072E+02  0.50528854216E+02  0.29999982875E+02 0.  0.
         12    1    1    2    0    0 -0.35453294560E+02 -0.69586300701E+01  0.18649598072E+02  0.40659145784E+02  0.00000000000E+00 0. -1.
         11    1    3    3    0    0  0.11696038408E+02  0.14289770159E+02 -0.48580011673E+01  0.19094371454E+02  0.51100000000E-03 0. -1.
        -11    1    3    3    0    0  0.22109411545E+02 -0.15430262067E+01 -0.11710042605E+02  0.25066553548E+02  0.51100000000E-03 0.  1.
         12    1    3    3    0    0  0.16478446077E+01 -0.57881138819E+01 -0.20815542997E+01  0.63679292131E+01  0.00000000000E+00 0. -1.
</event>
<event>
 7    1  0.2500839E-011  0.5052886E+02  0.7816164E-02  0.1300439E+00
        -11   -1    0    0    0    0  0.00000000000E+00  0.00000000000E+00  0.45593999997E+02  0.45594000000E+02  0.51100000000E-03 0. -1.
         11   -1    0    0    0    0 -0.00000000000E+00 -0.00000000000E+00 -0.45593999997E+02  0.45594000000E+02  0.51100000000E-03 0.  1.
    9900012    2    1    2    0    0  0.17383942572E+02 -0.91671762339E+01 -0.35593921495E+02  0.50528858016E+02  0.29999994426E+02 0.  0.
         12    1    1    2    0    0 -0.17383942572E+02  0.91671762339E+01  0.35593921495E+02  0.40659141984E+02  0.00000000000E+00 0. -1.
         11    1    3    3    0    0  0.10672517184E+02 -0.27382119061E+01 -0.30566953001E+02  0.32492138180E+02  0.51100000000E-03 0. -1.
        -11    1    3    3    0    0 -0.36328935978E+01  0.16268779401E+01 -0.24519742495E+01  0.46751284161E+01  0.51100000000E-03 0.  1.
         12    1    3    3    0    0  0.10344318986E+02 -0.80558422679E+01 -0.25749942449E+01  0.13361591420E+02  0.00000000000E+00 0. -1.
</event>
<event>
 7    1  0.2500839E-011  0.5052885E+02  0.7816164E-02  0.1300439E+00
        -11   -1    0    0    0    0  0.00000000000E+00  0.00000000000E+00  0.45593999997E+02  0.45594000000E+02  0.51100000000E-03 0. -1.
         11   -1    0    0    0    0 -0.00000000000E+00 -0.00000000000E+00 -0.45593999997E+02  0.45594000000E+02  0.51100000000E-03 0.  1.
    9900012    2    1    2    0    0  0.14240988069E+02  0.24855336576E+02  0.28854340559E+02  0.50528850149E+02  0.29999970514E+02 0.  0.
         12    1    1    2    0    0 -0.14240988069E+02 -0.24855336576E+02 -0.28854340559E+02  0.40659149851E+02  0.00000000000E+00 0. -1.
         11    1    3    3    0    0  0.14494350911E+02  0.19179915807E+02  0.15173157808E+02  0.28428508523E+02  0.51100000000E-03 0.  1.
        -11    1    3    3    0    0  0.54861314823E+01 -0.19682871571E+01  0.10530308806E+02  0.12035746624E+02  0.51100000000E-03 0. -1.
         12    1    3    3    0    0 -0.57394943242E+01  0.76437079261E+01  0.31508739448E+01  0.10064595003E+02  0.00000000000E+00 0. -1.
</event>
<event>
 7    1  0.2500839E-011  0.5052887E+02  0.7816164E-02  0.1300439E+00
        -11   -1    0    0    0    0  0.00000000000E+00  0.00000000000E+00  0.45593999997E+02  0.45594000000E+02  0.51100000000E-03 0.  1.
         11   -1    0    0    0    0 -0.00000000000E+00 -0.00000000000E+00 -0.45593999997E+02  0.45594000000E+02  0.51100000000E-03 0. -1.
    9900012    2    1    2    0    0  0.19934055015E+02  0.33868785356E+02 -0.10426110213E+02  0.50528868861E+02  0.30000027389E+02 0.  0.
         12    1    1    2    0    0 -0.19934055015E+02 -0.33868785356E+02  0.10426110213E+02  0.40659131139E+02  0.00000000000E+00 0. -1.
         11    1    3    3    0    0  0.83742651649E+01  0.12301958405E+02 -0.10054496153E+02  0.17959938497E+02  0.51100000000E-03 0. -1.
        -11    1    3    3    0    0 -0.56271917248E+01  0.81754019045E+01 -0.35698158365E+01  0.10547325176E+02  0.51100000000E-03 0.  1.
         12    1    3    3    0    0  0.17186981575E+02  0.13391425046E+02  0.31982017768E+01  0.22021605188E+02  0.00000000000E+00 0. -1.
</event>
<event>
 7    1  0.2500839E-011  0.5052885E+02  0.7816164E-02  0.1300439E+00
        -11   -1    0    0    0    0  0.00000000000E+00  0.00000000000E+00  0.45593999997E+02  0.45594000000E+02  0.51100000000E-03 0. -1.
         11   -1    0    0    0    0 -0.00000000000E+00 -0.00000000000E+00 -0.45593999997E+02  0.45594000000E+02  0.51100000000E-03 0.  1.
    9900012    2    1    2    0    0 -0.34492219863E+02  0.59639292854E+01  0.20685379535E+02  0.50528848384E+02  0.29999965148E+02 0.  0.
         12    1    1    2    0    0  0.34492219863E+02 -0.59639292854E+01 -0.20685379535E+02  0.40659151616E+02  0.00000000000E+00 0. -1.
         11    1    3    3    0    0 -0.24357305677E+02  0.10534834398E+02  0.85828019569E+01  0.27891317024E+02  0.51100000000E-03 0.  1.
        -11    1    3    3    0    0 -0.17537636240E+01  0.25071279843E+01 -0.27900238117E+01  0.41407258675E+01  0.51100000000E-03 0. -1.
         12    1    3    3    0    0 -0.83811505621E+01 -0.70780330971E+01  0.14892601390E+02  0.18496805492E+02  0.00000000000E+00 0. -1.
</event>
<event>
 7    1  0.2500839E-011  0.5052885E+02  0.7816164E-02  0.1300439E+00
        -11   -1    0    0    0    0  0.00000000000E+00  0.00000000000E+00  0.45593999997E+02  0.45594000000E+02  0.51100000000E-03 0.  1.
         11   -1    0    0    0    0 -0.00000000000E+00 -0.00000000000E+00 -0.45593999997E+02  0.45594000000E+02  0.51100000000E-03 0. -1.
    9900012    2    1    2    0    0 -0.28156543061E+02  0.21602285913E+02  0.19842288868E+02  0.50528854641E+02  0.29999984168E+02 0.  0.
         12    1    1    2    0    0  0.28156543061E+02 -0.21602285913E+02 -0.19842288868E+02  0.40659145359E+02  0.00000000000E+00 0. -1.
         11    1    3    3    0    0 -0.75299753519E+01  0.20742866488E+02  0.46553733082E+01  0.22553038372E+02  0.51100000000E-03 0. -1.
        -11    1    3    3    0    0 -0.61480799730E+01  0.52918526324E+01  0.72520045573E+01  0.10880908142E+02  0.51100000000E-03 0.  1.
         12    1    3    3    0    0 -0.14478487736E+02 -0.44324332075E+01  0.79349110022E+01  0.17094908127E+02  0.00000000000E+00 0. -1.
</event>
<event>
 7    1  0.2500839E-011  0.5052885E+02  0.7816164E-02  0.1300439E+00
        -11   -1    0    0    0    0  0.00000000000E+00  0.00000000000E+00  0.45593999997E+02  0.45594000000E+02  0.51100000000E-03 0.  1.
         11   -1    0    0    0    0 -0.00000000000E+00 -0.00000000000E+00 -0.45593999997E+02  0.45594000000E+02  0.51100000000E-03 0. -1.
    9900012    2    1    2    0    0  0.11085439375E+01  0.15875541685E+02  0.37415301128E+02  0.50528850330E+02  0.29999971062E+02 0.  0.
         12    1    1    2    0    0 -0.11085439375E+01 -0.15875541685E+02 -0.37415301128E+02  0.40659149670E+02  0.00000000000E+00 0. -1.
         11    1    3    3    0    0  0.71233128148E+01  0.86064487016E+01  0.53589920270E+01  0.12390776429E+02  0.51100000000E-03 0. -1.
        -11    1    3    3    0    0  0.56367350926E+01 -0.99314767805E+00  0.13931800446E+02  0.15061679480E+02  0.51100000000E-03 0.  1.
        -12    1    3    3    0    0 -0.11651503970E+02  0.82622406613E+01  0.18124508654E+02  0.23076394421E+02  0.00000000000E+00 0.  1.
</event>
<event>
 7    1  0.2500839E-011  0.5052885E+02  0.7816164E-02  0.1300439E+00
        -11   -1    0    0    0    0  0.00000000000E+00  0.00000000000E+00  0.45593999997E+02  0.45594000000E+02  0.51100000000E-03 0.  1.
         11   -1    0    0    0    0 -0.00000000000E+00 -0.00000000000E+00 -0.45593999997E+02  0.45594000000E+02  0.51100000000E-03 0. -1.
    9900012    2    1    2    0    0 -0.84192856415E+01  0.28854162511E+02  0.27381005099E+02  0.50528849674E+02  0.29999969070E+02 0.  0.
         12    1    1    2    0    0  0.84192856415E+01 -0.28854162511E+02 -0.27381005099E+02  0.40659150326E+02  0.00000000000E+00 0. -1.
         11    1    3    3    0    0  0.72486613342E+01  0.39131747499E+01 -0.11972507570E+01  0.83240277148E+01  0.51100000000E-03 0. -1.
        -11    1    3    3    0    0 -0.10367561967E+01  0.26555825715E+01 -0.34258671276E+00  0.28712972891E+01  0.51100000000E-03 0.  1.
        -12    1    3    3    0    0 -0.14631190779E+02  0.22285405190E+02  0.28920842569E+02  0.39333524670E+02  0.00000000000E+00 0.  1.
</event>
<event>
 7    1  0.2500839E-011  0.5052887E+02  0.7816164E-02  0.1300439E+00
        -11   -1    0    0    0    0  0.00000000000E+00  0.00000000000E+00  0.45593999997E+02  0.45594000000E+02  0.51100000000E-03 0. -1.
         11   -1    0    0    0    0 -0.00000000000E+00 -0.00000000000E+00 -0.45593999997E+02  0.45594000000E+02  0.51100000000E-03 0.  1.
    9900012    2    1    2    0    0  0.32173818906E+02  0.24546202725E+02  0.39362442111E+01  0.50528871754E+02  0.30000036184E+02 0.  0.
         12    1    1    2    0    0 -0.32173818906E+02 -0.24546202725E+02 -0.39362442111E+01  0.40659128246E+02  0.00000000000E+00 0. -1.
         11    1    3    3    0    0  0.11125570504E+02  0.10036185324E+02 -0.10370221392E+02  0.18222097214E+02  0.51100000000E-03 0.  1.
        -11    1    3    3    0    0 -0.77785713836E-01  0.56548760609E+01  0.79235928077E+00  0.57106485947E+01  0.51100000000E-03 0. -1.
         12    1    3    3    0    0  0.21126034116E+02  0.88551413397E+01  0.13514106322E+02  0.26596125945E+02  0.00000000000E+00 0. -1.
</event>
<event>
 7    1  0.2500839E-011  0.5052885E+02  0.7816164E-02  0.1300439E+00
        -11   -1    0    0    0    0  0.00000000000E+00  0.00000000000E+00  0.45593999997E+02  0.45594000000E+02  0.51100000000E-03 0. -1.
         11   -1    0    0    0    0 -0.00000000000E+00 -0.00000000000E+00 -0.45593999997E+02  0.45594000000E+02  0.51100000000E-03 0.  1.
    9900012    2    1    2    0    0 -0.23785782451E+02 -0.19904824891E+01 -0.32915665958E+02  0.50528849335E+02  0.29999968038E+02 0.  0.
         12    1    1    2    0    0  0.23785782451E+02  0.19904824891E+01  0.32915665958E+02  0.40659150665E+02  0.00000000000E+00 0. -1.
         11    1    3    3    0    0 -0.15487397892E+00 -0.24051023948E+01 -0.16488428556E+02  0.16663636457E+02  0.51100000000E-03 0. -1.
        -11    1    3    3    0    0 -0.11395227721E+02  0.21583982807E+01 -0.17993157824E+02  0.21407092906E+02  0.51100000000E-03 0.  1.
        -12    1    3    3    0    0 -0.12235680751E+02 -0.17437783750E+01  0.15659204214E+01  0.12458119972E+02  0.00000000000E+00 0.  1.
</event>
<event>
 7    1  0.2500839E-011  0.5052886E+02  0.7816164E-02  0.1300439E+00
        -11   -1    0    0    0    0  0.00000000000E+00  0.00000000000E+00  0.45593999997E+02  0.45594000000E+02  0.51100000000E-03 0.  1.
         11   -1    0    0    0    0 -0.00000000000E+00 -0.00000000000E+00 -0.45593999997E+02  0.45594000000E+02  0.51100000000E-03 0. -1.
    9900012    2    1    2    0    0  0.11491898875E+02 -0.24678901742E+02  0.30200226031E+02  0.50528861011E+02  0.30000003530E+02 0.  0.
         12    1    1    2    0    0 -0.11491898875E+02  0.24678901742E+02 -0.30200226031E+02  0.40659138989E+02  0.00000000000E+00 0. -1.
         11    1    3    3    0    0 -0.35633932187E+01 -0.13703307001E+00  0.94192260588E+00  0.36883285849E+01  0.51100000000E-03 0. -1.
        -11    1    3    3    0    0  0.16854026633E+02 -0.26839670096E+02  0.30196770622E+02  0.43775233419E+02  0.51100000000E-03 0.  1.
         12    1    3    3    0    0 -0.17987345388E+01  0.22978014244E+01 -0.93846719668E+00  0.30652990076E+01  0.00000000000E+00 0. -1.
</event>
<event>
 7    1  0.2500839E-011  0.5052887E+02  0.7816164E-02  0.1300439E+00
        -11   -1    0    0    0    0  0.00000000000E+00  0.00000000000E+00  0.45593999997E+02  0.45594000000E+02  0.51100000000E-03 0.  1.
         11   -1    0    0    0    0 -0.00000000000E+00 -0.00000000000E+00 -0.45593999997E+02  0.45594000000E+02  0.51100000000E-03 0. -1.
    9900012    2    1    2    0    0  0.55738881336E+01 -0.31360483355E+02  0.25270859770E+02  0.50528874349E+02  0.30000044072E+02 0.  0.
         12    1    1    2    0    0 -0.55738881336E+01  0.31360483355E+02 -0.25270859770E+02  0.40659125651E+02  0.00000000000E+00 0. -1.
         11    1    3    3    0    0  0.37710929763E+01 -0.21369658534E+02  0.18126539895E+02  0.28274633453E+02  0.51100000000E-03 0. -1.
        -11    1    3    3    0    0 -0.26521883341E+01 -0.13819320821E+02  0.15744635297E+01  0.14159331432E+02  0.51100000000E-03 0.  1.
         12    1    3    3    0    0  0.44549834914E+01  0.38284960001E+01  0.55698563452E+01  0.80949094644E+01  0.00000000000E+00 0. -1.
</event>
<event>
 7    1  0.2500839E-011  0.5052886E+02  0.7816164E-02  0.1300439E+00
        -11   -1    0    0    0    0  0.00000000000E+00  0.00000000000E+00  0.45593999997E+02  0.45594000000E+02  0.51100000000E-03 0. -1.
         11   -1    0    0    0    0 -0.00000000000E+00 -0.00000000000E+00 -0.45593999997E+02  0.45594000000E+02  0.51100000000E-03 0.  1.
    9900012    2    1    2    0    0 -0.22185903025E+01 -0.35115584971E+02 -0.20374960306E+02  0.50528862549E+02  0.30000008204E+02 0.  0.
         12    1    1    2    0    0  0.22185903025E+01  0.35115584971E+02  0.20374960306E+02  0.40659137451E+02  0.00000000000E+00 0. -1.
         11    1    3    3    0    0 -0.56714058999E+01 -0.36972650834E+01 -0.50427002958E+01  0.84417676178E+01  0.51100000000E-03 0. -1.
        -11    1    3    3    0    0 -0.46151563900E+01 -0.29688948465E+02 -0.15554106759E+02  0.33832877010E+02  0.51100000000E-03 0.  1.
         12    1    3    3    0    0  0.80679719874E+01 -0.17293714228E+01  0.22184674880E+00  0.82542179210E+01  0.00000000000E+00 0. -1.
</event>
<event>
 7    1  0.2500839E-011  0.5052884E+02  0.7816164E-02  0.1300439E+00
        -11   -1    0    0    0    0  0.00000000000E+00  0.00000000000E+00  0.45593999997E+02  0.45594000000E+02  0.51100000000E-03 0. -1.
         11   -1    0    0    0    0 -0.00000000000E+00 -0.00000000000E+00 -0.45593999997E+02  0.45594000000E+02  0.51100000000E-03 0.  1.
    9900012    2    1    2    0    0 -0.64931648821E+01  0.19361367543E+02 -0.35158835258E+02  0.50528838178E+02  0.29999934127E+02 0.  0.
         12    1    1    2    0    0  0.64931648821E+01 -0.19361367543E+02  0.35158835258E+02  0.40659161822E+02  0.00000000000E+00 0. -1.
         11    1    3    3    0    0 -0.47997799137E+01 -0.70601084325E+00 -0.22290748844E+01  0.53390180401E+01  0.51100000000E-03 0. -1.
        -11    1    3    3    0    0  0.62195536263E+00 -0.67072740007E+00 -0.21263363712E+02  0.21283029397E+02  0.51100000000E-03 0.  1.
         12    1    3    3    0    0 -0.23153403311E+01  0.20738105787E+02 -0.11666396662E+02  0.23906790741E+02  0.00000000000E+00 0. -1.
</event>
<event>
 7    1  0.2500839E-011  0.5052886E+02  0.7816164E-02  0.1300439E+00
        -11   -1    0    0    0    0  0.00000000000E+00  0.00000000000E+00  0.45593999997E+02  0.45594000000E+02  0.51100000000E-03 0.  1.
         11   -1    0    0    0    0 -0.00000000000E+00 -0.00000000000E+00 -0.45593999997E+02  0.45594000000E+02  0.51100000000E-03 0. -1.
    9900012    2    1    2    0    0  0.13623401274E+02 -0.37931412100E+02 -0.53643447775E+01  0.50528864728E+02  0.30000014828E+02 0.  0.
         12    1    1    2    0    0 -0.13623401274E+02  0.37931412100E+02  0.53643447775E+01  0.40659135272E+02  0.00000000000E+00 0. -1.
         11    1    3    3    0    0  0.37527168751E+01  0.28224801109E+01 -0.28122808635E+00  0.47040798695E+01  0.51100000000E-03 0. -1.
        -11    1    3    3    0    0 -0.12609094116E+01 -0.10018570714E+02  0.54578767894E+01  0.11478243376E+02  0.51100000000E-03 0.  1.
         12    1    3    3    0    0  0.11131593811E+02 -0.30735321496E+02 -0.10540993481E+02  0.34346541483E+02  0.00000000000E+00 0. -1.
</event>
<event>
 7    1  0.2500839E-011  0.5052886E+02  0.7816164E-02  0.1300439E+00
        -11   -1    0    0    0    0  0.00000000000E+00  0.00000000000E+00  0.45593999997E+02  0.45594000000E+02  0.51100000000E-03 0. -1.
         11   -1    0    0    0    0 -0.00000000000E+00 -0.00000000000E+00 -0.45593999997E+02  0.45594000000E+02  0.51100000000E-03 0.  1.
    9900012    2    1    2    0    0 -0.15545309542E+02 -0.19148409138E+02 -0.32324103381E+02  0.50528857355E+02  0.29999992415E+02 0.  0.
         12    1    1    2    0    0  0.15545309542E+02  0.19148409138E+02  0.32324103381E+02  0.40659142645E+02  0.00000000000E+00 0. -1.
         11    1    3    3    0    0 -0.63902157453E+01 -0.56792221433E+01 -0.98279862728E+01  0.13026040683E+02  0.51100000000E-03 0. -1.
        -11    1    3    3    0    0 -0.45738043569E+00 -0.19109274052E+02 -0.11128318476E+02  0.22118160503E+02  0.51100000000E-03 0.  1.
         12    1    3    3    0    0 -0.86977133611E+01  0.56400870571E+01 -0.11367798632E+02  0.15384656169E+02  0.00000000000E+00 0. -1.
</event>
<event>
 7    1  0.2500839E-011  0.5052887E+02  0.7816164E-02  0.1300439E+00
        -11   -1    0    0    0    0  0.00000000000E+00  0.00000000000E+00  0.45593999997E+02  0.45594000000E+02  0.51100000000E-03 0.  1.
         11   -1    0    0    0    0 -0.00000000000E+00 -0.00000000000E+00 -0.45593999997E+02  0.45594000000E+02  0.51100000000E-03 0. -1.
    9900012    2    1    2    0    0  0.34639247215E+02  0.10193647617E+02  0.18691638688E+02  0.50528865034E+02  0.30000015757E+02 0.  0.
         12    1    1    2    0    0 -0.34639247215E+02 -0.10193647617E+02 -0.18691638688E+02  0.40659134966E+02  0.00000000000E+00 0. -1.
         11    1    3    3    0    0  0.21879588966E+02 -0.22159076417E+01  0.27706318958E+00  0.21993258610E+02  0.51100000000E-03 0. -1.
        -11    1    3    3    0    0  0.31831083148E+01  0.43046548820E+01 -0.97436107929E+00  0.54416552602E+01  0.51100000000E-03 0.  1.
        -12    1    3    3    0    0  0.95765499338E+01  0.81049003768E+01  0.19388936578E+02  0.23093951164E+02  0.00000000000E+00 0.  1.
</event>
<event>
 7    1  0.2698793E-011  0.5052886E+02  0.7816164E-02  0.1300439E+00
        -11   -1    0    0    0    0  0.00000000000E+00  0.00000000000E+00  0.45593999997E+02  0.45594000000E+02  0.51100000000E-03 0. -1.
         11   -1    0    0    0    0 -0.00000000000E+00 -0.00000000000E+00 -0.45593999997E+02  0.45594000000E+02  0.51100000000E-03 0.  1.
    9900012    2    1    2    0    0  0.32850510391E+02 -0.61812537144E+01 -0.23147389328E+02  0.50528861259E+02  0.30000004283E+02 0.  0.
         12    1    1    2    0    0 -0.32850510391E+02  0.61812537144E+01  0.23147389328E+02  0.40659138741E+02  0.00000000000E+00 0. -1.
         11    1    3    3    0    0  0.27412180038E+01 -0.59382005910E+00  0.37083039979E+01  0.46495609694E+01  0.51100000000E-03 0. -1.
        -11    1    3    3    0    0  0.55828803858E+01 -0.95004168964E+01 -0.14289056123E+02  0.18044489457E+02  0.51100000000E-03 0.  1.
        -12    1    3    3    0    0  0.24526412002E+02  0.39129832411E+01 -0.12566637203E+02  0.27834810833E+02  0.00000000000E+00 0.  1.
</event>
<event>
 7    1  0.2500839E-011  0.5052887E+02  0.7816164E-02  0.1300439E+00
        -11   -1    0    0    0    0  0.00000000000E+00  0.00000000000E+00  0.45593999997E+02  0.45594000000E+02  0.51100000000E-03 0.  1.
         11   -1    0    0    0    0 -0.00000000000E+00 -0.00000000000E+00 -0.45593999997E+02  0.45594000000E+02  0.51100000000E-03 0. -1.
    9900012    2    1    2    0    0  0.31269632294E+02  0.25983827679E+02 -0.46469424507E+00  0.50528866396E+02  0.30000019898E+02 0.  0.
         12    1    1    2    0    0 -0.31269632294E+02 -0.25983827679E+02  0.46469424507E+00  0.40659133604E+02  0.00000000000E+00 0. -1.
         11    1    3    3    0    0 -0.23624483308E+01  0.84108580511E+01  0.37186741719E+01  0.94948529810E+01  0.51100000000E-03 0. -1.
        -11    1    3    3    0    0  0.18109125707E+02  0.57895196497E+01  0.47482854415E+01  0.19596050279E+02  0.51100000000E-03 0.  1.
         12    1    3    3    0    0  0.15522954918E+02  0.11783449979E+02 -0.89316538585E+01  0.21437963136E+02  0.00000000000E+00 0. -1.
</event>
<event>
 7    1  0.2500839E-011  0.5052887E+02  0.7816164E-02  0.1300439E+00
        -11   -1    0    0    0    0  0.00000000000E+00  0.00000000000E+00  0.45593999997E+02  0.45594000000E+02  0.51100000000E-03 0.  1.
         11   -1    0    0    0    0 -0.00000000000E+00 -0.00000000000E+00 -0.45593999997E+02  0.45594000000E+02  0.51100000000E-03 0. -1.
    9900012    2    1    2    0    0  0.98151267120E+01  0.18524251485E+02  0.34837916489E+02  0.50528867806E+02  0.30000024184E+02 0.  0.
         12    1    1    2    0    0 -0.98151267120E+01 -0.18524251485E+02 -0.34837916489E+02  0.40659132194E+02  0.00000000000E+00 0. -1.
         11    1    3    3    0    0  0.16235853135E+02  0.15817158579E+02  0.12239382179E+02  0.25760200095E+02  0.51100000000E-03 0. -1.
        -11    1    3    3    0    0 -0.13200254368E+01  0.36277451422E+01  0.44337213076E+01  0.58788508116E+01  0.51100000000E-03 0.  1.
        -12    1    3    3    0    0 -0.51007009865E+01 -0.92065223656E+00  0.18164813002E+02  0.18889816900E+02  0.00000000000E+00 0.  1.
</event>
<event>
 7    1  0.2500839E-011  0.5052887E+02  0.7816164E-02  0.1300439E+00
        -11   -1    0    0    0    0  0.00000000000E+00  0.00000000000E+00  0.45593999997E+02  0.45594000000E+02  0.51100000000E-03 0.  1.
         11   -1    0    0    0    0 -0.00000000000E+00 -0.00000000000E+00 -0.45593999997E+02  0.45594000000E+02  0.51100000000E-03 0. -1.
    9900012    2    1    2    0    0 -0.62828262239E+01 -0.44493770784E+00  0.40168311257E+02  0.50528866903E+02  0.30000021440E+02 0.  0.
         12    1    1    2    0    0  0.62828262239E+01  0.44493770784E+00 -0.40168311257E+02  0.40659133097E+02  0.00000000000E+00 0. -1.
         11    1    3    3    0    0  0.28172126114E+01  0.65749863760E+01  0.33841735108E+02  0.34589451689E+02  0.51100000000E-03 0.  1.
        -11    1    3    3    0    0 -0.22591702986E+01 -0.67439872587E+01  0.56042415733E+01  0.90549841776E+01  0.51100000000E-03 0. -1.
        -12    1    3    3    0    0 -0.68408685367E+01 -0.27593682522E+00  0.72233457592E+00  0.68844310373E+01  0.00000000000E+00 0.  1.
</event>
<event>
 7    1  0.2500839E-011  0.5052874E+02  0.7816164E-02  0.1300439E+00
        -11   -1    0    0    0    0  0.00000000000E+00  0.00000000000E+00  0.45593999997E+02  0.45594000000E+02  0.51100000000E-03 0.  1.
         11   -1    0    0    0    0 -0.00000000000E+00 -0.00000000000E+00 -0.45593999997E+02  0.45594000000E+02  0.51100000000E-03 0. -1.
    9900012    2    1    2    0    0 -0.32637990604E+02 -0.36874934379E+01  0.23965373462E+02  0.50528743198E+02  0.29999645423E+02 0.  0.
         12    1    1    2    0    0  0.32637990604E+02  0.36874934379E+01 -0.23965373462E+02  0.40659256802E+02  0.00000000000E+00 0. -1.
         11    1    3    3    0    0  0.10630750178E+01  0.36287216537E+01  0.44890647650E+01  0.58693655585E+01  0.51100000000E-03 0. -1.
        -11    1    3    3    0    0 -0.97064400463E+01 -0.15287643872E+01  0.17280951037E+02  0.19879219500E+02  0.51100000000E-03 0.  1.
        -12    1    3    3    0    0 -0.23994625575E+02 -0.57874507044E+01  0.21953576593E+01  0.24780158139E+02  0.00000000000E+00 0.  1.
</event>
<event>
 7    1  0.2500839E-011  0.5052886E+02  0.7816164E-02  0.1300439E+00
        -11   -1    0    0    0    0  0.00000000000E+00  0.00000000000E+00  0.45593999997E+02  0.45594000000E+02  0.51100000000E-03 0.  1.
         11   -1    0    0    0    0 -0.00000000000E+00 -0.00000000000E+00 -0.45593999997E+02  0.45594000000E+02  0.51100000000E-03 0. -1.
    9900012    2    1    2    0    0  0.59231591459E+01 -0.20297368885E+02  0.34728930818E+02  0.50528860392E+02  0.30000001647E+02 0.  0.
         12    1    1    2    0    0 -0.59231591459E+01  0.20297368885E+02 -0.34728930818E+02  0.40659139608E+02  0.00000000000E+00 0. -1.
         11    1    3    3    0    0  0.40104474823E+01 -0.33639687098E+01  0.13353121692E+01  0.54021322956E+01  0.51100000000E-03 0. -1.
        -11    1    3    3    0    0  0.82810876082E+01  0.81160795858E+00  0.20937648565E+02  0.22530429360E+02  0.51100000000E-03 0.  1.
        -12    1    3    3    0    0 -0.63683759446E+01 -0.17745008134E+02  0.12455970083E+02  0.22596298736E+02  0.00000000000E+00 0.  1.
</event>
<event>
 7    1  0.2500839E-011  0.5052886E+02  0.7816164E-02  0.1300439E+00
        -11   -1    0    0    0    0  0.00000000000E+00  0.00000000000E+00  0.45593999997E+02  0.45594000000E+02  0.51100000000E-03 0.  1.
         11   -1    0    0    0    0 -0.00000000000E+00 -0.00000000000E+00 -0.45593999997E+02  0.45594000000E+02  0.51100000000E-03 0. -1.
    9900012    2    1    2    0    0  0.10040672824E+01 -0.35278514259E+02  0.20188707989E+02  0.50528860194E+02  0.30000001047E+02 0.  0.
         12    1    1    2    0    0 -0.10040672824E+01  0.35278514259E+02 -0.20188707989E+02  0.40659139806E+02  0.00000000000E+00 0. -1.
         11    1    3    3    0    0  0.43139670469E+01 -0.21737371272E+02  0.22503279106E+02  0.31583558892E+02  0.51100000000E-03 0.  1.
        -11    1    3    3    0    0  0.63521883639E+00  0.15240276958E+01  0.21816997818E+01  0.27360514591E+01  0.51100000000E-03 0. -1.
         12    1    3    3    0    0 -0.39451186009E+01 -0.15065170683E+02 -0.44962708986E+01  0.16209249843E+02  0.00000000000E+00 0. -1.
</event>
<event>
 7    1  0.2500839E-011  0.5052886E+02  0.7816164E-02  0.1300439E+00
        -11   -1    0    0    0    0  0.00000000000E+00  0.00000000000E+00  0.45593999997E+02  0.45594000000E+02  0.51100000000E-03 0. -1.
         11   -1    0    0    0    0 -0.00000000000E+00 -0.00000000000E+00 -0.45593999997E+02  0.45594000000E+02  0.51100000000E-03 0.  1.
    9900012    2    1    2    0    0 -0.35966874467E+02 -0.11689154457E+02 -0.14930272362E+02  0.50528862974E+02  0.30000009496E+02 0.  0.
         12    1    1    2    0    0  0.35966874467E+02  0.11689154457E+02  0.14930272362E+02  0.40659137026E+02  0.00000000000E+00 0. -1.
         11    1    3    3    0    0 -0.91457915141E+01 -0.90529184173E+01 -0.19148279791E+01  0.13010280579E+02  0.51100000000E-03 0. -1.
        -11    1    3    3    0    0 -0.28980453623E+02 -0.73881947665E+01 -0.11856668263E+02  0.32171924044E+02  0.51100000000E-03 0.  1.
         12    1    3    3    0    0  0.21593706701E+01  0.47519587267E+01 -0.11587761203E+01  0.53466583515E+01  0.00000000000E+00 0. -1.
</event>
<event>
 7    1  0.2500839E-011  0.5052886E+02  0.7816164E-02  0.1300439E+00
        -11   -1    0    0    0    0  0.00000000000E+00  0.00000000000E+00  0.45593999997E+02  0.45594000000E+02  0.51100000000E-03 0. -1.
         11   -1    0    0    0    0 -0.00000000000E+00 -0.00000000000E+00 -0.45593999997E+02  0.45594000000E+02  0.51100000000E-03 0.  1.
    9900012    2    1    2    0    0  0.87582338451E+01  0.37348493160E+02 -0.13474027452E+02  0.50528855675E+02  0.29999987310E+02 0.  0.
         12    1    1    2    0    0 -0.87582338451E+01 -0.37348493160E+02  0.13474027452E+02  0.40659144325E+02  0.00000000000E+00 0. -1.
         11    1    3    3    0    0  0.94390630483E+01  0.66330858026E+01 -0.82568184851E+01  0.14186923213E+02  0.51100000000E-03 0. -1.
        -11    1    3    3    0    0  0.48168900466E+01  0.96705274254E+01  0.54671700031E+01  0.12108322696E+02  0.51100000000E-03 0.  1.
        -12    1    3    3    0    0 -0.54977192498E+01  0.21044879932E+02 -0.10684378970E+02  0.24233609766E+02  0.00000000000E+00 0.  1.
</event>
<event>
 7    1  0.2500839E-011  0.5052886E+02  0.7816164E-02  0.1300439E+00
        -11   -1    0    0    0    0  0.00000000000E+00  0.00000000000E+00  0.45593999997E+02  0.45594000000E+02  0.51100000000E-03 0.  1.
         11   -1    0    0    0    0 -0.00000000000E+00 -0.00000000000E+00 -0.45593999997E+02  0.45594000000E+02  0.51100000000E-03 0. -1.
    9900012    2    1    2    0    0 -0.35112050697E+01 -0.23020594861E+02  0.33330010126E+02  0.50528856824E+02  0.29999990802E+02 0.  0.
         12    1    1    2    0    0  0.35112050697E+01  0.23020594861E+02 -0.33330010126E+02  0.40659143176E+02  0.00000000000E+00 0. -1.
         11    1    3    3    0    0  0.26069550860E+01 -0.14330845928E+02  0.27673692423E+02  0.31273033310E+02  0.51100000000E-03 0. -1.
        -11    1    3    3    0    0 -0.76724423316E+01 -0.23671658395E+01  0.88958630545E+01  0.11983581484E+02  0.51100000000E-03 0.  1.
         12    1    3    3    0    0  0.15542821759E+01 -0.63225830936E+01 -0.32395453513E+01  0.72722420299E+01  0.00000000000E+00 0. -1.
</event>
<event>
 7    1  0.2500839E-011  0.5052886E+02  0.7816164E-02  0.1300439E+00
        -11   -1    0    0    0    0  0.00000000000E+00  0.00000000000E+00  0.45593999997E+02  0.45594000000E+02  0.51100000000E-03 0.  1.
         11   -1    0    0    0    0 -0.00000000000E+00 -0.00000000000E+00 -0.45593999997E+02  0.45594000000E+02  0.51100000000E-03 0. -1.
    9900012    2    1    2    0    0  0.15499910179E+02 -0.37562600555E+02  0.14034213245E+01  0.50528858747E+02  0.29999996646E+02 0.  0.
         12    1    1    2    0    0 -0.15499910179E+02  0.37562600555E+02 -0.14034213245E+01  0.40659141253E+02  0.00000000000E+00 0. -1.
         11    1    3    3    0    0  0.23859015849E+01  0.17403066173E+01  0.18347752734E+01  0.34767217404E+01  0.51100000000E-03 0. -1.
        -11    1    3    3    0    0  0.13976078469E+02 -0.15805724507E+02  0.72606050654E+01  0.22312957732E+02  0.51100000000E-03 0.  1.
        -12    1    3    3    0    0 -0.86206987446E+00 -0.23497182665E+02 -0.76919590143E+01  0.24739179274E+02  0.00000000000E+00 0.  1.
</event>
<event>
 7    1  0.2500839E-011  0.5052886E+02  0.7816164E-02  0.1300439E+00
        -11   -1    0    0    0    0  0.00000000000E+00  0.00000000000E+00  0.45593999997E+02  0.45594000000E+02  0.51100000000E-03 0.  1.
         11   -1    0    0    0    0 -0.00000000000E+00 -0.00000000000E+00 -0.45593999997E+02  0.45594000000E+02  0.51100000000E-03 0. -1.
    9900012    2    1    2    0    0  0.35683705594E+02 -0.19145654612E+02 -0.36445071994E+01  0.50528863657E+02  0.30000011572E+02 0.  0.
         12    1    1    2    0    0 -0.35683705594E+02  0.19145654612E+02  0.36445071994E+01  0.40659136343E+02  0.00000000000E+00 0. -1.
         11    1    3    3    0    0 -0.56781425357E+00  0.22959816006E+01 -0.86426555333E+00  0.25181143232E+01  0.51100000000E-03 0. -1.
        -11    1    3    3    0    0  0.19337993897E+02 -0.68064986854E+01 -0.12071925755E+02  0.23791129103E+02  0.51100000000E-03 0.  1.
        -12    1    3    3    0    0  0.16913525951E+02 -0.14635137527E+02  0.92916841092E+01  0.24219620231E+02  0.00000000000E+00 0.  1.
</event>
<event>
 7    1  0.2500839E-011  0.5052886E+02  0.7816164E-02  0.1300439E+00
        -11   -1    0    0    0    0  0.00000000000E+00  0.00000000000E+00  0.45593999997E+02  0.45594000000E+02  0.51100000000E-03 0. -1.
         11   -1    0    0    0    0 -0.00000000000E+00 -0.00000000000E+00 -0.45593999997E+02  0.45594000000E+02  0.51100000000E-03 0.  1.
    9900012    2    1    2    0    0 -0.30459287229E+02  0.15719416773E+02 -0.21870011609E+02  0.50528860191E+02  0.30000001038E+02 0.  0.
         12    1    1    2    0    0  0.30459287229E+02 -0.15719416773E+02  0.21870011609E+02  0.40659139809E+02  0.00000000000E+00 0. -1.
         11    1    3    3    0    0 -0.15197324645E+02 -0.11976931376E+01  0.24232069840E+01  0.15435837443E+02  0.51100000000E-03 0. -1.
        -11    1    3    3    0    0 -0.45939120092E+00  0.74257027534E+01 -0.48675082639E+01  0.88907108050E+01  0.51100000000E-03 0.  1.
        -12    1    3    3    0    0 -0.14802571383E+02  0.94914071576E+01 -0.19425710329E+02  0.26202311943E+02  0.00000000000E+00 0.  1.
</event>
<event>
 7    1  0.2500839E-011  0.5052886E+02  0.7816164E-02  0.1300439E+00
        -11   -1    0    0    0    0  0.00000000000E+00  0.00000000000E+00  0.45593999997E+02  0.45594000000E+02  0.51100000000E-03 0. -1.
         11   -1    0    0    0    0 -0.00000000000E+00 -0.00000000000E+00 -0.45593999997E+02  0.45594000000E+02  0.51100000000E-03 0.  1.
    9900012    2    1    2    0    0 -0.32059110991E+02 -0.13379143083E+02 -0.21127655697E+02  0.50528857087E+02  0.29999991601E+02 0.  0.
         12    1    1    2    0    0  0.32059110991E+02  0.13379143083E+02  0.21127655697E+02  0.40659142913E+02  0.00000000000E+00 0. -1.
         11    1    3    3    0    0 -0.49179725933E+01  0.38119456380E+01  0.53583930984E+01  0.82115626304E+01  0.51100000000E-03 0. -1.
        -11    1    3    3    0    0 -0.18535796661E+02 -0.77625333105E+01 -0.14253863308E+02  0.24637477564E+02  0.51100000000E-03 0.  1.
        -12    1    3    3    0    0 -0.86053417370E+01 -0.94285554102E+01 -0.12232185488E+02  0.17679816892E+02  0.00000000000E+00 0.  1.
</event>
<event>
 7    1  0.2500839E-011  0.5052887E+02  0.7816164E-02  0.1300439E+00
        -11   -1    0    0    0    0  0.00000000000E+00  0.00000000000E+00  0.45593999997E+02  0.45594000000E+02  0.51100000000E-03 0.  1.
         11   -1    0    0    0    0 -0.00000000000E+00 -0.00000000000E+00 -0.45593999997E+02  0.45594000000E+02  0.51100000000E-03 0. -1.
    9900012    2    1    2    0    0 -0.33443709263E+02 -0.15817651391E+02  0.16866693161E+02  0.50528866672E+02  0.30000020736E+02 0.  0.
         12    1    1    2    0    0  0.33443709263E+02  0.15817651391E+02 -0.16866693161E+02  0.40659133328E+02  0.00000000000E+00 0. -1.
         11    1    3    3    0    0 -0.14250808506E+02 -0.15653708138E+02  0.77902843711E+01  0.22556875945E+02  0.51100000000E-03 0. -1.
        -11    1    3    3    0    0 -0.73859154244E+01  0.13901127744E+01  0.13349535123E+02  0.15319733955E+02  0.51100000000E-03 0.  1.
        -12    1    3    3    0    0 -0.11806985333E+02 -0.15540560274E+01 -0.42731263329E+01  0.12652256772E+02  0.00000000000E+00 0.  1.
</event>
<event>
 7    1  0.2500839E-011  0.5052885E+02  0.7816164E-02  0.1300439E+00
        -11   -1    0    0    0    0  0.00000000000E+00  0.00000000000E+00  0.45593999997E+02  0.45594000000E+02  0.51100000000E-03 0. -1.
         11   -1    0    0    0    0 -0.00000000000E+00 -0.00000000000E+00 -0.45593999997E+02  0.45594000000E+02  0.51100000000E-03 0.  1.
    9900012    2    1    2    0    0 -0.83448338423E+01  0.25777878717E+02 -0.30315523238E+02  0.50528853032E+02  0.29999979276E+02 0.  0.
         12    1    1    2    0    0  0.83448338423E+01 -0.25777878717E+02  0.30315523238E+02  0.40659146968E+02  0.00000000000E+00 0. -1.
         11    1    3    3    0    0 -0.72270025002E+01  0.11557173349E+02 -0.46758055493E+01  0.14410446862E+02  0.51100000000E-03 0. -1.
        -11    1    3    3    0    0 -0.91973352891E+01  0.10598527404E+02 -0.22886247188E+02  0.26845857597E+02  0.51100000000E-03 0.  1.
         12    1    3    3    0    0  0.80795039470E+01  0.36221779641E+01 -0.27534705008E+01  0.92725485726E+01  0.00000000000E+00 0. -1.
</event>
<event>
 7    1  0.2500839E-011  0.5052886E+02  0.7816164E-02  0.1300439E+00
        -11   -1    0    0    0    0  0.00000000000E+00  0.00000000000E+00  0.45593999997E+02  0.45594000000E+02  0.51100000000E-03 0. -1.
         11   -1    0    0    0    0 -0.00000000000E+00 -0.00000000000E+00 -0.45593999997E+02  0.45594000000E+02  0.51100000000E-03 0.  1.
    9900012    2    1    2    0    0  0.26485383422E+02 -0.30845133403E+02  0.51773612186E+00  0.50528857851E+02  0.29999993923E+02 0.  0.
         12    1    1    2    0    0 -0.26485383422E+02  0.30845133403E+02 -0.51773612186E+00  0.40659142149E+02  0.00000000000E+00 0. -1.
         11    1    3    3    0    0  0.96746798456E+01 -0.58449887646E+01 -0.54290617645E+00  0.11316274615E+02  0.51100000000E-03 0. -1.
        -11    1    3    3    0    0  0.20748496523E+02 -0.12722558410E+02  0.65416925486E+01  0.25202328109E+02  0.51100000000E-03 0.  1.
         12    1    3    3    0    0 -0.39377929467E+01 -0.12277586228E+02 -0.54810502502E+01  0.14010255127E+02  0.00000000000E+00 0. -1.
</event>
<event>
 7    1  0.2500839E-011  0.5052886E+02  0.7816164E-02  0.1300439E+00
        -11   -1    0    0    0    0  0.00000000000E+00  0.00000000000E+00  0.45593999997E+02  0.45594000000E+02  0.51100000000E-03 0.  1.
         11   -1    0    0    0    0 -0.00000000000E+00 -0.00000000000E+00 -0.45593999997E+02  0.45594000000E+02  0.51100000000E-03 0. -1.
    9900012    2    1    2    0    0 -0.35086099269E+02  0.13804409950E+02  0.15217411411E+02  0.50528859502E+02  0.29999998942E+02 0.  0.
         12    1    1    2    0    0  0.35086099269E+02 -0.13804409950E+02 -0.15217411411E+02  0.40659140498E+02  0.00000000000E+00 0. -1.
         11    1    3    3    0    0  0.13373587782E+01  0.87091476434E-01  0.35191396259E+01  0.37656948090E+01  0.51100000000E-03 0. -1.
        -11    1    3    3    0    0 -0.12687667896E+02  0.17104255939E+02  0.58047945339E+01  0.22073244612E+02  0.51100000000E-03 0.  1.
         12    1    3    3    0    0 -0.23735790151E+02 -0.33869374649E+01  0.58934772508E+01  0.24689920081E+02  0.00000000000E+00 0. -1.
</event>
<event>
 7    1  0.2500839E-011  0.5052886E+02  0.7816164E-02  0.1300439E+00
        -11   -1    0    0    0    0  0.00000000000E+00  0.00000000000E+00  0.45593999997E+02  0.45594000000E+02  0.51100000000E-03 0.  1.
         11   -1    0    0    0    0 -0.00000000000E+00 -0.00000000000E+00 -0.45593999997E+02  0.45594000000E+02  0.51100000000E-03 0. -1.
    9900012    2    1    2    0    0 -0.39229324163E+02 -0.10630489168E+02 -0.11037141579E+01  0.50528863768E+02  0.30000011909E+02 0.  0.
         12    1    1    2    0    0  0.39229324163E+02  0.10630489168E+02  0.11037141579E+01  0.40659136232E+02  0.00000000000E+00 0. -1.
         11    1    3    3    0    0 -0.17553096069E+02 -0.54708917050E+00  0.59686386931E+01  0.18548184178E+02  0.51100000000E-03 0. -1.
        -11    1    3    3    0    0 -0.16984259863E+02 -0.14259380236E+02  0.44962574149E+00  0.22181009250E+02  0.51100000000E-03 0.  1.
         12    1    3    3    0    0 -0.46919682302E+01  0.41759802384E+01 -0.75219785925E+01  0.97996703399E+01  0.00000000000E+00 0. -1.
</event>
<event>
 7    1  0.2500839E-011  0.5052887E+02  0.7816164E-02  0.1300439E+00
        -11   -1    0    0    0    0  0.00000000000E+00  0.00000000000E+00  0.45593999997E+02  0.45594000000E+02  0.51100000000E-03 0.  1.
         11   -1    0    0    0    0 -0.00000000000E+00 -0.00000000000E+00 -0.45593999997E+02  0.45594000000E+02  0.51100000000E-03 0. -1.
    9900012    2    1    2    0    0  0.28160426497E+02 -0.15996224953E+02  0.24582022521E+02  0.50528872310E+02  0.30000037874E+02 0.  0.
         12    1    1    2    0    0 -0.28160426497E+02  0.15996224953E+02 -0.24582022521E+02  0.40659127690E+02  0.00000000000E+00 0. -1.
         11    1    3    3    0    0  0.32045702713E+01 -0.43502770115E+01 -0.83532041161E+00  0.54673522981E+01  0.51100000000E-03 0. -1.
        -11    1    3    3    0    0  0.29141331062E+01  0.74132625332E+01  0.41113027652E+01  0.89638966882E+01  0.51100000000E-03 0.  1.
         12    1    3    3    0    0  0.22041723120E+02 -0.19059210475E+02  0.21306040168E+02  0.36097623324E+02  0.00000000000E+00 0. -1.
</event>
<event>
 7    1  0.2500839E-011  0.5052886E+02  0.7816164E-02  0.1300439E+00
        -11   -1    0    0    0    0  0.00000000000E+00  0.00000000000E+00  0.45593999997E+02  0.45594000000E+02  0.51100000000E-03 0.  1.
         11   -1    0    0    0    0 -0.00000000000E+00 -0.00000000000E+00 -0.45593999997E+02  0.45594000000E+02  0.51100000000E-03 0. -1.
    9900012    2    1    2    0    0 -0.35225077514E+02  0.13757693386E+02  0.14936056135E+02  0.50528856058E+02  0.29999988475E+02 0.  0.
         12    1    1    2    0    0  0.35225077514E+02 -0.13757693386E+02 -0.14936056135E+02  0.40659143942E+02  0.00000000000E+00 0. -1.
         11    1    3    3    0    0 -0.72875779098E+01  0.27963425221E+01 -0.77032619781E+01  0.10966702725E+02  0.51100000000E-03 0. -1.
        -11    1    3    3    0    0 -0.70166518901E+00 -0.60031020057E+00  0.50644165653E+01  0.51479143138E+01  0.51100000000E-03 0.  1.
        -12    1    3    3    0    0 -0.27235834415E+02  0.11561661065E+02  0.17574901548E+02  0.34414239020E+02  0.00000000000E+00 0.  1.
</event>
<event>
 7    1  0.2500839E-011  0.5052887E+02  0.7816164E-02  0.1300439E+00
        -11   -1    0    0    0    0  0.00000000000E+00  0.00000000000E+00  0.45593999997E+02  0.45594000000E+02  0.51100000000E-03 0.  1.
         11   -1    0    0    0    0 -0.00000000000E+00 -0.00000000000E+00 -0.45593999997E+02  0.45594000000E+02  0.51100000000E-03 0. -1.
    9900012    2    1    2    0    0 -0.34679698487E+02 -0.18328512811E+02 -0.10702750252E+02  0.50528871481E+02  0.30000035353E+02 0.  0.
         12    1    1    2    0    0  0.34679698487E+02  0.18328512811E+02  0.10702750252E+02  0.40659128519E+02  0.00000000000E+00 0. -1.
         11    1    3    3    0    0  0.10006688893E+01  0.37661746336E+01  0.32857993777E+01  0.50972431185E+01  0.51100000000E-03 0. -1.
        -11    1    3    3    0    0 -0.95355238762E+01 -0.21232313712E+01 -0.23321932306E+00  0.97718329173E+01  0.51100000000E-03 0.  1.
        -12    1    3    3    0    0 -0.26144843500E+02 -0.19971456074E+02 -0.13755330307E+02  0.35659795445E+02  0.00000000000E+00 0.  1.
</event>
<event>
 7    1  0.2500839E-011  0.5052886E+02  0.7816164E-02  0.1300439E+00
        -11   -1    0    0    0    0  0.00000000000E+00  0.00000000000E+00  0.45593999997E+02  0.45594000000E+02  0.51100000000E-03 0.  1.
         11   -1    0    0    0    0 -0.00000000000E+00 -0.00000000000E+00 -0.45593999997E+02  0.45594000000E+02  0.51100000000E-03 0. -1.
    9900012    2    1    2    0    0  0.32739370507E+01  0.85027083649E+00  0.40518192061E+02  0.50528861886E+02  0.30000006188E+02 0.  0.
         12    1    1    2    0    0 -0.32739370507E+01 -0.85027083649E+00 -0.40518192061E+02  0.40659138114E+02  0.00000000000E+00 0. -1.
         11    1    3    3    0    0  0.43030929509E+01 -0.18715150465E+01  0.95803769726E+01  0.10667839552E+02  0.51100000000E-03 0.  1.
        -11    1    3    3    0    0  0.85225312430E+01  0.32206798891E+01  0.19245528373E+01  0.93118323450E+01  0.51100000000E-03 0. -1.
        -12    1    3    3    0    0 -0.95516871432E+01 -0.49889400610E+00  0.29013262251E+02  0.30549189989E+02  0.00000000000E+00 0.  1.
</event>
<event>
 7    1  0.2500839E-011  0.5052887E+02  0.7816164E-02  0.1300439E+00
        -11   -1    0    0    0    0  0.00000000000E+00  0.00000000000E+00  0.45593999997E+02  0.45594000000E+02  0.51100000000E-03 0.  1.
         11   -1    0    0    0    0 -0.00000000000E+00 -0.00000000000E+00 -0.45593999997E+02  0.45594000000E+02  0.51100000000E-03 0. -1.
    9900012    2    1    2    0    0 -0.10368390786E+02 -0.97354750361E+01  0.38090447687E+02  0.50528865643E+02  0.30000017608E+02 0.  0.
         12    1    1    2    0    0  0.10368390786E+02  0.97354750361E+01 -0.38090447687E+02  0.40659134357E+02  0.00000000000E+00 0. -1.
         11    1    3    3    0    0  0.19642027838E+01  0.23139355093E+01  0.63021920847E+01  0.69949993174E+01  0.51100000000E-03 0. -1.
        -11    1    3    3    0    0 -0.93447392640E+01 -0.59197400384E+01  0.34473712647E+02  0.36205031942E+02  0.51100000000E-03 0.  1.
         12    1    3    3    0    0 -0.29878543061E+01 -0.61296705070E+01 -0.26854570443E+01  0.73288343831E+01  0.00000000000E+00 0. -1.
</event>
<event>
 7    1  0.2500839E-011  0.5052886E+02  0.7816164E-02  0.1300439E+00
        -11   -1    0    0    0    0  0.00000000000E+00  0.00000000000E+00  0.45593999997E+02  0.45594000000E+02  0.51100000000E-03 0.  1.
         11   -1    0    0    0    0 -0.00000000000E+00 -0.00000000000E+00 -0.45593999997E+02  0.45594000000E+02  0.51100000000E-03 0. -1.
    9900012    2    1    2    0    0  0.27406109287E+02  0.27301831474E+02  0.12517234653E+02  0.50528855992E+02  0.29999988275E+02 0.  0.
         12    1    1    2    0    0 -0.27406109287E+02 -0.27301831474E+02 -0.12517234653E+02  0.40659144008E+02  0.00000000000E+00 0. -1.
         11    1    3    3    0    0  0.19838994554E+02  0.66528520054E+01  0.76044893330E+01  0.22263746383E+02  0.51100000000E-03 0. -1.
        -11    1    3    3    0    0  0.24939229989E+01  0.16704396847E+02  0.10383044684E+02  0.19825845331E+02  0.51100000000E-03 0.  1.
         12    1    3    3    0    0  0.50731917335E+01  0.39445826220E+01 -0.54702993639E+01  0.84392642782E+01  0.00000000000E+00 0. -1.
</event>
<event>
 7    1  0.2500839E-011  0.5052886E+02  0.7816164E-02  0.1300439E+00
        -11   -1    0    0    0    0  0.00000000000E+00  0.00000000000E+00  0.45593999997E+02  0.45594000000E+02  0.51100000000E-03 0.  1.
         11   -1    0    0    0    0 -0.00000000000E+00 -0.00000000000E+00 -0.45593999997E+02  0.45594000000E+02  0.51100000000E-03 0. -1.
    9900012    2    1    2    0    0 -0.19664157004E+02 -0.35371178741E+02 -0.39199895796E+01  0.50528859890E+02  0.30000000122E+02 0.  0.
         12    1    1    2    0    0  0.19664157004E+02  0.35371178741E+02  0.39199895796E+01  0.40659140110E+02  0.00000000000E+00 0. -1.
         11    1    3    3    0    0  0.22702911307E+01 -0.54348588248E+01  0.42335229092E+01  0.72535941951E+01  0.51100000000E-03 0. -1.
        -11    1    3    3    0    0 -0.10679713720E+02 -0.26881397523E+02  0.20723896156E+00  0.28925918589E+02  0.51100000000E-03 0.  1.
        -12    1    3    3    0    0 -0.11254734414E+02 -0.30549223926E+01 -0.83607514504E+01  0.14349347106E+02  0.00000000000E+00 0.  1.
</event>
<event>
 7    1  0.2500839E-011  0.5052885E+02  0.7816164E-02  0.1300439E+00
        -11   -1    0    0    0    0  0.00000000000E+00  0.00000000000E+00  0.45593999997E+02  0.45594000000E+02  0.51100000000E-03 0.  1.
         11   -1    0    0    0    0 -0.00000000000E+00 -0.00000000000E+00 -0.45593999997E+02  0.45594000000E+02  0.51100000000E-03 0. -1.
    9900012    2    1    2    0    0 -0.15963327276E+02 -0.34903817001E+02  0.13418720882E+02  0.50528851840E+02  0.29999975654E+02 0.  0.
         12    1    1    2    0    0  0.15963327276E+02  0.34903817001E+02 -0.13418720882E+02  0.40659148160E+02  0.00000000000E+00 0. -1.
         11    1    3    3    0    0  0.49581502416E+01 -0.18815943419E+01 -0.31910305688E+01  0.61892105666E+01  0.51100000000E-03 0. -1.
        -11    1    3    3    0    0 -0.26961354485E+01 -0.50540845034E+01  0.80452376325E+01  0.98761715937E+01  0.51100000000E-03 0.  1.
         12    1    3    3    0    0 -0.18225342069E+02 -0.27968138156E+02  0.85645138188E+01  0.34463469680E+02  0.00000000000E+00 0. -1.
</event>
<event>
 7    1  0.2500839E-011  0.5052885E+02  0.7816164E-02  0.1300439E+00
        -11   -1    0    0    0    0  0.00000000000E+00  0.00000000000E+00  0.45593999997E+02  0.45594000000E+02  0.51100000000E-03 0.  1.
         11   -1    0    0    0    0 -0.00000000000E+00 -0.00000000000E+00 -0.45593999997E+02  0.45594000000E+02  0.51100000000E-03 0. -1.
    9900012    2    1    2    0    0  0.24458788745E+02  0.11735666118E+01  0.32458546697E+02  0.50528845322E+02  0.29999955840E+02 0.  0.
         12    1    1    2    0    0 -0.24458788745E+02 -0.11735666118E+01 -0.32458546697E+02  0.40659154678E+02  0.00000000000E+00 0. -1.
         11    1    3    3    0    0  0.14220921957E+02  0.37307684534E+01 -0.11077049593E+01  0.14743821252E+02  0.51100000000E-03 0. -1.
        -11    1    3    3    0    0  0.15980874295E+01 -0.31587894490E+01  0.12911511048E+02  0.13388015239E+02  0.51100000000E-03 0.  1.
        -12    1    3    3    0    0  0.86397793584E+01  0.60158760745E+00  0.20654740608E+02  0.22397008831E+02  0.00000000000E+00 0.  1.
</event>
<event>
 7    1  0.2500839E-011  0.5052885E+02  0.7816164E-02  0.1300439E+00
        -11   -1    0    0    0    0  0.00000000000E+00  0.00000000000E+00  0.45593999997E+02  0.45594000000E+02  0.51100000000E-03 0.  1.
         11   -1    0    0    0    0 -0.00000000000E+00 -0.00000000000E+00 -0.45593999997E+02  0.45594000000E+02  0.51100000000E-03 0. -1.
    9900012    2    1    2    0    0  0.32440682907E+02 -0.21353518246E+02 -0.12033102491E+02  0.50528853372E+02  0.29999980310E+02 0.  0.
         12    1    1    2    0    0 -0.32440682907E+02  0.21353518246E+02  0.12033102491E+02  0.40659146628E+02  0.00000000000E+00 0. -1.
         11    1    3    3    0    0  0.16084643924E+02 -0.32426655065E+01  0.63050087845E+01  0.17577934627E+02  0.51100000000E-03 0. -1.
        -11    1    3    3    0    0 -0.42643529975E+00 -0.57624339816E+01 -0.10415854759E+01  0.58713195299E+01  0.51100000000E-03 0.  1.
        -12    1    3    3    0    0  0.16782474283E+02 -0.12348418758E+02 -0.17296525800E+02  0.27079599215E+02  0.00000000000E+00 0.  1.
</event>
<event>
 7    1  0.2500839E-011  0.5052885E+02  0.7816164E-02  0.1300439E+00
        -11   -1    0    0    0    0  0.00000000000E+00  0.00000000000E+00  0.45593999997E+02  0.45594000000E+02  0.51100000000E-03 0. -1.
         11   -1    0    0    0    0 -0.00000000000E+00 -0.00000000000E+00 -0.45593999997E+02  0.45594000000E+02  0.51100000000E-03 0.  1.
    9900012    2    1    2    0    0 -0.26463180213E+02  0.25884987102E+02 -0.16817660289E+02  0.50528853896E+02  0.29999981903E+02 0.  0.
         12    1    1    2    0    0  0.26463180213E+02 -0.25884987102E+02  0.16817660289E+02  0.40659146104E+02  0.00000000000E+00 0. -1.
         11    1    3    3    0    0 -0.99819106183E+00  0.28349068984E+01  0.49608490204E+01  0.58002677337E+01  0.51100000000E-03 0. -1.
        -11    1    3    3    0    0 -0.83764581521E+01  0.44702453071E+01  0.23793216706E+01  0.97882233400E+01  0.51100000000E-03 0.  1.
        -12    1    3    3    0    0 -0.17088530999E+02  0.18579834897E+02 -0.24157830980E+02  0.34940362823E+02  0.00000000000E+00 0.  1.
</event>
<event>
 7    1  0.2500839E-011  0.5052886E+02  0.7816164E-02  0.1300439E+00
        -11   -1    0    0    0    0  0.00000000000E+00  0.00000000000E+00  0.45593999997E+02  0.45594000000E+02  0.51100000000E-03 0.  1.
         11   -1    0    0    0    0 -0.00000000000E+00 -0.00000000000E+00 -0.45593999997E+02  0.45594000000E+02  0.51100000000E-03 0. -1.
    9900012    2    1    2    0    0 -0.16521944770E+02 -0.12611474072E+02  0.34944838350E+02  0.50528860012E+02  0.30000000493E+02 0.  0.
         12    1    1    2    0    0  0.16521944770E+02  0.12611474072E+02 -0.34944838350E+02  0.40659139988E+02  0.00000000000E+00 0. -1.
         11    1    3    3    0    0 -0.16094619198E+02 -0.12746028494E+02  0.61735836467E+01  0.21438543440E+02  0.51100000000E-03 0. -1.
        -11    1    3    3    0    0 -0.41692861934E+00  0.17293730398E+01  0.58709275478E+01  0.61345212622E+01  0.51100000000E-03 0.  1.
        -12    1    3    3    0    0 -0.10396952644E-01 -0.15948186174E+01  0.22900327155E+02  0.22955795310E+02  0.00000000000E+00 0.  1.
</event>
<event>
 7    1  0.2500839E-011  0.5052888E+02  0.7816164E-02  0.1300439E+00
        -11   -1    0    0    0    0  0.00000000000E+00  0.00000000000E+00  0.45593999997E+02  0.45594000000E+02  0.51100000000E-03 0.  1.
         11   -1    0    0    0    0 -0.00000000000E+00 -0.00000000000E+00 -0.45593999997E+02  0.45594000000E+02  0.51100000000E-03 0. -1.
    9900012    2    1    2    0    0 -0.30391247006E+02 -0.20511952408E+02  0.17572588019E+02  0.50528881270E+02  0.30000065110E+02 0.  0.
         12    1    1    2    0    0  0.30391247006E+02  0.20511952408E+02 -0.17572588019E+02  0.40659118730E+02  0.00000000000E+00 0. -1.
         11    1    3    3    0    0 -0.92198306672E+01 -0.42682161543E+01 -0.47939843487E+01  0.11234110239E+02  0.51100000000E-03 0. -1.
        -11    1    3    3    0    0 -0.13123072747E+01  0.18156907551E+01  0.90639119889E+01  0.93366687905E+01  0.51100000000E-03 0.  1.
        -12    1    3    3    0    0 -0.19859109064E+02 -0.18059427009E+02  0.13302660379E+02  0.29958102241E+02  0.00000000000E+00 0.  1.
</event>
<event>
 7    1  0.2500839E-011  0.5052885E+02  0.7816164E-02  0.1300439E+00
        -11   -1    0    0    0    0  0.00000000000E+00  0.00000000000E+00  0.45593999997E+02  0.45594000000E+02  0.51100000000E-03 0.  1.
         11   -1    0    0    0    0 -0.00000000000E+00 -0.00000000000E+00 -0.45593999997E+02  0.45594000000E+02  0.51100000000E-03 0. -1.
    9900012    2    1    2    0    0 -0.20634006654E+02 -0.47816558871E+01  0.34706481493E+02  0.50528851936E+02  0.29999975945E+02 0.  0.
         12    1    1    2    0    0  0.20634006654E+02  0.47816558871E+01 -0.34706481493E+02  0.40659148064E+02  0.00000000000E+00 0. -1.
         11    1    3    3    0    0 -0.22805511744E+01  0.11753107766E+01  0.10494173809E+02  0.10803238093E+02  0.51100000000E-03 0.  1.
        -11    1    3    3    0    0 -0.12268359672E+02 -0.65564109731E+01 -0.84210236784E+00  0.13935864184E+02  0.51100000000E-03 0. -1.
         12    1    3    3    0    0 -0.60850958076E+01  0.59944430945E+00  0.25054410052E+02  0.25789749659E+02  0.00000000000E+00 0. -1.
</event>
<event>
 7    1  0.2500839E-011  0.5052890E+02  0.7816164E-02  0.1300439E+00
        -11   -1    0    0    0    0  0.00000000000E+00  0.00000000000E+00  0.45593999997E+02  0.45594000000E+02  0.51100000000E-03 0. -1.
         11   -1    0    0    0    0 -0.00000000000E+00 -0.00000000000E+00 -0.45593999997E+02  0.45594000000E+02  0.51100000000E-03 0.  1.
    9900012    2    1    2    0    0  0.92891153071E+01 -0.22584295566E+02 -0.32508838946E+02  0.50528896726E+02  0.30000112089E+02 0.  0.
         12    1    1    2    0    0 -0.92891153071E+01  0.22584295566E+02  0.32508838946E+02  0.40659103274E+02  0.00000000000E+00 0. -1.
         11    1    3    3    0    0  0.23136157618E+01 -0.29767599087E+01 -0.10458844251E+02  0.11117613988E+02  0.51100000000E-03 0.  1.
        -11    1    3    3    0    0  0.30930667527E+01 -0.46652153336E+01 -0.23261379056E+02  0.23925364196E+02  0.51100000000E-03 0. -1.
         12    1    3    3    0    0  0.38824327925E+01 -0.14942320323E+02  0.12113843612E+01  0.15485918543E+02  0.00000000000E+00 0. -1.
</event>
<event>
 7    1  0.2500839E-011  0.5052886E+02  0.7816164E-02  0.1300439E+00
        -11   -1    0    0    0    0  0.00000000000E+00  0.00000000000E+00  0.45593999997E+02  0.45594000000E+02  0.51100000000E-03 0. -1.
         11   -1    0    0    0    0 -0.00000000000E+00 -0.00000000000E+00 -0.45593999997E+02  0.45594000000E+02  0.51100000000E-03 0.  1.
    9900012    2    1    2    0    0 -0.34079693226E+02 -0.21847773395E+02 -0.37966693352E+01  0.50528863379E+02  0.30000010727E+02 0.  0.
         12    1    1    2    0    0  0.34079693226E+02  0.21847773395E+02  0.37966693352E+01  0.40659136621E+02  0.00000000000E+00 0. -1.
         11    1    3    3    0    0  0.21723444633E+01 -0.16015292275E+01 -0.30395673268E+01  0.40648426943E+01  0.51100000000E-03 0. -1.
        -11    1    3    3    0    0 -0.19764613991E+02 -0.18442553520E+02 -0.82509328415E+01  0.28263857479E+02  0.51100000000E-03 0.  1.
        -12    1    3    3    0    0 -0.16487423699E+02 -0.18036906476E+01  0.74938308331E+01  0.18200163206E+02  0.00000000000E+00 0.  1.
</event>
<event>
 7    1  0.2500839E-011  0.5052887E+02  0.7816164E-02  0.1300439E+00
        -11   -1    0    0    0    0  0.00000000000E+00  0.00000000000E+00  0.45593999997E+02  0.45594000000E+02  0.51100000000E-03 0.  1.
         11   -1    0    0    0    0 -0.00000000000E+00 -0.00000000000E+00 -0.45593999997E+02  0.45594000000E+02  0.51100000000E-03 0. -1.
    9900012    2    1    2    0    0  0.34876700858E+02 -0.20676257800E+02  0.30451071986E+01  0.50528873384E+02  0.30000041137E+02 0.  0.
         12    1    1    2    0    0 -0.34876700858E+02  0.20676257800E+02 -0.30451071986E+01  0.40659126616E+02  0.00000000000E+00 0. -1.
         11    1    3    3    0    0  0.19838547999E+02 -0.30440161823E+01  0.12375012003E+02  0.23579120925E+02  0.51100000000E-03 0. -1.
        -11    1    3    3    0    0  0.84431599873E+01 -0.71834694249E+01  0.59466273646E+00  0.11101477721E+02  0.51100000000E-03 0.  1.
         12    1    3    3    0    0  0.65949928715E+01 -0.10448772192E+02 -0.99245675413E+01  0.15848274738E+02  0.00000000000E+00 0. -1.
</event>
<event>
 7    1  0.2500839E-011  0.5052888E+02  0.7816164E-02  0.1300439E+00
        -11   -1    0    0    0    0  0.00000000000E+00  0.00000000000E+00  0.45593999997E+02  0.45594000000E+02  0.51100000000E-03 0. -1.
         11   -1    0    0    0    0 -0.00000000000E+00 -0.00000000000E+00 -0.45593999997E+02  0.45594000000E+02  0.51100000000E-03 0.  1.
    9900012    2    1    2    0    0 -0.37610369388E+02 -0.14375375698E+02 -0.56544199522E+01  0.50528883225E+02  0.30000071051E+02 0.  0.
         12    1    1    2    0    0  0.37610369388E+02  0.14375375698E+02  0.56544199522E+01  0.40659116775E+02  0.00000000000E+00 0. -1.
         11    1    3    3    0    0  0.72874062101E+00 -0.49673487428E+01  0.32920974201E+01  0.60036257470E+01  0.51100000000E-03 0. -1.
        -11    1    3    3    0    0 -0.12299148543E+02 -0.31819061214E+01 -0.12127128832E+02  0.17563053135E+02  0.51100000000E-03 0.  1.
        -12    1    3    3    0    0 -0.26039961466E+02 -0.62261208337E+01  0.31806114601E+01  0.26962204343E+02  0.00000000000E+00 0.  1.
</event>
<event>
 7    1  0.2500839E-011  0.5052887E+02  0.7816164E-02  0.1300439E+00
        -11   -1    0    0    0    0  0.00000000000E+00  0.00000000000E+00  0.45593999997E+02  0.45594000000E+02  0.51100000000E-03 0. -1.
         11   -1    0    0    0    0 -0.00000000000E+00 -0.00000000000E+00 -0.45593999997E+02  0.45594000000E+02  0.51100000000E-03 0.  1.
    9900012    2    1    2    0    0 -0.19112357350E+02  0.35838395909E+02 -0.18686072548E+01  0.50528874113E+02  0.30000043354E+02 0.  0.
         12    1    1    2    0    0  0.19112357350E+02 -0.35838395909E+02  0.18686072548E+01  0.40659125887E+02  0.00000000000E+00 0. -1.
         11    1    3    3    0    0 -0.53791076671E+01 -0.13938393540E+01 -0.18625831880E+01  0.58606146292E+01  0.51100000000E-03 0. -1.
        -11    1    3    3    0    0  0.25664384174E+00  0.79116889268E+01  0.79523901324E+01  0.11220570254E+02  0.51100000000E-03 0.  1.
         12    1    3    3    0    0 -0.13989893525E+02  0.29320546336E+02 -0.79584141991E+01  0.33447689230E+02  0.00000000000E+00 0. -1.
</event>
<event>
 7    1  0.2500839E-011  0.5052886E+02  0.7816164E-02  0.1300439E+00
        -11   -1    0    0    0    0  0.00000000000E+00  0.00000000000E+00  0.45593999997E+02  0.45594000000E+02  0.51100000000E-03 0. -1.
         11   -1    0    0    0    0 -0.00000000000E+00 -0.00000000000E+00 -0.45593999997E+02  0.45594000000E+02  0.51100000000E-03 0.  1.
    9900012    2    1    2    0    0 -0.33738740340E+02  0.16876555469E+02  0.15167236312E+02  0.50528858573E+02  0.29999996118E+02 0.  0.
         12    1    1    2    0    0  0.33738740340E+02 -0.16876555469E+02 -0.15167236312E+02  0.40659141427E+02  0.00000000000E+00 0. -1.
         11    1    3    3    0    0  0.45464145402E+01  0.28059308997E+01  0.18997378607E+01  0.56702854942E+01  0.51100000000E-03 0. -1.
        -11    1    3    3    0    0 -0.79863754126E+01 -0.23913777051E+01  0.18934680370E+01  0.85490409419E+01  0.51100000000E-03 0.  1.
        -12    1    3    3    0    0 -0.30298779468E+02  0.16462002275E+02  0.11374030414E+02  0.36309532137E+02  0.00000000000E+00 0.  1.
</event>
<event>
 7    1  0.2500839E-011  0.5052887E+02  0.7816164E-02  0.1300439E+00
        -11   -1    0    0    0    0  0.00000000000E+00  0.00000000000E+00  0.45593999997E+02  0.45594000000E+02  0.51100000000E-03 0. -1.
         11   -1    0    0    0    0 -0.00000000000E+00 -0.00000000000E+00 -0.45593999997E+02  0.45594000000E+02  0.51100000000E-03 0.  1.
    9900012    2    1    2    0    0 -0.20963948431E+02  0.26802940676E+02  0.22254893171E+02  0.50528867782E+02  0.30000024109E+02 0.  0.
         12    1    1    2    0    0  0.20963948431E+02 -0.26802940676E+02 -0.22254893171E+02  0.40659132218E+02  0.00000000000E+00 0. -1.
         11    1    3    3    0    0  0.19450008821E+01 -0.37860939564E+01  0.48575151269E+01  0.64585593863E+01  0.51100000000E-03 0. -1.
        -11    1    3    3    0    0 -0.12241234949E+02  0.74132484668E+01  0.10159312422E+02  0.17550376493E+02  0.51100000000E-03 0.  1.
        -12    1    3    3    0    0 -0.10667714365E+02  0.23175786165E+02  0.72380656216E+01  0.26519931902E+02  0.00000000000E+00 0.  1.
</event>
<event>
 7    1  0.2500839E-011  0.5052891E+02  0.7816164E-02  0.1300439E+00
        -11   -1    0    0    0    0  0.00000000000E+00  0.00000000000E+00  0.45593999997E+02  0.45594000000E+02  0.51100000000E-03 0.  1.
         11   -1    0    0    0    0 -0.00000000000E+00 -0.00000000000E+00 -0.45593999997E+02  0.45594000000E+02  0.51100000000E-03 0. -1.
    9900012    2    1    2    0    0 -0.33454021610E+02  0.97052742666E+01  0.20971347597E+02  0.50528913309E+02  0.30000162494E+02 0.  0.
         12    1    1    2    0    0  0.33454021610E+02 -0.97052742666E+01 -0.20971347597E+02  0.40659086691E+02  0.00000000000E+00 0. -1.
         11    1    3    3    0    0  0.18436544416E+01 -0.30361134263E+01  0.15888921625E+01  0.38912241008E+01  0.51100000000E-03 0. -1.
        -11    1    3    3    0    0 -0.93661325361E+01  0.13056016882E+02  0.42846368944E+01  0.16629555889E+02  0.51100000000E-03 0.  1.
        -12    1    3    3    0    0 -0.25931543516E+02 -0.31462918865E+00  0.15097818540E+02  0.30008133319E+02  0.00000000000E+00 0.  1.
</event>
<event>
 7    1  0.2500839E-011  0.5052886E+02  0.7816164E-02  0.1300439E+00
        -11   -1    0    0    0    0  0.00000000000E+00  0.00000000000E+00  0.45593999997E+02  0.45594000000E+02  0.51100000000E-03 0.  1.
         11   -1    0    0    0    0 -0.00000000000E+00 -0.00000000000E+00 -0.45593999997E+02  0.45594000000E+02  0.51100000000E-03 0. -1.
    9900012    2    1    2    0    0  0.26682662989E+02  0.27150346816E+02  0.14284940766E+02  0.50528863646E+02  0.30000011537E+02 0.  0.
         12    1    1    2    0    0 -0.26682662989E+02 -0.27150346816E+02 -0.14284940766E+02  0.40659136354E+02  0.00000000000E+00 0. -1.
         11    1    3    3    0    0 -0.72339525436E+00  0.16441440490E+02  0.94057964182E+01  0.18955560466E+02  0.51100000000E-03 0. -1.
        -11    1    3    3    0    0  0.66062357858E+00  0.12965884345E+00  0.26400313762E+01  0.27245184633E+01  0.51100000000E-03 0.  1.
        -12    1    3    3    0    0  0.26745434665E+02  0.10579247483E+02  0.22391129714E+01  0.28848784716E+02  0.00000000000E+00 0.  1.
</event>
<event>
 7    1  0.2500839E-011  0.5052886E+02  0.7816164E-02  0.1300439E+00
        -11   -1    0    0    0    0  0.00000000000E+00  0.00000000000E+00  0.45593999997E+02  0.45594000000E+02  0.51100000000E-03 0.  1.
         11   -1    0    0    0    0 -0.00000000000E+00 -0.00000000000E+00 -0.45593999997E+02  0.45594000000E+02  0.51100000000E-03 0. -1.
    9900012    2    1    2    0    0 -0.89740912007E+01  0.32742915678E+02  0.22372586926E+02  0.50528862211E+02  0.30000007176E+02 0.  0.
         12    1    1    2    0    0  0.89740912007E+01 -0.32742915678E+02 -0.22372586926E+02  0.40659137789E+02  0.00000000000E+00 0. -1.
         11    1    3    3    0    0 -0.51685686027E+01  0.44117525006E+01  0.13215165229E+02  0.14859954704E+02  0.51100000000E-03 0. -1.
        -11    1    3    3    0    0  0.29677691228E+01  0.17157664564E+02  0.13355901082E+02  0.21944776162E+02  0.51100000000E-03 0.  1.
        -12    1    3    3    0    0 -0.67732917208E+01  0.11173498614E+02 -0.41984793844E+01  0.13724131344E+02  0.00000000000E+00 0.  1.
</event>
<event>
 7    1  0.2500839E-011  0.5052895E+02  0.7816164E-02  0.1300438E+00
        -11   -1    0    0    0    0  0.00000000000E+00  0.00000000000E+00  0.45593999997E+02  0.45594000000E+02  0.51100000000E-03 0. -1.
         11   -1    0    0    0    0 -0.00000000000E+00 -0.00000000000E+00 -0.45593999997E+02  0.45594000000E+02  0.51100000000E-03 0.  1.
    9900012    2    1    2    0    0  0.36087231935E+02  0.12519125998E+02 -0.13933469242E+02  0.50528949475E+02  0.30000272423E+02 0.  0.
         12    1    1    2    0    0 -0.36087231935E+02 -0.12519125998E+02  0.13933469242E+02  0.40659050525E+02  0.00000000000E+00 0. -1.
         11    1    3    3    0    0  0.20437698438E+01 -0.32050461872E-01 -0.55971160522E+01  0.59586685400E+01  0.51100000000E-03 0. -1.
        -11    1    3    3    0    0  0.12306616789E+02  0.22624084479E+01 -0.15078483482E+02  0.19594182125E+02  0.51100000000E-03 0.  1.
         12    1    3    3    0    0  0.21736845302E+02  0.10288768012E+02  0.67421302920E+01  0.24976098810E+02  0.00000000000E+00 0. -1.
</event>
<event>
 7    1  0.2500839E-011  0.5052886E+02  0.7816164E-02  0.1300439E+00
        -11   -1    0    0    0    0  0.00000000000E+00  0.00000000000E+00  0.45593999997E+02  0.45594000000E+02  0.51100000000E-03 0.  1.
         11   -1    0    0    0    0 -0.00000000000E+00 -0.00000000000E+00 -0.45593999997E+02  0.45594000000E+02  0.51100000000E-03 0. -1.
    9900012    2    1    2    0    0  0.39374248266E+02  0.71625190726E+01  0.71786270861E+01  0.50528858435E+02  0.29999995698E+02 0.  0.
         12    1    1    2    0    0 -0.39374248266E+02 -0.71625190726E+01 -0.71786270861E+01  0.40659141565E+02  0.00000000000E+00 0. -1.
         11    1    3    3    0    0  0.30350926206E+01  0.26412128867E+01  0.62029160552E+01  0.73935080021E+01  0.51100000000E-03 0. -1.
        -11    1    3    3    0    0  0.33210358427E+02  0.60572067539E+01  0.85269898518E+01  0.34818489581E+02  0.51100000000E-03 0.  1.
         12    1    3    3    0    0  0.31287972180E+01 -0.15359005680E+01 -0.75512788209E+01  0.83168608512E+01  0.00000000000E+00 0. -1.
</event>
<event>
 7    1  0.2500839E-011  0.5052887E+02  0.7816164E-02  0.1300439E+00
        -11   -1    0    0    0    0  0.00000000000E+00  0.00000000000E+00  0.45593999997E+02  0.45594000000E+02  0.51100000000E-03 0.  1.
         11   -1    0    0    0    0 -0.00000000000E+00 -0.00000000000E+00 -0.45593999997E+02  0.45594000000E+02  0.51100000000E-03 0. -1.
    9900012    2    1    2    0    0 -0.29252658407E+02 -0.13292861047E+02 -0.24914792131E+02  0.50528867623E+02  0.30000023627E+02 0.  0.
         12    1    1    2    0    0  0.29252658407E+02  0.13292861047E+02  0.24914792131E+02  0.40659132377E+02  0.00000000000E+00 0. -1.
         11    1    3    3    0    0 -0.43096661863E+01 -0.35732946565E+01  0.56298475161E+01  0.79395743371E+01  0.51100000000E-03 0. -1.
        -11    1    3    3    0    0  0.17781762440E-01  0.20281005297E+00  0.10788329724E+01  0.10978747433E+01  0.51100000000E-03 0.  1.
        -12    1    3    3    0    0 -0.24960773983E+02 -0.99223764438E+01 -0.31623472620E+02  0.41491418543E+02  0.00000000000E+00 0.  1.
</event>
<event>
 7    1  0.2500839E-011  0.5052887E+02  0.7816164E-02  0.1300439E+00
        -11   -1    0    0    0    0  0.00000000000E+00  0.00000000000E+00  0.45593999997E+02  0.45594000000E+02  0.51100000000E-03 0. -1.
         11   -1    0    0    0    0 -0.00000000000E+00 -0.00000000000E+00 -0.45593999997E+02  0.45594000000E+02  0.51100000000E-03 0.  1.
    9900012    2    1    2    0    0 -0.12606495498E+02  0.38480154371E+02  0.36768147656E+01  0.50528868480E+02  0.30000026231E+02 0.  0.
         12    1    1    2    0    0  0.12606495498E+02 -0.38480154371E+02 -0.36768147656E+01  0.40659131520E+02  0.00000000000E+00 0. -1.
         11    1    3    3    0    0  0.33898828641E+01  0.75767222158E+00 -0.88527298262E+00  0.35845615551E+01  0.51100000000E-03 0. -1.
        -11    1    3    3    0    0  0.14388995265E+01  0.79862183633E+00 -0.47805024748E+01  0.50558315694E+01  0.51100000000E-03 0.  1.
         12    1    3    3    0    0 -0.17435277889E+02  0.36923860313E+02  0.93425902230E+01  0.41888475355E+02  0.00000000000E+00 0. -1.
</event>
<event>
 7    1  0.2500839E-011  0.5052886E+02  0.7816164E-02  0.1300439E+00
        -11   -1    0    0    0    0  0.00000000000E+00  0.00000000000E+00  0.45593999997E+02  0.45594000000E+02  0.51100000000E-03 0.  1.
         11   -1    0    0    0    0 -0.00000000000E+00 -0.00000000000E+00 -0.45593999997E+02  0.45594000000E+02  0.51100000000E-03 0. -1.
    9900012    2    1    2    0    0 -0.28221398076E+02 -0.23066559400E+02  0.18018105589E+02  0.50528860795E+02  0.30000002871E+02 0.  0.
         12    1    1    2    0    0  0.28221398076E+02  0.23066559400E+02 -0.18018105589E+02  0.40659139205E+02  0.00000000000E+00 0. -1.
         11    1    3    3    0    0 -0.74191450256E+01 -0.91577112888E+01  0.14209979837E+02  0.18461606544E+02  0.51100000000E-03 0.  1.
        -11    1    3    3    0    0 -0.87124580969E+01 -0.17162396465E+02  0.12433684733E+01  0.19287320808E+02  0.51100000000E-03 0. -1.
         12    1    3    3    0    0 -0.12089794954E+02  0.32535483538E+01  0.25647572787E+01  0.12779933443E+02  0.00000000000E+00 0. -1.
</event>
<event>
 7    1  0.2500839E-011  0.5052887E+02  0.7816164E-02  0.1300439E+00
        -11   -1    0    0    0    0  0.00000000000E+00  0.00000000000E+00  0.45593999997E+02  0.45594000000E+02  0.51100000000E-03 0.  1.
         11   -1    0    0    0    0 -0.00000000000E+00 -0.00000000000E+00 -0.45593999997E+02  0.45594000000E+02  0.51100000000E-03 0. -1.
    9900012    2    1    2    0    0  0.40541310065E+02 -0.10255973640E+01  0.29180738797E+01  0.50528870313E+02  0.30000031804E+02 0.  0.
         12    1    1    2    0    0 -0.40541310065E+02  0.10255973640E+01 -0.29180738797E+01  0.40659129687E+02  0.00000000000E+00 0. -1.
         11    1    3    3    0    0  0.13929372296E+02 -0.21933669372E+01 -0.42768907505E+00  0.14107486994E+02  0.51100000000E-03 0. -1.
        -11    1    3    3    0    0  0.24781981945E+02 -0.83112882487E+01 -0.19268922149E+00  0.26139266839E+02  0.51100000000E-03 0.  1.
         12    1    3    3    0    0  0.18299558234E+01  0.94790578219E+01  0.35384521762E+01  0.10282116480E+02  0.00000000000E+00 0. -1.
</event>
<event>
 7    1  0.2500839E-011  0.5052886E+02  0.7816164E-02  0.1300439E+00
        -11   -1    0    0    0    0  0.00000000000E+00  0.00000000000E+00  0.45593999997E+02  0.45594000000E+02  0.51100000000E-03 0.  1.
         11   -1    0    0    0    0 -0.00000000000E+00 -0.00000000000E+00 -0.45593999997E+02  0.45594000000E+02  0.51100000000E-03 0. -1.
    9900012    2    1    2    0    0  0.23414826520E+02  0.31254889336E+02  0.11315620014E+02  0.50528862470E+02  0.30000007964E+02 0.  0.
         12    1    1    2    0    0 -0.23414826520E+02 -0.31254889336E+02 -0.11315620014E+02  0.40659137530E+02  0.00000000000E+00 0. -1.
         11    1    3    3    0    0  0.42626554773E+01  0.22840802418E+01 -0.63358395836E+01  0.79705782575E+01  0.51100000000E-03 0. -1.
        -11    1    3    3    0    0  0.18631099157E+02  0.15095174998E+02  0.67672396579E+01  0.24915410831E+02  0.51100000000E-03 0.  1.
         12    1    3    3    0    0  0.52107188576E+00  0.13875634096E+02  0.10884219939E+02  0.17642873382E+02  0.00000000000E+00 0. -1.
</event>
<event>
 7    1  0.2500839E-011  0.5052886E+02  0.7816164E-02  0.1300439E+00
        -11   -1    0    0    0    0  0.00000000000E+00  0.00000000000E+00  0.45593999997E+02  0.45594000000E+02  0.51100000000E-03 0.  1.
         11   -1    0    0    0    0 -0.00000000000E+00 -0.00000000000E+00 -0.45593999997E+02  0.45594000000E+02  0.51100000000E-03 0. -1.
    9900012    2    1    2    0    0  0.36695327486E+02 -0.97684829587E+01  0.14532556633E+02  0.50528861778E+02  0.30000005861E+02 0.  0.
         12    1    1    2    0    0 -0.36695327486E+02  0.97684829587E+01 -0.14532556633E+02  0.40659138222E+02  0.00000000000E+00 0. -1.
         11    1    3    3    0    0  0.55814328492E+01  0.54311821955E+01  0.69908523241E+01  0.10465283043E+02  0.51100000000E-03 0. -1.
        -11    1    3    3    0    0  0.14152186633E+02 -0.59750815794E+01  0.12862828993E+02  0.20035926640E+02  0.51100000000E-03 0.  1.
         12    1    3    3    0    0  0.16961708004E+02 -0.92245835748E+01 -0.53211246837E+01  0.20027652095E+02  0.00000000000E+00 0. -1.
</event>
<event>
 7    1  0.2500839E-011  0.5052885E+02  0.7816164E-02  0.1300439E+00
        -11   -1    0    0    0    0  0.00000000000E+00  0.00000000000E+00  0.45593999997E+02  0.45594000000E+02  0.51100000000E-03 0.  1.
         11   -1    0    0    0    0 -0.00000000000E+00 -0.00000000000E+00 -0.45593999997E+02  0.45594000000E+02  0.51100000000E-03 0. -1.
    9900012    2    1    2    0    0 -0.46020582970E+01  0.40115412024E+02 -0.47687416826E+01  0.50528854416E+02  0.29999983483E+02 0.  0.
         12    1    1    2    0    0  0.46020582970E+01 -0.40115412024E+02  0.47687416826E+01  0.40659145584E+02  0.00000000000E+00 0. -1.
         11    1    3    3    0    0  0.66032324382E+01 -0.29309070744E-01 -0.30451943827E+01  0.72716398937E+01  0.51100000000E-03 0. -1.
        -11    1    3    3    0    0  0.20591021921E+01  0.94397779964E+01  0.91957747151E+00  0.97054074333E+01  0.51100000000E-03 0.  1.
        -12    1    3    3    0    0 -0.13264392927E+02  0.30704943098E+02 -0.26431247714E+01  0.33551807089E+02  0.00000000000E+00 0.  1.
</event>
<event>
 7    1  0.2500839E-011  0.5052888E+02  0.7816164E-02  0.1300439E+00
        -11   -1    0    0    0    0  0.00000000000E+00  0.00000000000E+00  0.45593999997E+02  0.45594000000E+02  0.51100000000E-03 0.  1.
         11   -1    0    0    0    0 -0.00000000000E+00 -0.00000000000E+00 -0.45593999997E+02  0.45594000000E+02  0.51100000000E-03 0. -1.
    9900012    2    1    2    0    0 -0.25152496354E+02  0.20666090186E+02  0.24360386686E+02  0.50528882991E+02  0.30000070340E+02 0.  0.
         12    1    1    2    0    0  0.25152496354E+02 -0.20666090186E+02 -0.24360386686E+02  0.40659117009E+02  0.00000000000E+00 0. -1.
         11    1    3    3    0    0  0.13206631438E+01  0.13774617865E+02  0.24315922686E+01  0.14049800344E+02  0.51100000000E-03 0. -1.
        -11    1    3    3    0    0 -0.18478395318E+02  0.37796984038E+00  0.11265060191E+02  0.21644757705E+02  0.51100000000E-03 0.  1.
        -12    1    3    3    0    0 -0.79947641799E+01  0.65135024804E+01  0.10663734227E+02  0.14834324943E+02  0.00000000000E+00 0.  1.
</event>
<event>
 7    1  0.2500839E-011  0.5052886E+02  0.7816164E-02  0.1300439E+00
        -11   -1    0    0    0    0  0.00000000000E+00  0.00000000000E+00  0.45593999997E+02  0.45594000000E+02  0.51100000000E-03 0.  1.
         11   -1    0    0    0    0 -0.00000000000E+00 -0.00000000000E+00 -0.45593999997E+02  0.45594000000E+02  0.51100000000E-03 0. -1.
    9900012    2    1    2    0    0 -0.67554691574E+01  0.12570750070E+02  0.38072368034E+02  0.50528864144E+02  0.30000013052E+02 0.  0.
         12    1    1    2    0    0  0.67554691574E+01 -0.12570750070E+02 -0.38072368034E+02  0.40659135856E+02  0.00000000000E+00 0. -1.
         11    1    3    3    0    0  0.51997419436E+01  0.16546549263E+01 -0.25097922596E+00  0.54624344425E+01  0.51100000000E-03 0. -1.
        -11    1    3    3    0    0 -0.68955953271E+01  0.12497456731E+02  0.13374008607E+02  0.19560157620E+02  0.51100000000E-03 0.  1.
         12    1    3    3    0    0 -0.50596157739E+01 -0.15813615871E+01  0.24949338653E+02  0.25506272081E+02  0.00000000000E+00 0. -1.
</event>
<event>
 7    1  0.2500839E-011  0.5052887E+02  0.7816164E-02  0.1300439E+00
        -11   -1    0    0    0    0  0.00000000000E+00  0.00000000000E+00  0.45593999997E+02  0.45594000000E+02  0.51100000000E-03 0.  1.
         11   -1    0    0    0    0 -0.00000000000E+00 -0.00000000000E+00 -0.45593999997E+02  0.45594000000E+02  0.51100000000E-03 0. -1.
    9900012    2    1    2    0    0  0.11574659573E+02  0.18399346173E+02  0.34360680588E+02  0.50528867517E+02  0.30000023304E+02 0.  0.
         12    1    1    2    0    0 -0.11574659573E+02 -0.18399346173E+02 -0.34360680588E+02  0.40659132483E+02  0.00000000000E+00 0. -1.
         11    1    3    3    0    0 -0.29715917594E+01  0.16004758324E+02  0.21149810189E+02  0.26688895029E+02  0.51100000000E-03 0. -1.
        -11    1    3    3    0    0 -0.20807843279E+01 -0.11507162165E+01  0.11594021819E+00  0.23805994256E+01  0.51100000000E-03 0.  1.
        -12    1    3    3    0    0  0.16627035660E+02  0.35453040655E+01  0.13094930181E+02  0.21459373062E+02  0.00000000000E+00 0.  1.
</event>
<event>
 7    1  0.2500839E-011  0.5052886E+02  0.7816164E-02  0.1300439E+00
        -11   -1    0    0    0    0  0.00000000000E+00  0.00000000000E+00  0.45593999997E+02  0.45594000000E+02  0.51100000000E-03 0.  1.
         11   -1    0    0    0    0 -0.00000000000E+00 -0.00000000000E+00 -0.45593999997E+02  0.45594000000E+02  0.51100000000E-03 0. -1.
    9900012    2    1    2    0    0  0.89972658011E+01  0.26171060159E+02  0.29787419767E+02  0.50528861321E+02  0.30000004471E+02 0.  0.
         12    1    1    2    0    0 -0.89972658011E+01 -0.26171060159E+02 -0.29787419767E+02  0.40659138679E+02  0.00000000000E+00 0. -1.
         11    1    3    3    0    0  0.12047255572E+02  0.23583385962E+01  0.10393700888E+01  0.12319838400E+02  0.51100000000E-03 0.  1.
        -11    1    3    3    0    0 -0.19248242766E+01  0.74665029193E+00  0.26791804037E+01  0.33823723998E+01  0.51100000000E-03 0. -1.
        -12    1    3    3    0    0 -0.11251654948E+01  0.23066071271E+02  0.26068869274E+02  0.34826650521E+02  0.00000000000E+00 0.  1.
</event>
<event>
 7    1  0.2500839E-011  0.5052886E+02  0.7816164E-02  0.1300439E+00
        -11   -1    0    0    0    0  0.00000000000E+00  0.00000000000E+00  0.45593999997E+02  0.45594000000E+02  0.51100000000E-03 0.  1.
         11   -1    0    0    0    0 -0.00000000000E+00 -0.00000000000E+00 -0.45593999997E+02  0.45594000000E+02  0.51100000000E-03 0. -1.
    9900012    2    1    2    0    0 -0.67933442421E+01  0.28243501055E+02  0.28448562784E+02  0.50528860777E+02  0.30000002819E+02 0.  0.
         12    1    1    2    0    0  0.67933442421E+01 -0.28243501055E+02 -0.28448562784E+02  0.40659139223E+02  0.00000000000E+00 0. -1.
         11    1    3    3    0    0 -0.32850533683E+01 -0.15434595431E+00  0.20931944173E+01  0.38983152048E+01  0.51100000000E-03 0. -1.
        -11    1    3    3    0    0  0.81685217427E+01  0.29759179917E+01  0.12979132405E+02  0.15621738495E+02  0.51100000000E-03 0.  1.
        -12    1    3    3    0    0 -0.11676812616E+02  0.25421929018E+02  0.13376235962E+02  0.31008807078E+02  0.00000000000E+00 0.  1.
</event>
<event>
 7    1  0.2500839E-011  0.5052885E+02  0.7816164E-02  0.1300439E+00
        -11   -1    0    0    0    0  0.00000000000E+00  0.00000000000E+00  0.45593999997E+02  0.45594000000E+02  0.51100000000E-03 0.  1.
         11   -1    0    0    0    0 -0.00000000000E+00 -0.00000000000E+00 -0.45593999997E+02  0.45594000000E+02  0.51100000000E-03 0. -1.
    9900012    2    1    2    0    0  0.27216573947E+02  0.29379654895E+02  0.70185874284E+01  0.50528848648E+02  0.29999965950E+02 0.  0.
         12    1    1    2    0    0 -0.27216573947E+02 -0.29379654895E+02 -0.70185874284E+01  0.40659151352E+02  0.00000000000E+00 0. -1.
         11    1    3    3    0    0 -0.83904956390E+00 -0.32492741084E+01 -0.11423059844E+01  0.35449470553E+01  0.51100000000E-03 0. -1.
        -11    1    3    3    0    0  0.56504565372E+01  0.11951085860E+02 -0.45090214650E+01  0.13967368655E+02  0.51100000000E-03 0.  1.
        -12    1    3    3    0    0  0.22405166974E+02  0.20677843143E+02  0.12669914878E+02  0.33016532937E+02  0.00000000000E+00 0.  1.
</event>
<event>
 7    1  0.2500839E-011  0.5052886E+02  0.7816164E-02  0.1300439E+00
        -11   -1    0    0    0    0  0.00000000000E+00  0.00000000000E+00  0.45593999997E+02  0.45594000000E+02  0.51100000000E-03 0.  1.
         11   -1    0    0    0    0 -0.00000000000E+00 -0.00000000000E+00 -0.45593999997E+02  0.45594000000E+02  0.51100000000E-03 0. -1.
    9900012    2    1    2    0    0 -0.18117623932E+02 -0.19832583738E+02  0.30521889014E+02  0.50528863467E+02  0.30000010993E+02 0.  0.
         12    1    1    2    0    0  0.18117623932E+02  0.19832583738E+02 -0.30521889014E+02  0.40659136533E+02  0.00000000000E+00 0. -1.
         11    1    3    3    0    0 -0.10946321898E+01 -0.12867602329E+01 -0.29779916067E+01  0.34237999063E+01  0.51100000000E-03 0. -1.
        -11    1    3    3    0    0 -0.88510150240E+01 -0.18060897404E+02  0.10494111416E+02  0.22686182064E+02  0.51100000000E-03 0.  1.
         12    1    3    3    0    0 -0.81719767178E+01 -0.48492610078E+00  0.23005769205E+02  0.24418881496E+02  0.00000000000E+00 0. -1.
</event>
<event>
 7    1  0.2500839E-011  0.5052886E+02  0.7816164E-02  0.1300439E+00
        -11   -1    0    0    0    0  0.00000000000E+00  0.00000000000E+00  0.45593999997E+02  0.45594000000E+02  0.51100000000E-03 0.  1.
         11   -1    0    0    0    0 -0.00000000000E+00 -0.00000000000E+00 -0.45593999997E+02  0.45594000000E+02  0.51100000000E-03 0. -1.
    9900012    2    1    2    0    0  0.39699535640E+02 -0.83891788258E+01  0.25950705975E+01  0.50528857820E+02  0.29999993829E+02 0.  0.
         12    1    1    2    0    0 -0.39699535640E+02  0.83891788258E+01 -0.25950705975E+01  0.40659142180E+02  0.00000000000E+00 0. -1.
         11    1    3    3    0    0  0.11173984797E+02  0.40300749184E+01  0.67575742217E+01  0.13666171729E+02  0.51100000000E-03 0. -1.
        -11    1    3    3    0    0  0.15085700652E+02  0.11129717786E+01 -0.84324552908E+01  0.17318295899E+02  0.51100000000E-03 0.  1.
        -12    1    3    3    0    0  0.13439850191E+02 -0.13532225523E+02  0.42699516667E+01  0.19544390192E+02  0.00000000000E+00 0.  1.
</event>
<event>
 7    1  0.2500839E-011  0.5052885E+02  0.7816164E-02  0.1300439E+00
        -11   -1    0    0    0    0  0.00000000000E+00  0.00000000000E+00  0.45593999997E+02  0.45594000000E+02  0.51100000000E-03 0. -1.
         11   -1    0    0    0    0 -0.00000000000E+00 -0.00000000000E+00 -0.45593999997E+02  0.45594000000E+02  0.51100000000E-03 0.  1.
    9900012    2    1    2    0    0  0.19731549771E+02  0.35490602931E+02 -0.20613837947E+01  0.50528852740E+02  0.29999978388E+02 0.  0.
         12    1    1    2    0    0 -0.19731549771E+02 -0.35490602931E+02  0.20613837947E+01  0.40659147260E+02  0.00000000000E+00 0. -1.
         11    1    3    3    0    0  0.41210267525E+01 -0.73342633460E+00  0.35361673961E+01  0.54795306184E+01  0.51100000000E-03 0. -1.
        -11    1    3    3    0    0  0.13493591432E+02  0.18003758689E+02 -0.12151333907E+02  0.25570828157E+02  0.51100000000E-03 0.  1.
        -12    1    3    3    0    0  0.21169315859E+01  0.18220270577E+02  0.65537827157E+01  0.19478493964E+02  0.00000000000E+00 0.  1.
</event>
<event>
 7    1  0.2531475E-011  0.5052886E+02  0.7816164E-02  0.1300439E+00
        -11   -1    0    0    0    0  0.00000000000E+00  0.00000000000E+00  0.45593999997E+02  0.45594000000E+02  0.51100000000E-03 0. -1.
         11   -1    0    0    0    0 -0.00000000000E+00 -0.00000000000E+00 -0.45593999997E+02  0.45594000000E+02  0.51100000000E-03 0.  1.
    9900012    2    1    2    0    0 -0.11142490081E+02 -0.93434171483E+01 -0.37969873934E+02  0.50528857661E+02  0.29999993346E+02 0.  0.
         12    1    1    2    0    0  0.11142490081E+02  0.93434171483E+01  0.37969873934E+02  0.40659142339E+02  0.00000000000E+00 0. -1.
         11    1    3    3    0    0 -0.52710851226E+01  0.31810306460E+01 -0.10129254007E+02  0.11853483932E+02  0.51100000000E-03 0. -1.
        -11    1    3    3    0    0 -0.31743739780E+01 -0.68648453886E+01 -0.30819726191E+02  0.31734181494E+02  0.51100000000E-03 0.  1.
         12    1    3    3    0    0 -0.26970309799E+01 -0.56596024058E+01  0.29791062640E+01  0.69411922341E+01  0.00000000000E+00 0. -1.
</event>
<event>
 7    1  0.2500839E-011  0.5052888E+02  0.7816164E-02  0.1300439E+00
        -11   -1    0    0    0    0  0.00000000000E+00  0.00000000000E+00  0.45593999997E+02  0.45594000000E+02  0.51100000000E-03 0.  1.
         11   -1    0    0    0    0 -0.00000000000E+00 -0.00000000000E+00 -0.45593999997E+02  0.45594000000E+02  0.51100000000E-03 0. -1.
    9900012    2    1    2    0    0  0.32998703803E+02  0.13036348752E+02  0.19857077792E+02  0.50528875811E+02  0.30000048514E+02 0.  0.
         12    1    1    2    0    0 -0.32998703803E+02 -0.13036348752E+02 -0.19857077792E+02  0.40659124189E+02  0.00000000000E+00 0. -1.
         11    1    3    3    0    0  0.71258845779E+01  0.14007623140E+02  0.86331967309E+00  0.15739665123E+02  0.51100000000E-03 0. -1.
        -11    1    3    3    0    0  0.14449164872E+02  0.81435365658E+00  0.25619603593E+01  0.14697114633E+02  0.51100000000E-03 0.  1.
         12    1    3    3    0    0  0.11423654352E+02 -0.17856280453E+01  0.16431797759E+02  0.20092096055E+02  0.00000000000E+00 0. -1.
</event>
<event>
 7    1  0.2500839E-011  0.5052886E+02  0.7816164E-02  0.1300439E+00
        -11   -1    0    0    0    0  0.00000000000E+00  0.00000000000E+00  0.45593999997E+02  0.45594000000E+02  0.51100000000E-03 0.  1.
         11   -1    0    0    0    0 -0.00000000000E+00 -0.00000000000E+00 -0.45593999997E+02  0.45594000000E+02  0.51100000000E-03 0. -1.
    9900012    2    1    2    0    0 -0.36960990688E+02  0.16809911684E+02  0.21161118766E+01  0.50528857204E+02  0.29999991957E+02 0.  0.
         12    1    1    2    0    0  0.36960990688E+02 -0.16809911684E+02 -0.21161118766E+01  0.40659142796E+02  0.00000000000E+00 0. -1.
         11    1    3    3    0    0 -0.19408739152E+02  0.17562338599E+02 -0.25381485874E+01  0.26297853354E+02  0.51100000000E-03 0. -1.
        -11    1    3    3    0    0 -0.11916896420E+01 -0.20417532457E+01 -0.47574638645E+01  0.53124705366E+01  0.51100000000E-03 0.  1.
        -12    1    3    3    0    0 -0.16360561894E+02  0.12893263302E+01  0.94117243285E+01  0.18918533313E+02  0.00000000000E+00 0.  1.
</event>
<event>
 7    1  0.2500839E-011  0.5052891E+02  0.7816164E-02  0.1300439E+00
        -11   -1    0    0    0    0  0.00000000000E+00  0.00000000000E+00  0.45593999997E+02  0.45594000000E+02  0.51100000000E-03 0.  1.
         11   -1    0    0    0    0 -0.00000000000E+00 -0.00000000000E+00 -0.45593999997E+02  0.45594000000E+02  0.51100000000E-03 0. -1.
    9900012    2    1    2    0    0  0.13582795097E+02 -0.16365157089E+02  0.34653298461E+02  0.50528907740E+02  0.30000145566E+02 0.  0.
         12    1    1    2    0    0 -0.13582795097E+02  0.16365157089E+02 -0.34653298461E+02  0.40659092260E+02  0.00000000000E+00 0. -1.
         11    1    3    3    0    0  0.48162404869E+00  0.30892897570E+01 -0.21816340582E+01  0.38125057838E+01  0.51100000000E-03 0. -1.
        -11    1    3    3    0    0 -0.20501830641E+01  0.15185031403E+01  0.56242839467E+01  0.61758944743E+01  0.51100000000E-03 0.  1.
         12    1    3    3    0    0  0.15151354112E+02 -0.20972949987E+02  0.31210648572E+02  0.40540507482E+02  0.00000000000E+00 0. -1.
</event>
<event>
 7    1  0.2500839E-011  0.5052886E+02  0.7816164E-02  0.1300439E+00
        -11   -1    0    0    0    0  0.00000000000E+00  0.00000000000E+00  0.45593999997E+02  0.45594000000E+02  0.51100000000E-03 0.  1.
         11   -1    0    0    0    0 -0.00000000000E+00 -0.00000000000E+00 -0.45593999997E+02  0.45594000000E+02  0.51100000000E-03 0. -1.
    9900012    2    1    2    0    0 -0.82419923514E+01 -0.39814813404E+02  0.12746740839E+00  0.50528855244E+02  0.29999986000E+02 0.  0.
         12    1    1    2    0    0  0.82419923514E+01  0.39814813404E+02 -0.12746740839E+00  0.40659144756E+02  0.00000000000E+00 0. -1.
         11    1    3    3    0    0 -0.87235167550E+01 -0.10107060505E+02 -0.87737789860E+01  0.15975969911E+02  0.51100000000E-03 0. -1.
        -11    1    3    3    0    0  0.11508420191E+01 -0.19410093234E+02 -0.19942320501E+01  0.19546179127E+02  0.51100000000E-03 0.  1.
         12    1    3    3    0    0 -0.66931761551E+00 -0.10297659665E+02  0.10895478445E+02  0.15006706207E+02  0.00000000000E+00 0. -1.
</event>
<event>
 7    1  0.2500839E-011  0.5052885E+02  0.7816164E-02  0.1300439E+00
        -11   -1    0    0    0    0  0.00000000000E+00  0.00000000000E+00  0.45593999997E+02  0.45594000000E+02  0.51100000000E-03 0. -1.
         11   -1    0    0    0    0 -0.00000000000E+00 -0.00000000000E+00 -0.45593999997E+02  0.45594000000E+02  0.51100000000E-03 0.  1.
    9900012    2    1    2    0    0 -0.39788150773E+02  0.83158717681E+01 -0.95697406325E+00  0.50528850174E+02  0.29999970588E+02 0.  0.
         12    1    1    2    0    0  0.39788150773E+02 -0.83158717681E+01  0.95697406325E+00  0.40659149826E+02  0.00000000000E+00 0. -1.
         11    1    3    3    0    0 -0.19776570997E+02 -0.40703389348E+01 -0.82450766667E+01  0.21809670079E+02  0.51100000000E-03 0. -1.
        -11    1    3    3    0    0 -0.15974340477E+02  0.13989533907E+01  0.34692403027E+01  0.16406469846E+02  0.51100000000E-03 0.  1.
        -12    1    3    3    0    0 -0.40372392992E+01  0.10987257312E+02  0.38188623007E+01  0.12312710249E+02  0.00000000000E+00 0.  1.
</event>
<event>
 7    1  0.2500839E-011  0.5052884E+02  0.7816164E-02  0.1300439E+00
        -11   -1    0    0    0    0  0.00000000000E+00  0.00000000000E+00  0.45593999997E+02  0.45594000000E+02  0.51100000000E-03 0. -1.
         11   -1    0    0    0    0 -0.00000000000E+00 -0.00000000000E+00 -0.45593999997E+02  0.45594000000E+02  0.51100000000E-03 0.  1.
    9900012    2    1    2    0    0  0.32187015706E+02  0.24653063480E+02 -0.30642462602E+01  0.50528842063E+02  0.29999945936E+02 0.  0.
         12    1    1    2    0    0 -0.32187015706E+02 -0.24653063480E+02  0.30642462602E+01  0.40659157937E+02  0.00000000000E+00 0. -1.
         11    1    3    3    0    0  0.56450049176E+01  0.17598307547E+00  0.64913206359E+01  0.86043183590E+01  0.51100000000E-03 0. -1.
        -11    1    3    3    0    0  0.10849249064E+02 -0.97264403452E+00 -0.32570742840E+01  0.11369290867E+02  0.51100000000E-03 0.  1.
         12    1    3    3    0    0  0.15692761724E+02  0.25449724439E+02 -0.62984926122E+01  0.30555232837E+02  0.00000000000E+00 0. -1.
</event>
<event>
 7    1  0.2500839E-011  0.5052886E+02  0.7816164E-02  0.1300439E+00
        -11   -1    0    0    0    0  0.00000000000E+00  0.00000000000E+00  0.45593999997E+02  0.45594000000E+02  0.51100000000E-03 0.  1.
         11   -1    0    0    0    0 -0.00000000000E+00 -0.00000000000E+00 -0.45593999997E+02  0.45594000000E+02  0.51100000000E-03 0. -1.
    9900012    2    1    2    0    0 -0.14843422568E+02 -0.25564544143E+02  0.27915814560E+02  0.50528858183E+02  0.29999994933E+02 0.  0.
         12    1    1    2    0    0  0.14843422568E+02  0.25564544143E+02 -0.27915814560E+02  0.40659141817E+02  0.00000000000E+00 0. -1.
         11    1    3    3    0    0 -0.27539325468E+01 -0.35269612481E+01  0.13802245727E+02  0.14509499905E+02  0.51100000000E-03 0. -1.
        -11    1    3    3    0    0 -0.82540305763E+01  0.21787191266E+01  0.47864367900E+01  0.97870227952E+01  0.51100000000E-03 0.  1.
         12    1    3    3    0    0 -0.38354594448E+01 -0.24216302022E+02  0.93271320429E+01  0.26232335483E+02  0.00000000000E+00 0. -1.
</event>
<event>
 7    1  0.2500839E-011  0.5052886E+02  0.7816164E-02  0.1300439E+00
        -11   -1    0    0    0    0  0.00000000000E+00  0.00000000000E+00  0.45593999997E+02  0.45594000000E+02  0.51100000000E-03 0.  1.
         11   -1    0    0    0    0 -0.00000000000E+00 -0.00000000000E+00 -0.45593999997E+02  0.45594000000E+02  0.51100000000E-03 0. -1.
    9900012    2    1    2    0    0 -0.19667983209E+01  0.39871097762E+02  0.77196645419E+01  0.50528856465E+02  0.29999989711E+02 0.  0.
         12    1    1    2    0    0  0.19667983209E+01 -0.39871097762E+02 -0.77196645419E+01  0.40659143535E+02  0.00000000000E+00 0. -1.
         11    1    3    3    0    0 -0.53675288860E+01  0.15776379296E+02  0.17445420464E+02  0.24125654509E+02  0.51100000000E-03 0.  1.
        -11    1    3    3    0    0  0.14532441363E+01  0.27370506457E+01 -0.11326711200E+01  0.32994406926E+01  0.51100000000E-03 0. -1.
        -12    1    3    3    0    0  0.19474864288E+01  0.21357667820E+02 -0.85930848025E+01  0.23103761263E+02  0.00000000000E+00 0.  1.
</event>
<event>
 7    1  0.2500839E-011  0.5052886E+02  0.7816164E-02  0.1300439E+00
        -11   -1    0    0    0    0  0.00000000000E+00  0.00000000000E+00  0.45593999997E+02  0.45594000000E+02  0.51100000000E-03 0.  1.
         11   -1    0    0    0    0 -0.00000000000E+00 -0.00000000000E+00 -0.45593999997E+02  0.45594000000E+02  0.51100000000E-03 0. -1.
    9900012    2    1    2    0    0  0.53649345962E+01 -0.19397540317E+02  0.35328716098E+02  0.50528864807E+02  0.30000015066E+02 0.  0.
         12    1    1    2    0    0 -0.53649345962E+01  0.19397540317E+02 -0.35328716098E+02  0.40659135193E+02  0.00000000000E+00 0. -1.
         11    1    3    3    0    0 -0.43797791219E+01  0.23927463935E+01  0.58102118390E+01  0.76593904676E+01  0.51100000000E-03 0. -1.
        -11    1    3    3    0    0 -0.43145384353E+01 -0.97807043015E+01  0.18439199241E+02  0.21313880159E+02  0.51100000000E-03 0.  1.
        -12    1    3    3    0    0  0.14059252153E+02 -0.12009582409E+02  0.11079305018E+02  0.21555594180E+02  0.00000000000E+00 0.  1.
</event>
<event>
 7    1  0.2500839E-011  0.5052886E+02  0.7816164E-02  0.1300439E+00
        -11   -1    0    0    0    0  0.00000000000E+00  0.00000000000E+00  0.45593999997E+02  0.45594000000E+02  0.51100000000E-03 0.  1.
         11   -1    0    0    0    0 -0.00000000000E+00 -0.00000000000E+00 -0.45593999997E+02  0.45594000000E+02  0.51100000000E-03 0. -1.
    9900012    2    1    2    0    0 -0.17548720467E+02 -0.32569012383E+02 -0.16866172750E+02  0.50528856614E+02  0.29999990165E+02 0.  0.
         12    1    1    2    0    0  0.17548720467E+02  0.32569012383E+02  0.16866172750E+02  0.40659143386E+02  0.00000000000E+00 0. -1.
         11    1    3    3    0    0  0.72663041093E+01 -0.90813596553E+01 -0.68461316240E+01  0.13495917422E+02  0.51100000000E-03 0. -1.
        -11    1    3    3    0    0 -0.85282809990E+01 -0.21716538683E+01 -0.18774922765E+01  0.89984795844E+01  0.51100000000E-03 0.  1.
        -12    1    3    3    0    0 -0.16286743577E+02 -0.21315998859E+02 -0.81425488494E+01  0.28034459608E+02  0.00000000000E+00 0.  1.
</event>
<event>
 7    1  0.2500839E-011  0.5052885E+02  0.7816164E-02  0.1300439E+00
        -11   -1    0    0    0    0  0.00000000000E+00  0.00000000000E+00  0.45593999997E+02  0.45594000000E+02  0.51100000000E-03 0.  1.
         11   -1    0    0    0    0 -0.00000000000E+00 -0.00000000000E+00 -0.45593999997E+02  0.45594000000E+02  0.51100000000E-03 0. -1.
    9900012    2    1    2    0    0  0.34735417334E+02 -0.19904942278E+02 -0.71000139160E+01  0.50528854140E+02  0.29999982645E+02 0.  0.
         12    1    1    2    0    0 -0.34735417334E+02  0.19904942278E+02  0.71000139160E+01  0.40659145860E+02  0.00000000000E+00 0. -1.
         11    1    3    3    0    0 -0.11484766401E+01 -0.57995424128E+00 -0.15714381463E+00  0.12961635523E+01  0.51100000000E-03 0. -1.
        -11    1    3    3    0    0  0.24848324656E+02 -0.12524642833E+02  0.84763069536E+01  0.29088721115E+02  0.51100000000E-03 0.  1.
        -12    1    3    3    0    0  0.11035569318E+02 -0.68003452042E+01 -0.15419177055E+02  0.20143969473E+02  0.00000000000E+00 0.  1.
</event>
<event>
 7    1  0.2500839E-011  0.5052886E+02  0.7816164E-02  0.1300439E+00
        -11   -1    0    0    0    0  0.00000000000E+00  0.00000000000E+00  0.45593999997E+02  0.45594000000E+02  0.51100000000E-03 0.  1.
         11   -1    0    0    0    0 -0.00000000000E+00 -0.00000000000E+00 -0.45593999997E+02  0.45594000000E+02  0.51100000000E-03 0. -1.
    9900012    2    1    2    0    0 -0.12814841993E+02  0.36944106820E+02  0.11139069333E+02  0.50528855031E+02  0.29999985351E+02 0.  0.
         12    1    1    2    0    0  0.12814841993E+02 -0.36944106820E+02 -0.11139069333E+02  0.40659144969E+02  0.00000000000E+00 0. -1.
         11    1    3    3    0    0 -0.41968152989E+01  0.22062215202E+02  0.15669761795E+02  0.27384229645E+02  0.51100000000E-03 0. -1.
        -11    1    3    3    0    0 -0.11559504968E+02  0.78158534787E+01  0.53866304543E+00  0.13964235706E+02  0.51100000000E-03 0.  1.
        -12    1    3    3    0    0  0.29414782733E+01  0.70660381393E+01 -0.50693555073E+01  0.91803896801E+01  0.00000000000E+00 0.  1.
</event>
<event>
 7    1  0.2500839E-011  0.5052886E+02  0.7816164E-02  0.1300439E+00
        -11   -1    0    0    0    0  0.00000000000E+00  0.00000000000E+00  0.45593999997E+02  0.45594000000E+02  0.51100000000E-03 0. -1.
         11   -1    0    0    0    0 -0.00000000000E+00 -0.00000000000E+00 -0.45593999997E+02  0.45594000000E+02  0.51100000000E-03 0.  1.
    9900012    2    1    2    0    0 -0.66695580781E+01  0.39157305530E+02 -0.86826277277E+01  0.50528860737E+02  0.30000002697E+02 0.  0.
         12    1    1    2    0    0  0.66695580781E+01 -0.39157305530E+02  0.86826277277E+01  0.40659139263E+02  0.00000000000E+00 0. -1.
         11    1    3    3    0    0  0.43898691204E+01  0.41454751890E+01  0.55777868509E+01  0.82199526672E+01  0.51100000000E-03 0. -1.
        -11    1    3    3    0    0 -0.69046882112E+01  0.39296195596E+01 -0.57771613081E+01  0.98230454655E+01  0.51100000000E-03 0.  1.
        -12    1    3    3    0    0 -0.41547389873E+01  0.31082210781E+02 -0.84832532705E+01  0.32485862605E+02  0.00000000000E+00 0.  1.
</event>
<event>
 7    1  0.2500839E-011  0.5052887E+02  0.7816164E-02  0.1300439E+00
        -11   -1    0    0    0    0  0.00000000000E+00  0.00000000000E+00  0.45593999997E+02  0.45594000000E+02  0.51100000000E-03 0.  1.
         11   -1    0    0    0    0 -0.00000000000E+00 -0.00000000000E+00 -0.45593999997E+02  0.45594000000E+02  0.51100000000E-03 0. -1.
    9900012    2    1    2    0    0  0.32684003611E+02  0.19581156428E+02 -0.14195034259E+02  0.50528870930E+02  0.30000033678E+02 0.  0.
         12    1    1    2    0    0 -0.32684003611E+02 -0.19581156428E+02  0.14195034259E+02  0.40659129070E+02  0.00000000000E+00 0. -1.
         11    1    3    3    0    0  0.78101349567E+01  0.15275471530E+01 -0.83064822549E+01  0.11503445399E+02  0.51100000000E-03 0. -1.
        -11    1    3    3    0    0 -0.13959913285E+01 -0.21467607457E+01  0.37253111612E+01  0.45205438829E+01  0.51100000000E-03 0.  1.
        -12    1    3    3    0    0  0.26269859983E+02  0.20200370021E+02 -0.96138631658E+01  0.34504881647E+02  0.00000000000E+00 0.  1.
</event>
<event>
 7    1  0.2500839E-011  0.5052887E+02  0.7816164E-02  0.1300439E+00
        -11   -1    0    0    0    0  0.00000000000E+00  0.00000000000E+00  0.45593999997E+02  0.45594000000E+02  0.51100000000E-03 0.  1.
         11   -1    0    0    0    0 -0.00000000000E+00 -0.00000000000E+00 -0.45593999997E+02  0.45594000000E+02  0.51100000000E-03 0. -1.
    9900012    2    1    2    0    0  0.22696527182E+02 -0.89435024471E+01  0.32527628904E+02  0.50528865426E+02  0.30000016950E+02 0.  0.
         12    1    1    2    0    0 -0.22696527182E+02  0.89435024471E+01 -0.32527628904E+02  0.40659134574E+02  0.00000000000E+00 0. -1.
         11    1    3    3    0    0  0.17398781599E+02 -0.88966614703E+01  0.16770880250E+02  0.25751322510E+02  0.51100000000E-03 0.  1.
        -11    1    3    3    0    0  0.26994816173E-01  0.87270314485E+01  0.56696965661E+01  0.10407077690E+02  0.51100000000E-03 0. -1.
         12    1    3    3    0    0  0.52707507674E+01 -0.87738724252E+01  0.10087052088E+02  0.14370465226E+02  0.00000000000E+00 0. -1.
</event>
<event>
 7    1  0.2500839E-011  0.5052886E+02  0.7816164E-02  0.1300439E+00
        -11   -1    0    0    0    0  0.00000000000E+00  0.00000000000E+00  0.45593999997E+02  0.45594000000E+02  0.51100000000E-03 0.  1.
         11   -1    0    0    0    0 -0.00000000000E+00 -0.00000000000E+00 -0.45593999997E+02  0.45594000000E+02  0.51100000000E-03 0. -1.
    9900012    2    1    2    0    0 -0.87312104121E+01  0.20031617101E+02  0.34287990189E+02  0.50528856008E+02  0.29999988322E+02 0.  0.
         12    1    1    2    0    0  0.87312104121E+01 -0.20031617101E+02 -0.34287990189E+02  0.40659143992E+02  0.00000000000E+00 0. -1.
         11    1    3    3    0    0 -0.73528991561E+01  0.76330657150E+01  0.19257130377E+02  0.21981034753E+02  0.51100000000E-03 0. -1.
        -11    1    3    3    0    0  0.76647173886E+01  0.62388161900E+01  0.14558480925E+02  0.17596024756E+02  0.51100000000E-03 0.  1.
         12    1    3    3    0    0 -0.90430286446E+01  0.61597351960E+01  0.47237888803E+00  0.10951796499E+02  0.00000000000E+00 0. -1.
</event>
<event>
 7    1  0.2500839E-011  0.5052883E+02  0.7816164E-02  0.1300439E+00
        -11   -1    0    0    0    0  0.00000000000E+00  0.00000000000E+00  0.45593999997E+02  0.45594000000E+02  0.51100000000E-03 0.  1.
         11   -1    0    0    0    0 -0.00000000000E+00 -0.00000000000E+00 -0.45593999997E+02  0.45594000000E+02  0.51100000000E-03 0. -1.
    9900012    2    1    2    0    0 -0.25530945621E+01  0.20621147550E+02  0.34948791731E+02  0.50528830535E+02  0.29999910894E+02 0.  0.
         12    1    1    2    0    0  0.25530945621E+01 -0.20621147550E+02 -0.34948791731E+02  0.40659169465E+02  0.00000000000E+00 0. -1.
         11    1    3    3    0    0 -0.76952111972E+01  0.67729986473E+01  0.24144658609E+02  0.26230789650E+02  0.51100000000E-03 0.  1.
        -11    1    3    3    0    0  0.51545585228E+01  0.82791042377E+01  0.14600483755E+02  0.17558108289E+02  0.51100000000E-03 0. -1.
        -12    1    3    3    0    0 -0.12441887616E-01  0.55690446650E+01 -0.37963506327E+01  0.67399325967E+01  0.00000000000E+00 0.  1.
</event>
<event>
 7    1  0.2500839E-011  0.5052885E+02  0.7816164E-02  0.1300439E+00
        -11   -1    0    0    0    0  0.00000000000E+00  0.00000000000E+00  0.45593999997E+02  0.45594000000E+02  0.51100000000E-03 0.  1.
         11   -1    0    0    0    0 -0.00000000000E+00 -0.00000000000E+00 -0.45593999997E+02  0.45594000000E+02  0.51100000000E-03 0. -1.
    9900012    2    1    2    0    0 -0.17028911735E+02 -0.10977315523E+01  0.36904976246E+02  0.50528854397E+02  0.29999983425E+02 0.  0.
         12    1    1    2    0    0  0.17028911735E+02  0.10977315523E+01 -0.36904976246E+02  0.40659145603E+02  0.00000000000E+00 0. -1.
         11    1    3    3    0    0  0.23311647668E+01  0.32117191820E+01 -0.80542825697E-01  0.39693773670E+01  0.51100000000E-03 0. -1.
        -11    1    3    3    0    0 -0.62216358443E+01  0.70449429615E+01  0.20782921101E+02  0.22809423133E+02  0.51100000000E-03 0.  1.
         12    1    3    3    0    0 -0.13138440658E+02 -0.11354393696E+02  0.16202597971E+02  0.23750053897E+02  0.00000000000E+00 0. -1.
</event>
<event>
 7    1  0.2500839E-011  0.5052886E+02  0.7816164E-02  0.1300439E+00
        -11   -1    0    0    0    0  0.00000000000E+00  0.00000000000E+00  0.45593999997E+02  0.45594000000E+02  0.51100000000E-03 0. -1.
         11   -1    0    0    0    0 -0.00000000000E+00 -0.00000000000E+00 -0.45593999997E+02  0.45594000000E+02  0.51100000000E-03 0.  1.
    9900012    2    1    2    0    0 -0.19397290127E+02 -0.27532402112E+02 -0.22778890884E+02  0.50528857114E+02  0.29999991683E+02 0.  0.
         12    1    1    2    0    0  0.19397290127E+02  0.27532402112E+02  0.22778890884E+02  0.40659142886E+02  0.00000000000E+00 0. -1.
         11    1    3    3    0    0 -0.83148219170E+00  0.16540569965E+01  0.96031256552E+00  0.20855377406E+01  0.51100000000E-03 0. -1.
        -11    1    3    3    0    0  0.33769448012E+01 -0.89669834384E+01 -0.14175345566E+02  0.17109966988E+02  0.51100000000E-03 0.  1.
         12    1    3    3    0    0 -0.21942752737E+02 -0.20219475670E+02 -0.95638578839E+01  0.31333352385E+02  0.00000000000E+00 0. -1.
</event>
<event>
 7    1  0.2500839E-011  0.5052886E+02  0.7816164E-02  0.1300439E+00
        -11   -1    0    0    0    0  0.00000000000E+00  0.00000000000E+00  0.45593999997E+02  0.45594000000E+02  0.51100000000E-03 0.  1.
         11   -1    0    0    0    0 -0.00000000000E+00 -0.00000000000E+00 -0.45593999997E+02  0.45594000000E+02  0.51100000000E-03 0. -1.
    9900012    2    1    2    0    0 -0.13635578883E+02  0.25669414599E+02  0.28430924675E+02  0.50528864062E+02  0.30000012803E+02 0.  0.
         12    1    1    2    0    0  0.13635578883E+02 -0.25669414599E+02 -0.28430924675E+02  0.40659135938E+02  0.00000000000E+00 0. -1.
         11    1    3    3    0    0 -0.11193401277E+02  0.32018269049E+01  0.78857690455E+00  0.11669009447E+02  0.51100000000E-03 0. -1.
        -11    1    3    3    0    0 -0.79601792875E+01  0.15717955055E+02  0.13297602756E+02  0.22073622375E+02  0.51100000000E-03 0.  1.
         12    1    3    3    0    0  0.55180016811E+01  0.67496326388E+01  0.14344745014E+02  0.16786232241E+02  0.00000000000E+00 0. -1.
</event>
<event>
 7    1  0.2500839E-011  0.5052888E+02  0.7816164E-02  0.1300439E+00
        -11   -1    0    0    0    0  0.00000000000E+00  0.00000000000E+00  0.45593999997E+02  0.45594000000E+02  0.51100000000E-03 0. -1.
         11   -1    0    0    0    0 -0.00000000000E+00 -0.00000000000E+00 -0.45593999997E+02  0.45594000000E+02  0.51100000000E-03 0.  1.
    9900012    2    1    2    0    0 -0.24474405151E+02  0.21723369053E+02 -0.24130129138E+02  0.50528875529E+02  0.30000047658E+02 0.  0.
         12    1    1    2    0    0  0.24474405151E+02 -0.21723369053E+02  0.24130129138E+02  0.40659124471E+02  0.00000000000E+00 0. -1.
         11    1    3    3    0    0 -0.71525034707E+00 -0.15999984917E+01  0.53278171264E+00  0.18317846071E+01  0.51100000000E-03 0. -1.
        -11    1    3    3    0    0 -0.25578380178E+02  0.17297800553E+02 -0.95428185526E+01  0.32319233015E+02  0.51100000000E-03 0.  1.
        -12    1    3    3    0    0  0.18192253733E+01  0.60255669921E+01 -0.15120092298E+02  0.16377857907E+02  0.00000000000E+00 0.  1.
</event>
<event>
 7    1  0.2500839E-011  0.5052886E+02  0.7816164E-02  0.1300439E+00
        -11   -1    0    0    0    0  0.00000000000E+00  0.00000000000E+00  0.45593999997E+02  0.45594000000E+02  0.51100000000E-03 0.  1.
         11   -1    0    0    0    0 -0.00000000000E+00 -0.00000000000E+00 -0.45593999997E+02  0.45594000000E+02  0.51100000000E-03 0. -1.
    9900012    2    1    2    0    0 -0.27076251889E+02 -0.20035691541E+02  0.22773087478E+02  0.50528857545E+02  0.29999992995E+02 0.  0.
         12    1    1    2    0    0  0.27076251889E+02  0.20035691541E+02 -0.22773087478E+02  0.40659142455E+02  0.00000000000E+00 0. -1.
         11    1    3    3    0    0 -0.89403519936E+01 -0.15738487963E+02  0.47891229362E+01  0.18723397018E+02  0.51100000000E-03 0. -1.
        -11    1    3    3    0    0 -0.66569361006E+01  0.12888416724E+01 -0.28630637035E+01  0.73602340408E+01  0.51100000000E-03 0.  1.
        -12    1    3    3    0    0 -0.11478963794E+02 -0.55860452503E+01  0.20847028245E+02  0.24445226487E+02  0.00000000000E+00 0.  1.
</event>
<event>
 7    1  0.2500839E-011  0.5052886E+02  0.7816164E-02  0.1300439E+00
        -11   -1    0    0    0    0  0.00000000000E+00  0.00000000000E+00  0.45593999997E+02  0.45594000000E+02  0.51100000000E-03 0.  1.
         11   -1    0    0    0    0 -0.00000000000E+00 -0.00000000000E+00 -0.45593999997E+02  0.45594000000E+02  0.51100000000E-03 0. -1.
    9900012    2    1    2    0    0 -0.33205315334E+02  0.31849261277E+01  0.23247127036E+02  0.50528860359E+02  0.30000001548E+02 0.  0.
         12    1    1    2    0    0  0.33205315334E+02 -0.31849261277E+01 -0.23247127036E+02  0.40659139641E+02  0.00000000000E+00 0. -1.
         11    1    3    3    0    0 -0.66587714894E+01 -0.47788509509E+01  0.21915787714E+01  0.84840834467E+01  0.51100000000E-03 0. -1.
        -11    1    3    3    0    0 -0.27349800454E+02  0.92604217131E+01  0.24760920394E+02  0.38037746703E+02  0.51100000000E-03 0.  1.
         12    1    3    3    0    0  0.80325660934E+00 -0.12966446345E+01 -0.37053721293E+01  0.40070302102E+01  0.00000000000E+00 0. -1.
</event>
<event>
 7    1  0.2500839E-011  0.5052887E+02  0.7816164E-02  0.1300439E+00
        -11   -1    0    0    0    0  0.00000000000E+00  0.00000000000E+00  0.45593999997E+02  0.45594000000E+02  0.51100000000E-03 0. -1.
         11   -1    0    0    0    0 -0.00000000000E+00 -0.00000000000E+00 -0.45593999997E+02  0.45594000000E+02  0.51100000000E-03 0.  1.
    9900012    2    1    2    0    0 -0.25942789486E+02  0.29775923622E+02  0.96711572445E+01  0.50528865278E+02  0.30000016500E+02 0.  0.
         12    1    1    2    0    0  0.25942789486E+02 -0.29775923622E+02 -0.96711572445E+01  0.40659134722E+02  0.00000000000E+00 0. -1.
         11    1    3    3    0    0 -0.10605467433E+01  0.12350093678E+02  0.43179800075E+00  0.12403065065E+02  0.51100000000E-03 0. -1.
        -11    1    3    3    0    0 -0.16005804096E+02  0.64212308181E+01 -0.51044468346E+01  0.17985364821E+02  0.51100000000E-03 0.  1.
         12    1    3    3    0    0 -0.88764386458E+01  0.11004599127E+02  0.14343806078E+02  0.20140435392E+02  0.00000000000E+00 0. -1.
</event>
<event>
 7    1  0.2500839E-011  0.5052886E+02  0.7816164E-02  0.1300439E+00
        -11   -1    0    0    0    0  0.00000000000E+00  0.00000000000E+00  0.45593999997E+02  0.45594000000E+02  0.51100000000E-03 0.  1.
         11   -1    0    0    0    0 -0.00000000000E+00 -0.00000000000E+00 -0.45593999997E+02  0.45594000000E+02  0.51100000000E-03 0. -1.
    9900012    2    1    2    0    0  0.18358766564E+02 -0.28505799772E+02  0.22439712029E+02  0.50528860729E+02  0.30000002671E+02 0.  0.
         12    1    1    2    0    0 -0.18358766564E+02  0.28505799772E+02 -0.22439712029E+02  0.40659139271E+02  0.00000000000E+00 0. -1.
         11    1    3    3    0    0 -0.55368977728E+01 -0.70429741636E+01  0.52889546593E+01  0.10403545726E+02  0.51100000000E-03 0. -1.
        -11    1    3    3    0    0  0.68832026632E+01 -0.15076967613E+01 -0.23702127335E+01  0.74343484644E+01  0.51100000000E-03 0.  1.
        -12    1    3    3    0    0  0.17012461673E+02 -0.19955128847E+02  0.19520970103E+02  0.32690966539E+02  0.00000000000E+00 0.  1.
</event>
<event>
 7    1  0.2500839E-011  0.5052885E+02  0.7816164E-02  0.1300439E+00
        -11   -1    0    0    0    0  0.00000000000E+00  0.00000000000E+00  0.45593999997E+02  0.45594000000E+02  0.51100000000E-03 0.  1.
         11   -1    0    0    0    0 -0.00000000000E+00 -0.00000000000E+00 -0.45593999997E+02  0.45594000000E+02  0.51100000000E-03 0. -1.
    9900012    2    1    2    0    0 -0.40502621814E+02 -0.45260568353E+00  0.35354106323E+01  0.50528851534E+02  0.29999974721E+02 0.  0.
         12    1    1    2    0    0  0.40502621814E+02  0.45260568353E+00 -0.35354106323E+01  0.40659148466E+02  0.00000000000E+00 0. -1.
         11    1    3    3    0    0  0.11172523267E+01 -0.13925062252E+01 -0.16191941110E+01  0.24102108163E+01  0.51100000000E-03 0. -1.
        -11    1    3    3    0    0 -0.21619345090E+02 -0.11091952141E+02  0.48388829574E+01  0.24775840510E+02  0.51100000000E-03 0.  1.
        -12    1    3    3    0    0 -0.20000529050E+02  0.12031852683E+02  0.31572178588E+00  0.23342800207E+02  0.00000000000E+00 0.  1.
</event>
<event>
 7    1  0.2500839E-011  0.5052887E+02  0.7816164E-02  0.1300439E+00
        -11   -1    0    0    0    0  0.00000000000E+00  0.00000000000E+00  0.45593999997E+02  0.45594000000E+02  0.51100000000E-03 0.  1.
         11   -1    0    0    0    0 -0.00000000000E+00 -0.00000000000E+00 -0.45593999997E+02  0.45594000000E+02  0.51100000000E-03 0. -1.
    9900012    2    1    2    0    0 -0.27006409678E+02 -0.15727575428E+02  0.26008885578E+02  0.50528869149E+02  0.30000028264E+02 0.  0.
         12    1    1    2    0    0  0.27006409678E+02  0.15727575428E+02 -0.26008885578E+02  0.40659130851E+02  0.00000000000E+00 0. -1.
         11    1    3    3    0    0 -0.23692134956E+01 -0.52043211299E+01  0.71126003505E+01  0.91261829380E+01  0.51100000000E-03 0. -1.
        -11    1    3    3    0    0  0.42765429413E+01 -0.35599106134E+01  0.79667596137E+01  0.97175635891E+01  0.51100000000E-03 0.  1.
        -12    1    3    3    0    0 -0.28913739124E+02 -0.69633436851E+01  0.10929525614E+02  0.31685122622E+02  0.00000000000E+00 0.  1.
</event>
<event>
 7    1  0.2500839E-011  0.5052899E+02  0.7816164E-02  0.1300438E+00
        -11   -1    0    0    0    0  0.00000000000E+00  0.00000000000E+00  0.45593999997E+02  0.45594000000E+02  0.51100000000E-03 0.  1.
         11   -1    0    0    0    0 -0.00000000000E+00 -0.00000000000E+00 -0.45593999997E+02  0.45594000000E+02  0.51100000000E-03 0. -1.
    9900012    2    1    2    0    0 -0.66926866204E+01 -0.17609718480E+01  0.40065725945E+02  0.50528985359E+02  0.30000381496E+02 0.  0.
         12    1    1    2    0    0  0.66926866204E+01  0.17609718480E+01 -0.40065725945E+02  0.40659014641E+02  0.00000000000E+00 0. -1.
         11    1    3    3    0    0  0.75685057275E+00  0.10980445750E+02  0.88317097193E+01  0.14111771982E+02  0.51100000000E-03 0.  1.
        -11    1    3    3    0    0  0.14222538765E+01  0.56153780904E+00  0.24846194438E+00  0.15491495728E+01  0.51100000000E-03 0. -1.
        -12    1    3    3    0    0 -0.88717910696E+01 -0.13302955407E+02  0.30985554281E+02  0.34868063804E+02  0.00000000000E+00 0.  1.
</event>
<event>
 7    1  0.2500839E-011  0.5052886E+02  0.7816164E-02  0.1300439E+00
        -11   -1    0    0    0    0  0.00000000000E+00  0.00000000000E+00  0.45593999997E+02  0.45594000000E+02  0.51100000000E-03 0.  1.
         11   -1    0    0    0    0 -0.00000000000E+00 -0.00000000000E+00 -0.45593999997E+02  0.45594000000E+02  0.51100000000E-03 0. -1.
    9900012    2    1    2    0    0 -0.34382282335E+02 -0.18577082107E+02 -0.11221236351E+02  0.50528862485E+02  0.30000008010E+02 0.  0.
         12    1    1    2    0    0  0.34382282335E+02  0.18577082107E+02  0.11221236351E+02  0.40659137515E+02  0.00000000000E+00 0. -1.
         11    1    3    3    0    0 -0.10912088814E+02 -0.12468507058E+02  0.23454189330E+01  0.16734346141E+02  0.51100000000E-03 0. -1.
        -11    1    3    3    0    0 -0.19053166195E+02 -0.21268801943E+01 -0.20869518496E+00  0.19172644975E+02  0.51100000000E-03 0.  1.
         12    1    3    3    0    0 -0.44170273267E+01 -0.39816948551E+01 -0.13357960099E+02  0.14621871369E+02  0.00000000000E+00 0. -1.
</event>
<event>
 7    1  0.2500839E-011  0.5052884E+02  0.7816164E-02  0.1300439E+00
        -11   -1    0    0    0    0  0.00000000000E+00  0.00000000000E+00  0.45593999997E+02  0.45594000000E+02  0.51100000000E-03 0.  1.
         11   -1    0    0    0    0 -0.00000000000E+00 -0.00000000000E+00 -0.45593999997E+02  0.45594000000E+02  0.51100000000E-03 0. -1.
    9900012    2    1    2    0    0  0.33160289424E+02  0.13722414486E+02 -0.19111725837E+02  0.50528837214E+02  0.29999931195E+02 0.  0.
         12    1    1    2    0    0 -0.33160289424E+02 -0.13722414486E+02  0.19111725837E+02  0.40659162786E+02  0.00000000000E+00 0. -1.
         11    1    3    3    0    0  0.23554079718E+02  0.53820381993E+01 -0.21787386895E+02  0.32533847521E+02  0.51100000000E-03 0. -1.
        -11    1    3    3    0    0  0.10506575687E+02  0.18128336443E+01  0.37833529025E+01  0.11313189556E+02  0.51100000000E-03 0.  1.
         12    1    3    3    0    0 -0.90036598087E+00  0.65275426423E+01 -0.11076918448E+01  0.66818001369E+01  0.00000000000E+00 0. -1.
</event>
<event>
 7    1  0.2500839E-011  0.5052886E+02  0.7816164E-02  0.1300439E+00
        -11   -1    0    0    0    0  0.00000000000E+00  0.00000000000E+00  0.45593999997E+02  0.45594000000E+02  0.51100000000E-03 0.  1.
         11   -1    0    0    0    0 -0.00000000000E+00 -0.00000000000E+00 -0.45593999997E+02  0.45594000000E+02  0.51100000000E-03 0. -1.
    9900012    2    1    2    0    0 -0.91094496816E+01 -0.13507567858E+02  0.37252241699E+02  0.50528856200E+02  0.29999988907E+02 0.  0.
         12    1    1    2    0    0  0.91094496816E+01  0.13507567858E+02 -0.37252241699E+02  0.40659143800E+02  0.00000000000E+00 0. -1.
         11    1    3    3    0    0 -0.12392560375E+02 -0.99797182338E+01  0.19770666188E+02  0.25378131737E+02  0.51100000000E-03 0. -1.
        -11    1    3    3    0    0 -0.48912827357E+01  0.42283225275E+01  0.88301582610E+01  0.10944178972E+02  0.51100000000E-03 0.  1.
        -12    1    3    3    0    0  0.81743934290E+01 -0.77561721517E+01  0.86514172494E+01  0.14206545491E+02  0.00000000000E+00 0.  1.
</event>
<event>
 7    1  0.2500839E-011  0.5052891E+02  0.7816164E-02  0.1300439E+00
        -11   -1    0    0    0    0  0.00000000000E+00  0.00000000000E+00  0.45593999997E+02  0.45594000000E+02  0.51100000000E-03 0.  1.
         11   -1    0    0    0    0 -0.00000000000E+00 -0.00000000000E+00 -0.45593999997E+02  0.45594000000E+02  0.51100000000E-03 0. -1.
    9900012    2    1    2    0    0 -0.97862904429E+01  0.14482658280E+02  0.36710254871E+02  0.50528908960E+02  0.30000149274E+02 0.  0.
         12    1    1    2    0    0  0.97862904429E+01 -0.14482658280E+02 -0.36710254871E+02  0.40659091040E+02  0.00000000000E+00 0. -1.
         11    1    3    3    0    0 -0.54134652987E+01 -0.37418664752E+01  0.64895389331E+01  0.92423637173E+01  0.51100000000E-03 0. -1.
        -11    1    3    3    0    0 -0.12631698248E+02  0.90994843198E+01  0.14094718021E+02  0.21000511705E+02  0.51100000000E-03 0.  1.
         12    1    3    3    0    0  0.82588731033E+01  0.91250404349E+01  0.16125997917E+02  0.20286033538E+02  0.00000000000E+00 0. -1.
</event>
<event>
 7    1  0.3340559E-011  0.5052885E+02  0.7816164E-02  0.1300439E+00
        -11   -1    0    0    0    0  0.00000000000E+00  0.00000000000E+00  0.45593999997E+02  0.45594000000E+02  0.51100000000E-03 0. -1.
         11   -1    0    0    0    0 -0.00000000000E+00 -0.00000000000E+00 -0.45593999997E+02  0.45594000000E+02  0.51100000000E-03 0.  1.
    9900012    2    1    2    0    0  0.65464780950E+01 -0.62797004872E+01 -0.39634267807E+02  0.50528853449E+02  0.29999980544E+02 0.  0.
         12    1    1    2    0    0 -0.65464780950E+01  0.62797004872E+01  0.39634267807E+02  0.40659146551E+02  0.00000000000E+00 0. -1.
         11    1    3    3    0    0  0.80294006879E+01 -0.31331514689E+01 -0.19024163941E+01  0.88264999819E+01  0.51100000000E-03 0. -1.
        -11    1    3    3    0    0 -0.30041322064E+01  0.60310959904E+01 -0.75501413346E+01  0.10119464590E+02  0.51100000000E-03 0.  1.
        -12    1    3    3    0    0  0.15212096135E+01 -0.91776450088E+01 -0.30181710078E+02  0.31582888877E+02  0.00000000000E+00 0.  1.
</event>
<event>
 7    1  0.2500839E-011  0.5052887E+02  0.7816164E-02  0.1300439E+00
        -11   -1    0    0    0    0  0.00000000000E+00  0.00000000000E+00  0.45593999997E+02  0.45594000000E+02  0.51100000000E-03 0. -1.
         11   -1    0    0    0    0 -0.00000000000E+00 -0.00000000000E+00 -0.45593999997E+02  0.45594000000E+02  0.51100000000E-03 0.  1.
    9900012    2    1    2    0    0 -0.10498181656E+02  0.28334865057E+02 -0.27204569789E+02  0.50528868021E+02  0.30000024837E+02 0.  0.
         12    1    1    2    0    0  0.10498181656E+02 -0.28334865057E+02  0.27204569789E+02  0.40659131979E+02  0.00000000000E+00 0. -1.
         11    1    3    3    0    0 -0.34509014310E+01  0.50030404327E+01  0.49808739400E+01  0.78580048183E+01  0.51100000000E-03 0. -1.
        -11    1    3    3    0    0 -0.10112466516E+02  0.17674518692E+02 -0.18344784684E+02  0.27407694456E+02  0.51100000000E-03 0.  1.
        -12    1    3    3    0    0  0.30651862908E+01  0.56573059324E+01 -0.13840659045E+02  0.15263168747E+02  0.00000000000E+00 0.  1.
</event>
<event>
 7    1  0.2500839E-011  0.5052883E+02  0.7816164E-02  0.1300439E+00
        -11   -1    0    0    0    0  0.00000000000E+00  0.00000000000E+00  0.45593999997E+02  0.45594000000E+02  0.51100000000E-03 0.  1.
         11   -1    0    0    0    0 -0.00000000000E+00 -0.00000000000E+00 -0.45593999997E+02  0.45594000000E+02  0.51100000000E-03 0. -1.
    9900012    2    1    2    0    0  0.33632319329E+02 -0.63439282114E+01  0.21949701538E+02  0.50528834659E+02  0.29999923430E+02 0.  0.
         12    1    1    2    0    0 -0.33632319329E+02  0.63439282114E+01 -0.21949701538E+02  0.40659165341E+02  0.00000000000E+00 0. -1.
         11    1    3    3    0    0  0.94111470946E+01  0.86160324966E+01  0.99885953518E+01  0.16204250769E+02  0.51100000000E-03 0. -1.
        -11    1    3    3    0    0  0.70307108382E+01  0.26922878158E+01  0.30530036927E+01  0.81240470446E+01  0.51100000000E-03 0.  1.
        -12    1    3    3    0    0  0.17190461396E+02 -0.17652248524E+02  0.89081024932E+01  0.26200536846E+02  0.00000000000E+00 0.  1.
</event>
<event>
 7    1  0.2500839E-011  0.5052886E+02  0.7816164E-02  0.1300439E+00
        -11   -1    0    0    0    0  0.00000000000E+00  0.00000000000E+00  0.45593999997E+02  0.45594000000E+02  0.51100000000E-03 0.  1.
         11   -1    0    0    0    0 -0.00000000000E+00 -0.00000000000E+00 -0.45593999997E+02  0.45594000000E+02  0.51100000000E-03 0. -1.
    9900012    2    1    2    0    0  0.64997508716E+01  0.29292924940E+02  0.27437996993E+02  0.50528857216E+02  0.29999991994E+02 0.  0.
         12    1    1    2    0    0 -0.64997508716E+01 -0.29292924940E+02 -0.27437996993E+02  0.40659142784E+02  0.00000000000E+00 0. -1.
         11    1    3    3    0    0  0.39397304732E+01  0.16831521990E+02 -0.92634962415E+00  0.17311260283E+02  0.51100000000E-03 0. -1.
        -11    1    3    3    0    0  0.37783256954E+01 -0.63694706967E+00  0.40668372697E+01  0.55875408069E+01  0.51100000000E-03 0.  1.
        -12    1    3    3    0    0 -0.12183052970E+01  0.13098350020E+02  0.24297509348E+02  0.27630056126E+02  0.00000000000E+00 0.  1.
</event>
<event>
 7    1  0.2500839E-011  0.5052885E+02  0.7816164E-02  0.1300439E+00
        -11   -1    0    0    0    0  0.00000000000E+00  0.00000000000E+00  0.45593999997E+02  0.45594000000E+02  0.51100000000E-03 0. -1.
         11   -1    0    0    0    0 -0.00000000000E+00 -0.00000000000E+00 -0.45593999997E+02  0.45594000000E+02  0.51100000000E-03 0.  1.
    9900012    2    1    2    0    0  0.12123116587E+02 -0.13111220897E+02 -0.36527970041E+02  0.50528847716E+02  0.29999963116E+02 0.  0.
         12    1    1    2    0    0 -0.12123116587E+02  0.13111220897E+02  0.36527970041E+02  0.40659152284E+02  0.00000000000E+00 0. -1.
         11    1    3    3    0    0  0.11080830116E+01 -0.14566293894E+02 -0.83939418622E+01  0.16848235101E+02  0.51100000000E-03 0. -1.
        -11    1    3    3    0    0  0.60889413287E+01 -0.63304755283E+01 -0.17711205254E+02  0.19769595816E+02  0.51100000000E-03 0.  1.
         12    1    3    3    0    0  0.49260922465E+01  0.77855485252E+01 -0.10422822925E+02  0.13911016799E+02  0.00000000000E+00 0. -1.
</event>
<event>
 7    1  0.2500839E-011  0.5052886E+02  0.7816164E-02  0.1300439E+00
        -11   -1    0    0    0    0  0.00000000000E+00  0.00000000000E+00  0.45593999997E+02  0.45594000000E+02  0.51100000000E-03 0.  1.
         11   -1    0    0    0    0 -0.00000000000E+00 -0.00000000000E+00 -0.45593999997E+02  0.45594000000E+02  0.51100000000E-03 0. -1.
    9900012    2    1    2    0    0  0.10671804226E+02 -0.26239799922E+02  0.29167639228E+02  0.50528859779E+02  0.29999999784E+02 0.  0.
         12    1    1    2    0    0 -0.10671804226E+02  0.26239799922E+02 -0.29167639228E+02  0.40659140221E+02  0.00000000000E+00 0. -1.
         11    1    3    3    0    0  0.91572197336E+01 -0.28471646751E+01  0.86248698089E+01  0.12897650926E+02  0.51100000000E-03 0. -1.
        -11    1    3    3    0    0 -0.28686736859E+00 -0.56842588095E+01  0.18920117564E+02  0.19757629919E+02  0.51100000000E-03 0.  1.
         12    1    3    3    0    0  0.18014518605E+01 -0.17708376437E+02  0.16226518551E+01  0.17873578933E+02  0.00000000000E+00 0. -1.
</event>
<event>
 7    1  0.2500839E-011  0.5052886E+02  0.7816164E-02  0.1300439E+00
        -11   -1    0    0    0    0  0.00000000000E+00  0.00000000000E+00  0.45593999997E+02  0.45594000000E+02  0.51100000000E-03 0.  1.
         11   -1    0    0    0    0 -0.00000000000E+00 -0.00000000000E+00 -0.45593999997E+02  0.45594000000E+02  0.51100000000E-03 0. -1.
    9900012    2    1    2    0    0 -0.31659956337E+01 -0.21390249658E+02  0.34432534319E+02  0.50528859226E+02  0.29999998104E+02 0.  0.
         12    1    1    2    0    0  0.31659956337E+01  0.21390249658E+02 -0.34432534319E+02  0.40659140774E+02  0.00000000000E+00 0. -1.
         11    1    3    3    0    0  0.52290126393E+01 -0.10945827038E+02  0.13604635549E+02  0.18227446651E+02  0.51100000000E-03 0. -1.
        -11    1    3    3    0    0 -0.32527003448E+01 -0.10555529698E+02  0.23886918227E+02  0.26316993168E+02  0.51100000000E-03 0.  1.
         12    1    3    3    0    0 -0.51423079282E+01  0.11110707724E+00 -0.30590194568E+01  0.59844194078E+01  0.00000000000E+00 0. -1.
</event>
<event>
 7    1  0.2500839E-011  0.5052887E+02  0.7816164E-02  0.1300439E+00
        -11   -1    0    0    0    0  0.00000000000E+00  0.00000000000E+00  0.45593999997E+02  0.45594000000E+02  0.51100000000E-03 0.  1.
         11   -1    0    0    0    0 -0.00000000000E+00 -0.00000000000E+00 -0.45593999997E+02  0.45594000000E+02  0.51100000000E-03 0. -1.
    9900012    2    1    2    0    0  0.10298739466E+02  0.34766744592E+02  0.18394952453E+02  0.50528870154E+02  0.30000031319E+02 0.  0.
         12    1    1    2    0    0 -0.10298739466E+02 -0.34766744592E+02 -0.18394952453E+02  0.40659129846E+02  0.00000000000E+00 0. -1.
         11    1    3    3    0    0 -0.18996660960E+01  0.13504724412E+02  0.11538830483E+02  0.17864235833E+02  0.51100000000E-03 0. -1.
        -11    1    3    3    0    0  0.89382867259E+01  0.85916253821E+01  0.13213087032E+02  0.18118903540E+02  0.51100000000E-03 0.  1.
         12    1    3    3    0    0  0.32601188358E+01  0.12670394798E+02 -0.63569650617E+01  0.14545730781E+02  0.00000000000E+00 0. -1.
</event>
<event>
 7    1  0.2500839E-011  0.5052887E+02  0.7816164E-02  0.1300439E+00
        -11   -1    0    0    0    0  0.00000000000E+00  0.00000000000E+00  0.45593999997E+02  0.45594000000E+02  0.51100000000E-03 0. -1.
         11   -1    0    0    0    0 -0.00000000000E+00 -0.00000000000E+00 -0.45593999997E+02  0.45594000000E+02  0.51100000000E-03 0.  1.
    9900012    2    1    2    0    0  0.20842658587E+02 -0.19144934965E+02 -0.29192812360E+02  0.50528865168E+02  0.30000016165E+02 0.  0.
         12    1    1    2    0    0 -0.20842658587E+02  0.19144934965E+02  0.29192812360E+02  0.40659134832E+02  0.00000000000E+00 0. -1.
         11    1    3    3    0    0 -0.66386242198E+01 -0.95094096488E+01 -0.10622053009E+02  0.15726672051E+02  0.51100000000E-03 0. -1.
        -11    1    3    3    0    0  0.70194517929E+01 -0.26338872597E+01 -0.26673874607E+01  0.79577020361E+01  0.51100000000E-03 0.  1.
        -12    1    3    3    0    0  0.20461831014E+02 -0.70016380569E+01 -0.15903371890E+02  0.26844491081E+02  0.00000000000E+00 0.  1.
</event>
<event>
 7    1  0.2500839E-011  0.5052884E+02  0.7816164E-02  0.1300439E+00
        -11   -1    0    0    0    0  0.00000000000E+00  0.00000000000E+00  0.45593999997E+02  0.45594000000E+02  0.51100000000E-03 0.  1.
         11   -1    0    0    0    0 -0.00000000000E+00 -0.00000000000E+00 -0.45593999997E+02  0.45594000000E+02  0.51100000000E-03 0. -1.
    9900012    2    1    2    0    0 -0.65545153964E+01 -0.24949631167E+02  0.31428031214E+02  0.50528844654E+02  0.29999953812E+02 0.  0.
         12    1    1    2    0    0  0.65545153964E+01  0.24949631167E+02 -0.31428031214E+02  0.40659155346E+02  0.00000000000E+00 0. -1.
         11    1    3    3    0    0  0.63349129791E+01 -0.33026378238E+01  0.45531831210E+01  0.84717185885E+01  0.51100000000E-03 0. -1.
        -11    1    3    3    0    0 -0.79825994692E+01  0.19171987746E+01  0.56497277440E+01  0.99657899471E+01  0.51100000000E-03 0.  1.
         12    1    3    3    0    0 -0.49068289064E+01 -0.23564192118E+02  0.21225120349E+02  0.32091336119E+02  0.00000000000E+00 0. -1.
</event>
<event>
 7    1  0.2500839E-011  0.5052886E+02  0.7816164E-02  0.1300439E+00
        -11   -1    0    0    0    0  0.00000000000E+00  0.00000000000E+00  0.45593999997E+02  0.45594000000E+02  0.51100000000E-03 0.  1.
         11   -1    0    0    0    0 -0.00000000000E+00 -0.00000000000E+00 -0.45593999997E+02  0.45594000000E+02  0.51100000000E-03 0. -1.
    9900012    2    1    2    0    0 -0.98780702098E+01 -0.34642850848E+01  0.39288524309E+02  0.50528859766E+02  0.29999999744E+02 0.  0.
         12    1    1    2    0    0  0.98780702098E+01  0.34642850848E+01 -0.39288524309E+02  0.40659140234E+02  0.00000000000E+00 0. -1.
         11    1    3    3    0    0 -0.83855910356E+01 -0.13027677750E+01  0.82677240759E+01  0.11847810032E+02  0.51100000000E-03 0.  1.
        -11    1    3    3    0    0 -0.15694122420E+01  0.83995422561E+01  0.35554479500E+01  0.92550837535E+01  0.51100000000E-03 0. -1.
         12    1    3    3    0    0  0.76933067759E-01 -0.10561059566E+02  0.27465352283E+02  0.29425965980E+02  0.00000000000E+00 0. -1.
</event>
<event>
 7    1  0.2810466E-011  0.5052892E+02  0.7816164E-02  0.1300439E+00
        -11   -1    0    0    0    0  0.00000000000E+00  0.00000000000E+00  0.45593999997E+02  0.45594000000E+02  0.51100000000E-03 0. -1.
         11   -1    0    0    0    0 -0.00000000000E+00 -0.00000000000E+00 -0.45593999997E+02  0.45594000000E+02  0.51100000000E-03 0.  1.
    9900012    2    1    2    0    0 -0.32324178353E+02 -0.23651939894E+02  0.69924333646E+01  0.50528918711E+02  0.30000178912E+02 0.  0.
         12    1    1    2    0    0  0.32324178353E+02  0.23651939894E+02 -0.69924333646E+01  0.40659081289E+02  0.00000000000E+00 0. -1.
         11    1    3    3    0    0 -0.67659612267E+01 -0.14379509190E+02  0.69197935813E+00  0.15906833486E+02  0.51100000000E-03 0. -1.
        -11    1    3    3    0    0 -0.19521050701E+02 -0.14269791946E+02  0.97334087865E+01  0.26066024428E+02  0.51100000000E-03 0.  1.
         12    1    3    3    0    0 -0.60371664255E+01  0.49973612414E+01 -0.34329547800E+01  0.85560607962E+01  0.00000000000E+00 0. -1.
</event>
<event>
 7    1  0.2500839E-011  0.5052885E+02  0.7816164E-02  0.1300439E+00
        -11   -1    0    0    0    0  0.00000000000E+00  0.00000000000E+00  0.45593999997E+02  0.45594000000E+02  0.51100000000E-03 0.  1.
         11   -1    0    0    0    0 -0.00000000000E+00 -0.00000000000E+00 -0.45593999997E+02  0.45594000000E+02  0.51100000000E-03 0. -1.
    9900012    2    1    2    0    0 -0.31469951195E+02 -0.22540220117E+02  0.12439744985E+02  0.50528848430E+02  0.29999965287E+02 0.  0.
         12    1    1    2    0    0  0.31469951195E+02  0.22540220117E+02 -0.12439744985E+02  0.40659151570E+02  0.00000000000E+00 0. -1.
         11    1    3    3    0    0 -0.21296892628E+02 -0.97630460910E+01 -0.29983433502E+01  0.23619161029E+02  0.51100000000E-03 0. -1.
        -11    1    3    3    0    0  0.31437076563E+01  0.47324561209E+00  0.30592148895E+01  0.44119899410E+01  0.51100000000E-03 0.  1.
        -12    1    3    3    0    0 -0.13316766223E+02 -0.13250419638E+02  0.12378873446E+02  0.22497697460E+02  0.00000000000E+00 0.  1.
</event>
<event>
 7    1  0.2500839E-011  0.5052886E+02  0.7816164E-02  0.1300439E+00
        -11   -1    0    0    0    0  0.00000000000E+00  0.00000000000E+00  0.45593999997E+02  0.45594000000E+02  0.51100000000E-03 0.  1.
         11   -1    0    0    0    0 -0.00000000000E+00 -0.00000000000E+00 -0.45593999997E+02  0.45594000000E+02  0.51100000000E-03 0. -1.
    9900012    2    1    2    0    0 -0.30323546739E+02 -0.15653722257E+02  0.22104508201E+02  0.50528858467E+02  0.29999995797E+02 0.  0.
         12    1    1    2    0    0  0.30323546739E+02  0.15653722257E+02 -0.22104508201E+02  0.40659141533E+02  0.00000000000E+00 0. -1.
         11    1    3    3    0    0 -0.68431115958E+01 -0.59421790982E+01 -0.19199719798E+01  0.92641222688E+01  0.51100000000E-03 0. -1.
        -11    1    3    3    0    0 -0.24380282778E+02 -0.13332407849E+02  0.15175692154E+02  0.31661536918E+02  0.51100000000E-03 0.  1.
         12    1    3    3    0    0  0.89984763443E+00  0.36208646903E+01  0.88487880276E+01  0.96031992809E+01  0.00000000000E+00 0. -1.
</event>
<event>
 7    1  0.2500839E-011  0.5052884E+02  0.7816164E-02  0.1300439E+00
        -11   -1    0    0    0    0  0.00000000000E+00  0.00000000000E+00  0.45593999997E+02  0.45594000000E+02  0.51100000000E-03 0. -1.
         11   -1    0    0    0    0 -0.00000000000E+00 -0.00000000000E+00 -0.45593999997E+02  0.45594000000E+02  0.51100000000E-03 0.  1.
    9900012    2    1    2    0    0  0.16007868968E+02  0.51497247955E+00  0.37371781057E+02  0.50528842545E+02  0.29999947401E+02 0.  0.
         12    1    1    2    0    0 -0.16007868968E+02 -0.51497247955E+00 -0.37371781057E+02  0.40659157455E+02  0.00000000000E+00 0. -1.
         11    1    3    3    0    0  0.13458426480E+02 -0.51539604308E+01  0.21309472474E+02  0.25725204933E+02  0.51100000000E-03 0. -1.
        -11    1    3    3    0    0 -0.72540802428E-01 -0.64628356834E+01  0.48989250836E+01  0.81100539132E+01  0.51100000000E-03 0.  1.
         12    1    3    3    0    0  0.26219832904E+01  0.12131768594E+02  0.11163383499E+02  0.16693583700E+02  0.00000000000E+00 0. -1.
</event>
<event>
 7    1  0.2500839E-011  0.5052886E+02  0.7816164E-02  0.1300439E+00
        -11   -1    0    0    0    0  0.00000000000E+00  0.00000000000E+00  0.45593999997E+02  0.45594000000E+02  0.51100000000E-03 0.  1.
         11   -1    0    0    0    0 -0.00000000000E+00 -0.00000000000E+00 -0.45593999997E+02  0.45594000000E+02  0.51100000000E-03 0. -1.
    9900012    2    1    2    0    0  0.17175993634E+02 -0.36680440936E+02  0.35631856273E+01  0.50528858391E+02  0.29999995564E+02 0.  0.
         12    1    1    2    0    0 -0.17175993634E+02  0.36680440936E+02 -0.35631856273E+01  0.40659141609E+02  0.00000000000E+00 0. -1.
         11    1    3    3    0    0  0.89529677240E+01 -0.13738077539E+02  0.74882016835E+01  0.18026745970E+02  0.51100000000E-03 0. -1.
        -11    1    3    3    0    0 -0.49942502599E+01 -0.16539691153E+01  0.35576274283E+01  0.63509733642E+01  0.51100000000E-03 0.  1.
         12    1    3    3    0    0  0.13217276170E+02 -0.21288394281E+02 -0.74826434845E+01  0.26151139057E+02  0.00000000000E+00 0. -1.
</event>
<event>
 7    1  0.2500839E-011  0.5052885E+02  0.7816164E-02  0.1300439E+00
        -11   -1    0    0    0    0  0.00000000000E+00  0.00000000000E+00  0.45593999997E+02  0.45594000000E+02  0.51100000000E-03 0. -1.
         11   -1    0    0    0    0 -0.00000000000E+00 -0.00000000000E+00 -0.45593999997E+02  0.45594000000E+02  0.51100000000E-03 0.  1.
    9900012    2    1    2    0    0  0.35941329794E+02  0.56209836563E+01 -0.18160163468E+02  0.50528853651E+02  0.29999981158E+02 0.  0.
         12    1    1    2    0    0 -0.35941329794E+02 -0.56209836563E+01  0.18160163468E+02  0.40659146349E+02  0.00000000000E+00 0. -1.
         11    1    3    3    0    0  0.51458880514E+01 -0.72726410157E+01 -0.22853754824E+01  0.91975220868E+01  0.51100000000E-03 0. -1.
        -11    1    3    3    0    0  0.10878092115E+02  0.11468327388E+01 -0.14505521371E+02  0.18167505714E+02  0.51100000000E-03 0.  1.
         12    1    3    3    0    0  0.19917349628E+02  0.11746791933E+02 -0.13692666144E+01  0.23163825850E+02  0.00000000000E+00 0. -1.
</event>
<event>
 7    1  0.2500839E-011  0.5052885E+02  0.7816164E-02  0.1300439E+00
        -11   -1    0    0    0    0  0.00000000000E+00  0.00000000000E+00  0.45593999997E+02  0.45594000000E+02  0.51100000000E-03 0.  1.
         11   -1    0    0    0    0 -0.00000000000E+00 -0.00000000000E+00 -0.45593999997E+02  0.45594000000E+02  0.51100000000E-03 0. -1.
    9900012    2    1    2    0    0  0.20476753761E+02  0.27183101722E+02  0.22247418545E+02  0.50528854709E+02  0.29999984374E+02 0.  0.
         12    1    1    2    0    0 -0.20476753761E+02 -0.27183101722E+02 -0.22247418545E+02  0.40659145291E+02  0.00000000000E+00 0. -1.
         11    1    3    3    0    0  0.57974406556E+01  0.62085282443E+01 -0.18601800044E+00  0.84965136423E+01  0.51100000000E-03 0. -1.
        -11    1    3    3    0    0  0.16546723190E+02  0.23934753043E+02  0.24438446736E+02  0.37998738541E+02  0.51100000000E-03 0.  1.
        -12    1    3    3    0    0 -0.18674100843E+01 -0.29601795644E+01 -0.20050101907E+01  0.40336025265E+01  0.00000000000E+00 0.  1.
</event>
<event>
 7    1  0.2500839E-011  0.5052885E+02  0.7816164E-02  0.1300439E+00
        -11   -1    0    0    0    0  0.00000000000E+00  0.00000000000E+00  0.45593999997E+02  0.45594000000E+02  0.51100000000E-03 0.  1.
         11   -1    0    0    0    0 -0.00000000000E+00 -0.00000000000E+00 -0.45593999997E+02  0.45594000000E+02  0.51100000000E-03 0. -1.
    9900012    2    1    2    0    0  0.21674021182E+02 -0.14191061238E+01  0.34371341821E+02  0.50528853489E+02  0.29999980665E+02 0.  0.
         12    1    1    2    0    0 -0.21674021182E+02  0.14191061238E+01 -0.34371341821E+02  0.40659146511E+02  0.00000000000E+00 0. -1.
         11    1    3    3    0    0 -0.57125897021E+01 -0.17119662707E+01  0.43027849417E+00  0.59791010579E+01  0.51100000000E-03 0. -1.
        -11    1    3    3    0    0  0.53578671088E+01 -0.22085181842E+01  0.12159449926E+02  0.13469837241E+02  0.51100000000E-03 0.  1.
        -12    1    3    3    0    0  0.22028743776E+02  0.25013783310E+01  0.21781613401E+02  0.31079915190E+02  0.00000000000E+00 0.  1.
</event>
<event>
 7    1  0.2500839E-011  0.5052886E+02  0.7816164E-02  0.1300439E+00
        -11   -1    0    0    0    0  0.00000000000E+00  0.00000000000E+00  0.45593999997E+02  0.45594000000E+02  0.51100000000E-03 0.  1.
         11   -1    0    0    0    0 -0.00000000000E+00 -0.00000000000E+00 -0.45593999997E+02  0.45594000000E+02  0.51100000000E-03 0. -1.
    9900012    2    1    2    0    0  0.25509801042E+02 -0.16476384872E+02  0.27035991358E+02  0.50528855440E+02  0.29999986596E+02 0.  0.
         12    1    1    2    0    0 -0.25509801042E+02  0.16476384872E+02 -0.27035991358E+02  0.40659144560E+02  0.00000000000E+00 0. -1.
         11    1    3    3    0    0  0.21246488455E+01 -0.12604067884E+01 -0.31862998804E+01  0.40317818862E+01  0.51100000000E-03 0. -1.
        -11    1    3    3    0    0  0.25411475378E+02 -0.75828129724E+01  0.18390073154E+02  0.32271301869E+02  0.51100000000E-03 0.  1.
         12    1    3    3    0    0 -0.20263231811E+01 -0.76331651110E+01  0.11832218084E+02  0.14225771685E+02  0.00000000000E+00 0. -1.
</event>
<event>
 7    1  0.2500839E-011  0.5052886E+02  0.7816164E-02  0.1300439E+00
        -11   -1    0    0    0    0  0.00000000000E+00  0.00000000000E+00  0.45593999997E+02  0.45594000000E+02  0.51100000000E-03 0.  1.
         11   -1    0    0    0    0 -0.00000000000E+00 -0.00000000000E+00 -0.45593999997E+02  0.45594000000E+02  0.51100000000E-03 0. -1.
    9900012    2    1    2    0    0 -0.23182503615E+02 -0.20576048362E+02  0.26312801685E+02  0.50528858684E+02  0.29999996455E+02 0.  0.
         12    1    1    2    0    0  0.23182503615E+02  0.20576048362E+02 -0.26312801685E+02  0.40659141316E+02  0.00000000000E+00 0. -1.
         11    1    3    3    0    0 -0.10362147118E+02 -0.10467649945E+02  0.40191474104E+01  0.15267590983E+02  0.51100000000E-03 0. -1.
        -11    1    3    3    0    0 -0.14909335092E+02 -0.14909000035E+02  0.21225435429E+02  0.29917982291E+02  0.51100000000E-03 0.  1.
         12    1    3    3    0    0  0.20889785957E+01  0.48006016175E+01  0.10682188452E+01  0.53432854092E+01  0.00000000000E+00 0. -1.
</event>
<event>
 7    1  0.2500839E-011  0.5052885E+02  0.7816164E-02  0.1300439E+00
        -11   -1    0    0    0    0  0.00000000000E+00  0.00000000000E+00  0.45593999997E+02  0.45594000000E+02  0.51100000000E-03 0.  1.
         11   -1    0    0    0    0 -0.00000000000E+00 -0.00000000000E+00 -0.45593999997E+02  0.45594000000E+02  0.51100000000E-03 0. -1.
    9900012    2    1    2    0    0  0.38542363076E+02 -0.12306635999E+02  0.40248644669E+01  0.50528848815E+02  0.29999966458E+02 0.  0.
         12    1    1    2    0    0 -0.38542363076E+02  0.12306635999E+02 -0.40248644669E+01  0.40659151185E+02  0.00000000000E+00 0. -1.
         11    1    3    3    0    0  0.22469791526E+02 -0.96780622896E+01 -0.37771809157E+01  0.24755272506E+02  0.51100000000E-03 0. -1.
        -11    1    3    3    0    0  0.19143198588E+02 -0.27326036642E+01  0.10212618073E+02  0.21868395989E+02  0.51100000000E-03 0.  1.
         12    1    3    3    0    0 -0.30706270384E+01  0.10402995431E+00 -0.24105726900E+01  0.39051803203E+01  0.00000000000E+00 0. -1.
</event>
<event>
 7    1  0.2500839E-011  0.5052885E+02  0.7816164E-02  0.1300439E+00
        -11   -1    0    0    0    0  0.00000000000E+00  0.00000000000E+00  0.45593999997E+02  0.45594000000E+02  0.51100000000E-03 0.  1.
         11   -1    0    0    0    0 -0.00000000000E+00 -0.00000000000E+00 -0.45593999997E+02  0.45594000000E+02  0.51100000000E-03 0. -1.
    9900012    2    1    2    0    0  0.25874563509E+02  0.12592087964E+02  0.28724775806E+02  0.50528850216E+02  0.29999970716E+02 0.  0.
         12    1    1    2    0    0 -0.25874563509E+02 -0.12592087964E+02 -0.28724775806E+02  0.40659149784E+02  0.00000000000E+00 0. -1.
         11    1    3    3    0    0  0.14619662816E+01 -0.51461591408E-01 -0.59635666579E+01  0.61403681688E+01  0.51100000000E-03 0. -1.
        -11    1    3    3    0    0  0.39134600381E+01  0.76921214591E+00  0.55680448407E+01  0.68490860999E+01  0.51100000000E-03 0.  1.
         12    1    3    3    0    0  0.20499137189E+02  0.11874337409E+02  0.29120297623E+02  0.37539395947E+02  0.00000000000E+00 0. -1.
</event>
<event>
 7    1  0.2500839E-011  0.5052884E+02  0.7816164E-02  0.1300439E+00
        -11   -1    0    0    0    0  0.00000000000E+00  0.00000000000E+00  0.45593999997E+02  0.45594000000E+02  0.51100000000E-03 0.  1.
         11   -1    0    0    0    0 -0.00000000000E+00 -0.00000000000E+00 -0.45593999997E+02  0.45594000000E+02  0.51100000000E-03 0. -1.
    9900012    2    1    2    0    0 -0.39843930111E+01  0.17045738769E+02  0.36697882945E+02  0.50528841001E+02  0.29999942708E+02 0.  0.
         12    1    1    2    0    0  0.39843930111E+01 -0.17045738769E+02 -0.36697882945E+02  0.40659158999E+02  0.00000000000E+00 0. -1.
         11    1    3    3    0    0  0.23266289987E+01  0.33212209786E+00  0.33469424656E+01  0.40896860166E+01  0.51100000000E-03 0. -1.
        -11    1    3    3    0    0 -0.12874577408E+02  0.69467164062E+01  0.31223849354E+02  0.34481014791E+02  0.51100000000E-03 0.  1.
        -12    1    3    3    0    0  0.65635553978E+01  0.97669002648E+01  0.21270911250E+01  0.11958140194E+02  0.00000000000E+00 0.  1.
</event>
<event>
 7    1  0.2500839E-011  0.5052887E+02  0.7816164E-02  0.1300439E+00
        -11   -1    0    0    0    0  0.00000000000E+00  0.00000000000E+00  0.45593999997E+02  0.45594000000E+02  0.51100000000E-03 0.  1.
         11   -1    0    0    0    0 -0.00000000000E+00 -0.00000000000E+00 -0.45593999997E+02  0.45594000000E+02  0.51100000000E-03 0. -1.
    9900012    2    1    2    0    0 -0.99211187739E+01 -0.81214442990E+01  0.38584696256E+02  0.50528865228E+02  0.30000016347E+02 0.  0.
         12    1    1    2    0    0  0.99211187739E+01  0.81214442990E+01 -0.38584696256E+02  0.40659134772E+02  0.00000000000E+00 0. -1.
         11    1    3    3    0    0 -0.31729790534E+01 -0.11536763874E+02  0.60903393298E+01  0.13425980418E+02  0.51100000000E-03 0. -1.
        -11    1    3    3    0    0 -0.18704634596E+00 -0.24506783027E+01  0.26121387708E+02  0.26236762501E+02  0.51100000000E-03 0.  1.
         12    1    3    3    0    0 -0.65610933746E+01  0.58659978780E+01  0.63729692181E+01  0.10866122309E+02  0.00000000000E+00 0. -1.
</event>
<event>
 7    1  0.2500839E-011  0.5052888E+02  0.7816164E-02  0.1300439E+00
        -11   -1    0    0    0    0  0.00000000000E+00  0.00000000000E+00  0.45593999997E+02  0.45594000000E+02  0.51100000000E-03 0.  1.
         11   -1    0    0    0    0 -0.00000000000E+00 -0.00000000000E+00 -0.45593999997E+02  0.45594000000E+02  0.51100000000E-03 0. -1.
    9900012    2    1    2    0    0  0.73684506870E+01 -0.24715104819E+02  0.31432995154E+02  0.50528884711E+02  0.30000075568E+02 0.  0.
         12    1    1    2    0    0 -0.73684506870E+01  0.24715104819E+02 -0.31432995154E+02  0.40659115289E+02  0.00000000000E+00 0. -1.
         11    1    3    3    0    0 -0.39668443717E+01 -0.32808395942E+00  0.88596253886E+01  0.97126955909E+01  0.51100000000E-03 0. -1.
        -11    1    3    3    0    0  0.77529346756E+01 -0.57084699105E+01  0.19230076421E+02  0.21505591464E+02  0.51100000000E-03 0.  1.
         12    1    3    3    0    0  0.35823603831E+01 -0.18678550949E+02  0.33432933441E+01  0.19310597656E+02  0.00000000000E+00 0. -1.
</event>
<event>
 7    1  0.2500839E-011  0.5052886E+02  0.7816164E-02  0.1300439E+00
        -11   -1    0    0    0    0  0.00000000000E+00  0.00000000000E+00  0.45593999997E+02  0.45594000000E+02  0.51100000000E-03 0.  1.
         11   -1    0    0    0    0 -0.00000000000E+00 -0.00000000000E+00 -0.45593999997E+02  0.45594000000E+02  0.51100000000E-03 0. -1.
    9900012    2    1    2    0    0  0.16713791490E+02  0.21307559677E+02  0.30328248359E+02  0.50528861127E+02  0.30000003883E+02 0.  0.
         12    1    1    2    0    0 -0.16713791490E+02 -0.21307559677E+02 -0.30328248359E+02  0.40659138873E+02  0.00000000000E+00 0. -1.
         11    1    3    3    0    0  0.59454761287E+01  0.24990524294E+01  0.18804622965E+01  0.67178931334E+01  0.51100000000E-03 0. -1.
        -11    1    3    3    0    0  0.85117686872E+01  0.19884005391E+02  0.32506157262E+02  0.39044514811E+02  0.51100000000E-03 0.  1.
         12    1    3    3    0    0  0.22565466737E+01 -0.10754981440E+01 -0.40583712001E+01  0.47664531830E+01  0.00000000000E+00 0. -1.
</event>
<event>
 7    1  0.2500839E-011  0.5052886E+02  0.7816164E-02  0.1300439E+00
        -11   -1    0    0    0    0  0.00000000000E+00  0.00000000000E+00  0.45593999997E+02  0.45594000000E+02  0.51100000000E-03 0.  1.
         11   -1    0    0    0    0 -0.00000000000E+00 -0.00000000000E+00 -0.45593999997E+02  0.45594000000E+02  0.51100000000E-03 0. -1.
    9900012    2    1    2    0    0 -0.97082116827E+01 -0.14176052613E+02  0.36850456296E+02  0.50528856244E+02  0.29999989039E+02 0.  0.
         12    1    1    2    0    0  0.97082116827E+01  0.14176052613E+02 -0.36850456296E+02  0.40659143756E+02  0.00000000000E+00 0. -1.
         11    1    3    3    0    0 -0.10219064328E+02 -0.84728897744E+01  0.25722640483E+02  0.28946042399E+02  0.51100000000E-03 0. -1.
        -11    1    3    3    0    0  0.20188905791E+01 -0.66050846347E+01  0.15446507024E+02  0.16920332198E+02  0.51100000000E-03 0.  1.
         12    1    3    3    0    0 -0.15080379333E+01  0.90192179612E+00 -0.43186912106E+01  0.46624816468E+01  0.00000000000E+00 0. -1.
</event>
<event>
 7    1  0.2500839E-011  0.5052886E+02  0.7816164E-02  0.1300439E+00
        -11   -1    0    0    0    0  0.00000000000E+00  0.00000000000E+00  0.45593999997E+02  0.45594000000E+02  0.51100000000E-03 0.  1.
         11   -1    0    0    0    0 -0.00000000000E+00 -0.00000000000E+00 -0.45593999997E+02  0.45594000000E+02  0.51100000000E-03 0. -1.
    9900012    2    1    2    0    0 -0.19927056833E+02  0.29376325373E+01  0.35319237113E+02  0.50528858480E+02  0.29999995835E+02 0.  0.
         12    1    1    2    0    0  0.19927056833E+02 -0.29376325373E+01 -0.35319237113E+02  0.40659141520E+02  0.00000000000E+00 0. -1.
         11    1    3    3    0    0 -0.10451077405E+02  0.10253041768E+02  0.81087278226E+01  0.16736228715E+02  0.51100000000E-03 0. -1.
        -11    1    3    3    0    0 -0.32831577127E+01 -0.30510522925E+00  0.23499143476E+02  0.23729348034E+02  0.51100000000E-03 0.  1.
        -12    1    3    3    0    0 -0.61928217149E+01 -0.70103040019E+01  0.37113658144E+01  0.10063281731E+02  0.00000000000E+00 0.  1.
</event>
<event>
 7    1  0.2500839E-011  0.5052887E+02  0.7816164E-02  0.1300439E+00
        -11   -1    0    0    0    0  0.00000000000E+00  0.00000000000E+00  0.45593999997E+02  0.45594000000E+02  0.51100000000E-03 0.  1.
         11   -1    0    0    0    0 -0.00000000000E+00 -0.00000000000E+00 -0.45593999997E+02  0.45594000000E+02  0.51100000000E-03 0. -1.
    9900012    2    1    2    0    0  0.32323236442E+02 -0.16171424007E+01  0.24612145119E+02  0.50528874936E+02  0.30000045855E+02 0.  0.
         12    1    1    2    0    0 -0.32323236442E+02  0.16171424007E+01 -0.24612145119E+02  0.40659125064E+02  0.00000000000E+00 0. -1.
         11    1    3    3    0    0 -0.30392716228E+01 -0.91519019265E+00  0.19635159815E+01  0.37323103243E+01  0.51100000000E-03 0. -1.
        -11    1    3    3    0    0  0.13688091779E+02 -0.61783070081E+01  0.63046724921E-01  0.15017966213E+02  0.51100000000E-03 0.  1.
        -12    1    3    3    0    0  0.21674416286E+02  0.54763548001E+01  0.22585582413E+02  0.31778598398E+02  0.00000000000E+00 0.  1.
</event>
<event>
 7    1  0.2500839E-011  0.5052886E+02  0.7816164E-02  0.1300439E+00
        -11   -1    0    0    0    0  0.00000000000E+00  0.00000000000E+00  0.45593999997E+02  0.45594000000E+02  0.51100000000E-03 0.  1.
         11   -1    0    0    0    0 -0.00000000000E+00 -0.00000000000E+00 -0.45593999997E+02  0.45594000000E+02  0.51100000000E-03 0. -1.
    9900012    2    1    2    0    0 -0.37891267986E+02  0.11555422897E+02  0.91591456210E+01  0.50528856669E+02  0.29999990330E+02 0.  0.
         12    1    1    2    0    0  0.37891267986E+02 -0.11555422897E+02 -0.91591456210E+01  0.40659143331E+02  0.00000000000E+00 0. -1.
         11    1    3    3    0    0  0.12675325856E+01  0.76761008693E+01  0.26431137202E+01  0.82167641934E+01  0.51100000000E-03 0. -1.
        -11    1    3    3    0    0 -0.44817349187E+01 -0.13396711877E+01 -0.34999897410E+01  0.58421396099E+01  0.51100000000E-03 0.  1.
        -12    1    3    3    0    0 -0.34677065653E+02  0.52189932152E+01  0.10016021642E+02  0.36469952865E+02  0.00000000000E+00 0.  1.
</event>
<event>
 7    1  0.2500839E-011  0.5052886E+02  0.7816164E-02  0.1300439E+00
        -11   -1    0    0    0    0  0.00000000000E+00  0.00000000000E+00  0.45593999997E+02  0.45594000000E+02  0.51100000000E-03 0.  1.
         11   -1    0    0    0    0 -0.00000000000E+00 -0.00000000000E+00 -0.45593999997E+02  0.45594000000E+02  0.51100000000E-03 0. -1.
    9900012    2    1    2    0    0  0.85375416896E+01 -0.37456754642E+02  0.13314172006E+02  0.50528864955E+02  0.30000015517E+02 0.  0.
         12    1    1    2    0    0 -0.85375416896E+01  0.37456754642E+02 -0.13314172006E+02  0.40659135045E+02  0.00000000000E+00 0. -1.
         11    1    3    3    0    0 -0.48177858477E+01 -0.11674110693E+02  0.12689636713E+02  0.17903150592E+02  0.51100000000E-03 0. -1.
        -11    1    3    3    0    0 -0.27620569591E+01 -0.32586684863E+01 -0.21649419708E+01  0.47890346571E+01  0.51100000000E-03 0.  1.
        -12    1    3    3    0    0  0.16117384496E+02 -0.22523975463E+02  0.27894772638E+01  0.27836679706E+02  0.00000000000E+00 0.  1.
</event>
<event>
 7    1  0.2500839E-011  0.5052886E+02  0.7816164E-02  0.1300439E+00
        -11   -1    0    0    0    0  0.00000000000E+00  0.00000000000E+00  0.45593999997E+02  0.45594000000E+02  0.51100000000E-03 0. -1.
         11   -1    0    0    0    0 -0.00000000000E+00 -0.00000000000E+00 -0.45593999997E+02  0.45594000000E+02  0.51100000000E-03 0.  1.
    9900012    2    1    2    0    0 -0.28886870733E+02  0.18774067841E+02 -0.21592793231E+02  0.50528860271E+02  0.30000001278E+02 0.  0.
         12    1    1    2    0    0  0.28886870733E+02 -0.18774067841E+02  0.21592793231E+02  0.40659139729E+02  0.00000000000E+00 0. -1.
         11    1    3    3    0    0 -0.45001886366E+01 -0.20964373861E+01 -0.77487280682E+01  0.92026916940E+01  0.51100000000E-03 0. -1.
        -11    1    3    3    0    0 -0.62222178021E+01  0.13688446144E+02 -0.15658927771E+02  0.21709250826E+02  0.51100000000E-03 0.  1.
         12    1    3    3    0    0 -0.18164464294E+02  0.71820590830E+01  0.18148626080E+01  0.19616917751E+02  0.00000000000E+00 0. -1.
</event>
<event>
 7    1  0.2500839E-011  0.5052878E+02  0.7816164E-02  0.1300439E+00
        -11   -1    0    0    0    0  0.00000000000E+00  0.00000000000E+00  0.45593999997E+02  0.45594000000E+02  0.51100000000E-03 0.  1.
         11   -1    0    0    0    0 -0.00000000000E+00 -0.00000000000E+00 -0.45593999997E+02  0.45594000000E+02  0.51100000000E-03 0. -1.
    9900012    2    1    2    0    0 -0.37366434904E+02  0.13384729301E+02 -0.88187510212E+01  0.50528784495E+02  0.29999770950E+02 0.  0.
         12    1    1    2    0    0  0.37366434904E+02 -0.13384729301E+02  0.88187510212E+01  0.40659215505E+02  0.00000000000E+00 0. -1.
         11    1    3    3    0    0 -0.26979032983E+02  0.11173439509E+02 -0.11533193008E+02  0.31396313675E+02  0.51100000000E-03 0. -1.
        -11    1    3    3    0    0 -0.62867048376E+01  0.87948930322E+01  0.34335950919E+01  0.11342943916E+02  0.51100000000E-03 0.  1.
         12    1    3    3    0    0 -0.41006970836E+01 -0.65836032406E+01 -0.71915310553E+00  0.77895269042E+01  0.00000000000E+00 0. -1.
</event>
<event>
 7    1  0.2500839E-011  0.5052886E+02  0.7816164E-02  0.1300439E+00
        -11   -1    0    0    0    0  0.00000000000E+00  0.00000000000E+00  0.45593999997E+02  0.45594000000E+02  0.51100000000E-03 0.  1.
         11   -1    0    0    0    0 -0.00000000000E+00 -0.00000000000E+00 -0.45593999997E+02  0.45594000000E+02  0.51100000000E-03 0. -1.
    9900012    2    1    2    0    0  0.99560341512E+01 -0.30499051643E+02  0.24977008003E+02  0.50528859626E+02  0.29999999321E+02 0.  0.
         12    1    1    2    0    0 -0.99560341512E+01  0.30499051643E+02 -0.24977008003E+02  0.40659140374E+02  0.00000000000E+00 0. -1.
         11    1    3    3    0    0  0.46184619489E+01 -0.10646290923E+02  0.16066826069E+01  0.11715593475E+02  0.51100000000E-03 0.  1.
        -11    1    3    3    0    0 -0.44127420105E+01 -0.20134903590E+02  0.19319506678E+02  0.28251194190E+02  0.51100000000E-03 0. -1.
        -12    1    3    3    0    0  0.97503142128E+01  0.28214287008E+00  0.40508187183E+01  0.10562071962E+02  0.00000000000E+00 0.  1.
</event>
<event>
 7    1  0.2500839E-011  0.5052885E+02  0.7816164E-02  0.1300439E+00
        -11   -1    0    0    0    0  0.00000000000E+00  0.00000000000E+00  0.45593999997E+02  0.45594000000E+02  0.51100000000E-03 0. -1.
         11   -1    0    0    0    0 -0.00000000000E+00 -0.00000000000E+00 -0.45593999997E+02  0.45594000000E+02  0.51100000000E-03 0.  1.
    9900012    2    1    2    0    0  0.92623211192E+01  0.39356895361E+02  0.42907250080E+01  0.50528854336E+02  0.29999983241E+02 0.  0.
         12    1    1    2    0    0 -0.92623211192E+01 -0.39356895361E+02 -0.42907250080E+01  0.40659145664E+02  0.00000000000E+00 0. -1.
         11    1    3    3    0    0 -0.84268729044E+01  0.16674716397E+02 -0.16388545483E+00  0.18683822215E+02  0.51100000000E-03 0. -1.
        -11    1    3    3    0    0  0.29351448307E+01  0.72920590262E+01  0.68036813964E+01  0.10396118546E+02  0.51100000000E-03 0.  1.
         12    1    3    3    0    0  0.14754049193E+02  0.15390119938E+02 -0.23490709335E+01  0.21448913575E+02  0.00000000000E+00 0. -1.
</event>
<event>
 7    1  0.2500839E-011  0.5052887E+02  0.7816164E-02  0.1300439E+00
        -11   -1    0    0    0    0  0.00000000000E+00  0.00000000000E+00  0.45593999997E+02  0.45594000000E+02  0.51100000000E-03 0.  1.
         11   -1    0    0    0    0 -0.00000000000E+00 -0.00000000000E+00 -0.45593999997E+02  0.45594000000E+02  0.51100000000E-03 0. -1.
    9900012    2    1    2    0    0  0.19397812622E+02  0.36636488879E+01  0.35545292171E+02  0.50528865070E+02  0.30000015867E+02 0.  0.
         12    1    1    2    0    0 -0.19397812622E+02 -0.36636488879E+01 -0.35545292171E+02  0.40659134930E+02  0.00000000000E+00 0. -1.
         11    1    3    3    0    0  0.11761534265E+01  0.13013842184E+01  0.12155542840E+02  0.12281455930E+02  0.51100000000E-03 0. -1.
        -11    1    3    3    0    0  0.22821104412E+02  0.33130751842E+01  0.24259433859E+02  0.33470873983E+02  0.51100000000E-03 0.  1.
         12    1    3    3    0    0 -0.45994452158E+01 -0.95081051465E+00 -0.86968452831E+00  0.47765351570E+01  0.00000000000E+00 0. -1.
</event>
<event>
 7    1  0.2500839E-011  0.5052885E+02  0.7816164E-02  0.1300439E+00
        -11   -1    0    0    0    0  0.00000000000E+00  0.00000000000E+00  0.45593999997E+02  0.45594000000E+02  0.51100000000E-03 0. -1.
         11   -1    0    0    0    0 -0.00000000000E+00 -0.00000000000E+00 -0.45593999997E+02  0.45594000000E+02  0.51100000000E-03 0.  1.
    9900012    2    1    2    0    0  0.31330765761E+02 -0.16836370016E+02 -0.19699896914E+02  0.50528853712E+02  0.29999981343E+02 0.  0.
         12    1    1    2    0    0 -0.31330765761E+02  0.16836370016E+02  0.19699896914E+02  0.40659146288E+02  0.00000000000E+00 0. -1.
         11    1    3    3    0    0  0.62100048850E+01 -0.11891729259E+02 -0.13282341496E+01  0.13481156911E+02  0.51100000000E-03 0. -1.
        -11    1    3    3    0    0  0.10106840620E+02 -0.42508911360E+01 -0.19074594291E+02  0.22001328378E+02  0.51100000000E-03 0.  1.
         12    1    3    3    0    0  0.15013920256E+02 -0.69374962071E+00  0.70293152690E+00  0.15046368423E+02  0.00000000000E+00 0. -1.
</event>
<event>
 7    1  0.2500839E-011  0.5052885E+02  0.7816164E-02  0.1300439E+00
        -11   -1    0    0    0    0  0.00000000000E+00  0.00000000000E+00  0.45593999997E+02  0.45594000000E+02  0.51100000000E-03 0. -1.
         11   -1    0    0    0    0 -0.00000000000E+00 -0.00000000000E+00 -0.45593999997E+02  0.45594000000E+02  0.51100000000E-03 0.  1.
    9900012    2    1    2    0    0 -0.55888682925E+01 -0.33807231206E+02 -0.21886109165E+02  0.50528854596E+02  0.29999984029E+02 0.  0.
         12    1    1    2    0    0  0.55888682925E+01  0.33807231206E+02  0.21886109165E+02  0.40659145404E+02  0.00000000000E+00 0. -1.
         11    1    3    3    0    0 -0.11306185268E+01 -0.22940117425E+02 -0.11511492765E+02  0.25691277735E+02  0.51100000000E-03 0. -1.
        -11    1    3    3    0    0 -0.42387320495E+01 -0.16444291496E+02 -0.80032799869E+01  0.18773227294E+02  0.51100000000E-03 0.  1.
         12    1    3    3    0    0 -0.21951771622E+00  0.55771777146E+01 -0.23713364135E+01  0.60643495673E+01  0.00000000000E+00 0. -1.
</event>
<event>
 7    1  0.2500839E-011  0.5052887E+02  0.7816164E-02  0.1300439E+00
        -11   -1    0    0    0    0  0.00000000000E+00  0.00000000000E+00  0.45593999997E+02  0.45594000000E+02  0.51100000000E-03 0. -1.
         11   -1    0    0    0    0 -0.00000000000E+00 -0.00000000000E+00 -0.45593999997E+02  0.45594000000E+02  0.51100000000E-03 0.  1.
    9900012    2    1    2    0    0  0.31994002272E+02 -0.12217761101E+02  0.21915184131E+02  0.50528866178E+02  0.30000019234E+02 0.  0.
         12    1    1    2    0    0 -0.31994002272E+02  0.12217761101E+02 -0.21915184131E+02  0.40659133822E+02  0.00000000000E+00 0. -1.
         11    1    3    3    0    0  0.48525228242E+01 -0.85538455462E+01  0.84048102634E+00  0.98702411321E+01  0.51100000000E-03 0. -1.
        -11    1    3    3    0    0  0.21444718313E+02 -0.11824510289E+02  0.17437019002E+02  0.30062345534E+02  0.51100000000E-03 0.  1.
         12    1    3    3    0    0  0.56967611346E+01  0.81605947349E+01  0.36376841033E+01  0.10596279512E+02  0.00000000000E+00 0. -1.
</event>
<event>
 7    1  0.2500839E-011  0.5052885E+02  0.7816164E-02  0.1300439E+00
        -11   -1    0    0    0    0  0.00000000000E+00  0.00000000000E+00  0.45593999997E+02  0.45594000000E+02  0.51100000000E-03 0.  1.
         11   -1    0    0    0    0 -0.00000000000E+00 -0.00000000000E+00 -0.45593999997E+02  0.45594000000E+02  0.51100000000E-03 0. -1.
    9900012    2    1    2    0    0  0.62258438229E+01 -0.23366159463E+02  0.32686811933E+02  0.50528853259E+02  0.29999979965E+02 0.  0.
         12    1    1    2    0    0 -0.62258438229E+01  0.23366159463E+02 -0.32686811933E+02  0.40659146741E+02  0.00000000000E+00 0. -1.
         11    1    3    3    0    0 -0.25383101712E+01 -0.85739328320E+01  0.15122769161E+02  0.17568536936E+02  0.51100000000E-03 0. -1.
        -11    1    3    3    0    0  0.83902832381E+01 -0.20165874816E+02  0.10957702592E+02  0.24436255979E+02  0.51100000000E-03 0.  1.
         12    1    3    3    0    0  0.37387075606E+00  0.53736481850E+01  0.66063401804E+01  0.85240603434E+01  0.00000000000E+00 0. -1.
</event>
<event>
 7    1  0.2500839E-011  0.5052889E+02  0.7816164E-02  0.1300439E+00
        -11   -1    0    0    0    0  0.00000000000E+00  0.00000000000E+00  0.45593999997E+02  0.45594000000E+02  0.51100000000E-03 0.  1.
         11   -1    0    0    0    0 -0.00000000000E+00 -0.00000000000E+00 -0.45593999997E+02  0.45594000000E+02  0.51100000000E-03 0. -1.
    9900012    2    1    2    0    0 -0.22597953859E+02 -0.29673833350E+02  0.16185149188E+02  0.50528893289E+02  0.30000101641E+02 0.  0.
         12    1    1    2    0    0  0.22597953859E+02  0.29673833350E+02 -0.16185149188E+02  0.40659106711E+02  0.00000000000E+00 0. -1.
         11    1    3    3    0    0  0.59165989606E+01 -0.33961733483E+01  0.21151208953E+01  0.71423996902E+01  0.51100000000E-03 0. -1.
        -11    1    3    3    0    0 -0.97024378086E+01 -0.12889872416E+02 -0.39839769180E+00  0.16138303235E+02  0.51100000000E-03 0.  1.
        -12    1    3    3    0    0 -0.18812115011E+02 -0.13387787585E+02  0.14468425984E+02  0.27248190363E+02  0.00000000000E+00 0.  1.
</event>
<event>
 7    1  0.2500839E-011  0.5052886E+02  0.7816164E-02  0.1300439E+00
        -11   -1    0    0    0    0  0.00000000000E+00  0.00000000000E+00  0.45593999997E+02  0.45594000000E+02  0.51100000000E-03 0.  1.
         11   -1    0    0    0    0 -0.00000000000E+00 -0.00000000000E+00 -0.45593999997E+02  0.45594000000E+02  0.51100000000E-03 0. -1.
    9900012    2    1    2    0    0  0.30279496616E+02 -0.27103063713E+02  0.13196735805E+01  0.50528861835E+02  0.30000006032E+02 0.  0.
         12    1    1    2    0    0 -0.30279496616E+02  0.27103063713E+02 -0.13196735805E+01  0.40659138165E+02  0.00000000000E+00 0. -1.
         11    1    3    3    0    0  0.23070470849E+01  0.26457967174E+01 -0.12010807156E+01  0.37101619464E+01  0.51100000000E-03 0. -1.
        -11    1    3    3    0    0  0.31132468276E+02 -0.22694903812E+02  0.46377338223E+01  0.38804610747E+02  0.51100000000E-03 0.  1.
         12    1    3    3    0    0 -0.31600187443E+01 -0.70539566188E+01 -0.21169795262E+01  0.80140891409E+01  0.00000000000E+00 0. -1.
</event>
<event>
 7    1  0.2500839E-011  0.5052888E+02  0.7816164E-02  0.1300439E+00
        -11   -1    0    0    0    0  0.00000000000E+00  0.00000000000E+00  0.45593999997E+02  0.45594000000E+02  0.51100000000E-03 0.  1.
         11   -1    0    0    0    0 -0.00000000000E+00 -0.00000000000E+00 -0.45593999997E+02  0.45594000000E+02  0.51100000000E-03 0. -1.
    9900012    2    1    2    0    0  0.18867898539E+02  0.41069353687E+01  0.35781272416E+02  0.50528880862E+02  0.30000063868E+02 0.  0.
         12    1    1    2    0    0 -0.18867898539E+02 -0.41069353687E+01 -0.35781272416E+02  0.40659119138E+02  0.00000000000E+00 0. -1.
         11    1    3    3    0    0  0.34062651948E+01  0.22245237640E+01 -0.22658463974E+01  0.46567379905E+01  0.51100000000E-03 0. -1.
        -11    1    3    3    0    0 -0.42758291503E+01 -0.30829932605E+01  0.76134274674E+01  0.92602289620E+01  0.51100000000E-03 0.  1.
        -12    1    3    3    0    0  0.19737462494E+02  0.49654048652E+01  0.30433691346E+02  0.36611913909E+02  0.00000000000E+00 0.  1.
</event>
<event>
 7    1  0.2500839E-011  0.5052885E+02  0.7816164E-02  0.1300439E+00
        -11   -1    0    0    0    0  0.00000000000E+00  0.00000000000E+00  0.45593999997E+02  0.45594000000E+02  0.51100000000E-03 0.  1.
         11   -1    0    0    0    0 -0.00000000000E+00 -0.00000000000E+00 -0.45593999997E+02  0.45594000000E+02  0.51100000000E-03 0. -1.
    9900012    2    1    2    0    0 -0.26837590777E+02 -0.27926803939E+02 -0.12369483093E+02  0.50528846431E+02  0.29999959212E+02 0.  0.
         12    1    1    2    0    0  0.26837590777E+02  0.27926803939E+02  0.12369483093E+02  0.40659153569E+02  0.00000000000E+00 0. -1.
         11    1    3    3    0    0 -0.14976327175E+02 -0.15703253732E+02 -0.16434954184E+02  0.27221136507E+02  0.51100000000E-03 0. -1.
        -11    1    3    3    0    0 -0.13131698804E+02 -0.86926465361E+01 -0.23032733407E+01  0.15915674212E+02  0.51100000000E-03 0.  1.
         12    1    3    3    0    0  0.12704352032E+01 -0.35309036710E+01  0.63687444311E+01  0.73920357120E+01  0.00000000000E+00 0. -1.
</event>
<event>
 7    1  0.2500839E-011  0.5052886E+02  0.7816164E-02  0.1300439E+00
        -11   -1    0    0    0    0  0.00000000000E+00  0.00000000000E+00  0.45593999997E+02  0.45594000000E+02  0.51100000000E-03 0. -1.
         11   -1    0    0    0    0 -0.00000000000E+00 -0.00000000000E+00 -0.45593999997E+02  0.45594000000E+02  0.51100000000E-03 0.  1.
    9900012    2    1    2    0    0  0.26803885388E+02 -0.15270331887E+02 -0.26486497705E+02  0.50528857504E+02  0.29999992868E+02 0.  0.
         12    1    1    2    0    0 -0.26803885388E+02  0.15270331887E+02  0.26486497705E+02  0.40659142496E+02  0.00000000000E+00 0. -1.
         11    1    3    3    0    0 -0.31548908652E+01  0.36123303788E+01  0.75540231862E+00  0.48551931023E+01  0.51100000000E-03 0. -1.
        -11    1    3    3    0    0  0.12070785987E+02 -0.37064142707E+01 -0.58118821911E+01  0.13900336541E+02  0.51100000000E-03 0.  1.
        -12    1    3    3    0    0  0.17887990266E+02 -0.15176247996E+02 -0.21430017833E+02  0.31773327860E+02  0.00000000000E+00 0.  1.
</event>
<event>
 7    1  0.2500839E-011  0.5052886E+02  0.7816164E-02  0.1300439E+00
        -11   -1    0    0    0    0  0.00000000000E+00  0.00000000000E+00  0.45593999997E+02  0.45594000000E+02  0.51100000000E-03 0. -1.
         11   -1    0    0    0    0 -0.00000000000E+00 -0.00000000000E+00 -0.45593999997E+02  0.45594000000E+02  0.51100000000E-03 0.  1.
    9900012    2    1    2    0    0 -0.36820153895E+02  0.98867627313E+01 -0.14131301235E+02  0.50528862223E+02  0.30000007214E+02 0.  0.
         12    1    1    2    0    0  0.36820153895E+02 -0.98867627313E+01  0.14131301235E+02  0.40659137777E+02  0.00000000000E+00 0. -1.
         11    1    3    3    0    0 -0.13617331216E+02  0.12151483531E+02  0.20011120816E+01  0.18360139196E+02  0.51100000000E-03 0. -1.
        -11    1    3    3    0    0 -0.76849164972E+00 -0.85728954694E+00 -0.82778063200E+01  0.83574878113E+01  0.51100000000E-03 0.  1.
        -12    1    3    3    0    0 -0.22434331029E+02 -0.14074312528E+01 -0.78546069967E+01  0.23811235216E+02  0.00000000000E+00 0.  1.
</event>
<event>
 7    1  0.2500839E-011  0.5052886E+02  0.7816164E-02  0.1300439E+00
        -11   -1    0    0    0    0  0.00000000000E+00  0.00000000000E+00  0.45593999997E+02  0.45594000000E+02  0.51100000000E-03 0. -1.
         11   -1    0    0    0    0 -0.00000000000E+00 -0.00000000000E+00 -0.45593999997E+02  0.45594000000E+02  0.51100000000E-03 0.  1.
    9900012    2    1    2    0    0  0.76263169229E+01  0.79246399996E+01 -0.39143389547E+02  0.50528861124E+02  0.30000003873E+02 0.  0.
         12    1    1    2    0    0 -0.76263169229E+01 -0.79246399996E+01  0.39143389547E+02  0.40659138876E+02  0.00000000000E+00 0. -1.
         11    1    3    3    0    0  0.17891853039E+02  0.71068715342E-01 -0.27758884295E+02  0.33025431314E+02  0.51100000000E-03 0. -1.
        -11    1    3    3    0    0 -0.12030106570E+01  0.12320179043E+01 -0.33678347120E+00  0.17545729181E+01  0.51100000000E-03 0.  1.
         12    1    3    3    0    0 -0.90625254592E+01  0.66215533799E+01 -0.11047721781E+02  0.15748856892E+02  0.00000000000E+00 0. -1.
</event>
<event>
 7    1  0.2500839E-011  0.5052884E+02  0.7816164E-02  0.1300439E+00
        -11   -1    0    0    0    0  0.00000000000E+00  0.00000000000E+00  0.45593999997E+02  0.45594000000E+02  0.51100000000E-03 0.  1.
         11   -1    0    0    0    0 -0.00000000000E+00 -0.00000000000E+00 -0.45593999997E+02  0.45594000000E+02  0.51100000000E-03 0. -1.
    9900012    2    1    2    0    0  0.25260048730E+02  0.28355167424E+02  0.14528660102E+02  0.50528836877E+02  0.29999930170E+02 0.  0.
         12    1    1    2    0    0 -0.25260048730E+02 -0.28355167424E+02 -0.14528660102E+02  0.40659163123E+02  0.00000000000E+00 0. -1.
         11    1    3    3    0    0  0.10779131868E+01  0.11431527416E+02  0.17820781262E+01  0.11619703895E+02  0.51100000000E-03 0. -1.
        -11    1    3    3    0    0  0.12536568794E+02  0.99110772220E+01 -0.48244792366E+01  0.16693430115E+02  0.51100000000E-03 0.  1.
        -12    1    3    3    0    0  0.11645566749E+02  0.70125627867E+01  0.17571061212E+02  0.22215702867E+02  0.00000000000E+00 0.  1.
</event>
<event>
 7    1  0.2500839E-011  0.5052882E+02  0.7816164E-02  0.1300439E+00
        -11   -1    0    0    0    0  0.00000000000E+00  0.00000000000E+00  0.45593999997E+02  0.45594000000E+02  0.51100000000E-03 0. -1.
         11   -1    0    0    0    0 -0.00000000000E+00 -0.00000000000E+00 -0.45593999997E+02  0.45594000000E+02  0.51100000000E-03 0.  1.
    9900012    2    1    2    0    0  0.21184695981E+01 -0.29435200444E+02 -0.27968737219E+02  0.50528816533E+02  0.29999868332E+02 0.  0.
         12    1    1    2    0    0 -0.21184695981E+01  0.29435200444E+02  0.27968737219E+02  0.40659183467E+02  0.00000000000E+00 0. -1.
         11    1    3    3    0    0  0.52482473494E+01 -0.22852826184E+02 -0.96080981532E+01  0.25339915454E+02  0.51100000000E-03 0. -1.
        -11    1    3    3    0    0  0.24716128455E+01 -0.68339754255E+01 -0.18180311542E+02  0.19578963665E+02  0.51100000000E-03 0.  1.
         12    1    3    3    0    0 -0.56013905969E+01  0.25160116565E+00 -0.18032752378E+00  0.56099374133E+01  0.00000000000E+00 0. -1.
</event>
<event>
 7    1  0.2500839E-011  0.5052887E+02  0.7816164E-02  0.1300439E+00
        -11   -1    0    0    0    0  0.00000000000E+00  0.00000000000E+00  0.45593999997E+02  0.45594000000E+02  0.51100000000E-03 0. -1.
         11   -1    0    0    0    0 -0.00000000000E+00 -0.00000000000E+00 -0.45593999997E+02  0.45594000000E+02  0.51100000000E-03 0.  1.
    9900012    2    1    2    0    0  0.37507967154E+02  0.78750953228E+01 -0.13575732301E+02  0.50528865308E+02  0.30000016591E+02 0.  0.
         12    1    1    2    0    0 -0.37507967154E+02 -0.78750953228E+01  0.13575732301E+02  0.40659134692E+02  0.00000000000E+00 0. -1.
         11    1    3    3    0    0  0.17224718560E+02  0.14494531096E+02 -0.14229128208E+02  0.26631756438E+02  0.51100000000E-03 0. -1.
        -11    1    3    3    0    0  0.10911664886E+02  0.16430341696E+01  0.23689019975E+01  0.11286083856E+02  0.51100000000E-03 0.  1.
        -12    1    3    3    0    0  0.93715837084E+01 -0.82624699430E+01 -0.17155060901E+01  0.12611025014E+02  0.00000000000E+00 0.  1.
</event>
<event>
 7    1  0.2500839E-011  0.5052886E+02  0.7816164E-02  0.1300439E+00
        -11   -1    0    0    0    0  0.00000000000E+00  0.00000000000E+00  0.45593999997E+02  0.45594000000E+02  0.51100000000E-03 0. -1.
         11   -1    0    0    0    0 -0.00000000000E+00 -0.00000000000E+00 -0.45593999997E+02  0.45594000000E+02  0.51100000000E-03 0.  1.
    9900012    2    1    2    0    0 -0.25658618513E+02  0.24952701938E+01 -0.31441602560E+02  0.50528862664E+02  0.30000008554E+02 0.  0.
         12    1    1    2    0    0  0.25658618513E+02 -0.24952701938E+01  0.31441602560E+02  0.40659137336E+02  0.00000000000E+00 0. -1.
         11    1    3    3    0    0 -0.20189600374E+02 -0.93283516079E+01 -0.15940233538E+02  0.27362915643E+02  0.51100000000E-03 0. -1.
        -11    1    3    3    0    0 -0.19643746841E+01  0.84477236739E+00  0.15104313188E+01  0.26179784725E+01  0.51100000000E-03 0.  1.
        -12    1    3    3    0    0 -0.35046434552E+01  0.10978849434E+02 -0.17011800341E+02  0.20547968549E+02  0.00000000000E+00 0.  1.
</event>
<event>
 7    1  0.2500839E-011  0.5052886E+02  0.7816164E-02  0.1300439E+00
        -11   -1    0    0    0    0  0.00000000000E+00  0.00000000000E+00  0.45593999997E+02  0.45594000000E+02  0.51100000000E-03 0.  1.
         11   -1    0    0    0    0 -0.00000000000E+00 -0.00000000000E+00 -0.45593999997E+02  0.45594000000E+02  0.51100000000E-03 0. -1.
    9900012    2    1    2    0    0 -0.37511302345E+02  0.42457089364E+01  0.15101047563E+02  0.50528862214E+02  0.30000007185E+02 0.  0.
         12    1    1    2    0    0  0.37511302345E+02 -0.42457089364E+01 -0.15101047563E+02  0.40659137786E+02  0.00000000000E+00 0. -1.
         11    1    3    3    0    0  0.31630922410E+01  0.23578478255E+01  0.38082280575E+01  0.54833566446E+01  0.51100000000E-03 0. -1.
        -11    1    3    3    0    0 -0.16182069387E+02 -0.18581023821E+01 -0.28204151474E+01  0.16530779049E+02  0.51100000000E-03 0.  1.
         12    1    3    3    0    0 -0.24492325199E+02  0.37459634930E+01  0.14113234653E+02  0.28514726520E+02  0.00000000000E+00 0. -1.
</event>
<event>
 7    1  0.2500839E-011  0.5052886E+02  0.7816164E-02  0.1300439E+00
        -11   -1    0    0    0    0  0.00000000000E+00  0.00000000000E+00  0.45593999997E+02  0.45594000000E+02  0.51100000000E-03 0. -1.
         11   -1    0    0    0    0 -0.00000000000E+00 -0.00000000000E+00 -0.45593999997E+02  0.45594000000E+02  0.51100000000E-03 0.  1.
    9900012    2    1    2    0    0  0.23221394834E+02  0.18532888707E+02 -0.27757245652E+02  0.50528858001E+02  0.29999994381E+02 0.  0.
         12    1    1    2    0    0 -0.23221394834E+02 -0.18532888707E+02  0.27757245652E+02  0.40659141999E+02  0.00000000000E+00 0. -1.
         11    1    3    3    0    0  0.16532439843E+02  0.14770233110E+02 -0.13740624999E+02  0.26082295315E+02  0.51100000000E-03 0. -1.
        -11    1    3    3    0    0 -0.41932478975E+01  0.74075716221E+01 -0.67436555699E+01  0.10859665555E+02  0.51100000000E-03 0.  1.
        -12    1    3    3    0    0  0.10882202889E+02 -0.36449160251E+01 -0.72729650832E+01  0.13586897131E+02  0.00000000000E+00 0.  1.
</event>
<event>
 7    1  0.2500839E-011  0.5052885E+02  0.7816164E-02  0.1300439E+00
        -11   -1    0    0    0    0  0.00000000000E+00  0.00000000000E+00  0.45593999997E+02  0.45594000000E+02  0.51100000000E-03 0.  1.
         11   -1    0    0    0    0 -0.00000000000E+00 -0.00000000000E+00 -0.45593999997E+02  0.45594000000E+02  0.51100000000E-03 0. -1.
    9900012    2    1    2    0    0 -0.73556350866E+01  0.26494293399E+02  0.29951852677E+02  0.50528850611E+02  0.29999971918E+02 0.  0.
         12    1    1    2    0    0  0.73556350866E+01 -0.26494293399E+02 -0.29951852677E+02  0.40659149389E+02  0.00000000000E+00 0. -1.
         11    1    3    3    0    0  0.32078601247E+01  0.20656773471E+01  0.44089977099E+01  0.58306646748E+01  0.51100000000E-03 0. -1.
        -11    1    3    3    0    0 -0.16457192645E+01  0.35945835834E+01 -0.51831186397E+01  0.65187531116E+01  0.51100000000E-03 0.  1.
        -12    1    3    3    0    0 -0.89177759468E+01  0.20834032468E+02  0.30725973607E+02  0.38179432825E+02  0.00000000000E+00 0.  1.
</event>
<event>
 7    1  0.2500839E-011  0.5052886E+02  0.7816164E-02  0.1300439E+00
        -11   -1    0    0    0    0  0.00000000000E+00  0.00000000000E+00  0.45593999997E+02  0.45594000000E+02  0.51100000000E-03 0. -1.
         11   -1    0    0    0    0 -0.00000000000E+00 -0.00000000000E+00 -0.45593999997E+02  0.45594000000E+02  0.51100000000E-03 0.  1.
    9900012    2    1    2    0    0  0.26188543222E+02  0.25636938339E+02 -0.17608891643E+02  0.50528862425E+02  0.30000007826E+02 0.  0.
         12    1    1    2    0    0 -0.26188543222E+02 -0.25636938339E+02  0.17608891643E+02  0.40659137575E+02  0.00000000000E+00 0. -1.
         11    1    3    3    0    0  0.15295921707E+02  0.21005164305E+02 -0.17666178417E+02  0.31420948561E+02  0.51100000000E-03 0. -1.
        -11    1    3    3    0    0  0.12544892135E+02  0.66229511001E+01 -0.35928438253E+01  0.14633739336E+02  0.51100000000E-03 0.  1.
         12    1    3    3    0    0 -0.16522706203E+01 -0.19911770667E+01  0.36501305986E+01  0.44741745273E+01  0.00000000000E+00 0. -1.
</event>
<event>
 7    1  0.2500839E-011  0.5052887E+02  0.7816164E-02  0.1300439E+00
        -11   -1    0    0    0    0  0.00000000000E+00  0.00000000000E+00  0.45593999997E+02  0.45594000000E+02  0.51100000000E-03 0.  1.
         11   -1    0    0    0    0 -0.00000000000E+00 -0.00000000000E+00 -0.45593999997E+02  0.45594000000E+02  0.51100000000E-03 0. -1.
    9900012    2    1    2    0    0 -0.37934934788E+02  0.89536553714E+01  0.11573152201E+02  0.50528867278E+02  0.30000022578E+02 0.  0.
         12    1    1    2    0    0  0.37934934788E+02 -0.89536553714E+01 -0.11573152201E+02  0.40659132722E+02  0.00000000000E+00 0. -1.
         11    1    3    3    0    0 -0.11977683717E+02  0.33196794395E+01  0.10895912233E+02  0.16528946804E+02  0.51100000000E-03 0.  1.
        -11    1    3    3    0    0 -0.11008006054E+02 -0.65166773432E+01  0.58301535207E+01  0.14058234997E+02  0.51100000000E-03 0. -1.
        -12    1    3    3    0    0 -0.14949245017E+02  0.12150653275E+02 -0.51529135530E+01  0.19941685477E+02  0.00000000000E+00 0.  1.
</event>
<event>
 7    1  0.2500839E-011  0.5052886E+02  0.7816164E-02  0.1300439E+00
        -11   -1    0    0    0    0  0.00000000000E+00  0.00000000000E+00  0.45593999997E+02  0.45594000000E+02  0.51100000000E-03 0. -1.
         11   -1    0    0    0    0 -0.00000000000E+00 -0.00000000000E+00 -0.45593999997E+02  0.45594000000E+02  0.51100000000E-03 0.  1.
    9900012    2    1    2    0    0  0.24636435495E+02  0.22333023826E+02 -0.23397599092E+02  0.50528861416E+02  0.30000004761E+02 0.  0.
         12    1    1    2    0    0 -0.24636435495E+02 -0.22333023826E+02  0.23397599092E+02  0.40659138584E+02  0.00000000000E+00 0. -1.
         11    1    3    3    0    0  0.48022877856E+00  0.13722659489E+01  0.65341513777E+01  0.66939426351E+01  0.51100000000E-03 0. -1.
        -11    1    3    3    0    0  0.39410731901E+01  0.28415457684E+01 -0.51017177264E+01  0.70451376327E+01  0.51100000000E-03 0.  1.
         12    1    3    3    0    0  0.20215133526E+02  0.18119212109E+02 -0.24830032743E+02  0.36789781148E+02  0.00000000000E+00 0. -1.
</event>
<event>
 7    1  0.2500839E-011  0.5052886E+02  0.7816164E-02  0.1300439E+00
        -11   -1    0    0    0    0  0.00000000000E+00  0.00000000000E+00  0.45593999997E+02  0.45594000000E+02  0.51100000000E-03 0.  1.
         11   -1    0    0    0    0 -0.00000000000E+00 -0.00000000000E+00 -0.45593999997E+02  0.45594000000E+02  0.51100000000E-03 0. -1.
    9900012    2    1    2    0    0  0.17611266685E+02  0.33362646995E+02  0.15163850252E+02  0.50528864701E+02  0.30000014746E+02 0.  0.
         12    1    1    2    0    0 -0.17611266685E+02 -0.33362646995E+02 -0.15163850252E+02  0.40659135299E+02  0.00000000000E+00 0. -1.
         11    1    3    3    0    0 -0.53121833777E+01  0.41808977282E+01  0.54805463036E+01  0.87026194964E+01  0.51100000000E-03 0. -1.
        -11    1    3    3    0    0  0.26708123907E+01  0.32698836828E+01 -0.43569669877E+01  0.60670041799E+01  0.51100000000E-03 0.  1.
        -12    1    3    3    0    0  0.20252637672E+02  0.25911865584E+02  0.14040270936E+02  0.35759241025E+02  0.00000000000E+00 0.  1.
</event>
<event>
 7    1  0.2500839E-011  0.5052887E+02  0.7816164E-02  0.1300439E+00
        -11   -1    0    0    0    0  0.00000000000E+00  0.00000000000E+00  0.45593999997E+02  0.45594000000E+02  0.51100000000E-03 0. -1.
         11   -1    0    0    0    0 -0.00000000000E+00 -0.00000000000E+00 -0.45593999997E+02  0.45594000000E+02  0.51100000000E-03 0.  1.
    9900012    2    1    2    0    0 -0.96517302138E+01  0.25377283205E+02 -0.30265538587E+02  0.50528865419E+02  0.30000016926E+02 0.  0.
         12    1    1    2    0    0  0.96517302138E+01 -0.25377283205E+02  0.30265538587E+02  0.40659134581E+02  0.00000000000E+00 0. -1.
         11    1    3    3    0    0 -0.17248521825E+01  0.41068872548E+01  0.19495402849E+01  0.48623395150E+01  0.51100000000E-03 0.  1.
        -11    1    3    3    0    0 -0.43099108041E+01 -0.32808265644E+01 -0.13616824793E+02  0.14654592174E+02  0.51100000000E-03 0. -1.
        -12    1    3    3    0    0 -0.36169672271E+01  0.24551222514E+02 -0.18598254078E+02  0.31011933729E+02  0.00000000000E+00 0.  1.
</event>
<event>
 7    1  0.2500839E-011  0.5052895E+02  0.7816164E-02  0.1300438E+00
        -11   -1    0    0    0    0  0.00000000000E+00  0.00000000000E+00  0.45593999997E+02  0.45594000000E+02  0.51100000000E-03 0.  1.
         11   -1    0    0    0    0 -0.00000000000E+00 -0.00000000000E+00 -0.45593999997E+02  0.45594000000E+02  0.51100000000E-03 0. -1.
    9900012    2    1    2    0    0 -0.17439230678E+01  0.95355572900E+01  0.39486582535E+02  0.50528950321E+02  0.30000274995E+02 0.  0.
         12    1    1    2    0    0  0.17439230678E+01 -0.95355572900E+01 -0.39486582535E+02  0.40659049679E+02  0.00000000000E+00 0. -1.
         11    1    3    3    0    0 -0.49206453896E+01  0.48545675750E+01 -0.72406210680E+00  0.69500966602E+01  0.51100000000E-03 0. -1.
        -11    1    3    3    0    0 -0.29014962098E+00  0.10208626352E+02  0.26324399154E+02  0.28236044870E+02  0.51100000000E-03 0.  1.
        -12    1    3    3    0    0  0.34668719428E+01 -0.55276366373E+01  0.13886245487E+02  0.15342808791E+02  0.00000000000E+00 0.  1.
</event>
<event>
 7    1  0.2500839E-011  0.5052886E+02  0.7816164E-02  0.1300439E+00
        -11   -1    0    0    0    0  0.00000000000E+00  0.00000000000E+00  0.45593999997E+02  0.45594000000E+02  0.51100000000E-03 0.  1.
         11   -1    0    0    0    0 -0.00000000000E+00 -0.00000000000E+00 -0.45593999997E+02  0.45594000000E+02  0.51100000000E-03 0. -1.
    9900012    2    1    2    0    0 -0.33524821088E+02 -0.12317148749E+02  0.19430382760E+02  0.50528861341E+02  0.30000004531E+02 0.  0.
         12    1    1    2    0    0  0.33524821088E+02  0.12317148749E+02 -0.19430382760E+02  0.40659138659E+02  0.00000000000E+00 0. -1.
         11    1    3    3    0    0  0.62265314006E+00 -0.41264071799E+01 -0.33623740658E+01  0.53591503773E+01  0.51100000000E-03 0. -1.
        -11    1    3    3    0    0 -0.20383241909E+02 -0.68820828920E+01  0.22794068264E+02  0.31343407025E+02  0.51100000000E-03 0.  1.
         12    1    3    3    0    0 -0.13764232320E+02 -0.13086586771E+01 -0.13114377383E-02  0.13826303938E+02  0.00000000000E+00 0. -1.
</event>
<event>
 7    1  0.2500839E-011  0.5052883E+02  0.7816164E-02  0.1300439E+00
        -11   -1    0    0    0    0  0.00000000000E+00  0.00000000000E+00  0.45593999997E+02  0.45594000000E+02  0.51100000000E-03 0.  1.
         11   -1    0    0    0    0 -0.00000000000E+00 -0.00000000000E+00 -0.45593999997E+02  0.45594000000E+02  0.51100000000E-03 0. -1.
    9900012    2    1    2    0    0  0.33909575253E+02  0.12627947913E+02  0.18543021933E+02  0.50528830988E+02  0.29999912272E+02 0.  0.
         12    1    1    2    0    0 -0.33909575253E+02 -0.12627947913E+02 -0.18543021933E+02  0.40659169012E+02  0.00000000000E+00 0. -1.
         11    1    3    3    0    0  0.15963615205E+02 -0.15730022525E+01  0.10908496373E+02  0.19398624691E+02  0.51100000000E-03 0. -1.
        -11    1    3    3    0    0  0.21143942596E+02  0.13362747740E+02  0.10132105573E+02  0.26986828255E+02  0.51100000000E-03 0.  1.
        -12    1    3    3    0    0 -0.31979825481E+01  0.83820242573E+00 -0.24975800133E+01  0.41433780430E+01  0.00000000000E+00 0.  1.
</event>
<event>
 7    1  0.2500839E-011  0.5052887E+02  0.7816164E-02  0.1300439E+00
        -11   -1    0    0    0    0  0.00000000000E+00  0.00000000000E+00  0.45593999997E+02  0.45594000000E+02  0.51100000000E-03 0. -1.
         11   -1    0    0    0    0 -0.00000000000E+00 -0.00000000000E+00 -0.45593999997E+02  0.45594000000E+02  0.51100000000E-03 0.  1.
    9900012    2    1    2    0    0 -0.24056278425E+02 -0.29230329206E+02 -0.14834020247E+02  0.50528870228E+02  0.30000031544E+02 0.  0.
         12    1    1    2    0    0  0.24056278425E+02  0.29230329206E+02  0.14834020247E+02  0.40659129772E+02  0.00000000000E+00 0. -1.
         11    1    3    3    0    0  0.15009678730E+01 -0.31561134523E+01  0.27434051588E+01  0.44429977275E+01  0.51100000000E-03 0. -1.
        -11    1    3    3    0    0 -0.87484591917E+01 -0.23461064650E+02 -0.14055679162E+02  0.28714442528E+02  0.51100000000E-03 0.  1.
         12    1    3    3    0    0 -0.16808787106E+02 -0.26131511036E+01 -0.35217462438E+01  0.17371429972E+02  0.00000000000E+00 0. -1.
</event>
<event>
 7    1  0.2500839E-011  0.5052886E+02  0.7816164E-02  0.1300439E+00
        -11   -1    0    0    0    0  0.00000000000E+00  0.00000000000E+00  0.45593999997E+02  0.45594000000E+02  0.51100000000E-03 0.  1.
         11   -1    0    0    0    0 -0.00000000000E+00 -0.00000000000E+00 -0.45593999997E+02  0.45594000000E+02  0.51100000000E-03 0. -1.
    9900012    2    1    2    0    0 -0.22134766436E+02 -0.94951801894E+01 -0.32757580691E+02  0.50528862962E+02  0.30000009459E+02 0.  0.
         12    1    1    2    0    0  0.22134766436E+02  0.94951801894E+01  0.32757580691E+02  0.40659137038E+02  0.00000000000E+00 0. -1.
         11    1    3    3    0    0 -0.71233753553E+01 -0.83124810823E+01 -0.19810731117E+02  0.22634153084E+02  0.51100000000E-03 0. -1.
        -11    1    3    3    0    0 -0.13790316023E+02  0.61767514281E+01 -0.13700359706E+02  0.20396689206E+02  0.51100000000E-03 0.  1.
         12    1    3    3    0    0 -0.12210750574E+01 -0.73594505351E+01  0.75351013219E+00  0.74980206718E+01  0.00000000000E+00 0. -1.
</event>
<event>
 7    1  0.2500839E-011  0.5052883E+02  0.7816164E-02  0.1300439E+00
        -11   -1    0    0    0    0  0.00000000000E+00  0.00000000000E+00  0.45593999997E+02  0.45594000000E+02  0.51100000000E-03 0. -1.
         11   -1    0    0    0    0 -0.00000000000E+00 -0.00000000000E+00 -0.45593999997E+02  0.45594000000E+02  0.51100000000E-03 0.  1.
    9900012    2    1    2    0    0  0.14039802838E+02  0.36218165238E+02  0.12012356580E+02  0.50528828002E+02  0.29999903195E+02 0.  0.
         12    1    1    2    0    0 -0.14039802838E+02 -0.36218165238E+02 -0.12012356580E+02  0.40659171998E+02  0.00000000000E+00 0. -1.
         11    1    3    3    0    0  0.38415533387E+01 -0.33190717179E+00 -0.26177346048E+01  0.46604966631E+01  0.51100000000E-03 0. -1.
        -11    1    3    3    0    0  0.14353683930E+02  0.16452212118E+02  0.23689136407E+01  0.21961677487E+02  0.51100000000E-03 0.  1.
        -12    1    3    3    0    0 -0.41554344309E+01  0.20097860292E+02  0.12261177544E+02  0.23906653852E+02  0.00000000000E+00 0.  1.
</event>
<event>
 7    1  0.2500839E-011  0.5052885E+02  0.7816164E-02  0.1300439E+00
        -11   -1    0    0    0    0  0.00000000000E+00  0.00000000000E+00  0.45593999997E+02  0.45594000000E+02  0.51100000000E-03 0.  1.
         11   -1    0    0    0    0 -0.00000000000E+00 -0.00000000000E+00 -0.45593999997E+02  0.45594000000E+02  0.51100000000E-03 0. -1.
    9900012    2    1    2    0    0 -0.27034398826E+02  0.13419195090E+02  0.27243948616E+02  0.50528852777E+02  0.29999978500E+02 0.  0.
         12    1    1    2    0    0  0.27034398826E+02 -0.13419195090E+02 -0.27243948616E+02  0.40659147223E+02  0.00000000000E+00 0. -1.
         11    1    3    3    0    0 -0.81032863825E+01  0.10894044616E+02 -0.14332540200E+01  0.13652753409E+02  0.51100000000E-03 0. -1.
        -11    1    3    3    0    0 -0.84520283420E+01 -0.82903760958E+00  0.31139026269E+01  0.90454671678E+01  0.51100000000E-03 0.  1.
        -12    1    3    3    0    0 -0.10479084101E+02  0.33541880832E+01  0.25563300009E+02  0.27830632200E+02  0.00000000000E+00 0.  1.
</event>
<event>
 7    1  0.2500839E-011  0.5052885E+02  0.7816164E-02  0.1300439E+00
        -11   -1    0    0    0    0  0.00000000000E+00  0.00000000000E+00  0.45593999997E+02  0.45594000000E+02  0.51100000000E-03 0.  1.
         11   -1    0    0    0    0 -0.00000000000E+00 -0.00000000000E+00 -0.45593999997E+02  0.45594000000E+02  0.51100000000E-03 0. -1.
    9900012    2    1    2    0    0 -0.26541934205E+02  0.28947832594E+02  0.10522114309E+02  0.50528853762E+02  0.29999981495E+02 0.  0.
         12    1    1    2    0    0  0.26541934205E+02 -0.28947832594E+02 -0.10522114309E+02  0.40659146238E+02  0.00000000000E+00 0. -1.
         11    1    3    3    0    0 -0.13328975173E+02  0.22042242887E+02  0.16140214605E+02  0.30397838384E+02  0.51100000000E-03 0.  1.
        -11    1    3    3    0    0  0.13761792976E+01 -0.99942591524E-01 -0.35583586184E+01  0.38165133695E+01  0.51100000000E-03 0. -1.
        -12    1    3    3    0    0 -0.14589138330E+02  0.70055322992E+01 -0.20597416781E+01  0.16314502009E+02  0.00000000000E+00 0.  1.
</event>
<event>
 7    1  0.2500839E-011  0.5052888E+02  0.7816164E-02  0.1300439E+00
        -11   -1    0    0    0    0  0.00000000000E+00  0.00000000000E+00  0.45593999997E+02  0.45594000000E+02  0.51100000000E-03 0.  1.
         11   -1    0    0    0    0 -0.00000000000E+00 -0.00000000000E+00 -0.45593999997E+02  0.45594000000E+02  0.51100000000E-03 0. -1.
    9900012    2    1    2    0    0  0.14306667146E+02 -0.33817003984E+02  0.17461212022E+02  0.50528875457E+02  0.30000047439E+02 0.  0.
         12    1    1    2    0    0 -0.14306667146E+02  0.33817003984E+02 -0.17461212022E+02  0.40659124543E+02  0.00000000000E+00 0. -1.
         11    1    3    3    0    0  0.17023585893E+01 -0.94487146982E+01  0.19438827392E+02  0.21680503796E+02  0.51100000000E-03 0. -1.
        -11    1    3    3    0    0  0.50623134127E+01 -0.50077367935E+01  0.25853900596E+01  0.75755321201E+01  0.51100000000E-03 0.  1.
        -12    1    3    3    0    0  0.75419951441E+01 -0.19360552492E+02 -0.45630054296E+01  0.21272839541E+02  0.00000000000E+00 0.  1.
</event>
<event>
 7    1  0.2500839E-011  0.5052886E+02  0.7816164E-02  0.1300439E+00
        -11   -1    0    0    0    0  0.00000000000E+00  0.00000000000E+00  0.45593999997E+02  0.45594000000E+02  0.51100000000E-03 0.  1.
         11   -1    0    0    0    0 -0.00000000000E+00 -0.00000000000E+00 -0.45593999997E+02  0.45594000000E+02  0.51100000000E-03 0. -1.
    9900012    2    1    2    0    0  0.78647357021E+01  0.34191301658E+02  0.20549123826E+02  0.50528859985E+02  0.30000000410E+02 0.  0.
         12    1    1    2    0    0 -0.78647357021E+01 -0.34191301658E+02 -0.20549123826E+02  0.40659140015E+02  0.00000000000E+00 0. -1.
         11    1    3    3    0    0 -0.66198309008E+01  0.99194115243E+01 -0.13856345409E+01  0.12005701541E+02  0.51100000000E-03 0. -1.
        -11    1    3    3    0    0  0.58485358993E+01  0.21331047200E+01  0.61968520544E-01  0.62257006248E+01  0.51100000000E-03 0.  1.
        -12    1    3    3    0    0  0.86360307036E+01  0.22138785414E+02  0.21872789847E+02  0.32297457819E+02  0.00000000000E+00 0.  1.
</event>
<event>
 7    1  0.2500839E-011  0.5052886E+02  0.7816164E-02  0.1300439E+00
        -11   -1    0    0    0    0  0.00000000000E+00  0.00000000000E+00  0.45593999997E+02  0.45594000000E+02  0.51100000000E-03 0.  1.
         11   -1    0    0    0    0 -0.00000000000E+00 -0.00000000000E+00 -0.45593999997E+02  0.45594000000E+02  0.51100000000E-03 0. -1.
    9900012    2    1    2    0    0 -0.29327201245E+02 -0.18989823997E+01  0.28097591450E+02  0.50528861884E+02  0.30000006183E+02 0.  0.
         12    1    1    2    0    0  0.29327201245E+02  0.18989823997E+01 -0.28097591450E+02  0.40659138116E+02  0.00000000000E+00 0. -1.
         11    1    3    3    0    0 -0.11940065613E+02 -0.84721334395E+01  0.13233244825E+02  0.19734765789E+02  0.51100000000E-03 0. -1.
        -11    1    3    3    0    0  0.14316541977E+01 -0.46425841144E+01  0.13074881663E+01  0.50311774534E+01  0.51100000000E-03 0.  1.
        -12    1    3    3    0    0 -0.18818789830E+02  0.11215735154E+02  0.13556858459E+02  0.25762918642E+02  0.00000000000E+00 0.  1.
</event>
<event>
 7    1  0.2500839E-011  0.5052880E+02  0.7816164E-02  0.1300439E+00
        -11   -1    0    0    0    0  0.00000000000E+00  0.00000000000E+00  0.45593999997E+02  0.45594000000E+02  0.51100000000E-03 0.  1.
         11   -1    0    0    0    0 -0.00000000000E+00 -0.00000000000E+00 -0.45593999997E+02  0.45594000000E+02  0.51100000000E-03 0. -1.
    9900012    2    1    2    0    0  0.20584342304E+02 -0.14185441358E+02  0.32066004791E+02  0.50528799837E+02  0.29999817584E+02 0.  0.
         12    1    1    2    0    0 -0.20584342304E+02  0.14185441358E+02 -0.32066004791E+02  0.40659200163E+02  0.00000000000E+00 0. -1.
         11    1    3    3    0    0  0.43775955456E+01 -0.12080389361E+02  0.57141990182E+01  0.14062404508E+02  0.51100000000E-03 0. -1.
        -11    1    3    3    0    0  0.77763139904E+01 -0.97442048985E+01  0.19624443098E+02  0.23249502265E+02  0.51100000000E-03 0.  1.
         12    1    3    3    0    0  0.84304327685E+01  0.76391529012E+01  0.67273626746E+01  0.13216893064E+02  0.00000000000E+00 0. -1.
</event>
<event>
 7    1  0.2500839E-011  0.5052886E+02  0.7816164E-02  0.1300439E+00
        -11   -1    0    0    0    0  0.00000000000E+00  0.00000000000E+00  0.45593999997E+02  0.45594000000E+02  0.51100000000E-03 0. -1.
         11   -1    0    0    0    0 -0.00000000000E+00 -0.00000000000E+00 -0.45593999997E+02  0.45594000000E+02  0.51100000000E-03 0.  1.
    9900012    2    1    2    0    0 -0.11055866102E+01  0.16599937861E+02 -0.37099672794E+02  0.50528856131E+02  0.29999988695E+02 0.  0.
         12    1    1    2    0    0  0.11055866102E+01 -0.16599937861E+02  0.37099672794E+02  0.40659143869E+02  0.00000000000E+00 0. -1.
         11    1    3    3    0    0 -0.68452756395E+01  0.29819379843E+01 -0.15526161601E+02  0.17228216595E+02  0.51100000000E-03 0. -1.
        -11    1    3    3    0    0 -0.41486950019E+01  0.13955651226E+02 -0.83447967158E+01  0.16781165152E+02  0.51100000000E-03 0.  1.
        -12    1    3    3    0    0  0.98883840313E+01 -0.33765134955E+00 -0.13228714478E+02  0.16519474384E+02  0.00000000000E+00 0.  1.
</event>
<event>
 7    1  0.2500839E-011  0.5052886E+02  0.7816164E-02  0.1300439E+00
        -11   -1    0    0    0    0  0.00000000000E+00  0.00000000000E+00  0.45593999997E+02  0.45594000000E+02  0.51100000000E-03 0.  1.
         11   -1    0    0    0    0 -0.00000000000E+00 -0.00000000000E+00 -0.45593999997E+02  0.45594000000E+02  0.51100000000E-03 0. -1.
    9900012    2    1    2    0    0 -0.37109987490E+01 -0.36007287384E+02  0.18516735100E+02  0.50528859143E+02  0.29999997851E+02 0.  0.
         12    1    1    2    0    0  0.37109987490E+01  0.36007287384E+02 -0.18516735100E+02  0.40659140857E+02  0.00000000000E+00 0. -1.
         11    1    3    3    0    0  0.75091428879E+01 -0.15115608067E+02  0.37184761901E+01  0.17282820938E+02  0.51100000000E-03 0. -1.
        -11    1    3    3    0    0 -0.39164407958E+01  0.27013458914E+01  0.70334212952E+00  0.48094145740E+01  0.51100000000E-03 0.  1.
        -12    1    3    3    0    0 -0.73037008411E+01 -0.23593025209E+02  0.14094916780E+02  0.28436623631E+02  0.00000000000E+00 0.  1.
</event>
<event>
 7    1  0.2500839E-011  0.5052885E+02  0.7816164E-02  0.1300439E+00
        -11   -1    0    0    0    0  0.00000000000E+00  0.00000000000E+00  0.45593999997E+02  0.45594000000E+02  0.51100000000E-03 0.  1.
         11   -1    0    0    0    0 -0.00000000000E+00 -0.00000000000E+00 -0.45593999997E+02  0.45594000000E+02  0.51100000000E-03 0. -1.
    9900012    2    1    2    0    0 -0.26760055132E+01 -0.20530897612E+02  0.34992679503E+02  0.50528851202E+02  0.29999973712E+02 0.  0.
         12    1    1    2    0    0  0.26760055132E+01  0.20530897612E+02 -0.34992679503E+02  0.40659148798E+02  0.00000000000E+00 0. -1.
         11    1    3    3    0    0 -0.89618616360E+01 -0.25672485827E+01  0.83727413156E+01  0.12530304333E+02  0.51100000000E-03 0. -1.
        -11    1    3    3    0    0 -0.49139682646E+01  0.10192461507E+01  0.59280980069E+01  0.77671290102E+01  0.51100000000E-03 0.  1.
         12    1    3    3    0    0  0.11199824387E+02 -0.18982895180E+02  0.20691840180E+02  0.30231417859E+02  0.00000000000E+00 0. -1.
</event>
<event>
 7    1  0.2500839E-011  0.5052886E+02  0.7816164E-02  0.1300439E+00
        -11   -1    0    0    0    0  0.00000000000E+00  0.00000000000E+00  0.45593999997E+02  0.45594000000E+02  0.51100000000E-03 0. -1.
         11   -1    0    0    0    0 -0.00000000000E+00 -0.00000000000E+00 -0.45593999997E+02  0.45594000000E+02  0.51100000000E-03 0.  1.
    9900012    2    1    2    0    0  0.32228688904E+02  0.46350887274E+01 -0.24351456466E+02  0.50528857510E+02  0.29999992888E+02 0.  0.
         12    1    1    2    0    0 -0.32228688904E+02 -0.46350887274E+01  0.24351456466E+02  0.40659142490E+02  0.00000000000E+00 0. -1.
         11    1    3    3    0    0  0.12540894958E+02  0.13636336088E+02 -0.12711346363E+01  0.18569854382E+02  0.51100000000E-03 0. -1.
        -11    1    3    3    0    0  0.12960588063E+01 -0.10324128509E+01 -0.38079359329E+01  0.41528328950E+01  0.51100000000E-03 0.  1.
         12    1    3    3    0    0  0.18391735140E+02 -0.79688345093E+01 -0.19272385897E+02  0.27806170233E+02  0.00000000000E+00 0. -1.
</event>
<event>
 7    1  0.2500839E-011  0.5052887E+02  0.7816164E-02  0.1300439E+00
        -11   -1    0    0    0    0  0.00000000000E+00  0.00000000000E+00  0.45593999997E+02  0.45594000000E+02  0.51100000000E-03 0. -1.
         11   -1    0    0    0    0 -0.00000000000E+00 -0.00000000000E+00 -0.45593999997E+02  0.45594000000E+02  0.51100000000E-03 0.  1.
    9900012    2    1    2    0    0  0.32093077675E+02  0.19663759291E+02 -0.15379715342E+02  0.50528871774E+02  0.30000036244E+02 0.  0.
         12    1    1    2    0    0 -0.32093077675E+02 -0.19663759291E+02  0.15379715342E+02  0.40659128226E+02  0.00000000000E+00 0. -1.
         11    1    3    3    0    0  0.20758924547E+02  0.21374367135E+02 -0.58714167125E+01  0.30368899440E+02  0.51100000000E-03 0. -1.
        -11    1    3    3    0    0  0.13035772399E+02  0.22970702295E+01 -0.58440594052E+01  0.14469309738E+02  0.51100000000E-03 0.  1.
        -12    1    3    3    0    0 -0.17016192714E+01 -0.40076780736E+01 -0.36642392248E+01  0.56906625961E+01  0.00000000000E+00 0.  1.
</event>
<event>
 7    1  0.2500839E-011  0.5052885E+02  0.7816164E-02  0.1300439E+00
        -11   -1    0    0    0    0  0.00000000000E+00  0.00000000000E+00  0.45593999997E+02  0.45594000000E+02  0.51100000000E-03 0. -1.
         11   -1    0    0    0    0 -0.00000000000E+00 -0.00000000000E+00 -0.45593999997E+02  0.45594000000E+02  0.51100000000E-03 0.  1.
    9900012    2    1    2    0    0  0.12354042149E+02 -0.16542878483E+02 -0.35026806998E+02  0.50528851037E+02  0.29999973213E+02 0.  0.
         12    1    1    2    0    0 -0.12354042149E+02  0.16542878483E+02  0.35026806998E+02  0.40659148963E+02  0.00000000000E+00 0. -1.
         11    1    3    3    0    0  0.38632410956E+01 -0.43275417206E+01  0.38852822724E+01  0.69819530007E+01  0.51100000000E-03 0. -1.
        -11    1    3    3    0    0 -0.24709460633E+00 -0.91616179886E+01 -0.12080336844E+02  0.15163470528E+02  0.51100000000E-03 0.  1.
         12    1    3    3    0    0  0.87378956596E+01 -0.30537187738E+01 -0.26831752426E+02  0.28383427509E+02  0.00000000000E+00 0. -1.
</event>
<event>
 7    1  0.2500839E-011  0.5052895E+02  0.7816164E-02  0.1300438E+00
        -11   -1    0    0    0    0  0.00000000000E+00  0.00000000000E+00  0.45593999997E+02  0.45594000000E+02  0.51100000000E-03 0.  1.
         11   -1    0    0    0    0 -0.00000000000E+00 -0.00000000000E+00 -0.45593999997E+02  0.45594000000E+02  0.51100000000E-03 0. -1.
    9900012    2    1    2    0    0 -0.16915194572E+02  0.26171185901E+02  0.26117109011E+02  0.50528952274E+02  0.30000280930E+02 0.  0.
         12    1    1    2    0    0  0.16915194572E+02 -0.26171185901E+02 -0.26117109011E+02  0.40659047726E+02  0.00000000000E+00 0. -1.
         11    1    3    3    0    0  0.43975643136E+01  0.39901820747E+01  0.22515678114E+01  0.63505655459E+01  0.51100000000E-03 0. -1.
        -11    1    3    3    0    0 -0.94971027299E+01  0.90639571793E+01  0.23024478417E+02  0.26504280534E+02  0.51100000000E-03 0.  1.
        -12    1    3    3    0    0 -0.11815656156E+02  0.13117046647E+02  0.84106278281E+00  0.17674106194E+02  0.00000000000E+00 0.  1.
</event>
<event>
 7    1  0.2500839E-011  0.5052885E+02  0.7816164E-02  0.1300439E+00
        -11   -1    0    0    0    0  0.00000000000E+00  0.00000000000E+00  0.45593999997E+02  0.45594000000E+02  0.51100000000E-03 0.  1.
         11   -1    0    0    0    0 -0.00000000000E+00 -0.00000000000E+00 -0.45593999997E+02  0.45594000000E+02  0.51100000000E-03 0. -1.
    9900012    2    1    2    0    0  0.20434883119E+02 -0.34851921375E+02  0.45744308848E+01  0.50528852327E+02  0.29999977133E+02 0.  0.
         12    1    1    2    0    0 -0.20434883119E+02  0.34851921375E+02 -0.45744308848E+01  0.40659147673E+02  0.00000000000E+00 0. -1.
         11    1    3    3    0    0  0.75267173865E+01 -0.92973635730E+01  0.97830311890E+01  0.15453159662E+02  0.51100000000E-03 0. -1.
        -11    1    3    3    0    0  0.14358466503E+02 -0.87537407070E+01  0.15943625089E+01  0.16891877597E+02  0.51100000000E-03 0.  1.
         12    1    3    3    0    0 -0.14503007714E+01 -0.16800817095E+02 -0.68029628131E+01  0.18183815068E+02  0.00000000000E+00 0. -1.
</event>
<event>
 7    1  0.2500839E-011  0.5052886E+02  0.7816164E-02  0.1300439E+00
        -11   -1    0    0    0    0  0.00000000000E+00  0.00000000000E+00  0.45593999997E+02  0.45594000000E+02  0.51100000000E-03 0.  1.
         11   -1    0    0    0    0 -0.00000000000E+00 -0.00000000000E+00 -0.45593999997E+02  0.45594000000E+02  0.51100000000E-03 0. -1.
    9900012    2    1    2    0    0  0.25992967592E+02  0.30296736344E+02  0.77226341225E+01  0.50528859882E+02  0.30000000099E+02 0.  0.
         12    1    1    2    0    0 -0.25992967592E+02 -0.30296736344E+02 -0.77226341225E+01  0.40659140118E+02  0.00000000000E+00 0. -1.
         11    1    3    3    0    0  0.11769693361E+02 -0.16874958311E+01  0.98443115830E+01  0.15436443722E+02  0.51100000000E-03 0.  1.
        -11    1    3    3    0    0  0.23091909442E+01  0.45539039555E+01  0.67982520578E-01  0.51063711123E+01  0.51100000000E-03 0. -1.
        -12    1    3    3    0    0  0.11914083287E+02  0.27430328219E+02 -0.21896599811E+01  0.29986045048E+02  0.00000000000E+00 0.  1.
</event>
<event>
 7    1  0.2500839E-011  0.5052886E+02  0.7816164E-02  0.1300439E+00
        -11   -1    0    0    0    0  0.00000000000E+00  0.00000000000E+00  0.45593999997E+02  0.45594000000E+02  0.51100000000E-03 0. -1.
         11   -1    0    0    0    0 -0.00000000000E+00 -0.00000000000E+00 -0.45593999997E+02  0.45594000000E+02  0.51100000000E-03 0.  1.
    9900012    2    1    2    0    0 -0.23705964556E+02 -0.58037857138E+01  0.32519365619E+02  0.50528858046E+02  0.29999994517E+02 0.  0.
         12    1    1    2    0    0  0.23705964556E+02  0.58037857138E+01 -0.32519365619E+02  0.40659141954E+02  0.00000000000E+00 0. -1.
         11    1    3    3    0    0 -0.11506311422E+02 -0.30703763430E+01  0.31504576950E+02  0.33680272898E+02  0.51100000000E-03 0. -1.
        -11    1    3    3    0    0 -0.86721726466E+01 -0.18698661555E+01  0.59787056868E+01  0.10698032520E+02  0.51100000000E-03 0.  1.
         12    1    3    3    0    0 -0.35274804874E+01 -0.86354321532E+00 -0.49639170175E+01  0.61505526280E+01  0.00000000000E+00 0. -1.
</event>
<event>
 7    1  0.2500839E-011  0.5052885E+02  0.7816164E-02  0.1300439E+00
        -11   -1    0    0    0    0  0.00000000000E+00  0.00000000000E+00  0.45593999997E+02  0.45594000000E+02  0.51100000000E-03 0. -1.
         11   -1    0    0    0    0 -0.00000000000E+00 -0.00000000000E+00 -0.45593999997E+02  0.45594000000E+02  0.51100000000E-03 0.  1.
    9900012    2    1    2    0    0  0.28301998883E+02 -0.58735455012E+01 -0.28594836734E+02  0.50528851394E+02  0.29999974296E+02 0.  0.
         12    1    1    2    0    0 -0.28301998883E+02  0.58735455012E+01  0.28594836734E+02  0.40659148606E+02  0.00000000000E+00 0. -1.
         11    1    3    3    0    0  0.56079086606E+01  0.54863844198E+01 -0.41837093424E+01  0.88911460268E+01  0.51100000000E-03 0. -1.
        -11    1    3    3    0    0  0.18093361333E+02 -0.58979979073E+01 -0.32524181617E+01  0.19306328698E+02  0.51100000000E-03 0.  1.
         12    1    3    3    0    0  0.46007288895E+01 -0.54619320137E+01 -0.21158709230E+02  0.22331376668E+02  0.00000000000E+00 0. -1.
</event>
<event>
 7    1  0.2500839E-011  0.5052887E+02  0.7816164E-02  0.1300439E+00
        -11   -1    0    0    0    0  0.00000000000E+00  0.00000000000E+00  0.45593999997E+02  0.45594000000E+02  0.51100000000E-03 0.  1.
         11   -1    0    0    0    0 -0.00000000000E+00 -0.00000000000E+00 -0.45593999997E+02  0.45594000000E+02  0.51100000000E-03 0. -1.
    9900012    2    1    2    0    0 -0.12089249259E+02 -0.67913106397E+01  0.38221634924E+02  0.50528865428E+02  0.30000016956E+02 0.  0.
         12    1    1    2    0    0  0.12089249259E+02  0.67913106397E+01 -0.38221634924E+02  0.40659134572E+02  0.00000000000E+00 0. -1.
         11    1    3    3    0    0 -0.14665622870E+01  0.64061302237E+00 -0.18827934449E+01  0.24710526913E+01  0.51100000000E-03 0. -1.
        -11    1    3    3    0    0  0.18831803240E+01 -0.12384373873E+02  0.14709893920E+02  0.19320974710E+02  0.51100000000E-03 0.  1.
         12    1    3    3    0    0 -0.12505867296E+02  0.49524502105E+01  0.25394534449E+02  0.28736838027E+02  0.00000000000E+00 0. -1.
</event>
<event>
 7    1  0.2500839E-011  0.5052885E+02  0.7816164E-02  0.1300439E+00
        -11   -1    0    0    0    0  0.00000000000E+00  0.00000000000E+00  0.45593999997E+02  0.45594000000E+02  0.51100000000E-03 0.  1.
         11   -1    0    0    0    0 -0.00000000000E+00 -0.00000000000E+00 -0.45593999997E+02  0.45594000000E+02  0.51100000000E-03 0. -1.
    9900012    2    1    2    0    0  0.23271353937E+02  0.29245095165E+02  0.16010453060E+02  0.50528854505E+02  0.29999983752E+02 0.  0.
         12    1    1    2    0    0 -0.23271353937E+02 -0.29245095165E+02 -0.16010453060E+02  0.40659145495E+02  0.00000000000E+00 0. -1.
         11    1    3    3    0    0  0.25706448067E+01 -0.35788916445E+01 -0.24675700127E+00  0.44133399375E+01  0.51100000000E-03 0. -1.
        -11    1    3    3    0    0 -0.89317079461E-01  0.68479734447E+01  0.10217611321E+02  0.12300499957E+02  0.51100000000E-03 0.  1.
        -12    1    3    3    0    0  0.20790026209E+02  0.25976013365E+02  0.60395987403E+01  0.33815014610E+02  0.00000000000E+00 0.  1.
</event>
<event>
 7    1  0.2500839E-011  0.5052886E+02  0.7816164E-02  0.1300439E+00
        -11   -1    0    0    0    0  0.00000000000E+00  0.00000000000E+00  0.45593999997E+02  0.45594000000E+02  0.51100000000E-03 0.  1.
         11   -1    0    0    0    0 -0.00000000000E+00 -0.00000000000E+00 -0.45593999997E+02  0.45594000000E+02  0.51100000000E-03 0. -1.
    9900012    2    1    2    0    0 -0.21561161789E+02 -0.26763648719E+02  0.21725306640E+02  0.50528861556E+02  0.30000005185E+02 0.  0.
         12    1    1    2    0    0  0.21561161789E+02  0.26763648719E+02 -0.21725306640E+02  0.40659138444E+02  0.00000000000E+00 0. -1.
         11    1    3    3    0    0 -0.11467047695E+02 -0.18557683635E+01  0.82699681962E+01  0.14259363004E+02  0.51100000000E-03 0. -1.
        -11    1    3    3    0    0 -0.10014987541E+02 -0.12404852795E+02 -0.23513628022E+01  0.16115497373E+02  0.51100000000E-03 0.  1.
        -12    1    3    3    0    0 -0.79126552598E-01 -0.12503027561E+02  0.15806701246E+02  0.20154001178E+02  0.00000000000E+00 0.  1.
</event>
<event>
 7    1  0.2500839E-011  0.5052886E+02  0.7816164E-02  0.1300439E+00
        -11   -1    0    0    0    0  0.00000000000E+00  0.00000000000E+00  0.45593999997E+02  0.45594000000E+02  0.51100000000E-03 0.  1.
         11   -1    0    0    0    0 -0.00000000000E+00 -0.00000000000E+00 -0.45593999997E+02  0.45594000000E+02  0.51100000000E-03 0. -1.
    9900012    2    1    2    0    0 -0.31218196440E+02  0.21544294254E+02  0.14643548008E+02  0.50528857090E+02  0.29999991611E+02 0.  0.
         12    1    1    2    0    0  0.31218196440E+02 -0.21544294254E+02 -0.14643548008E+02  0.40659142910E+02  0.00000000000E+00 0. -1.
         11    1    3    3    0    0 -0.38836255947E+01 -0.53091912655E+01  0.64999758100E+01  0.92476886542E+01  0.51100000000E-03 0. -1.
        -11    1    3    3    0    0 -0.13192391828E+02  0.66851757128E+01 -0.14192995550E+01  0.14857496019E+02  0.51100000000E-03 0.  1.
        -12    1    3    3    0    0 -0.14142179017E+02  0.20168309807E+02  0.95628717533E+01  0.26423672417E+02  0.00000000000E+00 0.  1.
</event>
<event>
 7    1  0.2500839E-011  0.5052886E+02  0.7816164E-02  0.1300439E+00
        -11   -1    0    0    0    0  0.00000000000E+00  0.00000000000E+00  0.45593999997E+02  0.45594000000E+02  0.51100000000E-03 0.  1.
         11   -1    0    0    0    0 -0.00000000000E+00 -0.00000000000E+00 -0.45593999997E+02  0.45594000000E+02  0.51100000000E-03 0. -1.
    9900012    2    1    2    0    0 -0.99841112863E+01 -0.36341867103E+02  0.15256199192E+02  0.50528863309E+02  0.30000010514E+02 0.  0.
         12    1    1    2    0    0  0.99841112863E+01  0.36341867103E+02 -0.15256199192E+02  0.40659136691E+02  0.00000000000E+00 0. -1.
         11    1    3    3    0    0 -0.44076399666E+01 -0.68123491542E+01 -0.42204786681E+01  0.91459188452E+01  0.51100000000E-03 0. -1.
        -11    1    3    3    0    0 -0.25955957035E+00 -0.22785720230E+02  0.32417433003E+01  0.23016631323E+02  0.51100000000E-03 0.  1.
        -12    1    3    3    0    0 -0.53169117493E+01 -0.67437977185E+01  0.16234934560E+02  0.18366313141E+02  0.00000000000E+00 0.  1.
</event>
<event>
 7    1  0.2500839E-011  0.5052893E+02  0.7816164E-02  0.1300439E+00
        -11   -1    0    0    0    0  0.00000000000E+00  0.00000000000E+00  0.45593999997E+02  0.45594000000E+02  0.51100000000E-03 0.  1.
         11   -1    0    0    0    0 -0.00000000000E+00 -0.00000000000E+00 -0.45593999997E+02  0.45594000000E+02  0.51100000000E-03 0. -1.
    9900012    2    1    2    0    0 -0.22450008482E+02  0.27505423523E+02  0.19814356296E+02  0.50528930662E+02  0.30000215239E+02 0.  0.
         12    1    1    2    0    0  0.22450008482E+02 -0.27505423523E+02 -0.19814356296E+02  0.40659069338E+02  0.00000000000E+00 0. -1.
         11    1    3    3    0    0 -0.11184562561E+02 -0.20408695403E+01  0.12311030952E+02  0.16757716775E+02  0.51100000000E-03 0. -1.
        -11    1    3    3    0    0 -0.88874216341E+01  0.16358739213E+02  0.82217973956E+01  0.20351721416E+02  0.51100000000E-03 0.  1.
        -12    1    3    3    0    0 -0.23780242870E+01  0.13187553850E+02 -0.71847205183E+00  0.13419492470E+02  0.00000000000E+00 0.  1.
</event>
<event>
 7    1  0.2500839E-011  0.5052885E+02  0.7816164E-02  0.1300439E+00
        -11   -1    0    0    0    0  0.00000000000E+00  0.00000000000E+00  0.45593999997E+02  0.45594000000E+02  0.51100000000E-03 0.  1.
         11   -1    0    0    0    0 -0.00000000000E+00 -0.00000000000E+00 -0.45593999997E+02  0.45594000000E+02  0.51100000000E-03 0. -1.
    9900012    2    1    2    0    0 -0.39116962372E+02  0.78919857293E+01 -0.77939655026E+01  0.50528854876E+02  0.29999984881E+02 0.  0.
         12    1    1    2    0    0  0.39116962372E+02 -0.78919857293E+01  0.77939655026E+01  0.40659145124E+02  0.00000000000E+00 0. -1.
         11    1    3    3    0    0  0.11147447580E+01 -0.10136819779E+01 -0.42919972773E+01  0.45487853233E+01  0.51100000000E-03 0. -1.
        -11    1    3    3    0    0 -0.14375988349E+02 -0.43785056021E+01 -0.72239166691E+01  0.16674091419E+02  0.51100000000E-03 0.  1.
         12    1    3    3    0    0 -0.25855718781E+02  0.13284173309E+02  0.37219484438E+01  0.29305978134E+02  0.00000000000E+00 0. -1.
</event>
<event>
 7    1  0.2500839E-011  0.5052884E+02  0.7816164E-02  0.1300439E+00
        -11   -1    0    0    0    0  0.00000000000E+00  0.00000000000E+00  0.45593999997E+02  0.45594000000E+02  0.51100000000E-03 0.  1.
         11   -1    0    0    0    0 -0.00000000000E+00 -0.00000000000E+00 -0.45593999997E+02  0.45594000000E+02  0.51100000000E-03 0. -1.
    9900012    2    1    2    0    0 -0.69628522351E+01  0.91580661436E+01  0.38997634168E+02  0.50528844113E+02  0.29999952167E+02 0.  0.
         12    1    1    2    0    0  0.69628522351E+01 -0.91580661436E+01 -0.38997634168E+02  0.40659155887E+02  0.00000000000E+00 0. -1.
         11    1    3    3    0    0 -0.51440059397E+01 -0.18261740731E+01  0.12720710643E+02  0.13842405441E+02  0.51100000000E-03 0. -1.
        -11    1    3    3    0    0 -0.40382810537E+01  0.13409306818E+02  0.29137845770E+02  0.32328490215E+02  0.51100000000E-03 0.  1.
         12    1    3    3    0    0  0.22194347584E+01 -0.24250666012E+01 -0.28609222455E+01  0.43579484579E+01  0.00000000000E+00 0. -1.
</event>
<event>
 7    1  0.2500839E-011  0.5052885E+02  0.7816164E-02  0.1300439E+00
        -11   -1    0    0    0    0  0.00000000000E+00  0.00000000000E+00  0.45593999997E+02  0.45594000000E+02  0.51100000000E-03 0.  1.
         11   -1    0    0    0    0 -0.00000000000E+00 -0.00000000000E+00 -0.45593999997E+02  0.45594000000E+02  0.51100000000E-03 0. -1.
    9900012    2    1    2    0    0  0.68048588972E+01  0.30746856206E+02  0.25719469217E+02  0.50528851362E+02  0.29999974200E+02 0.  0.
         12    1    1    2    0    0 -0.68048588972E+01 -0.30746856206E+02 -0.25719469217E+02  0.40659148638E+02  0.00000000000E+00 0. -1.
         11    1    3    3    0    0  0.26350999459E+01  0.70046774102E+01  0.17276478437E+02  0.18827797662E+02  0.51100000000E-03 0.  1.
        -11    1    3    3    0    0  0.87021316662E+01  0.35626461265E+01  0.52627383368E+01  0.10775711486E+02  0.51100000000E-03 0. -1.
         12    1    3    3    0    0 -0.45323727149E+01  0.20179532669E+02  0.31802524429E+01  0.20925342214E+02  0.00000000000E+00 0. -1.
</event>
<event>
 7    1  0.2500839E-011  0.5052885E+02  0.7816164E-02  0.1300439E+00
        -11   -1    0    0    0    0  0.00000000000E+00  0.00000000000E+00  0.45593999997E+02  0.45594000000E+02  0.51100000000E-03 0.  1.
         11   -1    0    0    0    0 -0.00000000000E+00 -0.00000000000E+00 -0.45593999997E+02  0.45594000000E+02  0.51100000000E-03 0. -1.
    9900012    2    1    2    0    0 -0.14081419762E+02  0.28609394455E+02  0.25226629691E+02  0.50528847536E+02  0.29999962569E+02 0.  0.
         12    1    1    2    0    0  0.14081419762E+02 -0.28609394455E+02 -0.25226629691E+02  0.40659152464E+02  0.00000000000E+00 0. -1.
         11    1    3    3    0    0 -0.11046726628E+02  0.29175526900E+02  0.21054806623E+02  0.37637035235E+02  0.51100000000E-03 0. -1.
        -11    1    3    3    0    0 -0.32496965437E+01  0.12658890462E+01  0.79533404925E+01  0.86843899010E+01  0.51100000000E-03 0.  1.
         12    1    3    3    0    0  0.21500341013E+00 -0.18320214918E+01 -0.37815174247E+01  0.42074223993E+01  0.00000000000E+00 0. -1.
</event>
<event>
 7    1  0.2500839E-011  0.5052885E+02  0.7816164E-02  0.1300439E+00
        -11   -1    0    0    0    0  0.00000000000E+00  0.00000000000E+00  0.45593999997E+02  0.45594000000E+02  0.51100000000E-03 0.  1.
         11   -1    0    0    0    0 -0.00000000000E+00 -0.00000000000E+00 -0.45593999997E+02  0.45594000000E+02  0.51100000000E-03 0. -1.
    9900012    2    1    2    0    0  0.39192766017E+02  0.10280584983E+02 -0.33768067568E+01  0.50528853926E+02  0.29999981992E+02 0.  0.
         12    1    1    2    0    0 -0.39192766017E+02 -0.10280584983E+02  0.33768067568E+01  0.40659146074E+02  0.00000000000E+00 0. -1.
         11    1    3    3    0    0  0.84561950242E+01  0.36435202201E+01 -0.13331489155E+01  0.93037497910E+01  0.51100000000E-03 0. -1.
        -11    1    3    3    0    0  0.24973314777E+02 -0.65254853953E+01  0.30247646682E+01  0.25988413037E+02  0.51100000000E-03 0.  1.
         12    1    3    3    0    0  0.57632562153E+01  0.13162550159E+02 -0.50684225095E+01  0.15236691098E+02  0.00000000000E+00 0. -1.
</event>
<event>
 7    1  0.3300690E-011  0.5052889E+02  0.7816164E-02  0.1300439E+00
        -11   -1    0    0    0    0  0.00000000000E+00  0.00000000000E+00  0.45593999997E+02  0.45594000000E+02  0.51100000000E-03 0. -1.
         11   -1    0    0    0    0 -0.00000000000E+00 -0.00000000000E+00 -0.45593999997E+02  0.45594000000E+02  0.51100000000E-03 0.  1.
    9900012    2    1    2    0    0  0.72618203910E+00 -0.14448941867E+02 -0.37998214243E+02  0.50528886051E+02  0.30000079641E+02 0.  0.
         12    1    1    2    0    0 -0.72618203910E+00  0.14448941867E+02  0.37998214243E+02  0.40659113949E+02  0.00000000000E+00 0. -1.
         11    1    3    3    0    0 -0.79791629940E+01 -0.91304740795E+01 -0.13177252565E+02  0.17907333258E+02  0.51100000000E-03 0. -1.
        -11    1    3    3    0    0  0.51127016588E+01 -0.63473517471E+01 -0.27062905844E+02  0.28263571350E+02  0.51100000000E-03 0.  1.
         12    1    3    3    0    0  0.35926433743E+01  0.10288839601E+01  0.22419441656E+01  0.43579814433E+01  0.00000000000E+00 0. -1.
</event>
<event>
 7    1  0.2500839E-011  0.5052886E+02  0.7816164E-02  0.1300439E+00
        -11   -1    0    0    0    0  0.00000000000E+00  0.00000000000E+00  0.45593999997E+02  0.45594000000E+02  0.51100000000E-03 0.  1.
         11   -1    0    0    0    0 -0.00000000000E+00 -0.00000000000E+00 -0.45593999997E+02  0.45594000000E+02  0.51100000000E-03 0. -1.
    9900012    2    1    2    0    0 -0.39314264776E+01  0.20562395573E+02  0.34855373466E+02  0.50528864676E+02  0.30000014670E+02 0.  0.
         12    1    1    2    0    0  0.39314264776E+01 -0.20562395573E+02 -0.34855373466E+02  0.40659135324E+02  0.00000000000E+00 0. -1.
         11    1    3    3    0    0  0.58270350915E+01 -0.18934294107E+01  0.56097133626E+01  0.83071232784E+01  0.51100000000E-03 0. -1.
        -11    1    3    3    0    0 -0.26164310897E+01  0.27615680207E+01  0.18093308371E+02  0.18488909585E+02  0.51100000000E-03 0.  1.
        -12    1    3    3    0    0 -0.71420304794E+01  0.19694256963E+02  0.11152351732E+02  0.23732831813E+02  0.00000000000E+00 0.  1.
</event>
<event>
 7    1  0.2500839E-011  0.5052886E+02  0.7816164E-02  0.1300439E+00
        -11   -1    0    0    0    0  0.00000000000E+00  0.00000000000E+00  0.45593999997E+02  0.45594000000E+02  0.51100000000E-03 0.  1.
         11   -1    0    0    0    0 -0.00000000000E+00 -0.00000000000E+00 -0.45593999997E+02  0.45594000000E+02  0.51100000000E-03 0. -1.
    9900012    2    1    2    0    0 -0.17913097040E+02  0.22587494223E+02  0.28672143242E+02  0.50528859098E+02  0.29999997713E+02 0.  0.
         12    1    1    2    0    0  0.17913097040E+02 -0.22587494223E+02 -0.28672143242E+02  0.40659140902E+02  0.00000000000E+00 0. -1.
         11    1    3    3    0    0  0.37579520819E+01 -0.94945881890E+00  0.42765830968E+01  0.57717275701E+01  0.51100000000E-03 0. -1.
        -11    1    3    3    0    0 -0.41764516018E+01  0.13320131623E+01 -0.30630250272E+01  0.53478154068E+01  0.51100000000E-03 0.  1.
        -12    1    3    3    0    0 -0.17494597521E+02  0.22204939879E+02  0.27458585172E+02  0.39409316121E+02  0.00000000000E+00 0.  1.
</event>
<event>
 7    1  0.2500839E-011  0.5052885E+02  0.7816164E-02  0.1300439E+00
        -11   -1    0    0    0    0  0.00000000000E+00  0.00000000000E+00  0.45593999997E+02  0.45594000000E+02  0.51100000000E-03 0.  1.
         11   -1    0    0    0    0 -0.00000000000E+00 -0.00000000000E+00 -0.45593999997E+02  0.45594000000E+02  0.51100000000E-03 0. -1.
    9900012    2    1    2    0    0 -0.32884279428E+01  0.40280223797E+02  0.44560763112E+01  0.50528846005E+02  0.29999957916E+02 0.  0.
         12    1    1    2    0    0  0.32884279428E+01 -0.40280223797E+02 -0.44560763112E+01  0.40659153995E+02  0.00000000000E+00 0. -1.
         11    1    3    3    0    0 -0.27913162501E+01 -0.13361242283E+01  0.33463249768E+00  0.31126602017E+01  0.51100000000E-03 0. -1.
        -11    1    3    3    0    0  0.66293213327E+01  0.19143715666E+01  0.58225982796E+00  0.69247199651E+01  0.51100000000E-03 0.  1.
        -12    1    3    3    0    0 -0.71264330254E+01  0.39701976459E+02  0.35391839855E+01  0.40491465838E+02  0.00000000000E+00 0.  1.
</event>
<event>
 7    1  0.2500839E-011  0.5052883E+02  0.7816164E-02  0.1300439E+00
        -11   -1    0    0    0    0  0.00000000000E+00  0.00000000000E+00  0.45593999997E+02  0.45594000000E+02  0.51100000000E-03 0.  1.
         11   -1    0    0    0    0 -0.00000000000E+00 -0.00000000000E+00 -0.45593999997E+02  0.45594000000E+02  0.51100000000E-03 0. -1.
    9900012    2    1    2    0    0  0.17744214793E+02  0.11801751744E+02  0.34627001560E+02  0.50528834491E+02  0.29999922919E+02 0.  0.
         12    1    1    2    0    0 -0.17744214793E+02 -0.11801751744E+02 -0.34627001560E+02  0.40659165509E+02  0.00000000000E+00 0. -1.
         11    1    3    3    0    0  0.10452494184E+02  0.39315794473E+01  0.67244990365E+01  0.13035752344E+02  0.51100000000E-03 0.  1.
        -11    1    3    3    0    0  0.99433437925E+01  0.66639422144E+00  0.15999463086E+01  0.10093264858E+02  0.51100000000E-03 0. -1.
         12    1    3    3    0    0 -0.26516231835E+01  0.72037780754E+01  0.26302556215E+02  0.27399817290E+02  0.00000000000E+00 0. -1.
</event>
<event>
 7    1  0.2500839E-011  0.5052888E+02  0.7816164E-02  0.1300439E+00
        -11   -1    0    0    0    0  0.00000000000E+00  0.00000000000E+00  0.45593999997E+02  0.45594000000E+02  0.51100000000E-03 0.  1.
         11   -1    0    0    0    0 -0.00000000000E+00 -0.00000000000E+00 -0.45593999997E+02  0.45594000000E+02  0.51100000000E-03 0. -1.
    9900012    2    1    2    0    0  0.25788567351E+02  0.31115503603E+02 -0.44653613743E+01  0.50528877744E+02  0.30000054390E+02 0.  0.
         12    1    1    2    0    0 -0.25788567351E+02 -0.31115503603E+02  0.44653613743E+01  0.40659122256E+02  0.00000000000E+00 0. -1.
         11    1    3    3    0    0  0.20388558949E+02  0.24433996415E+02  0.66696110851E+01  0.32514569490E+02  0.51100000000E-03 0.  1.
        -11    1    3    3    0    0  0.20845229365E+01 -0.21067688508E+01  0.55811330094E+00  0.30158251907E+01  0.51100000000E-03 0. -1.
         12    1    3    3    0    0  0.33154854651E+01  0.87882760387E+01 -0.11693085760E+02  0.14998483063E+02  0.00000000000E+00 0. -1.
</event>
<event>
 7    1  0.2500839E-011  0.5052886E+02  0.7816164E-02  0.1300439E+00
        -11   -1    0    0    0    0  0.00000000000E+00  0.00000000000E+00  0.45593999997E+02  0.45594000000E+02  0.51100000000E-03 0. -1.
         11   -1    0    0    0    0 -0.00000000000E+00 -0.00000000000E+00 -0.45593999997E+02  0.45594000000E+02  0.51100000000E-03 0.  1.
    9900012    2    1    2    0    0  0.14853950258E+02  0.11249738387E+02 -0.36138199360E+02  0.50528857055E+02  0.29999991505E+02 0.  0.
         12    1    1    2    0    0 -0.14853950258E+02 -0.11249738387E+02  0.36138199360E+02  0.40659142945E+02  0.00000000000E+00 0. -1.
         11    1    3    3    0    0  0.10491694405E+02 -0.13027083954E+01 -0.28580772598E+02  0.30473484592E+02  0.51100000000E-03 0.  1.
        -11    1    3    3    0    0  0.66760488796E+01  0.44172503490E+01  0.94732260130E+00  0.80609645615E+01  0.51100000000E-03 0. -1.
        -12    1    3    3    0    0 -0.23137930263E+01  0.81351964330E+01 -0.85047493633E+01  0.11994407901E+02  0.00000000000E+00 0.  1.
</event>
<event>
 7    1  0.2500839E-011  0.5052885E+02  0.7816164E-02  0.1300439E+00
        -11   -1    0    0    0    0  0.00000000000E+00  0.00000000000E+00  0.45593999997E+02  0.45594000000E+02  0.51100000000E-03 0. -1.
         11   -1    0    0    0    0 -0.00000000000E+00 -0.00000000000E+00 -0.45593999997E+02  0.45594000000E+02  0.51100000000E-03 0.  1.
    9900012    2    1    2    0    0  0.29241324896E+02 -0.28195959264E+02 -0.17603901647E+01  0.50528853747E+02  0.29999981449E+02 0.  0.
         12    1    1    2    0    0 -0.29241324896E+02  0.28195959264E+02  0.17603901647E+01  0.40659146253E+02  0.00000000000E+00 0. -1.
         11    1    3    3    0    0 -0.26357943244E+00 -0.28584111246E+01  0.44768134703E+01  0.53180680123E+01  0.51100000000E-03 0. -1.
        -11    1    3    3    0    0  0.24466419870E+01 -0.14634775524E+02 -0.62813326491E+01  0.16112661225E+02  0.51100000000E-03 0.  1.
        -12    1    3    3    0    0  0.27058262341E+02 -0.10702772616E+02  0.44129014153E-01  0.29098124509E+02  0.00000000000E+00 0.  1.
</event>
<event>
 7    1  0.2744594E-011  0.5052887E+02  0.7816164E-02  0.1300439E+00
        -11   -1    0    0    0    0  0.00000000000E+00  0.00000000000E+00  0.45593999997E+02  0.45594000000E+02  0.51100000000E-03 0. -1.
         11   -1    0    0    0    0 -0.00000000000E+00 -0.00000000000E+00 -0.45593999997E+02  0.45594000000E+02  0.51100000000E-03 0.  1.
    9900012    2    1    2    0    0 -0.23285917112E+02 -0.21513391340E+02 -0.25457902525E+02  0.50528871337E+02  0.30000034915E+02 0.  0.
         12    1    1    2    0    0  0.23285917112E+02  0.21513391340E+02  0.25457902525E+02  0.40659128663E+02  0.00000000000E+00 0. -1.
         11    1    3    3    0    0 -0.15613539117E+02 -0.91234853743E+01 -0.25325810014E+01  0.18260190468E+02  0.51100000000E-03 0. -1.
        -11    1    3    3    0    0  0.41244787840E+01 -0.16238856731E+01 -0.12910935998E+00  0.44345235829E+01  0.51100000000E-03 0.  1.
        -12    1    3    3    0    0 -0.11796856779E+02 -0.10766020292E+02 -0.22796212164E+02  0.27834157286E+02  0.00000000000E+00 0.  1.
</event>
<event>
 7    1  0.2500839E-011  0.5052886E+02  0.7816164E-02  0.1300439E+00
        -11   -1    0    0    0    0  0.00000000000E+00  0.00000000000E+00  0.45593999997E+02  0.45594000000E+02  0.51100000000E-03 0. -1.
         11   -1    0    0    0    0 -0.00000000000E+00 -0.00000000000E+00 -0.45593999997E+02  0.45594000000E+02  0.51100000000E-03 0.  1.
    9900012    2    1    2    0    0  0.24389930587E+01  0.29062712939E+02 -0.28329763003E+02  0.50528862745E+02  0.30000008798E+02 0.  0.
         12    1    1    2    0    0 -0.24389930587E+01 -0.29062712939E+02  0.28329763003E+02  0.40659137255E+02  0.00000000000E+00 0. -1.
         11    1    3    3    0    0 -0.71890326993E+00 -0.18819302766E+00 -0.31939765141E+01  0.32792872337E+01  0.51100000000E-03 0.  1.
        -11    1    3    3    0    0  0.93250813904E+01  0.29505116891E+02 -0.26712800646E+02  0.40878879440E+02  0.51100000000E-03 0. -1.
         12    1    3    3    0    0 -0.61671850618E+01 -0.25421092377E+00  0.15770141564E+01  0.63706960710E+01  0.00000000000E+00 0. -1.
</event>
