<event>
 7    1  0.2387817E-009  0.4778727E+02  0.7816164E-02  0.1312668E+00
        -11   -1    0    0    0    0  0.00000000000E+00  0.00000000000E+00  0.45593999997E+02  0.45594000000E+02  0.51100000000E-03 0.  1.
         11   -1    0    0    0    0 -0.00000000000E+00 -0.00000000000E+00 -0.45593999997E+02  0.45594000000E+02  0.51100000000E-03 0. -1.
    9900012    2    1    2    0    0  0.41778375107E+02  0.76901052347E+01  0.88911686196E+01  0.47787271613E+02  0.20000002593E+02 0.  0.
         12    1    1    2    0    0 -0.41778375107E+02 -0.76901052347E+01 -0.88911686196E+01  0.43400728387E+02  0.00000000000E+00 0. -1.
         11    1    3    3    0    0  0.49487244956E+01 -0.26035059560E+01 -0.23937603344E+01  0.60826150787E+01  0.51100000000E-03 0. -1.
        -11    1    3    3    0    0  0.14426197999E+02  0.20441083627E+01 -0.14573052259E+01  0.14642995134E+02  0.51100000000E-03 0.  1.
        -12    1    3    3    0    0  0.22403452612E+02  0.82495028279E+01  0.12742234180E+02  0.27061661400E+02  0.00000000000E+00 0.  1.
</event>
<event>
 7    1  0.2387817E-009  0.4778727E+02  0.7816164E-02  0.1312668E+00
        -11   -1    0    0    0    0  0.00000000000E+00  0.00000000000E+00  0.45593999997E+02  0.45594000000E+02  0.51100000000E-03 0.  1.
         11   -1    0    0    0    0 -0.00000000000E+00 -0.00000000000E+00 -0.45593999997E+02  0.45594000000E+02  0.51100000000E-03 0. -1.
    9900012    2    1    2    0    0  0.33854497027E+02  0.53284000007E+01  0.26629017698E+02  0.47787269602E+02  0.19999993422E+02 0.  0.
         12    1    1    2    0    0 -0.33854497027E+02 -0.53284000007E+01 -0.26629017698E+02  0.43400730398E+02  0.00000000000E+00 0. -1.
         11    1    3    3    0    0  0.77497285184E+01  0.11940017788E+00 -0.22810360686E+01  0.80793362549E+01  0.51100000000E-03 0. -1.
        -11    1    3    3    0    0  0.87661316724E+00  0.14060609211E+01  0.12309670719E+01  0.20641555542E+01  0.51100000000E-03 0.  1.
        -12    1    3    3    0    0  0.25228155341E+02  0.38029389018E+01  0.27679086695E+02  0.37643777793E+02  0.00000000000E+00 0.  1.
</event>
<event>
 7    1  0.2387817E-009  0.4778727E+02  0.7816164E-02  0.1312668E+00
        -11   -1    0    0    0    0  0.00000000000E+00  0.00000000000E+00  0.45593999997E+02  0.45594000000E+02  0.51100000000E-03 0.  1.
         11   -1    0    0    0    0 -0.00000000000E+00 -0.00000000000E+00 -0.45593999997E+02  0.45594000000E+02  0.51100000000E-03 0. -1.
    9900012    2    1    2    0    0 -0.41786595393E+02  0.17445522563E+01  0.11595699198E+02  0.47787271239E+02  0.20000000887E+02 0.  0.
         12    1    1    2    0    0  0.41786595393E+02 -0.17445522563E+01 -0.11595699198E+02  0.43400728761E+02  0.00000000000E+00 0. -1.
         11    1    3    3    0    0 -0.82893165342E+01  0.88979851758E+00  0.23577092906E+01  0.86639080885E+01  0.51100000000E-03 0. -1.
        -11    1    3    3    0    0 -0.85891918102E+01 -0.38956102116E+01  0.10011850106E+02  0.13754531532E+02  0.51100000000E-03 0.  1.
         12    1    3    3    0    0 -0.24908087048E+02  0.47503639503E+01 -0.77386019834E+00  0.25368831618E+02  0.00000000000E+00 0. -1.
</event>
<event>
 7    1  0.2387817E-009  0.4778726E+02  0.7816164E-02  0.1312668E+00
        -11   -1    0    0    0    0  0.00000000000E+00  0.00000000000E+00  0.45593999997E+02  0.45594000000E+02  0.51100000000E-03 0.  1.
         11   -1    0    0    0    0 -0.00000000000E+00 -0.00000000000E+00 -0.45593999997E+02  0.45594000000E+02  0.51100000000E-03 0. -1.
    9900012    2    1    2    0    0  0.29852309650E+02  0.30652230880E+02 -0.72735712949E+01  0.47787257049E+02  0.19999936188E+02 0.  0.
         12    1    1    2    0    0 -0.29852309650E+02 -0.30652230880E+02  0.72735712949E+01  0.43400742951E+02  0.00000000000E+00 0. -1.
         11    1    3    3    0    0 -0.15950316863E+01  0.14301839763E+01 -0.64222237509E+00  0.22365156218E+01  0.51100000000E-03 0. -1.
        -11    1    3    3    0    0  0.11959869434E+02  0.20253315558E+02 -0.20126837892E+01  0.23606909249E+02  0.51100000000E-03 0.  1.
         12    1    3    3    0    0  0.19487471902E+02  0.89687313453E+01 -0.46186651306E+01  0.21943832178E+02  0.00000000000E+00 0. -1.
</event>
<event>
 7    1  0.2387817E-009  0.4778727E+02  0.7816164E-02  0.1312668E+00
        -11   -1    0    0    0    0  0.00000000000E+00  0.00000000000E+00  0.45593999997E+02  0.45594000000E+02  0.51100000000E-03 0.  1.
         11   -1    0    0    0    0 -0.00000000000E+00 -0.00000000000E+00 -0.45593999997E+02  0.45594000000E+02  0.51100000000E-03 0. -1.
    9900012    2    1    2    0    0  0.25548033484E+02  0.29951898170E+02  0.18270340522E+02  0.47787267729E+02  0.19999984884E+02 0.  0.
         12    1    1    2    0    0 -0.25548033484E+02 -0.29951898170E+02 -0.18270340522E+02  0.43400732271E+02  0.00000000000E+00 0. -1.
         11    1    3    3    0    0  0.10050686901E+02  0.15648580329E+02  0.80678437307E+01  0.20272752064E+02  0.51100000000E-03 0. -1.
        -11    1    3    3    0    0 -0.10833357620E+01  0.65523471673E+01  0.54848410904E+01  0.86133821361E+01  0.51100000000E-03 0.  1.
         12    1    3    3    0    0  0.16580682344E+02  0.77509706732E+01  0.47176557011E+01  0.18901133529E+02  0.00000000000E+00 0. -1.
</event>
<event>
 7    1  0.2387817E-009  0.4778726E+02  0.7816164E-02  0.1312668E+00
        -11   -1    0    0    0    0  0.00000000000E+00  0.00000000000E+00  0.45593999997E+02  0.45594000000E+02  0.51100000000E-03 0.  1.
         11   -1    0    0    0    0 -0.00000000000E+00 -0.00000000000E+00 -0.45593999997E+02  0.45594000000E+02  0.51100000000E-03 0. -1.
    9900012    2    1    2    0    0  0.27700861453E+02 -0.31539935330E+02 -0.11023554566E+02  0.47787262666E+02  0.19999961801E+02 0.  0.
         12    1    1    2    0    0 -0.27700861453E+02  0.31539935330E+02  0.11023554566E+02  0.43400737334E+02  0.00000000000E+00 0. -1.
         11    1    3    3    0    0 -0.11592399012E+01 -0.74076089195E+01 -0.46972255701E+01  0.88476231480E+01  0.51100000000E-03 0.  1.
        -11    1    3    3    0    0  0.16457486134E+02 -0.17464833893E+02 -0.64829924803E+01  0.24857563527E+02  0.51100000000E-03 0. -1.
        -12    1    3    3    0    0  0.12402615220E+02 -0.66674925171E+01  0.15666348433E+00  0.14082075991E+02  0.00000000000E+00 0.  1.
</event>
<event>
 7    1  0.2387817E-009  0.4778727E+02  0.7816164E-02  0.1312668E+00
        -11   -1    0    0    0    0  0.00000000000E+00  0.00000000000E+00  0.45593999997E+02  0.45594000000E+02  0.51100000000E-03 0.  1.
         11   -1    0    0    0    0 -0.00000000000E+00 -0.00000000000E+00 -0.45593999997E+02  0.45594000000E+02  0.51100000000E-03 0. -1.
    9900012    2    1    2    0    0  0.31507922414E+02 -0.27574615615E+02 -0.11424298006E+02  0.47787272056E+02  0.20000004613E+02 0.  0.
         12    1    1    2    0    0 -0.31507922414E+02  0.27574615615E+02  0.11424298006E+02  0.43400727944E+02  0.00000000000E+00 0. -1.
         11    1    3    3    0    0  0.13541935619E+01 -0.44250125330E+01 -0.13354433475E+01  0.48164286889E+01  0.51100000000E-03 0. -1.
        -11    1    3    3    0    0  0.90716376782E+01 -0.33641007378E+00 -0.75451022191E+01  0.11804081907E+02  0.51100000000E-03 0.  1.
        -12    1    3    3    0    0  0.21082091174E+02 -0.22813193008E+02 -0.25437524389E+01  0.31166761461E+02  0.00000000000E+00 0.  1.
</event>
<event>
 7    1  0.2387817E-009  0.4778724E+02  0.7816164E-02  0.1312668E+00
        -11   -1    0    0    0    0  0.00000000000E+00  0.00000000000E+00  0.45593999997E+02  0.45594000000E+02  0.51100000000E-03 0.  1.
         11   -1    0    0    0    0 -0.00000000000E+00 -0.00000000000E+00 -0.45593999997E+02  0.45594000000E+02  0.51100000000E-03 0. -1.
    9900012    2    1    2    0    0 -0.20775498414E+02 -0.10010227837E+02  0.36766833668E+02  0.47787239019E+02  0.19999853983E+02 0.  0.
         12    1    1    2    0    0  0.20775498414E+02  0.10010227837E+02 -0.36766833668E+02  0.43400760981E+02  0.00000000000E+00 0. -1.
         11    1    3    3    0    0 -0.10990691711E+02 -0.23030765912E+01  0.66588509798E+01  0.13055258048E+02  0.51100000000E-03 0. -1.
        -11    1    3    3    0    0 -0.25127153376E+01 -0.33860720262E+01  0.88379109445E+00  0.43081677189E+01  0.51100000000E-03 0.  1.
        -12    1    3    3    0    0 -0.72720913654E+01 -0.43210792200E+01  0.29224191594E+02  0.30423813252E+02  0.00000000000E+00 0.  1.
</event>
<event>
 7    1  0.2387817E-009  0.4778727E+02  0.7816164E-02  0.1312668E+00
        -11   -1    0    0    0    0  0.00000000000E+00  0.00000000000E+00  0.45593999997E+02  0.45594000000E+02  0.51100000000E-03 0.  1.
         11   -1    0    0    0    0 -0.00000000000E+00 -0.00000000000E+00 -0.45593999997E+02  0.45594000000E+02  0.51100000000E-03 0. -1.
    9900012    2    1    2    0    0 -0.19845022934E+01 -0.15951992853E+02  0.40314004901E+02  0.47787270553E+02  0.19999997760E+02 0.  0.
         12    1    1    2    0    0  0.19845022934E+01  0.15951992853E+02 -0.40314004901E+02  0.43400729447E+02  0.00000000000E+00 0. -1.
         11    1    3    3    0    0 -0.24336429304E+01 -0.39434397029E+01  0.83259007803E+01  0.95285863940E+01  0.51100000000E-03 0. -1.
        -11    1    3    3    0    0 -0.32731292961E+01  0.28165647527E+01  0.23622458268E+01  0.49220542462E+01  0.51100000000E-03 0.  1.
         12    1    3    3    0    0  0.37222699331E+01 -0.14825117903E+02  0.29625858294E+02  0.33336629913E+02  0.00000000000E+00 0. -1.
</event>
<event>
 7    1  0.2387817E-009  0.4778727E+02  0.7816164E-02  0.1312668E+00
        -11   -1    0    0    0    0  0.00000000000E+00  0.00000000000E+00  0.45593999997E+02  0.45594000000E+02  0.51100000000E-03 0. -1.
         11   -1    0    0    0    0 -0.00000000000E+00 -0.00000000000E+00 -0.45593999997E+02  0.45594000000E+02  0.51100000000E-03 0.  1.
    9900012    2    1    2    0    0  0.17501074302E+02  0.32981730985E+02 -0.22125575249E+02  0.47787271197E+02  0.20000000696E+02 0.  0.
         12    1    1    2    0    0 -0.17501074302E+02 -0.32981730985E+02  0.22125575249E+02  0.43400728803E+02  0.00000000000E+00 0. -1.
         11    1    3    3    0    0 -0.27035451720E+01  0.15969762737E+01  0.24342008117E+00  0.31494036440E+01  0.51100000000E-03 0. -1.
        -11    1    3    3    0    0  0.78353879347E+01  0.45099123777E+01 -0.54823068117E+01  0.10572998722E+02  0.51100000000E-03 0.  1.
        -12    1    3    3    0    0  0.12369231539E+02  0.26874842334E+02 -0.16886688519E+02  0.34064868831E+02  0.00000000000E+00 0.  1.
</event>
<event>
 7    1  0.2387817E-009  0.4778727E+02  0.7816164E-02  0.1312668E+00
        -11   -1    0    0    0    0  0.00000000000E+00  0.00000000000E+00  0.45593999997E+02  0.45594000000E+02  0.51100000000E-03 0.  1.
         11   -1    0    0    0    0 -0.00000000000E+00 -0.00000000000E+00 -0.45593999997E+02  0.45594000000E+02  0.51100000000E-03 0. -1.
    9900012    2    1    2    0    0  0.32407035068E+02  0.25860186559E+02 -0.12831930871E+02  0.47787267050E+02  0.19999981786E+02 0.  0.
         12    1    1    2    0    0 -0.32407035068E+02 -0.25860186559E+02  0.12831930871E+02  0.43400732950E+02  0.00000000000E+00 0. -1.
         11    1    3    3    0    0  0.21165003668E+01  0.33186935818E+00 -0.65978819939E+00  0.22416582708E+01  0.51100000000E-03 0. -1.
        -11    1    3    3    0    0  0.27382499266E+02  0.13793231452E+02 -0.13263923787E+02  0.33406379248E+02  0.51100000000E-03 0.  1.
        -12    1    3    3    0    0  0.29080354352E+01  0.11735085748E+02  0.10917811148E+01  0.12139229531E+02  0.00000000000E+00 0.  1.
</event>
<event>
 7    1  0.2517421E-009  0.4778727E+02  0.7816164E-02  0.1312668E+00
        -11   -1    0    0    0    0  0.00000000000E+00  0.00000000000E+00  0.45593999997E+02  0.45594000000E+02  0.51100000000E-03 0.  1.
         11   -1    0    0    0    0 -0.00000000000E+00 -0.00000000000E+00 -0.45593999997E+02  0.45594000000E+02  0.51100000000E-03 0. -1.
    9900012    2    1    2    0    0 -0.29838415418E+02 -0.10773345050E+02  0.29618029210E+02  0.47787266683E+02  0.19999980112E+02 0.  0.
         12    1    1    2    0    0  0.29838415418E+02  0.10773345050E+02 -0.29618029210E+02  0.43400733317E+02  0.00000000000E+00 0. -1.
         11    1    3    3    0    0 -0.38414078029E+01  0.54679370855E+01  0.45194245994E+01  0.80672144418E+01  0.51100000000E-03 0. -1.
        -11    1    3    3    0    0 -0.70025255948E+01 -0.43705756409E+01  0.84409970860E+01  0.11806258010E+02  0.51100000000E-03 0.  1.
         12    1    3    3    0    0 -0.18994482020E+02 -0.11870706495E+02  0.16657607524E+02  0.27913794230E+02  0.00000000000E+00 0. -1.
</event>
<event>
 7    1  0.2387817E-009  0.4778727E+02  0.7816164E-02  0.1312668E+00
        -11   -1    0    0    0    0  0.00000000000E+00  0.00000000000E+00  0.45593999997E+02  0.45594000000E+02  0.51100000000E-03 0.  1.
         11   -1    0    0    0    0 -0.00000000000E+00 -0.00000000000E+00 -0.45593999997E+02  0.45594000000E+02  0.51100000000E-03 0. -1.
    9900012    2    1    2    0    0 -0.77810213605E+01 -0.38055572360E+02  0.19361108589E+02  0.47787269512E+02  0.19999993014E+02 0.  0.
         12    1    1    2    0    0  0.77810213605E+01  0.38055572360E+02 -0.19361108589E+02  0.43400730488E+02  0.00000000000E+00 0. -1.
         11    1    3    3    0    0 -0.28304002164E+01 -0.13282959275E+02  0.14812943457E+01  0.13661713131E+02  0.51100000000E-03 0. -1.
        -11    1    3    3    0    0  0.43502090951E+01 -0.14546302601E+02  0.82585997605E+01  0.17283625453E+02  0.51100000000E-03 0.  1.
        -12    1    3    3    0    0 -0.93008302393E+01 -0.10226310484E+02  0.96212144831E+01  0.16841930928E+02  0.00000000000E+00 0.  1.
</event>
<event>
 7    1  0.2387817E-009  0.4778727E+02  0.7816164E-02  0.1312668E+00
        -11   -1    0    0    0    0  0.00000000000E+00  0.00000000000E+00  0.45593999997E+02  0.45594000000E+02  0.51100000000E-03 0.  1.
         11   -1    0    0    0    0 -0.00000000000E+00 -0.00000000000E+00 -0.45593999997E+02  0.45594000000E+02  0.51100000000E-03 0. -1.
    9900012    2    1    2    0    0  0.29998122683E+02 -0.19228934621E+02  0.24778701664E+02  0.47787270199E+02  0.19999996143E+02 0.  0.
         12    1    1    2    0    0 -0.29998122683E+02  0.19228934621E+02 -0.24778701664E+02  0.43400729801E+02  0.00000000000E+00 0. -1.
         11    1    3    3    0    0  0.52166742170E+01  0.83829121143E+00  0.45466039461E+01  0.69705114408E+01  0.51100000000E-03 0. -1.
        -11    1    3    3    0    0  0.13734997793E+02 -0.16550473802E+01  0.61539445884E+01  0.15141346719E+02  0.51100000000E-03 0.  1.
         12    1    3    3    0    0  0.11046450672E+02 -0.18412178452E+02  0.14078153130E+02  0.25675412038E+02  0.00000000000E+00 0. -1.
</event>
<event>
 7    1  0.2387817E-009  0.4778727E+02  0.7816164E-02  0.1312668E+00
        -11   -1    0    0    0    0  0.00000000000E+00  0.00000000000E+00  0.45593999997E+02  0.45594000000E+02  0.51100000000E-03 0.  1.
         11   -1    0    0    0    0 -0.00000000000E+00 -0.00000000000E+00 -0.45593999997E+02  0.45594000000E+02  0.51100000000E-03 0. -1.
    9900012    2    1    2    0    0  0.39555309827E+02  0.11534740505E+02  0.13636356742E+02  0.47787274208E+02  0.20000014426E+02 0.  0.
         12    1    1    2    0    0 -0.39555309827E+02 -0.11534740505E+02 -0.13636356742E+02  0.43400725792E+02  0.00000000000E+00 0. -1.
         11    1    3    3    0    0  0.84281540738E+01 -0.31784961766E+01  0.19023091741E+01  0.92062695752E+01  0.51100000000E-03 0.  1.
        -11    1    3    3    0    0  0.46880142823E+01 -0.17221781504E+01  0.42619664927E+01  0.65656480365E+01  0.51100000000E-03 0. -1.
         12    1    3    3    0    0  0.26439141471E+02  0.16435414832E+02  0.74720810756E+01  0.32015356597E+02  0.00000000000E+00 0. -1.
</event>
<event>
 7    1  0.2387817E-009  0.4778727E+02  0.7816164E-02  0.1312668E+00
        -11   -1    0    0    0    0  0.00000000000E+00  0.00000000000E+00  0.45593999997E+02  0.45594000000E+02  0.51100000000E-03 0.  1.
         11   -1    0    0    0    0 -0.00000000000E+00 -0.00000000000E+00 -0.45593999997E+02  0.45594000000E+02  0.51100000000E-03 0. -1.
    9900012    2    1    2    0    0  0.29015208755E+02  0.30096710581E+02  0.11658860689E+02  0.47787270059E+02  0.19999995506E+02 0.  0.
         12    1    1    2    0    0 -0.29015208755E+02 -0.30096710581E+02 -0.11658860689E+02  0.43400729941E+02  0.00000000000E+00 0. -1.
         11    1    3    3    0    0  0.57389721063E+00  0.20248609306E+01  0.35104323963E+01  0.40929885984E+01  0.51100000000E-03 0. -1.
        -11    1    3    3    0    0  0.69478516562E+01  0.13363857941E+02  0.91633520500E+01  0.17630438530E+02  0.51100000000E-03 0.  1.
        -12    1    3    3    0    0  0.21493459888E+02  0.14707991709E+02 -0.10149237570E+01  0.26063842930E+02  0.00000000000E+00 0.  1.
</event>
<event>
 7    1  0.2387817E-009  0.4778727E+02  0.7816164E-02  0.1312668E+00
        -11   -1    0    0    0    0  0.00000000000E+00  0.00000000000E+00  0.45593999997E+02  0.45594000000E+02  0.51100000000E-03 0.  1.
         11   -1    0    0    0    0 -0.00000000000E+00 -0.00000000000E+00 -0.45593999997E+02  0.45594000000E+02  0.51100000000E-03 0. -1.
    9900012    2    1    2    0    0  0.25585087595E+02 -0.30476696994E+02 -0.17326212180E+02  0.47787269645E+02  0.19999993617E+02 0.  0.
         12    1    1    2    0    0 -0.25585087595E+02  0.30476696994E+02  0.17326212180E+02  0.43400730355E+02  0.00000000000E+00 0. -1.
         11    1    3    3    0    0  0.84685732016E+01 -0.57641698861E+01 -0.13811206301E+02  0.17195691504E+02  0.51100000000E-03 0. -1.
        -11    1    3    3    0    0  0.10322544512E+02 -0.17142477808E+02 -0.40080018150E+01  0.20407928592E+02  0.51100000000E-03 0.  1.
        -12    1    3    3    0    0  0.67939698816E+01 -0.75700492993E+01  0.49299593584E+00  0.10183649549E+02  0.00000000000E+00 0.  1.
</event>
<event>
 7    1  0.2387817E-009  0.4778727E+02  0.7816164E-02  0.1312668E+00
        -11   -1    0    0    0    0  0.00000000000E+00  0.00000000000E+00  0.45593999997E+02  0.45594000000E+02  0.51100000000E-03 0. -1.
         11   -1    0    0    0    0 -0.00000000000E+00 -0.00000000000E+00 -0.45593999997E+02  0.45594000000E+02  0.51100000000E-03 0.  1.
    9900012    2    1    2    0    0  0.22529174316E+02  0.12864003613E+02 -0.34793344541E+02  0.47787272948E+02  0.20000008677E+02 0.  0.
         12    1    1    2    0    0 -0.22529174316E+02 -0.12864003613E+02  0.34793344541E+02  0.43400727052E+02  0.00000000000E+00 0. -1.
         11    1    3    3    0    0  0.52619148456E+01  0.28882120683E+01 -0.46321801305E+01  0.75819924701E+01  0.51100000000E-03 0. -1.
        -11    1    3    3    0    0  0.14980310660E+02  0.85252348834E+01 -0.32394772582E+02  0.36694831083E+02  0.51100000000E-03 0.  1.
         12    1    3    3    0    0  0.22869488109E+01  0.14505566609E+01  0.22336081714E+01  0.35104493948E+01  0.00000000000E+00 0. -1.
</event>
<event>
 7    1  0.2387817E-009  0.4778727E+02  0.7816164E-02  0.1312668E+00
        -11   -1    0    0    0    0  0.00000000000E+00  0.00000000000E+00  0.45593999997E+02  0.45594000000E+02  0.51100000000E-03 0.  1.
         11   -1    0    0    0    0 -0.00000000000E+00 -0.00000000000E+00 -0.45593999997E+02  0.45594000000E+02  0.51100000000E-03 0. -1.
    9900012    2    1    2    0    0 -0.17706048315E+02  0.20766959061E+02  0.33746890818E+02  0.47787269874E+02  0.19999994663E+02 0.  0.
         12    1    1    2    0    0  0.17706048315E+02 -0.20766959061E+02 -0.33746890818E+02  0.43400730126E+02  0.00000000000E+00 0. -1.
         11    1    3    3    0    0  0.15498182729E+01  0.58072007141E+01  0.19007448682E+01  0.63038359852E+01  0.51100000000E-03 0. -1.
        -11    1    3    3    0    0 -0.82333436027E+01  0.12138746997E+02  0.13732072877E+02  0.20092460061E+02  0.51100000000E-03 0.  1.
        -12    1    3    3    0    0 -0.11022522985E+02  0.28210113497E+01  0.18114073073E+02  0.21390973828E+02  0.00000000000E+00 0.  1.
</event>
<event>
 7    1  0.2387817E-009  0.4778724E+02  0.7816164E-02  0.1312668E+00
        -11   -1    0    0    0    0  0.00000000000E+00  0.00000000000E+00  0.45593999997E+02  0.45594000000E+02  0.51100000000E-03 0. -1.
         11   -1    0    0    0    0 -0.00000000000E+00 -0.00000000000E+00 -0.45593999997E+02  0.45594000000E+02  0.51100000000E-03 0.  1.
    9900012    2    1    2    0    0  0.20925012841E+02 -0.14621409870E+02 -0.35099628001E+02  0.47787243385E+02  0.19999873888E+02 0.  0.
         12    1    1    2    0    0 -0.20925012841E+02  0.14621409870E+02  0.35099628001E+02  0.43400756615E+02  0.00000000000E+00 0. -1.
         11    1    3    3    0    0  0.86956319174E+01 -0.67903894120E+01 -0.59008998566E+01  0.12511755360E+02  0.51100000000E-03 0. -1.
        -11    1    3    3    0    0  0.87404329823E+01 -0.11675244405E+02 -0.22181569370E+02  0.26546723350E+02  0.51100000000E-03 0.  1.
        -12    1    3    3    0    0  0.34889479414E+01  0.38442239468E+01 -0.70171587741E+01  0.87287646750E+01  0.00000000000E+00 0.  1.
</event>
<event>
 7    1  0.2387817E-009  0.4778727E+02  0.7816164E-02  0.1312668E+00
        -11   -1    0    0    0    0  0.00000000000E+00  0.00000000000E+00  0.45593999997E+02  0.45594000000E+02  0.51100000000E-03 0.  1.
         11   -1    0    0    0    0 -0.00000000000E+00 -0.00000000000E+00 -0.45593999997E+02  0.45594000000E+02  0.51100000000E-03 0. -1.
    9900012    2    1    2    0    0 -0.29007818655E+02  0.32080310912E+02  0.36088263300E+01  0.47787268223E+02  0.19999987135E+02 0.  0.
         12    1    1    2    0    0  0.29007818655E+02 -0.32080310912E+02 -0.36088263300E+01  0.43400731777E+02  0.00000000000E+00 0. -1.
         11    1    3    3    0    0 -0.11006505965E+02  0.20856761546E+02 -0.42398693981E+00  0.23586594518E+02  0.51100000000E-03 0. -1.
        -11    1    3    3    0    0 -0.66043049185E+01  0.61715614059E+01 -0.34336094125E+01  0.96692650962E+01  0.51100000000E-03 0.  1.
         12    1    3    3    0    0 -0.11397007771E+02  0.50519879597E+01  0.74664226823E+01  0.14531408609E+02  0.00000000000E+00 0. -1.
</event>
<event>
 7    1  0.2387817E-009  0.4778728E+02  0.7816164E-02  0.1312668E+00
        -11   -1    0    0    0    0  0.00000000000E+00  0.00000000000E+00  0.45593999997E+02  0.45594000000E+02  0.51100000000E-03 0. -1.
         11   -1    0    0    0    0 -0.00000000000E+00 -0.00000000000E+00 -0.45593999997E+02  0.45594000000E+02  0.51100000000E-03 0.  1.
    9900012    2    1    2    0    0  0.42912585313E+02  0.64386510051E+01 -0.82237689253E+00  0.47787279859E+02  0.20000040188E+02 0.  0.
         12    1    1    2    0    0 -0.42912585313E+02 -0.64386510051E+01  0.82237689253E+00  0.43400720141E+02  0.00000000000E+00 0. -1.
         11    1    3    3    0    0  0.15461029979E+01  0.23199861904E+01  0.27340662692E+00  0.28013428652E+01  0.51100000000E-03 0. -1.
        -11    1    3    3    0    0  0.35766584655E+02  0.43644420718E+01 -0.71509350422E+01  0.36734626781E+02  0.51100000000E-03 0.  1.
         12    1    3    3    0    0  0.55998976603E+01 -0.24577725712E+00  0.60551515227E+01  0.82513102128E+01  0.00000000000E+00 0. -1.
</event>
<event>
 7    1  0.2387817E-009  0.4778727E+02  0.7816164E-02  0.1312668E+00
        -11   -1    0    0    0    0  0.00000000000E+00  0.00000000000E+00  0.45593999997E+02  0.45594000000E+02  0.51100000000E-03 0.  1.
         11   -1    0    0    0    0 -0.00000000000E+00 -0.00000000000E+00 -0.45593999997E+02  0.45594000000E+02  0.51100000000E-03 0. -1.
    9900012    2    1    2    0    0  0.12351497256E+02 -0.23156300531E+02  0.34566598556E+02  0.47787268734E+02  0.19999989466E+02 0.  0.
         12    1    1    2    0    0 -0.12351497256E+02  0.23156300531E+02 -0.34566598556E+02  0.43400731266E+02  0.00000000000E+00 0. -1.
         11    1    3    3    0    0 -0.66989939014E+00 -0.67686308250E+00  0.18145603450E+01  0.20492775147E+01  0.51100000000E-03 0. -1.
        -11    1    3    3    0    0  0.11024276139E+02 -0.19117068201E+02  0.34888269381E+02  0.41281815630E+02  0.51100000000E-03 0.  1.
         12    1    3    3    0    0  0.19971205071E+01 -0.33623692468E+01 -0.21362311707E+01  0.44561755897E+01  0.00000000000E+00 0. -1.
</event>
<event>
 7    1  0.2387817E-009  0.4778727E+02  0.7816164E-02  0.1312668E+00
        -11   -1    0    0    0    0  0.00000000000E+00  0.00000000000E+00  0.45593999997E+02  0.45594000000E+02  0.51100000000E-03 0.  1.
         11   -1    0    0    0    0 -0.00000000000E+00 -0.00000000000E+00 -0.45593999997E+02  0.45594000000E+02  0.51100000000E-03 0. -1.
    9900012    2    1    2    0    0  0.27040287360E+02  0.19724622231E+02  0.27629429827E+02  0.47787271259E+02  0.20000000979E+02 0.  0.
         12    1    1    2    0    0 -0.27040287360E+02 -0.19724622231E+02 -0.27629429827E+02  0.43400728741E+02  0.00000000000E+00 0. -1.
         11    1    3    3    0    0  0.17612596267E+02  0.13175922238E+02  0.24244894884E+02  0.32735659490E+02  0.51100000000E-03 0.  1.
        -11    1    3    3    0    0  0.93199179890E+01  0.30722455162E+01  0.52239269810E+01  0.11117057938E+02  0.51100000000E-03 0. -1.
        -12    1    3    3    0    0  0.10777310441E+00  0.34764544774E+01 -0.18393920384E+01  0.39345538307E+01  0.00000000000E+00 0.  1.
</event>
<event>
 7    1  0.2387817E-009  0.4778727E+02  0.7816164E-02  0.1312668E+00
        -11   -1    0    0    0    0  0.00000000000E+00  0.00000000000E+00  0.45593999997E+02  0.45594000000E+02  0.51100000000E-03 0.  1.
         11   -1    0    0    0    0 -0.00000000000E+00 -0.00000000000E+00 -0.45593999997E+02  0.45594000000E+02  0.51100000000E-03 0. -1.
    9900012    2    1    2    0    0  0.76086063787E+01  0.18580374972E+02  0.38477289729E+02  0.47787273624E+02  0.20000011760E+02 0.  0.
         12    1    1    2    0    0 -0.76086063787E+01 -0.18580374972E+02 -0.38477289729E+02  0.43400726376E+02  0.00000000000E+00 0. -1.
         11    1    3    3    0    0  0.31918956458E+01  0.62154798391E+01  0.64855945644E+01  0.95332745979E+01  0.51100000000E-03 0. -1.
        -11    1    3    3    0    0 -0.27198739454E+01  0.11131004120E+02  0.27345896486E+02  0.29649536622E+02  0.51100000000E-03 0.  1.
         12    1    3    3    0    0  0.71365846783E+01  0.12338910126E+01  0.46457986778E+01  0.86044624037E+01  0.00000000000E+00 0. -1.
</event>
<event>
 7    1  0.2387817E-009  0.4778727E+02  0.7816164E-02  0.1312668E+00
        -11   -1    0    0    0    0  0.00000000000E+00  0.00000000000E+00  0.45593999997E+02  0.45594000000E+02  0.51100000000E-03 0.  1.
         11   -1    0    0    0    0 -0.00000000000E+00 -0.00000000000E+00 -0.45593999997E+02  0.45594000000E+02  0.51100000000E-03 0. -1.
    9900012    2    1    2    0    0  0.42236911786E+02  0.48121694247E+00  0.99717268370E+01  0.47787267021E+02  0.19999981656E+02 0.  0.
         12    1    1    2    0    0 -0.42236911786E+02 -0.48121694247E+00 -0.99717268370E+01  0.43400732979E+02  0.00000000000E+00 0. -1.
         11    1    3    3    0    0  0.43526193800E+01  0.89840750603E+00 -0.14403359499E+01  0.46719374380E+01  0.51100000000E-03 0. -1.
        -11    1    3    3    0    0  0.36226031897E+02  0.13736637402E+01  0.54325153797E+01  0.36656848783E+02  0.51100000000E-03 0.  1.
         12    1    3    3    0    0  0.16582605092E+01 -0.17908543038E+01  0.59795474072E+01  0.64584808003E+01  0.00000000000E+00 0. -1.
</event>
<event>
 7    1  0.2387817E-009  0.4778726E+02  0.7816164E-02  0.1312668E+00
        -11   -1    0    0    0    0  0.00000000000E+00  0.00000000000E+00  0.45593999997E+02  0.45594000000E+02  0.51100000000E-03 0.  1.
         11   -1    0    0    0    0 -0.00000000000E+00 -0.00000000000E+00 -0.45593999997E+02  0.45594000000E+02  0.51100000000E-03 0. -1.
    9900012    2    1    2    0    0  0.12192498867E+02 -0.58653609934E+01  0.41237903775E+02  0.47787260422E+02  0.19999951567E+02 0.  0.
         12    1    1    2    0    0 -0.12192498867E+02  0.58653609934E+01 -0.41237903775E+02  0.43400739578E+02  0.00000000000E+00 0. -1.
         11    1    3    3    0    0 -0.18506572112E+01  0.75203020283E+00  0.11147333643E+02  0.11324907468E+02  0.51100000000E-03 0. -1.
        -11    1    3    3    0    0  0.19551110140E+01 -0.33092856371E+01 -0.24356045261E-01  0.38437512904E+01  0.51100000000E-03 0.  1.
         12    1    3    3    0    0  0.12088045064E+02 -0.33081055592E+01  0.30114926177E+02  0.32618601664E+02  0.00000000000E+00 0. -1.
</event>
<event>
 7    1  0.2387817E-009  0.4778727E+02  0.7816164E-02  0.1312668E+00
        -11   -1    0    0    0    0  0.00000000000E+00  0.00000000000E+00  0.45593999997E+02  0.45594000000E+02  0.51100000000E-03 0.  1.
         11   -1    0    0    0    0 -0.00000000000E+00 -0.00000000000E+00 -0.45593999997E+02  0.45594000000E+02  0.51100000000E-03 0. -1.
    9900012    2    1    2    0    0  0.84936353602E+01  0.71220238854E+01  0.41961394486E+02  0.47787266215E+02  0.19999977980E+02 0.  0.
         12    1    1    2    0    0 -0.84936353602E+01 -0.71220238854E+01 -0.41961394486E+02  0.43400733785E+02  0.00000000000E+00 0. -1.
         11    1    3    3    0    0 -0.89343043408E+00  0.76727427014E+01  0.49872328998E+01  0.91946555542E+01  0.51100000000E-03 0. -1.
        -11    1    3    3    0    0  0.27126607610E+01  0.62349805543E+00  0.36708754753E+01  0.46067998921E+01  0.51100000000E-03 0.  1.
        -12    1    3    3    0    0  0.66744050333E+01 -0.11742168715E+01  0.33303286111E+02  0.33985810769E+02  0.00000000000E+00 0.  1.
</event>
<event>
 7    1  0.2387817E-009  0.4778727E+02  0.7816164E-02  0.1312668E+00
        -11   -1    0    0    0    0  0.00000000000E+00  0.00000000000E+00  0.45593999997E+02  0.45594000000E+02  0.51100000000E-03 0. -1.
         11   -1    0    0    0    0 -0.00000000000E+00 -0.00000000000E+00 -0.45593999997E+02  0.45594000000E+02  0.51100000000E-03 0.  1.
    9900012    2    1    2    0    0  0.35363067989E+02  0.13738706134E+02  0.21079003279E+02  0.47787274164E+02  0.20000014223E+02 0.  0.
         12    1    1    2    0    0 -0.35363067989E+02 -0.13738706134E+02 -0.21079003279E+02  0.43400725836E+02  0.00000000000E+00 0. -1.
         11    1    3    3    0    0  0.16873983989E+02  0.79350638247E+01  0.13294587009E+02  0.22900712163E+02  0.51100000000E-03 0. -1.
        -11    1    3    3    0    0  0.19349235311E+01  0.64116625426E+01  0.42996685678E+01  0.79586742417E+01  0.51100000000E-03 0.  1.
        -12    1    3    3    0    0  0.16554160469E+02 -0.60802023312E+00  0.34847477022E+01  0.16927887759E+02  0.00000000000E+00 0.  1.
</event>
<event>
 7    1  0.2387817E-009  0.4778727E+02  0.7816164E-02  0.1312668E+00
        -11   -1    0    0    0    0  0.00000000000E+00  0.00000000000E+00  0.45593999997E+02  0.45594000000E+02  0.51100000000E-03 0.  1.
         11   -1    0    0    0    0 -0.00000000000E+00 -0.00000000000E+00 -0.45593999997E+02  0.45594000000E+02  0.51100000000E-03 0. -1.
    9900012    2    1    2    0    0  0.20672334903E+02 -0.29691024160E+02  0.23973338024E+02  0.47787270951E+02  0.19999999574E+02 0.  0.
         12    1    1    2    0    0 -0.20672334903E+02  0.29691024160E+02 -0.23973338024E+02  0.43400729049E+02  0.00000000000E+00 0. -1.
         11    1    3    3    0    0  0.40403219304E+01 -0.34308264761E+01  0.46444927920E+01  0.70474169144E+01  0.51100000000E-03 0. -1.
        -11    1    3    3    0    0  0.60204836437E+01 -0.17553468099E+02  0.20465185589E+01  0.18669726942E+02  0.51100000000E-03 0.  1.
        -12    1    3    3    0    0  0.10611529329E+02 -0.87067295845E+01  0.17282326673E+02  0.22070127095E+02  0.00000000000E+00 0.  1.
</event>
<event>
 7    1  0.2387817E-009  0.4778727E+02  0.7816164E-02  0.1312668E+00
        -11   -1    0    0    0    0  0.00000000000E+00  0.00000000000E+00  0.45593999997E+02  0.45594000000E+02  0.51100000000E-03 0. -1.
         11   -1    0    0    0    0 -0.00000000000E+00 -0.00000000000E+00 -0.45593999997E+02  0.45594000000E+02  0.51100000000E-03 0.  1.
    9900012    2    1    2    0    0 -0.22247617140E+02 -0.33358435017E+02 -0.16609677817E+02  0.47787273596E+02  0.20000011633E+02 0.  0.
         12    1    1    2    0    0  0.22247617140E+02  0.33358435017E+02  0.16609677817E+02  0.43400726404E+02  0.00000000000E+00 0. -1.
         11    1    3    3    0    0 -0.33256950135E+01 -0.55271875896E+00  0.27623462397E+01  0.43584747743E+01  0.51100000000E-03 0. -1.
        -11    1    3    3    0    0 -0.50226959793E+00 -0.35192217605E+01 -0.45904181945E+01  0.58059569419E+01  0.51100000000E-03 0.  1.
        -12    1    3    3    0    0 -0.18419652529E+02 -0.29286494498E+02 -0.14781605863E+02  0.37622841880E+02  0.00000000000E+00 0.  1.
</event>
<event>
 7    1  0.2387817E-009  0.4778727E+02  0.7816164E-02  0.1312668E+00
        -11   -1    0    0    0    0  0.00000000000E+00  0.00000000000E+00  0.45593999997E+02  0.45594000000E+02  0.51100000000E-03 0.  1.
         11   -1    0    0    0    0 -0.00000000000E+00 -0.00000000000E+00 -0.45593999997E+02  0.45594000000E+02  0.51100000000E-03 0. -1.
    9900012    2    1    2    0    0 -0.23762865659E+02  0.13686091844E+02  0.33639867142E+02  0.47787267799E+02  0.19999985201E+02 0.  0.
         12    1    1    2    0    0  0.23762865659E+02 -0.13686091844E+02 -0.33639867142E+02  0.43400732201E+02  0.00000000000E+00 0. -1.
         11    1    3    3    0    0 -0.26937641994E+01 -0.20613819484E+01  0.99748691295E+01  0.10535828183E+02  0.51100000000E-03 0. -1.
        -11    1    3    3    0    0 -0.11913709059E+02  0.82207614789E+01  0.20297855176E+02  0.24930309020E+02  0.51100000000E-03 0.  1.
         12    1    3    3    0    0 -0.91553924001E+01  0.75267123135E+01  0.33671428365E+01  0.12321130595E+02  0.00000000000E+00 0. -1.
</event>
<event>
 7    1  0.2387817E-009  0.4778727E+02  0.7816164E-02  0.1312668E+00
        -11   -1    0    0    0    0  0.00000000000E+00  0.00000000000E+00  0.45593999997E+02  0.45594000000E+02  0.51100000000E-03 0.  1.
         11   -1    0    0    0    0 -0.00000000000E+00 -0.00000000000E+00 -0.45593999997E+02  0.45594000000E+02  0.51100000000E-03 0. -1.
    9900012    2    1    2    0    0 -0.19860058548E+01  0.42587511605E+02  0.81230057731E+01  0.47787267440E+02  0.19999983565E+02 0.  0.
         12    1    1    2    0    0  0.19860058548E+01 -0.42587511605E+02 -0.81230057731E+01  0.43400732560E+02  0.00000000000E+00 0. -1.
         11    1    3    3    0    0  0.49817169836E+01  0.18570429992E+02  0.37052806652E+01  0.19580793632E+02  0.51100000000E-03 0. -1.
        -11    1    3    3    0    0  0.26704240565E+01  0.15043215513E+01  0.18573703648E+01  0.35838488953E+01  0.51100000000E-03 0.  1.
         12    1    3    3    0    0 -0.96381468950E+01  0.22512760062E+02  0.25603547430E+01  0.24622624913E+02  0.00000000000E+00 0. -1.
</event>
<event>
 7    1  0.2387817E-009  0.4778727E+02  0.7816164E-02  0.1312668E+00
        -11   -1    0    0    0    0  0.00000000000E+00  0.00000000000E+00  0.45593999997E+02  0.45594000000E+02  0.51100000000E-03 0. -1.
         11   -1    0    0    0    0 -0.00000000000E+00 -0.00000000000E+00 -0.45593999997E+02  0.45594000000E+02  0.51100000000E-03 0.  1.
    9900012    2    1    2    0    0 -0.68638598088E+01  0.41054631667E+02 -0.12289347294E+02  0.47787269480E+02  0.19999992866E+02 0.  0.
         12    1    1    2    0    0  0.68638598088E+01 -0.41054631667E+02  0.12289347294E+02  0.43400730520E+02  0.00000000000E+00 0. -1.
         11    1    3    3    0    0 -0.67173967476E+01  0.10214791351E+02  0.76601194209E-01  0.12225843505E+02  0.51100000000E-03 0. -1.
        -11    1    3    3    0    0  0.73701855022E+00  0.13963257164E+01  0.21937419567E+01  0.27028551354E+01  0.51100000000E-03 0.  1.
        -12    1    3    3    0    0 -0.88348161149E+00  0.29443514600E+02 -0.14559690445E+02  0.32858570839E+02  0.00000000000E+00 0.  1.
</event>
<event>
 7    1  0.2387817E-009  0.4778727E+02  0.7816164E-02  0.1312668E+00
        -11   -1    0    0    0    0  0.00000000000E+00  0.00000000000E+00  0.45593999997E+02  0.45594000000E+02  0.51100000000E-03 0. -1.
         11   -1    0    0    0    0 -0.00000000000E+00 -0.00000000000E+00 -0.45593999997E+02  0.45594000000E+02  0.51100000000E-03 0.  1.
    9900012    2    1    2    0    0  0.23285618486E+02 -0.11774011720E+02 -0.34681061479E+02  0.47787269527E+02  0.19999993081E+02 0.  0.
         12    1    1    2    0    0 -0.23285618486E+02  0.11774011720E+02  0.34681061479E+02  0.43400730473E+02  0.00000000000E+00 0. -1.
         11    1    3    3    0    0  0.42377763843E+01  0.86477912611E+00 -0.12378577716E+01  0.44987646909E+01  0.51100000000E-03 0. -1.
        -11    1    3    3    0    0  0.18761192248E+01 -0.57960020522E+01 -0.13306170824E+01  0.62357040673E+01  0.51100000000E-03 0.  1.
        -12    1    3    3    0    0  0.17171722877E+02 -0.68427887943E+01 -0.32112586625E+02  0.37052800769E+02  0.00000000000E+00 0.  1.
</event>
<event>
 7    1  0.2387817E-009  0.4778727E+02  0.7816164E-02  0.1312668E+00
        -11   -1    0    0    0    0  0.00000000000E+00  0.00000000000E+00  0.45593999997E+02  0.45594000000E+02  0.51100000000E-03 0.  1.
         11   -1    0    0    0    0 -0.00000000000E+00 -0.00000000000E+00 -0.45593999997E+02  0.45594000000E+02  0.51100000000E-03 0. -1.
    9900012    2    1    2    0    0 -0.94930197676E+01  0.68729843358E+01  0.41788375019E+02  0.47787267003E+02  0.19999981573E+02 0.  0.
         12    1    1    2    0    0  0.94930197676E+01 -0.68729843358E+01 -0.41788375019E+02  0.43400732997E+02  0.00000000000E+00 0. -1.
         11    1    3    3    0    0 -0.27803196992E+00 -0.49626957581E+01  0.32418895558E+01  0.59342648337E+01  0.51100000000E-03 0. -1.
        -11    1    3    3    0    0 -0.20642126526E+01  0.56833792426E+01  0.21901203598E+02  0.22720574218E+02  0.51100000000E-03 0.  1.
        -12    1    3    3    0    0 -0.71507751450E+01  0.61523008513E+01  0.16645281864E+02  0.19132427951E+02  0.00000000000E+00 0.  1.
</event>
<event>
 7    1  0.2387817E-009  0.4778727E+02  0.7816164E-02  0.1312668E+00
        -11   -1    0    0    0    0  0.00000000000E+00  0.00000000000E+00  0.45593999997E+02  0.45594000000E+02  0.51100000000E-03 0. -1.
         11   -1    0    0    0    0 -0.00000000000E+00 -0.00000000000E+00 -0.45593999997E+02  0.45594000000E+02  0.51100000000E-03 0.  1.
    9900012    2    1    2    0    0 -0.27389763047E+02 -0.28377043196E+02 -0.18115387865E+02  0.47787274455E+02  0.20000015551E+02 0.  0.
         12    1    1    2    0    0  0.27389763047E+02  0.28377043196E+02  0.18115387865E+02  0.43400725545E+02  0.00000000000E+00 0. -1.
         11    1    3    3    0    0 -0.25868957779E+01 -0.24193230983E+01  0.26429655899E+01  0.44193236349E+01  0.51100000000E-03 0. -1.
        -11    1    3    3    0    0 -0.20162410193E+01 -0.68032938081E+01 -0.87593342618E+01  0.11272797854E+02  0.51100000000E-03 0.  1.
        -12    1    3    3    0    0 -0.22786626250E+02 -0.19154426290E+02 -0.11999019193E+02  0.32095152966E+02  0.00000000000E+00 0.  1.
</event>
<event>
 7    1  0.2387817E-009  0.4778725E+02  0.7816164E-02  0.1312668E+00
        -11   -1    0    0    0    0  0.00000000000E+00  0.00000000000E+00  0.45593999997E+02  0.45594000000E+02  0.51100000000E-03 0. -1.
         11   -1    0    0    0    0 -0.00000000000E+00 -0.00000000000E+00 -0.45593999997E+02  0.45594000000E+02  0.51100000000E-03 0.  1.
    9900012    2    1    2    0    0  0.35044388173E+02  0.22882517317E+02 -0.11485064058E+02  0.47787246117E+02  0.19999886347E+02 0.  0.
         12    1    1    2    0    0 -0.35044388173E+02 -0.22882517317E+02  0.11485064058E+02  0.43400753883E+02  0.00000000000E+00 0. -1.
         11    1    3    3    0    0  0.40125292383E+01  0.84954296620E+01 -0.62980192634E+01  0.11310957649E+02  0.51100000000E-03 0. -1.
        -11    1    3    3    0    0  0.82102689365E+01  0.80079328316E+01 -0.56289584167E+01  0.12775784804E+02  0.51100000000E-03 0.  1.
        -12    1    3    3    0    0  0.22821589998E+02  0.63791548233E+01  0.44191362234E+00  0.23700503664E+02  0.00000000000E+00 0.  1.
</event>
<event>
 7    1  0.2387817E-009  0.4778727E+02  0.7816164E-02  0.1312668E+00
        -11   -1    0    0    0    0  0.00000000000E+00  0.00000000000E+00  0.45593999997E+02  0.45594000000E+02  0.51100000000E-03 0. -1.
         11   -1    0    0    0    0 -0.00000000000E+00 -0.00000000000E+00 -0.45593999997E+02  0.45594000000E+02  0.51100000000E-03 0.  1.
    9900012    2    1    2    0    0 -0.10720806686E+02 -0.27022723460E+02 -0.32225142802E+02  0.47787272958E+02  0.20000008725E+02 0.  0.
         12    1    1    2    0    0  0.10720806686E+02  0.27022723460E+02  0.32225142802E+02  0.43400727042E+02  0.00000000000E+00 0. -1.
         11    1    3    3    0    0 -0.17786518591E+01  0.18084510925E+01 -0.52522511418E+01  0.58326872116E+01  0.51100000000E-03 0. -1.
        -11    1    3    3    0    0 -0.88977760486E+01 -0.11978622485E+02 -0.15813047023E+02  0.21741901289E+02  0.51100000000E-03 0.  1.
        -12    1    3    3    0    0 -0.44378778226E-01 -0.16852552067E+02 -0.11159844638E+02  0.20212684458E+02  0.00000000000E+00 0.  1.
</event>
<event>
 7    1  0.2387817E-009  0.4778727E+02  0.7816164E-02  0.1312668E+00
        -11   -1    0    0    0    0  0.00000000000E+00  0.00000000000E+00  0.45593999997E+02  0.45594000000E+02  0.51100000000E-03 0.  1.
         11   -1    0    0    0    0 -0.00000000000E+00 -0.00000000000E+00 -0.45593999997E+02  0.45594000000E+02  0.51100000000E-03 0. -1.
    9900012    2    1    2    0    0  0.42396393172E+02  0.42546317470E+01  0.82502782208E+01  0.47787272632E+02  0.20000007240E+02 0.  0.
         12    1    1    2    0    0 -0.42396393172E+02 -0.42546317470E+01 -0.82502782208E+01  0.43400727368E+02  0.00000000000E+00 0. -1.
         11    1    3    3    0    0  0.24800741574E+02  0.52583258613E+00  0.11599868992E+01  0.24833422084E+02  0.51100000000E-03 0. -1.
        -11    1    3    3    0    0  0.15772803622E+02  0.13181187696E+01  0.65168009428E+00  0.15841194980E+02  0.51100000000E-03 0.  1.
         12    1    3    3    0    0  0.18228479760E+01  0.24106803912E+01  0.64386112273E+01  0.71126555680E+01  0.00000000000E+00 0. -1.
</event>
<event>
 7    1  0.2387817E-009  0.4778727E+02  0.7816164E-02  0.1312668E+00
        -11   -1    0    0    0    0  0.00000000000E+00  0.00000000000E+00  0.45593999997E+02  0.45594000000E+02  0.51100000000E-03 0. -1.
         11   -1    0    0    0    0 -0.00000000000E+00 -0.00000000000E+00 -0.45593999997E+02  0.45594000000E+02  0.51100000000E-03 0.  1.
    9900012    2    1    2    0    0 -0.37314651621E+02 -0.60447227679E+01 -0.21323721901E+02  0.47787274031E+02  0.20000013618E+02 0.  0.
         12    1    1    2    0    0  0.37314651621E+02  0.60447227679E+01  0.21323721901E+02  0.43400725969E+02  0.00000000000E+00 0. -1.
         11    1    3    3    0    0 -0.90760896790E+01  0.47445261065E+01 -0.76530412233E+01  0.12784951000E+02  0.51100000000E-03 0. -1.
        -11    1    3    3    0    0 -0.92216803943E+01  0.12953172169E+01 -0.16253524327E+01  0.94529893038E+01  0.51100000000E-03 0.  1.
         12    1    3    3    0    0 -0.19016881547E+02 -0.12084566091E+02 -0.12045328245E+02  0.25549333728E+02  0.00000000000E+00 0. -1.
</event>
<event>
 7    1  0.2387817E-009  0.4778727E+02  0.7816164E-02  0.1312668E+00
        -11   -1    0    0    0    0  0.00000000000E+00  0.00000000000E+00  0.45593999997E+02  0.45594000000E+02  0.51100000000E-03 0. -1.
         11   -1    0    0    0    0 -0.00000000000E+00 -0.00000000000E+00 -0.45593999997E+02  0.45594000000E+02  0.51100000000E-03 0.  1.
    9900012    2    1    2    0    0  0.34417799420E+01  0.39499443753E+02 -0.17651384918E+02  0.47787270795E+02  0.19999998864E+02 0.  0.
         12    1    1    2    0    0 -0.34417799420E+01 -0.39499443753E+02  0.17651384918E+02  0.43400729205E+02  0.00000000000E+00 0. -1.
         11    1    3    3    0    0 -0.25406176933E+01  0.38114045729E+01 -0.14586231159E+01  0.48071951008E+01  0.51100000000E-03 0. -1.
        -11    1    3    3    0    0  0.40448998007E+01  0.35498108147E+02 -0.10919968593E+02  0.37359371123E+02  0.51100000000E-03 0.  1.
        -12    1    3    3    0    0  0.19374978345E+01  0.18993103372E+00 -0.52727932085E+01  0.56207045711E+01  0.00000000000E+00 0.  1.
</event>
<event>
 7    1  0.2387817E-009  0.4778727E+02  0.7816164E-02  0.1312668E+00
        -11   -1    0    0    0    0  0.00000000000E+00  0.00000000000E+00  0.45593999997E+02  0.45594000000E+02  0.51100000000E-03 0.  1.
         11   -1    0    0    0    0 -0.00000000000E+00 -0.00000000000E+00 -0.45593999997E+02  0.45594000000E+02  0.51100000000E-03 0. -1.
    9900012    2    1    2    0    0 -0.37563764393E+02  0.14844148836E+02  0.15882011098E+02  0.47787269286E+02  0.19999991981E+02 0.  0.
         12    1    1    2    0    0  0.37563764393E+02 -0.14844148836E+02 -0.15882011098E+02  0.43400730714E+02  0.00000000000E+00 0. -1.
         11    1    3    3    0    0 -0.10059022971E+02 -0.45420486091E+00  0.30591963985E+01  0.10523731660E+02  0.51100000000E-03 0. -1.
        -11    1    3    3    0    0 -0.16017450073E+02  0.68391132917E+01  0.14807371368E+02  0.22860236756E+02  0.51100000000E-03 0.  1.
         12    1    3    3    0    0 -0.11487291349E+02  0.84592404053E+01 -0.19845566683E+01  0.14403300870E+02  0.00000000000E+00 0. -1.
</event>
<event>
 7    1  0.2387817E-009  0.4778727E+02  0.7816164E-02  0.1312668E+00
        -11   -1    0    0    0    0  0.00000000000E+00  0.00000000000E+00  0.45593999997E+02  0.45594000000E+02  0.51100000000E-03 0. -1.
         11   -1    0    0    0    0 -0.00000000000E+00 -0.00000000000E+00 -0.45593999997E+02  0.45594000000E+02  0.51100000000E-03 0.  1.
    9900012    2    1    2    0    0 -0.18143367337E+02 -0.16730061288E+02 -0.35700791071E+02  0.47787271755E+02  0.20000003242E+02 0.  0.
         12    1    1    2    0    0  0.18143367337E+02  0.16730061288E+02  0.35700791071E+02  0.43400728245E+02  0.00000000000E+00 0. -1.
         11    1    3    3    0    0 -0.39977621006E+01 -0.11165593622E+02 -0.13372960580E+02  0.17874245654E+02  0.51100000000E-03 0. -1.
        -11    1    3    3    0    0 -0.52833999132E+01 -0.55860682469E+01 -0.23214624133E+01  0.80316661471E+01  0.51100000000E-03 0.  1.
        -12    1    3    3    0    0 -0.88622053236E+01  0.21600581421E-01 -0.20006368078E+02  0.21881359955E+02  0.00000000000E+00 0.  1.
</event>
<event>
 7    1  0.2387817E-009  0.4778727E+02  0.7816164E-02  0.1312668E+00
        -11   -1    0    0    0    0  0.00000000000E+00  0.00000000000E+00  0.45593999997E+02  0.45594000000E+02  0.51100000000E-03 0.  1.
         11   -1    0    0    0    0 -0.00000000000E+00 -0.00000000000E+00 -0.45593999997E+02  0.45594000000E+02  0.51100000000E-03 0. -1.
    9900012    2    1    2    0    0 -0.22232366253E+02  0.29783463357E+02  0.22411842469E+02  0.47787268651E+02  0.19999989089E+02 0.  0.
         12    1    1    2    0    0  0.22232366253E+02 -0.29783463357E+02 -0.22411842469E+02  0.43400731349E+02  0.00000000000E+00 0. -1.
         11    1    3    3    0    0 -0.38336158410E+00  0.32039679919E+01  0.81803179764E+01  0.87937466106E+01  0.51100000000E-03 0. -1.
        -11    1    3    3    0    0 -0.10691751094E+02  0.70685938889E+01  0.87125375983E+00  0.12846697802E+02  0.51100000000E-03 0.  1.
        -12    1    3    3    0    0 -0.11157253575E+02  0.19510901476E+02  0.13360270733E+02  0.26146824239E+02  0.00000000000E+00 0.  1.
</event>
<event>
 7    1  0.2387817E-009  0.4778727E+02  0.7816164E-02  0.1312668E+00
        -11   -1    0    0    0    0  0.00000000000E+00  0.00000000000E+00  0.45593999997E+02  0.45594000000E+02  0.51100000000E-03 0.  1.
         11   -1    0    0    0    0 -0.00000000000E+00 -0.00000000000E+00 -0.45593999997E+02  0.45594000000E+02  0.51100000000E-03 0. -1.
    9900012    2    1    2    0    0 -0.15817708504E+02  0.68087467740E+01  0.39837976887E+02  0.47787270312E+02  0.19999996662E+02 0.  0.
         12    1    1    2    0    0  0.15817708504E+02 -0.68087467740E+01 -0.39837976887E+02  0.43400729688E+02  0.00000000000E+00 0. -1.
         11    1    3    3    0    0  0.22647358837E+00 -0.22521407197E+01  0.55322451761E+01  0.59773878122E+01  0.51100000000E-03 0. -1.
        -11    1    3    3    0    0  0.21945846513E+01 -0.16392777620E+01  0.44124692472E+01  0.51935843587E+01  0.51100000000E-03 0.  1.
         12    1    3    3    0    0 -0.18238766744E+02  0.10700165256E+02  0.29893262464E+02  0.36616298141E+02  0.00000000000E+00 0. -1.
</event>
<event>
 7    1  0.2387817E-009  0.4778728E+02  0.7816164E-02  0.1312668E+00
        -11   -1    0    0    0    0  0.00000000000E+00  0.00000000000E+00  0.45593999997E+02  0.45594000000E+02  0.51100000000E-03 0.  1.
         11   -1    0    0    0    0 -0.00000000000E+00 -0.00000000000E+00 -0.45593999997E+02  0.45594000000E+02  0.51100000000E-03 0. -1.
    9900012    2    1    2    0    0 -0.39195991593E+02  0.13258613510E+02  0.13096036232E+02  0.47787277032E+02  0.20000027301E+02 0.  0.
         12    1    1    2    0    0  0.39195991593E+02 -0.13258613510E+02 -0.13096036232E+02  0.43400722968E+02  0.00000000000E+00 0. -1.
         11    1    3    3    0    0 -0.19141713850E+02 -0.24277578476E+00  0.12157580094E+02  0.22677541824E+02  0.51100000000E-03 0.  1.
        -11    1    3    3    0    0 -0.82311998523E+01  0.58360831149E+01  0.37073843807E+01  0.10749754246E+02  0.51100000000E-03 0. -1.
         12    1    3    3    0    0 -0.11823077891E+02  0.76653061796E+01 -0.27689282428E+01  0.14359980963E+02  0.00000000000E+00 0. -1.
</event>
<event>
 7    1  0.2387817E-009  0.4778727E+02  0.7816164E-02  0.1312668E+00
        -11   -1    0    0    0    0  0.00000000000E+00  0.00000000000E+00  0.45593999997E+02  0.45594000000E+02  0.51100000000E-03 0.  1.
         11   -1    0    0    0    0 -0.00000000000E+00 -0.00000000000E+00 -0.45593999997E+02  0.45594000000E+02  0.51100000000E-03 0. -1.
    9900012    2    1    2    0    0  0.32259385903E+02  0.28477905289E+02 -0.56536888347E+01  0.47787271136E+02  0.20000000419E+02 0.  0.
         12    1    1    2    0    0 -0.32259385903E+02 -0.28477905289E+02  0.56536888347E+01  0.43400728864E+02  0.00000000000E+00 0. -1.
         11    1    3    3    0    0  0.30912000231E+01  0.63701994788E+01  0.40897911480E+01  0.81768790427E+01  0.51100000000E-03 0. -1.
        -11    1    3    3    0    0  0.70255627674E+01  0.78792136448E+00  0.79909321875E+00  0.71146259571E+01  0.51100000000E-03 0.  1.
         12    1    3    3    0    0  0.22142623112E+02  0.21319784445E+02 -0.10542573201E+02  0.32495766137E+02  0.00000000000E+00 0. -1.
</event>
<event>
 7    1  0.2387817E-009  0.4778728E+02  0.7816164E-02  0.1312668E+00
        -11   -1    0    0    0    0  0.00000000000E+00  0.00000000000E+00  0.45593999997E+02  0.45594000000E+02  0.51100000000E-03 0.  1.
         11   -1    0    0    0    0 -0.00000000000E+00 -0.00000000000E+00 -0.45593999997E+02  0.45594000000E+02  0.51100000000E-03 0. -1.
    9900012    2    1    2    0    0  0.37174847711E+02  0.79540866196E+00  0.22383496702E+02  0.47787275329E+02  0.20000019537E+02 0.  0.
         12    1    1    2    0    0 -0.37174847711E+02 -0.79540866196E+00 -0.22383496702E+02  0.43400724671E+02  0.00000000000E+00 0. -1.
         11    1    3    3    0    0  0.58884682683E+01  0.64543480462E+01  0.14098516836E+01  0.88498784895E+01  0.51100000000E-03 0. -1.
        -11    1    3    3    0    0  0.11503859517E+02 -0.29511735536E+01  0.34396051485E+01  0.12364428534E+02  0.51100000000E-03 0.  1.
        -12    1    3    3    0    0  0.19782519926E+02 -0.27077658307E+01  0.17534039870E+02  0.26572968306E+02  0.00000000000E+00 0.  1.
</event>
<event>
 7    1  0.2387817E-009  0.4778727E+02  0.7816164E-02  0.1312668E+00
        -11   -1    0    0    0    0  0.00000000000E+00  0.00000000000E+00  0.45593999997E+02  0.45594000000E+02  0.51100000000E-03 0. -1.
         11   -1    0    0    0    0 -0.00000000000E+00 -0.00000000000E+00 -0.45593999997E+02  0.45594000000E+02  0.51100000000E-03 0.  1.
    9900012    2    1    2    0    0 -0.17980710949E+02  0.21507661587E+02 -0.33132124489E+02  0.47787272514E+02  0.20000006700E+02 0.  0.
         12    1    1    2    0    0  0.17980710949E+02 -0.21507661587E+02  0.33132124489E+02  0.43400727486E+02  0.00000000000E+00 0. -1.
         11    1    3    3    0    0 -0.10240369191E+02  0.66738069169E+01 -0.12818355707E+02  0.17712004495E+02  0.51100000000E-03 0. -1.
        -11    1    3    3    0    0 -0.51529273439E+01  0.11377985825E+02 -0.22114137077E+02  0.25397761330E+02  0.51100000000E-03 0.  1.
        -12    1    3    3    0    0 -0.25874144140E+01  0.34558688454E+01  0.18003682954E+01  0.46775066890E+01  0.00000000000E+00 0.  1.
</event>
<event>
 7    1  0.2387817E-009  0.4778727E+02  0.7816164E-02  0.1312668E+00
        -11   -1    0    0    0    0  0.00000000000E+00  0.00000000000E+00  0.45593999997E+02  0.45594000000E+02  0.51100000000E-03 0. -1.
         11   -1    0    0    0    0 -0.00000000000E+00 -0.00000000000E+00 -0.45593999997E+02  0.45594000000E+02  0.51100000000E-03 0.  1.
    9900012    2    1    2    0    0 -0.85567022617E+01 -0.19236091062E+02 -0.37952323592E+02  0.47787271677E+02  0.20000002884E+02 0.  0.
         12    1    1    2    0    0  0.85567022617E+01  0.19236091062E+02  0.37952323592E+02  0.43400728323E+02  0.00000000000E+00 0. -1.
         11    1    3    3    0    0  0.10170495668E+01 -0.68939804886E+01 -0.13101127422E+01  0.70906806765E+01  0.51100000000E-03 0. -1.
        -11    1    3    3    0    0  0.21590603179E+00 -0.57047069489E+01 -0.94023862116E+01  0.10999780158E+02  0.51100000000E-03 0.  1.
        -12    1    3    3    0    0 -0.97896578603E+01 -0.66374036245E+01 -0.27239824638E+02  0.29696810843E+02  0.00000000000E+00 0.  1.
</event>
<event>
 7    1  0.2387817E-009  0.4778726E+02  0.7816164E-02  0.1312668E+00
        -11   -1    0    0    0    0  0.00000000000E+00  0.00000000000E+00  0.45593999997E+02  0.45594000000E+02  0.51100000000E-03 0. -1.
         11   -1    0    0    0    0 -0.00000000000E+00 -0.00000000000E+00 -0.45593999997E+02  0.45594000000E+02  0.51100000000E-03 0.  1.
    9900012    2    1    2    0    0  0.27663785376E+02 -0.11862929490E+02  0.31266754958E+02  0.47787261723E+02  0.19999957499E+02 0.  0.
         12    1    1    2    0    0 -0.27663785376E+02  0.11862929490E+02 -0.31266754958E+02  0.43400738277E+02  0.00000000000E+00 0. -1.
         11    1    3    3    0    0  0.15873005342E+01 -0.77034645365E+00  0.12556320432E+01  0.21655412103E+01  0.51100000000E-03 0. -1.
        -11    1    3    3    0    0  0.18223082529E+02  0.60810608822E+00  0.90283063930E+01  0.20346027781E+02  0.51100000000E-03 0.  1.
         12    1    3    3    0    0  0.78534023122E+01 -0.11700689125E+02  0.20982816521E+02  0.25275692731E+02  0.00000000000E+00 0. -1.
</event>
<event>
 7    1  0.2387817E-009  0.4778728E+02  0.7816164E-02  0.1312668E+00
        -11   -1    0    0    0    0  0.00000000000E+00  0.00000000000E+00  0.45593999997E+02  0.45594000000E+02  0.51100000000E-03 0.  1.
         11   -1    0    0    0    0 -0.00000000000E+00 -0.00000000000E+00 -0.45593999997E+02  0.45594000000E+02  0.51100000000E-03 0. -1.
    9900012    2    1    2    0    0 -0.32967530097E+02 -0.54684005370E+01  0.27692257217E+02  0.47787279328E+02  0.20000037767E+02 0.  0.
         12    1    1    2    0    0  0.32967530097E+02  0.54684005370E+01 -0.27692257217E+02  0.43400720672E+02  0.00000000000E+00 0. -1.
         11    1    3    3    0    0 -0.12241401701E+02 -0.51239780656E+00  0.46867117901E+01  0.13117916557E+02  0.51100000000E-03 0. -1.
        -11    1    3    3    0    0 -0.23086243533E+02 -0.45165756189E+01  0.20559667644E+02  0.31242183497E+02  0.51100000000E-03 0.  1.
         12    1    3    3    0    0  0.23601151374E+01 -0.43942711154E+00  0.24458777832E+01  0.34271792743E+01  0.00000000000E+00 0. -1.
</event>
<event>
 7    1  0.2387817E-009  0.4778727E+02  0.7816164E-02  0.1312668E+00
        -11   -1    0    0    0    0  0.00000000000E+00  0.00000000000E+00  0.45593999997E+02  0.45594000000E+02  0.51100000000E-03 0. -1.
         11   -1    0    0    0    0 -0.00000000000E+00 -0.00000000000E+00 -0.45593999997E+02  0.45594000000E+02  0.51100000000E-03 0.  1.
    9900012    2    1    2    0    0  0.10023068410E-01 -0.43321539954E+02  0.26205612640E+01  0.47787271138E+02  0.20000000425E+02 0.  0.
         12    1    1    2    0    0 -0.10023068410E-01  0.43321539954E+02 -0.26205612640E+01  0.43400728862E+02  0.00000000000E+00 0. -1.
         11    1    3    3    0    0 -0.23109321306E+01 -0.48637723966E+01  0.48418248710E+01  0.72415438672E+01  0.51100000000E-03 0. -1.
        -11    1    3    3    0    0  0.26094992664E+01 -0.19631585450E+02  0.49238545500E+01  0.20407179560E+02  0.51100000000E-03 0.  1.
        -12    1    3    3    0    0 -0.28854406736E+00 -0.18826182107E+02 -0.71451181570E+01  0.20138547711E+02  0.00000000000E+00 0.  1.
</event>
<event>
 7    1  0.2387817E-009  0.4778728E+02  0.7816164E-02  0.1312668E+00
        -11   -1    0    0    0    0  0.00000000000E+00  0.00000000000E+00  0.45593999997E+02  0.45594000000E+02  0.51100000000E-03 0.  1.
         11   -1    0    0    0    0 -0.00000000000E+00 -0.00000000000E+00 -0.45593999997E+02  0.45594000000E+02  0.51100000000E-03 0. -1.
    9900012    2    1    2    0    0  0.19802398487E+02  0.12492308875E+02  0.36543530932E+02  0.47787280884E+02  0.20000044862E+02 0.  0.
         12    1    1    2    0    0 -0.19802398487E+02 -0.12492308875E+02 -0.36543530932E+02  0.43400719116E+02  0.00000000000E+00 0. -1.
         11    1    3    3    0    0  0.51549150734E+01  0.83481765526E+01  0.14315842608E+02  0.17355360873E+02  0.51100000000E-03 0. -1.
        -11    1    3    3    0    0  0.30270410163E+01  0.79490883360E+01  0.10186208679E+02  0.13270637897E+02  0.51100000000E-03 0.  1.
        -12    1    3    3    0    0  0.11620442397E+02 -0.38049560140E+01  0.12041479644E+02  0.17161282114E+02  0.00000000000E+00 0.  1.
</event>
<event>
 7    1  0.2387817E-009  0.4778727E+02  0.7816164E-02  0.1312668E+00
        -11   -1    0    0    0    0  0.00000000000E+00  0.00000000000E+00  0.45593999997E+02  0.45594000000E+02  0.51100000000E-03 0.  1.
         11   -1    0    0    0    0 -0.00000000000E+00 -0.00000000000E+00 -0.45593999997E+02  0.45594000000E+02  0.51100000000E-03 0. -1.
    9900012    2    1    2    0    0 -0.21342487267E+02 -0.89789289729E+01  0.36708315048E+02  0.47787270491E+02  0.19999997477E+02 0.  0.
         12    1    1    2    0    0  0.21342487267E+02  0.89789289729E+01 -0.36708315048E+02  0.43400729509E+02  0.00000000000E+00 0. -1.
         11    1    3    3    0    0  0.25728027936E-01 -0.10499254637E+00  0.40112177935E+01  0.40126741476E+01  0.51100000000E-03 0. -1.
        -11    1    3    3    0    0 -0.23067399717E+02 -0.33625558479E+01  0.26941569621E+02  0.35626673791E+02  0.51100000000E-03 0.  1.
         12    1    3    3    0    0  0.16991844213E+01 -0.55113805786E+01  0.57555276333E+01  0.81479225522E+01  0.00000000000E+00 0. -1.
</event>
<event>
 7    1  0.2387817E-009  0.4778727E+02  0.7816164E-02  0.1312668E+00
        -11   -1    0    0    0    0  0.00000000000E+00  0.00000000000E+00  0.45593999997E+02  0.45594000000E+02  0.51100000000E-03 0.  1.
         11   -1    0    0    0    0 -0.00000000000E+00 -0.00000000000E+00 -0.45593999997E+02  0.45594000000E+02  0.51100000000E-03 0. -1.
    9900012    2    1    2    0    0 -0.28460310886E+02 -0.32235899023E+02 -0.58720475361E+01  0.47787269317E+02  0.19999992124E+02 0.  0.
         12    1    1    2    0    0  0.28460310886E+02  0.32235899023E+02  0.58720475361E+01  0.43400730683E+02  0.00000000000E+00 0. -1.
         11    1    3    3    0    0 -0.21424621511E+02 -0.20782869540E+02 -0.48503035118E+01  0.30240163982E+02  0.51100000000E-03 0. -1.
        -11    1    3    3    0    0 -0.67012695125E+01 -0.10543637901E+02 -0.49971194634E+01  0.13455352706E+02  0.51100000000E-03 0.  1.
         12    1    3    3    0    0 -0.33441986231E+00 -0.90939158235E+00  0.39753754391E+01  0.40917526289E+01  0.00000000000E+00 0. -1.
</event>
<event>
 7    1  0.2387817E-009  0.4778727E+02  0.7816164E-02  0.1312668E+00
        -11   -1    0    0    0    0  0.00000000000E+00  0.00000000000E+00  0.45593999997E+02  0.45594000000E+02  0.51100000000E-03 0.  1.
         11   -1    0    0    0    0 -0.00000000000E+00 -0.00000000000E+00 -0.45593999997E+02  0.45594000000E+02  0.51100000000E-03 0. -1.
    9900012    2    1    2    0    0  0.14600038138E+02  0.11095297352E+02  0.39336452004E+02  0.47787271974E+02  0.20000004239E+02 0.  0.
         12    1    1    2    0    0 -0.14600038138E+02 -0.11095297352E+02 -0.39336452004E+02  0.43400728026E+02  0.00000000000E+00 0. -1.
         11    1    3    3    0    0  0.10623868138E+02  0.58632241191E+01  0.20086221512E+02  0.23467003775E+02  0.51100000000E-03 0. -1.
        -11    1    3    3    0    0  0.81899857554E+01  0.63132381646E+01  0.11773041279E+02  0.15669631266E+02  0.51100000000E-03 0.  1.
         12    1    3    3    0    0 -0.42138157554E+01 -0.10811649316E+01  0.74771892132E+01  0.86506369338E+01  0.00000000000E+00 0. -1.
</event>
<event>
 7    1  0.2387817E-009  0.4778727E+02  0.7816164E-02  0.1312668E+00
        -11   -1    0    0    0    0  0.00000000000E+00  0.00000000000E+00  0.45593999997E+02  0.45594000000E+02  0.51100000000E-03 0.  1.
         11   -1    0    0    0    0 -0.00000000000E+00 -0.00000000000E+00 -0.45593999997E+02  0.45594000000E+02  0.51100000000E-03 0. -1.
    9900012    2    1    2    0    0 -0.23655108390E+02  0.11986511347E+02  0.34356698862E+02  0.47787270007E+02  0.19999995270E+02 0.  0.
         12    1    1    2    0    0  0.23655108390E+02 -0.11986511347E+02 -0.34356698862E+02  0.43400729993E+02  0.00000000000E+00 0. -1.
         11    1    3    3    0    0 -0.68587443639E+01  0.10801339287E+02  0.13656330138E+02  0.18713809279E+02  0.51100000000E-03 0. -1.
        -11    1    3    3    0    0 -0.41316958898E+01  0.28944018809E+01  0.13485091093E+02  0.14397782997E+02  0.51100000000E-03 0.  1.
         12    1    3    3    0    0 -0.12664668136E+02 -0.17092298203E+01  0.72152776314E+01  0.14675677731E+02  0.00000000000E+00 0. -1.
</event>
<event>
 7    1  0.2387817E-009  0.4778727E+02  0.7816164E-02  0.1312668E+00
        -11   -1    0    0    0    0  0.00000000000E+00  0.00000000000E+00  0.45593999997E+02  0.45594000000E+02  0.51100000000E-03 0. -1.
         11   -1    0    0    0    0 -0.00000000000E+00 -0.00000000000E+00 -0.45593999997E+02  0.45594000000E+02  0.51100000000E-03 0.  1.
    9900012    2    1    2    0    0 -0.33821978975E+02  0.22704248780E+02  0.14973779709E+02  0.47787271282E+02  0.20000001084E+02 0.  0.
         12    1    1    2    0    0  0.33821978975E+02 -0.22704248780E+02 -0.14973779709E+02  0.43400728718E+02  0.00000000000E+00 0. -1.
         11    1    3    3    0    0 -0.10474085100E+02  0.10684926293E+02  0.85669227518E+01  0.17241411609E+02  0.51100000000E-03 0. -1.
        -11    1    3    3    0    0 -0.23794307037E+02  0.74149573350E+01  0.69867781818E+01  0.25883695820E+02  0.51100000000E-03 0.  1.
         12    1    3    3    0    0  0.44641316280E+00  0.46043651523E+01 -0.57992122451E+00  0.46621638532E+01  0.00000000000E+00 0. -1.
</event>
<event>
 7    1  0.2387817E-009  0.4778728E+02  0.7816164E-02  0.1312668E+00
        -11   -1    0    0    0    0  0.00000000000E+00  0.00000000000E+00  0.45593999997E+02  0.45594000000E+02  0.51100000000E-03 0.  1.
         11   -1    0    0    0    0 -0.00000000000E+00 -0.00000000000E+00 -0.45593999997E+02  0.45594000000E+02  0.51100000000E-03 0. -1.
    9900012    2    1    2    0    0 -0.13127185223E+02  0.83969751911E+01  0.40506674391E+02  0.47787275876E+02  0.20000022031E+02 0.  0.
         12    1    1    2    0    0  0.13127185223E+02 -0.83969751911E+01 -0.40506674391E+02  0.43400724124E+02  0.00000000000E+00 0. -1.
         11    1    3    3    0    0 -0.24942680551E+01  0.12338375052E+00  0.75466589720E+00  0.26088536866E+01  0.51100000000E-03 0. -1.
        -11    1    3    3    0    0 -0.11725284681E+02  0.12271451178E+02  0.28298124190E+02  0.32997797620E+02  0.51100000000E-03 0.  1.
        -12    1    3    3    0    0  0.10923675126E+01 -0.39978597372E+01  0.11453884304E+02  0.12180624569E+02  0.00000000000E+00 0.  1.
</event>
<event>
 7    1  0.2387817E-009  0.4778727E+02  0.7816164E-02  0.1312668E+00
        -11   -1    0    0    0    0  0.00000000000E+00  0.00000000000E+00  0.45593999997E+02  0.45594000000E+02  0.51100000000E-03 0. -1.
         11   -1    0    0    0    0 -0.00000000000E+00 -0.00000000000E+00 -0.45593999997E+02  0.45594000000E+02  0.51100000000E-03 0.  1.
    9900012    2    1    2    0    0  0.37782308154E+02 -0.20932140585E+02 -0.42386243802E+01  0.47787271256E+02  0.20000000963E+02 0.  0.
         12    1    1    2    0    0 -0.37782308154E+02  0.20932140585E+02  0.42386243802E+01  0.43400728744E+02  0.00000000000E+00 0. -1.
         11    1    3    3    0    0  0.15834772052E+01  0.10919802893E+01 -0.20031336718E+01  0.27771146501E+01  0.51100000000E-03 0. -1.
        -11    1    3    3    0    0  0.12194954061E+01 -0.29652450052E+01 -0.40122606100E+01  0.51359597399E+01  0.51100000000E-03 0.  1.
        -12    1    3    3    0    0  0.34979335542E+02 -0.19058875870E+02  0.17767699016E+01  0.39874196866E+02  0.00000000000E+00 0.  1.
</event>
<event>
 7    1  0.2387817E-009  0.4778727E+02  0.7816164E-02  0.1312668E+00
        -11   -1    0    0    0    0  0.00000000000E+00  0.00000000000E+00  0.45593999997E+02  0.45594000000E+02  0.51100000000E-03 0. -1.
         11   -1    0    0    0    0 -0.00000000000E+00 -0.00000000000E+00 -0.45593999997E+02  0.45594000000E+02  0.51100000000E-03 0.  1.
    9900012    2    1    2    0    0  0.39395439127E+02  0.16654841428E+02 -0.73647039703E+01  0.47787271532E+02  0.20000002222E+02 0.  0.
         12    1    1    2    0    0 -0.39395439127E+02 -0.16654841428E+02  0.73647039703E+01  0.43400728468E+02  0.00000000000E+00 0. -1.
         11    1    3    3    0    0  0.99012396519E+00  0.43343249712E-01 -0.13180509917E+01  0.16490854379E+01  0.51100000000E-03 0. -1.
        -11    1    3    3    0    0 -0.10544348065E+01  0.20189115143E+01 -0.32567940806E+01  0.39742350721E+01  0.51100000000E-03 0.  1.
        -12    1    3    3    0    0  0.39459749968E+02  0.14592586664E+02 -0.27898588981E+01  0.42163951022E+02  0.00000000000E+00 0.  1.
</event>
<event>
 7    1  0.2387817E-009  0.4778728E+02  0.7816164E-02  0.1312668E+00
        -11   -1    0    0    0    0  0.00000000000E+00  0.00000000000E+00  0.45593999997E+02  0.45594000000E+02  0.51100000000E-03 0.  1.
         11   -1    0    0    0    0 -0.00000000000E+00 -0.00000000000E+00 -0.45593999997E+02  0.45594000000E+02  0.51100000000E-03 0. -1.
    9900012    2    1    2    0    0  0.18382222001E+02 -0.11716647177E+02  0.37529145439E+02  0.47787278069E+02  0.20000032028E+02 0.  0.
         12    1    1    2    0    0 -0.18382222001E+02  0.11716647177E+02 -0.37529145439E+02  0.43400721931E+02  0.00000000000E+00 0. -1.
         11    1    3    3    0    0  0.76550287349E+01 -0.37503807620E+01  0.91822858435E+01  0.12529133823E+02  0.51100000000E-03 0. -1.
        -11    1    3    3    0    0 -0.23343470070E+01 -0.30969855207E+01  0.24142254824E+00  0.38857149113E+01  0.51100000000E-03 0.  1.
        -12    1    3    3    0    0  0.13061540273E+02 -0.48692808949E+01  0.28105437047E+02  0.31372429334E+02  0.00000000000E+00 0.  1.
</event>
<event>
 7    1  0.2387817E-009  0.4778727E+02  0.7816164E-02  0.1312668E+00
        -11   -1    0    0    0    0  0.00000000000E+00  0.00000000000E+00  0.45593999997E+02  0.45594000000E+02  0.51100000000E-03 0.  1.
         11   -1    0    0    0    0 -0.00000000000E+00 -0.00000000000E+00 -0.45593999997E+02  0.45594000000E+02  0.51100000000E-03 0. -1.
    9900012    2    1    2    0    0 -0.41365820544E+01 -0.35099391971E+02  0.25190165486E+02  0.47787273451E+02  0.20000010971E+02 0.  0.
         12    1    1    2    0    0  0.41365820544E+01  0.35099391971E+02 -0.25190165486E+02  0.43400726549E+02  0.00000000000E+00 0. -1.
         11    1    3    3    0    0 -0.46173050471E+01 -0.13389765454E+01  0.29825166647E+01  0.56575409856E+01  0.51100000000E-03 0. -1.
        -11    1    3    3    0    0  0.36358476777E+01 -0.85140210660E+01  0.16151468813E+01  0.93976934807E+01  0.51100000000E-03 0.  1.
        -12    1    3    3    0    0 -0.31551246849E+01 -0.25246394360E+02  0.20592501940E+02  0.32732038984E+02  0.00000000000E+00 0.  1.
</event>
<event>
 7    1  0.2387817E-009  0.4778727E+02  0.7816164E-02  0.1312668E+00
        -11   -1    0    0    0    0  0.00000000000E+00  0.00000000000E+00  0.45593999997E+02  0.45594000000E+02  0.51100000000E-03 0. -1.
         11   -1    0    0    0    0 -0.00000000000E+00 -0.00000000000E+00 -0.45593999997E+02  0.45594000000E+02  0.51100000000E-03 0.  1.
    9900012    2    1    2    0    0  0.28548980478E+02  0.27965623252E+02 -0.16926401059E+02  0.47787269326E+02  0.19999992165E+02 0.  0.
         12    1    1    2    0    0 -0.28548980478E+02 -0.27965623252E+02  0.16926401059E+02  0.43400730674E+02  0.00000000000E+00 0. -1.
         11    1    3    3    0    0  0.93982491696E+01  0.79725258998E+01 -0.35911329349E+01  0.12836841227E+02  0.51100000000E-03 0. -1.
        -11    1    3    3    0    0  0.15613594211E+02  0.14361807974E+02 -0.13664286020E+01  0.21258244985E+02  0.51100000000E-03 0.  1.
        -12    1    3    3    0    0  0.35371370980E+01  0.56312893783E+01 -0.11968839522E+02  0.13692183114E+02  0.00000000000E+00 0.  1.
</event>
<event>
 7    1  0.2387817E-009  0.4778727E+02  0.7816164E-02  0.1312668E+00
        -11   -1    0    0    0    0  0.00000000000E+00  0.00000000000E+00  0.45593999997E+02  0.45594000000E+02  0.51100000000E-03 0.  1.
         11   -1    0    0    0    0 -0.00000000000E+00 -0.00000000000E+00 -0.45593999997E+02  0.45594000000E+02  0.51100000000E-03 0. -1.
    9900012    2    1    2    0    0 -0.22333721211E+02  0.29255503185E+02  0.22998776748E+02  0.47787270724E+02  0.19999998541E+02 0.  0.
         12    1    1    2    0    0  0.22333721211E+02 -0.29255503185E+02 -0.22998776748E+02  0.43400729276E+02  0.00000000000E+00 0. -1.
         11    1    3    3    0    0  0.14577690238E+00 -0.15884643356E+01  0.72550112446E+00  0.17523760993E+01  0.51100000000E-03 0. -1.
        -11    1    3    3    0    0 -0.62847977297E+00  0.20009229318E+01 -0.16394256860E+01  0.26620285959E+01  0.51100000000E-03 0.  1.
        -12    1    3    3    0    0 -0.21851018340E+02  0.28843044589E+02  0.23912701309E+02  0.43372866029E+02  0.00000000000E+00 0.  1.
</event>
<event>
 7    1  0.2387817E-009  0.4778727E+02  0.7816164E-02  0.1312668E+00
        -11   -1    0    0    0    0  0.00000000000E+00  0.00000000000E+00  0.45593999997E+02  0.45594000000E+02  0.51100000000E-03 0.  1.
         11   -1    0    0    0    0 -0.00000000000E+00 -0.00000000000E+00 -0.45593999997E+02  0.45594000000E+02  0.51100000000E-03 0. -1.
    9900012    2    1    2    0    0 -0.41572991779E+02 -0.29890214541E+01  0.12098568165E+02  0.47787271361E+02  0.20000001444E+02 0.  0.
         12    1    1    2    0    0  0.41572991779E+02  0.29890214541E+01 -0.12098568165E+02  0.43400728639E+02  0.00000000000E+00 0. -1.
         11    1    3    3    0    0  0.22051356738E+00 -0.67275383225E+00 -0.42526800787E-01  0.70924801171E+00  0.51100000000E-03 0. -1.
        -11    1    3    3    0    0 -0.38040581081E+02 -0.72711347494E+01  0.12888562040E+02  0.40817523703E+02  0.51100000000E-03 0.  1.
        -12    1    3    3    0    0 -0.37529242660E+01  0.49548671276E+01 -0.74746707447E+00  0.62604996467E+01  0.00000000000E+00 0.  1.
</event>
<event>
 7    1  0.2387817E-009  0.4778727E+02  0.7816164E-02  0.1312668E+00
        -11   -1    0    0    0    0  0.00000000000E+00  0.00000000000E+00  0.45593999997E+02  0.45594000000E+02  0.51100000000E-03 0.  1.
         11   -1    0    0    0    0 -0.00000000000E+00 -0.00000000000E+00 -0.45593999997E+02  0.45594000000E+02  0.51100000000E-03 0. -1.
    9900012    2    1    2    0    0 -0.22908614597E+02  0.19285144404E+01  0.36811674845E+02  0.47787271946E+02  0.20000004111E+02 0.  0.
         12    1    1    2    0    0  0.22908614597E+02 -0.19285144404E+01 -0.36811674845E+02  0.43400728054E+02  0.00000000000E+00 0. -1.
         11    1    3    3    0    0 -0.65906373101E+00 -0.39009904352E+00  0.10140729883E+01  0.12707818664E+01  0.51100000000E-03 0. -1.
        -11    1    3    3    0    0 -0.20015330427E+02  0.48037746860E+01  0.37491154128E+02  0.42770040232E+02  0.51100000000E-03 0.  1.
         12    1    3    3    0    0 -0.22342204383E+01 -0.24851612021E+01 -0.16935522709E+01  0.37464498478E+01  0.00000000000E+00 0. -1.
</event>
<event>
 7    1  0.2387817E-009  0.4778727E+02  0.7816164E-02  0.1312668E+00
        -11   -1    0    0    0    0  0.00000000000E+00  0.00000000000E+00  0.45593999997E+02  0.45594000000E+02  0.51100000000E-03 0.  1.
         11   -1    0    0    0    0 -0.00000000000E+00 -0.00000000000E+00 -0.45593999997E+02  0.45594000000E+02  0.51100000000E-03 0. -1.
    9900012    2    1    2    0    0 -0.31130413379E+02 -0.24242360184E+02 -0.18078396327E+02  0.47787273299E+02  0.20000010279E+02 0.  0.
         12    1    1    2    0    0  0.31130413379E+02  0.24242360184E+02  0.18078396327E+02  0.43400726701E+02  0.00000000000E+00 0. -1.
         11    1    3    3    0    0 -0.63305931964E+01 -0.68568546571E+01  0.16412821258E+01  0.94755830050E+01  0.51100000000E-03 0. -1.
        -11    1    3    3    0    0 -0.13362799646E+02 -0.16571597126E+02 -0.11426091492E+02  0.24160666645E+02  0.51100000000E-03 0.  1.
        -12    1    3    3    0    0 -0.11437020536E+02 -0.81390840072E+00 -0.82935869606E+01  0.14151023649E+02  0.00000000000E+00 0.  1.
</event>
<event>
 7    1  0.2387817E-009  0.4778725E+02  0.7816164E-02  0.1312668E+00
        -11   -1    0    0    0    0  0.00000000000E+00  0.00000000000E+00  0.45593999997E+02  0.45594000000E+02  0.51100000000E-03 0.  1.
         11   -1    0    0    0    0 -0.00000000000E+00 -0.00000000000E+00 -0.45593999997E+02  0.45594000000E+02  0.51100000000E-03 0. -1.
    9900012    2    1    2    0    0  0.19260548334E+02  0.27281321799E+02  0.27719771257E+02  0.47787251622E+02  0.19999911446E+02 0.  0.
         12    1    1    2    0    0 -0.19260548334E+02 -0.27281321799E+02 -0.27719771257E+02  0.43400748378E+02  0.00000000000E+00 0. -1.
         11    1    3    3    0    0  0.11464018066E+02  0.74316648528E+01  0.60410077899E+01  0.14938109924E+02  0.51100000000E-03 0. -1.
        -11    1    3    3    0    0  0.93330801224E+01  0.99609755171E+01  0.17000177598E+02  0.21802143391E+02  0.51100000000E-03 0.  1.
         12    1    3    3    0    0 -0.15365498549E+01  0.98886814296E+01  0.46785858686E+01  0.11046998307E+02  0.00000000000E+00 0. -1.
</event>
<event>
 7    1  0.2387817E-009  0.4778727E+02  0.7816164E-02  0.1312668E+00
        -11   -1    0    0    0    0  0.00000000000E+00  0.00000000000E+00  0.45593999997E+02  0.45594000000E+02  0.51100000000E-03 0.  1.
         11   -1    0    0    0    0 -0.00000000000E+00 -0.00000000000E+00 -0.45593999997E+02  0.45594000000E+02  0.51100000000E-03 0. -1.
    9900012    2    1    2    0    0  0.37141618480E+02 -0.23694510076E+01  0.22327317833E+02  0.47787271400E+02  0.20000001623E+02 0.  0.
         12    1    1    2    0    0 -0.37141618480E+02  0.23694510076E+01 -0.22327317833E+02  0.43400728600E+02  0.00000000000E+00 0. -1.
         11    1    3    3    0    0  0.17381992442E+02  0.33559270295E+01  0.93867857782E+01  0.20037655926E+02  0.51100000000E-03 0. -1.
        -11    1    3    3    0    0  0.20911880205E+02 -0.76475005944E+01  0.11280955224E+02  0.24960988564E+02  0.51100000000E-03 0.  1.
         12    1    3    3    0    0 -0.11522541676E+01  0.19221225573E+01  0.16595768298E+01  0.27886269105E+01  0.00000000000E+00 0. -1.
</event>
<event>
 7    1  0.2387817E-009  0.4778728E+02  0.7816164E-02  0.1312668E+00
        -11   -1    0    0    0    0  0.00000000000E+00  0.00000000000E+00  0.45593999997E+02  0.45594000000E+02  0.51100000000E-03 0.  1.
         11   -1    0    0    0    0 -0.00000000000E+00 -0.00000000000E+00 -0.45593999997E+02  0.45594000000E+02  0.51100000000E-03 0. -1.
    9900012    2    1    2    0    0  0.19952989322E+02  0.48266390833E+01  0.38238784644E+02  0.47787275596E+02  0.20000020754E+02 0.  0.
         12    1    1    2    0    0 -0.19952989322E+02 -0.48266390833E+01 -0.38238784644E+02  0.43400724404E+02  0.00000000000E+00 0. -1.
         11    1    3    3    0    0  0.74953356862E+01  0.32761784161E+01  0.23102304443E+02  0.24507751282E+02  0.51100000000E-03 0. -1.
        -11    1    3    3    0    0  0.11849056586E+02  0.29443093114E+01  0.16964659886E+02  0.20901406283E+02  0.51100000000E-03 0.  1.
         12    1    3    3    0    0  0.60859704938E+00 -0.13938486442E+01 -0.18281796849E+01  0.23781180315E+01  0.00000000000E+00 0. -1.
</event>
<event>
 7    1  0.2387817E-009  0.4778727E+02  0.7816164E-02  0.1312668E+00
        -11   -1    0    0    0    0  0.00000000000E+00  0.00000000000E+00  0.45593999997E+02  0.45594000000E+02  0.51100000000E-03 0.  1.
         11   -1    0    0    0    0 -0.00000000000E+00 -0.00000000000E+00 -0.45593999997E+02  0.45594000000E+02  0.51100000000E-03 0. -1.
    9900012    2    1    2    0    0 -0.60694566039E+01  0.26012948939E+02  0.34206889826E+02  0.47787272731E+02  0.20000007688E+02 0.  0.
         12    1    1    2    0    0  0.60694566039E+01 -0.26012948939E+02 -0.34206889826E+02  0.43400727269E+02  0.00000000000E+00 0. -1.
         11    1    3    3    0    0 -0.11700498929E+01  0.46403234867E+01  0.96351763194E+01  0.10758170931E+02  0.51100000000E-03 0. -1.
        -11    1    3    3    0    0 -0.83618642461E-01  0.15224660253E+02  0.24929985519E+02  0.29211324005E+02  0.51100000000E-03 0.  1.
         12    1    3    3    0    0 -0.48157880686E+01  0.61479651988E+01 -0.35827201262E+00  0.78177777943E+01  0.00000000000E+00 0. -1.
</event>
<event>
 7    1  0.2387817E-009  0.4778727E+02  0.7816164E-02  0.1312668E+00
        -11   -1    0    0    0    0  0.00000000000E+00  0.00000000000E+00  0.45593999997E+02  0.45594000000E+02  0.51100000000E-03 0.  1.
         11   -1    0    0    0    0 -0.00000000000E+00 -0.00000000000E+00 -0.45593999997E+02  0.45594000000E+02  0.51100000000E-03 0. -1.
    9900012    2    1    2    0    0  0.10229238162E+02  0.36713793874E+02  0.20762541427E+02  0.47787273042E+02  0.20000009106E+02 0.  0.
         12    1    1    2    0    0 -0.10229238162E+02 -0.36713793874E+02 -0.20762541427E+02  0.43400726958E+02  0.00000000000E+00 0. -1.
         11    1    3    3    0    0  0.39035094374E+01  0.99626453923E+01  0.19803668905E+01  0.10881798676E+02  0.51100000000E-03 0. -1.
        -11    1    3    3    0    0  0.11424627105E+02  0.18048976194E+02  0.15139365617E+02  0.26181826477E+02  0.51100000000E-03 0.  1.
         12    1    3    3    0    0 -0.50988983798E+01  0.87021722874E+01  0.36428089196E+01  0.10723647888E+02  0.00000000000E+00 0. -1.
</event>
<event>
 7    1  0.2387817E-009  0.4778727E+02  0.7816164E-02  0.1312668E+00
        -11   -1    0    0    0    0  0.00000000000E+00  0.00000000000E+00  0.45593999997E+02  0.45594000000E+02  0.51100000000E-03 0. -1.
         11   -1    0    0    0    0 -0.00000000000E+00 -0.00000000000E+00 -0.45593999997E+02  0.45594000000E+02  0.51100000000E-03 0.  1.
    9900012    2    1    2    0    0 -0.14223518554E+02  0.39754605619E+02 -0.10044233765E+02  0.47787265215E+02  0.19999973420E+02 0.  0.
         12    1    1    2    0    0  0.14223518554E+02 -0.39754605619E+02  0.10044233765E+02  0.43400734785E+02  0.00000000000E+00 0. -1.
         11    1    3    3    0    0 -0.15873331442E+01  0.82241753083E-01  0.93252662308E+00  0.18428229379E+01  0.51100000000E-03 0. -1.
        -11    1    3    3    0    0 -0.12336158470E+02  0.21619306171E+02 -0.12445554871E+02  0.27829247949E+02  0.51100000000E-03 0.  1.
        -12    1    3    3    0    0 -0.30002694002E+00  0.18053057695E+02  0.14687944824E+01  0.18115194327E+02  0.00000000000E+00 0.  1.
</event>
<event>
 7    1  0.2387817E-009  0.4778727E+02  0.7816164E-02  0.1312668E+00
        -11   -1    0    0    0    0  0.00000000000E+00  0.00000000000E+00  0.45593999997E+02  0.45594000000E+02  0.51100000000E-03 0. -1.
         11   -1    0    0    0    0 -0.00000000000E+00 -0.00000000000E+00 -0.45593999997E+02  0.45594000000E+02  0.51100000000E-03 0.  1.
    9900012    2    1    2    0    0  0.19486991639E+02 -0.30145721226E+02 -0.24394994621E+02  0.47787272887E+02  0.20000008400E+02 0.  0.
         12    1    1    2    0    0 -0.19486991639E+02  0.30145721226E+02  0.24394994621E+02  0.43400727113E+02  0.00000000000E+00 0. -1.
         11    1    3    3    0    0  0.12805564852E+00 -0.17937833851E+01  0.18406668939E+01  0.25733464511E+01  0.51100000000E-03 0. -1.
        -11    1    3    3    0    0  0.19097361364E+01 -0.50044975821E+01 -0.11204166209E+02  0.12418753112E+02  0.51100000000E-03 0.  1.
         12    1    3    3    0    0  0.17449199854E+02 -0.23347440259E+02 -0.15031495306E+02  0.32795173324E+02  0.00000000000E+00 0. -1.
</event>
<event>
 7    1  0.2387817E-009  0.4778727E+02  0.7816164E-02  0.1312668E+00
        -11   -1    0    0    0    0  0.00000000000E+00  0.00000000000E+00  0.45593999997E+02  0.45594000000E+02  0.51100000000E-03 0.  1.
         11   -1    0    0    0    0 -0.00000000000E+00 -0.00000000000E+00 -0.45593999997E+02  0.45594000000E+02  0.51100000000E-03 0. -1.
    9900012    2    1    2    0    0  0.34260046582E+02 -0.26623507860E+02  0.10301337314E+01  0.47787272609E+02  0.20000007132E+02 0.  0.
         12    1    1    2    0    0 -0.34260046582E+02  0.26623507860E+02 -0.10301337314E+01  0.43400727391E+02  0.00000000000E+00 0. -1.
         11    1    3    3    0    0  0.16780155558E+01 -0.26462021904E+01  0.36193084336E+00  0.31542220015E+01  0.51100000000E-03 0. -1.
        -11    1    3    3    0    0  0.33298876722E+02 -0.26041370948E+02  0.14895312050E+01  0.42298781251E+02  0.51100000000E-03 0.  1.
         12    1    3    3    0    0 -0.71684569616E+00  0.20640652781E+01 -0.82132831697E+00  0.23342693565E+01  0.00000000000E+00 0. -1.
</event>
<event>
 7    1  0.2387817E-009  0.4778727E+02  0.7816164E-02  0.1312668E+00
        -11   -1    0    0    0    0  0.00000000000E+00  0.00000000000E+00  0.45593999997E+02  0.45594000000E+02  0.51100000000E-03 0. -1.
         11   -1    0    0    0    0 -0.00000000000E+00 -0.00000000000E+00 -0.45593999997E+02  0.45594000000E+02  0.51100000000E-03 0.  1.
    9900012    2    1    2    0    0 -0.18551955672E+02  0.26700859512E+02 -0.28749125945E+02  0.47787271890E+02  0.20000003853E+02 0.  0.
         12    1    1    2    0    0  0.18551955672E+02 -0.26700859512E+02  0.28749125945E+02  0.43400728110E+02  0.00000000000E+00 0. -1.
         11    1    3    3    0    0 -0.13524946118E+02  0.15688805785E+02 -0.59748228321E+01  0.21558323279E+02  0.51100000000E-03 0. -1.
        -11    1    3    3    0    0 -0.37852319469E+01  0.37533209779E+01 -0.68118264789E+01  0.86496462063E+01  0.51100000000E-03 0.  1.
         12    1    3    3    0    0 -0.12417776073E+01  0.72587327489E+01 -0.15962476634E+02  0.17579302404E+02  0.00000000000E+00 0. -1.
</event>
<event>
 7    1  0.2387817E-009  0.4778727E+02  0.7816164E-02  0.1312668E+00
        -11   -1    0    0    0    0  0.00000000000E+00  0.00000000000E+00  0.45593999997E+02  0.45594000000E+02  0.51100000000E-03 0.  1.
         11   -1    0    0    0    0 -0.00000000000E+00 -0.00000000000E+00 -0.45593999997E+02  0.45594000000E+02  0.51100000000E-03 0. -1.
    9900012    2    1    2    0    0  0.20578526595E+02  0.29830143354E+02  0.23881164685E+02  0.47787271480E+02  0.20000001985E+02 0.  0.
         12    1    1    2    0    0 -0.20578526595E+02 -0.29830143354E+02 -0.23881164685E+02  0.43400728520E+02  0.00000000000E+00 0. -1.
         11    1    3    3    0    0  0.17366626580E+01  0.21460827378E+01  0.11344458255E+02  0.11675547168E+02  0.51100000000E-03 0. -1.
        -11    1    3    3    0    0  0.94200696567E+00  0.43619474955E+01  0.14700902659E+01  0.46984176834E+01  0.51100000000E-03 0.  1.
        -12    1    3    3    0    0  0.17899856971E+02  0.23322113121E+02  0.11066616164E+02  0.31413306629E+02  0.00000000000E+00 0.  1.
</event>
<event>
 7    1  0.2387817E-009  0.4778727E+02  0.7816164E-02  0.1312668E+00
        -11   -1    0    0    0    0  0.00000000000E+00  0.00000000000E+00  0.45593999997E+02  0.45594000000E+02  0.51100000000E-03 0.  1.
         11   -1    0    0    0    0 -0.00000000000E+00 -0.00000000000E+00 -0.45593999997E+02  0.45594000000E+02  0.51100000000E-03 0. -1.
    9900012    2    1    2    0    0  0.13654542953E+02 -0.16018131624E+02  0.37955187582E+02  0.47787270186E+02  0.19999996087E+02 0.  0.
         12    1    1    2    0    0 -0.13654542953E+02  0.16018131624E+02 -0.37955187582E+02  0.43400729814E+02  0.00000000000E+00 0. -1.
         11    1    3    3    0    0  0.52826528039E+01 -0.84923916460E+01  0.18438431687E+02  0.20976246086E+02  0.51100000000E-03 0. -1.
        -11    1    3    3    0    0  0.88736501863E+01 -0.14765230753E+01  0.18614726743E+02  0.20674376411E+02  0.51100000000E-03 0.  1.
         12    1    3    3    0    0 -0.50176003713E+00 -0.60492169026E+01  0.90202915233E+00  0.61366476892E+01  0.00000000000E+00 0. -1.
</event>
<event>
 7    1  0.2387817E-009  0.4778727E+02  0.7816164E-02  0.1312668E+00
        -11   -1    0    0    0    0  0.00000000000E+00  0.00000000000E+00  0.45593999997E+02  0.45594000000E+02  0.51100000000E-03 0.  1.
         11   -1    0    0    0    0 -0.00000000000E+00 -0.00000000000E+00 -0.45593999997E+02  0.45594000000E+02  0.51100000000E-03 0. -1.
    9900012    2    1    2    0    0 -0.14233793674E+02 -0.34223016947E+02  0.22578917069E+02  0.47787271120E+02  0.20000000344E+02 0.  0.
         12    1    1    2    0    0  0.14233793674E+02  0.34223016947E+02 -0.22578917069E+02  0.43400728880E+02  0.00000000000E+00 0. -1.
         11    1    3    3    0    0 -0.53175330090E+01 -0.16647743379E+02  0.10223674978E+02  0.20247149114E+02  0.51100000000E-03 0. -1.
        -11    1    3    3    0    0 -0.10694239113E+02 -0.13550567115E+02  0.34448687066E+01  0.17602606057E+02  0.51100000000E-03 0.  1.
         12    1    3    3    0    0  0.17779784475E+01 -0.40247064533E+01  0.89103733843E+01  0.99375159493E+01  0.00000000000E+00 0. -1.
</event>
<event>
 7    1  0.2387817E-009  0.4778727E+02  0.7816164E-02  0.1312668E+00
        -11   -1    0    0    0    0  0.00000000000E+00  0.00000000000E+00  0.45593999997E+02  0.45594000000E+02  0.51100000000E-03 0.  1.
         11   -1    0    0    0    0 -0.00000000000E+00 -0.00000000000E+00 -0.45593999997E+02  0.45594000000E+02  0.51100000000E-03 0. -1.
    9900012    2    1    2    0    0  0.14706203201E+02 -0.12985021458E+02  0.38713561130E+02  0.47787274082E+02  0.20000013849E+02 0.  0.
         12    1    1    2    0    0 -0.14706203201E+02  0.12985021458E+02 -0.38713561130E+02  0.43400725918E+02  0.00000000000E+00 0. -1.
         11    1    3    3    0    0 -0.22414917327E+01 -0.11614606802E+01  0.65200934991E+01  0.69917734229E+01  0.51100000000E-03 0.  1.
        -11    1    3    3    0    0  0.13478908688E+01 -0.33711256897E+01 -0.43345468417E+00  0.36563891251E+01  0.51100000000E-03 0. -1.
        -12    1    3    3    0    0  0.15599804065E+02 -0.84524350881E+01  0.32626922315E+02  0.37139111534E+02  0.00000000000E+00 0.  1.
</event>
<event>
 7    1  0.2387817E-009  0.4778727E+02  0.7816164E-02  0.1312668E+00
        -11   -1    0    0    0    0  0.00000000000E+00  0.00000000000E+00  0.45593999997E+02  0.45594000000E+02  0.51100000000E-03 0.  1.
         11   -1    0    0    0    0 -0.00000000000E+00 -0.00000000000E+00 -0.45593999997E+02  0.45594000000E+02  0.51100000000E-03 0. -1.
    9900012    2    1    2    0    0 -0.24734796252E+02 -0.20660223115E+02  0.29068336012E+02  0.47787272780E+02  0.20000007911E+02 0.  0.
         12    1    1    2    0    0  0.24734796252E+02  0.20660223115E+02 -0.29068336012E+02  0.43400727220E+02  0.00000000000E+00 0. -1.
         11    1    3    3    0    0 -0.30816232472E+01  0.13626333010E+01  0.23374913178E+01  0.41008581142E+01  0.51100000000E-03 0. -1.
        -11    1    3    3    0    0 -0.19357899606E+02 -0.15663229984E+02  0.27239653395E+02  0.36906148106E+02  0.51100000000E-03 0.  1.
        -12    1    3    3    0    0 -0.22952733990E+01 -0.63596264318E+01 -0.50880870090E+00  0.67802665599E+01  0.00000000000E+00 0.  1.
</event>
<event>
 7    1  0.2387817E-009  0.4778727E+02  0.7816164E-02  0.1312668E+00
        -11   -1    0    0    0    0  0.00000000000E+00  0.00000000000E+00  0.45593999997E+02  0.45594000000E+02  0.51100000000E-03 0. -1.
         11   -1    0    0    0    0 -0.00000000000E+00 -0.00000000000E+00 -0.45593999997E+02  0.45594000000E+02  0.51100000000E-03 0.  1.
    9900012    2    1    2    0    0  0.99957132806E+01 -0.35142461289E+02 -0.23424696842E+02  0.47787270840E+02  0.19999999069E+02 0.  0.
         12    1    1    2    0    0 -0.99957132806E+01  0.35142461289E+02  0.23424696842E+02  0.43400729160E+02  0.00000000000E+00 0. -1.
         11    1    3    3    0    0 -0.31358275314E+01 -0.68598878956E+01 -0.46384935349E+01  0.88547783022E+01  0.51100000000E-03 0. -1.
        -11    1    3    3    0    0  0.34846163522E+01 -0.19701632832E+02 -0.16248881376E+02  0.25774464759E+02  0.51100000000E-03 0.  1.
        -12    1    3    3    0    0  0.96469244598E+01 -0.85809405618E+01 -0.25373219309E+01  0.13158027779E+02  0.00000000000E+00 0.  1.
</event>
<event>
 7    1  0.2387817E-009  0.4778727E+02  0.7816164E-02  0.1312668E+00
        -11   -1    0    0    0    0  0.00000000000E+00  0.00000000000E+00  0.45593999997E+02  0.45594000000E+02  0.51100000000E-03 0. -1.
         11   -1    0    0    0    0 -0.00000000000E+00 -0.00000000000E+00 -0.45593999997E+02  0.45594000000E+02  0.51100000000E-03 0.  1.
    9900012    2    1    2    0    0  0.87773475608E+01  0.74432149966E+01 -0.41847107160E+02  0.47787266627E+02  0.19999979858E+02 0.  0.
         12    1    1    2    0    0 -0.87773475608E+01 -0.74432149966E+01  0.41847107160E+02  0.43400733373E+02  0.00000000000E+00 0. -1.
         11    1    3    3    0    0 -0.34870596914E+01  0.16093616818E+01 -0.43060816603E+01  0.57699193963E+01  0.51100000000E-03 0. -1.
        -11    1    3    3    0    0  0.10531759356E+01  0.53240801467E+01 -0.23095417394E+02  0.23724529791E+02  0.51100000000E-03 0.  1.
        -12    1    3    3    0    0  0.11211231316E+02  0.50977316802E+00 -0.14445608106E+02  0.18292817439E+02  0.00000000000E+00 0.  1.
</event>
<event>
 7    1  0.2387817E-009  0.4778725E+02  0.7816164E-02  0.1312668E+00
        -11   -1    0    0    0    0  0.00000000000E+00  0.00000000000E+00  0.45593999997E+02  0.45594000000E+02  0.51100000000E-03 0. -1.
         11   -1    0    0    0    0 -0.00000000000E+00 -0.00000000000E+00 -0.45593999997E+02  0.45594000000E+02  0.51100000000E-03 0.  1.
    9900012    2    1    2    0    0 -0.32093340661E+02 -0.28218087492E+01  0.29080572382E+02  0.47787253354E+02  0.19999919341E+02 0.  0.
         12    1    1    2    0    0  0.32093340661E+02  0.28218087492E+01 -0.29080572382E+02  0.43400746646E+02  0.00000000000E+00 0. -1.
         11    1    3    3    0    0 -0.29815198639E+01  0.26757989265E+01 -0.27130170423E+00  0.40153412644E+01  0.51100000000E-03 0. -1.
        -11    1    3    3    0    0 -0.84015686197E+01 -0.18640380168E+00  0.13039022187E+01  0.85041909025E+01  0.51100000000E-03 0.  1.
        -12    1    3    3    0    0 -0.20710252177E+02 -0.53112038740E+01  0.28047971867E+02  0.35267721187E+02  0.00000000000E+00 0.  1.
</event>
<event>
 7    1  0.2387817E-009  0.4778727E+02  0.7816164E-02  0.1312668E+00
        -11   -1    0    0    0    0  0.00000000000E+00  0.00000000000E+00  0.45593999997E+02  0.45594000000E+02  0.51100000000E-03 0.  1.
         11   -1    0    0    0    0 -0.00000000000E+00 -0.00000000000E+00 -0.45593999997E+02  0.45594000000E+02  0.51100000000E-03 0. -1.
    9900012    2    1    2    0    0 -0.25192535863E+02 -0.32832022019E+02  0.13077364046E+02  0.47787274390E+02  0.20000015255E+02 0.  0.
         12    1    1    2    0    0  0.25192535863E+02  0.32832022019E+02 -0.13077364046E+02  0.43400725610E+02  0.00000000000E+00 0. -1.
         11    1    3    3    0    0  0.12946295115E+00 -0.65679150952E-01 -0.18945912568E+00  0.23868269316E+00  0.51100000000E-03 0. -1.
        -11    1    3    3    0    0  0.15151255146E+01 -0.85327685766E+01 -0.90051248104E+00  0.87129023808E+01  0.51100000000E-03 0.  1.
        -12    1    3    3    0    0 -0.26837124329E+02 -0.24233574291E+02  0.14167335653E+02  0.38835689316E+02  0.00000000000E+00 0.  1.
</event>
<event>
 7    1  0.2387817E-009  0.4778727E+02  0.7816164E-02  0.1312668E+00
        -11   -1    0    0    0    0  0.00000000000E+00  0.00000000000E+00  0.45593999997E+02  0.45594000000E+02  0.51100000000E-03 0. -1.
         11   -1    0    0    0    0 -0.00000000000E+00 -0.00000000000E+00 -0.45593999997E+02  0.45594000000E+02  0.51100000000E-03 0.  1.
    9900012    2    1    2    0    0  0.31412002463E+02  0.15825324918E+02 -0.25425743556E+02  0.47787271402E+02  0.20000001631E+02 0.  0.
         12    1    1    2    0    0 -0.31412002463E+02 -0.15825324918E+02  0.25425743556E+02  0.43400728598E+02  0.00000000000E+00 0. -1.
         11    1    3    3    0    0  0.14797531945E+02  0.52436309495E+01 -0.40308948644E+01  0.16208353737E+02  0.51100000000E-03 0. -1.
        -11    1    3    3    0    0  0.90765958470E+01  0.71747872653E+01 -0.38701298186E+01  0.12200002850E+02  0.51100000000E-03 0.  1.
        -12    1    3    3    0    0  0.75378746706E+01  0.34069067029E+01 -0.17524718873E+02  0.19378914815E+02  0.00000000000E+00 0.  1.
</event>
<event>
 7    1  0.2387817E-009  0.4778726E+02  0.7816164E-02  0.1312668E+00
        -11   -1    0    0    0    0  0.00000000000E+00  0.00000000000E+00  0.45593999997E+02  0.45594000000E+02  0.51100000000E-03 0.  1.
         11   -1    0    0    0    0 -0.00000000000E+00 -0.00000000000E+00 -0.45593999997E+02  0.45594000000E+02  0.51100000000E-03 0. -1.
    9900012    2    1    2    0    0  0.44451121377E+01  0.42310949837E+02 -0.85818688597E+01  0.47787263012E+02  0.19999963376E+02 0.  0.
         12    1    1    2    0    0 -0.44451121377E+01 -0.42310949837E+02  0.85818688597E+01  0.43400736988E+02  0.00000000000E+00 0. -1.
         11    1    3    3    0    0 -0.27634941033E+01  0.15280419999E+02  0.21807714252E+01  0.15680685548E+02  0.51100000000E-03 0.  1.
        -11    1    3    3    0    0  0.12673412971E+01 -0.33252649051E+00  0.10863954749E+01  0.17020526487E+01  0.51100000000E-03 0. -1.
        -12    1    3    3    0    0  0.59412649440E+01  0.27363056328E+02 -0.11849035760E+02  0.30404524815E+02  0.00000000000E+00 0.  1.
</event>
<event>
 7    1  0.2387817E-009  0.4778727E+02  0.7816164E-02  0.1312668E+00
        -11   -1    0    0    0    0  0.00000000000E+00  0.00000000000E+00  0.45593999997E+02  0.45594000000E+02  0.51100000000E-03 0.  1.
         11   -1    0    0    0    0 -0.00000000000E+00 -0.00000000000E+00 -0.45593999997E+02  0.45594000000E+02  0.51100000000E-03 0. -1.
    9900012    2    1    2    0    0  0.14499552543E+02 -0.21173457528E+01  0.40852212749E+02  0.47787268861E+02  0.19999990044E+02 0.  0.
         12    1    1    2    0    0 -0.14499552543E+02  0.21173457528E+01 -0.40852212749E+02  0.43400731139E+02  0.00000000000E+00 0. -1.
         11    1    3    3    0    0  0.57820038652E+01  0.52715168102E+01  0.17358844362E+02  0.19040744103E+02  0.51100000000E-03 0.  1.
        -11    1    3    3    0    0  0.29258079848E+01  0.32521823634E+01  0.50668692176E+01  0.66940426065E+01  0.51100000000E-03 0. -1.
         12    1    3    3    0    0  0.57917406926E+01 -0.10641044926E+02  0.18426499169E+02  0.22052482151E+02  0.00000000000E+00 0. -1.
</event>
<event>
 7    1  0.2387817E-009  0.4778728E+02  0.7816164E-02  0.1312668E+00
        -11   -1    0    0    0    0  0.00000000000E+00  0.00000000000E+00  0.45593999997E+02  0.45594000000E+02  0.51100000000E-03 0. -1.
         11   -1    0    0    0    0 -0.00000000000E+00 -0.00000000000E+00 -0.45593999997E+02  0.45594000000E+02  0.51100000000E-03 0.  1.
    9900012    2    1    2    0    0 -0.24945453469E+02 -0.20219543368E+02 -0.29197895202E+02  0.47787278036E+02  0.20000031876E+02 0.  0.
         12    1    1    2    0    0  0.24945453469E+02  0.20219543368E+02  0.29197895202E+02  0.43400721964E+02  0.00000000000E+00 0. -1.
         11    1    3    3    0    0 -0.34747841590E+01 -0.91605422309E+01 -0.51040530066E+01  0.11047217580E+02  0.51100000000E-03 0. -1.
        -11    1    3    3    0    0 -0.14235250603E+02 -0.12353836567E+02 -0.11274721443E+02  0.21963127772E+02  0.51100000000E-03 0.  1.
         12    1    3    3    0    0 -0.72354187070E+01  0.12948354295E+01 -0.12819120752E+02  0.14776932683E+02  0.00000000000E+00 0. -1.
</event>
<event>
 7    1  0.2387817E-009  0.4778727E+02  0.7816164E-02  0.1312668E+00
        -11   -1    0    0    0    0  0.00000000000E+00  0.00000000000E+00  0.45593999997E+02  0.45594000000E+02  0.51100000000E-03 0. -1.
         11   -1    0    0    0    0 -0.00000000000E+00 -0.00000000000E+00 -0.45593999997E+02  0.45594000000E+02  0.51100000000E-03 0.  1.
    9900012    2    1    2    0    0 -0.33649435726E+01  0.33394818877E+02 -0.27515209213E+02  0.47787268311E+02  0.19999987537E+02 0.  0.
         12    1    1    2    0    0  0.33649435726E+01 -0.33394818877E+02  0.27515209213E+02  0.43400731689E+02  0.00000000000E+00 0. -1.
         11    1    3    3    0    0 -0.99636313617E-01  0.59572942448E+00  0.17427337378E+01  0.18444354378E+01  0.51100000000E-03 0. -1.
        -11    1    3    3    0    0 -0.28813732375E+01  0.15952037465E+01 -0.66075874889E+01  0.73828991197E+01  0.51100000000E-03 0.  1.
         12    1    3    3    0    0 -0.38393402150E+00  0.31203885706E+02 -0.22650355462E+02  0.38559933753E+02  0.00000000000E+00 0. -1.
</event>
<event>
 7    1  0.2387817E-009  0.4778728E+02  0.7816164E-02  0.1312668E+00
        -11   -1    0    0    0    0  0.00000000000E+00  0.00000000000E+00  0.45593999997E+02  0.45594000000E+02  0.51100000000E-03 0.  1.
         11   -1    0    0    0    0 -0.00000000000E+00 -0.00000000000E+00 -0.45593999997E+02  0.45594000000E+02  0.51100000000E-03 0. -1.
    9900012    2    1    2    0    0 -0.32133122287E+02  0.25258460892E+01  0.29063816229E+02  0.47787275810E+02  0.20000021728E+02 0.  0.
         12    1    1    2    0    0  0.32133122287E+02 -0.25258460892E+01 -0.29063816229E+02  0.43400724190E+02  0.00000000000E+00 0. -1.
         11    1    3    3    0    0 -0.10435608958E+02  0.22429810817E+01  0.16380417309E+02  0.19551239601E+02  0.51100000000E-03 0. -1.
        -11    1    3    3    0    0 -0.62743649019E+01  0.30807082916E+01  0.10200679606E+02  0.12365770627E+02  0.51100000000E-03 0.  1.
         12    1    3    3    0    0 -0.15423148427E+02 -0.27978432841E+01  0.24827193137E+01  0.15870265582E+02  0.00000000000E+00 0. -1.
</event>
<event>
 7    1  0.2387817E-009  0.4778728E+02  0.7816164E-02  0.1312668E+00
        -11   -1    0    0    0    0  0.00000000000E+00  0.00000000000E+00  0.45593999997E+02  0.45594000000E+02  0.51100000000E-03 0. -1.
         11   -1    0    0    0    0 -0.00000000000E+00 -0.00000000000E+00 -0.45593999997E+02  0.45594000000E+02  0.51100000000E-03 0.  1.
    9900012    2    1    2    0    0  0.48243398635E+01 -0.26884551400E+02 -0.33727872929E+02  0.47787276833E+02  0.20000026393E+02 0.  0.
         12    1    1    2    0    0 -0.48243398635E+01  0.26884551400E+02  0.33727872929E+02  0.43400723167E+02  0.00000000000E+00 0. -1.
         11    1    3    3    0    0 -0.33113627463E+01 -0.29997922719E+01 -0.15243110113E+01  0.47209534241E+01  0.51100000000E-03 0. -1.
        -11    1    3    3    0    0  0.97988986401E+00 -0.13685203691E+01 -0.11590684782E+02  0.11712258797E+02  0.51100000000E-03 0.  1.
        -12    1    3    3    0    0  0.71558127457E+01 -0.22516238759E+02 -0.20612877136E+02  0.31354064612E+02  0.00000000000E+00 0.  1.
</event>
<event>
 7    1  0.2519997E-009  0.4778727E+02  0.7816164E-02  0.1312668E+00
        -11   -1    0    0    0    0  0.00000000000E+00  0.00000000000E+00  0.45593999997E+02  0.45594000000E+02  0.51100000000E-03 0. -1.
         11   -1    0    0    0    0 -0.00000000000E+00 -0.00000000000E+00 -0.45593999997E+02  0.45594000000E+02  0.51100000000E-03 0.  1.
    9900012    2    1    2    0    0 -0.85934049988E+01 -0.10672239352E+02 -0.41181062572E+02  0.47787271702E+02  0.20000002999E+02 0.  0.
         12    1    1    2    0    0  0.85934049988E+01  0.10672239352E+02  0.41181062572E+02  0.43400728298E+02  0.00000000000E+00 0. -1.
         11    1    3    3    0    0 -0.28094490528E+01  0.21241292126E+01 -0.94656584959E+01  0.10099684149E+02  0.51100000000E-03 0. -1.
        -11    1    3    3    0    0  0.18359218473E+01 -0.54410296865E+01 -0.23753747368E+02  0.24438001706E+02  0.51100000000E-03 0.  1.
         12    1    3    3    0    0 -0.76198777933E+01 -0.73553388779E+01 -0.79616567072E+01  0.13249585847E+02  0.00000000000E+00 0. -1.
</event>
<event>
 7    1  0.2387817E-009  0.4778727E+02  0.7816164E-02  0.1312668E+00
        -11   -1    0    0    0    0  0.00000000000E+00  0.00000000000E+00  0.45593999997E+02  0.45594000000E+02  0.51100000000E-03 0. -1.
         11   -1    0    0    0    0 -0.00000000000E+00 -0.00000000000E+00 -0.45593999997E+02  0.45594000000E+02  0.51100000000E-03 0.  1.
    9900012    2    1    2    0    0 -0.25268077441E+02  0.37650856383E+01 -0.35085206038E+02  0.47787270857E+02  0.19999999145E+02 0.  0.
         12    1    1    2    0    0  0.25268077441E+02 -0.37650856383E+01  0.35085206038E+02  0.43400729143E+02  0.00000000000E+00 0. -1.
         11    1    3    3    0    0 -0.12536744979E+02  0.42965888143E+00 -0.10768169889E+02  0.16532031467E+02  0.51100000000E-03 0. -1.
        -11    1    3    3    0    0 -0.12797513594E+02 -0.26000741955E+01 -0.12734093368E+02  0.18239897866E+02  0.51100000000E-03 0.  1.
         12    1    3    3    0    0  0.66181131806E-01  0.59355009523E+01 -0.11582942781E+02  0.13015341523E+02  0.00000000000E+00 0. -1.
</event>
<event>
 7    1  0.2387817E-009  0.4778727E+02  0.7816164E-02  0.1312668E+00
        -11   -1    0    0    0    0  0.00000000000E+00  0.00000000000E+00  0.45593999997E+02  0.45594000000E+02  0.51100000000E-03 0.  1.
         11   -1    0    0    0    0 -0.00000000000E+00 -0.00000000000E+00 -0.45593999997E+02  0.45594000000E+02  0.51100000000E-03 0. -1.
    9900012    2    1    2    0    0 -0.13223581660E+02  0.38438151367E+02  0.15207532809E+02  0.47787266751E+02  0.19999980425E+02 0.  0.
         12    1    1    2    0    0  0.13223581660E+02 -0.38438151367E+02 -0.15207532809E+02  0.43400733249E+02  0.00000000000E+00 0. -1.
         11    1    3    3    0    0  0.14830448417E+01  0.14843433113E+01  0.26218888086E+00  0.21145780522E+01  0.51100000000E-03 0. -1.
        -11    1    3    3    0    0 -0.11972600696E+02  0.37659705785E+02  0.16034486808E+02  0.42646235176E+02  0.51100000000E-03 0.  1.
         12    1    3    3    0    0 -0.27340258058E+01 -0.70589772964E+00 -0.10891428802E+01  0.30264535227E+01  0.00000000000E+00 0. -1.
</event>
<event>
 7    1  0.2387817E-009  0.4778727E+02  0.7816164E-02  0.1312668E+00
        -11   -1    0    0    0    0  0.00000000000E+00  0.00000000000E+00  0.45593999997E+02  0.45594000000E+02  0.51100000000E-03 0.  1.
         11   -1    0    0    0    0 -0.00000000000E+00 -0.00000000000E+00 -0.45593999997E+02  0.45594000000E+02  0.51100000000E-03 0. -1.
    9900012    2    1    2    0    0 -0.16516700384E+02 -0.31428986097E+02  0.24960781723E+02  0.47787272093E+02  0.20000004779E+02 0.  0.
         12    1    1    2    0    0  0.16516700384E+02  0.31428986097E+02 -0.24960781723E+02  0.43400727907E+02  0.00000000000E+00 0. -1.
         11    1    3    3    0    0 -0.84880135007E-01 -0.36352983230E+00 -0.98107653914E+00  0.10496999634E+01  0.51100000000E-03 0. -1.
        -11    1    3    3    0    0 -0.18424503534E+02 -0.26423815243E+02  0.16891797724E+02  0.36373248041E+02  0.51100000000E-03 0.  1.
        -12    1    3    3    0    0  0.19926832852E+01 -0.46416410224E+01  0.90500605388E+01  0.10364324089E+02  0.00000000000E+00 0.  1.
</event>
<event>
 7    1  0.2387817E-009  0.4778727E+02  0.7816164E-02  0.1312668E+00
        -11   -1    0    0    0    0  0.00000000000E+00  0.00000000000E+00  0.45593999997E+02  0.45594000000E+02  0.51100000000E-03 0.  1.
         11   -1    0    0    0    0 -0.00000000000E+00 -0.00000000000E+00 -0.45593999997E+02  0.45594000000E+02  0.51100000000E-03 0. -1.
    9900012    2    1    2    0    0  0.21864573173E+02  0.14120349679E+02  0.34730095492E+02  0.47787269960E+02  0.19999995057E+02 0.  0.
         12    1    1    2    0    0 -0.21864573173E+02 -0.14120349679E+02 -0.34730095492E+02  0.43400730040E+02  0.00000000000E+00 0. -1.
         11    1    3    3    0    0  0.87256199825E+01  0.40915604008E+01  0.11214147513E+01  0.97023132241E+01  0.51100000000E-03 0. -1.
        -11    1    3    3    0    0 -0.36757343611E+00  0.20903599339E+01  0.56585892818E+01  0.60435376896E+01  0.51100000000E-03 0.  1.
         12    1    3    3    0    0  0.13506526627E+02  0.79384293445E+01  0.27950091459E+02  0.32041419047E+02  0.00000000000E+00 0. -1.
</event>
<event>
 7    1  0.2387817E-009  0.4778727E+02  0.7816164E-02  0.1312668E+00
        -11   -1    0    0    0    0  0.00000000000E+00  0.00000000000E+00  0.45593999997E+02  0.45594000000E+02  0.51100000000E-03 0.  1.
         11   -1    0    0    0    0 -0.00000000000E+00 -0.00000000000E+00 -0.45593999997E+02  0.45594000000E+02  0.51100000000E-03 0. -1.
    9900012    2    1    2    0    0 -0.11814378955E+02 -0.29969029735E+02  0.29084383400E+02  0.47787266699E+02  0.19999980187E+02 0.  0.
         12    1    1    2    0    0  0.11814378955E+02  0.29969029735E+02 -0.29084383400E+02  0.43400733301E+02  0.00000000000E+00 0. -1.
         11    1    3    3    0    0 -0.84110964505E+01 -0.10439680461E+02  0.85540545018E+01  0.15902997211E+02  0.51100000000E-03 0. -1.
        -11    1    3    3    0    0 -0.52107133092E+01 -0.11993797167E+02  0.20280550674E+02  0.24130964332E+02  0.51100000000E-03 0.  1.
        -12    1    3    3    0    0  0.18074308050E+01 -0.75355521074E+01  0.24977822340E+00  0.77533051558E+01  0.00000000000E+00 0.  1.
</event>
<event>
 7    1  0.2387817E-009  0.4778727E+02  0.7816164E-02  0.1312668E+00
        -11   -1    0    0    0    0  0.00000000000E+00  0.00000000000E+00  0.45593999997E+02  0.45594000000E+02  0.51100000000E-03 0. -1.
         11   -1    0    0    0    0 -0.00000000000E+00 -0.00000000000E+00 -0.45593999997E+02  0.45594000000E+02  0.51100000000E-03 0.  1.
    9900012    2    1    2    0    0 -0.39268718546E+02  0.17134659268E+02  0.69278046334E+01  0.47787270957E+02  0.19999999599E+02 0.  0.
         12    1    1    2    0    0  0.39268718546E+02 -0.17134659268E+02 -0.69278046334E+01  0.43400729043E+02  0.00000000000E+00 0. -1.
         11    1    3    3    0    0 -0.10365052693E+02  0.38496454520E+01  0.32442208447E+01  0.11522979501E+02  0.51100000000E-03 0. -1.
        -11    1    3    3    0    0 -0.29541353566E+02  0.12791299636E+02  0.69215126662E+01  0.32927439238E+02  0.51100000000E-03 0.  1.
        -12    1    3    3    0    0  0.63768771288E+00  0.49371418014E+00 -0.32379288775E+01  0.33368522182E+01  0.00000000000E+00 0.  1.
</event>
<event>
 7    1  0.2387817E-009  0.4778728E+02  0.7816164E-02  0.1312668E+00
        -11   -1    0    0    0    0  0.00000000000E+00  0.00000000000E+00  0.45593999997E+02  0.45594000000E+02  0.51100000000E-03 0.  1.
         11   -1    0    0    0    0 -0.00000000000E+00 -0.00000000000E+00 -0.45593999997E+02  0.45594000000E+02  0.51100000000E-03 0. -1.
    9900012    2    1    2    0    0  0.21806681034E+02  0.79074534485E+01  0.36681925320E+02  0.47787276470E+02  0.20000024738E+02 0.  0.
         12    1    1    2    0    0 -0.21806681034E+02 -0.79074534485E+01 -0.36681925320E+02  0.43400723530E+02  0.00000000000E+00 0. -1.
         11    1    3    3    0    0 -0.55411752105E-01  0.30722234763E+01  0.66437020904E+01  0.73198637472E+01  0.51100000000E-03 0. -1.
        -11    1    3    3    0    0  0.13492076400E+02  0.58010006077E+01  0.28271652846E+02  0.31858657984E+02  0.51100000000E-03 0.  1.
         12    1    3    3    0    0  0.83700163870E+01 -0.96577063550E+00  0.17665703831E+01  0.86087547390E+01  0.00000000000E+00 0. -1.
</event>
<event>
 7    1  0.2387817E-009  0.4778727E+02  0.7816164E-02  0.1312668E+00
        -11   -1    0    0    0    0  0.00000000000E+00  0.00000000000E+00  0.45593999997E+02  0.45594000000E+02  0.51100000000E-03 0.  1.
         11   -1    0    0    0    0 -0.00000000000E+00 -0.00000000000E+00 -0.45593999997E+02  0.45594000000E+02  0.51100000000E-03 0. -1.
    9900012    2    1    2    0    0 -0.27513747888E+02  0.22184007948E+02  0.25189018601E+02  0.47787272016E+02  0.20000004430E+02 0.  0.
         12    1    1    2    0    0  0.27513747888E+02 -0.22184007948E+02 -0.25189018601E+02  0.43400727984E+02  0.00000000000E+00 0. -1.
         11    1    3    3    0    0 -0.42904714259E+01 -0.28457903417E+00  0.17725865623E+00  0.43035509960E+01  0.51100000000E-03 0. -1.
        -11    1    3    3    0    0 -0.18554986848E+02  0.79942479868E+01  0.12228203835E+02  0.23616191630E+02  0.51100000000E-03 0.  1.
         12    1    3    3    0    0 -0.46682896142E+01  0.14474338995E+02  0.12783556109E+02  0.19867529390E+02  0.00000000000E+00 0. -1.
</event>
<event>
 7    1  0.2387817E-009  0.4778727E+02  0.7816164E-02  0.1312668E+00
        -11   -1    0    0    0    0  0.00000000000E+00  0.00000000000E+00  0.45593999997E+02  0.45594000000E+02  0.51100000000E-03 0.  1.
         11   -1    0    0    0    0 -0.00000000000E+00 -0.00000000000E+00 -0.45593999997E+02  0.45594000000E+02  0.51100000000E-03 0. -1.
    9900012    2    1    2    0    0 -0.34849401493E+02  0.15266352580E+02  0.20882551609E+02  0.47787271121E+02  0.20000000350E+02 0.  0.
         12    1    1    2    0    0  0.34849401493E+02 -0.15266352580E+02 -0.20882551609E+02  0.43400728879E+02  0.00000000000E+00 0. -1.
         11    1    3    3    0    0 -0.12149554546E+02 -0.72034507153E+00  0.20455895021E+01  0.12341596711E+02  0.51100000000E-03 0. -1.
        -11    1    3    3    0    0 -0.31422996186E+01 -0.61181387381E+00 -0.60598303866E+00  0.32581557381E+01  0.51100000000E-03 0.  1.
        -12    1    3    3    0    0 -0.19557547327E+02  0.16598511526E+02  0.19442945146E+02  0.32187518672E+02  0.00000000000E+00 0.  1.
</event>
<event>
 7    1  0.2387817E-009  0.4778727E+02  0.7816164E-02  0.1312668E+00
        -11   -1    0    0    0    0  0.00000000000E+00  0.00000000000E+00  0.45593999997E+02  0.45594000000E+02  0.51100000000E-03 0.  1.
         11   -1    0    0    0    0 -0.00000000000E+00 -0.00000000000E+00 -0.45593999997E+02  0.45594000000E+02  0.51100000000E-03 0. -1.
    9900012    2    1    2    0    0 -0.13820436278E+02  0.19850436686E+02  0.36035801480E+02  0.47787270929E+02  0.19999999476E+02 0.  0.
         12    1    1    2    0    0  0.13820436278E+02 -0.19850436686E+02 -0.36035801480E+02  0.43400729071E+02  0.00000000000E+00 0. -1.
         11    1    3    3    0    0  0.16542889985E+01  0.81350063054E+01  0.92396127627E+01  0.12421169186E+02  0.51100000000E-03 0. -1.
        -11    1    3    3    0    0  0.16661238886E+01  0.21399307000E+01  0.68976109777E+01  0.74116334012E+01  0.51100000000E-03 0.  1.
        -12    1    3    3    0    0 -0.17140849165E+02  0.95754996810E+01  0.19898577740E+02  0.27954468342E+02  0.00000000000E+00 0.  1.
</event>
<event>
 7    1  0.2387817E-009  0.4778727E+02  0.7816164E-02  0.1312668E+00
        -11   -1    0    0    0    0  0.00000000000E+00  0.00000000000E+00  0.45593999997E+02  0.45594000000E+02  0.51100000000E-03 0.  1.
         11   -1    0    0    0    0 -0.00000000000E+00 -0.00000000000E+00 -0.45593999997E+02  0.45594000000E+02  0.51100000000E-03 0. -1.
    9900012    2    1    2    0    0 -0.23297476396E+02 -0.36461635703E+02  0.33764213230E+01  0.47787268376E+02  0.19999987832E+02 0.  0.
         12    1    1    2    0    0  0.23297476396E+02  0.36461635703E+02 -0.33764213230E+01  0.43400731624E+02  0.00000000000E+00 0. -1.
         11    1    3    3    0    0 -0.73238110147E+01 -0.14346759090E+02 -0.33137401750E+01  0.16445320866E+02  0.51100000000E-03 0. -1.
        -11    1    3    3    0    0 -0.13452707330E+01 -0.41163038320E+01 -0.39158850769E+01  0.58384815474E+01  0.51100000000E-03 0.  1.
         12    1    3    3    0    0 -0.14628394648E+02 -0.17998572781E+02  0.10606046575E+02  0.25503465962E+02  0.00000000000E+00 0. -1.
</event>
<event>
 7    1  0.2387817E-009  0.4778727E+02  0.7816164E-02  0.1312668E+00
        -11   -1    0    0    0    0  0.00000000000E+00  0.00000000000E+00  0.45593999997E+02  0.45594000000E+02  0.51100000000E-03 0.  1.
         11   -1    0    0    0    0 -0.00000000000E+00 -0.00000000000E+00 -0.45593999997E+02  0.45594000000E+02  0.51100000000E-03 0. -1.
    9900012    2    1    2    0    0 -0.10282808207E+01  0.33227021661E+02  0.27902172518E+02  0.47787267735E+02  0.19999984911E+02 0.  0.
         12    1    1    2    0    0  0.10282808207E+01 -0.33227021661E+02 -0.27902172518E+02  0.43400732265E+02  0.00000000000E+00 0. -1.
         11    1    3    3    0    0  0.29434958216E+01  0.18049512371E+02  0.20396503982E+02  0.27394642531E+02  0.51100000000E-03 0. -1.
        -11    1    3    3    0    0  0.25110587429E+01  0.15088358715E+00  0.16627494580E+01  0.30154465488E+01  0.51100000000E-03 0.  1.
        -12    1    3    3    0    0 -0.64828353851E+01  0.15026625703E+02  0.58429190787E+01  0.17377178655E+02  0.00000000000E+00 0.  1.
</event>
<event>
 7    1  0.2387817E-009  0.4778727E+02  0.7816164E-02  0.1312668E+00
        -11   -1    0    0    0    0  0.00000000000E+00  0.00000000000E+00  0.45593999997E+02  0.45594000000E+02  0.51100000000E-03 0. -1.
         11   -1    0    0    0    0 -0.00000000000E+00 -0.00000000000E+00 -0.45593999997E+02  0.45594000000E+02  0.51100000000E-03 0.  1.
    9900012    2    1    2    0    0  0.32670238132E+01  0.16664745562E+02  0.39940403406E+02  0.47787274044E+02  0.20000013677E+02 0.  0.
         12    1    1    2    0    0 -0.32670238132E+01 -0.16664745562E+02 -0.39940403406E+02  0.43400725956E+02  0.00000000000E+00 0. -1.
         11    1    3    3    0    0 -0.12452622962E+01 -0.38619370436E+00  0.17862127424E+01  0.22114203548E+01  0.51100000000E-03 0. -1.
        -11    1    3    3    0    0  0.61240217728E+01  0.20352656397E+02  0.32490500226E+02  0.38824822862E+02  0.51100000000E-03 0.  1.
        -12    1    3    3    0    0 -0.16117356634E+01 -0.33017171303E+01  0.56636904374E+01  0.67510308270E+01  0.00000000000E+00 0.  1.
</event>
<event>
 7    1  0.2387817E-009  0.4778727E+02  0.7816164E-02  0.1312668E+00
        -11   -1    0    0    0    0  0.00000000000E+00  0.00000000000E+00  0.45593999997E+02  0.45594000000E+02  0.51100000000E-03 0.  1.
         11   -1    0    0    0    0 -0.00000000000E+00 -0.00000000000E+00 -0.45593999997E+02  0.45594000000E+02  0.51100000000E-03 0. -1.
    9900012    2    1    2    0    0  0.37248314743E+02  0.21120591393E+02  0.70786221704E+01  0.47787271621E+02  0.20000002627E+02 0.  0.
         12    1    1    2    0    0 -0.37248314743E+02 -0.21120591393E+02 -0.70786221704E+01  0.43400728379E+02  0.00000000000E+00 0. -1.
         11    1    3    3    0    0  0.43868566602E+01  0.10798655804E+01 -0.88322719603E+00  0.46033370037E+01  0.51100000000E-03 0.  1.
        -11    1    3    3    0    0  0.21560650967E+02  0.15599214388E+02  0.13497605408E+02  0.29839278002E+02  0.51100000000E-03 0. -1.
         12    1    3    3    0    0  0.11300807116E+02  0.44415114247E+01 -0.55357560420E+01  0.13344656615E+02  0.00000000000E+00 0. -1.
</event>
<event>
 7    1  0.2387817E-009  0.4778726E+02  0.7816164E-02  0.1312668E+00
        -11   -1    0    0    0    0  0.00000000000E+00  0.00000000000E+00  0.45593999997E+02  0.45594000000E+02  0.51100000000E-03 0.  1.
         11   -1    0    0    0    0 -0.00000000000E+00 -0.00000000000E+00 -0.45593999997E+02  0.45594000000E+02  0.51100000000E-03 0. -1.
    9900012    2    1    2    0    0  0.19664793638E+02  0.37654136484E+02  0.88930293674E+01  0.47787261821E+02  0.19999957946E+02 0.  0.
         12    1    1    2    0    0 -0.19664793638E+02 -0.37654136484E+02 -0.88930293674E+01  0.43400738179E+02  0.00000000000E+00 0. -1.
         11    1    3    3    0    0  0.19626171580E+00  0.12306741371E+02  0.27275067077E+01  0.12606890772E+02  0.51100000000E-03 0. -1.
        -11    1    3    3    0    0  0.57056278405E+01  0.11240150381E+02  0.86902568052E+01  0.15310641177E+02  0.51100000000E-03 0.  1.
         12    1    3    3    0    0  0.13762904082E+02  0.14107244732E+02 -0.25247341455E+01  0.19869729872E+02  0.00000000000E+00 0. -1.
</event>
<event>
 7    1  0.2387817E-009  0.4778727E+02  0.7816164E-02  0.1312668E+00
        -11   -1    0    0    0    0  0.00000000000E+00  0.00000000000E+00  0.45593999997E+02  0.45594000000E+02  0.51100000000E-03 0. -1.
         11   -1    0    0    0    0 -0.00000000000E+00 -0.00000000000E+00 -0.45593999997E+02  0.45594000000E+02  0.51100000000E-03 0.  1.
    9900012    2    1    2    0    0 -0.24233327450E+02 -0.62803158297E+01 -0.35453163132E+02  0.47787270718E+02  0.19999998510E+02 0.  0.
         12    1    1    2    0    0  0.24233327450E+02  0.62803158297E+01  0.35453163132E+02  0.43400729282E+02  0.00000000000E+00 0. -1.
         11    1    3    3    0    0 -0.51301968262E+00 -0.25365827994E+01  0.58782916233E+00  0.26538622568E+01  0.51100000000E-03 0. -1.
        -11    1    3    3    0    0 -0.74628073426E+01 -0.42324109422E+01 -0.46007249695E+01  0.97351664763E+01  0.51100000000E-03 0.  1.
        -12    1    3    3    0    0 -0.16257500425E+02  0.48867791191E+00 -0.31440267324E+02  0.35398241984E+02  0.00000000000E+00 0.  1.
</event>
<event>
 7    1  0.3383159E-009  0.4778733E+02  0.7816164E-02  0.1312667E+00
        -11   -1    0    0    0    0  0.00000000000E+00  0.00000000000E+00  0.45593999997E+02  0.45594000000E+02  0.51100000000E-03 0. -1.
         11   -1    0    0    0    0 -0.00000000000E+00 -0.00000000000E+00 -0.45593999997E+02  0.45594000000E+02  0.51100000000E-03 0.  1.
    9900012    2    1    2    0    0 -0.23324472705E+02 -0.36229896643E+02 -0.51943791385E+01  0.47787331660E+02  0.20000276367E+02 0.  0.
         12    1    1    2    0    0  0.23324472705E+02  0.36229896643E+02  0.51943791385E+01  0.43400668340E+02  0.00000000000E+00 0. -1.
         11    1    3    3    0    0 -0.99339373362E+00 -0.46490794949E+01  0.38721919808E+01  0.61314469954E+01  0.51100000000E-03 0. -1.
        -11    1    3    3    0    0 -0.16967426523E+02 -0.30861080991E+02 -0.83763498083E+01  0.36200319324E+02  0.51100000000E-03 0.  1.
         12    1    3    3    0    0 -0.53636524487E+01 -0.71973615679E+00 -0.69022131103E+00  0.54555653405E+01  0.00000000000E+00 0. -1.
</event>
<event>
 7    1  0.2387817E-009  0.4778729E+02  0.7816164E-02  0.1312668E+00
        -11   -1    0    0    0    0  0.00000000000E+00  0.00000000000E+00  0.45593999997E+02  0.45594000000E+02  0.51100000000E-03 0. -1.
         11   -1    0    0    0    0 -0.00000000000E+00 -0.00000000000E+00 -0.45593999997E+02  0.45594000000E+02  0.51100000000E-03 0.  1.
    9900012    2    1    2    0    0  0.29063526431E+02 -0.18489670706E+02 -0.26401990044E+02  0.47787290677E+02  0.20000089514E+02 0.  0.
         12    1    1    2    0    0 -0.29063526431E+02  0.18489670706E+02  0.26401990044E+02  0.43400709323E+02  0.00000000000E+00 0. -1.
         11    1    3    3    0    0  0.10734042939E+02 -0.74484075215E+01 -0.11493404641E+02  0.17401057523E+02  0.51100000000E-03 0. -1.
        -11    1    3    3    0    0  0.15437696276E+02 -0.30042257083E+01 -0.15155549443E+02  0.21841211450E+02  0.51100000000E-03 0.  1.
         12    1    3    3    0    0  0.28917872169E+01 -0.80370374757E+01  0.24696404023E+00  0.85450217046E+01  0.00000000000E+00 0. -1.
</event>
<event>
 7    1  0.2387817E-009  0.4778727E+02  0.7816164E-02  0.1312668E+00
        -11   -1    0    0    0    0  0.00000000000E+00  0.00000000000E+00  0.45593999997E+02  0.45594000000E+02  0.51100000000E-03 0.  1.
         11   -1    0    0    0    0 -0.00000000000E+00 -0.00000000000E+00 -0.45593999997E+02  0.45594000000E+02  0.51100000000E-03 0. -1.
    9900012    2    1    2    0    0 -0.27249661823E+02  0.24322764971E+02  0.23441043600E+02  0.47787268551E+02  0.19999988629E+02 0.  0.
         12    1    1    2    0    0  0.27249661823E+02 -0.24322764971E+02 -0.23441043600E+02  0.43400731449E+02  0.00000000000E+00 0. -1.
         11    1    3    3    0    0  0.13602968799E+01  0.16539691248E+01  0.46736725717E+01  0.51409373694E+01  0.51100000000E-03 0. -1.
        -11    1    3    3    0    0 -0.41447688827E+01  0.56197094154E+01  0.87375136841E+01  0.11185007315E+02  0.51100000000E-03 0.  1.
         12    1    3    3    0    0 -0.24465189820E+02  0.17049086431E+02  0.10029857344E+02  0.31461323866E+02  0.00000000000E+00 0. -1.
</event>
<event>
 7    1  0.2387817E-009  0.4778727E+02  0.7816164E-02  0.1312668E+00
        -11   -1    0    0    0    0  0.00000000000E+00  0.00000000000E+00  0.45593999997E+02  0.45594000000E+02  0.51100000000E-03 0.  1.
         11   -1    0    0    0    0 -0.00000000000E+00 -0.00000000000E+00 -0.45593999997E+02  0.45594000000E+02  0.51100000000E-03 0. -1.
    9900012    2    1    2    0    0  0.38592372511E+02  0.16464394899E+02  0.11098447442E+02  0.47787273612E+02  0.20000011705E+02 0.  0.
         12    1    1    2    0    0 -0.38592372511E+02 -0.16464394899E+02 -0.11098447442E+02  0.43400726388E+02  0.00000000000E+00 0. -1.
         11    1    3    3    0    0  0.10544599355E+02  0.10935482228E+02  0.68571091572E+01  0.16667132128E+02  0.51100000000E-03 0.  1.
        -11    1    3    3    0    0 -0.96477997058E+00  0.23480302249E+00  0.10680159512E+01  0.14582836433E+01  0.51100000000E-03 0. -1.
         12    1    3    3    0    0  0.29012553127E+02  0.52941096479E+01  0.31733223340E+01  0.29661857840E+02  0.00000000000E+00 0. -1.
</event>
<event>
 7    1  0.2387817E-009  0.4778727E+02  0.7816164E-02  0.1312668E+00
        -11   -1    0    0    0    0  0.00000000000E+00  0.00000000000E+00  0.45593999997E+02  0.45594000000E+02  0.51100000000E-03 0. -1.
         11   -1    0    0    0    0 -0.00000000000E+00 -0.00000000000E+00 -0.45593999997E+02  0.45594000000E+02  0.51100000000E-03 0.  1.
    9900012    2    1    2    0    0 -0.11518197430E+02 -0.38435665607E+02 -0.16542491037E+02  0.47787271061E+02  0.20000000077E+02 0.  0.
         12    1    1    2    0    0  0.11518197430E+02  0.38435665607E+02  0.16542491037E+02  0.43400728939E+02  0.00000000000E+00 0. -1.
         11    1    3    3    0    0 -0.18199190679E+01 -0.23164918587E+01  0.94744362059E+00  0.30944934352E+01  0.51100000000E-03 0. -1.
        -11    1    3    3    0    0 -0.12740850168E+02 -0.35620878774E+02 -0.14875573385E+02  0.40650448355E+02  0.51100000000E-03 0.  1.
        -12    1    3    3    0    0  0.30425718057E+01 -0.49829497416E+00 -0.26143612725E+01  0.40423292713E+01  0.00000000000E+00 0.  1.
</event>
<event>
 7    1  0.2387817E-009  0.4778727E+02  0.7816164E-02  0.1312668E+00
        -11   -1    0    0    0    0  0.00000000000E+00  0.00000000000E+00  0.45593999997E+02  0.45594000000E+02  0.51100000000E-03 0.  1.
         11   -1    0    0    0    0 -0.00000000000E+00 -0.00000000000E+00 -0.45593999997E+02  0.45594000000E+02  0.51100000000E-03 0. -1.
    9900012    2    1    2    0    0  0.93957872388E+00 -0.19142324718E+01  0.43348313665E+02  0.47787269686E+02  0.19999993807E+02 0.  0.
         12    1    1    2    0    0 -0.93957872388E+00  0.19142324718E+01 -0.43348313665E+02  0.43400730314E+02  0.00000000000E+00 0. -1.
         11    1    3    3    0    0 -0.21678042424E+01  0.55117454627E+00 -0.57813197207E+00  0.23102825481E+01  0.51100000000E-03 0.  1.
        -11    1    3    3    0    0  0.41069749973E+01 -0.39179065421E+01  0.99522875599E+01  0.11457105360E+02  0.51100000000E-03 0. -1.
        -12    1    3    3    0    0 -0.99959203102E+00  0.14524995240E+01  0.33974158078E+02  0.34019881778E+02  0.00000000000E+00 0.  1.
</event>
<event>
 7    1  0.2387817E-009  0.4778729E+02  0.7816164E-02  0.1312668E+00
        -11   -1    0    0    0    0  0.00000000000E+00  0.00000000000E+00  0.45593999997E+02  0.45594000000E+02  0.51100000000E-03 0.  1.
         11   -1    0    0    0    0 -0.00000000000E+00 -0.00000000000E+00 -0.45593999997E+02  0.45594000000E+02  0.51100000000E-03 0. -1.
    9900012    2    1    2    0    0  0.19329514211E+01  0.22498281299E+02  0.37063627688E+02  0.47787291941E+02  0.20000095274E+02 0.  0.
         12    1    1    2    0    0 -0.19329514211E+01 -0.22498281299E+02 -0.37063627688E+02  0.43400708059E+02  0.00000000000E+00 0. -1.
         11    1    3    3    0    0 -0.21269712987E+01  0.93563196443E+01  0.11980491093E+02  0.15349165817E+02  0.51100000000E-03 0. -1.
        -11    1    3    3    0    0  0.45486308087E+01  0.15827703726E+02  0.24692616082E+02  0.29680490844E+02  0.51100000000E-03 0.  1.
        -12    1    3    3    0    0 -0.48870808885E+00 -0.26857420706E+01  0.39052051280E+00  0.27576352799E+01  0.00000000000E+00 0.  1.
</event>
<event>
 7    1  0.2387817E-009  0.4778727E+02  0.7816164E-02  0.1312668E+00
        -11   -1    0    0    0    0  0.00000000000E+00  0.00000000000E+00  0.45593999997E+02  0.45594000000E+02  0.51100000000E-03 0.  1.
         11   -1    0    0    0    0 -0.00000000000E+00 -0.00000000000E+00 -0.45593999997E+02  0.45594000000E+02  0.51100000000E-03 0. -1.
    9900012    2    1    2    0    0  0.23705672082E+02 -0.29887493201E+02  0.20697884572E+02  0.47787267696E+02  0.19999984735E+02 0.  0.
         12    1    1    2    0    0 -0.23705672082E+02  0.29887493201E+02 -0.20697884572E+02  0.43400732304E+02  0.00000000000E+00 0. -1.
         11    1    3    3    0    0  0.40696042100E+00  0.48433313472E+00 -0.11092387230E+01  0.12769519080E+01  0.51100000000E-03 0. -1.
        -11    1    3    3    0    0  0.75104094916E+01 -0.19398777275E+02  0.60851291581E+01  0.21673661611E+02  0.51100000000E-03 0.  1.
        -12    1    3    3    0    0  0.15788302169E+02 -0.10973049061E+02  0.15721994137E+02  0.24836654177E+02  0.00000000000E+00 0.  1.
</event>
<event>
 7    1  0.2387817E-009  0.4778723E+02  0.7816164E-02  0.1312668E+00
        -11   -1    0    0    0    0  0.00000000000E+00  0.00000000000E+00  0.45593999997E+02  0.45594000000E+02  0.51100000000E-03 0. -1.
         11   -1    0    0    0    0 -0.00000000000E+00 -0.00000000000E+00 -0.45593999997E+02  0.45594000000E+02  0.51100000000E-03 0.  1.
    9900012    2    1    2    0    0  0.33780168157E+02  0.26847889962E+02 -0.46602083480E+01  0.47787233901E+02  0.19999830646E+02 0.  0.
         12    1    1    2    0    0 -0.33780168157E+02 -0.26847889962E+02  0.46602083480E+01  0.43400766099E+02  0.00000000000E+00 0. -1.
         11    1    3    3    0    0  0.11940589225E+02  0.17114312113E+01 -0.18311346404E+01  0.12200808258E+02  0.51100000000E-03 0. -1.
        -11    1    3    3    0    0  0.20545747961E+02  0.17166446383E+02 -0.49751922928E+01  0.27231731111E+02  0.51100000000E-03 0.  1.
         12    1    3    3    0    0  0.12938309718E+01  0.79700123677E+01  0.21461185852E+01  0.83546945310E+01  0.00000000000E+00 0. -1.
</event>
<event>
 7    1  0.2387817E-009  0.4778727E+02  0.7816164E-02  0.1312668E+00
        -11   -1    0    0    0    0  0.00000000000E+00  0.00000000000E+00  0.45593999997E+02  0.45594000000E+02  0.51100000000E-03 0.  1.
         11   -1    0    0    0    0 -0.00000000000E+00 -0.00000000000E+00 -0.45593999997E+02  0.45594000000E+02  0.51100000000E-03 0. -1.
    9900012    2    1    2    0    0 -0.33609693065E+02  0.19577874567E+02  0.19254051757E+02  0.47787272477E+02  0.20000006531E+02 0.  0.
         12    1    1    2    0    0  0.33609693065E+02 -0.19577874567E+02 -0.19254051757E+02  0.43400727523E+02  0.00000000000E+00 0. -1.
         11    1    3    3    0    0 -0.10256730623E+02  0.63553694340E+01  0.34655884465E+01  0.12553945486E+02  0.51100000000E-03 0. -1.
        -11    1    3    3    0    0 -0.24486767556E+01  0.89756128390E+01  0.87471695372E+01  0.12769910683E+02  0.51100000000E-03 0.  1.
         12    1    3    3    0    0 -0.20904285686E+02  0.42468922939E+01  0.70412937736E+01  0.22463416308E+02  0.00000000000E+00 0. -1.
</event>
<event>
 7    1  0.2387817E-009  0.4778727E+02  0.7816164E-02  0.1312668E+00
        -11   -1    0    0    0    0  0.00000000000E+00  0.00000000000E+00  0.45593999997E+02  0.45594000000E+02  0.51100000000E-03 0.  1.
         11   -1    0    0    0    0 -0.00000000000E+00 -0.00000000000E+00 -0.45593999997E+02  0.45594000000E+02  0.51100000000E-03 0. -1.
    9900012    2    1    2    0    0 -0.18947672316E+02  0.23127997680E+02  0.31459576256E+02  0.47787268427E+02  0.19999988065E+02 0.  0.
         12    1    1    2    0    0  0.18947672316E+02 -0.23127997680E+02 -0.31459576256E+02  0.43400731573E+02  0.00000000000E+00 0. -1.
         11    1    3    3    0    0 -0.95639898126E+00 -0.13857279143E+01  0.28587657440E+01  0.33177526587E+01  0.51100000000E-03 0. -1.
        -11    1    3    3    0    0 -0.67814606491E+01  0.41335122381E+01  0.16359240711E+02  0.18185128233E+02  0.51100000000E-03 0.  1.
        -12    1    3    3    0    0 -0.11209812686E+02  0.20380213356E+02  0.12241569801E+02  0.26284387535E+02  0.00000000000E+00 0.  1.
</event>
<event>
 7    1  0.2387817E-009  0.4778727E+02  0.7816164E-02  0.1312668E+00
        -11   -1    0    0    0    0  0.00000000000E+00  0.00000000000E+00  0.45593999997E+02  0.45594000000E+02  0.51100000000E-03 0.  1.
         11   -1    0    0    0    0 -0.00000000000E+00 -0.00000000000E+00 -0.45593999997E+02  0.45594000000E+02  0.51100000000E-03 0. -1.
    9900012    2    1    2    0    0 -0.13944047442E+02 -0.10304135493E+01  0.41086797547E+02  0.47787272543E+02  0.20000006833E+02 0.  0.
         12    1    1    2    0    0  0.13944047442E+02  0.10304135493E+01 -0.41086797547E+02  0.43400727457E+02  0.00000000000E+00 0. -1.
         11    1    3    3    0    0 -0.95559094978E+00 -0.61581148124E+00  0.26578159548E+00  0.11674836022E+01  0.51100000000E-03 0. -1.
        -11    1    3    3    0    0  0.46214464511E+01 -0.15369631813E+01  0.90745571134E+01  0.10298913058E+02  0.51100000000E-03 0.  1.
         12    1    3    3    0    0 -0.17609902943E+02  0.11223611133E+01  0.31746458838E+02  0.36320875883E+02  0.00000000000E+00 0. -1.
</event>
<event>
 7    1  0.2387817E-009  0.4778727E+02  0.7816164E-02  0.1312668E+00
        -11   -1    0    0    0    0  0.00000000000E+00  0.00000000000E+00  0.45593999997E+02  0.45594000000E+02  0.51100000000E-03 0.  1.
         11   -1    0    0    0    0 -0.00000000000E+00 -0.00000000000E+00 -0.45593999997E+02  0.45594000000E+02  0.51100000000E-03 0. -1.
    9900012    2    1    2    0    0 -0.28532831665E+02  0.56109817119E+01  0.32218284423E+02  0.47787269018E+02  0.19999990761E+02 0.  0.
         12    1    1    2    0    0  0.28532831665E+02 -0.56109817119E+01 -0.32218284423E+02  0.43400730982E+02  0.00000000000E+00 0. -1.
         11    1    3    3    0    0 -0.89204102252E+01  0.70585736098E+01  0.11450596303E+02  0.16140425520E+02  0.51100000000E-03 0. -1.
        -11    1    3    3    0    0 -0.20370612832E+02  0.16927430079E+01  0.19247154406E+02  0.28076328090E+02  0.51100000000E-03 0.  1.
        -12    1    3    3    0    0  0.75819139179E+00 -0.31403349059E+01  0.15205337136E+01  0.35705154084E+01  0.00000000000E+00 0.  1.
</event>
<event>
 7    1  0.2387817E-009  0.4778727E+02  0.7816164E-02  0.1312668E+00
        -11   -1    0    0    0    0  0.00000000000E+00  0.00000000000E+00  0.45593999997E+02  0.45594000000E+02  0.51100000000E-03 0.  1.
         11   -1    0    0    0    0 -0.00000000000E+00 -0.00000000000E+00 -0.45593999997E+02  0.45594000000E+02  0.51100000000E-03 0. -1.
    9900012    2    1    2    0    0 -0.10628635130E+02  0.10424671550E+01  0.42066241712E+02  0.47787270579E+02  0.19999997876E+02 0.  0.
         12    1    1    2    0    0  0.10628635130E+02 -0.10424671550E+01 -0.42066241712E+02  0.43400729421E+02  0.00000000000E+00 0. -1.
         11    1    3    3    0    0 -0.15413382542E+01 -0.20837660391E+01  0.54608040618E+00  0.26487749226E+01  0.51100000000E-03 0. -1.
        -11    1    3    3    0    0 -0.45043882377E+01  0.60096058370E+01  0.72346908010E+01  0.10428117134E+02  0.51100000000E-03 0.  1.
        -12    1    3    3    0    0 -0.45829086383E+01 -0.28833726429E+01  0.34285470505E+02  0.34710378522E+02  0.00000000000E+00 0.  1.
</event>
<event>
 7    1  0.2387817E-009  0.4778728E+02  0.7816164E-02  0.1312668E+00
        -11   -1    0    0    0    0  0.00000000000E+00  0.00000000000E+00  0.45593999997E+02  0.45594000000E+02  0.51100000000E-03 0.  1.
         11   -1    0    0    0    0 -0.00000000000E+00 -0.00000000000E+00 -0.45593999997E+02  0.45594000000E+02  0.51100000000E-03 0. -1.
    9900012    2    1    2    0    0  0.18746676082E+02  0.29457346934E+02  0.25776922421E+02  0.47787275559E+02  0.20000020583E+02 0.  0.
         12    1    1    2    0    0 -0.18746676082E+02 -0.29457346934E+02 -0.25776922421E+02  0.43400724441E+02  0.00000000000E+00 0. -1.
         11    1    3    3    0    0  0.43428659497E+01  0.17659924058E+01  0.10972165594E+00  0.46894832271E+01  0.51100000000E-03 0. -1.
        -11    1    3    3    0    0 -0.49336491018E+00 -0.16127639292E+01  0.73766537868E+00  0.18408060457E+01  0.51100000000E-03 0.  1.
        -12    1    3    3    0    0  0.14897175042E+02  0.29304118458E+02  0.24929535387E+02  0.41256986286E+02  0.00000000000E+00 0.  1.
</event>
<event>
 7    1  0.2387817E-009  0.4778727E+02  0.7816164E-02  0.1312668E+00
        -11   -1    0    0    0    0  0.00000000000E+00  0.00000000000E+00  0.45593999997E+02  0.45594000000E+02  0.51100000000E-03 0.  1.
         11   -1    0    0    0    0 -0.00000000000E+00 -0.00000000000E+00 -0.45593999997E+02  0.45594000000E+02  0.51100000000E-03 0. -1.
    9900012    2    1    2    0    0  0.78079355683E+01  0.33732004915E+02 -0.26168906869E+02  0.47787266133E+02  0.19999977607E+02 0.  0.
         12    1    1    2    0    0 -0.78079355683E+01 -0.33732004915E+02  0.26168906869E+02  0.43400733867E+02  0.00000000000E+00 0. -1.
         11    1    3    3    0    0 -0.14569743096E+01  0.64336551450E+01 -0.74940127519E+01  0.99837327714E+01  0.51100000000E-03 0. -1.
        -11    1    3    3    0    0  0.59224883403E+01  0.25839987703E+02 -0.20698068669E+02  0.33633181228E+02  0.51100000000E-03 0.  1.
        -12    1    3    3    0    0  0.33424215376E+01  0.14583620672E+01  0.20231745511E+01  0.41703521336E+01  0.00000000000E+00 0.  1.
</event>
<event>
 7    1  0.2387817E-009  0.4778727E+02  0.7816164E-02  0.1312668E+00
        -11   -1    0    0    0    0  0.00000000000E+00  0.00000000000E+00  0.45593999997E+02  0.45594000000E+02  0.51100000000E-03 0.  1.
         11   -1    0    0    0    0 -0.00000000000E+00 -0.00000000000E+00 -0.45593999997E+02  0.45594000000E+02  0.51100000000E-03 0. -1.
    9900012    2    1    2    0    0 -0.17637053919E+02 -0.17293551175E+02  0.35686003209E+02  0.47787269497E+02  0.19999992945E+02 0.  0.
         12    1    1    2    0    0  0.17637053919E+02  0.17293551175E+02 -0.35686003209E+02  0.43400730503E+02  0.00000000000E+00 0. -1.
         11    1    3    3    0    0 -0.45082592535E+01 -0.70556895637E+01  0.36544816106E+01  0.91357754361E+01  0.51100000000E-03 0. -1.
        -11    1    3    3    0    0 -0.48169828292E+01 -0.83992908869E+01  0.63081369476E+01  0.11556124047E+02  0.51100000000E-03 0.  1.
         12    1    3    3    0    0 -0.83118118358E+01 -0.18385707240E+01  0.25723384651E+02  0.27095370014E+02  0.00000000000E+00 0. -1.
</event>
<event>
 7    1  0.2387817E-009  0.4778727E+02  0.7816164E-02  0.1312668E+00
        -11   -1    0    0    0    0  0.00000000000E+00  0.00000000000E+00  0.45593999997E+02  0.45594000000E+02  0.51100000000E-03 0.  1.
         11   -1    0    0    0    0 -0.00000000000E+00 -0.00000000000E+00 -0.45593999997E+02  0.45594000000E+02  0.51100000000E-03 0. -1.
    9900012    2    1    2    0    0 -0.22253694338E+02 -0.36730075768E+02  0.62688145923E+01  0.47787269430E+02  0.19999992638E+02 0.  0.
         12    1    1    2    0    0  0.22253694338E+02  0.36730075768E+02 -0.62688145923E+01  0.43400730570E+02  0.00000000000E+00 0. -1.
         11    1    3    3    0    0 -0.88645272797E+01 -0.88963609565E+01 -0.20975733721E+01  0.12732827513E+02  0.51100000000E-03 0. -1.
        -11    1    3    3    0    0 -0.13289532128E+02 -0.12618084895E+02  0.75397650617E+01  0.19816048750E+02  0.51100000000E-03 0.  1.
        -12    1    3    3    0    0 -0.99634929964E-01 -0.15215629917E+02  0.82662290264E+00  0.15238393167E+02  0.00000000000E+00 0.  1.
</event>
<event>
 7    1  0.2387817E-009  0.4778727E+02  0.7816164E-02  0.1312668E+00
        -11   -1    0    0    0    0  0.00000000000E+00  0.00000000000E+00  0.45593999997E+02  0.45594000000E+02  0.51100000000E-03 0.  1.
         11   -1    0    0    0    0 -0.00000000000E+00 -0.00000000000E+00 -0.45593999997E+02  0.45594000000E+02  0.51100000000E-03 0. -1.
    9900012    2    1    2    0    0 -0.97150243100E+01 -0.17681660062E+02  0.38426565534E+02  0.47787265690E+02  0.19999975589E+02 0.  0.
         12    1    1    2    0    0  0.97150243100E+01  0.17681660062E+02 -0.38426565534E+02  0.43400734310E+02  0.00000000000E+00 0. -1.
         11    1    3    3    0    0  0.27889963226E+01 -0.20001242132E+01  0.37615190875E+01  0.50919567420E+01  0.51100000000E-03 0. -1.
        -11    1    3    3    0    0 -0.60445665705E+01  0.15898651351E+01  0.11483319425E+02  0.13074061398E+02  0.51100000000E-03 0.  1.
        -12    1    3    3    0    0 -0.64594540621E+01 -0.17271400984E+02  0.23181727022E+02  0.29621247550E+02  0.00000000000E+00 0.  1.
</event>
<event>
 7    1  0.2387817E-009  0.4778727E+02  0.7816164E-02  0.1312668E+00
        -11   -1    0    0    0    0  0.00000000000E+00  0.00000000000E+00  0.45593999997E+02  0.45594000000E+02  0.51100000000E-03 0.  1.
         11   -1    0    0    0    0 -0.00000000000E+00 -0.00000000000E+00 -0.45593999997E+02  0.45594000000E+02  0.51100000000E-03 0. -1.
    9900012    2    1    2    0    0  0.36549366447E+02 -0.34398233992E+01  0.23150262927E+02  0.47787271363E+02  0.20000001451E+02 0.  0.
         12    1    1    2    0    0 -0.36549366447E+02  0.34398233992E+01 -0.23150262927E+02  0.43400728637E+02  0.00000000000E+00 0. -1.
         11    1    3    3    0    0  0.15111421103E+02  0.64444592027E+01  0.38923215632E+01  0.16883017195E+02  0.51100000000E-03 0. -1.
        -11    1    3    3    0    0  0.68355435421E+01 -0.13239208135E+01  0.78466739026E+01  0.10490362884E+02  0.51100000000E-03 0.  1.
         12    1    3    3    0    0  0.14602401801E+02 -0.85603617884E+01  0.11411267461E+02  0.20413891285E+02  0.00000000000E+00 0. -1.
</event>
<event>
 7    1  0.2387817E-009  0.4778730E+02  0.7816164E-02  0.1312668E+00
        -11   -1    0    0    0    0  0.00000000000E+00  0.00000000000E+00  0.45593999997E+02  0.45594000000E+02  0.51100000000E-03 0.  1.
         11   -1    0    0    0    0 -0.00000000000E+00 -0.00000000000E+00 -0.45593999997E+02  0.45594000000E+02  0.51100000000E-03 0. -1.
    9900012    2    1    2    0    0 -0.13310384352E+02  0.27585189557E+02  0.30749179614E+02  0.47787296533E+02  0.20000116212E+02 0.  0.
         12    1    1    2    0    0  0.13310384352E+02 -0.27585189557E+02 -0.30749179614E+02  0.43400703467E+02  0.00000000000E+00 0. -1.
         11    1    3    3    0    0 -0.37834308006E+01  0.47243270334E+01  0.13938296398E+01  0.62109883165E+01  0.51100000000E-03 0. -1.
        -11    1    3    3    0    0  0.38001841856E+01  0.10808015795E+02  0.10749048793E+02  0.15709763063E+02  0.51100000000E-03 0.  1.
         12    1    3    3    0    0 -0.13327137737E+02  0.12052846728E+02  0.18606301182E+02  0.25866545154E+02  0.00000000000E+00 0. -1.
</event>
<event>
 7    1  0.2387817E-009  0.4778727E+02  0.7816164E-02  0.1312668E+00
        -11   -1    0    0    0    0  0.00000000000E+00  0.00000000000E+00  0.45593999997E+02  0.45594000000E+02  0.51100000000E-03 0. -1.
         11   -1    0    0    0    0 -0.00000000000E+00 -0.00000000000E+00 -0.45593999997E+02  0.45594000000E+02  0.51100000000E-03 0.  1.
    9900012    2    1    2    0    0  0.33375277777E+02 -0.27502312182E+02  0.36519767735E+01  0.47787271016E+02  0.19999999870E+02 0.  0.
         12    1    1    2    0    0 -0.33375277777E+02  0.27502312182E+02 -0.36519767735E+01  0.43400728984E+02  0.00000000000E+00 0. -1.
         11    1    3    3    0    0  0.26766826270E+01 -0.33349253841E+01  0.61207789359E+01  0.74666118318E+01  0.51100000000E-03 0. -1.
        -11    1    3    3    0    0  0.53567060276E+01 -0.96506373187E+01 -0.49244929039E+00  0.11048602024E+02  0.51100000000E-03 0.  1.
        -12    1    3    3    0    0  0.25341889122E+02 -0.14516749479E+02 -0.19763528720E+01  0.29272057160E+02  0.00000000000E+00 0.  1.
</event>
<event>
 7    1  0.2387817E-009  0.4778727E+02  0.7816164E-02  0.1312668E+00
        -11   -1    0    0    0    0  0.00000000000E+00  0.00000000000E+00  0.45593999997E+02  0.45594000000E+02  0.51100000000E-03 0.  1.
         11   -1    0    0    0    0 -0.00000000000E+00 -0.00000000000E+00 -0.45593999997E+02  0.45594000000E+02  0.51100000000E-03 0. -1.
    9900012    2    1    2    0    0 -0.86506434601E+01  0.19969980421E+02  0.37549825667E+02  0.47787272381E+02  0.20000006092E+02 0.  0.
         12    1    1    2    0    0  0.86506434601E+01 -0.19969980421E+02 -0.37549825667E+02  0.43400727619E+02  0.00000000000E+00 0. -1.
         11    1    3    3    0    0 -0.12683475242E+02  0.95894202512E+01  0.15523325019E+02  0.22221636863E+02  0.51100000000E-03 0. -1.
        -11    1    3    3    0    0 -0.16408067105E+01  0.14080882269E+01  0.22529075194E+01  0.31225873355E+01  0.51100000000E-03 0.  1.
        -12    1    3    3    0    0  0.56736384920E+01  0.89724719431E+01  0.19773593129E+02  0.22443048183E+02  0.00000000000E+00 0.  1.
</event>
<event>
 7    1  0.2387817E-009  0.4778726E+02  0.7816164E-02  0.1312668E+00
        -11   -1    0    0    0    0  0.00000000000E+00  0.00000000000E+00  0.45593999997E+02  0.45594000000E+02  0.51100000000E-03 0.  1.
         11   -1    0    0    0    0 -0.00000000000E+00 -0.00000000000E+00 -0.45593999997E+02  0.45594000000E+02  0.51100000000E-03 0. -1.
    9900012    2    1    2    0    0  0.10782110693E+02 -0.40973966334E+02  0.94077007746E+01  0.47787255053E+02  0.19999927088E+02 0.  0.
         12    1    1    2    0    0 -0.10782110693E+02  0.40973966334E+02 -0.94077007746E+01  0.43400744947E+02  0.00000000000E+00 0. -1.
         11    1    3    3    0    0  0.10267366143E+01 -0.94841342189E+01  0.61135642555E+01  0.11330430624E+02  0.51100000000E-03 0. -1.
        -11    1    3    3    0    0  0.17216629861E+01 -0.24643208174E+02 -0.17358678334E+01  0.24764189264E+02  0.51100000000E-03 0.  1.
        -12    1    3    3    0    0  0.80337110923E+01 -0.68466239410E+01  0.50300043525E+01  0.11692635165E+02  0.00000000000E+00 0.  1.
</event>
<event>
 7    1  0.2387817E-009  0.4778727E+02  0.7816164E-02  0.1312668E+00
        -11   -1    0    0    0    0  0.00000000000E+00  0.00000000000E+00  0.45593999997E+02  0.45594000000E+02  0.51100000000E-03 0.  1.
         11   -1    0    0    0    0 -0.00000000000E+00 -0.00000000000E+00 -0.45593999997E+02  0.45594000000E+02  0.51100000000E-03 0. -1.
    9900012    2    1    2    0    0 -0.14521408649E+02  0.37745170479E+02 -0.15749724507E+02  0.47787273904E+02  0.20000013039E+02 0.  0.
         12    1    1    2    0    0  0.14521408649E+02 -0.37745170479E+02  0.15749724507E+02  0.43400726096E+02  0.00000000000E+00 0. -1.
         11    1    3    3    0    0 -0.55731238933E+01  0.25375284698E+02 -0.91927146018E+01  0.27558497518E+02  0.51100000000E-03 0. -1.
        -11    1    3    3    0    0 -0.16989113157E+01  0.11729076947E+02 -0.37874194188E+01  0.12441948875E+02  0.51100000000E-03 0.  1.
         12    1    3    3    0    0 -0.72493734399E+01  0.64080883368E+00 -0.27695904861E+01  0.77868275115E+01  0.00000000000E+00 0. -1.
</event>
<event>
 7    1  0.2387817E-009  0.4778728E+02  0.7816164E-02  0.1312668E+00
        -11   -1    0    0    0    0  0.00000000000E+00  0.00000000000E+00  0.45593999997E+02  0.45594000000E+02  0.51100000000E-03 0. -1.
         11   -1    0    0    0    0 -0.00000000000E+00 -0.00000000000E+00 -0.45593999997E+02  0.45594000000E+02  0.51100000000E-03 0.  1.
    9900012    2    1    2    0    0 -0.48558626164E+01 -0.36999514213E+02 -0.22160309831E+02  0.47787276671E+02  0.20000025652E+02 0.  0.
         12    1    1    2    0    0  0.48558626164E+01  0.36999514213E+02  0.22160309831E+02  0.43400723329E+02  0.00000000000E+00 0. -1.
         11    1    3    3    0    0 -0.13645200266E+01 -0.21449321828E+02 -0.51839442122E+01  0.22109016252E+02  0.51100000000E-03 0. -1.
        -11    1    3    3    0    0  0.36341852743E+01 -0.68528453222E+01 -0.48839408479E+01  0.91663335137E+01  0.51100000000E-03 0.  1.
        -12    1    3    3    0    0 -0.71255278641E+01 -0.86973470624E+01 -0.12092424771E+02  0.16511926904E+02  0.00000000000E+00 0.  1.
</event>
<event>
 7    1  0.2387817E-009  0.4778727E+02  0.7816164E-02  0.1312668E+00
        -11   -1    0    0    0    0  0.00000000000E+00  0.00000000000E+00  0.45593999997E+02  0.45594000000E+02  0.51100000000E-03 0.  1.
         11   -1    0    0    0    0 -0.00000000000E+00 -0.00000000000E+00 -0.45593999997E+02  0.45594000000E+02  0.51100000000E-03 0. -1.
    9900012    2    1    2    0    0  0.43818455473E+01 -0.21600103341E+02  0.37387941914E+02  0.47787271489E+02  0.20000002026E+02 0.  0.
         12    1    1    2    0    0 -0.43818455473E+01  0.21600103341E+02 -0.37387941914E+02  0.43400728511E+02  0.00000000000E+00 0. -1.
         11    1    3    3    0    0  0.14390839440E+01 -0.31075069308E+01 -0.18360300080E+01  0.38856876320E+01  0.51100000000E-03 0. -1.
        -11    1    3    3    0    0 -0.17501048207E+01 -0.27613142604E+01  0.75070111928E+01  0.81879753687E+01  0.51100000000E-03 0.  1.
         12    1    3    3    0    0  0.46928664240E+01 -0.15731282150E+02  0.31716960729E+02  0.35713608488E+02  0.00000000000E+00 0. -1.
</event>
<event>
 7    1  0.2387817E-009  0.4778727E+02  0.7816164E-02  0.1312668E+00
        -11   -1    0    0    0    0  0.00000000000E+00  0.00000000000E+00  0.45593999997E+02  0.45594000000E+02  0.51100000000E-03 0.  1.
         11   -1    0    0    0    0 -0.00000000000E+00 -0.00000000000E+00 -0.45593999997E+02  0.45594000000E+02  0.51100000000E-03 0. -1.
    9900012    2    1    2    0    0 -0.52213809011E+01  0.30924252392E+02  0.30000855993E+02  0.47787267692E+02  0.19999984716E+02 0.  0.
         12    1    1    2    0    0  0.52213809011E+01 -0.30924252392E+02 -0.30000855993E+02  0.43400732308E+02  0.00000000000E+00 0. -1.
         11    1    3    3    0    0 -0.35792035629E+01  0.19808544341E+02  0.16277452546E+02  0.25887151035E+02  0.51100000000E-03 0. -1.
        -11    1    3    3    0    0  0.45435947648E+01  0.81909199378E+01  0.44352157167E+01  0.10363713694E+02  0.51100000000E-03 0.  1.
         12    1    3    3    0    0 -0.61857721030E+01  0.29247881132E+01  0.92881877303E+01  0.11536402963E+02  0.00000000000E+00 0. -1.
</event>
<event>
 7    1  0.2387817E-009  0.4778727E+02  0.7816164E-02  0.1312668E+00
        -11   -1    0    0    0    0  0.00000000000E+00  0.00000000000E+00  0.45593999997E+02  0.45594000000E+02  0.51100000000E-03 0.  1.
         11   -1    0    0    0    0 -0.00000000000E+00 -0.00000000000E+00 -0.45593999997E+02  0.45594000000E+02  0.51100000000E-03 0. -1.
    9900012    2    1    2    0    0  0.26310516338E+02 -0.19406737931E+02  0.28543972583E+02  0.47787272841E+02  0.20000008193E+02 0.  0.
         12    1    1    2    0    0 -0.26310516338E+02  0.19406737931E+02 -0.28543972583E+02  0.43400727159E+02  0.00000000000E+00 0. -1.
         11    1    3    3    0    0  0.45090218431E+01 -0.30067067498E+01  0.39234000743E+01  0.66906376277E+01  0.51100000000E-03 0.  1.
        -11    1    3    3    0    0  0.12789711983E+02 -0.19505840388E+02  0.16451405060E+02  0.28543007385E+02  0.51100000000E-03 0. -1.
         12    1    3    3    0    0  0.90117825114E+01  0.31058092067E+01  0.81691674482E+01  0.12553627829E+02  0.00000000000E+00 0. -1.
</event>
<event>
 7    1  0.2387817E-009  0.4778727E+02  0.7816164E-02  0.1312668E+00
        -11   -1    0    0    0    0  0.00000000000E+00  0.00000000000E+00  0.45593999997E+02  0.45594000000E+02  0.51100000000E-03 0.  1.
         11   -1    0    0    0    0 -0.00000000000E+00 -0.00000000000E+00 -0.45593999997E+02  0.45594000000E+02  0.51100000000E-03 0. -1.
    9900012    2    1    2    0    0  0.19968353248E+02 -0.10862792310E+02  0.36971447041E+02  0.47787270922E+02  0.19999999440E+02 0.  0.
         12    1    1    2    0    0 -0.19968353248E+02  0.10862792310E+02 -0.36971447041E+02  0.43400729078E+02  0.00000000000E+00 0. -1.
         11    1    3    3    0    0  0.70535224481E+01 -0.79953537699E+00  0.25392502677E+01  0.75391795262E+01  0.51100000000E-03 0. -1.
        -11    1    3    3    0    0  0.66728411153E+01 -0.93203239485E+01  0.10641232043E+02  0.15640686261E+02  0.51100000000E-03 0.  1.
         12    1    3    3    0    0  0.62419896850E+01 -0.74293298435E+00  0.23790964730E+02  0.24607405134E+02  0.00000000000E+00 0. -1.
</event>
<event>
 7    1  0.2387817E-009  0.4778725E+02  0.7816164E-02  0.1312668E+00
        -11   -1    0    0    0    0  0.00000000000E+00  0.00000000000E+00  0.45593999997E+02  0.45594000000E+02  0.51100000000E-03 0. -1.
         11   -1    0    0    0    0 -0.00000000000E+00 -0.00000000000E+00 -0.45593999997E+02  0.45594000000E+02  0.51100000000E-03 0.  1.
    9900012    2    1    2    0    0  0.41815051427E+02 -0.79868538633E+00 -0.11596933370E+02  0.47787247843E+02  0.19999894214E+02 0.  0.
         12    1    1    2    0    0 -0.41815051427E+02  0.79868538633E+00  0.11596933370E+02  0.43400752157E+02  0.00000000000E+00 0. -1.
         11    1    3    3    0    0  0.53827105187E+00  0.35177220122E+01 -0.37914821656E+01  0.51999462645E+01  0.51100000000E-03 0. -1.
        -11    1    3    3    0    0  0.39384197140E+01  0.12095225019E+01 -0.68608337659E+00  0.41766978808E+01  0.51100000000E-03 0.  1.
        -12    1    3    3    0    0  0.37338360661E+02 -0.55259299004E+01 -0.71193678279E+01  0.38410603698E+02  0.00000000000E+00 0.  1.
</event>
<event>
 7    1  0.2387817E-009  0.4778727E+02  0.7816164E-02  0.1312668E+00
        -11   -1    0    0    0    0  0.00000000000E+00  0.00000000000E+00  0.45593999997E+02  0.45594000000E+02  0.51100000000E-03 0.  1.
         11   -1    0    0    0    0 -0.00000000000E+00 -0.00000000000E+00 -0.45593999997E+02  0.45594000000E+02  0.51100000000E-03 0. -1.
    9900012    2    1    2    0    0 -0.26974119762E+02  0.33018254835E+02  0.81126409268E+01  0.47787271526E+02  0.20000002196E+02 0.  0.
         12    1    1    2    0    0  0.26974119762E+02 -0.33018254835E+02 -0.81126409268E+01  0.43400728474E+02  0.00000000000E+00 0. -1.
         11    1    3    3    0    0 -0.29994152256E+01  0.12110079212E+02 -0.33747541003E+01  0.12924375254E+02  0.51100000000E-03 0. -1.
        -11    1    3    3    0    0 -0.40438160722E+01  0.81340901121E+01  0.47442579963E+01  0.10248114684E+02  0.51100000000E-03 0.  1.
        -12    1    3    3    0    0 -0.19930888464E+02  0.12774085511E+02  0.67431370308E+01  0.24614781588E+02  0.00000000000E+00 0.  1.
</event>
<event>
 7    1  0.2387817E-009  0.4778729E+02  0.7816164E-02  0.1312668E+00
        -11   -1    0    0    0    0  0.00000000000E+00  0.00000000000E+00  0.45593999997E+02  0.45594000000E+02  0.51100000000E-03 0.  1.
         11   -1    0    0    0    0 -0.00000000000E+00 -0.00000000000E+00 -0.45593999997E+02  0.45594000000E+02  0.51100000000E-03 0. -1.
    9900012    2    1    2    0    0  0.34181130438E+02  0.24958727983E+02  0.96090713534E+01  0.47787285342E+02  0.20000065189E+02 0.  0.
         12    1    1    2    0    0 -0.34181130438E+02 -0.24958727983E+02 -0.96090713534E+01  0.43400714658E+02  0.00000000000E+00 0. -1.
         11    1    3    3    0    0  0.15056638667E+02  0.18872324640E+02 -0.82063435846E+00  0.24156581842E+02  0.51100000000E-03 0. -1.
        -11    1    3    3    0    0  0.12206323532E+02  0.32359770453E+01  0.27806252101E+01  0.12930497223E+02  0.51100000000E-03 0.  1.
         12    1    3    3    0    0  0.69181682389E+01  0.28504262975E+01  0.76490805018E+01  0.10700206278E+02  0.00000000000E+00 0. -1.
</event>
<event>
 7    1  0.2387817E-009  0.4778727E+02  0.7816164E-02  0.1312668E+00
        -11   -1    0    0    0    0  0.00000000000E+00  0.00000000000E+00  0.45593999997E+02  0.45594000000E+02  0.51100000000E-03 0.  1.
         11   -1    0    0    0    0 -0.00000000000E+00 -0.00000000000E+00 -0.45593999997E+02  0.45594000000E+02  0.51100000000E-03 0. -1.
    9900012    2    1    2    0    0  0.73713279610E+01 -0.11348540078E+02  0.41237084459E+02  0.47787274517E+02  0.20000015831E+02 0.  0.
         12    1    1    2    0    0 -0.73713279610E+01  0.11348540078E+02 -0.41237084459E+02  0.43400725483E+02  0.00000000000E+00 0. -1.
         11    1    3    3    0    0 -0.15291340732E+01 -0.12570160299E+01  0.70254687865E+00  0.21004553533E+01  0.51100000000E-03 0. -1.
        -11    1    3    3    0    0  0.17618619643E+01 -0.57311339534E+01  0.35329477853E+02  0.35834648869E+02  0.51100000000E-03 0.  1.
         12    1    3    3    0    0  0.71386000699E+01 -0.43603900944E+01  0.52050597277E+01  0.98521702940E+01  0.00000000000E+00 0. -1.
</event>
<event>
 7    1  0.2387817E-009  0.4778727E+02  0.7816164E-02  0.1312668E+00
        -11   -1    0    0    0    0  0.00000000000E+00  0.00000000000E+00  0.45593999997E+02  0.45594000000E+02  0.51100000000E-03 0. -1.
         11   -1    0    0    0    0 -0.00000000000E+00 -0.00000000000E+00 -0.45593999997E+02  0.45594000000E+02  0.51100000000E-03 0.  1.
    9900012    2    1    2    0    0 -0.37726637281E+02 -0.17933592374E+02 -0.11777540193E+02  0.47787270179E+02  0.19999996056E+02 0.  0.
         12    1    1    2    0    0  0.37726637281E+02  0.17933592374E+02  0.11777540193E+02  0.43400729821E+02  0.00000000000E+00 0. -1.
         11    1    3    3    0    0  0.56322238613E+00 -0.17719956084E+01  0.44910657394E+00  0.19128211804E+01  0.51100000000E-03 0. -1.
        -11    1    3    3    0    0 -0.28516117424E+00 -0.17648147300E+01 -0.40400527230E+01  0.44179083503E+01  0.51100000000E-03 0.  1.
        -12    1    3    3    0    0 -0.38004698493E+02 -0.14396782035E+02 -0.81865940443E+01  0.41456540649E+02  0.00000000000E+00 0.  1.
</event>
<event>
 7    1  0.2387817E-009  0.4778727E+02  0.7816164E-02  0.1312668E+00
        -11   -1    0    0    0    0  0.00000000000E+00  0.00000000000E+00  0.45593999997E+02  0.45594000000E+02  0.51100000000E-03 0.  1.
         11   -1    0    0    0    0 -0.00000000000E+00 -0.00000000000E+00 -0.45593999997E+02  0.45594000000E+02  0.51100000000E-03 0. -1.
    9900012    2    1    2    0    0  0.21141272616E+02 -0.76251467645E+01  0.37128518910E+02  0.47787272040E+02  0.20000004540E+02 0.  0.
         12    1    1    2    0    0 -0.21141272616E+02  0.76251467645E+01 -0.37128518910E+02  0.43400727960E+02  0.00000000000E+00 0. -1.
         11    1    3    3    0    0 -0.18677558544E+00  0.11654711973E+01  0.31796881806E+01  0.33916994882E+01  0.51100000000E-03 0. -1.
        -11    1    3    3    0    0  0.46393788655E+01 -0.96040434356E+01  0.19847599447E+02  0.22531948222E+02  0.51100000000E-03 0.  1.
         12    1    3    3    0    0  0.16688669336E+02  0.81342547382E+00  0.14101231282E+02  0.21863624331E+02  0.00000000000E+00 0. -1.
</event>
<event>
 7    1  0.2387817E-009  0.4778727E+02  0.7816164E-02  0.1312668E+00
        -11   -1    0    0    0    0  0.00000000000E+00  0.00000000000E+00  0.45593999997E+02  0.45594000000E+02  0.51100000000E-03 0. -1.
         11   -1    0    0    0    0 -0.00000000000E+00 -0.00000000000E+00 -0.45593999997E+02  0.45594000000E+02  0.51100000000E-03 0.  1.
    9900012    2    1    2    0    0  0.28083156354E+01  0.43243331311E+02 -0.23981394898E+01  0.47787269447E+02  0.19999992716E+02 0.  0.
         12    1    1    2    0    0 -0.28083156354E+01 -0.43243331311E+02  0.23981394898E+01  0.43400730553E+02  0.00000000000E+00 0. -1.
         11    1    3    3    0    0 -0.18835373602E+01  0.22416103571E+01  0.17221364667E+01  0.33968050064E+01  0.51100000000E-03 0. -1.
        -11    1    3    3    0    0 -0.46530598129E+00  0.16244947720E+02 -0.90863307235E+01  0.18619243872E+02  0.51100000000E-03 0.  1.
         12    1    3    3    0    0  0.51571589769E+01  0.24756773234E+02  0.49660547670E+01  0.25771220569E+02  0.00000000000E+00 0. -1.
</event>
<event>
 7    1  0.2387817E-009  0.4778727E+02  0.7816164E-02  0.1312668E+00
        -11   -1    0    0    0    0  0.00000000000E+00  0.00000000000E+00  0.45593999997E+02  0.45594000000E+02  0.51100000000E-03 0. -1.
         11   -1    0    0    0    0 -0.00000000000E+00 -0.00000000000E+00 -0.45593999997E+02  0.45594000000E+02  0.51100000000E-03 0.  1.
    9900012    2    1    2    0    0 -0.36262779643E+02 -0.20490990431E+02 -0.12196443541E+02  0.47787272917E+02  0.20000008540E+02 0.  0.
         12    1    1    2    0    0  0.36262779643E+02  0.20490990431E+02  0.12196443541E+02  0.43400727083E+02  0.00000000000E+00 0. -1.
         11    1    3    3    0    0 -0.14996591298E+02  0.29704381768E+00 -0.78254763885E+01  0.16918157895E+02  0.51100000000E-03 0. -1.
        -11    1    3    3    0    0 -0.13838775821E+01 -0.42849901300E+01 -0.19821394570E+01  0.49198714073E+01  0.51100000000E-03 0.  1.
         12    1    3    3    0    0 -0.19882310763E+02 -0.16503044119E+02 -0.23888276951E+01  0.25949243615E+02  0.00000000000E+00 0. -1.
</event>
<event>
 7    1  0.2387817E-009  0.4778723E+02  0.7816164E-02  0.1312668E+00
        -11   -1    0    0    0    0  0.00000000000E+00  0.00000000000E+00  0.45593999997E+02  0.45594000000E+02  0.51100000000E-03 0.  1.
         11   -1    0    0    0    0 -0.00000000000E+00 -0.00000000000E+00 -0.45593999997E+02  0.45594000000E+02  0.51100000000E-03 0. -1.
    9900012    2    1    2    0    0 -0.39771721210E+02 -0.32694517562E+01  0.17063050179E+02  0.47787230373E+02  0.19999814560E+02 0.  0.
         12    1    1    2    0    0  0.39771721210E+02  0.32694517562E+01 -0.17063050179E+02  0.43400769627E+02  0.00000000000E+00 0. -1.
         11    1    3    3    0    0 -0.25668823844E+02 -0.65461481642E+01  0.99599542876E+01  0.28300905692E+02  0.51100000000E-03 0. -1.
        -11    1    3    3    0    0 -0.99321672437E+00 -0.32408229141E+01  0.22249366802E+01  0.40545969114E+01  0.51100000000E-03 0.  1.
        -12    1    3    3    0    0 -0.13109680642E+02  0.65175193221E+01  0.48781592115E+01  0.15431727769E+02  0.00000000000E+00 0.  1.
</event>
<event>
 7    1  0.2387817E-009  0.4778727E+02  0.7816164E-02  0.1312668E+00
        -11   -1    0    0    0    0  0.00000000000E+00  0.00000000000E+00  0.45593999997E+02  0.45594000000E+02  0.51100000000E-03 0.  1.
         11   -1    0    0    0    0 -0.00000000000E+00 -0.00000000000E+00 -0.45593999997E+02  0.45594000000E+02  0.51100000000E-03 0. -1.
    9900012    2    1    2    0    0  0.32720862244E+02 -0.28426311474E+02 -0.22166501471E+01  0.47787267888E+02  0.19999985608E+02 0.  0.
         12    1    1    2    0    0 -0.32720862244E+02  0.28426311474E+02  0.22166501471E+01  0.43400732112E+02  0.00000000000E+00 0. -1.
         11    1    3    3    0    0  0.26453351606E+01 -0.25136660271E+01 -0.48955551087E+01  0.61059622576E+01  0.51100000000E-03 0. -1.
        -11    1    3    3    0    0  0.11064151605E+02 -0.29444837192E+01 -0.15990727368E+01  0.11560383601E+02  0.51100000000E-03 0.  1.
        -12    1    3    3    0    0  0.19011375478E+02 -0.22968161727E+02  0.42779776984E+01  0.30120922029E+02  0.00000000000E+00 0.  1.
</event>
<event>
 7    1  0.2387817E-009  0.4778727E+02  0.7816164E-02  0.1312668E+00
        -11   -1    0    0    0    0  0.00000000000E+00  0.00000000000E+00  0.45593999997E+02  0.45594000000E+02  0.51100000000E-03 0. -1.
         11   -1    0    0    0    0 -0.00000000000E+00 -0.00000000000E+00 -0.45593999997E+02  0.45594000000E+02  0.51100000000E-03 0.  1.
    9900012    2    1    2    0    0 -0.13950352768E+02 -0.39657973076E+02  0.10782218890E+02  0.47787269419E+02  0.19999992587E+02 0.  0.
         12    1    1    2    0    0  0.13950352768E+02  0.39657973076E+02 -0.10782218890E+02  0.43400730581E+02  0.00000000000E+00 0. -1.
         11    1    3    3    0    0  0.72044207833E+00 -0.12341665568E+02  0.87868944277E+01  0.15167242983E+02  0.51100000000E-03 0.  1.
        -11    1    3    3    0    0 -0.76514414591E+01 -0.68209234476E+01  0.36791255177E+01  0.10890616048E+02  0.51100000000E-03 0. -1.
        -12    1    3    3    0    0 -0.70193533870E+01 -0.20495384061E+02 -0.16838010559E+01  0.21729410387E+02  0.00000000000E+00 0.  1.
</event>
<event>
 7    1  0.2387817E-009  0.4778727E+02  0.7816164E-02  0.1312668E+00
        -11   -1    0    0    0    0  0.00000000000E+00  0.00000000000E+00  0.45593999997E+02  0.45594000000E+02  0.51100000000E-03 0. -1.
         11   -1    0    0    0    0 -0.00000000000E+00 -0.00000000000E+00 -0.45593999997E+02  0.45594000000E+02  0.51100000000E-03 0.  1.
    9900012    2    1    2    0    0  0.29657253591E+02 -0.31577694857E+02 -0.26305358397E+01  0.47787271644E+02  0.20000002735E+02 0.  0.
         12    1    1    2    0    0 -0.29657253591E+02  0.31577694857E+02  0.26305358397E+01  0.43400728356E+02  0.00000000000E+00 0. -1.
         11    1    3    3    0    0  0.19884727842E+00 -0.20745419205E+01  0.17649358108E+01  0.27309820756E+01  0.51100000000E-03 0. -1.
        -11    1    3    3    0    0  0.15778019678E+02 -0.10287816571E+02 -0.92339623972E+01  0.20977395849E+02  0.51100000000E-03 0.  1.
        -12    1    3    3    0    0  0.13680386634E+02 -0.19215336365E+02  0.48384907467E+01  0.24078893720E+02  0.00000000000E+00 0.  1.
</event>
<event>
 7    1  0.2387817E-009  0.4778727E+02  0.7816164E-02  0.1312668E+00
        -11   -1    0    0    0    0  0.00000000000E+00  0.00000000000E+00  0.45593999997E+02  0.45594000000E+02  0.51100000000E-03 0.  1.
         11   -1    0    0    0    0 -0.00000000000E+00 -0.00000000000E+00 -0.45593999997E+02  0.45594000000E+02  0.51100000000E-03 0. -1.
    9900012    2    1    2    0    0  0.16510101021E+02  0.20216280032E+02  0.34674800303E+02  0.47787272009E+02  0.20000004399E+02 0.  0.
         12    1    1    2    0    0 -0.16510101021E+02 -0.20216280032E+02 -0.34674800303E+02  0.43400727991E+02  0.00000000000E+00 0. -1.
         11    1    3    3    0    0  0.10826488566E+02  0.11928173129E+02  0.21155985966E+02  0.26590786211E+02  0.51100000000E-03 0.  1.
        -11    1    3    3    0    0  0.81100084567E+01  0.10250142238E+01  0.43817753054E+01  0.92748502098E+01  0.51100000000E-03 0. -1.
        -12    1    3    3    0    0 -0.24263960022E+01  0.72630926793E+01  0.91370390325E+01  0.11921635589E+02  0.00000000000E+00 0.  1.
</event>
<event>
 7    1  0.2387817E-009  0.4778727E+02  0.7816164E-02  0.1312668E+00
        -11   -1    0    0    0    0  0.00000000000E+00  0.00000000000E+00  0.45593999997E+02  0.45594000000E+02  0.51100000000E-03 0. -1.
         11   -1    0    0    0    0 -0.00000000000E+00 -0.00000000000E+00 -0.45593999997E+02  0.45594000000E+02  0.51100000000E-03 0.  1.
    9900012    2    1    2    0    0  0.32513895036E+01 -0.40007952140E+02  0.16505015758E+02  0.47787270590E+02  0.19999997929E+02 0.  0.
         12    1    1    2    0    0 -0.32513895036E+01  0.40007952140E+02 -0.16505015758E+02  0.43400729410E+02  0.00000000000E+00 0. -1.
         11    1    3    3    0    0  0.66230432630E+00 -0.76360708740E+01  0.10568008897E+02  0.13054923888E+02  0.51100000000E-03 0. -1.
        -11    1    3    3    0    0  0.40744527204E+01 -0.76389473322E+01  0.48667099557E+01  0.99317444273E+01  0.51100000000E-03 0.  1.
        -12    1    3    3    0    0 -0.14853675431E+01 -0.24732933934E+02  0.10702969047E+01  0.24800602275E+02  0.00000000000E+00 0.  1.
</event>
<event>
 7    1  0.2387817E-009  0.4778727E+02  0.7816164E-02  0.1312668E+00
        -11   -1    0    0    0    0  0.00000000000E+00  0.00000000000E+00  0.45593999997E+02  0.45594000000E+02  0.51100000000E-03 0.  1.
         11   -1    0    0    0    0 -0.00000000000E+00 -0.00000000000E+00 -0.45593999997E+02  0.45594000000E+02  0.51100000000E-03 0. -1.
    9900012    2    1    2    0    0 -0.40152296948E+02 -0.16414000838E+02  0.14132091892E+01  0.47787268049E+02  0.19999986343E+02 0.  0.
         12    1    1    2    0    0  0.40152296948E+02  0.16414000838E+02 -0.14132091892E+01  0.43400731951E+02  0.00000000000E+00 0. -1.
         11    1    3    3    0    0 -0.20185947718E+02 -0.79537806372E+01 -0.48252436736E+01  0.22226517686E+02  0.51100000000E-03 0. -1.
        -11    1    3    3    0    0 -0.11764228936E+02  0.11827527762E+01  0.10184542617E+01  0.11867317976E+02  0.51100000000E-03 0.  1.
         12    1    3    3    0    0 -0.82021202938E+01 -0.96429729767E+01  0.52199986011E+01  0.13693432387E+02  0.00000000000E+00 0. -1.
</event>
<event>
 7    1  0.2387817E-009  0.4778727E+02  0.7816164E-02  0.1312668E+00
        -11   -1    0    0    0    0  0.00000000000E+00  0.00000000000E+00  0.45593999997E+02  0.45594000000E+02  0.51100000000E-03 0.  1.
         11   -1    0    0    0    0 -0.00000000000E+00 -0.00000000000E+00 -0.45593999997E+02  0.45594000000E+02  0.51100000000E-03 0. -1.
    9900012    2    1    2    0    0  0.14668635693E+02  0.37628590011E+02  0.15891625153E+02  0.47787269484E+02  0.19999992887E+02 0.  0.
         12    1    1    2    0    0 -0.14668635693E+02 -0.37628590011E+02 -0.15891625153E+02  0.43400730516E+02  0.00000000000E+00 0. -1.
         11    1    3    3    0    0  0.32708663331E+01  0.16254672259E+02  0.12282477177E+02  0.20634247811E+02  0.51100000000E-03 0. -1.
        -11    1    3    3    0    0  0.76756282491E+01  0.19505625143E+02  0.66558747099E+01  0.21992847693E+02  0.51100000000E-03 0.  1.
        -12    1    3    3    0    0  0.37221411111E+01  0.18682926084E+01 -0.30467267340E+01  0.51601739809E+01  0.00000000000E+00 0.  1.
</event>
<event>
 7    1  0.2387817E-009  0.4778727E+02  0.7816164E-02  0.1312668E+00
        -11   -1    0    0    0    0  0.00000000000E+00  0.00000000000E+00  0.45593999997E+02  0.45594000000E+02  0.51100000000E-03 0. -1.
         11   -1    0    0    0    0 -0.00000000000E+00 -0.00000000000E+00 -0.45593999997E+02  0.45594000000E+02  0.51100000000E-03 0.  1.
    9900012    2    1    2    0    0 -0.34515512182E+02  0.96745211929E+01 -0.24468473087E+02  0.47787272855E+02  0.20000008257E+02 0.  0.
         12    1    1    2    0    0  0.34515512182E+02 -0.96745211929E+01  0.24468473087E+02  0.43400727145E+02  0.00000000000E+00 0. -1.
         11    1    3    3    0    0 -0.89897875518E+01 -0.13312059354E+01  0.16645115363E-01  0.90878306977E+01  0.51100000000E-03 0. -1.
        -11    1    3    3    0    0 -0.13810357431E+02  0.24649479418E+00 -0.13881768441E+02  0.19582906509E+02  0.51100000000E-03 0.  1.
         12    1    3    3    0    0 -0.11715367199E+02  0.10759232334E+02 -0.10603349762E+02  0.19116535649E+02  0.00000000000E+00 0. -1.
</event>
<event>
 7    1  0.2387817E-009  0.4778727E+02  0.7816164E-02  0.1312668E+00
        -11   -1    0    0    0    0  0.00000000000E+00  0.00000000000E+00  0.45593999997E+02  0.45594000000E+02  0.51100000000E-03 0.  1.
         11   -1    0    0    0    0 -0.00000000000E+00 -0.00000000000E+00 -0.45593999997E+02  0.45594000000E+02  0.51100000000E-03 0. -1.
    9900012    2    1    2    0    0 -0.22805540861E+01  0.81508126847E+01  0.42567436523E+02  0.47787270438E+02  0.19999997237E+02 0.  0.
         12    1    1    2    0    0  0.22805540861E+01 -0.81508126847E+01 -0.42567436523E+02  0.43400729562E+02  0.00000000000E+00 0. -1.
         11    1    3    3    0    0 -0.80115565443E+01  0.83435804711E+00  0.70651124254E+01  0.10714336445E+02  0.51100000000E-03 0. -1.
        -11    1    3    3    0    0 -0.40231510437E-01 -0.50541706363E+00  0.38925215694E+00  0.63920457246E+00  0.51100000000E-03 0.  1.
        -12    1    3    3    0    0  0.57712339686E+01  0.78218717013E+01  0.35113071940E+02  0.36433729421E+02  0.00000000000E+00 0.  1.
</event>
<event>
 7    1  0.2387817E-009  0.4778727E+02  0.7816164E-02  0.1312668E+00
        -11   -1    0    0    0    0  0.00000000000E+00  0.00000000000E+00  0.45593999997E+02  0.45594000000E+02  0.51100000000E-03 0.  1.
         11   -1    0    0    0    0 -0.00000000000E+00 -0.00000000000E+00 -0.45593999997E+02  0.45594000000E+02  0.51100000000E-03 0. -1.
    9900012    2    1    2    0    0 -0.39737052755E+02 -0.41984067248E+01  0.16939994412E+02  0.47787269691E+02  0.19999993829E+02 0.  0.
         12    1    1    2    0    0  0.39737052755E+02  0.41984067248E+01 -0.16939994412E+02  0.43400730309E+02  0.00000000000E+00 0. -1.
         11    1    3    3    0    0 -0.78380673545E+01 -0.27627719956E+01 -0.85967895410E+00  0.83550737351E+01  0.51100000000E-03 0. -1.
        -11    1    3    3    0    0 -0.23543420086E+00  0.29248671965E+01  0.30444321068E+01  0.42283382663E+01  0.51100000000E-03 0.  1.
        -12    1    3    3    0    0 -0.31663551200E+02 -0.43605019256E+01  0.14755241259E+02  0.35203857690E+02  0.00000000000E+00 0.  1.
</event>
<event>
 7    1  0.2387817E-009  0.4778727E+02  0.7816164E-02  0.1312668E+00
        -11   -1    0    0    0    0  0.00000000000E+00  0.00000000000E+00  0.45593999997E+02  0.45594000000E+02  0.51100000000E-03 0.  1.
         11   -1    0    0    0    0 -0.00000000000E+00 -0.00000000000E+00 -0.45593999997E+02  0.45594000000E+02  0.51100000000E-03 0. -1.
    9900012    2    1    2    0    0 -0.13673724771E+02  0.41189338401E+02 -0.30161568186E+00  0.47787270524E+02  0.19999997629E+02 0.  0.
         12    1    1    2    0    0  0.13673724771E+02 -0.41189338401E+02  0.30161568186E+00  0.43400729476E+02  0.00000000000E+00 0. -1.
         11    1    3    3    0    0  0.26716828633E+00  0.14668468948E+00 -0.12167752428E+01  0.12543673880E+01  0.51100000000E-03 0. -1.
        -11    1    3    3    0    0 -0.17896783017E+02  0.33125999227E+02  0.13091777371E+01  0.37674137200E+02  0.51100000000E-03 0.  1.
        -12    1    3    3    0    0  0.39558899596E+01  0.79166544838E+01 -0.39401817613E+00  0.88587659362E+01  0.00000000000E+00 0.  1.
</event>
<event>
 7    1  0.2387817E-009  0.4778727E+02  0.7816164E-02  0.1312668E+00
        -11   -1    0    0    0    0  0.00000000000E+00  0.00000000000E+00  0.45593999997E+02  0.45594000000E+02  0.51100000000E-03 0.  1.
         11   -1    0    0    0    0 -0.00000000000E+00 -0.00000000000E+00 -0.45593999997E+02  0.45594000000E+02  0.51100000000E-03 0. -1.
    9900012    2    1    2    0    0 -0.19543729919E+02  0.23312964302E+02  0.30954346936E+02  0.47787270997E+02  0.19999999785E+02 0.  0.
         12    1    1    2    0    0  0.19543729919E+02 -0.23312964302E+02 -0.30954346936E+02  0.43400729003E+02  0.00000000000E+00 0. -1.
         11    1    3    3    0    0 -0.11073153255E+02  0.22871449089E+01  0.11418807849E+02  0.16069689723E+02  0.51100000000E-03 0. -1.
        -11    1    3    3    0    0 -0.10365660900E+01 -0.45163483297E+00  0.40772986694E+01  0.42311709942E+01  0.51100000000E-03 0.  1.
        -12    1    3    3    0    0 -0.74340105740E+01  0.21477454226E+02  0.15458240418E+02  0.27486410280E+02  0.00000000000E+00 0.  1.
</event>
<event>
 7    1  0.2387817E-009  0.4778727E+02  0.7816164E-02  0.1312668E+00
        -11   -1    0    0    0    0  0.00000000000E+00  0.00000000000E+00  0.45593999997E+02  0.45594000000E+02  0.51100000000E-03 0.  1.
         11   -1    0    0    0    0 -0.00000000000E+00 -0.00000000000E+00 -0.45593999997E+02  0.45594000000E+02  0.51100000000E-03 0. -1.
    9900012    2    1    2    0    0 -0.17332121891E+02  0.32030071884E+02  0.23607111856E+02  0.47787266316E+02  0.19999978440E+02 0.  0.
         12    1    1    2    0    0  0.17332121891E+02 -0.32030071884E+02 -0.23607111856E+02  0.43400733684E+02  0.00000000000E+00 0. -1.
         11    1    3    3    0    0  0.11928900497E+01  0.62142377048E+01  0.85742065783E+01  0.10656301217E+02  0.51100000000E-03 0. -1.
        -11    1    3    3    0    0 -0.23828252344E+01  0.25933831248E+01  0.68286354211E+01  0.76833426388E+01  0.51100000000E-03 0.  1.
        -12    1    3    3    0    0 -0.16142186706E+02  0.23222451055E+02  0.82042698564E+01  0.29447622460E+02  0.00000000000E+00 0.  1.
</event>
<event>
 7    1  0.2387817E-009  0.4778727E+02  0.7816164E-02  0.1312668E+00
        -11   -1    0    0    0    0  0.00000000000E+00  0.00000000000E+00  0.45593999997E+02  0.45594000000E+02  0.51100000000E-03 0. -1.
         11   -1    0    0    0    0 -0.00000000000E+00 -0.00000000000E+00 -0.45593999997E+02  0.45594000000E+02  0.51100000000E-03 0.  1.
    9900012    2    1    2    0    0  0.20225532940E+02 -0.11135449419E+02 -0.36749869575E+02  0.47787270395E+02  0.19999997038E+02 0.  0.
         12    1    1    2    0    0 -0.20225532940E+02  0.11135449419E+02  0.36749869575E+02  0.43400729605E+02  0.00000000000E+00 0. -1.
         11    1    3    3    0    0  0.16667263462E+02 -0.93390211990E+01 -0.36976013720E+02  0.41620194367E+02  0.51100000000E-03 0. -1.
        -11    1    3    3    0    0 -0.12326320255E+00  0.11298443235E+01 -0.75302860095E+00  0.13633760843E+01  0.51100000000E-03 0.  1.
         12    1    3    3    0    0  0.36815326807E+01 -0.29262725436E+01  0.97917274623E+00  0.48036999433E+01  0.00000000000E+00 0. -1.
</event>
<event>
 7    1  0.2387817E-009  0.4778727E+02  0.7816164E-02  0.1312668E+00
        -11   -1    0    0    0    0  0.00000000000E+00  0.00000000000E+00  0.45593999997E+02  0.45594000000E+02  0.51100000000E-03 0.  1.
         11   -1    0    0    0    0 -0.00000000000E+00 -0.00000000000E+00 -0.45593999997E+02  0.45594000000E+02  0.51100000000E-03 0. -1.
    9900012    2    1    2    0    0  0.12705282994E+02  0.39345045691E+02  0.13197228445E+02  0.47787266423E+02  0.19999978928E+02 0.  0.
         12    1    1    2    0    0 -0.12705282994E+02 -0.39345045691E+02 -0.13197228445E+02  0.43400733577E+02  0.00000000000E+00 0. -1.
         11    1    3    3    0    0  0.72869756085E+01  0.65528976293E+01  0.60921623589E+00  0.98189421804E+01  0.51100000000E-03 0. -1.
        -11    1    3    3    0    0  0.50472369239E+01  0.24900389973E+02  0.30591978226E+01  0.25590285519E+02  0.51100000000E-03 0.  1.
         12    1    3    3    0    0  0.37107046206E+00  0.78917580886E+01  0.95288143864E+01  0.12378038723E+02  0.00000000000E+00 0. -1.
</event>
<event>
 7    1  0.2387817E-009  0.4778728E+02  0.7816164E-02  0.1312668E+00
        -11   -1    0    0    0    0  0.00000000000E+00  0.00000000000E+00  0.45593999997E+02  0.45594000000E+02  0.51100000000E-03 0.  1.
         11   -1    0    0    0    0 -0.00000000000E+00 -0.00000000000E+00 -0.45593999997E+02  0.45594000000E+02  0.51100000000E-03 0. -1.
    9900012    2    1    2    0    0 -0.35869679791E+01 -0.89656117701E+01  0.42312815582E+02  0.47787275396E+02  0.20000019842E+02 0.  0.
         12    1    1    2    0    0  0.35869679791E+01  0.89656117701E+01 -0.42312815582E+02  0.43400724604E+02  0.00000000000E+00 0. -1.
         11    1    3    3    0    0  0.23624523087E+01 -0.69176553852E+01  0.16130707264E+02  0.17709738960E+02  0.51100000000E-03 0. -1.
        -11    1    3    3    0    0 -0.26024771648E+01  0.56714214232E+01  0.90750629434E+01  0.11013386220E+02  0.51100000000E-03 0.  1.
         12    1    3    3    0    0 -0.33469431230E+01 -0.77193778081E+01  0.17107045374E+02  0.19064150215E+02  0.00000000000E+00 0. -1.
</event>
<event>
 7    1  0.2387817E-009  0.4778727E+02  0.7816164E-02  0.1312668E+00
        -11   -1    0    0    0    0  0.00000000000E+00  0.00000000000E+00  0.45593999997E+02  0.45594000000E+02  0.51100000000E-03 0.  1.
         11   -1    0    0    0    0 -0.00000000000E+00 -0.00000000000E+00 -0.45593999997E+02  0.45594000000E+02  0.51100000000E-03 0. -1.
    9900012    2    1    2    0    0 -0.29088126797E+02 -0.28688010715E+02  0.14645894528E+02  0.47787270676E+02  0.19999998320E+02 0.  0.
         12    1    1    2    0    0  0.29088126797E+02  0.28688010715E+02 -0.14645894528E+02  0.43400729324E+02  0.00000000000E+00 0. -1.
         11    1    3    3    0    0 -0.80193521637E+01 -0.11706005973E+02  0.18644096507E+01  0.14311415323E+02  0.51100000000E-03 0. -1.
        -11    1    3    3    0    0 -0.14203882321E+02 -0.37530675810E+01  0.14686397098E+01  0.14764575582E+02  0.51100000000E-03 0.  1.
        -12    1    3    3    0    0 -0.68648923130E+01 -0.13228937161E+02  0.11312845167E+02  0.18711279771E+02  0.00000000000E+00 0.  1.
</event>
<event>
 7    1  0.2387817E-009  0.4778727E+02  0.7816164E-02  0.1312668E+00
        -11   -1    0    0    0    0  0.00000000000E+00  0.00000000000E+00  0.45593999997E+02  0.45594000000E+02  0.51100000000E-03 0.  1.
         11   -1    0    0    0    0 -0.00000000000E+00 -0.00000000000E+00 -0.45593999997E+02  0.45594000000E+02  0.51100000000E-03 0. -1.
    9900012    2    1    2    0    0 -0.15729351216E+02  0.15542567809E+02  0.37344869918E+02  0.47787271746E+02  0.20000003197E+02 0.  0.
         12    1    1    2    0    0  0.15729351216E+02 -0.15542567809E+02 -0.37344869918E+02  0.43400728254E+02  0.00000000000E+00 0. -1.
         11    1    3    3    0    0 -0.51865388965E+01  0.66069892060E+01  0.12148474390E+02  0.14769492962E+02  0.51100000000E-03 0. -1.
        -11    1    3    3    0    0 -0.54117808773E+01  0.56827968974E+01  0.25748273784E+02  0.26917562222E+02  0.51100000000E-03 0.  1.
         12    1    3    3    0    0 -0.51310314425E+01  0.32527817056E+01 -0.55187825595E+00  0.61002165616E+01  0.00000000000E+00 0. -1.
</event>
<event>
 7    1  0.2387817E-009  0.4778727E+02  0.7816164E-02  0.1312668E+00
        -11   -1    0    0    0    0  0.00000000000E+00  0.00000000000E+00  0.45593999997E+02  0.45594000000E+02  0.51100000000E-03 0. -1.
         11   -1    0    0    0    0 -0.00000000000E+00 -0.00000000000E+00 -0.45593999997E+02  0.45594000000E+02  0.51100000000E-03 0.  1.
    9900012    2    1    2    0    0 -0.71360394780E+01  0.42785196376E+02  0.14584928653E+01  0.47787270861E+02  0.19999999162E+02 0.  0.
         12    1    1    2    0    0  0.71360394780E+01 -0.42785196376E+02 -0.14584928653E+01  0.43400729139E+02  0.00000000000E+00 0. -1.
         11    1    3    3    0    0 -0.18347785253E+01  0.17134044025E+02  0.65859028637E+01  0.18447655507E+02  0.51100000000E-03 0. -1.
        -11    1    3    3    0    0 -0.14797363675E+01  0.23699209194E+02 -0.16255796906E+01  0.23800937917E+02  0.51100000000E-03 0.  1.
        -12    1    3    3    0    0 -0.38215245852E+01  0.19519431564E+01 -0.35018303077E+01  0.55386774365E+01  0.00000000000E+00 0.  1.
</event>
<event>
 7    1  0.2387817E-009  0.4778729E+02  0.7816164E-02  0.1312668E+00
        -11   -1    0    0    0    0  0.00000000000E+00  0.00000000000E+00  0.45593999997E+02  0.45594000000E+02  0.51100000000E-03 0. -1.
         11   -1    0    0    0    0 -0.00000000000E+00 -0.00000000000E+00 -0.45593999997E+02  0.45594000000E+02  0.51100000000E-03 0.  1.
    9900012    2    1    2    0    0  0.14105849698E+02 -0.69044395201E+01 -0.40459555021E+02  0.47787287180E+02  0.20000073568E+02 0.  0.
         12    1    1    2    0    0 -0.14105849698E+02  0.69044395201E+01  0.40459555021E+02  0.43400712820E+02  0.00000000000E+00 0. -1.
         11    1    3    3    0    0  0.62554297270E+01  0.56579393672E+00 -0.29173851196E+01  0.69254357296E+01  0.51100000000E-03 0. -1.
        -11    1    3    3    0    0  0.94540174633E+01 -0.10902612826E+01 -0.23559595999E+02  0.25409086559E+02  0.51100000000E-03 0.  1.
        -12    1    3    3    0    0 -0.16035974919E+01 -0.63799721743E+01 -0.13982573902E+02  0.15452764891E+02  0.00000000000E+00 0.  1.
</event>
<event>
 7    1  0.2387817E-009  0.4778727E+02  0.7816164E-02  0.1312668E+00
        -11   -1    0    0    0    0  0.00000000000E+00  0.00000000000E+00  0.45593999997E+02  0.45594000000E+02  0.51100000000E-03 0.  1.
         11   -1    0    0    0    0 -0.00000000000E+00 -0.00000000000E+00 -0.45593999997E+02  0.45594000000E+02  0.51100000000E-03 0. -1.
    9900012    2    1    2    0    0  0.22256151129E+02  0.19742348810E+02  0.31599467674E+02  0.47787274696E+02  0.20000016651E+02 0.  0.
         12    1    1    2    0    0 -0.22256151129E+02 -0.19742348810E+02 -0.31599467674E+02  0.43400725304E+02  0.00000000000E+00 0. -1.
         11    1    3    3    0    0  0.11156714482E+02  0.13945759830E+02  0.17735738643E+02  0.25169682571E+02  0.51100000000E-03 0. -1.
        -11    1    3    3    0    0  0.86600016330E+01  0.32970295461E+01  0.10374554155E+01  0.93242879681E+01  0.51100000000E-03 0.  1.
         12    1    3    3    0    0  0.24394350140E+01  0.24995594338E+01  0.12826273616E+02  0.13293304157E+02  0.00000000000E+00 0. -1.
</event>
<event>
 7    1  0.2387817E-009  0.4778726E+02  0.7816164E-02  0.1312668E+00
        -11   -1    0    0    0    0  0.00000000000E+00  0.00000000000E+00  0.45593999997E+02  0.45594000000E+02  0.51100000000E-03 0. -1.
         11   -1    0    0    0    0 -0.00000000000E+00 -0.00000000000E+00 -0.45593999997E+02  0.45594000000E+02  0.51100000000E-03 0.  1.
    9900012    2    1    2    0    0  0.12002883378E+02 -0.16064982466E+02 -0.38489882598E+02  0.47787263447E+02  0.19999965358E+02 0.  0.
         12    1    1    2    0    0 -0.12002883378E+02  0.16064982466E+02  0.38489882598E+02  0.43400736553E+02  0.00000000000E+00 0. -1.
         11    1    3    3    0    0 -0.25684739376E+01  0.10529666155E+00 -0.10157292976E+01  0.27640282238E+01  0.51100000000E-03 0. -1.
        -11    1    3    3    0    0  0.35731981080E+01 -0.11102908466E+01 -0.16668625375E+02  0.17083429475E+02  0.51100000000E-03 0.  1.
        -12    1    3    3    0    0  0.10998159208E+02 -0.15059988281E+02 -0.20805527925E+02  0.27939805747E+02  0.00000000000E+00 0.  1.
</event>
<event>
 7    1  0.2387817E-009  0.4778727E+02  0.7816164E-02  0.1312668E+00
        -11   -1    0    0    0    0  0.00000000000E+00  0.00000000000E+00  0.45593999997E+02  0.45594000000E+02  0.51100000000E-03 0.  1.
         11   -1    0    0    0    0 -0.00000000000E+00 -0.00000000000E+00 -0.45593999997E+02  0.45594000000E+02  0.51100000000E-03 0. -1.
    9900012    2    1    2    0    0 -0.30025234511E+02  0.31338582063E+02  0.41383991212E-01  0.47787272520E+02  0.20000006729E+02 0.  0.
         12    1    1    2    0    0  0.30025234511E+02 -0.31338582063E+02 -0.41383991212E-01  0.43400727480E+02  0.00000000000E+00 0. -1.
         11    1    3    3    0    0 -0.30303191316E+01 -0.85850704000E+00  0.82758021219E+00  0.32564946869E+01  0.51100000000E-03 0. -1.
        -11    1    3    3    0    0 -0.15492696627E+02  0.20624626876E+02  0.65912063897E+01  0.26624103449E+02  0.51100000000E-03 0.  1.
         12    1    3    3    0    0 -0.11502218752E+02  0.11572462227E+02 -0.73774026107E+01  0.17906674384E+02  0.00000000000E+00 0. -1.
</event>
<event>
 7    1  0.2387817E-009  0.4778728E+02  0.7816164E-02  0.1312668E+00
        -11   -1    0    0    0    0  0.00000000000E+00  0.00000000000E+00  0.45593999997E+02  0.45594000000E+02  0.51100000000E-03 0.  1.
         11   -1    0    0    0    0 -0.00000000000E+00 -0.00000000000E+00 -0.45593999997E+02  0.45594000000E+02  0.51100000000E-03 0. -1.
    9900012    2    1    2    0    0 -0.13758312839E+02  0.34566856206E+02  0.22348690148E+02  0.47787277984E+02  0.20000031639E+02 0.  0.
         12    1    1    2    0    0  0.13758312839E+02 -0.34566856206E+02 -0.22348690148E+02  0.43400722016E+02  0.00000000000E+00 0. -1.
         11    1    3    3    0    0  0.59480468467E+00  0.32629611118E+00  0.17099016046E+01  0.18395721034E+01  0.51100000000E-03 0.  1.
        -11    1    3    3    0    0 -0.53184995908E+01  0.10277115970E+02 -0.20272537914E+01  0.11747991690E+02  0.51100000000E-03 0. -1.
         12    1    3    3    0    0 -0.90346179333E+01  0.23963444125E+02  0.22666042335E+02  0.34199714190E+02  0.00000000000E+00 0. -1.
</event>
<event>
 7    1  0.2387817E-009  0.4778727E+02  0.7816164E-02  0.1312668E+00
        -11   -1    0    0    0    0  0.00000000000E+00  0.00000000000E+00  0.45593999997E+02  0.45594000000E+02  0.51100000000E-03 0.  1.
         11   -1    0    0    0    0 -0.00000000000E+00 -0.00000000000E+00 -0.45593999997E+02  0.45594000000E+02  0.51100000000E-03 0. -1.
    9900012    2    1    2    0    0 -0.16576145229E+02 -0.17882094478E+02  0.35903839551E+02  0.47787267424E+02  0.19999983495E+02 0.  0.
         12    1    1    2    0    0  0.16576145229E+02  0.17882094478E+02 -0.35903839551E+02  0.43400732576E+02  0.00000000000E+00 0. -1.
         11    1    3    3    0    0 -0.10824031081E+00 -0.20018498354E+01  0.32002176215E+01  0.37763092847E+01  0.51100000000E-03 0. -1.
        -11    1    3    3    0    0 -0.17263962379E+01 -0.14302453291E+02  0.18806982221E+02  0.23690571851E+02  0.51100000000E-03 0.  1.
         12    1    3    3    0    0 -0.14741508681E+02 -0.15777913522E+01  0.13896639708E+02  0.20320386288E+02  0.00000000000E+00 0. -1.
</event>
<event>
 7    1  0.2387817E-009  0.4778727E+02  0.7816164E-02  0.1312668E+00
        -11   -1    0    0    0    0  0.00000000000E+00  0.00000000000E+00  0.45593999997E+02  0.45594000000E+02  0.51100000000E-03 0. -1.
         11   -1    0    0    0    0 -0.00000000000E+00 -0.00000000000E+00 -0.45593999997E+02  0.45594000000E+02  0.51100000000E-03 0.  1.
    9900012    2    1    2    0    0  0.23201403393E+02  0.36260041749E+02  0.55251705436E+01  0.47787271244E+02  0.20000000909E+02 0.  0.
         12    1    1    2    0    0 -0.23201403393E+02 -0.36260041749E+02 -0.55251705436E+01  0.43400728756E+02  0.00000000000E+00 0. -1.
         11    1    3    3    0    0  0.78834876165E+01  0.10614594383E+02  0.52625317187E+01  0.14230714362E+02  0.51100000000E-03 0. -1.
        -11    1    3    3    0    0  0.14525415683E+02  0.10207104306E+02  0.25300654187E+01  0.17932481991E+02  0.51100000000E-03 0.  1.
        -12    1    3    3    0    0  0.79250009440E+00  0.15438343060E+02 -0.22674265938E+01  0.15624074891E+02  0.00000000000E+00 0.  1.
</event>
<event>
 7    1  0.2387817E-009  0.4778727E+02  0.7816164E-02  0.1312668E+00
        -11   -1    0    0    0    0  0.00000000000E+00  0.00000000000E+00  0.45593999997E+02  0.45594000000E+02  0.51100000000E-03 0. -1.
         11   -1    0    0    0    0 -0.00000000000E+00 -0.00000000000E+00 -0.45593999997E+02  0.45594000000E+02  0.51100000000E-03 0.  1.
    9900012    2    1    2    0    0 -0.31383587412E+02  0.29567768524E+02 -0.49437636360E+01  0.47787270822E+02  0.19999998985E+02 0.  0.
         12    1    1    2    0    0  0.31383587412E+02 -0.29567768524E+02  0.49437636360E+01  0.43400729178E+02  0.00000000000E+00 0. -1.
         11    1    3    3    0    0 -0.10978423924E+02  0.18038143869E+02  0.54434682866E+01  0.21806691022E+02  0.51100000000E-03 0. -1.
        -11    1    3    3    0    0 -0.31110950468E+01  0.17634391636E+00 -0.11093344364E+01  0.33076627277E+01  0.51100000000E-03 0.  1.
         12    1    3    3    0    0 -0.17294068442E+02  0.11353280738E+02 -0.92778974862E+01  0.22672917072E+02  0.00000000000E+00 0. -1.
</event>
<event>
 7    1  0.2387817E-009  0.4778727E+02  0.7816164E-02  0.1312668E+00
        -11   -1    0    0    0    0  0.00000000000E+00  0.00000000000E+00  0.45593999997E+02  0.45594000000E+02  0.51100000000E-03 0.  1.
         11   -1    0    0    0    0 -0.00000000000E+00 -0.00000000000E+00 -0.45593999997E+02  0.45594000000E+02  0.51100000000E-03 0. -1.
    9900012    2    1    2    0    0  0.24940551933E+02 -0.33870544842E+02  0.10694780635E+02  0.47787271072E+02  0.20000000125E+02 0.  0.
         12    1    1    2    0    0 -0.24940551933E+02  0.33870544842E+02 -0.10694780635E+02  0.43400728928E+02  0.00000000000E+00 0. -1.
         11    1    3    3    0    0  0.16128296551E+01 -0.13475415531E+01 -0.23670724615E+01  0.31654573181E+01  0.51100000000E-03 0. -1.
        -11    1    3    3    0    0 -0.12748917841E+01 -0.64014427058E+01  0.38374859551E+01  0.75716653712E+01  0.51100000000E-03 0.  1.
        -12    1    3    3    0    0  0.24602614062E+02 -0.26121560584E+02  0.92243671418E+01  0.37050148383E+02  0.00000000000E+00 0.  1.
</event>
<event>
 7    1  0.2387817E-009  0.4778727E+02  0.7816164E-02  0.1312668E+00
        -11   -1    0    0    0    0  0.00000000000E+00  0.00000000000E+00  0.45593999997E+02  0.45594000000E+02  0.51100000000E-03 0.  1.
         11   -1    0    0    0    0 -0.00000000000E+00 -0.00000000000E+00 -0.45593999997E+02  0.45594000000E+02  0.51100000000E-03 0. -1.
    9900012    2    1    2    0    0 -0.34855080825E+02  0.24462928565E+02 -0.83852146053E+01  0.47787270083E+02  0.19999995617E+02 0.  0.
         12    1    1    2    0    0  0.34855080825E+02 -0.24462928565E+02  0.83852146053E+01  0.43400729917E+02  0.00000000000E+00 0. -1.
         11    1    3    3    0    0 -0.37915805172E+01  0.82897747432E-01  0.43140215577E+01  0.57440175066E+01  0.51100000000E-03 0. -1.
        -11    1    3    3    0    0 -0.78158393510E+01  0.28850981751E+01 -0.37810676952E+01  0.91491862708E+01  0.51100000000E-03 0.  1.
         12    1    3    3    0    0 -0.23247660957E+02  0.21494932643E+02 -0.89181684679E+01  0.32894066306E+02  0.00000000000E+00 0. -1.
</event>
<event>
 7    1  0.2387817E-009  0.4778727E+02  0.7816164E-02  0.1312668E+00
        -11   -1    0    0    0    0  0.00000000000E+00  0.00000000000E+00  0.45593999997E+02  0.45594000000E+02  0.51100000000E-03 0.  1.
         11   -1    0    0    0    0 -0.00000000000E+00 -0.00000000000E+00 -0.45593999997E+02  0.45594000000E+02  0.51100000000E-03 0. -1.
    9900012    2    1    2    0    0 -0.38123738662E+02 -0.40519671332E+01  0.20341709132E+02  0.47787273997E+02  0.20000013461E+02 0.  0.
         12    1    1    2    0    0  0.38123738662E+02  0.40519671332E+01 -0.20341709132E+02  0.43400726003E+02  0.00000000000E+00 0. -1.
         11    1    3    3    0    0 -0.89631681469E+01 -0.66603596649E+01  0.35878458886E+01  0.11729084043E+02  0.51100000000E-03 0. -1.
        -11    1    3    3    0    0 -0.12823753149E+02  0.48550950677E+01  0.13514229490E+02  0.19252402238E+02  0.51100000000E-03 0.  1.
         12    1    3    3    0    0 -0.16336817365E+02 -0.22467025360E+01  0.32396337533E+01  0.16805787717E+02  0.00000000000E+00 0. -1.
</event>
<event>
 7    1  0.2387817E-009  0.4778729E+02  0.7816164E-02  0.1312668E+00
        -11   -1    0    0    0    0  0.00000000000E+00  0.00000000000E+00  0.45593999997E+02  0.45594000000E+02  0.51100000000E-03 0.  1.
         11   -1    0    0    0    0 -0.00000000000E+00 -0.00000000000E+00 -0.45593999997E+02  0.45594000000E+02  0.51100000000E-03 0. -1.
    9900012    2    1    2    0    0  0.19561287459E+02 -0.79351255201E+01  0.37921118267E+02  0.47787292693E+02  0.20000098706E+02 0.  0.
         12    1    1    2    0    0 -0.19561287459E+02  0.79351255201E+01 -0.37921118267E+02  0.43400707307E+02  0.00000000000E+00 0. -1.
         11    1    3    3    0    0  0.14195239690E+02 -0.42990016629E+01  0.75066035755E+01  0.16623337290E+02  0.51100000000E-03 0. -1.
        -11    1    3    3    0    0  0.12386735934E+01  0.30077953109E-01  0.68752539622E+01  0.69860098955E+01  0.51100000000E-03 0.  1.
         12    1    3    3    0    0  0.41273741764E+01 -0.36662018103E+01  0.23539260730E+02  0.24177945508E+02  0.00000000000E+00 0. -1.
</event>
<event>
 7    1  0.2387817E-009  0.4778727E+02  0.7816164E-02  0.1312668E+00
        -11   -1    0    0    0    0  0.00000000000E+00  0.00000000000E+00  0.45593999997E+02  0.45594000000E+02  0.51100000000E-03 0. -1.
         11   -1    0    0    0    0 -0.00000000000E+00 -0.00000000000E+00 -0.45593999997E+02  0.45594000000E+02  0.51100000000E-03 0.  1.
    9900012    2    1    2    0    0 -0.43204136185E+02  0.25182912539E+01 -0.32686307746E+01  0.47787272800E+02  0.20000008004E+02 0.  0.
         12    1    1    2    0    0  0.43204136185E+02 -0.25182912539E+01  0.32686307746E+01  0.43400727200E+02  0.00000000000E+00 0. -1.
         11    1    3    3    0    0 -0.14925181606E+01 -0.38907920403E+01 -0.14341892592E+01  0.44071274377E+01  0.51100000000E-03 0. -1.
        -11    1    3    3    0    0 -0.13797426842E+02 -0.10183220538E+01 -0.40340232025E+01  0.14411082913E+02  0.51100000000E-03 0.  1.
         12    1    3    3    0    0 -0.27914191183E+02  0.74274053479E+01  0.21995816871E+01  0.28969062449E+02  0.00000000000E+00 0. -1.
</event>
<event>
 7    1  0.2387817E-009  0.4778727E+02  0.7816164E-02  0.1312668E+00
        -11   -1    0    0    0    0  0.00000000000E+00  0.00000000000E+00  0.45593999997E+02  0.45594000000E+02  0.51100000000E-03 0.  1.
         11   -1    0    0    0    0 -0.00000000000E+00 -0.00000000000E+00 -0.45593999997E+02  0.45594000000E+02  0.51100000000E-03 0. -1.
    9900012    2    1    2    0    0 -0.18634845420E+02 -0.38763750728E+02 -0.58083833349E+01  0.47787272456E+02  0.20000006438E+02 0.  0.
         12    1    1    2    0    0  0.18634845420E+02  0.38763750728E+02  0.58083833349E+01  0.43400727544E+02  0.00000000000E+00 0. -1.
         11    1    3    3    0    0  0.61779264461E+00 -0.36387438561E+01 -0.72453105144E+00  0.37612591121E+01  0.51100000000E-03 0. -1.
        -11    1    3    3    0    0 -0.20463734991E+02 -0.36506209387E+02 -0.52636817436E+01  0.42180257459E+02  0.51100000000E-03 0.  1.
         12    1    3    3    0    0  0.12110969265E+01  0.13812025148E+01  0.17982946008E+00  0.18457558850E+01  0.00000000000E+00 0. -1.
</event>
<event>
 7    1  0.2387817E-009  0.4778727E+02  0.7816164E-02  0.1312668E+00
        -11   -1    0    0    0    0  0.00000000000E+00  0.00000000000E+00  0.45593999997E+02  0.45594000000E+02  0.51100000000E-03 0.  1.
         11   -1    0    0    0    0 -0.00000000000E+00 -0.00000000000E+00 -0.45593999997E+02  0.45594000000E+02  0.51100000000E-03 0. -1.
    9900012    2    1    2    0    0 -0.32949255277E+02 -0.24961166680E+02  0.13225356883E+02  0.47787270398E+02  0.19999997052E+02 0.  0.
         12    1    1    2    0    0  0.32949255277E+02  0.24961166680E+02 -0.13225356883E+02  0.43400729602E+02  0.00000000000E+00 0. -1.
         11    1    3    3    0    0 -0.11111772063E+02 -0.39884482803E+01 -0.49047871078E+00  0.11816080894E+02  0.51100000000E-03 0. -1.
        -11    1    3    3    0    0 -0.88004883229E+00 -0.34690923258E+01 -0.23579415772E+01  0.42859043683E+01  0.51100000000E-03 0.  1.
        -12    1    3    3    0    0 -0.20957434382E+02 -0.17503626074E+02  0.16073777171E+02  0.31685285136E+02  0.00000000000E+00 0.  1.
</event>
<event>
 7    1  0.2387817E-009  0.4778727E+02  0.7816164E-02  0.1312668E+00
        -11   -1    0    0    0    0  0.00000000000E+00  0.00000000000E+00  0.45593999997E+02  0.45594000000E+02  0.51100000000E-03 0.  1.
         11   -1    0    0    0    0 -0.00000000000E+00 -0.00000000000E+00 -0.45593999997E+02  0.45594000000E+02  0.51100000000E-03 0. -1.
    9900012    2    1    2    0    0 -0.40320686285E+02  0.16058159507E+02 -0.29546899495E-01  0.47787273021E+02  0.20000009013E+02 0.  0.
         12    1    1    2    0    0  0.40320686285E+02 -0.16058159507E+02  0.29546899495E-01  0.43400726979E+02  0.00000000000E+00 0. -1.
         11    1    3    3    0    0 -0.23270836411E+01  0.52982835179E+01 -0.27818467396E+01  0.64207318938E+01  0.51100000000E-03 0. -1.
        -11    1    3    3    0    0 -0.69606067931E+01  0.57259662836E+01  0.40938423088E+01  0.98993071434E+01  0.51100000000E-03 0.  1.
        -12    1    3    3    0    0 -0.31032995851E+02  0.50339097052E+01 -0.13415424686E+01  0.31467233984E+02  0.00000000000E+00 0.  1.
</event>
<event>
 7    1  0.2387817E-009  0.4778732E+02  0.7816164E-02  0.1312668E+00
        -11   -1    0    0    0    0  0.00000000000E+00  0.00000000000E+00  0.45593999997E+02  0.45594000000E+02  0.51100000000E-03 0. -1.
         11   -1    0    0    0    0 -0.00000000000E+00 -0.00000000000E+00 -0.45593999997E+02  0.45594000000E+02  0.51100000000E-03 0.  1.
    9900012    2    1    2    0    0 -0.29746643922E+02 -0.37239623415E+01 -0.31382923657E+02  0.47787324689E+02  0.20000244587E+02 0.  0.
         12    1    1    2    0    0  0.29746643922E+02  0.37239623415E+01  0.31382923657E+02  0.43400675311E+02  0.00000000000E+00 0. -1.
         11    1    3    3    0    0 -0.65757742402E+01  0.40094980784E+01 -0.16394077674E+02  0.18113052331E+02  0.51100000000E-03 0. -1.
        -11    1    3    3    0    0 -0.18057539326E+02 -0.23947309930E+01 -0.10476996678E+02  0.21013731765E+02  0.51100000000E-03 0.  1.
        -12    1    3    3    0    0 -0.51133303563E+01 -0.53387294269E+01 -0.45118493053E+01  0.86605405940E+01  0.00000000000E+00 0.  1.
</event>
<event>
 7    1  0.2387817E-009  0.4778729E+02  0.7816164E-02  0.1312668E+00
        -11   -1    0    0    0    0  0.00000000000E+00  0.00000000000E+00  0.45593999997E+02  0.45594000000E+02  0.51100000000E-03 0.  1.
         11   -1    0    0    0    0 -0.00000000000E+00 -0.00000000000E+00 -0.45593999997E+02  0.45594000000E+02  0.51100000000E-03 0. -1.
    9900012    2    1    2    0    0 -0.46755877330E+01  0.74596182636E+01  0.42498410023E+02  0.47787287105E+02  0.20000073228E+02 0.  0.
         12    1    1    2    0    0  0.46755877330E+01 -0.74596182636E+01 -0.42498410023E+02  0.43400712895E+02  0.00000000000E+00 0. -1.
         11    1    3    3    0    0 -0.35489564038E+01 -0.15854651250E+01  0.10915799718E+02  0.11587211699E+02  0.51100000000E-03 0.  1.
        -11    1    3    3    0    0 -0.22979283781E+01  0.28057313532E+01 -0.34910784716E+00  0.36434159531E+01  0.51100000000E-03 0. -1.
         12    1    3    3    0    0  0.11712970489E+01  0.62393520354E+01  0.31931718152E+02  0.32556659453E+02  0.00000000000E+00 0. -1.
</event>
<event>
 7    1  0.2387817E-009  0.4778728E+02  0.7816164E-02  0.1312668E+00
        -11   -1    0    0    0    0  0.00000000000E+00  0.00000000000E+00  0.45593999997E+02  0.45594000000E+02  0.51100000000E-03 0.  1.
         11   -1    0    0    0    0 -0.00000000000E+00 -0.00000000000E+00 -0.45593999997E+02  0.45594000000E+02  0.51100000000E-03 0. -1.
    9900012    2    1    2    0    0 -0.28388350432E+02  0.55461400787E+01  0.32356830108E+02  0.47787279215E+02  0.20000037253E+02 0.  0.
         12    1    1    2    0    0  0.28388350432E+02 -0.55461400787E+01 -0.32356830108E+02  0.43400720785E+02  0.00000000000E+00 0. -1.
         11    1    3    3    0    0 -0.92400475615E+01  0.80035994953E+01  0.17440779215E+02  0.21298283116E+02  0.51100000000E-03 0. -1.
        -11    1    3    3    0    0 -0.11972572810E+02  0.29834578235E+01  0.11471260261E+02  0.16847353873E+02  0.51100000000E-03 0.  1.
         12    1    3    3    0    0 -0.71757300603E+01 -0.54409172401E+01  0.34447906320E+01  0.96416422258E+01  0.00000000000E+00 0. -1.
</event>
<event>
 7    1  0.2387817E-009  0.4778727E+02  0.7816164E-02  0.1312668E+00
        -11   -1    0    0    0    0  0.00000000000E+00  0.00000000000E+00  0.45593999997E+02  0.45594000000E+02  0.51100000000E-03 0.  1.
         11   -1    0    0    0    0 -0.00000000000E+00 -0.00000000000E+00 -0.45593999997E+02  0.45594000000E+02  0.51100000000E-03 0. -1.
    9900012    2    1    2    0    0  0.16877432570E+02  0.39570641213E+02  0.57393497456E+01  0.47787268306E+02  0.19999987512E+02 0.  0.
         12    1    1    2    0    0 -0.16877432570E+02 -0.39570641213E+02 -0.57393497456E+01  0.43400731694E+02  0.00000000000E+00 0. -1.
         11    1    3    3    0    0  0.24246837351E+01  0.15039909920E+02  0.37103408001E+01  0.15679432730E+02  0.51100000000E-03 0. -1.
        -11    1    3    3    0    0  0.93085975384E+01  0.25185533428E+02  0.19524580128E+01  0.26921611666E+02  0.51100000000E-03 0.  1.
         12    1    3    3    0    0  0.51441512961E+01 -0.65480213488E+00  0.76550932741E-01  0.51862239094E+01  0.00000000000E+00 0. -1.
</event>
<event>
 7    1  0.2387817E-009  0.4778727E+02  0.7816164E-02  0.1312668E+00
        -11   -1    0    0    0    0  0.00000000000E+00  0.00000000000E+00  0.45593999997E+02  0.45594000000E+02  0.51100000000E-03 0.  1.
         11   -1    0    0    0    0 -0.00000000000E+00 -0.00000000000E+00 -0.45593999997E+02  0.45594000000E+02  0.51100000000E-03 0. -1.
    9900012    2    1    2    0    0 -0.35193774967E+02  0.19826023387E+01  0.25319771220E+02  0.47787270478E+02  0.19999997416E+02 0.  0.
         12    1    1    2    0    0  0.35193774967E+02 -0.19826023387E+01 -0.25319771220E+02  0.43400729522E+02  0.00000000000E+00 0. -1.
         11    1    3    3    0    0 -0.98766833128E+01  0.30028240619E+01  0.14959951025E+02  0.18175972066E+02  0.51100000000E-03 0. -1.
        -11    1    3    3    0    0 -0.13973828831E+02 -0.18566571171E+01  0.11483291417E+02  0.18181887963E+02  0.51100000000E-03 0.  1.
         12    1    3    3    0    0 -0.11343262822E+02  0.83643539399E+00 -0.11234712221E+01  0.11429410449E+02  0.00000000000E+00 0. -1.
</event>
<event>
 7    1  0.2387817E-009  0.4778727E+02  0.7816164E-02  0.1312668E+00
        -11   -1    0    0    0    0  0.00000000000E+00  0.00000000000E+00  0.45593999997E+02  0.45594000000E+02  0.51100000000E-03 0. -1.
         11   -1    0    0    0    0 -0.00000000000E+00 -0.00000000000E+00 -0.45593999997E+02  0.45594000000E+02  0.51100000000E-03 0.  1.
    9900012    2    1    2    0    0 -0.38260141578E+02  0.13456630984E+02 -0.15450050767E+02  0.47787269364E+02  0.19999992338E+02 0.  0.
         12    1    1    2    0    0  0.38260141578E+02 -0.13456630984E+02  0.15450050767E+02  0.43400730636E+02  0.00000000000E+00 0. -1.
         11    1    3    3    0    0 -0.23106325565E+01  0.28974743582E+01 -0.10245197434E+01  0.38449995362E+01  0.51100000000E-03 0. -1.
        -11    1    3    3    0    0 -0.35050718001E+02  0.10430735680E+02 -0.17640026987E+02  0.40602015117E+02  0.51100000000E-03 0.  1.
         12    1    3    3    0    0 -0.89879102103E+00  0.12842094570E+00  0.32144959628E+01  0.33402547109E+01  0.00000000000E+00 0. -1.
</event>
<event>
 7    1  0.2387817E-009  0.4778727E+02  0.7816164E-02  0.1312668E+00
        -11   -1    0    0    0    0  0.00000000000E+00  0.00000000000E+00  0.45593999997E+02  0.45594000000E+02  0.51100000000E-03 0.  1.
         11   -1    0    0    0    0 -0.00000000000E+00 -0.00000000000E+00 -0.45593999997E+02  0.45594000000E+02  0.51100000000E-03 0. -1.
    9900012    2    1    2    0    0 -0.12965615453E+02 -0.41222122894E+02  0.40314588253E+01  0.47787271202E+02  0.20000000716E+02 0.  0.
         12    1    1    2    0    0  0.12965615453E+02  0.41222122894E+02 -0.40314588253E+01  0.43400728798E+02  0.00000000000E+00 0. -1.
         11    1    3    3    0    0 -0.90832782002E+01 -0.21085045609E+02  0.28342428857E+01  0.23132618187E+02  0.51100000000E-03 0. -1.
        -11    1    3    3    0    0 -0.41362661462E+01 -0.21460319104E+02  0.33544326650E+01  0.22111223676E+02  0.51100000000E-03 0.  1.
         12    1    3    3    0    0  0.25392889369E+00  0.13232418196E+01 -0.21572167254E+01  0.25434293378E+01  0.00000000000E+00 0. -1.
</event>
<event>
 7    1  0.2387817E-009  0.4778727E+02  0.7816164E-02  0.1312668E+00
        -11   -1    0    0    0    0  0.00000000000E+00  0.00000000000E+00  0.45593999997E+02  0.45594000000E+02  0.51100000000E-03 0.  1.
         11   -1    0    0    0    0 -0.00000000000E+00 -0.00000000000E+00 -0.45593999997E+02  0.45594000000E+02  0.51100000000E-03 0. -1.
    9900012    2    1    2    0    0 -0.37197594737E+02 -0.20082764914E+02  0.98307982426E+01  0.47787273107E+02  0.20000009402E+02 0.  0.
         12    1    1    2    0    0  0.37197594737E+02  0.20082764914E+02 -0.98307982426E+01  0.43400726893E+02  0.00000000000E+00 0. -1.
         11    1    3    3    0    0 -0.20418794942E+02 -0.16147996508E+02  0.17018121594E+01  0.26087950149E+02  0.51100000000E-03 0.  1.
        -11    1    3    3    0    0 -0.15394623820E+01  0.29590671576E-01 -0.23321488627E+01  0.27945909562E+01  0.51100000000E-03 0. -1.
         12    1    3    3    0    0 -0.15239337412E+02 -0.39643590779E+01  0.10461134946E+02  0.18904732001E+02  0.00000000000E+00 0. -1.
</event>
<event>
 7    1  0.2387817E-009  0.4778727E+02  0.7816164E-02  0.1312668E+00
        -11   -1    0    0    0    0  0.00000000000E+00  0.00000000000E+00  0.45593999997E+02  0.45594000000E+02  0.51100000000E-03 0.  1.
         11   -1    0    0    0    0 -0.00000000000E+00 -0.00000000000E+00 -0.45593999997E+02  0.45594000000E+02  0.51100000000E-03 0. -1.
    9900012    2    1    2    0    0 -0.22565586877E+02 -0.27144020423E+02  0.25251134381E+02  0.47787270244E+02  0.19999996350E+02 0.  0.
         12    1    1    2    0    0  0.22565586877E+02  0.27144020423E+02 -0.25251134381E+02  0.43400729756E+02  0.00000000000E+00 0. -1.
         11    1    3    3    0    0 -0.64773409112E+01 -0.20402818474E+01  0.47582738755E+00  0.68077240882E+01  0.51100000000E-03 0. -1.
        -11    1    3    3    0    0 -0.16527786736E-01 -0.14546652345E+00  0.56824261103E+01  0.56843117822E+01  0.51100000000E-03 0.  1.
        -12    1    3    3    0    0 -0.16071718179E+02 -0.24958272053E+02  0.19092880883E+02  0.35295234374E+02  0.00000000000E+00 0.  1.
</event>
<event>
 7    1  0.2387817E-009  0.4778727E+02  0.7816164E-02  0.1312668E+00
        -11   -1    0    0    0    0  0.00000000000E+00  0.00000000000E+00  0.45593999997E+02  0.45594000000E+02  0.51100000000E-03 0. -1.
         11   -1    0    0    0    0 -0.00000000000E+00 -0.00000000000E+00 -0.45593999997E+02  0.45594000000E+02  0.51100000000E-03 0.  1.
    9900012    2    1    2    0    0  0.24087233760E+02  0.34912073987E+01 -0.35933829821E+02  0.47787268613E+02  0.19999988916E+02 0.  0.
         12    1    1    2    0    0 -0.24087233760E+02 -0.34912073987E+01  0.35933829821E+02  0.43400731387E+02  0.00000000000E+00 0. -1.
         11    1    3    3    0    0  0.36717791786E+01  0.18854518871E+01 -0.10482657423E+02  0.11266010744E+02  0.51100000000E-03 0.  1.
        -11    1    3    3    0    0  0.21637912040E+02  0.33224353365E+01 -0.16738943513E+02  0.27557758331E+02  0.51100000000E-03 0. -1.
         12    1    3    3    0    0 -0.12224574589E+01 -0.17166798250E+01 -0.87122288839E+01  0.89634995390E+01  0.00000000000E+00 0. -1.
</event>
<event>
 7    1  0.2387817E-009  0.4778727E+02  0.7816164E-02  0.1312668E+00
        -11   -1    0    0    0    0  0.00000000000E+00  0.00000000000E+00  0.45593999997E+02  0.45594000000E+02  0.51100000000E-03 0.  1.
         11   -1    0    0    0    0 -0.00000000000E+00 -0.00000000000E+00 -0.45593999997E+02  0.45594000000E+02  0.51100000000E-03 0. -1.
    9900012    2    1    2    0    0 -0.11806987039E+02 -0.34957223939E+01  0.41617284868E+02  0.47787269387E+02  0.19999992442E+02 0.  0.
         12    1    1    2    0    0  0.11806987039E+02  0.34957223939E+01 -0.41617284868E+02  0.43400730613E+02  0.00000000000E+00 0. -1.
         11    1    3    3    0    0  0.14909951249E+01 -0.21586343831E+01  0.10372839820E+02  0.10699466111E+02  0.51100000000E-03 0. -1.
        -11    1    3    3    0    0 -0.10059131225E+02 -0.52966446282E+01  0.29610253272E+02  0.31717623878E+02  0.51100000000E-03 0.  1.
         12    1    3    3    0    0 -0.32388509387E+01  0.39595566175E+01  0.16341917749E+01  0.53701793980E+01  0.00000000000E+00 0. -1.
</event>
<event>
 7    1  0.2387817E-009  0.4778727E+02  0.7816164E-02  0.1312668E+00
        -11   -1    0    0    0    0  0.00000000000E+00  0.00000000000E+00  0.45593999997E+02  0.45594000000E+02  0.51100000000E-03 0. -1.
         11   -1    0    0    0    0 -0.00000000000E+00 -0.00000000000E+00 -0.45593999997E+02  0.45594000000E+02  0.51100000000E-03 0.  1.
    9900012    2    1    2    0    0 -0.40842329842E+02  0.13867049764E+02 -0.48199690726E+01  0.47787273302E+02  0.20000010293E+02 0.  0.
         12    1    1    2    0    0  0.40842329842E+02 -0.13867049764E+02  0.48199690726E+01  0.43400726698E+02  0.00000000000E+00 0. -1.
         11    1    3    3    0    0  0.10129134581E+01  0.14652594120E+01  0.88167490852E+00  0.19875436407E+01  0.51100000000E-03 0. -1.
        -11    1    3    3    0    0 -0.13523892340E+02  0.64755089168E+00 -0.67086443624E+01  0.15110291050E+02  0.51100000000E-03 0.  1.
        -12    1    3    3    0    0 -0.28331350960E+02  0.11754239460E+02  0.10070003813E+01  0.30689438611E+02  0.00000000000E+00 0.  1.
</event>
<event>
 7    1  0.2387817E-009  0.4778727E+02  0.7816164E-02  0.1312668E+00
        -11   -1    0    0    0    0  0.00000000000E+00  0.00000000000E+00  0.45593999997E+02  0.45594000000E+02  0.51100000000E-03 0. -1.
         11   -1    0    0    0    0 -0.00000000000E+00 -0.00000000000E+00 -0.45593999997E+02  0.45594000000E+02  0.51100000000E-03 0.  1.
    9900012    2    1    2    0    0 -0.31872310229E+02  0.99482562395E+01 -0.27727443248E+02  0.47787273386E+02  0.20000010677E+02 0.  0.
         12    1    1    2    0    0  0.31872310229E+02 -0.99482562395E+01  0.27727443248E+02  0.43400726614E+02  0.00000000000E+00 0. -1.
         11    1    3    3    0    0 -0.18106807265E+02  0.97163707833E+01 -0.14086904095E+02  0.24913955884E+02  0.51100000000E-03 0. -1.
        -11    1    3    3    0    0 -0.16025873155E+02  0.24781896309E+00 -0.11241119104E+02  0.19576843045E+02  0.51100000000E-03 0.  1.
         12    1    3    3    0    0  0.22603701915E+01 -0.15933506913E-01 -0.23994200486E+01  0.32964744575E+01  0.00000000000E+00 0. -1.
</event>
<event>
 7    1  0.2387817E-009  0.4778728E+02  0.7816164E-02  0.1312668E+00
        -11   -1    0    0    0    0  0.00000000000E+00  0.00000000000E+00  0.45593999997E+02  0.45594000000E+02  0.51100000000E-03 0.  1.
         11   -1    0    0    0    0 -0.00000000000E+00 -0.00000000000E+00 -0.45593999997E+02  0.45594000000E+02  0.51100000000E-03 0. -1.
    9900012    2    1    2    0    0  0.28449447135E+02  0.18556395100E+01  0.32723197794E+02  0.47787284406E+02  0.20000060919E+02 0.  0.
         12    1    1    2    0    0 -0.28449447135E+02 -0.18556395100E+01 -0.32723197794E+02  0.43400715594E+02  0.00000000000E+00 0. -1.
         11    1    3    3    0    0  0.17116515520E+01 -0.19289785968E+01  0.88667233358E-01  0.25804208188E+01  0.51100000000E-03 0. -1.
        -11    1    3    3    0    0  0.61926057965E+01  0.96317785561E+00 -0.31435654923E+00  0.62749421060E+01  0.51100000000E-03 0.  1.
        -12    1    3    3    0    0  0.20545189786E+02  0.28214402512E+01  0.32948887109E+02  0.38931921481E+02  0.00000000000E+00 0.  1.
</event>
<event>
 7    1  0.2387817E-009  0.4778727E+02  0.7816164E-02  0.1312668E+00
        -11   -1    0    0    0    0  0.00000000000E+00  0.00000000000E+00  0.45593999997E+02  0.45594000000E+02  0.51100000000E-03 0. -1.
         11   -1    0    0    0    0 -0.00000000000E+00 -0.00000000000E+00 -0.45593999997E+02  0.45594000000E+02  0.51100000000E-03 0.  1.
    9900012    2    1    2    0    0  0.94990415380E+01  0.40298366398E+02 -0.13016651745E+02  0.47787270200E+02  0.19999996150E+02 0.  0.
         12    1    1    2    0    0 -0.94990415380E+01 -0.40298366398E+02  0.13016651745E+02  0.43400729800E+02  0.00000000000E+00 0. -1.
         11    1    3    3    0    0 -0.25574883619E+01  0.15744677140E+02 -0.32677619665E+01  0.16282317817E+02  0.51100000000E-03 0. -1.
        -11    1    3    3    0    0  0.40044031837E+01  0.78438120398E+01  0.26462700230E+01  0.91958347892E+01  0.51100000000E-03 0.  1.
        -12    1    3    3    0    0  0.80521267161E+01  0.16709877218E+02 -0.12395159802E+02  0.22309117594E+02  0.00000000000E+00 0.  1.
</event>
<event>
 7    1  0.2387817E-009  0.4778727E+02  0.7816164E-02  0.1312668E+00
        -11   -1    0    0    0    0  0.00000000000E+00  0.00000000000E+00  0.45593999997E+02  0.45594000000E+02  0.51100000000E-03 0. -1.
         11   -1    0    0    0    0 -0.00000000000E+00 -0.00000000000E+00 -0.45593999997E+02  0.45594000000E+02  0.51100000000E-03 0.  1.
    9900012    2    1    2    0    0  0.17424381222E+02 -0.32340505916E+02 -0.23110732735E+02  0.47787270151E+02  0.19999995926E+02 0.  0.
         12    1    1    2    0    0 -0.17424381222E+02  0.32340505916E+02  0.23110732735E+02  0.43400729849E+02  0.00000000000E+00 0. -1.
         11    1    3    3    0    0  0.34646469578E+01 -0.43605839858E+01  0.36681917737E+00  0.55814897482E+01  0.51100000000E-03 0. -1.
        -11    1    3    3    0    0  0.13705410321E+02 -0.18573705843E+02 -0.86619700788E+01  0.24654625261E+02  0.51100000000E-03 0.  1.
         12    1    3    3    0    0  0.25432394237E+00 -0.94062160873E+01 -0.14815581834E+02  0.17551155142E+02  0.00000000000E+00 0. -1.
</event>
<event>
 7    1  0.2387817E-009  0.4778727E+02  0.7816164E-02  0.1312668E+00
        -11   -1    0    0    0    0  0.00000000000E+00  0.00000000000E+00  0.45593999997E+02  0.45594000000E+02  0.51100000000E-03 0.  1.
         11   -1    0    0    0    0 -0.00000000000E+00 -0.00000000000E+00 -0.45593999997E+02  0.45594000000E+02  0.51100000000E-03 0. -1.
    9900012    2    1    2    0    0 -0.31079468531E+02 -0.23537249724E+02  0.19070593344E+02  0.47787273978E+02  0.20000013373E+02 0.  0.
         12    1    1    2    0    0  0.31079468531E+02  0.23537249724E+02 -0.19070593344E+02  0.43400726022E+02  0.00000000000E+00 0. -1.
         11    1    3    3    0    0 -0.26032360439E+02 -0.10389830345E+02  0.84407298771E+01  0.29272483423E+02  0.51100000000E-03 0.  1.
        -11    1    3    3    0    0 -0.17652584251E+01 -0.20309770052E+01 -0.13759106138E+00  0.26944269269E+01  0.51100000000E-03 0. -1.
         12    1    3    3    0    0 -0.32818496672E+01 -0.11116442374E+02  0.10767454529E+02  0.15820363628E+02  0.00000000000E+00 0. -1.
</event>
<event>
 7    1  0.2387817E-009  0.4778727E+02  0.7816164E-02  0.1312668E+00
        -11   -1    0    0    0    0  0.00000000000E+00  0.00000000000E+00  0.45593999997E+02  0.45594000000E+02  0.51100000000E-03 0.  1.
         11   -1    0    0    0    0 -0.00000000000E+00 -0.00000000000E+00 -0.45593999997E+02  0.45594000000E+02  0.51100000000E-03 0. -1.
    9900012    2    1    2    0    0 -0.37998920331E+02  0.12910227675E+02  0.16523662132E+02  0.47787270338E+02  0.19999996779E+02 0.  0.
         12    1    1    2    0    0  0.37998920331E+02 -0.12910227675E+02 -0.16523662132E+02  0.43400729662E+02  0.00000000000E+00 0. -1.
         11    1    3    3    0    0 -0.22424723290E+02  0.62223419763E+01  0.25867864857E+01  0.23415320175E+02  0.51100000000E-03 0. -1.
        -11    1    3    3    0    0 -0.71599700463E+01 -0.21617891173E+01  0.32895035984E+01  0.81706387411E+01  0.51100000000E-03 0.  1.
         12    1    3    3    0    0 -0.84142269946E+01  0.88496748163E+01  0.10647372047E+02  0.16201311422E+02  0.00000000000E+00 0. -1.
</event>
<event>
 7    1  0.2387817E-009  0.4778727E+02  0.7816164E-02  0.1312668E+00
        -11   -1    0    0    0    0  0.00000000000E+00  0.00000000000E+00  0.45593999997E+02  0.45594000000E+02  0.51100000000E-03 0.  1.
         11   -1    0    0    0    0 -0.00000000000E+00 -0.00000000000E+00 -0.45593999997E+02  0.45594000000E+02  0.51100000000E-03 0. -1.
    9900012    2    1    2    0    0 -0.16853495684E+02  0.19549657440E+02  0.34891171925E+02  0.47787270731E+02  0.19999998569E+02 0.  0.
         12    1    1    2    0    0  0.16853495684E+02 -0.19549657440E+02 -0.34891171925E+02  0.43400729269E+02  0.00000000000E+00 0. -1.
         11    1    3    3    0    0  0.54791721781E+00  0.27447962622E+00  0.61129719834E+01  0.61436128682E+01  0.51100000000E-03 0. -1.
        -11    1    3    3    0    0 -0.14382566863E+02  0.48355269424E+01  0.12351211104E+02  0.19565095614E+02  0.51100000000E-03 0.  1.
        -12    1    3    3    0    0 -0.30188460391E+01  0.14439650871E+02  0.16426988837E+02  0.22078562248E+02  0.00000000000E+00 0.  1.
</event>
<event>
 7    1  0.2387817E-009  0.4778727E+02  0.7816164E-02  0.1312668E+00
        -11   -1    0    0    0    0  0.00000000000E+00  0.00000000000E+00  0.45593999997E+02  0.45594000000E+02  0.51100000000E-03 0. -1.
         11   -1    0    0    0    0 -0.00000000000E+00 -0.00000000000E+00 -0.45593999997E+02  0.45594000000E+02  0.51100000000E-03 0.  1.
    9900012    2    1    2    0    0 -0.28501781564E+02 -0.32687738466E+02 -0.16683992504E+01  0.47787270117E+02  0.19999995772E+02 0.  0.
         12    1    1    2    0    0  0.28501781564E+02  0.32687738466E+02  0.16683992504E+01  0.43400729883E+02  0.00000000000E+00 0. -1.
         11    1    3    3    0    0 -0.72895517291E+01 -0.45820280530E+01 -0.13338243147E+01  0.87127282210E+01  0.51100000000E-03 0. -1.
        -11    1    3    3    0    0 -0.11471271970E+02 -0.10522071119E+02 -0.80729031436E+01  0.17534988642E+02  0.51100000000E-03 0.  1.
         12    1    3    3    0    0 -0.97409578641E+01 -0.17583639294E+02  0.77383282079E+01  0.21539553254E+02  0.00000000000E+00 0. -1.
</event>
<event>
 7    1  0.2387817E-009  0.4778727E+02  0.7816164E-02  0.1312668E+00
        -11   -1    0    0    0    0  0.00000000000E+00  0.00000000000E+00  0.45593999997E+02  0.45594000000E+02  0.51100000000E-03 0.  1.
         11   -1    0    0    0    0 -0.00000000000E+00 -0.00000000000E+00 -0.45593999997E+02  0.45594000000E+02  0.51100000000E-03 0. -1.
    9900012    2    1    2    0    0  0.31875076009E+02 -0.21924986003E+01  0.29373388489E+02  0.47787268762E+02  0.19999989595E+02 0.  0.
         12    1    1    2    0    0 -0.31875076009E+02  0.21924986003E+01 -0.29373388489E+02  0.43400731238E+02  0.00000000000E+00 0. -1.
         11    1    3    3    0    0  0.13371870384E+02  0.76602426403E+00  0.15541978331E+02  0.20516988118E+02  0.51100000000E-03 0.  1.
        -11    1    3    3    0    0  0.19780665533E+01  0.46037845599E+01  0.49478267857E+01  0.70419152030E+01  0.51100000000E-03 0. -1.
         12    1    3    3    0    0  0.16525139071E+02 -0.75623074243E+01  0.88835833723E+01  0.20228365441E+02  0.00000000000E+00 0. -1.
</event>
<event>
 7    1  0.2387817E-009  0.4778727E+02  0.7816164E-02  0.1312668E+00
        -11   -1    0    0    0    0  0.00000000000E+00  0.00000000000E+00  0.45593999997E+02  0.45594000000E+02  0.51100000000E-03 0. -1.
         11   -1    0    0    0    0 -0.00000000000E+00 -0.00000000000E+00 -0.45593999997E+02  0.45594000000E+02  0.51100000000E-03 0.  1.
    9900012    2    1    2    0    0 -0.31149994363E+02 -0.28063938458E+02  0.11212326426E+02  0.47787273572E+02  0.20000011524E+02 0.  0.
         12    1    1    2    0    0  0.31149994363E+02  0.28063938458E+02 -0.11212326426E+02  0.43400726428E+02  0.00000000000E+00 0. -1.
         11    1    3    3    0    0 -0.35169506250E+01 -0.65342481320E+01  0.44400723176E+01  0.86475188809E+01  0.51100000000E-03 0. -1.
        -11    1    3    3    0    0 -0.11092003020E+02 -0.17472044683E+02 -0.30149880794E+00  0.20697723985E+02  0.51100000000E-03 0.  1.
         12    1    3    3    0    0 -0.16541040718E+02 -0.40576456433E+01  0.70737529167E+01  0.18442030706E+02  0.00000000000E+00 0. -1.
</event>
<event>
 7    1  0.2387817E-009  0.4778727E+02  0.7816164E-02  0.1312668E+00
        -11   -1    0    0    0    0  0.00000000000E+00  0.00000000000E+00  0.45593999997E+02  0.45594000000E+02  0.51100000000E-03 0.  1.
         11   -1    0    0    0    0 -0.00000000000E+00 -0.00000000000E+00 -0.45593999997E+02  0.45594000000E+02  0.51100000000E-03 0. -1.
    9900012    2    1    2    0    0 -0.22459055784E+02 -0.41819246107E+01  0.36901566946E+02  0.47787270476E+02  0.19999997406E+02 0.  0.
         12    1    1    2    0    0  0.22459055784E+02  0.41819246107E+01 -0.36901566946E+02  0.43400729524E+02  0.00000000000E+00 0. -1.
         11    1    3    3    0    0 -0.57614268949E+01 -0.26616506440E+01  0.23790256770E+02  0.24622240789E+02  0.51100000000E-03 0. -1.
        -11    1    3    3    0    0 -0.77272914539E+01 -0.19262387312E+01  0.11582702405E+02  0.14056330394E+02  0.51100000000E-03 0.  1.
        -12    1    3    3    0    0 -0.89703374351E+01  0.40596476450E+00  0.15286077707E+01  0.91086992928E+01  0.00000000000E+00 0.  1.
</event>
<event>
 7    1  0.2387817E-009  0.4778727E+02  0.7816164E-02  0.1312668E+00
        -11   -1    0    0    0    0  0.00000000000E+00  0.00000000000E+00  0.45593999997E+02  0.45594000000E+02  0.51100000000E-03 0. -1.
         11   -1    0    0    0    0 -0.00000000000E+00 -0.00000000000E+00 -0.45593999997E+02  0.45594000000E+02  0.51100000000E-03 0.  1.
    9900012    2    1    2    0    0 -0.35559340656E+02 -0.50427335719E-01 -0.24882807532E+02  0.47787270035E+02  0.19999995399E+02 0.  0.
         12    1    1    2    0    0  0.35559340656E+02  0.50427335719E-01  0.24882807532E+02  0.43400729965E+02  0.00000000000E+00 0. -1.
         11    1    3    3    0    0 -0.81753235596E+01 -0.21139376034E+01 -0.52954199128E+01  0.99672523701E+01  0.51100000000E-03 0. -1.
        -11    1    3    3    0    0 -0.26530606176E+02  0.66791580486E+01 -0.14756848400E+02  0.31084542642E+02  0.51100000000E-03 0.  1.
         12    1    3    3    0    0 -0.85341092011E+00 -0.46156477809E+01 -0.48305392191E+01  0.67354750229E+01  0.00000000000E+00 0. -1.
</event>
<event>
 7    1  0.2387817E-009  0.4778727E+02  0.7816164E-02  0.1312668E+00
        -11   -1    0    0    0    0  0.00000000000E+00  0.00000000000E+00  0.45593999997E+02  0.45594000000E+02  0.51100000000E-03 0.  1.
         11   -1    0    0    0    0 -0.00000000000E+00 -0.00000000000E+00 -0.45593999997E+02  0.45594000000E+02  0.51100000000E-03 0. -1.
    9900012    2    1    2    0    0 -0.67128787278E+00 -0.38852116849E+02  0.19330952024E+02  0.47787270545E+02  0.19999997725E+02 0.  0.
         12    1    1    2    0    0  0.67128787278E+00  0.38852116849E+02 -0.19330952024E+02  0.43400729455E+02  0.00000000000E+00 0. -1.
         11    1    3    3    0    0  0.73190787490E+00 -0.22709622390E+01 -0.12790724375E+01  0.27072098533E+01  0.51100000000E-03 0. -1.
        -11    1    3    3    0    0  0.98431590319E+00 -0.12418499218E+02  0.16145370402E+02  0.20392669916E+02  0.51100000000E-03 0.  1.
        -12    1    3    3    0    0 -0.23875116509E+01 -0.24162655392E+02  0.44646540600E+01  0.24687390776E+02  0.00000000000E+00 0.  1.
</event>
<event>
 7    1  0.2387817E-009  0.4778727E+02  0.7816164E-02  0.1312668E+00
        -11   -1    0    0    0    0  0.00000000000E+00  0.00000000000E+00  0.45593999997E+02  0.45594000000E+02  0.51100000000E-03 0.  1.
         11   -1    0    0    0    0 -0.00000000000E+00 -0.00000000000E+00 -0.45593999997E+02  0.45594000000E+02  0.51100000000E-03 0. -1.
    9900012    2    1    2    0    0  0.11123520072E+02 -0.21814257706E+02  0.35833346479E+02  0.47787271228E+02  0.20000000839E+02 0.  0.
         12    1    1    2    0    0 -0.11123520072E+02  0.21814257706E+02 -0.35833346479E+02  0.43400728772E+02  0.00000000000E+00 0. -1.
         11    1    3    3    0    0  0.35726812451E+01  0.17604541858E+01  0.42599765925E+00  0.40055866594E+01  0.51100000000E-03 0. -1.
        -11    1    3    3    0    0  0.40215584430E+01 -0.42800556567E+01  0.57089949710E+01  0.81905086884E+01  0.51100000000E-03 0.  1.
         12    1    3    3    0    0  0.35292803840E+01 -0.19294656235E+02  0.29698353848E+02  0.35591175881E+02  0.00000000000E+00 0. -1.
</event>
<event>
 7    1  0.2387817E-009  0.4778727E+02  0.7816164E-02  0.1312668E+00
        -11   -1    0    0    0    0  0.00000000000E+00  0.00000000000E+00  0.45593999997E+02  0.45594000000E+02  0.51100000000E-03 0.  1.
         11   -1    0    0    0    0 -0.00000000000E+00 -0.00000000000E+00 -0.45593999997E+02  0.45594000000E+02  0.51100000000E-03 0. -1.
    9900012    2    1    2    0    0 -0.43343824909E+02  0.18752825717E+01  0.11915900794E+01  0.47787265797E+02  0.19999976075E+02 0.  0.
         12    1    1    2    0    0  0.43343824909E+02 -0.18752825717E+01 -0.11915900794E+01  0.43400734203E+02  0.00000000000E+00 0. -1.
         11    1    3    3    0    0 -0.16462514452E+02  0.11492764962E+01 -0.11537869872E+00  0.16502985520E+02  0.51100000000E-03 0. -1.
        -11    1    3    3    0    0 -0.91637555116E+01  0.24142609515E+01 -0.68632676015E+01  0.11700748414E+02  0.51100000000E-03 0.  1.
        -12    1    3    3    0    0 -0.17717554945E+02 -0.16882548760E+01  0.81702363796E+01  0.19583531863E+02  0.00000000000E+00 0.  1.
</event>
<event>
 7    1  0.2387817E-009  0.4778726E+02  0.7816164E-02  0.1312668E+00
        -11   -1    0    0    0    0  0.00000000000E+00  0.00000000000E+00  0.45593999997E+02  0.45594000000E+02  0.51100000000E-03 0.  1.
         11   -1    0    0    0    0 -0.00000000000E+00 -0.00000000000E+00 -0.45593999997E+02  0.45594000000E+02  0.51100000000E-03 0. -1.
    9900012    2    1    2    0    0  0.36891808629E+02  0.22796453714E+02 -0.17146986133E+01  0.47787262251E+02  0.19999959907E+02 0.  0.
         12    1    1    2    0    0 -0.36891808629E+02 -0.22796453714E+02  0.17146986133E+01  0.43400737749E+02  0.00000000000E+00 0. -1.
         11    1    3    3    0    0  0.53888731751E+01  0.62833187902E+01  0.52238979457E+01  0.97882153187E+01  0.51100000000E-03 0. -1.
        -11    1    3    3    0    0  0.20712369069E+02  0.74012466453E+01  0.57320948003E+00  0.22002482899E+02  0.51100000000E-03 0.  1.
         12    1    3    3    0    0  0.10790566384E+02  0.91118882785E+01 -0.75118060390E+01  0.15996564033E+02  0.00000000000E+00 0. -1.
</event>
<event>
 7    1  0.2387817E-009  0.4778727E+02  0.7816164E-02  0.1312668E+00
        -11   -1    0    0    0    0  0.00000000000E+00  0.00000000000E+00  0.45593999997E+02  0.45594000000E+02  0.51100000000E-03 0.  1.
         11   -1    0    0    0    0 -0.00000000000E+00 -0.00000000000E+00 -0.45593999997E+02  0.45594000000E+02  0.51100000000E-03 0. -1.
    9900012    2    1    2    0    0  0.32949713176E+02  0.26112435887E+02 -0.10774063090E+02  0.47787270261E+02  0.19999996430E+02 0.  0.
         12    1    1    2    0    0 -0.32949713176E+02 -0.26112435887E+02  0.10774063090E+02  0.43400729739E+02  0.00000000000E+00 0. -1.
         11    1    3    3    0    0  0.16607992707E+01  0.33977292540E+01  0.48258988331E+00  0.38125728265E+01  0.51100000000E-03 0. -1.
        -11    1    3    3    0    0  0.33144284037E+02  0.21480117489E+02 -0.12494698240E+02  0.41425312262E+02  0.51100000000E-03 0.  1.
        -12    1    3    3    0    0 -0.18553701310E+01  0.12345891436E+01  0.12380452665E+01  0.25493851726E+01  0.00000000000E+00 0.  1.
</event>
<event>
 7    1  0.2387817E-009  0.4778727E+02  0.7816164E-02  0.1312668E+00
        -11   -1    0    0    0    0  0.00000000000E+00  0.00000000000E+00  0.45593999997E+02  0.45594000000E+02  0.51100000000E-03 0.  1.
         11   -1    0    0    0    0 -0.00000000000E+00 -0.00000000000E+00 -0.45593999997E+02  0.45594000000E+02  0.51100000000E-03 0. -1.
    9900012    2    1    2    0    0  0.37117197732E+01 -0.30641953125E+02  0.30510937819E+02  0.47787268652E+02  0.19999989090E+02 0.  0.
         12    1    1    2    0    0 -0.37117197732E+01  0.30641953125E+02 -0.30510937819E+02  0.43400731348E+02  0.00000000000E+00 0. -1.
         11    1    3    3    0    0 -0.77716988656E+00 -0.31976890567E+01 -0.36868813248E+00  0.33113652073E+01  0.51100000000E-03 0. -1.
        -11    1    3    3    0    0  0.59459083947E+01 -0.10145773922E+02  0.38918835258E+01  0.12386981583E+02  0.51100000000E-03 0.  1.
         12    1    3    3    0    0 -0.14570187350E+01 -0.17298490146E+02  0.26987742426E+02  0.32088921861E+02  0.00000000000E+00 0. -1.
</event>
<event>
 7    1  0.2387817E-009  0.4778727E+02  0.7816164E-02  0.1312668E+00
        -11   -1    0    0    0    0  0.00000000000E+00  0.00000000000E+00  0.45593999997E+02  0.45594000000E+02  0.51100000000E-03 0.  1.
         11   -1    0    0    0    0 -0.00000000000E+00 -0.00000000000E+00 -0.45593999997E+02  0.45594000000E+02  0.51100000000E-03 0. -1.
    9900012    2    1    2    0    0 -0.20586223798E+02  0.37916039933E+02 -0.47121829507E+01  0.47787270022E+02  0.19999995340E+02 0.  0.
         12    1    1    2    0    0  0.20586223798E+02 -0.37916039933E+02  0.47121829507E+01  0.43400729978E+02  0.00000000000E+00 0. -1.
         11    1    3    3    0    0 -0.80016788937E+01  0.82889432355E+01 -0.10243881850E+01  0.11566452200E+02  0.51100000000E-03 0. -1.
        -11    1    3    3    0    0 -0.30280071752E+01  0.40891738358E+01 -0.71061009463E+01  0.87399565807E+01  0.51100000000E-03 0.  1.
        -12    1    3    3    0    0 -0.95565377289E+01  0.25537922861E+02  0.34183061806E+01  0.27480861242E+02  0.00000000000E+00 0.  1.
</event>
<event>
 7    1  0.2387817E-009  0.4778727E+02  0.7816164E-02  0.1312668E+00
        -11   -1    0    0    0    0  0.00000000000E+00  0.00000000000E+00  0.45593999997E+02  0.45594000000E+02  0.51100000000E-03 0. -1.
         11   -1    0    0    0    0 -0.00000000000E+00 -0.00000000000E+00 -0.45593999997E+02  0.45594000000E+02  0.51100000000E-03 0.  1.
    9900012    2    1    2    0    0  0.86398227107E+01  0.33951587062E+02 -0.25617700877E+02  0.47787269606E+02  0.19999993441E+02 0.  0.
         12    1    1    2    0    0 -0.86398227107E+01 -0.33951587062E+02  0.25617700877E+02  0.43400730394E+02  0.00000000000E+00 0. -1.
         11    1    3    3    0    0  0.77801454187E+01  0.20113950432E+02 -0.13038815378E+02  0.25201435901E+02  0.51100000000E-03 0.  1.
        -11    1    3    3    0    0  0.54649106877E+01  0.70163307428E+01 -0.18842817983E+01  0.90909110695E+01  0.51100000000E-03 0. -1.
         12    1    3    3    0    0 -0.46052333957E+01  0.68213058873E+01 -0.10694603700E+02  0.13494922636E+02  0.00000000000E+00 0. -1.
</event>
<event>
 7    1  0.2387817E-009  0.4778727E+02  0.7816164E-02  0.1312668E+00
        -11   -1    0    0    0    0  0.00000000000E+00  0.00000000000E+00  0.45593999997E+02  0.45594000000E+02  0.51100000000E-03 0.  1.
         11   -1    0    0    0    0 -0.00000000000E+00 -0.00000000000E+00 -0.45593999997E+02  0.45594000000E+02  0.51100000000E-03 0. -1.
    9900012    2    1    2    0    0 -0.38379208996E+02  0.11814921294E+02  0.16464132614E+02  0.47787266007E+02  0.19999977034E+02 0.  0.
         12    1    1    2    0    0  0.38379208996E+02 -0.11814921294E+02 -0.16464132614E+02  0.43400733993E+02  0.00000000000E+00 0. -1.
         11    1    3    3    0    0 -0.96670133727E+01  0.12447936698E+02  0.78372188322E+01  0.17601825896E+02  0.51100000000E-03 0. -1.
        -11    1    3    3    0    0 -0.21055855274E+00  0.33281758814E+00  0.23380831236E+00  0.45800550123E+00  0.51100000000E-03 0.  1.
        -12    1    3    3    0    0 -0.28501637071E+02 -0.96583299245E+00  0.83931054695E+01  0.29727434610E+02  0.00000000000E+00 0.  1.
</event>
<event>
 7    1  0.2387817E-009  0.4778727E+02  0.7816164E-02  0.1312668E+00
        -11   -1    0    0    0    0  0.00000000000E+00  0.00000000000E+00  0.45593999997E+02  0.45594000000E+02  0.51100000000E-03 0. -1.
         11   -1    0    0    0    0 -0.00000000000E+00 -0.00000000000E+00 -0.45593999997E+02  0.45594000000E+02  0.51100000000E-03 0.  1.
    9900012    2    1    2    0    0 -0.58382471226E+01  0.36082726918E+02 -0.23400319928E+02  0.47787270927E+02  0.19999999465E+02 0.  0.
         12    1    1    2    0    0  0.58382471226E+01 -0.36082726918E+02  0.23400319928E+02  0.43400729073E+02  0.00000000000E+00 0. -1.
         11    1    3    3    0    0  0.27669450595E+01  0.16027623890E+01  0.64098807564E+00  0.32612418206E+01  0.51100000000E-03 0.  1.
        -11    1    3    3    0    0  0.19371948691E+01  0.14632652069E+01 -0.15380693067E+00  0.24325965263E+01  0.51100000000E-03 0. -1.
        -12    1    3    3    0    0 -0.10542387051E+02  0.33016699322E+02 -0.23887501073E+02  0.42093432580E+02  0.00000000000E+00 0.  1.
</event>
<event>
 7    1  0.2387817E-009  0.4778727E+02  0.7816164E-02  0.1312668E+00
        -11   -1    0    0    0    0  0.00000000000E+00  0.00000000000E+00  0.45593999997E+02  0.45594000000E+02  0.51100000000E-03 0.  1.
         11   -1    0    0    0    0 -0.00000000000E+00 -0.00000000000E+00 -0.45593999997E+02  0.45594000000E+02  0.51100000000E-03 0. -1.
    9900012    2    1    2    0    0  0.40449835778E+02  0.85699215034E+01 -0.13190550865E+02  0.47787269578E+02  0.19999993314E+02 0.  0.
         12    1    1    2    0    0 -0.40449835778E+02 -0.85699215034E+01  0.13190550865E+02  0.43400730422E+02  0.00000000000E+00 0. -1.
         11    1    3    3    0    0  0.85712171202E+01  0.59123498625E+01  0.25722554892E+01  0.10725583545E+02  0.51100000000E-03 0. -1.
        -11    1    3    3    0    0  0.15966992823E+02  0.95144131934E+00 -0.23215162745E+01  0.16162906251E+02  0.51100000000E-03 0.  1.
        -12    1    3    3    0    0  0.15911625835E+02  0.17061303215E+01 -0.13441290079E+02  0.20898779782E+02  0.00000000000E+00 0.  1.
</event>
<event>
 7    1  0.2387817E-009  0.4778727E+02  0.7816164E-02  0.1312668E+00
        -11   -1    0    0    0    0  0.00000000000E+00  0.00000000000E+00  0.45593999997E+02  0.45594000000E+02  0.51100000000E-03 0.  1.
         11   -1    0    0    0    0 -0.00000000000E+00 -0.00000000000E+00 -0.45593999997E+02  0.45594000000E+02  0.51100000000E-03 0. -1.
    9900012    2    1    2    0    0  0.19370971070E+02  0.33435082697E+02  0.19760672568E+02  0.47787268952E+02  0.19999990460E+02 0.  0.
         12    1    1    2    0    0 -0.19370971070E+02 -0.33435082697E+02 -0.19760672568E+02  0.43400731048E+02  0.00000000000E+00 0. -1.
         11    1    3    3    0    0 -0.23946163551E+01  0.19451088868E+01  0.16075273713E+01  0.34787613572E+01  0.51100000000E-03 0. -1.
        -11    1    3    3    0    0  0.36806334622E+01  0.16104494753E+02  0.93699809632E+01  0.18992060380E+02  0.51100000000E-03 0.  1.
        -12    1    3    3    0    0  0.18084953963E+02  0.15385479057E+02  0.87831642337E+01  0.25316447215E+02  0.00000000000E+00 0.  1.
</event>
<event>
 7    1  0.2387817E-009  0.4778728E+02  0.7816164E-02  0.1312668E+00
        -11   -1    0    0    0    0  0.00000000000E+00  0.00000000000E+00  0.45593999997E+02  0.45594000000E+02  0.51100000000E-03 0.  1.
         11   -1    0    0    0    0 -0.00000000000E+00 -0.00000000000E+00 -0.45593999997E+02  0.45594000000E+02  0.51100000000E-03 0. -1.
    9900012    2    1    2    0    0  0.11812070068E+02 -0.33888653928E+02  0.24406085402E+02  0.47787275709E+02  0.20000021269E+02 0.  0.
         12    1    1    2    0    0 -0.11812070068E+02  0.33888653928E+02 -0.24406085402E+02  0.43400724291E+02  0.00000000000E+00 0. -1.
         11    1    3    3    0    0  0.24474886979E+01 -0.73975338068E+01  0.46667325363E+01  0.90825161808E+01  0.51100000000E-03 0. -1.
        -11    1    3    3    0    0 -0.49145404792E+01 -0.10009557345E+02  0.93375350031E+01  0.14544191506E+02  0.51100000000E-03 0.  1.
         12    1    3    3    0    0  0.14279121849E+02 -0.16481562776E+02  0.10401817862E+02  0.24160568023E+02  0.00000000000E+00 0. -1.
</event>
<event>
 7    1  0.2387817E-009  0.4778725E+02  0.7816164E-02  0.1312668E+00
        -11   -1    0    0    0    0  0.00000000000E+00  0.00000000000E+00  0.45593999997E+02  0.45594000000E+02  0.51100000000E-03 0.  1.
         11   -1    0    0    0    0 -0.00000000000E+00 -0.00000000000E+00 -0.45593999997E+02  0.45594000000E+02  0.51100000000E-03 0. -1.
    9900012    2    1    2    0    0  0.40044058962E+02 -0.19952710009E+01  0.16616765981E+02  0.47787254889E+02  0.19999926342E+02 0.  0.
         12    1    1    2    0    0 -0.40044058962E+02  0.19952710009E+01 -0.16616765981E+02  0.43400745111E+02  0.00000000000E+00 0. -1.
         11    1    3    3    0    0  0.51842383905E+01  0.18806581547E+00  0.95625281784E+00  0.52750465546E+01  0.51100000000E-03 0.  1.
        -11    1    3    3    0    0  0.89985467993E+01 -0.87766717604E+01  0.73431770863E+01  0.14557680505E+02  0.51100000000E-03 0. -1.
         12    1    3    3    0    0  0.25861273772E+02  0.65933349441E+01  0.83173360765E+01  0.27954527830E+02  0.00000000000E+00 0. -1.
</event>
<event>
 7    1  0.2387817E-009  0.4778727E+02  0.7816164E-02  0.1312668E+00
        -11   -1    0    0    0    0  0.00000000000E+00  0.00000000000E+00  0.45593999997E+02  0.45594000000E+02  0.51100000000E-03 0.  1.
         11   -1    0    0    0    0 -0.00000000000E+00 -0.00000000000E+00 -0.45593999997E+02  0.45594000000E+02  0.51100000000E-03 0. -1.
    9900012    2    1    2    0    0 -0.15173684435E+01 -0.38579095583E+02  0.19823578052E+02  0.47787271092E+02  0.20000000216E+02 0.  0.
         12    1    1    2    0    0  0.15173684435E+01  0.38579095583E+02 -0.19823578052E+02  0.43400728908E+02  0.00000000000E+00 0. -1.
         11    1    3    3    0    0  0.38044052785E+01 -0.25636418052E+01 -0.37835996575E+00  0.46031419002E+01  0.51100000000E-03 0. -1.
        -11    1    3    3    0    0  0.26784522915E+01 -0.27416341943E+01  0.30843992760E+01  0.49197747802E+01  0.51100000000E-03 0.  1.
        -12    1    3    3    0    0 -0.80002260136E+01 -0.33273819583E+02  0.17117538742E+02  0.38264354411E+02  0.00000000000E+00 0.  1.
</event>
<event>
 7    1  0.2387817E-009  0.4778729E+02  0.7816164E-02  0.1312668E+00
        -11   -1    0    0    0    0  0.00000000000E+00  0.00000000000E+00  0.45593999997E+02  0.45594000000E+02  0.51100000000E-03 0. -1.
         11   -1    0    0    0    0 -0.00000000000E+00 -0.00000000000E+00 -0.45593999997E+02  0.45594000000E+02  0.51100000000E-03 0.  1.
    9900012    2    1    2    0    0  0.19141533740E+02 -0.25891694740E+02 -0.29100567757E+02  0.47787294773E+02  0.20000108188E+02 0.  0.
         12    1    1    2    0    0 -0.19141533740E+02  0.25891694740E+02  0.29100567757E+02  0.43400705227E+02  0.00000000000E+00 0. -1.
         11    1    3    3    0    0  0.41280156002E+01 -0.65946100317E+01 -0.64819143695E+00  0.78070190640E+01  0.51100000000E-03 0. -1.
        -11    1    3    3    0    0  0.16338499015E+01 -0.10135786928E+02 -0.48758309513E+01  0.11365622283E+02  0.51100000000E-03 0.  1.
         12    1    3    3    0    0  0.13379668238E+02 -0.91612977802E+01 -0.23576545369E+02  0.28614653426E+02  0.00000000000E+00 0. -1.
</event>
<event>
 7    1  0.2387817E-009  0.4778727E+02  0.7816164E-02  0.1312668E+00
        -11   -1    0    0    0    0  0.00000000000E+00  0.00000000000E+00  0.45593999997E+02  0.45594000000E+02  0.51100000000E-03 0.  1.
         11   -1    0    0    0    0 -0.00000000000E+00 -0.00000000000E+00 -0.45593999997E+02  0.45594000000E+02  0.51100000000E-03 0. -1.
    9900012    2    1    2    0    0 -0.16798074485E+02  0.15920450766E+02  0.36714943572E+02  0.47787272581E+02  0.20000007004E+02 0.  0.
         12    1    1    2    0    0  0.16798074485E+02 -0.15920450766E+02 -0.36714943572E+02  0.43400727419E+02  0.00000000000E+00 0. -1.
         11    1    3    3    0    0 -0.95283544466E+01  0.14214055583E+02  0.17133242568E+02  0.24215220745E+02  0.51100000000E-03 0.  1.
        -11    1    3    3    0    0  0.44409322353E+00  0.39935489315E+01  0.11441935034E+02  0.12126975280E+02  0.51100000000E-03 0. -1.
         12    1    3    3    0    0 -0.77138132623E+01 -0.22871537481E+01  0.81397659702E+01  0.11445076556E+02  0.00000000000E+00 0. -1.
</event>
<event>
 7    1  0.2387817E-009  0.4778727E+02  0.7816164E-02  0.1312668E+00
        -11   -1    0    0    0    0  0.00000000000E+00  0.00000000000E+00  0.45593999997E+02  0.45594000000E+02  0.51100000000E-03 0. -1.
         11   -1    0    0    0    0 -0.00000000000E+00 -0.00000000000E+00 -0.45593999997E+02  0.45594000000E+02  0.51100000000E-03 0.  1.
    9900012    2    1    2    0    0  0.41664769619E+02  0.98903698053E+01 -0.70605188460E+01  0.47787269953E+02  0.19999995022E+02 0.  0.
         12    1    1    2    0    0 -0.41664769619E+02 -0.98903698053E+01  0.70605188460E+01  0.43400730047E+02  0.00000000000E+00 0. -1.
         11    1    3    3    0    0  0.14295598642E+02  0.62243485227E+01  0.24900772568E+01  0.15789462944E+02  0.51100000000E-03 0. -1.
        -11    1    3    3    0    0  0.17021489086E+02  0.18795413833E+01  0.94518198259E+00  0.17151009759E+02  0.51100000000E-03 0.  1.
         12    1    3    3    0    0  0.10347681891E+02  0.17864798994E+01 -0.10495778085E+02  0.14846797250E+02  0.00000000000E+00 0. -1.
</event>
<event>
 7    1  0.2387817E-009  0.4778727E+02  0.7816164E-02  0.1312668E+00
        -11   -1    0    0    0    0  0.00000000000E+00  0.00000000000E+00  0.45593999997E+02  0.45594000000E+02  0.51100000000E-03 0.  1.
         11   -1    0    0    0    0 -0.00000000000E+00 -0.00000000000E+00 -0.45593999997E+02  0.45594000000E+02  0.51100000000E-03 0. -1.
    9900012    2    1    2    0    0  0.35310056758E+02  0.23438096372E+02  0.93530264648E+01  0.47787267589E+02  0.19999984243E+02 0.  0.
         12    1    1    2    0    0 -0.35310056758E+02 -0.23438096372E+02 -0.93530264648E+01  0.43400732411E+02  0.00000000000E+00 0. -1.
         11    1    3    3    0    0  0.15849577080E+02  0.16003909570E+02 -0.20181468977E+01  0.22614312554E+02  0.51100000000E-03 0. -1.
        -11    1    3    3    0    0  0.89228190118E+01  0.78863795074E+01  0.62155019699E+01  0.13432950005E+02  0.51100000000E-03 0.  1.
         12    1    3    3    0    0  0.10537660667E+02 -0.45219270569E+00  0.51556713926E+01  0.11740005029E+02  0.00000000000E+00 0. -1.
</event>
<event>
 7    1  0.2387817E-009  0.4778727E+02  0.7816164E-02  0.1312668E+00
        -11   -1    0    0    0    0  0.00000000000E+00  0.00000000000E+00  0.45593999997E+02  0.45594000000E+02  0.51100000000E-03 0. -1.
         11   -1    0    0    0    0 -0.00000000000E+00 -0.00000000000E+00 -0.45593999997E+02  0.45594000000E+02  0.51100000000E-03 0.  1.
    9900012    2    1    2    0    0  0.11572479178E+02  0.33579081625E+02 -0.24942860198E+02  0.47787271066E+02  0.20000000098E+02 0.  0.
         12    1    1    2    0    0 -0.11572479178E+02 -0.33579081625E+02  0.24942860198E+02  0.43400728934E+02  0.00000000000E+00 0. -1.
         11    1    3    3    0    0  0.18491350367E+01  0.20409595701E+00 -0.65746169502E+00  0.19731223189E+01  0.51100000000E-03 0. -1.
        -11    1    3    3    0    0  0.67068662012E+01  0.34585705535E+02 -0.23828625433E+02  0.42531828927E+02  0.51100000000E-03 0.  1.
        -12    1    3    3    0    0  0.30164779403E+01 -0.12107198670E+01 -0.45677307027E+00  0.32823198196E+01  0.00000000000E+00 0.  1.
</event>
<event>
 7    1  0.2387817E-009  0.4778728E+02  0.7816164E-02  0.1312668E+00
        -11   -1    0    0    0    0  0.00000000000E+00  0.00000000000E+00  0.45593999997E+02  0.45594000000E+02  0.51100000000E-03 0.  1.
         11   -1    0    0    0    0 -0.00000000000E+00 -0.00000000000E+00 -0.45593999997E+02  0.45594000000E+02  0.51100000000E-03 0. -1.
    9900012    2    1    2    0    0  0.15424189521E+02  0.17166612679E+02  0.36756281907E+02  0.47787280272E+02  0.20000042072E+02 0.  0.
         12    1    1    2    0    0 -0.15424189521E+02 -0.17166612679E+02 -0.36756281907E+02  0.43400719728E+02  0.00000000000E+00 0. -1.
         11    1    3    3    0    0  0.76045216167E+01  0.50703332911E+01  0.59600918518E+01  0.10911449209E+02  0.51100000000E-03 0. -1.
        -11    1    3    3    0    0  0.11714342340E+02  0.64783254448E+01  0.21710838856E+02  0.25505980497E+02  0.51100000000E-03 0.  1.
         12    1    3    3    0    0 -0.38946744356E+01  0.56179539435E+01  0.90853511999E+01  0.11369850566E+02  0.00000000000E+00 0. -1.
</event>
<event>
 7    1  0.2387817E-009  0.4778727E+02  0.7816164E-02  0.1312668E+00
        -11   -1    0    0    0    0  0.00000000000E+00  0.00000000000E+00  0.45593999997E+02  0.45594000000E+02  0.51100000000E-03 0.  1.
         11   -1    0    0    0    0 -0.00000000000E+00 -0.00000000000E+00 -0.45593999997E+02  0.45594000000E+02  0.51100000000E-03 0. -1.
    9900012    2    1    2    0    0 -0.66358764323E+01  0.42812869638E+02  0.25781407061E+01  0.47787268760E+02  0.19999989583E+02 0.  0.
         12    1    1    2    0    0  0.66358764323E+01 -0.42812869638E+02 -0.25781407061E+01  0.43400731240E+02  0.00000000000E+00 0. -1.
         11    1    3    3    0    0 -0.51384483964E+01  0.24963160128E+02  0.47677538328E+01  0.25928642316E+02  0.51100000000E-03 0.  1.
        -11    1    3    3    0    0  0.16076195289E+01  0.12589307414E+02 -0.66184350388E+01  0.14313587403E+02  0.51100000000E-03 0. -1.
         12    1    3    3    0    0 -0.31050475648E+01  0.52604020962E+01  0.44288219122E+01  0.75450390405E+01  0.00000000000E+00 0. -1.
</event>
<event>
 7    1  0.2387817E-009  0.4778727E+02  0.7816164E-02  0.1312668E+00
        -11   -1    0    0    0    0  0.00000000000E+00  0.00000000000E+00  0.45593999997E+02  0.45594000000E+02  0.51100000000E-03 0.  1.
         11   -1    0    0    0    0 -0.00000000000E+00 -0.00000000000E+00 -0.45593999997E+02  0.45594000000E+02  0.51100000000E-03 0. -1.
    9900012    2    1    2    0    0  0.10071646756E+02  0.36157387160E+02  0.21790562493E+02  0.47787270416E+02  0.19999997135E+02 0.  0.
         12    1    1    2    0    0 -0.10071646756E+02 -0.36157387160E+02 -0.21790562493E+02  0.43400729584E+02  0.00000000000E+00 0. -1.
         11    1    3    3    0    0  0.12037711932E+02  0.30842917321E+02  0.14076350573E+02  0.35976877340E+02  0.51100000000E-03 0. -1.
        -11    1    3    3    0    0 -0.10341011248E+01  0.65766777766E+01  0.39714333454E+01  0.77520538435E+01  0.51100000000E-03 0.  1.
         12    1    3    3    0    0 -0.93196405140E+00 -0.12622079369E+01  0.37427785750E+01  0.40583392330E+01  0.00000000000E+00 0. -1.
</event>
<event>
 7    1  0.2387817E-009  0.4778727E+02  0.7816164E-02  0.1312668E+00
        -11   -1    0    0    0    0  0.00000000000E+00  0.00000000000E+00  0.45593999997E+02  0.45594000000E+02  0.51100000000E-03 0.  1.
         11   -1    0    0    0    0 -0.00000000000E+00 -0.00000000000E+00 -0.45593999997E+02  0.45594000000E+02  0.51100000000E-03 0. -1.
    9900012    2    1    2    0    0 -0.36011014382E+01 -0.36219978223E+02  0.23638285821E+02  0.47787270621E+02  0.19999998070E+02 0.  0.
         12    1    1    2    0    0  0.36011014382E+01  0.36219978223E+02 -0.23638285821E+02  0.43400729379E+02  0.00000000000E+00 0. -1.
         11    1    3    3    0    0  0.95639043294E+00 -0.53781251128E+01  0.13857650558E+01  0.56355352399E+01  0.51100000000E-03 0. -1.
        -11    1    3    3    0    0  0.56358979181E+00 -0.30535268916E+02  0.20252677750E+02  0.36645480451E+02  0.51100000000E-03 0.  1.
         12    1    3    3    0    0 -0.51210816629E+01 -0.30658419492E+00  0.19998430150E+01  0.55062549297E+01  0.00000000000E+00 0. -1.
</event>
<event>
 7    1  0.2387817E-009  0.4778728E+02  0.7816164E-02  0.1312668E+00
        -11   -1    0    0    0    0  0.00000000000E+00  0.00000000000E+00  0.45593999997E+02  0.45594000000E+02  0.51100000000E-03 0.  1.
         11   -1    0    0    0    0 -0.00000000000E+00 -0.00000000000E+00 -0.45593999997E+02  0.45594000000E+02  0.51100000000E-03 0. -1.
    9900012    2    1    2    0    0 -0.98863477426E+01  0.38390882453E+02  0.17664173067E+02  0.47787277225E+02  0.20000028180E+02 0.  0.
         12    1    1    2    0    0  0.98863477426E+01 -0.38390882453E+02 -0.17664173067E+02  0.43400722775E+02  0.00000000000E+00 0. -1.
         11    1    3    3    0    0 -0.48466922084E+00  0.58616019127E+01 -0.13407796700E+01  0.60324929856E+01  0.51100000000E-03 0. -1.
        -11    1    3    3    0    0 -0.49654198793E+01  0.20797802527E+02  0.19861114818E+02  0.29183349133E+02  0.51100000000E-03 0.  1.
        -12    1    3    3    0    0 -0.44362586424E+01  0.11731478014E+02 -0.85616208095E+00  0.12571435107E+02  0.00000000000E+00 0.  1.
</event>
<event>
 7    1  0.2387817E-009  0.4778727E+02  0.7816164E-02  0.1312668E+00
        -11   -1    0    0    0    0  0.00000000000E+00  0.00000000000E+00  0.45593999997E+02  0.45594000000E+02  0.51100000000E-03 0.  1.
         11   -1    0    0    0    0 -0.00000000000E+00 -0.00000000000E+00 -0.45593999997E+02  0.45594000000E+02  0.51100000000E-03 0. -1.
    9900012    2    1    2    0    0  0.32666071758E+02  0.21515002242E+01  0.28494248689E+02  0.47787269526E+02  0.19999993076E+02 0.  0.
         12    1    1    2    0    0 -0.32666071758E+02 -0.21515002242E+01 -0.28494248689E+02  0.43400730474E+02  0.00000000000E+00 0. -1.
         11    1    3    3    0    0  0.84767166836E+01  0.74955998263E+01  0.78028267984E+01  0.13744920836E+02  0.51100000000E-03 0. -1.
        -11    1    3    3    0    0  0.14780959826E+02  0.18890827160E+01  0.13851991167E+02  0.20345099322E+02  0.51100000000E-03 0.  1.
        -12    1    3    3    0    0  0.94083952491E+01 -0.72331823181E+01  0.68394307235E+01  0.13697249367E+02  0.00000000000E+00 0.  1.
</event>
<event>
 7    1  0.2387817E-009  0.4778727E+02  0.7816164E-02  0.1312668E+00
        -11   -1    0    0    0    0  0.00000000000E+00  0.00000000000E+00  0.45593999997E+02  0.45594000000E+02  0.51100000000E-03 0. -1.
         11   -1    0    0    0    0 -0.00000000000E+00 -0.00000000000E+00 -0.45593999997E+02  0.45594000000E+02  0.51100000000E-03 0.  1.
    9900012    2    1    2    0    0  0.40971242157E+02 -0.14093235909E+02  0.25221364844E+01  0.47787272417E+02  0.20000006258E+02 0.  0.
         12    1    1    2    0    0 -0.40971242157E+02  0.14093235909E+02 -0.25221364844E+01  0.43400727583E+02  0.00000000000E+00 0. -1.
         11    1    3    3    0    0  0.23718391855E+01 -0.72676201719E+01 -0.92289617503E+00  0.77003676338E+01  0.51100000000E-03 0. -1.
        -11    1    3    3    0    0  0.71087162884E+00  0.10224524413E+01  0.14253418768E+00  0.12534208085E+01  0.51100000000E-03 0.  1.
        -12    1    3    3    0    0  0.37888531343E+02 -0.78480681786E+01  0.33024984717E+01  0.38833483975E+02  0.00000000000E+00 0.  1.
</event>
<event>
 7    1  0.2387817E-009  0.4778727E+02  0.7816164E-02  0.1312668E+00
        -11   -1    0    0    0    0  0.00000000000E+00  0.00000000000E+00  0.45593999997E+02  0.45594000000E+02  0.51100000000E-03 0.  1.
         11   -1    0    0    0    0 -0.00000000000E+00 -0.00000000000E+00 -0.45593999997E+02  0.45594000000E+02  0.51100000000E-03 0. -1.
    9900012    2    1    2    0    0  0.84276875549E+01 -0.11883412371E+02  0.40882538837E+02  0.47787269719E+02  0.19999993958E+02 0.  0.
         12    1    1    2    0    0 -0.84276875549E+01  0.11883412371E+02 -0.40882538837E+02  0.43400730281E+02  0.00000000000E+00 0. -1.
         11    1    3    3    0    0  0.16970075585E+01 -0.62163356747E+01  0.12261095592E+01  0.65594213759E+01  0.51100000000E-03 0. -1.
        -11    1    3    3    0    0 -0.12558085840E+01 -0.45887088055E+00  0.96719737261E+01  0.97639486738E+01  0.51100000000E-03 0.  1.
         12    1    3    3    0    0  0.79864885804E+01 -0.52082058159E+01  0.29984455552E+02  0.31463899670E+02  0.00000000000E+00 0. -1.
</event>
<event>
 7    1  0.2387817E-009  0.4778727E+02  0.7816164E-02  0.1312668E+00
        -11   -1    0    0    0    0  0.00000000000E+00  0.00000000000E+00  0.45593999997E+02  0.45594000000E+02  0.51100000000E-03 0.  1.
         11   -1    0    0    0    0 -0.00000000000E+00 -0.00000000000E+00 -0.45593999997E+02  0.45594000000E+02  0.51100000000E-03 0. -1.
    9900012    2    1    2    0    0  0.42675293019E+00  0.39507370894E+01  0.43218429112E+02  0.47787273549E+02  0.20000011418E+02 0.  0.
         12    1    1    2    0    0 -0.42675293019E+00 -0.39507370894E+01 -0.43218429112E+02  0.43400726451E+02  0.00000000000E+00 0. -1.
         11    1    3    3    0    0  0.72635897019E-02 -0.46226086320E+00 -0.59979253894E+00  0.75729070790E+00  0.51100000000E-03 0.  1.
        -11    1    3    3    0    0  0.28974288347E+00  0.35402423556E+01  0.36832102408E+00  0.35711241245E+01  0.51100000000E-03 0. -1.
        -12    1    3    3    0    0  0.12974645702E+00  0.87275559701E+00  0.43449900627E+02  0.43458858716E+02  0.00000000000E+00 0.  1.
</event>
<event>
 7    1  0.2387817E-009  0.4778727E+02  0.7816164E-02  0.1312668E+00
        -11   -1    0    0    0    0  0.00000000000E+00  0.00000000000E+00  0.45593999997E+02  0.45594000000E+02  0.51100000000E-03 0.  1.
         11   -1    0    0    0    0 -0.00000000000E+00 -0.00000000000E+00 -0.45593999997E+02  0.45594000000E+02  0.51100000000E-03 0. -1.
    9900012    2    1    2    0    0 -0.26994828855E+01  0.43314703881E+02  0.41576011651E+00  0.47787266866E+02  0.19999980947E+02 0.  0.
         12    1    1    2    0    0  0.26994828855E+01 -0.43314703881E+02 -0.41576011651E+00  0.43400733134E+02  0.00000000000E+00 0. -1.
         11    1    3    3    0    0 -0.21146838687E+01  0.35095169512E+01 -0.50852605650E+01  0.65305797882E+01  0.51100000000E-03 0. -1.
        -11    1    3    3    0    0 -0.73365552491E+00 -0.12595098446E-01 -0.63281334711E+00  0.96894894558E+00  0.51100000000E-03 0.  1.
        -12    1    3    3    0    0  0.14885650813E+00  0.39817782028E+02  0.61338340286E+01  0.40287738132E+02  0.00000000000E+00 0.  1.
</event>
<event>
 7    1  0.2387817E-009  0.4778727E+02  0.7816164E-02  0.1312668E+00
        -11   -1    0    0    0    0  0.00000000000E+00  0.00000000000E+00  0.45593999997E+02  0.45594000000E+02  0.51100000000E-03 0. -1.
         11   -1    0    0    0    0 -0.00000000000E+00 -0.00000000000E+00 -0.45593999997E+02  0.45594000000E+02  0.51100000000E-03 0.  1.
    9900012    2    1    2    0    0  0.88942301083E+01  0.19490001667E+02 -0.37744613353E+02  0.47787270382E+02  0.19999996980E+02 0.  0.
         12    1    1    2    0    0 -0.88942301083E+01 -0.19490001667E+02  0.37744613353E+02  0.43400729618E+02  0.00000000000E+00 0. -1.
         11    1    3    3    0    0  0.19711367681E+01  0.53148056685E+01 -0.66852034944E+01  0.87649578137E+01  0.51100000000E-03 0. -1.
        -11    1    3    3    0    0  0.12488430253E+02  0.85863022267E+01 -0.24280696891E+02  0.28622329009E+02  0.51100000000E-03 0.  1.
         12    1    3    3    0    0 -0.55653369129E+01  0.55888937718E+01 -0.67787129673E+01  0.10399983560E+02  0.00000000000E+00 0. -1.
</event>
<event>
 7    1  0.2387817E-009  0.4778727E+02  0.7816164E-02  0.1312668E+00
        -11   -1    0    0    0    0  0.00000000000E+00  0.00000000000E+00  0.45593999997E+02  0.45594000000E+02  0.51100000000E-03 0. -1.
         11   -1    0    0    0    0 -0.00000000000E+00 -0.00000000000E+00 -0.45593999997E+02  0.45594000000E+02  0.51100000000E-03 0.  1.
    9900012    2    1    2    0    0  0.62740021060E+01 -0.30207093836E+02 -0.30525270470E+02  0.47787265471E+02  0.19999974586E+02 0.  0.
         12    1    1    2    0    0 -0.62740021060E+01  0.30207093836E+02  0.30525270470E+02  0.43400734529E+02  0.00000000000E+00 0. -1.
         11    1    3    3    0    0  0.18535815212E+01 -0.65919956115E+00 -0.61966608199E+01  0.65014547676E+01  0.51100000000E-03 0. -1.
        -11    1    3    3    0    0  0.31621874570E+01 -0.66359840024E+01  0.63500724372E+00  0.73782753848E+01  0.51100000000E-03 0.  1.
        -12    1    3    3    0    0  0.12582331278E+01 -0.22911910272E+02 -0.24963616894E+02  0.33907535318E+02  0.00000000000E+00 0.  1.
</event>
<event>
 7    1  0.2387817E-009  0.4778727E+02  0.7816164E-02  0.1312668E+00
        -11   -1    0    0    0    0  0.00000000000E+00  0.00000000000E+00  0.45593999997E+02  0.45594000000E+02  0.51100000000E-03 0.  1.
         11   -1    0    0    0    0 -0.00000000000E+00 -0.00000000000E+00 -0.45593999997E+02  0.45594000000E+02  0.51100000000E-03 0. -1.
    9900012    2    1    2    0    0 -0.40427084504E+02 -0.15295829082E+02  0.39129859885E+01  0.47787274106E+02  0.20000013960E+02 0.  0.
         12    1    1    2    0    0  0.40427084504E+02  0.15295829082E+02 -0.39129859885E+01  0.43400725894E+02  0.00000000000E+00 0. -1.
         11    1    3    3    0    0 -0.75853984861E+01 -0.63460674529E+01 -0.17739728736E+01  0.10047776984E+02  0.51100000000E-03 0. -1.
        -11    1    3    3    0    0 -0.31696273746E+02 -0.11891510299E+02  0.38111836067E+01  0.34067387739E+02  0.51100000000E-03 0.  1.
         12    1    3    3    0    0 -0.11454122711E+01  0.29417486705E+01  0.18757752554E+01  0.36721093829E+01  0.00000000000E+00 0. -1.
</event>
<event>
 7    1  0.2387817E-009  0.4778727E+02  0.7816164E-02  0.1312668E+00
        -11   -1    0    0    0    0  0.00000000000E+00  0.00000000000E+00  0.45593999997E+02  0.45594000000E+02  0.51100000000E-03 0. -1.
         11   -1    0    0    0    0 -0.00000000000E+00 -0.00000000000E+00 -0.45593999997E+02  0.45594000000E+02  0.51100000000E-03 0.  1.
    9900012    2    1    2    0    0 -0.31217194463E+02 -0.30829785941E+01 -0.29993420236E+02  0.47787271381E+02  0.20000001536E+02 0.  0.
         12    1    1    2    0    0  0.31217194463E+02  0.30829785941E+01  0.29993420236E+02  0.43400728619E+02  0.00000000000E+00 0. -1.
         11    1    3    3    0    0 -0.11066547184E+02 -0.24881103581E+01 -0.15732712978E+02  0.19395293698E+02  0.51100000000E-03 0. -1.
        -11    1    3    3    0    0 -0.19105235917E+02  0.37349649711E+01 -0.13906128679E+02  0.23923637221E+02  0.51100000000E-03 0.  1.
         12    1    3    3    0    0 -0.10454113630E+01 -0.43298332071E+01 -0.35457857853E+00  0.44683404624E+01  0.00000000000E+00 0. -1.
</event>
<event>
 7    1  0.2387817E-009  0.4778727E+02  0.7816164E-02  0.1312668E+00
        -11   -1    0    0    0    0  0.00000000000E+00  0.00000000000E+00  0.45593999997E+02  0.45594000000E+02  0.51100000000E-03 0.  1.
         11   -1    0    0    0    0 -0.00000000000E+00 -0.00000000000E+00 -0.45593999997E+02  0.45594000000E+02  0.51100000000E-03 0. -1.
    9900012    2    1    2    0    0  0.14076521134E+02 -0.12798548689E+02  0.39008616134E+02  0.47787269263E+02  0.19999991880E+02 0.  0.
         12    1    1    2    0    0 -0.14076521134E+02  0.12798548689E+02 -0.39008616134E+02  0.43400730737E+02  0.00000000000E+00 0. -1.
         11    1    3    3    0    0 -0.17857232064E+01 -0.53125804435E+01  0.41115063574E+01  0.69510289258E+01  0.51100000000E-03 0. -1.
        -11    1    3    3    0    0  0.33692757615E+01 -0.31012680905E+01  0.13549963416E+01  0.47755521432E+01  0.51100000000E-03 0.  1.
        -12    1    3    3    0    0  0.12492968579E+02 -0.43847001549E+01  0.33542113435E+02  0.36060688194E+02  0.00000000000E+00 0.  1.
</event>
<event>
 7    1  0.2387817E-009  0.4778727E+02  0.7816164E-02  0.1312668E+00
        -11   -1    0    0    0    0  0.00000000000E+00  0.00000000000E+00  0.45593999997E+02  0.45594000000E+02  0.51100000000E-03 0. -1.
         11   -1    0    0    0    0 -0.00000000000E+00 -0.00000000000E+00 -0.45593999997E+02  0.45594000000E+02  0.51100000000E-03 0.  1.
    9900012    2    1    2    0    0  0.38656771135E+02 -0.12570252945E+02 -0.15207444769E+02  0.47787267402E+02  0.19999983391E+02 0.  0.
         12    1    1    2    0    0 -0.38656771135E+02  0.12570252945E+02  0.15207444769E+02  0.43400732598E+02  0.00000000000E+00 0. -1.
         11    1    3    3    0    0  0.16556090255E+02 -0.67259177406E+01 -0.12010077860E+02  0.21531002402E+02  0.51100000000E-03 0. -1.
        -11    1    3    3    0    0 -0.11294205538E+01 -0.16355367884E+01  0.10823442242E+01  0.22631925800E+01  0.51100000000E-03 0.  1.
        -12    1    3    3    0    0  0.23230101434E+02 -0.42087984156E+01 -0.42797111334E+01  0.23993072419E+02  0.00000000000E+00 0.  1.
</event>
<event>
 7    1  0.2387817E-009  0.4778727E+02  0.7816164E-02  0.1312668E+00
        -11   -1    0    0    0    0  0.00000000000E+00  0.00000000000E+00  0.45593999997E+02  0.45594000000E+02  0.51100000000E-03 0.  1.
         11   -1    0    0    0    0 -0.00000000000E+00 -0.00000000000E+00 -0.45593999997E+02  0.45594000000E+02  0.51100000000E-03 0. -1.
    9900012    2    1    2    0    0  0.28635871753E+02  0.47937437488E+01  0.32258798068E+02  0.47787272091E+02  0.20000004772E+02 0.  0.
         12    1    1    2    0    0 -0.28635871753E+02 -0.47937437488E+01 -0.32258798068E+02  0.43400727909E+02  0.00000000000E+00 0. -1.
         11    1    3    3    0    0  0.82811883031E+01  0.91208542482E+01  0.94483325901E+01  0.15525432391E+02  0.51100000000E-03 0. -1.
        -11    1    3    3    0    0  0.48432549981E+01 -0.21212947263E+01  0.95855208667E+00  0.53736237919E+01  0.51100000000E-03 0.  1.
        -12    1    3    3    0    0  0.15511428452E+02 -0.22058157730E+01  0.21851913392E+02  0.26888215908E+02  0.00000000000E+00 0.  1.
</event>
<event>
 7    1  0.2387817E-009  0.4778727E+02  0.7816164E-02  0.1312668E+00
        -11   -1    0    0    0    0  0.00000000000E+00  0.00000000000E+00  0.45593999997E+02  0.45594000000E+02  0.51100000000E-03 0.  1.
         11   -1    0    0    0    0 -0.00000000000E+00 -0.00000000000E+00 -0.45593999997E+02  0.45594000000E+02  0.51100000000E-03 0. -1.
    9900012    2    1    2    0    0 -0.92505987061E+01 -0.26834442336E+02  0.32832342774E+02  0.47787267242E+02  0.19999982662E+02 0.  0.
         12    1    1    2    0    0  0.92505987061E+01  0.26834442336E+02 -0.32832342774E+02  0.43400732758E+02  0.00000000000E+00 0. -1.
         11    1    3    3    0    0 -0.17730872704E+01  0.25367509280E+01  0.14419149614E+01  0.34143905396E+01  0.51100000000E-03 0. -1.
        -11    1    3    3    0    0 -0.64275565993E+01 -0.16332315106E+02  0.22589654015E+02  0.28606825573E+02  0.51100000000E-03 0.  1.
        -12    1    3    3    0    0 -0.10499548364E+01 -0.13038878158E+02  0.88007737976E+01  0.15766051130E+02  0.00000000000E+00 0.  1.
</event>
<event>
 7    1  0.2387817E-009  0.4778727E+02  0.7816164E-02  0.1312668E+00
        -11   -1    0    0    0    0  0.00000000000E+00  0.00000000000E+00  0.45593999997E+02  0.45594000000E+02  0.51100000000E-03 0.  1.
         11   -1    0    0    0    0 -0.00000000000E+00 -0.00000000000E+00 -0.45593999997E+02  0.45594000000E+02  0.51100000000E-03 0. -1.
    9900012    2    1    2    0    0 -0.23562443973E+02 -0.36168724260E+02  0.45008691477E+01  0.47787271853E+02  0.20000003688E+02 0.  0.
         12    1    1    2    0    0  0.23562443973E+02  0.36168724260E+02 -0.45008691477E+01  0.43400728147E+02  0.00000000000E+00 0. -1.
         11    1    3    3    0    0 -0.19528750679E+02 -0.32350347367E+02 -0.24207139836E+00  0.37788565422E+02  0.51100000000E-03 0. -1.
        -11    1    3    3    0    0 -0.37267653569E+01 -0.56832696742E+01  0.43475541314E+01  0.80678101986E+01  0.51100000000E-03 0.  1.
         12    1    3    3    0    0 -0.30692793723E+00  0.18648927812E+01  0.39538641465E+00  0.19308962325E+01  0.00000000000E+00 0. -1.
</event>
<event>
 7    1  0.2387817E-009  0.4778727E+02  0.7816164E-02  0.1312668E+00
        -11   -1    0    0    0    0  0.00000000000E+00  0.00000000000E+00  0.45593999997E+02  0.45594000000E+02  0.51100000000E-03 0.  1.
         11   -1    0    0    0    0 -0.00000000000E+00 -0.00000000000E+00 -0.45593999997E+02  0.45594000000E+02  0.51100000000E-03 0. -1.
    9900012    2    1    2    0    0  0.19242288200E+02 -0.21678329936E+02  0.32301819518E+02  0.47787272032E+02  0.20000004502E+02 0.  0.
         12    1    1    2    0    0 -0.19242288200E+02  0.21678329936E+02 -0.32301819518E+02  0.43400727968E+02  0.00000000000E+00 0. -1.
         11    1    3    3    0    0  0.73243541298E+01  0.37092580215E+00  0.58075129486E+01  0.93547290863E+01  0.51100000000E-03 0. -1.
        -11    1    3    3    0    0  0.10525371639E+02 -0.89486172849E+01  0.88288085643E+01  0.16395397536E+02  0.51100000000E-03 0.  1.
        -12    1    3    3    0    0  0.13925624312E+01 -0.13100638453E+02  0.17665498005E+02  0.22037145409E+02  0.00000000000E+00 0.  1.
</event>
<event>
 7    1  0.2387817E-009  0.4778728E+02  0.7816164E-02  0.1312668E+00
        -11   -1    0    0    0    0  0.00000000000E+00  0.00000000000E+00  0.45593999997E+02  0.45594000000E+02  0.51100000000E-03 0.  1.
         11   -1    0    0    0    0 -0.00000000000E+00 -0.00000000000E+00 -0.45593999997E+02  0.45594000000E+02  0.51100000000E-03 0. -1.
    9900012    2    1    2    0    0 -0.22858995626E+02  0.18711925272E+02  0.31795488405E+02  0.47787275221E+02  0.20000019043E+02 0.  0.
         12    1    1    2    0    0  0.22858995626E+02 -0.18711925272E+02 -0.31795488405E+02  0.43400724779E+02  0.00000000000E+00 0. -1.
         11    1    3    3    0    0 -0.11511818927E+02  0.46874769980E+01  0.79952222021E+01  0.14778971342E+02  0.51100000000E-03 0. -1.
        -11    1    3    3    0    0 -0.74697266159E+01 -0.21154233740E-01  0.12528873955E+02  0.14586635872E+02  0.51100000000E-03 0.  1.
        -12    1    3    3    0    0 -0.38774500836E+01  0.14045602507E+02  0.11271392248E+02  0.18421668007E+02  0.00000000000E+00 0.  1.
</event>
<event>
 7    1  0.2387817E-009  0.4778727E+02  0.7816164E-02  0.1312668E+00
        -11   -1    0    0    0    0  0.00000000000E+00  0.00000000000E+00  0.45593999997E+02  0.45594000000E+02  0.51100000000E-03 0.  1.
         11   -1    0    0    0    0 -0.00000000000E+00 -0.00000000000E+00 -0.45593999997E+02  0.45594000000E+02  0.51100000000E-03 0. -1.
    9900012    2    1    2    0    0 -0.63446443865E+01  0.18814088075E+02  0.38592729973E+02  0.47787271558E+02  0.20000002342E+02 0.  0.
         12    1    1    2    0    0  0.63446443865E+01 -0.18814088075E+02 -0.38592729973E+02  0.43400728442E+02  0.00000000000E+00 0. -1.
         11    1    3    3    0    0  0.21362762481E+01 -0.17170731878E+01  0.42982704088E+01  0.50977588516E+01  0.51100000000E-03 0. -1.
        -11    1    3    3    0    0 -0.88830269061E+01  0.91280534543E+01  0.11331505121E+02  0.17047948130E+02  0.51100000000E-03 0.  1.
         12    1    3    3    0    0  0.40210627156E+00  0.11403107808E+02  0.22962954444E+02  0.25641564577E+02  0.00000000000E+00 0. -1.
</event>
<event>
 7    1  0.2387817E-009  0.4778727E+02  0.7816164E-02  0.1312668E+00
        -11   -1    0    0    0    0  0.00000000000E+00  0.00000000000E+00  0.45593999997E+02  0.45594000000E+02  0.51100000000E-03 0.  1.
         11   -1    0    0    0    0 -0.00000000000E+00 -0.00000000000E+00 -0.45593999997E+02  0.45594000000E+02  0.51100000000E-03 0. -1.
    9900012    2    1    2    0    0 -0.65419744828E+01  0.41604191384E+02  0.10484143121E+02  0.47787269271E+02  0.19999991915E+02 0.  0.
         12    1    1    2    0    0  0.65419744828E+01 -0.41604191384E+02 -0.10484143121E+02  0.43400730729E+02  0.00000000000E+00 0. -1.
         11    1    3    3    0    0 -0.15842798535E+00  0.15938557782E+02  0.70598458185E+00  0.15954972206E+02  0.51100000000E-03 0. -1.
        -11    1    3    3    0    0 -0.80682322662E+01  0.11478924214E+02 -0.80369858100E+00  0.14053754114E+02  0.51100000000E-03 0.  1.
         12    1    3    3    0    0  0.16846857687E+01  0.14186709388E+02  0.10581857120E+02  0.17778542952E+02  0.00000000000E+00 0. -1.
</event>
<event>
 7    1  0.2723427E-009  0.4778727E+02  0.7816164E-02  0.1312668E+00
        -11   -1    0    0    0    0  0.00000000000E+00  0.00000000000E+00  0.45593999997E+02  0.45594000000E+02  0.51100000000E-03 0.  1.
         11   -1    0    0    0    0 -0.00000000000E+00 -0.00000000000E+00 -0.45593999997E+02  0.45594000000E+02  0.51100000000E-03 0. -1.
    9900012    2    1    2    0    0  0.39577178190E+02  0.17206563657E+02  0.46048602109E+01  0.47787267242E+02  0.19999982665E+02 0.  0.
         12    1    1    2    0    0 -0.39577178190E+02 -0.17206563657E+02 -0.46048602109E+01  0.43400732758E+02  0.00000000000E+00 0. -1.
         11    1    3    3    0    0  0.16889073312E+02  0.90524062310E+01  0.74969013438E+01  0.20576452219E+02  0.51100000000E-03 0. -1.
        -11    1    3    3    0    0  0.23639808719E+02  0.70312751014E+01 -0.82995775824E+00  0.24677281373E+02  0.51100000000E-03 0.  1.
         12    1    3    3    0    0 -0.95170384064E+00  0.11228823242E+01 -0.20620833746E+01  0.25335336505E+01  0.00000000000E+00 0. -1.
</event>
<event>
 7    1  0.2387817E-009  0.4778727E+02  0.7816164E-02  0.1312668E+00
        -11   -1    0    0    0    0  0.00000000000E+00  0.00000000000E+00  0.45593999997E+02  0.45594000000E+02  0.51100000000E-03 0. -1.
         11   -1    0    0    0    0 -0.00000000000E+00 -0.00000000000E+00 -0.45593999997E+02  0.45594000000E+02  0.51100000000E-03 0.  1.
    9900012    2    1    2    0    0  0.12142885267E+02  0.12192917573E+02 -0.39843525892E+02  0.47787268934E+02  0.19999990377E+02 0.  0.
         12    1    1    2    0    0 -0.12142885267E+02 -0.12192917573E+02  0.39843525892E+02  0.43400731066E+02  0.00000000000E+00 0. -1.
         11    1    3    3    0    0  0.82189522458E+01  0.13986206784E+02 -0.24136123242E+02  0.29081224212E+02  0.51100000000E-03 0.  1.
        -11    1    3    3    0    0  0.56335180690E+01  0.72160700242E+00 -0.49724063382E+01  0.75486467365E+01  0.51100000000E-03 0. -1.
        -12    1    3    3    0    0 -0.17095850474E+01 -0.25148962133E+01 -0.10734996312E+02  0.11157397986E+02  0.00000000000E+00 0.  1.
</event>
<event>
 7    1  0.2387817E-009  0.4778727E+02  0.7816164E-02  0.1312668E+00
        -11   -1    0    0    0    0  0.00000000000E+00  0.00000000000E+00  0.45593999997E+02  0.45594000000E+02  0.51100000000E-03 0.  1.
         11   -1    0    0    0    0 -0.00000000000E+00 -0.00000000000E+00 -0.45593999997E+02  0.45594000000E+02  0.51100000000E-03 0. -1.
    9900012    2    1    2    0    0 -0.22564796904E+02  0.16802307686E+02  0.33047471105E+02  0.47787274783E+02  0.20000017046E+02 0.  0.
         12    1    1    2    0    0  0.22564796904E+02 -0.16802307686E+02 -0.33047471105E+02  0.43400725217E+02  0.00000000000E+00 0. -1.
         11    1    3    3    0    0 -0.53911402037E+01  0.78660219099E-01  0.87516594901E+01  0.10279208346E+02  0.51100000000E-03 0.  1.
        -11    1    3    3    0    0 -0.84269222278E+01  0.97901473608E+01  0.22856534150E+02  0.26254164568E+02  0.51100000000E-03 0. -1.
        -12    1    3    3    0    0 -0.87467344724E+01  0.69335001063E+01  0.14392774654E+01  0.11253901869E+02  0.00000000000E+00 0.  1.
</event>
<event>
 7    1  0.2629605E-009  0.4778727E+02  0.7816164E-02  0.1312668E+00
        -11   -1    0    0    0    0  0.00000000000E+00  0.00000000000E+00  0.45593999997E+02  0.45594000000E+02  0.51100000000E-03 0. -1.
         11   -1    0    0    0    0 -0.00000000000E+00 -0.00000000000E+00 -0.45593999997E+02  0.45594000000E+02  0.51100000000E-03 0.  1.
    9900012    2    1    2    0    0 -0.25030516774E+01  0.43325451574E+02  0.51303168914E+00  0.47787271627E+02  0.20000002658E+02 0.  0.
         12    1    1    2    0    0  0.25030516774E+01 -0.43325451574E+02 -0.51303168914E+00  0.43400728373E+02  0.00000000000E+00 0. -1.
         11    1    3    3    0    0  0.23559442630E+01  0.19773747738E+02 -0.45293006002E+00  0.19918752944E+02  0.51100000000E-03 0. -1.
        -11    1    3    3    0    0 -0.40925297790E+01  0.25419472572E+02  0.14662779029E+01  0.25788531501E+02  0.51100000000E-03 0.  1.
         12    1    3    3    0    0 -0.76646616144E+00 -0.18677687354E+01 -0.50031615373E+00  0.20799871824E+01  0.00000000000E+00 0. -1.
</event>
<event>
 7    1  0.2387817E-009  0.4778727E+02  0.7816164E-02  0.1312668E+00
        -11   -1    0    0    0    0  0.00000000000E+00  0.00000000000E+00  0.45593999997E+02  0.45594000000E+02  0.51100000000E-03 0. -1.
         11   -1    0    0    0    0 -0.00000000000E+00 -0.00000000000E+00 -0.45593999997E+02  0.45594000000E+02  0.51100000000E-03 0.  1.
    9900012    2    1    2    0    0  0.18871862021E+02 -0.14652870234E+02  0.36232162206E+02  0.47787270048E+02  0.19999995456E+02 0.  0.
         12    1    1    2    0    0 -0.18871862021E+02  0.14652870234E+02 -0.36232162206E+02  0.43400729952E+02  0.00000000000E+00 0. -1.
         11    1    3    3    0    0  0.17047885206E+01 -0.43832642031E+01  0.10700805061E+01  0.48233164446E+01  0.51100000000E-03 0.  1.
        -11    1    3    3    0    0  0.10135165005E+02 -0.80731498937E+01  0.89797560565E+01  0.15764940151E+02  0.51100000000E-03 0. -1.
         12    1    3    3    0    0  0.70319084957E+01 -0.21964561373E+01  0.26182325644E+02  0.27199013452E+02  0.00000000000E+00 0. -1.
</event>
<event>
 7    1  0.2387817E-009  0.4778725E+02  0.7816164E-02  0.1312668E+00
        -11   -1    0    0    0    0  0.00000000000E+00  0.00000000000E+00  0.45593999997E+02  0.45594000000E+02  0.51100000000E-03 0.  1.
         11   -1    0    0    0    0 -0.00000000000E+00 -0.00000000000E+00 -0.45593999997E+02  0.45594000000E+02  0.51100000000E-03 0. -1.
    9900012    2    1    2    0    0 -0.15958494149E+02 -0.39435433632E+02  0.85905717199E+01  0.47787252498E+02  0.19999915439E+02 0.  0.
         12    1    1    2    0    0  0.15958494149E+02  0.39435433632E+02 -0.85905717199E+01  0.43400747502E+02  0.00000000000E+00 0. -1.
         11    1    3    3    0    0 -0.73641553951E+00 -0.53981415292E+01 -0.33465711364E+01  0.63938860208E+01  0.51100000000E-03 0. -1.
        -11    1    3    3    0    0 -0.12660609319E+02 -0.12536054594E+02  0.35181299513E+01  0.18160972764E+02  0.51100000000E-03 0.  1.
        -12    1    3    3    0    0 -0.25614692906E+01 -0.21501237509E+02  0.84190129050E+01  0.23232393713E+02  0.00000000000E+00 0.  1.
</event>
<event>
 7    1  0.2387817E-009  0.4778727E+02  0.7816164E-02  0.1312668E+00
        -11   -1    0    0    0    0  0.00000000000E+00  0.00000000000E+00  0.45593999997E+02  0.45594000000E+02  0.51100000000E-03 0.  1.
         11   -1    0    0    0    0 -0.00000000000E+00 -0.00000000000E+00 -0.45593999997E+02  0.45594000000E+02  0.51100000000E-03 0. -1.
    9900012    2    1    2    0    0  0.18875051322E+02 -0.26048223497E+01  0.38994494916E+02  0.47787270794E+02  0.19999998859E+02 0.  0.
         12    1    1    2    0    0 -0.18875051322E+02  0.26048223497E+01 -0.38994494916E+02  0.43400729206E+02  0.00000000000E+00 0. -1.
         11    1    3    3    0    0  0.85126050488E+01  0.44917081020E+00  0.76654474925E+01  0.11464086734E+02  0.51100000000E-03 0. -1.
        -11    1    3    3    0    0  0.56238490726E+01 -0.56036827524E+01  0.48508545204E+01  0.93037480953E+01  0.51100000000E-03 0.  1.
        -12    1    3    3    0    0  0.47385972006E+01  0.25496895925E+01  0.26478192903E+02  0.27019435964E+02  0.00000000000E+00 0.  1.
</event>
<event>
 7    1  0.2387817E-009  0.4778727E+02  0.7816164E-02  0.1312668E+00
        -11   -1    0    0    0    0  0.00000000000E+00  0.00000000000E+00  0.45593999997E+02  0.45594000000E+02  0.51100000000E-03 0.  1.
         11   -1    0    0    0    0 -0.00000000000E+00 -0.00000000000E+00 -0.45593999997E+02  0.45594000000E+02  0.51100000000E-03 0. -1.
    9900012    2    1    2    0    0 -0.37525312013E+02 -0.17515622059E+02  0.12987581098E+02  0.47787270506E+02  0.19999997547E+02 0.  0.
         12    1    1    2    0    0  0.37525312013E+02  0.17515622059E+02 -0.12987581098E+02  0.43400729494E+02  0.00000000000E+00 0. -1.
         11    1    3    3    0    0 -0.57918682810E+01 -0.80825779348E+00 -0.21554677119E+01  0.62325805380E+01  0.51100000000E-03 0. -1.
        -11    1    3    3    0    0 -0.57438335028E+01  0.94060335898E+00  0.69955505654E+01  0.91002245006E+01  0.51100000000E-03 0.  1.
         12    1    3    3    0    0 -0.25989610229E+02 -0.17647967625E+02  0.81474982446E+01  0.32454465468E+02  0.00000000000E+00 0. -1.
</event>
<event>
 7    1  0.2387817E-009  0.4778728E+02  0.7816164E-02  0.1312668E+00
        -11   -1    0    0    0    0  0.00000000000E+00  0.00000000000E+00  0.45593999997E+02  0.45594000000E+02  0.51100000000E-03 0.  1.
         11   -1    0    0    0    0 -0.00000000000E+00 -0.00000000000E+00 -0.45593999997E+02  0.45594000000E+02  0.51100000000E-03 0. -1.
    9900012    2    1    2    0    0 -0.16690553963E+01  0.39317908984E+02  0.18301330577E+02  0.47787280954E+02  0.20000045182E+02 0.  0.
         12    1    1    2    0    0  0.16690553963E+01 -0.39317908984E+02 -0.18301330577E+02  0.43400719046E+02  0.00000000000E+00 0. -1.
         11    1    3    3    0    0 -0.63615130442E+01  0.14684231822E+02  0.11018558715E+02  0.19429465995E+02  0.51100000000E-03 0. -1.
        -11    1    3    3    0    0 -0.33126213561E+01  0.12001513443E+02  0.31672119320E+01  0.12846829059E+02  0.51100000000E-03 0.  1.
         12    1    3    3    0    0  0.80050790041E+01  0.12632163719E+02  0.41155599306E+01  0.15510985901E+02  0.00000000000E+00 0. -1.
</event>
<event>
 7    1  0.2387817E-009  0.4778727E+02  0.7816164E-02  0.1312668E+00
        -11   -1    0    0    0    0  0.00000000000E+00  0.00000000000E+00  0.45593999997E+02  0.45594000000E+02  0.51100000000E-03 0. -1.
         11   -1    0    0    0    0 -0.00000000000E+00 -0.00000000000E+00 -0.45593999997E+02  0.45594000000E+02  0.51100000000E-03 0.  1.
    9900012    2    1    2    0    0 -0.40763298108E+02 -0.14897768339E+02  0.18178112854E+00  0.47787273987E+02  0.20000013416E+02 0.  0.
         12    1    1    2    0    0  0.40763298108E+02  0.14897768339E+02 -0.18178112854E+00  0.43400726013E+02  0.00000000000E+00 0. -1.
         11    1    3    3    0    0 -0.90530645050E+01  0.18009724196E+00 -0.95965681840E+00  0.91055671662E+01  0.51100000000E-03 0. -1.
        -11    1    3    3    0    0 -0.18246057869E+02 -0.38671614813E+00  0.36033806049E+01  0.18602487178E+02  0.51100000000E-03 0.  1.
         12    1    3    3    0    0 -0.13464175733E+02 -0.14691149432E+02 -0.24619426580E+01  0.20079219643E+02  0.00000000000E+00 0. -1.
</event>
<event>
 7    1  0.2387817E-009  0.4778728E+02  0.7816164E-02  0.1312668E+00
        -11   -1    0    0    0    0  0.00000000000E+00  0.00000000000E+00  0.45593999997E+02  0.45594000000E+02  0.51100000000E-03 0.  1.
         11   -1    0    0    0    0 -0.00000000000E+00 -0.00000000000E+00 -0.45593999997E+02  0.45594000000E+02  0.51100000000E-03 0. -1.
    9900012    2    1    2    0    0 -0.35298132891E+02  0.15291906748E+02  0.20095326898E+02  0.47787276956E+02  0.20000026955E+02 0.  0.
         12    1    1    2    0    0  0.35298132891E+02 -0.15291906748E+02 -0.20095326898E+02  0.43400723044E+02  0.00000000000E+00 0. -1.
         11    1    3    3    0    0 -0.44181624846E+01  0.91382233710E+00  0.75757023581E+01  0.88173974326E+01  0.51100000000E-03 0. -1.
        -11    1    3    3    0    0  0.14287335769E+01  0.15815003892E+01  0.41432740389E+00  0.21711956553E+01  0.51100000000E-03 0.  1.
        -12    1    3    3    0    0 -0.32308703983E+02  0.12796584022E+02  0.12105297136E+02  0.36798683868E+02  0.00000000000E+00 0.  1.
</event>
<event>
 7    1  0.2387817E-009  0.4778724E+02  0.7816164E-02  0.1312668E+00
        -11   -1    0    0    0    0  0.00000000000E+00  0.00000000000E+00  0.45593999997E+02  0.45594000000E+02  0.51100000000E-03 0.  1.
         11   -1    0    0    0    0 -0.00000000000E+00 -0.00000000000E+00 -0.45593999997E+02  0.45594000000E+02  0.51100000000E-03 0. -1.
    9900012    2    1    2    0    0  0.34314524127E+02 -0.26437473040E+02 -0.26831983057E+01  0.47787238486E+02  0.19999851553E+02 0.  0.
         12    1    1    2    0    0 -0.34314524127E+02  0.26437473040E+02  0.26831983057E+01  0.43400761514E+02  0.00000000000E+00 0. -1.
         11    1    3    3    0    0  0.32749890413E+01  0.21491041859E+01 -0.94254025245E+00  0.40289681571E+01  0.51100000000E-03 0. -1.
        -11    1    3    3    0    0  0.20728425341E+02 -0.13157673261E+02 -0.46090065066E+01  0.24980691023E+02  0.51100000000E-03 0.  1.
        -12    1    3    3    0    0  0.10311109745E+02 -0.15428903965E+02  0.28683484534E+01  0.18777579306E+02  0.00000000000E+00 0.  1.
</event>
<event>
 7    1  0.2387817E-009  0.4778727E+02  0.7816164E-02  0.1312668E+00
        -11   -1    0    0    0    0  0.00000000000E+00  0.00000000000E+00  0.45593999997E+02  0.45594000000E+02  0.51100000000E-03 0. -1.
         11   -1    0    0    0    0 -0.00000000000E+00 -0.00000000000E+00 -0.45593999997E+02  0.45594000000E+02  0.51100000000E-03 0.  1.
    9900012    2    1    2    0    0 -0.26625555949E+02 -0.20127982384E+02 -0.27741082163E+02  0.47787267932E+02  0.19999985810E+02 0.  0.
         12    1    1    2    0    0  0.26625555949E+02  0.20127982384E+02  0.27741082163E+02  0.43400732068E+02  0.00000000000E+00 0. -1.
         11    1    3    3    0    0 -0.15968608411E+01  0.18064477957E+01 -0.10438085239E+01  0.26273093994E+01  0.51100000000E-03 0. -1.
        -11    1    3    3    0    0  0.10434524227E+01 -0.53015584583E+01 -0.28599282239E+01  0.61134691258E+01  0.51100000000E-03 0.  1.
         12    1    3    3    0    0 -0.26072147530E+02 -0.16632871721E+02 -0.23837345416E+02  0.39046489407E+02  0.00000000000E+00 0. -1.
</event>
<event>
 7    1  0.2387817E-009  0.4778727E+02  0.7816164E-02  0.1312668E+00
        -11   -1    0    0    0    0  0.00000000000E+00  0.00000000000E+00  0.45593999997E+02  0.45594000000E+02  0.51100000000E-03 0.  1.
         11   -1    0    0    0    0 -0.00000000000E+00 -0.00000000000E+00 -0.45593999997E+02  0.45594000000E+02  0.51100000000E-03 0. -1.
    9900012    2    1    2    0    0 -0.19582710826E+02  0.29201926131E+02  0.25443827515E+02  0.47787269457E+02  0.19999992762E+02 0.  0.
         12    1    1    2    0    0  0.19582710826E+02 -0.29201926131E+02 -0.25443827515E+02  0.43400730543E+02  0.00000000000E+00 0. -1.
         11    1    3    3    0    0 -0.77671559703E+01  0.90200021426E+01  0.36788291801E+01  0.12458849663E+02  0.51100000000E-03 0. -1.
        -11    1    3    3    0    0 -0.73854722381E+01  0.17817460550E+02  0.83741296658E+01  0.21026962419E+02  0.51100000000E-03 0.  1.
        -12    1    3    3    0    0 -0.44300826173E+01  0.23644634381E+01  0.13390868669E+02  0.14301457375E+02  0.00000000000E+00 0.  1.
</event>
<event>
 7    1  0.2387817E-009  0.4778726E+02  0.7816164E-02  0.1312668E+00
        -11   -1    0    0    0    0  0.00000000000E+00  0.00000000000E+00  0.45593999997E+02  0.45594000000E+02  0.51100000000E-03 0.  1.
         11   -1    0    0    0    0 -0.00000000000E+00 -0.00000000000E+00 -0.45593999997E+02  0.45594000000E+02  0.51100000000E-03 0. -1.
    9900012    2    1    2    0    0 -0.28870075933E+01  0.37666745974E+02  0.21365983512E+02  0.47787264792E+02  0.19999971494E+02 0.  0.
         12    1    1    2    0    0  0.28870075933E+01 -0.37666745974E+02 -0.21365983512E+02  0.43400735208E+02  0.00000000000E+00 0. -1.
         11    1    3    3    0    0  0.19202690289E+01  0.30587587728E+01 -0.18055380962E+00  0.36160805180E+01  0.51100000000E-03 0. -1.
        -11    1    3    3    0    0  0.27178999896E+01  0.18619933316E+02  0.39375834630E+01  0.19224813675E+02  0.51100000000E-03 0.  1.
        -12    1    3    3    0    0 -0.75251766117E+01  0.15988053885E+02  0.17608953859E+02  0.24946370599E+02  0.00000000000E+00 0.  1.
</event>
<event>
 7    1  0.2723136E-009  0.4778727E+02  0.7816164E-02  0.1312668E+00
        -11   -1    0    0    0    0  0.00000000000E+00  0.00000000000E+00  0.45593999997E+02  0.45594000000E+02  0.51100000000E-03 0.  1.
         11   -1    0    0    0    0 -0.00000000000E+00 -0.00000000000E+00 -0.45593999997E+02  0.45594000000E+02  0.51100000000E-03 0. -1.
    9900012    2    1    2    0    0 -0.14525543092E+01 -0.34426696319E+02  0.26387798844E+02  0.47787271189E+02  0.20000000660E+02 0.  0.
         12    1    1    2    0    0  0.14525543092E+01  0.34426696319E+02 -0.26387798844E+02  0.43400728811E+02  0.00000000000E+00 0. -1.
         11    1    3    3    0    0  0.25056471265E+01 -0.38997462359E+00  0.75500704026E+01  0.79645408578E+01  0.51100000000E-03 0. -1.
        -11    1    3    3    0    0 -0.64969659970E+00 -0.12497007315E+02  0.11007951278E+02  0.16666502006E+02  0.51100000000E-03 0.  1.
         12    1    3    3    0    0 -0.33085048360E+01 -0.21539714380E+02  0.78297771632E+01  0.23156228325E+02  0.00000000000E+00 0. -1.
</event>
<event>
 7    1  0.2387817E-009  0.4778726E+02  0.7816164E-02  0.1312668E+00
        -11   -1    0    0    0    0  0.00000000000E+00  0.00000000000E+00  0.45593999997E+02  0.45594000000E+02  0.51100000000E-03 0. -1.
         11   -1    0    0    0    0 -0.00000000000E+00 -0.00000000000E+00 -0.45593999997E+02  0.45594000000E+02  0.51100000000E-03 0.  1.
    9900012    2    1    2    0    0  0.40111157304E+02 -0.11535196102E+02 -0.11902034507E+02  0.47787261357E+02  0.19999955832E+02 0.  0.
         12    1    1    2    0    0 -0.40111157304E+02  0.11535196102E+02  0.11902034507E+02  0.43400738643E+02  0.00000000000E+00 0. -1.
         11    1    3    3    0    0  0.35072897599E+01 -0.43588037777E+01 -0.23444927168E+01  0.60660446910E+01  0.51100000000E-03 0. -1.
        -11    1    3    3    0    0  0.16988639793E+02 -0.49802732496E+01  0.35120233711E+01  0.18048581996E+02  0.51100000000E-03 0.  1.
        -12    1    3    3    0    0  0.19615227751E+02 -0.21961190746E+01 -0.13069565162E+02  0.23672634670E+02  0.00000000000E+00 0.  1.
</event>
<event>
 7    1  0.2387817E-009  0.4778727E+02  0.7816164E-02  0.1312668E+00
        -11   -1    0    0    0    0  0.00000000000E+00  0.00000000000E+00  0.45593999997E+02  0.45594000000E+02  0.51100000000E-03 0. -1.
         11   -1    0    0    0    0 -0.00000000000E+00 -0.00000000000E+00 -0.45593999997E+02  0.45594000000E+02  0.51100000000E-03 0.  1.
    9900012    2    1    2    0    0 -0.33218753644E+02  0.24450212889E+02 -0.13502769986E+02  0.47787270729E+02  0.19999998561E+02 0.  0.
         12    1    1    2    0    0  0.33218753644E+02 -0.24450212889E+02  0.13502769986E+02  0.43400729271E+02  0.00000000000E+00 0. -1.
         11    1    3    3    0    0 -0.30648432585E+00 -0.77173356811E+00  0.91951277495E+00  0.12389549413E+01  0.51100000000E-03 0. -1.
        -11    1    3    3    0    0 -0.62986318971E+01  0.10618961376E+02 -0.99647278284E+01  0.15866029921E+02  0.51100000000E-03 0.  1.
         12    1    3    3    0    0 -0.26613637421E+02  0.14602985080E+02 -0.44575549329E+01  0.30682285867E+02  0.00000000000E+00 0. -1.
</event>
<event>
 7    1  0.2387817E-009  0.4778725E+02  0.7816164E-02  0.1312668E+00
        -11   -1    0    0    0    0  0.00000000000E+00  0.00000000000E+00  0.45593999997E+02  0.45594000000E+02  0.51100000000E-03 0. -1.
         11   -1    0    0    0    0 -0.00000000000E+00 -0.00000000000E+00 -0.45593999997E+02  0.45594000000E+02  0.51100000000E-03 0.  1.
    9900012    2    1    2    0    0  0.30842369076E+02  0.28152440283E+02  0.11824263042E+02  0.47787253225E+02  0.19999918756E+02 0.  0.
         12    1    1    2    0    0 -0.30842369076E+02 -0.28152440283E+02 -0.11824263042E+02  0.43400746775E+02  0.00000000000E+00 0. -1.
         11    1    3    3    0    0  0.20342875904E+02  0.15890809498E+02  0.10428708913E+02  0.27840768603E+02  0.51100000000E-03 0. -1.
        -11    1    3    3    0    0  0.10507517990E+02  0.13608393712E+02  0.34055932698E+01  0.17526961502E+02  0.51100000000E-03 0.  1.
        -12    1    3    3    0    0 -0.80248182666E-02 -0.13467629270E+01 -0.20100391411E+01  0.24195231200E+01  0.00000000000E+00 0.  1.
</event>
<event>
 7    1  0.2387817E-009  0.4778728E+02  0.7816164E-02  0.1312668E+00
        -11   -1    0    0    0    0  0.00000000000E+00  0.00000000000E+00  0.45593999997E+02  0.45594000000E+02  0.51100000000E-03 0. -1.
         11   -1    0    0    0    0 -0.00000000000E+00 -0.00000000000E+00 -0.45593999997E+02  0.45594000000E+02  0.51100000000E-03 0.  1.
    9900012    2    1    2    0    0  0.14430847048E+02  0.53493448949E+01 -0.40580265406E+02  0.47787276760E+02  0.20000026059E+02 0.  0.
         12    1    1    2    0    0 -0.14430847048E+02 -0.53493448949E+01  0.40580265406E+02  0.43400723240E+02  0.00000000000E+00 0. -1.
         11    1    3    3    0    0  0.20983464579E+01  0.53930908782E+01 -0.41295084463E+01  0.71092423891E+01  0.51100000000E-03 0. -1.
        -11    1    3    3    0    0  0.11183870223E+02  0.37039549032E+00 -0.12823915758E+02  0.17019663969E+02  0.51100000000E-03 0.  1.
        -12    1    3    3    0    0  0.11486303664E+01 -0.41414147363E+00 -0.23626841202E+02  0.23658370401E+02  0.00000000000E+00 0.  1.
</event>
<event>
 7    1  0.2387817E-009  0.4778727E+02  0.7816164E-02  0.1312668E+00
        -11   -1    0    0    0    0  0.00000000000E+00  0.00000000000E+00  0.45593999997E+02  0.45594000000E+02  0.51100000000E-03 0.  1.
         11   -1    0    0    0    0 -0.00000000000E+00 -0.00000000000E+00 -0.45593999997E+02  0.45594000000E+02  0.51100000000E-03 0. -1.
    9900012    2    1    2    0    0 -0.24158297616E+02  0.91570888369E+01  0.34873311031E+02  0.47787269108E+02  0.19999991172E+02 0.  0.
         12    1    1    2    0    0  0.24158297616E+02 -0.91570888369E+01 -0.34873311031E+02  0.43400730892E+02  0.00000000000E+00 0. -1.
         11    1    3    3    0    0  0.19575636586E+01  0.22841040869E+01  0.32517121953E+01  0.44297651653E+01  0.51100000000E-03 0. -1.
        -11    1    3    3    0    0 -0.48187951740E+01  0.29915344307E+01  0.15085371239E+02  0.16116404402E+02  0.51100000000E-03 0.  1.
        -12    1    3    3    0    0 -0.21297066100E+02  0.38814503193E+01  0.16536227597E+02  0.27241099541E+02  0.00000000000E+00 0.  1.
</event>
<event>
 7    1  0.2387817E-009  0.4778726E+02  0.7816164E-02  0.1312668E+00
        -11   -1    0    0    0    0  0.00000000000E+00  0.00000000000E+00  0.45593999997E+02  0.45594000000E+02  0.51100000000E-03 0.  1.
         11   -1    0    0    0    0 -0.00000000000E+00 -0.00000000000E+00 -0.45593999997E+02  0.45594000000E+02  0.51100000000E-03 0. -1.
    9900012    2    1    2    0    0 -0.13260846241E+02 -0.69266998869E+01  0.40740577541E+02  0.47787264145E+02  0.19999968544E+02 0.  0.
         12    1    1    2    0    0  0.13260846241E+02  0.69266998869E+01 -0.40740577541E+02  0.43400735855E+02  0.00000000000E+00 0. -1.
         11    1    3    3    0    0 -0.25978499816E+01 -0.64368903943E+01  0.21454525659E+02  0.22549480127E+02  0.51100000000E-03 0. -1.
        -11    1    3    3    0    0 -0.86513724065E+01 -0.29257024594E+01  0.20011020990E+02  0.21996521105E+02  0.51100000000E-03 0.  1.
         12    1    3    3    0    0 -0.20116238528E+01  0.24358929668E+01 -0.72496910731E+00  0.32412629140E+01  0.00000000000E+00 0. -1.
</event>
<event>
 7    1  0.2387817E-009  0.4778728E+02  0.7816164E-02  0.1312668E+00
        -11   -1    0    0    0    0  0.00000000000E+00  0.00000000000E+00  0.45593999997E+02  0.45594000000E+02  0.51100000000E-03 0. -1.
         11   -1    0    0    0    0 -0.00000000000E+00 -0.00000000000E+00 -0.45593999997E+02  0.45594000000E+02  0.51100000000E-03 0.  1.
    9900012    2    1    2    0    0  0.12849377042E+02  0.26867279530E+02 -0.31570011876E+02  0.47787275933E+02  0.20000022289E+02 0.  0.
         12    1    1    2    0    0 -0.12849377042E+02 -0.26867279530E+02  0.31570011876E+02  0.43400724067E+02  0.00000000000E+00 0. -1.
         11    1    3    3    0    0  0.24729460372E+00  0.18267734169E+02 -0.90558959000E+01  0.20390696827E+02  0.51100000000E-03 0. -1.
        -11    1    3    3    0    0  0.38963133230E+01  0.92458903846E+00 -0.58254076407E+01  0.70690520470E+01  0.51100000000E-03 0.  1.
        -12    1    3    3    0    0  0.87057691149E+01  0.76749563224E+01 -0.16688708335E+02  0.20327527059E+02  0.00000000000E+00 0.  1.
</event>
<event>
 7    1  0.2387817E-009  0.4778727E+02  0.7816164E-02  0.1312668E+00
        -11   -1    0    0    0    0  0.00000000000E+00  0.00000000000E+00  0.45593999997E+02  0.45594000000E+02  0.51100000000E-03 0. -1.
         11   -1    0    0    0    0 -0.00000000000E+00 -0.00000000000E+00 -0.45593999997E+02  0.45594000000E+02  0.51100000000E-03 0.  1.
    9900012    2    1    2    0    0 -0.34805697468E+02  0.21569200562E+02 -0.14385991902E+02  0.47787265535E+02  0.19999974879E+02 0.  0.
         12    1    1    2    0    0  0.34805697468E+02 -0.21569200562E+02  0.14385991902E+02  0.43400734465E+02  0.00000000000E+00 0. -1.
         11    1    3    3    0    0 -0.18362626924E+02  0.10967585158E+02  0.38630418107E+00  0.21392129930E+02  0.51100000000E-03 0. -1.
        -11    1    3    3    0    0 -0.12587835821E+01  0.47806322133E+01 -0.90984696140E+00  0.50266094159E+01  0.51100000000E-03 0.  1.
        -12    1    3    3    0    0 -0.15184286962E+02  0.58209831908E+01 -0.13862449122E+02  0.21368526189E+02  0.00000000000E+00 0.  1.
</event>
<event>
 7    1  0.2387817E-009  0.4778727E+02  0.7816164E-02  0.1312668E+00
        -11   -1    0    0    0    0  0.00000000000E+00  0.00000000000E+00  0.45593999997E+02  0.45594000000E+02  0.51100000000E-03 0. -1.
         11   -1    0    0    0    0 -0.00000000000E+00 -0.00000000000E+00 -0.45593999997E+02  0.45594000000E+02  0.51100000000E-03 0.  1.
    9900012    2    1    2    0    0 -0.25490878319E+02  0.57896600654E+01 -0.34645609573E+02  0.47787270699E+02  0.19999998424E+02 0.  0.
         12    1    1    2    0    0  0.25490878319E+02 -0.57896600654E+01  0.34645609573E+02  0.43400729301E+02  0.00000000000E+00 0. -1.
         11    1    3    3    0    0 -0.32806870130E+01  0.50167351490E+00  0.20819929046E+01  0.39178155022E+01  0.51100000000E-03 0. -1.
        -11    1    3    3    0    0 -0.39473116706E+01  0.40408497637E+01 -0.76480935038E+01  0.95080529417E+01  0.51100000000E-03 0.  1.
        -12    1    3    3    0    0 -0.18262879636E+02  0.12471367868E+01 -0.29079508974E+02  0.34361402255E+02  0.00000000000E+00 0.  1.
</event>
<event>
 7    1  0.2387817E-009  0.4778727E+02  0.7816164E-02  0.1312668E+00
        -11   -1    0    0    0    0  0.00000000000E+00  0.00000000000E+00  0.45593999997E+02  0.45594000000E+02  0.51100000000E-03 0.  1.
         11   -1    0    0    0    0 -0.00000000000E+00 -0.00000000000E+00 -0.45593999997E+02  0.45594000000E+02  0.51100000000E-03 0. -1.
    9900012    2    1    2    0    0 -0.33452850100E+02 -0.22225198680E+02  0.16449021135E+02  0.47787274977E+02  0.20000017932E+02 0.  0.
         12    1    1    2    0    0  0.33452850100E+02  0.22225198680E+02 -0.16449021135E+02  0.43400725023E+02  0.00000000000E+00 0. -1.
         11    1    3    3    0    0 -0.21589211255E+02 -0.90807204210E+01  0.61616015693E+01  0.24218151460E+02  0.51100000000E-03 0.  1.
        -11    1    3    3    0    0 -0.44049293716E+01  0.10059876266E+01  0.49598892408E+01  0.67093900927E+01  0.51100000000E-03 0. -1.
        -12    1    3    3    0    0 -0.74587094736E+01 -0.14150465886E+02  0.53275303246E+01  0.16859733425E+02  0.00000000000E+00 0.  1.
</event>
<event>
 7    1  0.2387817E-009  0.4778727E+02  0.7816164E-02  0.1312668E+00
        -11   -1    0    0    0    0  0.00000000000E+00  0.00000000000E+00  0.45593999997E+02  0.45594000000E+02  0.51100000000E-03 0.  1.
         11   -1    0    0    0    0 -0.00000000000E+00 -0.00000000000E+00 -0.45593999997E+02  0.45594000000E+02  0.51100000000E-03 0. -1.
    9900012    2    1    2    0    0 -0.16999436874E+02 -0.39813023492E+02 -0.30928292052E+01  0.47787270904E+02  0.19999999358E+02 0.  0.
         12    1    1    2    0    0  0.16999436874E+02  0.39813023492E+02  0.30928292052E+01  0.43400729096E+02  0.00000000000E+00 0. -1.
         11    1    3    3    0    0 -0.10701750464E+02 -0.55682875893E+01 -0.10964835024E+01  0.12113445670E+02  0.51100000000E-03 0. -1.
        -11    1    3    3    0    0 -0.29853551214E+01 -0.75037139448E+01  0.22794420366E+01  0.83913005205E+01  0.51100000000E-03 0.  1.
         12    1    3    3    0    0 -0.33123312885E+01 -0.26741021958E+02 -0.42757877394E+01  0.27282524713E+02  0.00000000000E+00 0. -1.
</event>
<event>
 7    1  0.2387817E-009  0.4778727E+02  0.7816164E-02  0.1312668E+00
        -11   -1    0    0    0    0  0.00000000000E+00  0.00000000000E+00  0.45593999997E+02  0.45594000000E+02  0.51100000000E-03 0.  1.
         11   -1    0    0    0    0 -0.00000000000E+00 -0.00000000000E+00 -0.45593999997E+02  0.45594000000E+02  0.51100000000E-03 0. -1.
    9900012    2    1    2    0    0 -0.35242902772E+02  0.12986241440E+02  0.21746691706E+02  0.47787271174E+02  0.20000000590E+02 0.  0.
         12    1    1    2    0    0  0.35242902772E+02 -0.12986241440E+02 -0.21746691706E+02  0.43400728826E+02  0.00000000000E+00 0. -1.
         11    1    3    3    0    0  0.14751604674E+01  0.33150463713E+01 -0.49886192937E+00  0.36625802836E+01  0.51100000000E-03 0. -1.
        -11    1    3    3    0    0 -0.22084789089E+02  0.72127911969E+01  0.14500864472E+02  0.27386809537E+02  0.51100000000E-03 0.  1.
        -12    1    3    3    0    0 -0.14633274150E+02  0.24584038718E+01  0.77446891632E+01  0.16737881353E+02  0.00000000000E+00 0.  1.
</event>
<event>
 7    1  0.2387817E-009  0.4778727E+02  0.7816164E-02  0.1312668E+00
        -11   -1    0    0    0    0  0.00000000000E+00  0.00000000000E+00  0.45593999997E+02  0.45594000000E+02  0.51100000000E-03 0.  1.
         11   -1    0    0    0    0 -0.00000000000E+00 -0.00000000000E+00 -0.45593999997E+02  0.45594000000E+02  0.51100000000E-03 0. -1.
    9900012    2    1    2    0    0 -0.84126325911E+01 -0.38903186737E+02  0.17302971448E+02  0.47787272514E+02  0.20000006699E+02 0.  0.
         12    1    1    2    0    0  0.84126325911E+01  0.38903186737E+02 -0.17302971448E+02  0.43400727486E+02  0.00000000000E+00 0. -1.
         11    1    3    3    0    0 -0.47309831932E+01 -0.96058360028E+01  0.96891810921E+01  0.14440724282E+02  0.51100000000E-03 0.  1.
        -11    1    3    3    0    0  0.86812231185E+00 -0.24444526906E+02  0.18242517897E+01  0.24527870410E+02  0.51100000000E-03 0. -1.
         12    1    3    3    0    0 -0.45497717097E+01 -0.48528238286E+01  0.57895385659E+01  0.88186778220E+01  0.00000000000E+00 0. -1.
</event>
<event>
 7    1  0.2387817E-009  0.4778727E+02  0.7816164E-02  0.1312668E+00
        -11   -1    0    0    0    0  0.00000000000E+00  0.00000000000E+00  0.45593999997E+02  0.45594000000E+02  0.51100000000E-03 0.  1.
         11   -1    0    0    0    0 -0.00000000000E+00 -0.00000000000E+00 -0.45593999997E+02  0.45594000000E+02  0.51100000000E-03 0. -1.
    9900012    2    1    2    0    0 -0.35801305816E+02 -0.23415554439E+02  0.73213078449E+01  0.47787271477E+02  0.20000001971E+02 0.  0.
         12    1    1    2    0    0  0.35801305816E+02  0.23415554439E+02 -0.73213078449E+01  0.43400728523E+02  0.00000000000E+00 0. -1.
         11    1    3    3    0    0 -0.11533301035E+02  0.31367721462E+00  0.66610020504E+01  0.13322326176E+02  0.51100000000E-03 0. -1.
        -11    1    3    3    0    0 -0.41616413677E+00  0.30230942821E+00  0.31717482394E+00  0.60430431835E+00  0.51100000000E-03 0.  1.
        -12    1    3    3    0    0 -0.23851840643E+02 -0.24031541082E+02  0.34313097054E+00  0.33860640982E+02  0.00000000000E+00 0.  1.
</event>
<event>
 7    1  0.2387817E-009  0.4778727E+02  0.7816164E-02  0.1312668E+00
        -11   -1    0    0    0    0  0.00000000000E+00  0.00000000000E+00  0.45593999997E+02  0.45594000000E+02  0.51100000000E-03 0.  1.
         11   -1    0    0    0    0 -0.00000000000E+00 -0.00000000000E+00 -0.45593999997E+02  0.45594000000E+02  0.51100000000E-03 0. -1.
    9900012    2    1    2    0    0 -0.30108938447E+02  0.11917917849E+02  0.28897029699E+02  0.47787271139E+02  0.20000000430E+02 0.  0.
         12    1    1    2    0    0  0.30108938447E+02 -0.11917917849E+02 -0.28897029699E+02  0.43400728861E+02  0.00000000000E+00 0. -1.
         11    1    3    3    0    0 -0.13635308136E+02  0.27984594457E+01  0.22910645772E+02  0.26807661092E+02  0.51100000000E-03 0. -1.
        -11    1    3    3    0    0 -0.91537601047E+01  0.74276241651E+01  0.64777224306E+01  0.13450717934E+02  0.51100000000E-03 0.  1.
        -12    1    3    3    0    0 -0.73198702060E+01  0.16918342382E+01 -0.49133850369E+00  0.75288921129E+01  0.00000000000E+00 0.  1.
</event>
<event>
 7    1  0.2387817E-009  0.4778727E+02  0.7816164E-02  0.1312668E+00
        -11   -1    0    0    0    0  0.00000000000E+00  0.00000000000E+00  0.45593999997E+02  0.45594000000E+02  0.51100000000E-03 0.  1.
         11   -1    0    0    0    0 -0.00000000000E+00 -0.00000000000E+00 -0.45593999997E+02  0.45594000000E+02  0.51100000000E-03 0. -1.
    9900012    2    1    2    0    0  0.53491709433E+01 -0.39398173336E+02  0.17400976508E+02  0.47787266418E+02  0.19999978906E+02 0.  0.
         12    1    1    2    0    0 -0.53491709433E+01  0.39398173336E+02 -0.17400976508E+02  0.43400733582E+02  0.00000000000E+00 0. -1.
         11    1    3    3    0    0 -0.58192947556E+00  0.24463754340E+00 -0.23333003129E+01  0.24171843234E+01  0.51100000000E-03 0. -1.
        -11    1    3    3    0    0  0.86799258718E+00 -0.26302978581E+02  0.10280495787E+02  0.28254003030E+02  0.51100000000E-03 0.  1.
        -12    1    3    3    0    0  0.50631078317E+01 -0.13339832299E+02  0.94537810345E+01  0.17116079064E+02  0.00000000000E+00 0.  1.
</event>
<event>
 7    1  0.2387817E-009  0.4778727E+02  0.7816164E-02  0.1312668E+00
        -11   -1    0    0    0    0  0.00000000000E+00  0.00000000000E+00  0.45593999997E+02  0.45594000000E+02  0.51100000000E-03 0.  1.
         11   -1    0    0    0    0 -0.00000000000E+00 -0.00000000000E+00 -0.45593999997E+02  0.45594000000E+02  0.51100000000E-03 0. -1.
    9900012    2    1    2    0    0  0.21093460461E+02  0.35849706524E+02 -0.12389028345E+02  0.47787267801E+02  0.19999985212E+02 0.  0.
         12    1    1    2    0    0 -0.21093460461E+02 -0.35849706524E+02  0.12389028345E+02  0.43400732199E+02  0.00000000000E+00 0. -1.
         11    1    3    3    0    0  0.12341276534E+01  0.31286199621E+01 -0.43885303346E+01  0.55290625509E+01  0.51100000000E-03 0. -1.
        -11    1    3    3    0    0  0.54786293576E+01  0.82119569744E+01  0.49342830198E+01  0.11036247830E+02  0.51100000000E-03 0.  1.
        -12    1    3    3    0    0  0.14380703450E+02  0.24509129588E+02 -0.12934781030E+02  0.31221957420E+02  0.00000000000E+00 0.  1.
</event>
<event>
 7    1  0.2387817E-009  0.4778727E+02  0.7816164E-02  0.1312668E+00
        -11   -1    0    0    0    0  0.00000000000E+00  0.00000000000E+00  0.45593999997E+02  0.45594000000E+02  0.51100000000E-03 0.  1.
         11   -1    0    0    0    0 -0.00000000000E+00 -0.00000000000E+00 -0.45593999997E+02  0.45594000000E+02  0.51100000000E-03 0. -1.
    9900012    2    1    2    0    0  0.19936194301E+02  0.11131295875E+02  0.36908884161E+02  0.47787270501E+02  0.19999997520E+02 0.  0.
         12    1    1    2    0    0 -0.19936194301E+02 -0.11131295875E+02 -0.36908884161E+02  0.43400729499E+02  0.00000000000E+00 0. -1.
         11    1    3    3    0    0  0.10169849353E+02  0.10433209730E+02  0.14811970621E+02  0.20776721952E+02  0.51100000000E-03 0. -1.
        -11    1    3    3    0    0  0.11911473174E+02  0.29419250815E+01  0.15938769146E+02  0.20114235718E+02  0.51100000000E-03 0.  1.
         12    1    3    3    0    0 -0.21451282260E+01 -0.22438389365E+01  0.61581443944E+01  0.68963128309E+01  0.00000000000E+00 0. -1.
</event>
<event>
 7    1  0.2387817E-009  0.4778727E+02  0.7816164E-02  0.1312668E+00
        -11   -1    0    0    0    0  0.00000000000E+00  0.00000000000E+00  0.45593999997E+02  0.45594000000E+02  0.51100000000E-03 0.  1.
         11   -1    0    0    0    0 -0.00000000000E+00 -0.00000000000E+00 -0.45593999997E+02  0.45594000000E+02  0.51100000000E-03 0. -1.
    9900012    2    1    2    0    0 -0.22187343067E+02  0.27569607034E+02  0.25124924846E+02  0.47787271056E+02  0.20000000051E+02 0.  0.
         12    1    1    2    0    0  0.22187343067E+02 -0.27569607034E+02 -0.25124924846E+02  0.43400728944E+02  0.00000000000E+00 0. -1.
         11    1    3    3    0    0  0.28150256417E+01  0.27528926974E+01  0.52355044301E+01  0.65508239532E+01  0.51100000000E-03 0. -1.
        -11    1    3    3    0    0 -0.36802255882E+00  0.21740219498E+01 -0.19200848176E+00  0.22132960850E+01  0.51100000000E-03 0.  1.
        -12    1    3    3    0    0 -0.24634346150E+02  0.22642692387E+02  0.20081428897E+02  0.39023151017E+02  0.00000000000E+00 0.  1.
</event>
<event>
 7    1  0.3456754E-009  0.4778730E+02  0.7816164E-02  0.1312668E+00
        -11   -1    0    0    0    0  0.00000000000E+00  0.00000000000E+00  0.45593999997E+02  0.45594000000E+02  0.51100000000E-03 0. -1.
         11   -1    0    0    0    0 -0.00000000000E+00 -0.00000000000E+00 -0.45593999997E+02  0.45594000000E+02  0.51100000000E-03 0.  1.
    9900012    2    1    2    0    0  0.17928615766E+02 -0.35655593290E+02 -0.17054744203E+02  0.47787298440E+02  0.20000124905E+02 0.  0.
         12    1    1    2    0    0 -0.17928615766E+02  0.35655593290E+02  0.17054744203E+02  0.43400701560E+02  0.00000000000E+00 0. -1.
         11    1    3    3    0    0  0.40069018659E+01 -0.23056770371E+02 -0.43295961987E+01  0.23799481634E+02  0.51100000000E-03 0. -1.
        -11    1    3    3    0    0  0.84248138567E+01 -0.10758535569E+02 -0.55131123371E+01  0.14734923957E+02  0.51100000000E-03 0.  1.
         12    1    3    3    0    0  0.54969000432E+01 -0.18402873487E+01 -0.72120356671E+01  0.92528928490E+01  0.00000000000E+00 0. -1.
</event>
<event>
 7    1  0.2387817E-009  0.4778728E+02  0.7816164E-02  0.1312668E+00
        -11   -1    0    0    0    0  0.00000000000E+00  0.00000000000E+00  0.45593999997E+02  0.45594000000E+02  0.51100000000E-03 0. -1.
         11   -1    0    0    0    0 -0.00000000000E+00 -0.00000000000E+00 -0.45593999997E+02  0.45594000000E+02  0.51100000000E-03 0.  1.
    9900012    2    1    2    0    0 -0.37209667884E+02  0.15096735179E+02 -0.16466694207E+02  0.47787276329E+02  0.20000024093E+02 0.  0.
         12    1    1    2    0    0  0.37209667884E+02 -0.15096735179E+02  0.16466694207E+02  0.43400723671E+02  0.00000000000E+00 0. -1.
         11    1    3    3    0    0 -0.73366703776E+01  0.60074953732E+01  0.25535893633E+00  0.94858811576E+01  0.51100000000E-03 0. -1.
        -11    1    3    3    0    0 -0.22247077063E+02  0.12139616163E+02 -0.86335322689E+01  0.26773879027E+02  0.51100000000E-03 0.  1.
        -12    1    3    3    0    0 -0.76259204427E+01 -0.30503763571E+01 -0.80885208745E+01  0.11527516144E+02  0.00000000000E+00 0.  1.
</event>
<event>
 7    1  0.2387817E-009  0.4778727E+02  0.7816164E-02  0.1312668E+00
        -11   -1    0    0    0    0  0.00000000000E+00  0.00000000000E+00  0.45593999997E+02  0.45594000000E+02  0.51100000000E-03 0.  1.
         11   -1    0    0    0    0 -0.00000000000E+00 -0.00000000000E+00 -0.45593999997E+02  0.45594000000E+02  0.51100000000E-03 0. -1.
    9900012    2    1    2    0    0  0.34607766219E+02  0.15465196514E+02  0.21136541805E+02  0.47787272064E+02  0.20000004650E+02 0.  0.
         12    1    1    2    0    0 -0.34607766219E+02 -0.15465196514E+02 -0.21136541805E+02  0.43400727936E+02  0.00000000000E+00 0. -1.
         11    1    3    3    0    0  0.91900652125E+01  0.56433121914E+01  0.36697434218E+01  0.11391720157E+02  0.51100000000E-03 0. -1.
        -11    1    3    3    0    0  0.24658714152E+02  0.78537464703E+01  0.20280420974E+02  0.32879005343E+02  0.51100000000E-03 0.  1.
         12    1    3    3    0    0  0.75898685451E+00  0.19681378525E+01 -0.28136225906E+01  0.35165465636E+01  0.00000000000E+00 0. -1.
</event>
<event>
 7    1  0.2387817E-009  0.4778727E+02  0.7816164E-02  0.1312668E+00
        -11   -1    0    0    0    0  0.00000000000E+00  0.00000000000E+00  0.45593999997E+02  0.45594000000E+02  0.51100000000E-03 0.  1.
         11   -1    0    0    0    0 -0.00000000000E+00 -0.00000000000E+00 -0.45593999997E+02  0.45594000000E+02  0.51100000000E-03 0. -1.
    9900012    2    1    2    0    0 -0.34793712067E+02 -0.16075416624E+02  0.20361768428E+02  0.47787273824E+02  0.20000012675E+02 0.  0.
         12    1    1    2    0    0  0.34793712067E+02  0.16075416624E+02 -0.20361768428E+02  0.43400726176E+02  0.00000000000E+00 0. -1.
         11    1    3    3    0    0 -0.24976034796E+02 -0.14414474664E+02  0.23445630430E+02  0.37165534848E+02  0.51100000000E-03 0. -1.
        -11    1    3    3    0    0 -0.24945514423E+01 -0.11940286550E+01 -0.33516080113E+00  0.27858256138E+01  0.51100000000E-03 0.  1.
         12    1    3    3    0    0 -0.73231258290E+01 -0.46691330452E+00 -0.27487012006E+01  0.78359133629E+01  0.00000000000E+00 0. -1.
</event>
<event>
 7    1  0.2387817E-009  0.4778727E+02  0.7816164E-02  0.1312668E+00
        -11   -1    0    0    0    0  0.00000000000E+00  0.00000000000E+00  0.45593999997E+02  0.45594000000E+02  0.51100000000E-03 0.  1.
         11   -1    0    0    0    0 -0.00000000000E+00 -0.00000000000E+00 -0.45593999997E+02  0.45594000000E+02  0.51100000000E-03 0. -1.
    9900012    2    1    2    0    0  0.16213390718E+02 -0.59767490819E+01  0.39812407777E+02  0.47787269808E+02  0.19999994362E+02 0.  0.
         12    1    1    2    0    0 -0.16213390718E+02  0.59767490819E+01 -0.39812407777E+02  0.43400730192E+02  0.00000000000E+00 0. -1.
         11    1    3    3    0    0  0.78643125674E+01 -0.25863363498E+01  0.91119577872E+01  0.12311146285E+02  0.51100000000E-03 0. -1.
        -11    1    3    3    0    0  0.75088908670E+01 -0.14173453534E+01  0.38800562636E+01  0.85701310826E+01  0.51100000000E-03 0.  1.
         12    1    3    3    0    0  0.84018728393E+00 -0.19730673787E+01  0.26820393727E+02  0.26905992440E+02  0.00000000000E+00 0. -1.
</event>
<event>
 7    1  0.2387817E-009  0.4778727E+02  0.7816164E-02  0.1312668E+00
        -11   -1    0    0    0    0  0.00000000000E+00  0.00000000000E+00  0.45593999997E+02  0.45594000000E+02  0.51100000000E-03 0. -1.
         11   -1    0    0    0    0 -0.00000000000E+00 -0.00000000000E+00 -0.45593999997E+02  0.45594000000E+02  0.51100000000E-03 0.  1.
    9900012    2    1    2    0    0  0.40583672154E+02  0.15031013027E+02 -0.32645856489E+01  0.47787270540E+02  0.19999997702E+02 0.  0.
         12    1    1    2    0    0 -0.40583672154E+02 -0.15031013027E+02  0.32645856489E+01  0.43400729460E+02  0.00000000000E+00 0. -1.
         11    1    3    3    0    0  0.10713661166E+01 -0.76138937320E+00  0.18233313039E+01  0.22476824594E+01  0.51100000000E-03 0. -1.
        -11    1    3    3    0    0  0.14921033630E+02  0.10887486447E+02 -0.83167096861E+01  0.20256906624E+02  0.51100000000E-03 0.  1.
         12    1    3    3    0    0  0.24591272407E+02  0.49049159538E+01  0.32287927333E+01  0.25282681457E+02  0.00000000000E+00 0. -1.
</event>
<event>
 7    1  0.2387817E-009  0.4778727E+02  0.7816164E-02  0.1312668E+00
        -11   -1    0    0    0    0  0.00000000000E+00  0.00000000000E+00  0.45593999997E+02  0.45594000000E+02  0.51100000000E-03 0. -1.
         11   -1    0    0    0    0 -0.00000000000E+00 -0.00000000000E+00 -0.45593999997E+02  0.45594000000E+02  0.51100000000E-03 0.  1.
    9900012    2    1    2    0    0 -0.28709518130E+02  0.32431262561E+02 -0.27568748044E+01  0.47787267504E+02  0.19999983856E+02 0.  0.
         12    1    1    2    0    0  0.28709518130E+02 -0.32431262561E+02  0.27568748044E+01  0.43400732496E+02  0.00000000000E+00 0. -1.
         11    1    3    3    0    0 -0.36011024342E+00 -0.84070636043E+00 -0.10521495901E+01  0.13940895211E+01  0.51100000000E-03 0. -1.
        -11    1    3    3    0    0 -0.14678058944E+02  0.17484322503E+02  0.68356331046E+01  0.23830082416E+02  0.51100000000E-03 0.  1.
         12    1    3    3    0    0 -0.13671348942E+02  0.15787646419E+02 -0.85403583189E+01  0.22563095567E+02  0.00000000000E+00 0. -1.
</event>
<event>
 7    1  0.2387817E-009  0.4778728E+02  0.7816164E-02  0.1312668E+00
        -11   -1    0    0    0    0  0.00000000000E+00  0.00000000000E+00  0.45593999997E+02  0.45594000000E+02  0.51100000000E-03 0.  1.
         11   -1    0    0    0    0 -0.00000000000E+00 -0.00000000000E+00 -0.45593999997E+02  0.45594000000E+02  0.51100000000E-03 0. -1.
    9900012    2    1    2    0    0 -0.94279177530E+01  0.13012066332E+01  0.42344352125E+02  0.47787275020E+02  0.20000018127E+02 0.  0.
         12    1    1    2    0    0  0.94279177530E+01 -0.13012066332E+01 -0.42344352125E+02  0.43400724980E+02  0.00000000000E+00 0. -1.
         11    1    3    3    0    0  0.19679419944E-01  0.19228942468E+00  0.10004160399E+02  0.10006027586E+02  0.51100000000E-03 0. -1.
        -11    1    3    3    0    0 -0.66632740350E+01  0.23176075137E+01  0.33717772744E+02  0.34447913210E+02  0.51100000000E-03 0.  1.
         12    1    3    3    0    0 -0.27843231380E+01 -0.12086903052E+01 -0.13775810176E+01  0.33333342242E+01  0.00000000000E+00 0. -1.
</event>
<event>
 7    1  0.2387817E-009  0.4778727E+02  0.7816164E-02  0.1312668E+00
        -11   -1    0    0    0    0  0.00000000000E+00  0.00000000000E+00  0.45593999997E+02  0.45594000000E+02  0.51100000000E-03 0.  1.
         11   -1    0    0    0    0 -0.00000000000E+00 -0.00000000000E+00 -0.45593999997E+02  0.45594000000E+02  0.51100000000E-03 0. -1.
    9900012    2    1    2    0    0 -0.91473379981E+01  0.28567088480E+02  0.31366722416E+02  0.47787267151E+02  0.19999982250E+02 0.  0.
         12    1    1    2    0    0  0.91473379981E+01 -0.28567088480E+02 -0.31366722416E+02  0.43400732849E+02  0.00000000000E+00 0. -1.
         11    1    3    3    0    0 -0.64620762711E+01  0.11306431600E+02  0.78712303531E+01  0.15216770117E+02  0.51100000000E-03 0. -1.
        -11    1    3    3    0    0 -0.63742568625E+01  0.15546816611E+02  0.12785498541E+02  0.21114062387E+02  0.51100000000E-03 0.  1.
         12    1    3    3    0    0  0.36889951356E+01  0.17138402687E+01  0.10709993522E+02  0.11456434647E+02  0.00000000000E+00 0. -1.
</event>
<event>
 7    1  0.2387817E-009  0.4778727E+02  0.7816164E-02  0.1312668E+00
        -11   -1    0    0    0    0  0.00000000000E+00  0.00000000000E+00  0.45593999997E+02  0.45594000000E+02  0.51100000000E-03 0.  1.
         11   -1    0    0    0    0 -0.00000000000E+00 -0.00000000000E+00 -0.45593999997E+02  0.45594000000E+02  0.51100000000E-03 0. -1.
    9900012    2    1    2    0    0 -0.20706806295E+02 -0.21818724713E+02  0.31285689457E+02  0.47787274893E+02  0.20000017546E+02 0.  0.
         12    1    1    2    0    0  0.20706806295E+02  0.21818724713E+02 -0.31285689457E+02  0.43400725107E+02  0.00000000000E+00 0. -1.
         11    1    3    3    0    0 -0.13660159294E+02 -0.23991869188E+01  0.16611142564E+02  0.21639919301E+02  0.51100000000E-03 0.  1.
        -11    1    3    3    0    0  0.82360285632E+00 -0.18071688524E+01  0.13441722411E+00  0.19905399210E+01  0.51100000000E-03 0. -1.
         12    1    3    3    0    0 -0.78702498571E+01 -0.17612368942E+02  0.14540129669E+02  0.24156815671E+02  0.00000000000E+00 0. -1.
</event>
<event>
 7    1  0.2387817E-009  0.4778727E+02  0.7816164E-02  0.1312668E+00
        -11   -1    0    0    0    0  0.00000000000E+00  0.00000000000E+00  0.45593999997E+02  0.45594000000E+02  0.51100000000E-03 0. -1.
         11   -1    0    0    0    0 -0.00000000000E+00 -0.00000000000E+00 -0.45593999997E+02  0.45594000000E+02  0.51100000000E-03 0.  1.
    9900012    2    1    2    0    0  0.40162404495E+02  0.16428511936E+02  0.84183800249E+00  0.47787269240E+02  0.19999991773E+02 0.  0.
         12    1    1    2    0    0 -0.40162404495E+02 -0.16428511936E+02 -0.84183800249E+00  0.43400730760E+02  0.00000000000E+00 0. -1.
         11    1    3    3    0    0  0.12228105433E+02  0.57099815597E+01  0.22946585022E+01  0.13689262573E+02  0.51100000000E-03 0. -1.
        -11    1    3    3    0    0  0.25965319233E+02  0.77145718879E+01  0.41897763987E+01  0.27409243857E+02  0.51100000000E-03 0.  1.
         12    1    3    3    0    0  0.19689798294E+01  0.30039584882E+01 -0.56425968984E+01  0.66887628098E+01  0.00000000000E+00 0. -1.
</event>
<event>
 7    1  0.2387817E-009  0.4778727E+02  0.7816164E-02  0.1312668E+00
        -11   -1    0    0    0    0  0.00000000000E+00  0.00000000000E+00  0.45593999997E+02  0.45594000000E+02  0.51100000000E-03 0. -1.
         11   -1    0    0    0    0 -0.00000000000E+00 -0.00000000000E+00 -0.45593999997E+02  0.45594000000E+02  0.51100000000E-03 0.  1.
    9900012    2    1    2    0    0 -0.26046090380E+02  0.25937141546E+02 -0.23075730432E+02  0.47787268777E+02  0.19999989664E+02 0.  0.
         12    1    1    2    0    0  0.26046090380E+02 -0.25937141546E+02  0.23075730432E+02  0.43400731223E+02  0.00000000000E+00 0. -1.
         11    1    3    3    0    0  0.20956808962E+00  0.20231251435E+01 -0.96852010040E+00  0.22527728639E+01  0.51100000000E-03 0. -1.
        -11    1    3    3    0    0 -0.22007023065E+02  0.16198027294E+02 -0.72641422023E+01  0.28274598398E+02  0.51100000000E-03 0.  1.
        -12    1    3    3    0    0 -0.42486354047E+01  0.77159891088E+01 -0.14843068130E+02  0.17259897515E+02  0.00000000000E+00 0.  1.
</event>
<event>
 7    1  0.2387817E-009  0.4778727E+02  0.7816164E-02  0.1312668E+00
        -11   -1    0    0    0    0  0.00000000000E+00  0.00000000000E+00  0.45593999997E+02  0.45594000000E+02  0.51100000000E-03 0.  1.
         11   -1    0    0    0    0 -0.00000000000E+00 -0.00000000000E+00 -0.45593999997E+02  0.45594000000E+02  0.51100000000E-03 0. -1.
    9900012    2    1    2    0    0 -0.16119234692E+02  0.17234490376E+01  0.40259448526E+02  0.47787271904E+02  0.20000003920E+02 0.  0.
         12    1    1    2    0    0  0.16119234692E+02 -0.17234490376E+01 -0.40259448526E+02  0.43400728096E+02  0.00000000000E+00 0. -1.
         11    1    3    3    0    0 -0.84505884566E+01 -0.43998179803E+01  0.14723992468E+02  0.17537582444E+02  0.51100000000E-03 0. -1.
        -11    1    3    3    0    0 -0.94346337698E+01  0.21856253818E+01  0.92141673289E+01  0.13367503600E+02  0.51100000000E-03 0.  1.
        -12    1    3    3    0    0  0.17659875348E+01  0.39376416360E+01  0.16321288729E+02  0.16882185859E+02  0.00000000000E+00 0.  1.
</event>
<event>
 7    1  0.2387817E-009  0.4778727E+02  0.7816164E-02  0.1312668E+00
        -11   -1    0    0    0    0  0.00000000000E+00  0.00000000000E+00  0.45593999997E+02  0.45594000000E+02  0.51100000000E-03 0. -1.
         11   -1    0    0    0    0 -0.00000000000E+00 -0.00000000000E+00 -0.45593999997E+02  0.45594000000E+02  0.51100000000E-03 0.  1.
    9900012    2    1    2    0    0 -0.14319384318E+02 -0.14513570078E+02 -0.38313636701E+02  0.47787271425E+02  0.20000001734E+02 0.  0.
         12    1    1    2    0    0  0.14319384318E+02  0.14513570078E+02  0.38313636701E+02  0.43400728575E+02  0.00000000000E+00 0. -1.
         11    1    3    3    0    0  0.12121627942E+01 -0.64071395176E+01 -0.24415654874E+01  0.69629029670E+01  0.51100000000E-03 0. -1.
        -11    1    3    3    0    0 -0.10094599948E+01 -0.12629051406E+01 -0.11672773571E+02  0.11784209009E+02  0.51100000000E-03 0.  1.
        -12    1    3    3    0    0 -0.14522087118E+02 -0.68435254193E+01 -0.24199297642E+02  0.29040159449E+02  0.00000000000E+00 0.  1.
</event>
<event>
 7    1  0.2387817E-009  0.4778727E+02  0.7816164E-02  0.1312668E+00
        -11   -1    0    0    0    0  0.00000000000E+00  0.00000000000E+00  0.45593999997E+02  0.45594000000E+02  0.51100000000E-03 0.  1.
         11   -1    0    0    0    0 -0.00000000000E+00 -0.00000000000E+00 -0.45593999997E+02  0.45594000000E+02  0.51100000000E-03 0. -1.
    9900012    2    1    2    0    0 -0.35613791649E+02  0.22353734396E+02  0.10751351338E+02  0.47787272441E+02  0.20000006369E+02 0.  0.
         12    1    1    2    0    0  0.35613791649E+02 -0.22353734396E+02 -0.10751351338E+02  0.43400727559E+02  0.00000000000E+00 0. -1.
         11    1    3    3    0    0 -0.14615737204E+02  0.11364838570E+02 -0.29090484953E+01  0.18741448534E+02  0.51100000000E-03 0. -1.
        -11    1    3    3    0    0 -0.88218913807E+01  0.10070906012E+02  0.63972056473E+01  0.14838232907E+02  0.51100000000E-03 0.  1.
        -12    1    3    3    0    0 -0.12176163064E+02  0.91798981324E+00  0.72631941862E+01  0.14207591000E+02  0.00000000000E+00 0.  1.
</event>
<event>
 7    1  0.2387817E-009  0.4778727E+02  0.7816164E-02  0.1312668E+00
        -11   -1    0    0    0    0  0.00000000000E+00  0.00000000000E+00  0.45593999997E+02  0.45594000000E+02  0.51100000000E-03 0.  1.
         11   -1    0    0    0    0 -0.00000000000E+00 -0.00000000000E+00 -0.45593999997E+02  0.45594000000E+02  0.51100000000E-03 0. -1.
    9900012    2    1    2    0    0  0.14944804398E+02  0.40732228107E+02  0.10778102266E+01  0.47787271205E+02  0.20000000731E+02 0.  0.
         12    1    1    2    0    0 -0.14944804398E+02 -0.40732228107E+02 -0.10778102266E+01  0.43400728795E+02  0.00000000000E+00 0. -1.
         11    1    3    3    0    0  0.12679046920E+00  0.16820277593E+01 -0.13643660057E+01  0.21695133244E+01  0.51100000000E-03 0. -1.
        -11    1    3    3    0    0  0.17101030982E+02  0.36747208816E+02  0.58061520880E+01  0.40945256364E+02  0.51100000000E-03 0.  1.
         12    1    3    3    0    0 -0.22830170531E+01  0.23029915321E+01 -0.33639758557E+01  0.46725015163E+01  0.00000000000E+00 0. -1.
</event>
<event>
 7    1  0.2387817E-009  0.4778728E+02  0.7816164E-02  0.1312668E+00
        -11   -1    0    0    0    0  0.00000000000E+00  0.00000000000E+00  0.45593999997E+02  0.45594000000E+02  0.51100000000E-03 0.  1.
         11   -1    0    0    0    0 -0.00000000000E+00 -0.00000000000E+00 -0.45593999997E+02  0.45594000000E+02  0.51100000000E-03 0. -1.
    9900012    2    1    2    0    0 -0.29927652286E+02 -0.31425902578E+02  0.60902928883E+00  0.47787278337E+02  0.20000033251E+02 0.  0.
         12    1    1    2    0    0  0.29927652286E+02  0.31425902578E+02 -0.60902928883E+00  0.43400721663E+02  0.00000000000E+00 0. -1.
         11    1    3    3    0    0 -0.19129052294E+01  0.14513097500E+01 -0.15574601604E+01  0.28620253003E+01  0.51100000000E-03 0. -1.
        -11    1    3    3    0    0 -0.18889581877E+02 -0.12799047599E+02  0.94330264621E+00  0.22836850551E+02  0.51100000000E-03 0.  1.
        -12    1    3    3    0    0 -0.91251651791E+01 -0.20078164729E+02  0.12231868030E+01  0.22088402486E+02  0.00000000000E+00 0.  1.
</event>
<event>
 7    1  0.2387817E-009  0.4778727E+02  0.7816164E-02  0.1312668E+00
        -11   -1    0    0    0    0  0.00000000000E+00  0.00000000000E+00  0.45593999997E+02  0.45594000000E+02  0.51100000000E-03 0. -1.
         11   -1    0    0    0    0 -0.00000000000E+00 -0.00000000000E+00 -0.45593999997E+02  0.45594000000E+02  0.51100000000E-03 0.  1.
    9900012    2    1    2    0    0  0.27739795237E+02 -0.18091965225E+02 -0.28050094356E+02  0.47787271448E+02  0.20000001839E+02 0.  0.
         12    1    1    2    0    0 -0.27739795237E+02  0.18091965225E+02  0.28050094356E+02  0.43400728552E+02  0.00000000000E+00 0. -1.
         11    1    3    3    0    0  0.14930852175E+01  0.62173501834E+00 -0.40614554986E+01  0.43716448767E+01  0.51100000000E-03 0. -1.
        -11    1    3    3    0    0  0.23761961567E+02 -0.99585194779E+01 -0.22475148449E+02  0.34189694731E+02  0.51100000000E-03 0.  1.
         12    1    3    3    0    0  0.24847484527E+01 -0.87551807653E+01 -0.15134904076E+01  0.92259318402E+01  0.00000000000E+00 0. -1.
</event>
<event>
 7    1  0.2387817E-009  0.4778727E+02  0.7816164E-02  0.1312668E+00
        -11   -1    0    0    0    0  0.00000000000E+00  0.00000000000E+00  0.45593999997E+02  0.45594000000E+02  0.51100000000E-03 0.  1.
         11   -1    0    0    0    0 -0.00000000000E+00 -0.00000000000E+00 -0.45593999997E+02  0.45594000000E+02  0.51100000000E-03 0. -1.
    9900012    2    1    2    0    0  0.77719418153E+00  0.39850127814E+02  0.17175176792E+02  0.47787269413E+02  0.19999992562E+02 0.  0.
         12    1    1    2    0    0 -0.77719418153E+00 -0.39850127814E+02 -0.17175176792E+02  0.43400730587E+02  0.00000000000E+00 0. -1.
         11    1    3    3    0    0 -0.11564288159E+01  0.11331922489E+01  0.66609955245E+00  0.17507544528E+01  0.51100000000E-03 0. -1.
        -11    1    3    3    0    0 -0.60043037837E+01  0.27810727565E+02  0.63546024979E+01  0.29152516269E+02  0.51100000000E-03 0.  1.
         12    1    3    3    0    0  0.79379267811E+01  0.10906208001E+02  0.10154474742E+02  0.16883998692E+02  0.00000000000E+00 0. -1.
</event>
<event>
 7    1  0.2387817E-009  0.4778726E+02  0.7816164E-02  0.1312668E+00
        -11   -1    0    0    0    0  0.00000000000E+00  0.00000000000E+00  0.45593999997E+02  0.45594000000E+02  0.51100000000E-03 0. -1.
         11   -1    0    0    0    0 -0.00000000000E+00 -0.00000000000E+00 -0.45593999997E+02  0.45594000000E+02  0.51100000000E-03 0.  1.
    9900012    2    1    2    0    0  0.23287768310E+02 -0.33948829914E+02 -0.13739774077E+02  0.47787255801E+02  0.19999930497E+02 0.  0.
         12    1    1    2    0    0 -0.23287768310E+02  0.33948829914E+02  0.13739774077E+02  0.43400744199E+02  0.00000000000E+00 0. -1.
         11    1    3    3    0    0  0.48652848924E+01 -0.69033249041E+01 -0.68368729360E+01  0.10865989307E+02  0.51100000000E-03 0. -1.
        -11    1    3    3    0    0 -0.23727265068E+01 -0.39386154842E+01 -0.32286024626E+01  0.56183980930E+01  0.51100000000E-03 0.  1.
         12    1    3    3    0    0  0.20795209924E+02 -0.23106889526E+02 -0.36742986785E+01  0.31302868401E+02  0.00000000000E+00 0. -1.
</event>
<event>
 7    1  0.2387817E-009  0.4778727E+02  0.7816164E-02  0.1312668E+00
        -11   -1    0    0    0    0  0.00000000000E+00  0.00000000000E+00  0.45593999997E+02  0.45594000000E+02  0.51100000000E-03 0.  1.
         11   -1    0    0    0    0 -0.00000000000E+00 -0.00000000000E+00 -0.45593999997E+02  0.45594000000E+02  0.51100000000E-03 0. -1.
    9900012    2    1    2    0    0 -0.34722861275E+02  0.13882969815E+02  0.22027475114E+02  0.47787267220E+02  0.19999982562E+02 0.  0.
         12    1    1    2    0    0  0.34722861275E+02 -0.13882969815E+02 -0.22027475114E+02  0.43400732780E+02  0.00000000000E+00 0. -1.
         11    1    3    3    0    0 -0.60012025120E+01  0.13337289233E+00 -0.96923812688E+00  0.60804311299E+01  0.51100000000E-03 0. -1.
        -11    1    3    3    0    0 -0.20523384389E+02  0.99467497053E+01  0.79460552314E+01  0.24151333927E+02  0.51100000000E-03 0.  1.
        -12    1    3    3    0    0 -0.81982743739E+01  0.38028472169E+01  0.15050658009E+02  0.17555502163E+02  0.00000000000E+00 0.  1.
</event>
<event>
 7    1  0.2387817E-009  0.4778727E+02  0.7816164E-02  0.1312668E+00
        -11   -1    0    0    0    0  0.00000000000E+00  0.00000000000E+00  0.45593999997E+02  0.45594000000E+02  0.51100000000E-03 0. -1.
         11   -1    0    0    0    0 -0.00000000000E+00 -0.00000000000E+00 -0.45593999997E+02  0.45594000000E+02  0.51100000000E-03 0.  1.
    9900012    2    1    2    0    0 -0.61310509742E+01  0.37316897030E+02  0.21295134396E+02  0.47787270295E+02  0.19999996582E+02 0.  0.
         12    1    1    2    0    0  0.61310509742E+01 -0.37316897030E+02 -0.21295134396E+02  0.43400729705E+02  0.00000000000E+00 0. -1.
         11    1    3    3    0    0 -0.51981950233E+01  0.68208452367E+01  0.32128824890E+01  0.91579351053E+01  0.51100000000E-03 0.  1.
        -11    1    3    3    0    0  0.71141212593E+01  0.11879250542E+02  0.77429285529E+01  0.15864433730E+02  0.51100000000E-03 0. -1.
         12    1    3    3    0    0 -0.80469772102E+01  0.18616801251E+02  0.10339323354E+02  0.22764901460E+02  0.00000000000E+00 0. -1.
</event>
<event>
 7    1  0.2387817E-009  0.4778727E+02  0.7816164E-02  0.1312668E+00
        -11   -1    0    0    0    0  0.00000000000E+00  0.00000000000E+00  0.45593999997E+02  0.45594000000E+02  0.51100000000E-03 0. -1.
         11   -1    0    0    0    0 -0.00000000000E+00 -0.00000000000E+00 -0.45593999997E+02  0.45594000000E+02  0.51100000000E-03 0.  1.
    9900012    2    1    2    0    0 -0.33572813553E+02 -0.85650426867E+01 -0.26136745526E+02  0.47787271518E+02  0.20000002158E+02 0.  0.
         12    1    1    2    0    0  0.33572813553E+02  0.85650426867E+01  0.26136745526E+02  0.43400728482E+02  0.00000000000E+00 0. -1.
         11    1    3    3    0    0 -0.17228808974E+02 -0.54261682688E+01 -0.70261442208E+01  0.19381482493E+02  0.51100000000E-03 0. -1.
        -11    1    3    3    0    0 -0.65278761040E+01 -0.73242552520E+01 -0.59962204870E+01  0.11498371268E+02  0.51100000000E-03 0.  1.
        -12    1    3    3    0    0 -0.98161284751E+01  0.41853808342E+01 -0.13114380818E+02  0.16907417757E+02  0.00000000000E+00 0.  1.
</event>
<event>
 7    1  0.2387817E-009  0.4778727E+02  0.7816164E-02  0.1312668E+00
        -11   -1    0    0    0    0  0.00000000000E+00  0.00000000000E+00  0.45593999997E+02  0.45594000000E+02  0.51100000000E-03 0.  1.
         11   -1    0    0    0    0 -0.00000000000E+00 -0.00000000000E+00 -0.45593999997E+02  0.45594000000E+02  0.51100000000E-03 0. -1.
    9900012    2    1    2    0    0 -0.18793153851E+02  0.26373042826E+02  0.28894686906E+02  0.47787274765E+02  0.20000016961E+02 0.  0.
         12    1    1    2    0    0  0.18793153851E+02 -0.26373042826E+02 -0.28894686906E+02  0.43400725235E+02  0.00000000000E+00 0. -1.
         11    1    3    3    0    0 -0.11478262730E+02  0.17071384139E+02  0.79022927853E+01  0.22036989433E+02  0.51100000000E-03 0. -1.
        -11    1    3    3    0    0 -0.53064460412E+01  0.25684432454E+01  0.33974608763E+01  0.68042641747E+01  0.51100000000E-03 0.  1.
        -12    1    3    3    0    0 -0.20084450799E+01  0.67332154416E+01  0.17594933244E+02  0.18946021157E+02  0.00000000000E+00 0.  1.
</event>
<event>
 7    1  0.2387817E-009  0.4778728E+02  0.7816164E-02  0.1312668E+00
        -11   -1    0    0    0    0  0.00000000000E+00  0.00000000000E+00  0.45593999997E+02  0.45594000000E+02  0.51100000000E-03 0. -1.
         11   -1    0    0    0    0 -0.00000000000E+00 -0.00000000000E+00 -0.45593999997E+02  0.45594000000E+02  0.51100000000E-03 0.  1.
    9900012    2    1    2    0    0 -0.18364338067E+02 -0.37345975155E+02 -0.12314710726E+02  0.47787275660E+02  0.20000021046E+02 0.  0.
         12    1    1    2    0    0  0.18364338067E+02  0.37345975155E+02  0.12314710726E+02  0.43400724340E+02  0.00000000000E+00 0. -1.
         11    1    3    3    0    0 -0.77846566254E+00 -0.25276565536E+00 -0.15492034063E+01  0.17521217764E+01  0.51100000000E-03 0. -1.
        -11    1    3    3    0    0 -0.12379655646E+01 -0.23346687803E+02 -0.63105531119E+01  0.24216182006E+02  0.51100000000E-03 0.  1.
         12    1    3    3    0    0 -0.16347906840E+02 -0.13746521697E+02 -0.44549542078E+01  0.21818971878E+02  0.00000000000E+00 0. -1.
</event>
<event>
 7    1  0.2387817E-009  0.4778727E+02  0.7816164E-02  0.1312668E+00
        -11   -1    0    0    0    0  0.00000000000E+00  0.00000000000E+00  0.45593999997E+02  0.45594000000E+02  0.51100000000E-03 0.  1.
         11   -1    0    0    0    0 -0.00000000000E+00 -0.00000000000E+00 -0.45593999997E+02  0.45594000000E+02  0.51100000000E-03 0. -1.
    9900012    2    1    2    0    0 -0.29659683724E+02  0.14121881460E+02  0.28363691154E+02  0.47787270162E+02  0.19999995976E+02 0.  0.
         12    1    1    2    0    0  0.29659683724E+02 -0.14121881460E+02 -0.28363691154E+02  0.43400729838E+02  0.00000000000E+00 0. -1.
         11    1    3    3    0    0 -0.99891273964E+01 -0.27130224005E+01  0.25468248726E+01  0.10659712655E+02  0.51100000000E-03 0. -1.
        -11    1    3    3    0    0 -0.67063011469E+01  0.20838171086E+01  0.74636851150E+01  0.10248090777E+02  0.51100000000E-03 0.  1.
         12    1    3    3    0    0 -0.12964255181E+02  0.14751086752E+02  0.18353181167E+02  0.26879466730E+02  0.00000000000E+00 0. -1.
</event>
<event>
 7    1  0.2387817E-009  0.4778727E+02  0.7816164E-02  0.1312668E+00
        -11   -1    0    0    0    0  0.00000000000E+00  0.00000000000E+00  0.45593999997E+02  0.45594000000E+02  0.51100000000E-03 0.  1.
         11   -1    0    0    0    0 -0.00000000000E+00 -0.00000000000E+00 -0.45593999997E+02  0.45594000000E+02  0.51100000000E-03 0. -1.
    9900012    2    1    2    0    0  0.23635828558E+02 -0.56926591474E+01  0.35952251027E+02  0.47787272889E+02  0.20000008412E+02 0.  0.
         12    1    1    2    0    0 -0.23635828558E+02  0.56926591474E+01 -0.35952251027E+02  0.43400727111E+02  0.00000000000E+00 0. -1.
         11    1    3    3    0    0  0.75210782285E+01 -0.32189165943E+01  0.28750648336E+01  0.86714496953E+01  0.51100000000E-03 0. -1.
        -11    1    3    3    0    0  0.16575840176E+02 -0.48153835220E+01  0.22981526321E+02  0.28741902308E+02  0.51100000000E-03 0.  1.
        -12    1    3    3    0    0 -0.46108984617E+00  0.23416409689E+01  0.10095659873E+02  0.10373920886E+02  0.00000000000E+00 0.  1.
</event>
<event>
 7    1  0.2387817E-009  0.4778729E+02  0.7816164E-02  0.1312668E+00
        -11   -1    0    0    0    0  0.00000000000E+00  0.00000000000E+00  0.45593999997E+02  0.45594000000E+02  0.51100000000E-03 0.  1.
         11   -1    0    0    0    0 -0.00000000000E+00 -0.00000000000E+00 -0.45593999997E+02  0.45594000000E+02  0.51100000000E-03 0. -1.
    9900012    2    1    2    0    0  0.66922644750E+01 -0.35360689269E+01  0.42735601661E+02  0.47787287603E+02  0.20000075497E+02 0.  0.
         12    1    1    2    0    0 -0.66922644750E+01  0.35360689269E+01 -0.42735601661E+02  0.43400712397E+02  0.00000000000E+00 0. -1.
         11    1    3    3    0    0  0.12852400251E+01  0.31621830360E+01  0.21025591549E+02  0.21300862511E+02  0.51100000000E-03 0. -1.
        -11    1    3    3    0    0 -0.28486711952E+01 -0.26231601386E+00  0.11548667128E+02  0.11897707761E+02  0.51100000000E-03 0.  1.
         12    1    3    3    0    0  0.82556956451E+01 -0.64359359491E+01  0.10161342983E+02  0.14588717331E+02  0.00000000000E+00 0. -1.
</event>
<event>
 7    1  0.2387817E-009  0.4778727E+02  0.7816164E-02  0.1312668E+00
        -11   -1    0    0    0    0  0.00000000000E+00  0.00000000000E+00  0.45593999997E+02  0.45594000000E+02  0.51100000000E-03 0.  1.
         11   -1    0    0    0    0 -0.00000000000E+00 -0.00000000000E+00 -0.45593999997E+02  0.45594000000E+02  0.51100000000E-03 0. -1.
    9900012    2    1    2    0    0  0.13779675672E+02 -0.35255926285E+01  0.41003826582E+02  0.47787273515E+02  0.20000011267E+02 0.  0.
         12    1    1    2    0    0 -0.13779675672E+02  0.35255926285E+01 -0.41003826582E+02  0.43400726485E+02  0.00000000000E+00 0. -1.
         11    1    3    3    0    0 -0.17642489848E+01 -0.32784857883E+01  0.15098515120E+02  0.15550762124E+02  0.51100000000E-03 0. -1.
        -11    1    3    3    0    0 -0.23361772161E+00  0.20926283600E+01  0.79306312286E+01  0.82053996026E+01  0.51100000000E-03 0.  1.
        -12    1    3    3    0    0  0.15777542379E+02 -0.23397352002E+01  0.17974680233E+02  0.24031111789E+02  0.00000000000E+00 0.  1.
</event>
<event>
 7    1  0.2387817E-009  0.4778727E+02  0.7816164E-02  0.1312668E+00
        -11   -1    0    0    0    0  0.00000000000E+00  0.00000000000E+00  0.45593999997E+02  0.45594000000E+02  0.51100000000E-03 0.  1.
         11   -1    0    0    0    0 -0.00000000000E+00 -0.00000000000E+00 -0.45593999997E+02  0.45594000000E+02  0.51100000000E-03 0. -1.
    9900012    2    1    2    0    0  0.15795135820E+02  0.25454226052E+02  0.31404129564E+02  0.47787270823E+02  0.19999998989E+02 0.  0.
         12    1    1    2    0    0 -0.15795135820E+02 -0.25454226052E+02 -0.31404129564E+02  0.43400729177E+02  0.00000000000E+00 0. -1.
         11    1    3    3    0    0  0.12900607193E+02  0.15637224710E+02  0.19283975396E+02  0.27978923673E+02  0.51100000000E-03 0. -1.
        -11    1    3    3    0    0  0.65963846567E+01  0.18064703231E+01  0.50771685163E+01  0.85178204942E+01  0.51100000000E-03 0.  1.
         12    1    3    3    0    0 -0.37018560297E+01  0.80105310194E+01  0.70429856513E+01  0.11290526656E+02  0.00000000000E+00 0. -1.
</event>
<event>
 7    1  0.2387817E-009  0.4778727E+02  0.7816164E-02  0.1312668E+00
        -11   -1    0    0    0    0  0.00000000000E+00  0.00000000000E+00  0.45593999997E+02  0.45594000000E+02  0.51100000000E-03 0.  1.
         11   -1    0    0    0    0 -0.00000000000E+00 -0.00000000000E+00 -0.45593999997E+02  0.45594000000E+02  0.51100000000E-03 0. -1.
    9900012    2    1    2    0    0  0.32088775432E+02  0.28123938534E+02 -0.79358702789E+01  0.47787268848E+02  0.19999989987E+02 0.  0.
         12    1    1    2    0    0 -0.32088775432E+02 -0.28123938534E+02  0.79358702789E+01  0.43400731152E+02  0.00000000000E+00 0. -1.
         11    1    3    3    0    0  0.69483198380E+00 -0.11835899377E+01  0.25698298978E+01  0.29133661958E+01  0.51100000000E-03 0. -1.
        -11    1    3    3    0    0  0.61658657111E+01  0.62057207941E+01  0.94932686703E+00  0.87994370447E+01  0.51100000000E-03 0.  1.
        -12    1    3    3    0    0  0.25228077737E+02  0.23101807678E+02 -0.11455027044E+02  0.36074465608E+02  0.00000000000E+00 0.  1.
</event>
<event>
 7    1  0.2387817E-009  0.4778727E+02  0.7816164E-02  0.1312668E+00
        -11   -1    0    0    0    0  0.00000000000E+00  0.00000000000E+00  0.45593999997E+02  0.45594000000E+02  0.51100000000E-03 0.  1.
         11   -1    0    0    0    0 -0.00000000000E+00 -0.00000000000E+00 -0.45593999997E+02  0.45594000000E+02  0.51100000000E-03 0. -1.
    9900012    2    1    2    0    0 -0.41792495352E+02 -0.10915286215E+02  0.42269344964E+01  0.47787272862E+02  0.20000008286E+02 0.  0.
         12    1    1    2    0    0  0.41792495352E+02  0.10915286215E+02 -0.42269344964E+01  0.43400727138E+02  0.00000000000E+00 0. -1.
         11    1    3    3    0    0 -0.10219950326E+02  0.26032830644E+01  0.12726951531E+00  0.10547069032E+02  0.51100000000E-03 0. -1.
        -11    1    3    3    0    0 -0.11776817018E+02 -0.16596455546E+01 -0.43529816968E+01  0.12664765784E+02  0.51100000000E-03 0.  1.
         12    1    3    3    0    0 -0.19795728007E+02 -0.11858923725E+02  0.84526466779E+01  0.24575438045E+02  0.00000000000E+00 0. -1.
</event>
<event>
 7    1  0.2387817E-009  0.4778727E+02  0.7816164E-02  0.1312668E+00
        -11   -1    0    0    0    0  0.00000000000E+00  0.00000000000E+00  0.45593999997E+02  0.45594000000E+02  0.51100000000E-03 0. -1.
         11   -1    0    0    0    0 -0.00000000000E+00 -0.00000000000E+00 -0.45593999997E+02  0.45594000000E+02  0.51100000000E-03 0.  1.
    9900012    2    1    2    0    0  0.26093793132E+02 -0.34384982056E+02  0.45177372126E+01  0.47787274424E+02  0.20000015410E+02 0.  0.
         12    1    1    2    0    0 -0.26093793132E+02  0.34384982056E+02 -0.45177372126E+01  0.43400725576E+02  0.00000000000E+00 0. -1.
         11    1    3    3    0    0  0.47176074904E+01 -0.10591521381E+02 -0.41439334051E+01  0.12312933441E+02  0.51100000000E-03 0. -1.
        -11    1    3    3    0    0  0.49904968493E+01 -0.14932007527E+02  0.46859182948E+01  0.16426434127E+02  0.51100000000E-03 0.  1.
         12    1    3    3    0    0  0.16385688792E+02 -0.88614531477E+01  0.39757523228E+01  0.19047906856E+02  0.00000000000E+00 0. -1.
</event>
<event>
 7    1  0.2387817E-009  0.4778727E+02  0.7816164E-02  0.1312668E+00
        -11   -1    0    0    0    0  0.00000000000E+00  0.00000000000E+00  0.45593999997E+02  0.45594000000E+02  0.51100000000E-03 0.  1.
         11   -1    0    0    0    0 -0.00000000000E+00 -0.00000000000E+00 -0.45593999997E+02  0.45594000000E+02  0.51100000000E-03 0. -1.
    9900012    2    1    2    0    0  0.23242605234E+02  0.46081224063E+01  0.36361654179E+02  0.47787269766E+02  0.19999994171E+02 0.  0.
         12    1    1    2    0    0 -0.23242605234E+02 -0.46081224063E+01 -0.36361654179E+02  0.43400730234E+02  0.00000000000E+00 0. -1.
         11    1    3    3    0    0  0.11091630659E+02  0.10478391619E+01  0.19801408481E+02  0.22720431678E+02  0.51100000000E-03 0.  1.
        -11    1    3    3    0    0  0.11849800042E+02  0.79634357305E+01  0.13829814132E+02  0.19877067914E+02  0.51100000000E-03 0. -1.
         12    1    3    3    0    0  0.30117453361E+00 -0.44031524861E+01  0.27304315668E+01  0.51897701738E+01  0.00000000000E+00 0. -1.
</event>
<event>
 7    1  0.2387817E-009  0.4778727E+02  0.7816164E-02  0.1312668E+00
        -11   -1    0    0    0    0  0.00000000000E+00  0.00000000000E+00  0.45593999997E+02  0.45594000000E+02  0.51100000000E-03 0.  1.
         11   -1    0    0    0    0 -0.00000000000E+00 -0.00000000000E+00 -0.45593999997E+02  0.45594000000E+02  0.51100000000E-03 0. -1.
    9900012    2    1    2    0    0 -0.26007064566E+02  0.31109149996E+02  0.15475034698E+02  0.47787270517E+02  0.19999997594E+02 0.  0.
         12    1    1    2    0    0  0.26007064566E+02 -0.31109149996E+02 -0.15475034698E+02  0.43400729483E+02  0.00000000000E+00 0. -1.
         11    1    3    3    0    0 -0.95383823449E+00 -0.15987795669E+01 -0.63727880079E+00  0.19677469380E+01  0.51100000000E-03 0. -1.
        -11    1    3    3    0    0 -0.22218399060E+01 -0.23634162373E+00  0.28043976483E+01  0.35856765557E+01  0.51100000000E-03 0.  1.
        -12    1    3    3    0    0 -0.22831386425E+02  0.32944271186E+02  0.13307915850E+02  0.42233847023E+02  0.00000000000E+00 0.  1.
</event>
<event>
 7    1  0.2387817E-009  0.4778727E+02  0.7816164E-02  0.1312668E+00
        -11   -1    0    0    0    0  0.00000000000E+00  0.00000000000E+00  0.45593999997E+02  0.45594000000E+02  0.51100000000E-03 0.  1.
         11   -1    0    0    0    0 -0.00000000000E+00 -0.00000000000E+00 -0.45593999997E+02  0.45594000000E+02  0.51100000000E-03 0. -1.
    9900012    2    1    2    0    0 -0.19543385475E+02  0.34519819237E+02  0.17608560813E+02  0.47787271321E+02  0.20000001259E+02 0.  0.
         12    1    1    2    0    0  0.19543385475E+02 -0.34519819237E+02 -0.17608560813E+02  0.43400728679E+02  0.00000000000E+00 0. -1.
         11    1    3    3    0    0 -0.61473228889E+00  0.87369941718E+01  0.77749378261E+01  0.11711644693E+02  0.51100000000E-03 0. -1.
        -11    1    3    3    0    0 -0.12261698113E+02  0.24949222244E+02  0.93883579977E+01  0.29342021017E+02  0.51100000000E-03 0.  1.
         12    1    3    3    0    0 -0.66669550738E+01  0.83360282135E+00  0.44526498936E+00  0.67336056114E+01  0.00000000000E+00 0. -1.
</event>
<event>
 7    1  0.2387817E-009  0.4778727E+02  0.7816164E-02  0.1312668E+00
        -11   -1    0    0    0    0  0.00000000000E+00  0.00000000000E+00  0.45593999997E+02  0.45594000000E+02  0.51100000000E-03 0.  1.
         11   -1    0    0    0    0 -0.00000000000E+00 -0.00000000000E+00 -0.45593999997E+02  0.45594000000E+02  0.51100000000E-03 0. -1.
    9900012    2    1    2    0    0 -0.16168608953E+02  0.21685344519E+02  0.33940316410E+02  0.47787272352E+02  0.20000005961E+02 0.  0.
         12    1    1    2    0    0  0.16168608953E+02 -0.21685344519E+02 -0.33940316410E+02  0.43400727648E+02  0.00000000000E+00 0. -1.
         11    1    3    3    0    0 -0.22486057103E+01  0.74245909987E+01  0.45788720278E+01  0.90081545528E+01  0.51100000000E-03 0. -1.
        -11    1    3    3    0    0 -0.11063954617E+02  0.17681664321E+02  0.23622447688E+02  0.31513050947E+02  0.51100000000E-03 0.  1.
         12    1    3    3    0    0 -0.28560486258E+01 -0.34209108001E+01  0.57389966936E+01  0.72660668524E+01  0.00000000000E+00 0. -1.
</event>
<event>
 7    1  0.2387817E-009  0.4778721E+02  0.7816164E-02  0.1312668E+00
        -11   -1    0    0    0    0  0.00000000000E+00  0.00000000000E+00  0.45593999997E+02  0.45594000000E+02  0.51100000000E-03 0.  1.
         11   -1    0    0    0    0 -0.00000000000E+00 -0.00000000000E+00 -0.45593999997E+02  0.45594000000E+02  0.51100000000E-03 0. -1.
    9900012    2    1    2    0    0  0.21366675755E+02 -0.25578410353E+02  0.27799977018E+02  0.47787209325E+02  0.19999718594E+02 0.  0.
         12    1    1    2    0    0 -0.21366675755E+02  0.25578410353E+02 -0.27799977018E+02  0.43400790675E+02  0.00000000000E+00 0. -1.
         11    1    3    3    0    0  0.45330224465E+01 -0.48713404902E+01  0.92631942448E+00  0.67183568385E+01  0.51100000000E-03 0. -1.
        -11    1    3    3    0    0  0.32003056665E+01  0.13066955399E+01 -0.37785011449E+00  0.34773812796E+01  0.51100000000E-03 0.  1.
        -12    1    3    3    0    0  0.13633347642E+02 -0.22013765403E+02  0.27251507708E+02  0.37591471207E+02  0.00000000000E+00 0.  1.
</event>
<event>
 7    1  0.2387817E-009  0.4778725E+02  0.7816164E-02  0.1312668E+00
        -11   -1    0    0    0    0  0.00000000000E+00  0.00000000000E+00  0.45593999997E+02  0.45594000000E+02  0.51100000000E-03 0.  1.
         11   -1    0    0    0    0 -0.00000000000E+00 -0.00000000000E+00 -0.45593999997E+02  0.45594000000E+02  0.51100000000E-03 0. -1.
    9900012    2    1    2    0    0  0.56729593582E+01  0.22748860893E+02  0.36523027994E+02  0.47787254457E+02  0.19999924372E+02 0.  0.
         12    1    1    2    0    0 -0.56729593582E+01 -0.22748860893E+02 -0.36523027994E+02  0.43400745543E+02  0.00000000000E+00 0. -1.
         11    1    3    3    0    0 -0.23291808552E+01 -0.11884261600E+00  0.20591058599E+01  0.31111290920E+01  0.51100000000E-03 0. -1.
        -11    1    3    3    0    0  0.19660588377E+01  0.12568572804E+02  0.65324958919E+01  0.14300626298E+02  0.51100000000E-03 0.  1.
        -12    1    3    3    0    0  0.60360813758E+01  0.10299130705E+02  0.27931426242E+02  0.30375499067E+02  0.00000000000E+00 0.  1.
</event>
<event>
 7    1  0.2387817E-009  0.4778727E+02  0.7816164E-02  0.1312668E+00
        -11   -1    0    0    0    0  0.00000000000E+00  0.00000000000E+00  0.45593999997E+02  0.45594000000E+02  0.51100000000E-03 0.  1.
         11   -1    0    0    0    0 -0.00000000000E+00 -0.00000000000E+00 -0.45593999997E+02  0.45594000000E+02  0.51100000000E-03 0. -1.
    9900012    2    1    2    0    0  0.95234916509E+01 -0.18506358745E+02  0.38084656203E+02  0.47787271374E+02  0.20000001501E+02 0.  0.
         12    1    1    2    0    0 -0.95234916509E+01  0.18506358745E+02 -0.38084656203E+02  0.43400728626E+02  0.00000000000E+00 0. -1.
         11    1    3    3    0    0 -0.78824686820E+00 -0.29325614791E+01  0.28220877976E+01  0.41455312992E+01  0.51100000000E-03 0. -1.
        -11    1    3    3    0    0  0.39300939493E+01 -0.13436425408E+01  0.24119003940E+02  0.24474014077E+02  0.51100000000E-03 0.  1.
         12    1    3    3    0    0  0.63816445698E+01 -0.14230154725E+02  0.11143564465E+02  0.19167725997E+02  0.00000000000E+00 0. -1.
</event>
<event>
 7    1  0.2387817E-009  0.4778728E+02  0.7816164E-02  0.1312668E+00
        -11   -1    0    0    0    0  0.00000000000E+00  0.00000000000E+00  0.45593999997E+02  0.45594000000E+02  0.51100000000E-03 0.  1.
         11   -1    0    0    0    0 -0.00000000000E+00 -0.00000000000E+00 -0.45593999997E+02  0.45594000000E+02  0.51100000000E-03 0. -1.
    9900012    2    1    2    0    0  0.32378946644E+01 -0.77690213362E+01  0.42576764597E+02  0.47787279523E+02  0.20000038658E+02 0.  0.
         12    1    1    2    0    0 -0.32378946644E+01  0.77690213362E+01 -0.42576764597E+02  0.43400720477E+02  0.00000000000E+00 0. -1.
         11    1    3    3    0    0 -0.19448769696E+01  0.16845077509E+01  0.11265717897E+02  0.11555799963E+02  0.51100000000E-03 0. -1.
        -11    1    3    3    0    0  0.50577571720E+01 -0.74773137993E+01  0.32627736378E+02  0.33853512531E+02  0.51100000000E-03 0.  1.
         12    1    3    3    0    0  0.12501446202E+00 -0.19762152878E+01 -0.13166896789E+01  0.23779670287E+01  0.00000000000E+00 0. -1.
</event>
<event>
 7    1  0.2387817E-009  0.4778724E+02  0.7816164E-02  0.1312668E+00
        -11   -1    0    0    0    0  0.00000000000E+00  0.00000000000E+00  0.45593999997E+02  0.45594000000E+02  0.51100000000E-03 0.  1.
         11   -1    0    0    0    0 -0.00000000000E+00 -0.00000000000E+00 -0.45593999997E+02  0.45594000000E+02  0.51100000000E-03 0. -1.
    9900012    2    1    2    0    0 -0.15203098709E+02  0.13315911829E+01  0.40629033242E+02  0.47787243237E+02  0.19999873215E+02 0.  0.
         12    1    1    2    0    0  0.15203098709E+02 -0.13315911829E+01 -0.40629033242E+02  0.43400756763E+02  0.00000000000E+00 0. -1.
         11    1    3    3    0    0 -0.55506662185E+01  0.19626450231E+00 -0.23790824226E+00  0.55592279875E+01  0.51100000000E-03 0. -1.
        -11    1    3    3    0    0 -0.23246528982E+00  0.67917170195E+00  0.80745640196E+01  0.81064109617E+01  0.51100000000E-03 0.  1.
         12    1    3    3    0    0 -0.94199672007E+01  0.45615497869E+00  0.32792377464E+02  0.34121604288E+02  0.00000000000E+00 0. -1.
</event>
<event>
 7    1  0.2387817E-009  0.4778727E+02  0.7816164E-02  0.1312668E+00
        -11   -1    0    0    0    0  0.00000000000E+00  0.00000000000E+00  0.45593999997E+02  0.45594000000E+02  0.51100000000E-03 0. -1.
         11   -1    0    0    0    0 -0.00000000000E+00 -0.00000000000E+00 -0.45593999997E+02  0.45594000000E+02  0.51100000000E-03 0.  1.
    9900012    2    1    2    0    0 -0.29440149331E+02  0.30129886874E+02 -0.10444652178E+02  0.47787271494E+02  0.20000002052E+02 0.  0.
         12    1    1    2    0    0  0.29440149331E+02 -0.30129886874E+02  0.10444652178E+02  0.43400728506E+02  0.00000000000E+00 0. -1.
         11    1    3    3    0    0 -0.18068198502E+01  0.39041897720E+01 -0.35356198897E+01  0.55684741189E+01  0.51100000000E-03 0. -1.
        -11    1    3    3    0    0 -0.24345474347E+02  0.23396031983E+02 -0.11719754675E+02  0.35741139932E+02  0.51100000000E-03 0.  1.
         12    1    3    3    0    0 -0.32878551343E+01  0.28296651191E+01  0.48107223873E+01  0.64776574437E+01  0.00000000000E+00 0. -1.
</event>
<event>
 7    1  0.2387817E-009  0.4778727E+02  0.7816164E-02  0.1312668E+00
        -11   -1    0    0    0    0  0.00000000000E+00  0.00000000000E+00  0.45593999997E+02  0.45594000000E+02  0.51100000000E-03 0.  1.
         11   -1    0    0    0    0 -0.00000000000E+00 -0.00000000000E+00 -0.45593999997E+02  0.45594000000E+02  0.51100000000E-03 0. -1.
    9900012    2    1    2    0    0  0.28614200940E+01  0.17906853518E+02  0.39430702993E+02  0.47787268827E+02  0.19999989889E+02 0.  0.
         12    1    1    2    0    0 -0.28614200940E+01 -0.17906853518E+02 -0.39430702993E+02  0.43400731173E+02  0.00000000000E+00 0. -1.
         11    1    3    3    0    0  0.38703911873E+01  0.10534358924E+02  0.12031445110E+02  0.16453216025E+02  0.51100000000E-03 0. -1.
        -11    1    3    3    0    0  0.11534267565E+01  0.85324277161E+01  0.79131382285E+01  0.11694035783E+02  0.51100000000E-03 0.  1.
         12    1    3    3    0    0 -0.21623978497E+01 -0.11599331215E+01  0.19486119655E+02  0.19640017019E+02  0.00000000000E+00 0. -1.
</event>
<event>
 7    1  0.2387817E-009  0.4778727E+02  0.7816164E-02  0.1312668E+00
        -11   -1    0    0    0    0  0.00000000000E+00  0.00000000000E+00  0.45593999997E+02  0.45594000000E+02  0.51100000000E-03 0.  1.
         11   -1    0    0    0    0 -0.00000000000E+00 -0.00000000000E+00 -0.45593999997E+02  0.45594000000E+02  0.51100000000E-03 0. -1.
    9900012    2    1    2    0    0 -0.10310934794E+02  0.41688295112E+02  0.62764938543E+01  0.47787266126E+02  0.19999977577E+02 0.  0.
         12    1    1    2    0    0  0.10310934794E+02 -0.41688295112E+02 -0.62764938543E+01  0.43400733874E+02  0.00000000000E+00 0. -1.
         11    1    3    3    0    0 -0.72827276005E+01  0.16067135106E+02  0.65492556299E+01  0.18817111930E+02  0.51100000000E-03 0. -1.
        -11    1    3    3    0    0 -0.76123341368E+01  0.11998226360E+02 -0.24923339821E+01  0.14426253697E+02  0.51100000000E-03 0.  1.
         12    1    3    3    0    0  0.45841269433E+01  0.13622933646E+02  0.22195722065E+01  0.14543900499E+02  0.00000000000E+00 0. -1.
</event>
<event>
 7    1  0.2387817E-009  0.4778728E+02  0.7816164E-02  0.1312668E+00
        -11   -1    0    0    0    0  0.00000000000E+00  0.00000000000E+00  0.45593999997E+02  0.45594000000E+02  0.51100000000E-03 0.  1.
         11   -1    0    0    0    0 -0.00000000000E+00 -0.00000000000E+00 -0.45593999997E+02  0.45594000000E+02  0.51100000000E-03 0. -1.
    9900012    2    1    2    0    0  0.27236897577E+02  0.16061425757E+01  0.33751954342E+02  0.47787277592E+02  0.20000029854E+02 0.  0.
         12    1    1    2    0    0 -0.27236897577E+02 -0.16061425757E+01 -0.33751954342E+02  0.43400722408E+02  0.00000000000E+00 0. -1.
         11    1    3    3    0    0  0.35670941605E+01  0.38733795850E+00 -0.79949639634E+00  0.36760557929E+01  0.51100000000E-03 0. -1.
        -11    1    3    3    0    0  0.13422853028E+02 -0.27019882442E+01  0.92232159982E+01  0.16508829077E+02  0.51100000000E-03 0.  1.
        -12    1    3    3    0    0  0.10246950389E+02  0.39207928614E+01  0.25328234740E+02  0.27602392722E+02  0.00000000000E+00 0.  1.
</event>
<event>
 7    1  0.2387817E-009  0.4778728E+02  0.7816164E-02  0.1312668E+00
        -11   -1    0    0    0    0  0.00000000000E+00  0.00000000000E+00  0.45593999997E+02  0.45594000000E+02  0.51100000000E-03 0.  1.
         11   -1    0    0    0    0 -0.00000000000E+00 -0.00000000000E+00 -0.45593999997E+02  0.45594000000E+02  0.51100000000E-03 0. -1.
    9900012    2    1    2    0    0 -0.21402098838E+02 -0.11689096078E+02  0.35901783416E+02  0.47787275879E+02  0.20000022041E+02 0.  0.
         12    1    1    2    0    0  0.21402098838E+02  0.11689096078E+02 -0.35901783416E+02  0.43400724121E+02  0.00000000000E+00 0. -1.
         11    1    3    3    0    0 -0.11318566170E+02 -0.17230968116E+01  0.67606280490E+01  0.13296055605E+02  0.51100000000E-03 0. -1.
        -11    1    3    3    0    0 -0.55163081294E+01  0.17770596675E+01  0.10455736230E+02  0.11954497765E+02  0.51100000000E-03 0.  1.
        -12    1    3    3    0    0 -0.45672245385E+01 -0.11743058934E+02  0.18685419138E+02  0.22536722509E+02  0.00000000000E+00 0.  1.
</event>
<event>
 7    1  0.2387817E-009  0.4778727E+02  0.7816164E-02  0.1312668E+00
        -11   -1    0    0    0    0  0.00000000000E+00  0.00000000000E+00  0.45593999997E+02  0.45594000000E+02  0.51100000000E-03 0.  1.
         11   -1    0    0    0    0 -0.00000000000E+00 -0.00000000000E+00 -0.45593999997E+02  0.45594000000E+02  0.51100000000E-03 0. -1.
    9900012    2    1    2    0    0  0.35319793536E+02  0.24741340159E+02  0.48991024368E+01  0.47787274972E+02  0.20000017908E+02 0.  0.
         12    1    1    2    0    0 -0.35319793536E+02 -0.24741340159E+02 -0.48991024368E+01  0.43400725028E+02  0.00000000000E+00 0. -1.
         11    1    3    3    0    0  0.72898565214E+01  0.92847641143E+01 -0.32142790945E+00  0.11808986786E+02  0.51100000000E-03 0. -1.
        -11    1    3    3    0    0  0.17506986688E+02  0.13151836578E+02  0.10146193404E+02  0.24133185225E+02  0.51100000000E-03 0.  1.
         12    1    3    3    0    0  0.10522950327E+02  0.23047394660E+01 -0.49256630576E+01  0.11845102960E+02  0.00000000000E+00 0. -1.
</event>
<event>
 7    1  0.2387817E-009  0.4778723E+02  0.7816164E-02  0.1312668E+00
        -11   -1    0    0    0    0  0.00000000000E+00  0.00000000000E+00  0.45593999997E+02  0.45594000000E+02  0.51100000000E-03 0. -1.
         11   -1    0    0    0    0 -0.00000000000E+00 -0.00000000000E+00 -0.45593999997E+02  0.45594000000E+02  0.51100000000E-03 0.  1.
    9900012    2    1    2    0    0 -0.30509976545E+02  0.26949381472E+02 -0.15049891181E+02  0.47787227483E+02  0.19999801385E+02 0.  0.
         12    1    1    2    0    0  0.30509976545E+02 -0.26949381472E+02  0.15049891181E+02  0.43400772517E+02  0.00000000000E+00 0. -1.
         11    1    3    3    0    0 -0.99776954073E+00  0.81347157626E+00  0.19433202178E+01  0.23310456435E+01  0.51100000000E-03 0. -1.
        -11    1    3    3    0    0 -0.10169514413E+02  0.10939006423E+02  0.10151290386E+01  0.14970349767E+02  0.51100000000E-03 0.  1.
        -12    1    3    3    0    0 -0.19342692591E+02  0.15196903472E+02 -0.18008340438E+02  0.30485832073E+02  0.00000000000E+00 0.  1.
</event>
<event>
 7    1  0.2387817E-009  0.4778726E+02  0.7816164E-02  0.1312668E+00
        -11   -1    0    0    0    0  0.00000000000E+00  0.00000000000E+00  0.45593999997E+02  0.45594000000E+02  0.51100000000E-03 0.  1.
         11   -1    0    0    0    0 -0.00000000000E+00 -0.00000000000E+00 -0.45593999997E+02  0.45594000000E+02  0.51100000000E-03 0. -1.
    9900012    2    1    2    0    0  0.29880113334E+02  0.11747760367E+02  0.29202617291E+02  0.47787263795E+02  0.19999966946E+02 0.  0.
         12    1    1    2    0    0 -0.29880113334E+02 -0.11747760367E+02 -0.29202617291E+02  0.43400736205E+02  0.00000000000E+00 0. -1.
         11    1    3    3    0    0  0.31376673240E+01 -0.98487268993E+00  0.36015139280E+01  0.48770722043E+01  0.51100000000E-03 0.  1.
        -11    1    3    3    0    0  0.91743368030E+01  0.55716754275E+01  0.20697524514E+02  0.23315221297E+02  0.51100000000E-03 0. -1.
         12    1    3    3    0    0  0.17568109207E+02  0.71609576295E+01  0.49035788488E+01  0.19594970294E+02  0.00000000000E+00 0. -1.
</event>
<event>
 7    1  0.2387817E-009  0.4778727E+02  0.7816164E-02  0.1312668E+00
        -11   -1    0    0    0    0  0.00000000000E+00  0.00000000000E+00  0.45593999997E+02  0.45594000000E+02  0.51100000000E-03 0. -1.
         11   -1    0    0    0    0 -0.00000000000E+00 -0.00000000000E+00 -0.45593999997E+02  0.45594000000E+02  0.51100000000E-03 0.  1.
    9900012    2    1    2    0    0  0.45793699480E+00 -0.38756689036E+02 -0.19527741009E+02  0.47787270510E+02  0.19999997563E+02 0.  0.
         12    1    1    2    0    0 -0.45793699480E+00  0.38756689036E+02  0.19527741009E+02  0.43400729490E+02  0.00000000000E+00 0. -1.
         11    1    3    3    0    0  0.11703573629E+01 -0.11222081220E+01 -0.49446915528E+01  0.52037546291E+01  0.51100000000E-03 0. -1.
        -11    1    3    3    0    0  0.24713236604E+01 -0.50636178846E+01 -0.70079333959E+01  0.89921519926E+01  0.51100000000E-03 0.  1.
         12    1    3    3    0    0 -0.31837440286E+01 -0.32570863030E+02 -0.75751160601E+01  0.33591363888E+02  0.00000000000E+00 0. -1.
</event>
<event>
 7    1  0.2387817E-009  0.4778727E+02  0.7816164E-02  0.1312668E+00
        -11   -1    0    0    0    0  0.00000000000E+00  0.00000000000E+00  0.45593999997E+02  0.45594000000E+02  0.51100000000E-03 0. -1.
         11   -1    0    0    0    0 -0.00000000000E+00 -0.00000000000E+00 -0.45593999997E+02  0.45594000000E+02  0.51100000000E-03 0.  1.
    9900012    2    1    2    0    0  0.30547658961E+02  0.30196343414E+02 -0.62164730189E+01  0.47787272352E+02  0.20000005961E+02 0.  0.
         12    1    1    2    0    0 -0.30547658961E+02 -0.30196343414E+02  0.62164730189E+01  0.43400727648E+02  0.00000000000E+00 0. -1.
         11    1    3    3    0    0  0.23065257457E+02  0.13308135345E+02 -0.49965492235E+00  0.26633854832E+02  0.51100000000E-03 0. -1.
        -11    1    3    3    0    0  0.85734260190E+01  0.94202477262E+01 -0.26698661181E+01  0.13014333878E+02  0.51100000000E-03 0.  1.
        -12    1    3    3    0    0 -0.10910245148E+01  0.74679603427E+01 -0.30469519785E+01  0.81390836420E+01  0.00000000000E+00 0.  1.
</event>
<event>
 7    1  0.2387817E-009  0.4778726E+02  0.7816164E-02  0.1312668E+00
        -11   -1    0    0    0    0  0.00000000000E+00  0.00000000000E+00  0.45593999997E+02  0.45594000000E+02  0.51100000000E-03 0. -1.
         11   -1    0    0    0    0 -0.00000000000E+00 -0.00000000000E+00 -0.45593999997E+02  0.45594000000E+02  0.51100000000E-03 0.  1.
    9900012    2    1    2    0    0  0.78170360721E+01  0.28105078139E+01 -0.42598345866E+02  0.47787261785E+02  0.19999957782E+02 0.  0.
         12    1    1    2    0    0 -0.78170360721E+01 -0.28105078139E+01  0.42598345866E+02  0.43400738215E+02  0.00000000000E+00 0. -1.
         11    1    3    3    0    0  0.42093393631E+00  0.41561833056E+00  0.10857459430E+01  0.12364337787E+01  0.51100000000E-03 0. -1.
        -11    1    3    3    0    0 -0.42208268144E+00  0.61589871030E+01 -0.98741546148E+01  0.11645179498E+02  0.51100000000E-03 0.  1.
        -12    1    3    3    0    0  0.78181848173E+01 -0.37640976196E+01 -0.33809937194E+02  0.34905648508E+02  0.00000000000E+00 0.  1.
</event>
<event>
 7    1  0.2387817E-009  0.4778727E+02  0.7816164E-02  0.1312668E+00
        -11   -1    0    0    0    0  0.00000000000E+00  0.00000000000E+00  0.45593999997E+02  0.45594000000E+02  0.51100000000E-03 0.  1.
         11   -1    0    0    0    0 -0.00000000000E+00 -0.00000000000E+00 -0.45593999997E+02  0.45594000000E+02  0.51100000000E-03 0. -1.
    9900012    2    1    2    0    0  0.15100693283E+02  0.97398696296E+01  0.39506039135E+02  0.47787272746E+02  0.20000007760E+02 0.  0.
         12    1    1    2    0    0 -0.15100693283E+02 -0.97398696296E+01 -0.39506039135E+02  0.43400727254E+02  0.00000000000E+00 0. -1.
         11    1    3    3    0    0 -0.12452975133E+00 -0.44984921191E+00  0.99031392243E+01  0.99141332818E+01  0.51100000000E-03 0. -1.
        -11    1    3    3    0    0  0.25640204101E+01  0.33188771149E+00  0.17715928441E+02  0.17903588213E+02  0.51100000000E-03 0.  1.
        -12    1    3    3    0    0  0.12661202624E+02  0.98578311300E+01  0.11886971469E+02  0.19969551252E+02  0.00000000000E+00 0.  1.
</event>
<event>
 7    1  0.2387817E-009  0.4778727E+02  0.7816164E-02  0.1312668E+00
        -11   -1    0    0    0    0  0.00000000000E+00  0.00000000000E+00  0.45593999997E+02  0.45594000000E+02  0.51100000000E-03 0.  1.
         11   -1    0    0    0    0 -0.00000000000E+00 -0.00000000000E+00 -0.45593999997E+02  0.45594000000E+02  0.51100000000E-03 0. -1.
    9900012    2    1    2    0    0  0.88772677743E+01  0.73340049853E+01  0.41845304901E+02  0.47787273572E+02  0.20000011522E+02 0.  0.
         12    1    1    2    0    0 -0.88772677743E+01 -0.73340049853E+01 -0.41845304901E+02  0.43400726428E+02  0.00000000000E+00 0. -1.
         11    1    3    3    0    0  0.27037667120E+01 -0.79717144015E+00  0.12432644212E+02  0.12748195131E+02  0.51100000000E-03 0.  1.
        -11    1    3    3    0    0  0.49509053260E+01 -0.31283355660E+01  0.36601696048E+01  0.69061413798E+01  0.51100000000E-03 0. -1.
         12    1    3    3    0    0  0.12225957363E+01  0.11259511991E+02  0.25752491085E+02  0.28132937061E+02  0.00000000000E+00 0. -1.
</event>
<event>
 7    1  0.2387817E-009  0.4778728E+02  0.7816164E-02  0.1312668E+00
        -11   -1    0    0    0    0  0.00000000000E+00  0.00000000000E+00  0.45593999997E+02  0.45594000000E+02  0.51100000000E-03 0.  1.
         11   -1    0    0    0    0 -0.00000000000E+00 -0.00000000000E+00 -0.45593999997E+02  0.45594000000E+02  0.51100000000E-03 0. -1.
    9900012    2    1    2    0    0 -0.19083444179E+02  0.27196661452E+02  0.27924652327E+02  0.47787280612E+02  0.20000043621E+02 0.  0.
         12    1    1    2    0    0  0.19083444179E+02 -0.27196661452E+02 -0.27924652327E+02  0.43400719388E+02  0.00000000000E+00 0. -1.
         11    1    3    3    0    0 -0.36841768059E+01  0.82735477789E+01  0.12612200604E+02  0.15527148995E+02  0.51100000000E-03 0. -1.
        -11    1    3    3    0    0 -0.22590015737E+01 -0.22530643815E+01  0.33146942002E+01  0.46007157181E+01  0.51100000000E-03 0.  1.
         12    1    3    3    0    0 -0.13140265800E+02  0.21176178054E+02  0.11997757522E+02  0.27659415898E+02  0.00000000000E+00 0. -1.
</event>
<event>
 7    1  0.2387817E-009  0.4778727E+02  0.7816164E-02  0.1312668E+00
        -11   -1    0    0    0    0  0.00000000000E+00  0.00000000000E+00  0.45593999997E+02  0.45594000000E+02  0.51100000000E-03 0. -1.
         11   -1    0    0    0    0 -0.00000000000E+00 -0.00000000000E+00 -0.45593999997E+02  0.45594000000E+02  0.51100000000E-03 0.  1.
    9900012    2    1    2    0    0 -0.26596624406E+02  0.34287783342E+02  0.76867572685E+00  0.47787269837E+02  0.19999994495E+02 0.  0.
         12    1    1    2    0    0  0.26596624406E+02 -0.34287783342E+02 -0.76867572685E+00  0.43400730163E+02  0.00000000000E+00 0. -1.
         11    1    3    3    0    0 -0.66683049329E+01  0.77170464533E+01  0.46265966620E+00  0.10209463789E+02  0.51100000000E-03 0.  1.
        -11    1    3    3    0    0 -0.19640364344E+02  0.14519951011E+02 -0.40546063114E+01  0.24759093714E+02  0.51100000000E-03 0. -1.
         12    1    3    3    0    0 -0.28795512920E+00  0.12050785877E+02  0.43606223720E+01  0.12818712334E+02  0.00000000000E+00 0. -1.
</event>
<event>
 7    1  0.2387817E-009  0.4778728E+02  0.7816164E-02  0.1312668E+00
        -11   -1    0    0    0    0  0.00000000000E+00  0.00000000000E+00  0.45593999997E+02  0.45594000000E+02  0.51100000000E-03 0. -1.
         11   -1    0    0    0    0 -0.00000000000E+00 -0.00000000000E+00 -0.45593999997E+02  0.45594000000E+02  0.51100000000E-03 0.  1.
    9900012    2    1    2    0    0  0.28172163347E+02  0.32709931576E+02 -0.44734470994E+01  0.47787284104E+02  0.20000059542E+02 0.  0.
         12    1    1    2    0    0 -0.28172163347E+02 -0.32709931576E+02  0.44734470994E+01  0.43400715896E+02  0.00000000000E+00 0. -1.
         11    1    3    3    0    0  0.84148226801E+01  0.62339960771E+01  0.18182674399E+01  0.10629113066E+02  0.51100000000E-03 0.  1.
        -11    1    3    3    0    0  0.29915371149E+01 -0.14701577004E+01  0.14921046505E+01  0.36519904878E+01  0.51100000000E-03 0. -1.
         12    1    3    3    0    0  0.16765803552E+02  0.27946093199E+02 -0.77838191898E+01  0.33506180550E+02  0.00000000000E+00 0. -1.
</event>
<event>
 7    1  0.2387817E-009  0.4778727E+02  0.7816164E-02  0.1312668E+00
        -11   -1    0    0    0    0  0.00000000000E+00  0.00000000000E+00  0.45593999997E+02  0.45594000000E+02  0.51100000000E-03 0.  1.
         11   -1    0    0    0    0 -0.00000000000E+00 -0.00000000000E+00 -0.45593999997E+02  0.45594000000E+02  0.51100000000E-03 0. -1.
    9900012    2    1    2    0    0  0.16288220088E+02  0.36982054714E+02  0.15831766954E+02  0.47787270405E+02  0.19999997083E+02 0.  0.
         12    1    1    2    0    0 -0.16288220088E+02 -0.36982054714E+02 -0.15831766954E+02  0.43400729595E+02  0.00000000000E+00 0. -1.
         11    1    3    3    0    0 -0.11449157915E+01  0.14032034413E+01  0.32540110112E+01  0.37240300736E+01  0.51100000000E-03 0. -1.
        -11    1    3    3    0    0  0.94534872057E+01  0.73690998454E+01 -0.42176729111E+00  0.11993745903E+02  0.51100000000E-03 0.  1.
        -12    1    3    3    0    0  0.79796486740E+01  0.28209751427E+02  0.12999523234E+02  0.32069494428E+02  0.00000000000E+00 0.  1.
</event>
<event>
 7    1  0.2387817E-009  0.4778727E+02  0.7816164E-02  0.1312668E+00
        -11   -1    0    0    0    0  0.00000000000E+00  0.00000000000E+00  0.45593999997E+02  0.45594000000E+02  0.51100000000E-03 0.  1.
         11   -1    0    0    0    0 -0.00000000000E+00 -0.00000000000E+00 -0.45593999997E+02  0.45594000000E+02  0.51100000000E-03 0. -1.
    9900012    2    1    2    0    0 -0.41122454578E+00 -0.38523955664E+02  0.19983968699E+02  0.47787271082E+02  0.20000000173E+02 0.  0.
         12    1    1    2    0    0  0.41122454578E+00  0.38523955664E+02 -0.19983968699E+02  0.43400728918E+02  0.00000000000E+00 0. -1.
         11    1    3    3    0    0 -0.14983880594E+01 -0.45287901492E+01  0.34855136944E+01  0.59079533653E+01  0.51100000000E-03 0. -1.
        -11    1    3    3    0    0 -0.71396785004E+01 -0.82547563035E+01  0.80657578117E+01  0.13571015439E+02  0.51100000000E-03 0.  1.
         12    1    3    3    0    0  0.82268420141E+01 -0.25740409211E+02  0.84326971928E+01  0.28308302278E+02  0.00000000000E+00 0. -1.
</event>
<event>
 7    1  0.2387817E-009  0.4778727E+02  0.7816164E-02  0.1312668E+00
        -11   -1    0    0    0    0  0.00000000000E+00  0.00000000000E+00  0.45593999997E+02  0.45594000000E+02  0.51100000000E-03 0.  1.
         11   -1    0    0    0    0 -0.00000000000E+00 -0.00000000000E+00 -0.45593999997E+02  0.45594000000E+02  0.51100000000E-03 0. -1.
    9900012    2    1    2    0    0  0.25235853349E+02  0.27266952572E+02 -0.22434087629E+02  0.47787270921E+02  0.19999999438E+02 0.  0.
         12    1    1    2    0    0 -0.25235853349E+02 -0.27266952572E+02  0.22434087629E+02  0.43400729079E+02  0.00000000000E+00 0. -1.
         11    1    3    3    0    0  0.16078438852E+02  0.17737668473E+02 -0.16192509234E+02  0.28902221962E+02  0.51100000000E-03 0. -1.
        -11    1    3    3    0    0  0.90944695682E+01  0.22105812770E+01 -0.67637333881E+01  0.11547473140E+02  0.51100000000E-03 0.  1.
         12    1    3    3    0    0  0.62944928539E-01  0.73187028229E+01  0.52215499339E+00  0.73375758198E+01  0.00000000000E+00 0. -1.
</event>
<event>
 7    1  0.2387817E-009  0.4778726E+02  0.7816164E-02  0.1312668E+00
        -11   -1    0    0    0    0  0.00000000000E+00  0.00000000000E+00  0.45593999997E+02  0.45594000000E+02  0.51100000000E-03 0.  1.
         11   -1    0    0    0    0 -0.00000000000E+00 -0.00000000000E+00 -0.45593999997E+02  0.45594000000E+02  0.51100000000E-03 0. -1.
    9900012    2    1    2    0    0  0.56503574339E+00  0.20098347150E+02  0.38462465971E+02  0.47787261387E+02  0.19999955969E+02 0.  0.
         12    1    1    2    0    0 -0.56503574339E+00 -0.20098347150E+02 -0.38462465971E+02  0.43400738613E+02  0.00000000000E+00 0. -1.
         11    1    3    3    0    0  0.54821089762E+01  0.11957077296E+02  0.71918416922E+01  0.14991591092E+02  0.51100000000E-03 0. -1.
        -11    1    3    3    0    0  0.10422904068E+00  0.15596130384E+01  0.61812406993E+01  0.63758131534E+01  0.51100000000E-03 0.  1.
         12    1    3    3    0    0 -0.50213022735E+01  0.65816568148E+01  0.25089383580E+02  0.26419857141E+02  0.00000000000E+00 0. -1.
</event>
<event>
 7    1  0.2387817E-009  0.4778727E+02  0.7816164E-02  0.1312668E+00
        -11   -1    0    0    0    0  0.00000000000E+00  0.00000000000E+00  0.45593999997E+02  0.45594000000E+02  0.51100000000E-03 0.  1.
         11   -1    0    0    0    0 -0.00000000000E+00 -0.00000000000E+00 -0.45593999997E+02  0.45594000000E+02  0.51100000000E-03 0. -1.
    9900012    2    1    2    0    0  0.37341094739E+02  0.17012747711E+02 -0.14136201533E+02  0.47787272647E+02  0.20000007306E+02 0.  0.
         12    1    1    2    0    0 -0.37341094739E+02 -0.17012747711E+02  0.14136201533E+02  0.43400727353E+02  0.00000000000E+00 0. -1.
         11    1    3    3    0    0  0.54401635454E+01  0.45009131016E+01  0.19697935198E+01  0.73303263857E+01  0.51100000000E-03 0. -1.
        -11    1    3    3    0    0  0.28492350868E+02  0.13240877213E+02 -0.92275510935E+01  0.32745726237E+02  0.51100000000E-03 0.  1.
         12    1    3    3    0    0  0.34085803254E+01 -0.72904260282E+00 -0.68784439595E+01  0.77112200238E+01  0.00000000000E+00 0. -1.
</event>
<event>
 7    1  0.2387817E-009  0.4778730E+02  0.7816164E-02  0.1312668E+00
        -11   -1    0    0    0    0  0.00000000000E+00  0.00000000000E+00  0.45593999997E+02  0.45594000000E+02  0.51100000000E-03 0.  1.
         11   -1    0    0    0    0 -0.00000000000E+00 -0.00000000000E+00 -0.45593999997E+02  0.45594000000E+02  0.51100000000E-03 0. -1.
    9900012    2    1    2    0    0  0.56824710383E-01  0.10064375525E+02  0.42217604865E+02  0.47787296731E+02  0.20000117114E+02 0.  0.
         12    1    1    2    0    0 -0.56824710383E-01 -0.10064375525E+02 -0.42217604865E+02  0.43400703269E+02  0.00000000000E+00 0. -1.
         11    1    3    3    0    0 -0.25735730232E+01  0.76385821663E+01  0.16695934685E+02  0.18539834165E+02  0.51100000000E-03 0.  1.
        -11    1    3    3    0    0 -0.90832733623E+00  0.68574726139E+01  0.68562754033E+01  0.97395329388E+01  0.51100000000E-03 0. -1.
        -12    1    3    3    0    0  0.35387250699E+01 -0.44316792556E+01  0.18665394777E+02  0.19507929627E+02  0.00000000000E+00 0.  1.
</event>
<event>
 7    1  0.2387817E-009  0.4778731E+02  0.7816164E-02  0.1312668E+00
        -11   -1    0    0    0    0  0.00000000000E+00  0.00000000000E+00  0.45593999997E+02  0.45594000000E+02  0.51100000000E-03 0. -1.
         11   -1    0    0    0    0 -0.00000000000E+00 -0.00000000000E+00 -0.45593999997E+02  0.45594000000E+02  0.51100000000E-03 0.  1.
    9900012    2    1    2    0    0  0.32115831086E+02 -0.27005507075E+02 -0.11085838711E+02  0.47787310620E+02  0.20000180440E+02 0.  0.
         12    1    1    2    0    0 -0.32115831086E+02  0.27005507075E+02  0.11085838711E+02  0.43400689380E+02  0.00000000000E+00 0. -1.
         11    1    3    3    0    0  0.40925069718E+01 -0.20038373413E+01 -0.56396884772E+01  0.72505216216E+01  0.51100000000E-03 0. -1.
        -11    1    3    3    0    0  0.26872295532E+01 -0.22282007005E+01  0.38772384508E+01  0.52171888311E+01  0.51100000000E-03 0.  1.
        -12    1    3    3    0    0  0.25336094561E+02 -0.22773469033E+02 -0.93233886842E+01  0.35319600167E+02  0.00000000000E+00 0.  1.
</event>
<event>
 7    1  0.2387817E-009  0.4778727E+02  0.7816164E-02  0.1312668E+00
        -11   -1    0    0    0    0  0.00000000000E+00  0.00000000000E+00  0.45593999997E+02  0.45594000000E+02  0.51100000000E-03 0. -1.
         11   -1    0    0    0    0 -0.00000000000E+00 -0.00000000000E+00 -0.45593999997E+02  0.45594000000E+02  0.51100000000E-03 0.  1.
    9900012    2    1    2    0    0  0.81340016356E-01 -0.57651046726E+01 -0.43016047448E+02  0.47787269751E+02  0.19999994105E+02 0.  0.
         12    1    1    2    0    0 -0.81340016356E-01  0.57651046726E+01  0.43016047448E+02  0.43400730249E+02  0.00000000000E+00 0. -1.
         11    1    3    3    0    0  0.36330551554E+01  0.19645633413E+01 -0.12989388501E+01  0.43296467849E+01  0.51100000000E-03 0. -1.
        -11    1    3    3    0    0  0.17006112477E+01  0.65228836903E+00 -0.31160618329E+01  0.36093490189E+01  0.51100000000E-03 0.  1.
        -12    1    3    3    0    0 -0.52523263868E+01 -0.83819563829E+01 -0.38601046765E+02  0.39848273948E+02  0.00000000000E+00 0.  1.
</event>
<event>
 7    1  0.2387817E-009  0.4778727E+02  0.7816164E-02  0.1312668E+00
        -11   -1    0    0    0    0  0.00000000000E+00  0.00000000000E+00  0.45593999997E+02  0.45594000000E+02  0.51100000000E-03 0.  1.
         11   -1    0    0    0    0 -0.00000000000E+00 -0.00000000000E+00 -0.45593999997E+02  0.45594000000E+02  0.51100000000E-03 0. -1.
    9900012    2    1    2    0    0  0.12771958627E+02 -0.39510333699E+02 -0.12626724283E+02  0.47787267721E+02  0.19999984849E+02 0.  0.
         12    1    1    2    0    0 -0.12771958627E+02  0.39510333699E+02  0.12626724283E+02  0.43400732279E+02  0.00000000000E+00 0. -1.
         11    1    3    3    0    0  0.74162906873E+01 -0.19384709062E+02 -0.54130389397E+00  0.20762016356E+02  0.51100000000E-03 0. -1.
        -11    1    3    3    0    0 -0.18392325605E+01 -0.13966863117E+02 -0.41965692115E+01  0.14699225665E+02  0.51100000000E-03 0.  1.
         12    1    3    3    0    0  0.71949005003E+01 -0.61587615197E+01 -0.78888511780E+01  0.12326025701E+02  0.00000000000E+00 0. -1.
</event>
<event>
 7    1  0.2387817E-009  0.4778727E+02  0.7816164E-02  0.1312668E+00
        -11   -1    0    0    0    0  0.00000000000E+00  0.00000000000E+00  0.45593999997E+02  0.45594000000E+02  0.51100000000E-03 0.  1.
         11   -1    0    0    0    0 -0.00000000000E+00 -0.00000000000E+00 -0.45593999997E+02  0.45594000000E+02  0.51100000000E-03 0. -1.
    9900012    2    1    2    0    0  0.18883733116E+02  0.23368512680E+02  0.31319972240E+02  0.47787269334E+02  0.19999992202E+02 0.  0.
         12    1    1    2    0    0 -0.18883733116E+02 -0.23368512680E+02 -0.31319972240E+02  0.43400730666E+02  0.00000000000E+00 0. -1.
         11    1    3    3    0    0  0.12496553992E+02  0.14836162167E+02  0.19414953477E+02  0.27444780711E+02  0.51100000000E-03 0. -1.
        -11    1    3    3    0    0  0.80677786309E+01  0.87591737862E+01  0.44752440307E+01  0.12721634598E+02  0.51100000000E-03 0.  1.
         12    1    3    3    0    0 -0.16805995072E+01 -0.22682327289E+00  0.74297747321E+01  0.76208540251E+01  0.00000000000E+00 0. -1.
</event>
<event>
 7    1  0.2387817E-009  0.4778727E+02  0.7816164E-02  0.1312668E+00
        -11   -1    0    0    0    0  0.00000000000E+00  0.00000000000E+00  0.45593999997E+02  0.45594000000E+02  0.51100000000E-03 0.  1.
         11   -1    0    0    0    0 -0.00000000000E+00 -0.00000000000E+00 -0.45593999997E+02  0.45594000000E+02  0.51100000000E-03 0. -1.
    9900012    2    1    2    0    0 -0.53739801305E+01  0.39264279506E+02  0.17693506615E+02  0.47787268624E+02  0.19999988966E+02 0.  0.
         12    1    1    2    0    0  0.53739801305E+01 -0.39264279506E+02 -0.17693506615E+02  0.43400731376E+02  0.00000000000E+00 0. -1.
         11    1    3    3    0    0 -0.59878060820E+01  0.33665782029E+02  0.19015493179E+02  0.39125793057E+02  0.51100000000E-03 0. -1.
        -11    1    3    3    0    0 -0.11603048313E+01 -0.48392424959E+00  0.12964048855E+01  0.18058670685E+01  0.51100000000E-03 0.  1.
         12    1    3    3    0    0  0.17741307828E+01  0.60824217272E+01 -0.26183914490E+01  0.68556084984E+01  0.00000000000E+00 0. -1.
</event>
<event>
 7    1  0.2387817E-009  0.4778727E+02  0.7816164E-02  0.1312668E+00
        -11   -1    0    0    0    0  0.00000000000E+00  0.00000000000E+00  0.45593999997E+02  0.45594000000E+02  0.51100000000E-03 0.  1.
         11   -1    0    0    0    0 -0.00000000000E+00 -0.00000000000E+00 -0.45593999997E+02  0.45594000000E+02  0.51100000000E-03 0. -1.
    9900012    2    1    2    0    0 -0.20237490545E+02  0.26916791495E+02  0.27377971344E+02  0.47787274167E+02  0.20000014238E+02 0.  0.
         12    1    1    2    0    0  0.20237490545E+02 -0.26916791495E+02 -0.27377971344E+02  0.43400725833E+02  0.00000000000E+00 0. -1.
         11    1    3    3    0    0  0.19291350719E+01 -0.27261721780E+00  0.13759019877E+01  0.23851601233E+01  0.51100000000E-03 0.  1.
        -11    1    3    3    0    0 -0.65305035288E+01  0.11658935382E+01  0.28414116810E+01  0.72166754592E+01  0.51100000000E-03 0. -1.
        -12    1    3    3    0    0 -0.15636122088E+02  0.26023515174E+02  0.23160657675E+02  0.38185438585E+02  0.00000000000E+00 0.  1.
</event>
<event>
 7    1  0.2387817E-009  0.4778726E+02  0.7816164E-02  0.1312668E+00
        -11   -1    0    0    0    0  0.00000000000E+00  0.00000000000E+00  0.45593999997E+02  0.45594000000E+02  0.51100000000E-03 0. -1.
         11   -1    0    0    0    0 -0.00000000000E+00 -0.00000000000E+00 -0.45593999997E+02  0.45594000000E+02  0.51100000000E-03 0.  1.
    9900012    2    1    2    0    0  0.30609867116E+02 -0.13139280015E+02 -0.27821214717E+02  0.47787255392E+02  0.19999928636E+02 0.  0.
         12    1    1    2    0    0 -0.30609867116E+02  0.13139280015E+02  0.27821214717E+02  0.43400744608E+02  0.00000000000E+00 0. -1.
         11    1    3    3    0    0 -0.11317750936E+01 -0.53765524790E-01 -0.28464938722E+01  0.30637123265E+01  0.51100000000E-03 0. -1.
        -11    1    3    3    0    0  0.69070589018E+01 -0.83516748169E+01 -0.30488220068E+01  0.11258474622E+02  0.51100000000E-03 0.  1.
        -12    1    3    3    0    0  0.24834583308E+02 -0.47338396731E+01 -0.21925898838E+02  0.33465068444E+02  0.00000000000E+00 0.  1.
</event>
<event>
 7    1  0.2387817E-009  0.4778727E+02  0.7816164E-02  0.1312668E+00
        -11   -1    0    0    0    0  0.00000000000E+00  0.00000000000E+00  0.45593999997E+02  0.45594000000E+02  0.51100000000E-03 0. -1.
         11   -1    0    0    0    0 -0.00000000000E+00 -0.00000000000E+00 -0.45593999997E+02  0.45594000000E+02  0.51100000000E-03 0.  1.
    9900012    2    1    2    0    0  0.34957805515E+02 -0.25274518972E+02 -0.47721968575E+01  0.47787270299E+02  0.19999996602E+02 0.  0.
         12    1    1    2    0    0 -0.34957805515E+02  0.25274518972E+02  0.47721968575E+01  0.43400729701E+02  0.00000000000E+00 0. -1.
         11    1    3    3    0    0  0.23834406022E+00  0.81814509188E+00  0.11119482966E+00  0.85937991231E+00  0.51100000000E-03 0. -1.
        -11    1    3    3    0    0  0.21279007088E+02 -0.15265617344E+02 -0.11289775002E+02  0.28518314035E+02  0.51100000000E-03 0.  1.
        -12    1    3    3    0    0  0.13440454367E+02 -0.10827046720E+02  0.64063833152E+01  0.18409576352E+02  0.00000000000E+00 0.  1.
</event>
<event>
 7    1  0.2387817E-009  0.4778727E+02  0.7816164E-02  0.1312668E+00
        -11   -1    0    0    0    0  0.00000000000E+00  0.00000000000E+00  0.45593999997E+02  0.45594000000E+02  0.51100000000E-03 0.  1.
         11   -1    0    0    0    0 -0.00000000000E+00 -0.00000000000E+00 -0.45593999997E+02  0.45594000000E+02  0.51100000000E-03 0. -1.
    9900012    2    1    2    0    0  0.66485305845E+00 -0.41687659730E+02  0.12054894271E+02  0.47787268679E+02  0.19999989213E+02 0.  0.
         12    1    1    2    0    0 -0.66485305845E+00  0.41687659730E+02 -0.12054894271E+02  0.43400731321E+02  0.00000000000E+00 0. -1.
         11    1    3    3    0    0  0.54918460950E+01 -0.46211867377E+01  0.25728028288E+01  0.76246347488E+01  0.51100000000E-03 0. -1.
        -11    1    3    3    0    0 -0.11224164546E+01 -0.17897579378E+02  0.10190989524E+02  0.20626183215E+02  0.51100000000E-03 0.  1.
         12    1    3    3    0    0 -0.37045765819E+01 -0.19168893614E+02 -0.70889808120E+00  0.19536450715E+02  0.00000000000E+00 0. -1.
</event>
<event>
 7    1  0.2387817E-009  0.4778727E+02  0.7816164E-02  0.1312668E+00
        -11   -1    0    0    0    0  0.00000000000E+00  0.00000000000E+00  0.45593999997E+02  0.45594000000E+02  0.51100000000E-03 0. -1.
         11   -1    0    0    0    0 -0.00000000000E+00 -0.00000000000E+00 -0.45593999997E+02  0.45594000000E+02  0.51100000000E-03 0.  1.
    9900012    2    1    2    0    0  0.43325600934E+02  0.14873928089E+01 -0.20744007154E+01  0.47787272218E+02  0.20000005351E+02 0.  0.
         12    1    1    2    0    0 -0.43325600934E+02 -0.14873928089E+01  0.20744007154E+01  0.43400727782E+02  0.00000000000E+00 0. -1.
         11    1    3    3    0    0  0.13424233678E+01 -0.28766897508E+00  0.18635021318E+01  0.23146261888E+01  0.51100000000E-03 0. -1.
        -11    1    3    3    0    0  0.34404124058E+02  0.79890776773E+01 -0.47534098048E+01  0.35637957564E+02  0.51100000000E-03 0.  1.
         12    1    3    3    0    0  0.75790535087E+01 -0.62140158933E+01  0.81550695765E+00  0.98346884652E+01  0.00000000000E+00 0. -1.
</event>
<event>
 7    1  0.2387817E-009  0.4778727E+02  0.7816164E-02  0.1312668E+00
        -11   -1    0    0    0    0  0.00000000000E+00  0.00000000000E+00  0.45593999997E+02  0.45594000000E+02  0.51100000000E-03 0.  1.
         11   -1    0    0    0    0 -0.00000000000E+00 -0.00000000000E+00 -0.45593999997E+02  0.45594000000E+02  0.51100000000E-03 0. -1.
    9900012    2    1    2    0    0  0.10630697113E+02  0.27013639813E+02  0.32262596764E+02  0.47787267207E+02  0.19999982503E+02 0.  0.
         12    1    1    2    0    0 -0.10630697113E+02 -0.27013639813E+02 -0.32262596764E+02  0.43400732793E+02  0.00000000000E+00 0. -1.
         11    1    3    3    0    0  0.45663769327E+01  0.48732216154E+01 -0.53499381751E+00  0.66997243115E+01  0.51100000000E-03 0. -1.
        -11    1    3    3    0    0  0.60773368059E+01  0.58090381140E+01  0.11713358591E+02  0.14418103766E+02  0.51100000000E-03 0.  1.
        -12    1    3    3    0    0 -0.13016625705E-01  0.16331380084E+02  0.21084231990E+02  0.26669439129E+02  0.00000000000E+00 0.  1.
</event>
<event>
 7    1  0.2387817E-009  0.4778726E+02  0.7816164E-02  0.1312668E+00
        -11   -1    0    0    0    0  0.00000000000E+00  0.00000000000E+00  0.45593999997E+02  0.45594000000E+02  0.51100000000E-03 0.  1.
         11   -1    0    0    0    0 -0.00000000000E+00 -0.00000000000E+00 -0.45593999997E+02  0.45594000000E+02  0.51100000000E-03 0. -1.
    9900012    2    1    2    0    0 -0.17623986162E+02  0.34882313605E+02  0.18874411126E+02  0.47787261688E+02  0.19999957341E+02 0.  0.
         12    1    1    2    0    0  0.17623986162E+02 -0.34882313605E+02 -0.18874411126E+02  0.43400738312E+02  0.00000000000E+00 0. -1.
         11    1    3    3    0    0 -0.47060249105E+01  0.12331636199E+01 -0.23569436784E+01  0.54057882623E+01  0.51100000000E-03 0. -1.
        -11    1    3    3    0    0 -0.31868244536E+01  0.63223235795E+01  0.13320307250E+01  0.72042995257E+01  0.51100000000E-03 0.  1.
        -12    1    3    3    0    0 -0.97311367975E+01  0.27326826405E+02  0.19899324080E+02  0.35177173900E+02  0.00000000000E+00 0.  1.
</event>
<event>
 7    1  0.2387817E-009  0.4778727E+02  0.7816164E-02  0.1312668E+00
        -11   -1    0    0    0    0  0.00000000000E+00  0.00000000000E+00  0.45593999997E+02  0.45594000000E+02  0.51100000000E-03 0.  1.
         11   -1    0    0    0    0 -0.00000000000E+00 -0.00000000000E+00 -0.45593999997E+02  0.45594000000E+02  0.51100000000E-03 0. -1.
    9900012    2    1    2    0    0 -0.29677158009E+02  0.71641932888E+01 -0.30847431214E+02  0.47787269759E+02  0.19999994139E+02 0.  0.
         12    1    1    2    0    0  0.29677158009E+02 -0.71641932888E+01  0.30847431214E+02  0.43400730241E+02  0.00000000000E+00 0. -1.
         11    1    3    3    0    0 -0.11295439194E+02  0.81144624250E+01 -0.84704974763E+01  0.16284372103E+02  0.51100000000E-03 0. -1.
        -11    1    3    3    0    0 -0.12163310304E+02  0.33636428197E+01 -0.19853741431E+02  0.23525119758E+02  0.51100000000E-03 0.  1.
        -12    1    3    3    0    0 -0.62184085114E+01 -0.43139119559E+01 -0.25231923068E+01  0.79777778983E+01  0.00000000000E+00 0.  1.
</event>
<event>
 7    1  0.2387817E-009  0.4778727E+02  0.7816164E-02  0.1312668E+00
        -11   -1    0    0    0    0  0.00000000000E+00  0.00000000000E+00  0.45593999997E+02  0.45594000000E+02  0.51100000000E-03 0. -1.
         11   -1    0    0    0    0 -0.00000000000E+00 -0.00000000000E+00 -0.45593999997E+02  0.45594000000E+02  0.51100000000E-03 0.  1.
    9900012    2    1    2    0    0 -0.19928384864E+02 -0.88057429639E+01 -0.37535872524E+02  0.47787270069E+02  0.19999995551E+02 0.  0.
         12    1    1    2    0    0  0.19928384864E+02  0.88057429639E+01  0.37535872524E+02  0.43400729931E+02  0.00000000000E+00 0. -1.
         11    1    3    3    0    0 -0.35124774343E+00  0.36811352070E+00 -0.30268629231E+01  0.30693292358E+01  0.51100000000E-03 0. -1.
        -11    1    3    3    0    0 -0.16001980383E+02 -0.49153154164E+01 -0.98137867578E+01  0.19404486920E+02  0.51100000000E-03 0.  1.
        -12    1    3    3    0    0 -0.35751567368E+01 -0.42585410683E+01 -0.24695222843E+02  0.25313453913E+02  0.00000000000E+00 0.  1.
</event>
<event>
 7    1  0.2387817E-009  0.4778727E+02  0.7816164E-02  0.1312668E+00
        -11   -1    0    0    0    0  0.00000000000E+00  0.00000000000E+00  0.45593999997E+02  0.45594000000E+02  0.51100000000E-03 0. -1.
         11   -1    0    0    0    0 -0.00000000000E+00 -0.00000000000E+00 -0.45593999997E+02  0.45594000000E+02  0.51100000000E-03 0.  1.
    9900012    2    1    2    0    0  0.12934985788E+02 -0.40440824162E+02 -0.89916232760E+01  0.47787269529E+02  0.19999993091E+02 0.  0.
         12    1    1    2    0    0 -0.12934985788E+02  0.40440824162E+02  0.89916232760E+01  0.43400730471E+02  0.00000000000E+00 0. -1.
         11    1    3    3    0    0 -0.71869889821E+00 -0.77960197230E+01 -0.59294622152E+01  0.98210475027E+01  0.51100000000E-03 0.  1.
        -11    1    3    3    0    0 -0.11139039476E+01 -0.41565983619E+01 -0.39844888456E+01  0.58646605672E+01  0.51100000000E-03 0. -1.
        -12    1    3    3    0    0  0.14767588634E+02 -0.28488206077E+02  0.92232778489E+00  0.32101561459E+02  0.00000000000E+00 0.  1.
</event>
<event>
 7    1  0.2387817E-009  0.4778727E+02  0.7816164E-02  0.1312668E+00
        -11   -1    0    0    0    0  0.00000000000E+00  0.00000000000E+00  0.45593999997E+02  0.45594000000E+02  0.51100000000E-03 0.  1.
         11   -1    0    0    0    0 -0.00000000000E+00 -0.00000000000E+00 -0.45593999997E+02  0.45594000000E+02  0.51100000000E-03 0. -1.
    9900012    2    1    2    0    0  0.12841796933E+02 -0.61351238001E+01  0.41000874930E+02  0.47787271463E+02  0.20000001907E+02 0.  0.
         12    1    1    2    0    0 -0.12841796933E+02  0.61351238001E+01 -0.41000874930E+02  0.43400728537E+02  0.00000000000E+00 0. -1.
         11    1    3    3    0    0  0.35943545156E+01  0.57950213708E+01  0.89772412995E+01  0.11273531775E+02  0.51100000000E-03 0. -1.
        -11    1    3    3    0    0  0.11930608025E+01  0.82901670025E+00  0.45154196762E+00  0.15213655633E+01  0.51100000000E-03 0.  1.
        -12    1    3    3    0    0  0.80543816151E+01 -0.12759161871E+02  0.31572091663E+02  0.34992374124E+02  0.00000000000E+00 0.  1.
</event>
<event>
 7    1  0.2387817E-009  0.4778727E+02  0.7816164E-02  0.1312668E+00
        -11   -1    0    0    0    0  0.00000000000E+00  0.00000000000E+00  0.45593999997E+02  0.45594000000E+02  0.51100000000E-03 0. -1.
         11   -1    0    0    0    0 -0.00000000000E+00 -0.00000000000E+00 -0.45593999997E+02  0.45594000000E+02  0.51100000000E-03 0.  1.
    9900012    2    1    2    0    0  0.42455503727E+02  0.98819995736E+00  0.89541781577E+01  0.47787266799E+02  0.19999980645E+02 0.  0.
         12    1    1    2    0    0 -0.42455503727E+02 -0.98819995736E+00 -0.89541781577E+01  0.43400733201E+02  0.00000000000E+00 0. -1.
         11    1    3    3    0    0  0.12351090271E+01  0.78133335093E+00 -0.42122714298E+01  0.44586104308E+01  0.51100000000E-03 0. -1.
        -11    1    3    3    0    0  0.90916844933E+01  0.43745782688E+00  0.20482848219E+01  0.93298213943E+01  0.51100000000E-03 0.  1.
         12    1    3    3    0    0  0.32128710207E+02 -0.23059122045E+00  0.11118164766E+02  0.33998834974E+02  0.00000000000E+00 0. -1.
</event>
<event>
 7    1  0.2387817E-009  0.4778727E+02  0.7816164E-02  0.1312668E+00
        -11   -1    0    0    0    0  0.00000000000E+00  0.00000000000E+00  0.45593999997E+02  0.45594000000E+02  0.51100000000E-03 0.  1.
         11   -1    0    0    0    0 -0.00000000000E+00 -0.00000000000E+00 -0.45593999997E+02  0.45594000000E+02  0.51100000000E-03 0. -1.
    9900012    2    1    2    0    0  0.21948096267E+02  0.23645955172E+02  0.29030559958E+02  0.47787268010E+02  0.19999986167E+02 0.  0.
         12    1    1    2    0    0 -0.21948096267E+02 -0.23645955172E+02 -0.29030559958E+02  0.43400731990E+02  0.00000000000E+00 0. -1.
         11    1    3    3    0    0  0.17554638673E+02  0.17706816160E+02  0.23332038459E+02  0.34147923749E+02  0.51100000000E-03 0. -1.
        -11    1    3    3    0    0  0.14501400474E+01  0.84102519102E+01  0.36223961476E+01  0.92712996641E+01  0.51100000000E-03 0.  1.
         12    1    3    3    0    0  0.29433175468E+01 -0.24711128973E+01  0.20761253516E+01  0.43680445978E+01  0.00000000000E+00 0. -1.
</event>
<event>
 7    1  0.2387817E-009  0.4778727E+02  0.7816164E-02  0.1312668E+00
        -11   -1    0    0    0    0  0.00000000000E+00  0.00000000000E+00  0.45593999997E+02  0.45594000000E+02  0.51100000000E-03 0. -1.
         11   -1    0    0    0    0 -0.00000000000E+00 -0.00000000000E+00 -0.45593999997E+02  0.45594000000E+02  0.51100000000E-03 0.  1.
    9900012    2    1    2    0    0 -0.63424718988E+01  0.42042231253E+02 -0.87090172361E+01  0.47787272589E+02  0.20000007044E+02 0.  0.
         12    1    1    2    0    0  0.63424718988E+01 -0.42042231253E+02  0.87090172361E+01  0.43400727411E+02  0.00000000000E+00 0. -1.
         11    1    3    3    0    0 -0.58919181600E+01  0.95428446267E+01 -0.84619658877E+01  0.14049393230E+02  0.51100000000E-03 0. -1.
        -11    1    3    3    0    0  0.13490712511E+01  0.13192198653E+02 -0.42750476703E+01  0.13933058938E+02  0.51100000000E-03 0.  1.
        -12    1    3    3    0    0 -0.17996249899E+01  0.19307187974E+02  0.40279963219E+01  0.19804820422E+02  0.00000000000E+00 0.  1.
</event>
<event>
 7    1  0.2387817E-009  0.4778728E+02  0.7816164E-02  0.1312668E+00
        -11   -1    0    0    0    0  0.00000000000E+00  0.00000000000E+00  0.45593999997E+02  0.45594000000E+02  0.51100000000E-03 0.  1.
         11   -1    0    0    0    0 -0.00000000000E+00 -0.00000000000E+00 -0.45593999997E+02  0.45594000000E+02  0.51100000000E-03 0. -1.
    9900012    2    1    2    0    0  0.33570012664E+02 -0.19974102805E+02  0.18913285080E+02  0.47787275517E+02  0.20000020392E+02 0.  0.
         12    1    1    2    0    0 -0.33570012664E+02  0.19974102805E+02 -0.18913285080E+02  0.43400724483E+02  0.00000000000E+00 0. -1.
         11    1    3    3    0    0  0.18082569164E+01 -0.26377948125E+01  0.19941720248E+01  0.37688827090E+01  0.51100000000E-03 0.  1.
        -11    1    3    3    0    0 -0.10230015238E+00 -0.53372810347E+00 -0.28678567465E+01  0.29188925279E+01  0.51100000000E-03 0. -1.
        -12    1    3    3    0    0  0.31864055900E+02 -0.16802579889E+02  0.19786969802E+02  0.41099500280E+02  0.00000000000E+00 0.  1.
</event>
<event>
 7    1  0.2387817E-009  0.4778727E+02  0.7816164E-02  0.1312668E+00
        -11   -1    0    0    0    0  0.00000000000E+00  0.00000000000E+00  0.45593999997E+02  0.45594000000E+02  0.51100000000E-03 0. -1.
         11   -1    0    0    0    0 -0.00000000000E+00 -0.00000000000E+00 -0.45593999997E+02  0.45594000000E+02  0.51100000000E-03 0.  1.
    9900012    2    1    2    0    0 -0.13667645472E+02 -0.26515295977E+02 -0.31523924653E+02  0.47787270985E+02  0.19999999729E+02 0.  0.
         12    1    1    2    0    0  0.13667645472E+02  0.26515295977E+02  0.31523924653E+02  0.43400729015E+02  0.00000000000E+00 0. -1.
         11    1    3    3    0    0 -0.64987618778E+00 -0.16300302524E+01  0.79667374864E+00  0.19271811036E+01  0.51100000000E-03 0. -1.
        -11    1    3    3    0    0  0.38685831096E+01 -0.48696509914E+01 -0.46741816993E+01  0.77799364312E+01  0.51100000000E-03 0.  1.
        -12    1    3    3    0    0 -0.16886352394E+02 -0.20015614733E+02 -0.27646416703E+02  0.38080153450E+02  0.00000000000E+00 0.  1.
</event>
<event>
 7    1  0.2387817E-009  0.4778727E+02  0.7816164E-02  0.1312668E+00
        -11   -1    0    0    0    0  0.00000000000E+00  0.00000000000E+00  0.45593999997E+02  0.45594000000E+02  0.51100000000E-03 0.  1.
         11   -1    0    0    0    0 -0.00000000000E+00 -0.00000000000E+00 -0.45593999997E+02  0.45594000000E+02  0.51100000000E-03 0. -1.
    9900012    2    1    2    0    0 -0.20686974472E+02 -0.37037792498E+02  0.91582891209E+01  0.47787271370E+02  0.20000001486E+02 0.  0.
         12    1    1    2    0    0  0.20686974472E+02  0.37037792498E+02 -0.91582891209E+01  0.43400728630E+02  0.00000000000E+00 0. -1.
         11    1    3    3    0    0 -0.88357083521E+01 -0.53544998583E+01  0.46970929431E+01  0.11349145042E+02  0.51100000000E-03 0. -1.
        -11    1    3    3    0    0 -0.47986191577E+00 -0.18394575228E+02  0.51835395325E-01  0.18400906294E+02  0.51100000000E-03 0.  1.
         12    1    3    3    0    0 -0.11371404205E+02 -0.13288717412E+02  0.44093607825E+01  0.18037220034E+02  0.00000000000E+00 0. -1.
</event>
<event>
 7    1  0.2387817E-009  0.4778727E+02  0.7816164E-02  0.1312668E+00
        -11   -1    0    0    0    0  0.00000000000E+00  0.00000000000E+00  0.45593999997E+02  0.45594000000E+02  0.51100000000E-03 0.  1.
         11   -1    0    0    0    0 -0.00000000000E+00 -0.00000000000E+00 -0.45593999997E+02  0.45594000000E+02  0.51100000000E-03 0. -1.
    9900012    2    1    2    0    0  0.35034476504E+02 -0.18816903109E+02  0.17381964058E+02  0.47787273497E+02  0.20000011182E+02 0.  0.
         12    1    1    2    0    0 -0.35034476504E+02  0.18816903109E+02 -0.17381964058E+02  0.43400726503E+02  0.00000000000E+00 0. -1.
         11    1    3    3    0    0 -0.63129109746E+00 -0.10238670334E+01 -0.23488911510E+00  0.12255632621E+01  0.51100000000E-03 0. -1.
        -11    1    3    3    0    0  0.28081514936E+02 -0.19827980095E+02  0.10447539527E+02  0.35928698254E+02  0.51100000000E-03 0.  1.
         12    1    3    3    0    0  0.75842526647E+01  0.20349440197E+01  0.71693136456E+01  0.10633011981E+02  0.00000000000E+00 0. -1.
</event>
<event>
 7    1  0.2387817E-009  0.4778727E+02  0.7816164E-02  0.1312668E+00
        -11   -1    0    0    0    0  0.00000000000E+00  0.00000000000E+00  0.45593999997E+02  0.45594000000E+02  0.51100000000E-03 0. -1.
         11   -1    0    0    0    0 -0.00000000000E+00 -0.00000000000E+00 -0.45593999997E+02  0.45594000000E+02  0.51100000000E-03 0.  1.
    9900012    2    1    2    0    0 -0.41202267703E+01 -0.23583334206E+02 -0.36200466201E+02  0.47787266434E+02  0.19999978979E+02 0.  0.
         12    1    1    2    0    0  0.41202267703E+01  0.23583334206E+02  0.36200466201E+02  0.43400733566E+02  0.00000000000E+00 0. -1.
         11    1    3    3    0    0 -0.78681101973E+00  0.10803714225E+00 -0.48716219873E+01  0.49359340204E+01  0.51100000000E-03 0. -1.
        -11    1    3    3    0    0 -0.11976981239E+01 -0.15083013968E+02 -0.30369959283E+02  0.33930314149E+02  0.51100000000E-03 0.  1.
         12    1    3    3    0    0 -0.21357176266E+01 -0.86083573802E+01 -0.95888493057E+00  0.89210182645E+01  0.00000000000E+00 0. -1.
</event>
<event>
 7    1  0.2387817E-009  0.4778727E+02  0.7816164E-02  0.1312668E+00
        -11   -1    0    0    0    0  0.00000000000E+00  0.00000000000E+00  0.45593999997E+02  0.45594000000E+02  0.51100000000E-03 0.  1.
         11   -1    0    0    0    0 -0.00000000000E+00 -0.00000000000E+00 -0.45593999997E+02  0.45594000000E+02  0.51100000000E-03 0. -1.
    9900012    2    1    2    0    0 -0.16741230227E+02 -0.10897989483E+02  0.38530360846E+02  0.47787266467E+02  0.19999979130E+02 0.  0.
         12    1    1    2    0    0  0.16741230227E+02  0.10897989483E+02 -0.38530360846E+02  0.43400733533E+02  0.00000000000E+00 0. -1.
         11    1    3    3    0    0  0.12040131270E+00 -0.59453128818E+01  0.10448938815E+02  0.12022544005E+02  0.51100000000E-03 0.  1.
        -11    1    3    3    0    0 -0.71245793068E+01 -0.56287633930E+01  0.42764791255E+01  0.10036477550E+02  0.51100000000E-03 0. -1.
         12    1    3    3    0    0 -0.97370522334E+01  0.67608679164E+00  0.23804942905E+02  0.25728244912E+02  0.00000000000E+00 0. -1.
</event>
<event>
 7    1  0.2387817E-009  0.4778727E+02  0.7816164E-02  0.1312668E+00
        -11   -1    0    0    0    0  0.00000000000E+00  0.00000000000E+00  0.45593999997E+02  0.45594000000E+02  0.51100000000E-03 0.  1.
         11   -1    0    0    0    0 -0.00000000000E+00 -0.00000000000E+00 -0.45593999997E+02  0.45594000000E+02  0.51100000000E-03 0. -1.
    9900012    2    1    2    0    0  0.33893668772E+02 -0.23803249529E+02  0.12971036747E+02  0.47787271144E+02  0.20000000452E+02 0.  0.
         12    1    1    2    0    0 -0.33893668772E+02  0.23803249529E+02 -0.12971036747E+02  0.43400728856E+02  0.00000000000E+00 0. -1.
         11    1    3    3    0    0  0.20182164740E+02 -0.96818564452E+01  0.10134153243E+02  0.24571511553E+02  0.51100000000E-03 0. -1.
        -11    1    3    3    0    0  0.11585301600E+02 -0.79484453215E+01  0.67677836230E+01  0.15594867477E+02  0.51100000000E-03 0.  1.
         12    1    3    3    0    0  0.21262024318E+01 -0.61729477627E+01 -0.39309001184E+01  0.76208921133E+01  0.00000000000E+00 0. -1.
</event>
<event>
 7    1  0.4404703E-009  0.4778727E+02  0.7816164E-02  0.1312668E+00
        -11   -1    0    0    0    0  0.00000000000E+00  0.00000000000E+00  0.45593999997E+02  0.45594000000E+02  0.51100000000E-03 0. -1.
         11   -1    0    0    0    0 -0.00000000000E+00 -0.00000000000E+00 -0.45593999997E+02  0.45594000000E+02  0.51100000000E-03 0.  1.
    9900012    2    1    2    0    0 -0.50725962974E+01 -0.39615144956E+02 -0.16986238843E+02  0.47787271284E+02  0.20000001090E+02 0.  0.
         12    1    1    2    0    0  0.50725962974E+01  0.39615144956E+02  0.16986238843E+02  0.43400728716E+02  0.00000000000E+00 0. -1.
         11    1    3    3    0    0 -0.53847891359E+01 -0.41657193757E+01 -0.44111655460E+01  0.81121855065E+01  0.51100000000E-03 0. -1.
        -11    1    3    3    0    0 -0.54955828505E+01 -0.25700159085E+02 -0.88535838771E+01  0.27732391811E+02  0.51100000000E-03 0.  1.
         12    1    3    3    0    0  0.58077756890E+01 -0.97492664960E+01 -0.37214894195E+01  0.11942693966E+02  0.00000000000E+00 0. -1.
</event>
<event>
 7    1  0.2387817E-009  0.4778727E+02  0.7816164E-02  0.1312668E+00
        -11   -1    0    0    0    0  0.00000000000E+00  0.00000000000E+00  0.45593999997E+02  0.45594000000E+02  0.51100000000E-03 0.  1.
         11   -1    0    0    0    0 -0.00000000000E+00 -0.00000000000E+00 -0.45593999997E+02  0.45594000000E+02  0.51100000000E-03 0. -1.
    9900012    2    1    2    0    0 -0.30891644843E+02 -0.16483319061E+02 -0.25644292050E+02  0.47787271399E+02  0.20000001617E+02 0.  0.
         12    1    1    2    0    0  0.30891644843E+02  0.16483319061E+02  0.25644292050E+02  0.43400728601E+02  0.00000000000E+00 0. -1.
         11    1    3    3    0    0 -0.28632429465E+01 -0.10380422119E+02 -0.54687803618E+01  0.12077205076E+02  0.51100000000E-03 0. -1.
        -11    1    3    3    0    0 -0.20109694482E+02 -0.56911129978E+01 -0.17744591373E+02  0.27416402072E+02  0.51100000000E-03 0.  1.
        -12    1    3    3    0    0 -0.79187074139E+01 -0.41178394352E+00 -0.24309203150E+01  0.82936642506E+01  0.00000000000E+00 0.  1.
</event>
<event>
 7    1  0.2387817E-009  0.4778727E+02  0.7816164E-02  0.1312668E+00
        -11   -1    0    0    0    0  0.00000000000E+00  0.00000000000E+00  0.45593999997E+02  0.45594000000E+02  0.51100000000E-03 0. -1.
         11   -1    0    0    0    0 -0.00000000000E+00 -0.00000000000E+00 -0.45593999997E+02  0.45594000000E+02  0.51100000000E-03 0.  1.
    9900012    2    1    2    0    0 -0.26935673338E+01 -0.41823496506E+02  0.11276684428E+02  0.47787265252E+02  0.19999973592E+02 0.  0.
         12    1    1    2    0    0  0.26935673338E+01  0.41823496506E+02 -0.11276684428E+02  0.43400734748E+02  0.00000000000E+00 0. -1.
         11    1    3    3    0    0  0.12004471098E+01 -0.81339221330E+01 -0.27669440263E+01  0.86751220185E+01  0.51100000000E-03 0. -1.
        -11    1    3    3    0    0  0.34488982932E+01 -0.24212682858E+02  0.83797964127E+01  0.25852850883E+02  0.51100000000E-03 0.  1.
        -12    1    3    3    0    0 -0.73429127368E+01 -0.94768915148E+01  0.56638320421E+01  0.13259292351E+02  0.00000000000E+00 0.  1.
</event>
<event>
 7    1  0.2387817E-009  0.4778727E+02  0.7816164E-02  0.1312668E+00
        -11   -1    0    0    0    0  0.00000000000E+00  0.00000000000E+00  0.45593999997E+02  0.45594000000E+02  0.51100000000E-03 0. -1.
         11   -1    0    0    0    0 -0.00000000000E+00 -0.00000000000E+00 -0.45593999997E+02  0.45594000000E+02  0.51100000000E-03 0.  1.
    9900012    2    1    2    0    0  0.36731725851E+02 -0.10524149520E+02 -0.20582659195E+02  0.47787271128E+02  0.20000000381E+02 0.  0.
         12    1    1    2    0    0 -0.36731725851E+02  0.10524149520E+02  0.20582659195E+02  0.43400728872E+02  0.00000000000E+00 0. -1.
         11    1    3    3    0    0  0.21469913375E+00 -0.31286620664E+01 -0.70580655526E+01  0.77234002647E+01  0.51100000000E-03 0. -1.
        -11    1    3    3    0    0  0.11793075457E+02 -0.27098950233E+01 -0.15609624411E+01  0.12200687021E+02  0.51100000000E-03 0.  1.
        -12    1    3    3    0    0  0.24723951260E+02 -0.46855924302E+01 -0.11963631201E+02  0.27863183843E+02  0.00000000000E+00 0.  1.
</event>
<event>
 7    1  0.2387817E-009  0.4778728E+02  0.7816164E-02  0.1312668E+00
        -11   -1    0    0    0    0  0.00000000000E+00  0.00000000000E+00  0.45593999997E+02  0.45594000000E+02  0.51100000000E-03 0.  1.
         11   -1    0    0    0    0 -0.00000000000E+00 -0.00000000000E+00 -0.45593999997E+02  0.45594000000E+02  0.51100000000E-03 0. -1.
    9900012    2    1    2    0    0 -0.10931133574E+02 -0.78832105275E+01  0.41255156758E+02  0.47787278249E+02  0.20000032847E+02 0.  0.
         12    1    1    2    0    0  0.10931133574E+02  0.78832105275E+01 -0.41255156758E+02  0.43400721751E+02  0.00000000000E+00 0. -1.
         11    1    3    3    0    0 -0.10179641223E+02 -0.10957897364E+02  0.29399295271E+02  0.32985135633E+02  0.51100000000E-03 0. -1.
        -11    1    3    3    0    0 -0.15678415967E+01  0.92007043637E+00  0.12318635255E+02  0.12452045281E+02  0.51100000000E-03 0.  1.
         12    1    3    3    0    0  0.81634924502E+00  0.21546164001E+01 -0.46277376795E+00  0.23500973345E+01  0.00000000000E+00 0. -1.
</event>
<event>
 7    1  0.2387817E-009  0.4778727E+02  0.7816164E-02  0.1312668E+00
        -11   -1    0    0    0    0  0.00000000000E+00  0.00000000000E+00  0.45593999997E+02  0.45594000000E+02  0.51100000000E-03 0.  1.
         11   -1    0    0    0    0 -0.00000000000E+00 -0.00000000000E+00 -0.45593999997E+02  0.45594000000E+02  0.51100000000E-03 0. -1.
    9900012    2    1    2    0    0  0.28376027050E+02  0.14721432422E+02  0.29354788303E+02  0.47787273278E+02  0.20000010182E+02 0.  0.
         12    1    1    2    0    0 -0.28376027050E+02 -0.14721432422E+02 -0.29354788303E+02  0.43400726722E+02  0.00000000000E+00 0. -1.
         11    1    3    3    0    0  0.93091181597E+01 -0.18208793021E+01  0.11704126991E+02  0.15065253772E+02  0.51100000000E-03 0. -1.
        -11    1    3    3    0    0  0.80486144758E+01  0.23777394221E+01  0.13928868138E+01  0.85072894436E+01  0.51100000000E-03 0.  1.
         12    1    3    3    0    0  0.11018294415E+02  0.14164572302E+02  0.16257774499E+02  0.24214730062E+02  0.00000000000E+00 0. -1.
</event>
<event>
 7    1  0.2387817E-009  0.4778726E+02  0.7816164E-02  0.1312668E+00
        -11   -1    0    0    0    0  0.00000000000E+00  0.00000000000E+00  0.45593999997E+02  0.45594000000E+02  0.51100000000E-03 0.  1.
         11   -1    0    0    0    0 -0.00000000000E+00 -0.00000000000E+00 -0.45593999997E+02  0.45594000000E+02  0.51100000000E-03 0. -1.
    9900012    2    1    2    0    0  0.98017697333E+01 -0.36139261119E+02  0.21943182135E+02  0.47787261223E+02  0.19999955222E+02 0.  0.
         12    1    1    2    0    0 -0.98017697333E+01  0.36139261119E+02 -0.21943182135E+02  0.43400738777E+02  0.00000000000E+00 0. -1.
         11    1    3    3    0    0  0.22635419086E+01 -0.44794384156E+01  0.21462504866E+01  0.54585146243E+01  0.51100000000E-03 0. -1.
        -11    1    3    3    0    0  0.76107550403E+00 -0.14703235358E+02  0.19018551784E+02  0.24051396594E+02  0.51100000000E-03 0.  1.
        -12    1    3    3    0    0  0.67771523207E+01 -0.16956587346E+02  0.77837986469E+00  0.18277350005E+02  0.00000000000E+00 0.  1.
</event>
<event>
 7    1  0.2387817E-009  0.4778726E+02  0.7816164E-02  0.1312668E+00
        -11   -1    0    0    0    0  0.00000000000E+00  0.00000000000E+00  0.45593999997E+02  0.45594000000E+02  0.51100000000E-03 0.  1.
         11   -1    0    0    0    0 -0.00000000000E+00 -0.00000000000E+00 -0.45593999997E+02  0.45594000000E+02  0.51100000000E-03 0. -1.
    9900012    2    1    2    0    0  0.40851243176E+02  0.13839860864E+02  0.48226648928E+01  0.47787263665E+02  0.19999966354E+02 0.  0.
         12    1    1    2    0    0 -0.40851243176E+02 -0.13839860864E+02 -0.48226648928E+01  0.43400736335E+02  0.00000000000E+00 0. -1.
         11    1    3    3    0    0  0.28228287801E+01  0.12763640714E+01 -0.22151535323E+01  0.38084607123E+01  0.51100000000E-03 0. -1.
        -11    1    3    3    0    0  0.37039592329E+02  0.15542606426E+02  0.57167566974E+01  0.40573209410E+02  0.51100000000E-03 0.  1.
        -12    1    3    3    0    0  0.98882206654E+00 -0.29791096336E+01  0.13210617277E+01  0.34055935425E+01  0.00000000000E+00 0.  1.
</event>
<event>
 7    1  0.2387817E-009  0.4778727E+02  0.7816164E-02  0.1312668E+00
        -11   -1    0    0    0    0  0.00000000000E+00  0.00000000000E+00  0.45593999997E+02  0.45594000000E+02  0.51100000000E-03 0.  1.
         11   -1    0    0    0    0 -0.00000000000E+00 -0.00000000000E+00 -0.45593999997E+02  0.45594000000E+02  0.51100000000E-03 0. -1.
    9900012    2    1    2    0    0  0.57472790454E+01 -0.22017481738E+00  0.43017944146E+02  0.47787271758E+02  0.20000003253E+02 0.  0.
         12    1    1    2    0    0 -0.57472790454E+01  0.22017481738E+00 -0.43017944146E+02  0.43400728242E+02  0.00000000000E+00 0. -1.
         11    1    3    3    0    0 -0.23341786615E+01 -0.14820208148E+01 -0.46232901067E-02  0.27649226671E+01  0.51100000000E-03 0. -1.
        -11    1    3    3    0    0 -0.18625341623E+01  0.26372780309E+01  0.10151766160E+02  0.10652822412E+02  0.51100000000E-03 0.  1.
        -12    1    3    3    0    0  0.99439918691E+01 -0.13754320335E+01  0.32870801276E+02  0.34369526679E+02  0.00000000000E+00 0.  1.
</event>
<event>
 7    1  0.2387817E-009  0.4778722E+02  0.7816164E-02  0.1312668E+00
        -11   -1    0    0    0    0  0.00000000000E+00  0.00000000000E+00  0.45593999997E+02  0.45594000000E+02  0.51100000000E-03 0.  1.
         11   -1    0    0    0    0 -0.00000000000E+00 -0.00000000000E+00 -0.45593999997E+02  0.45594000000E+02  0.51100000000E-03 0. -1.
    9900012    2    1    2    0    0  0.14742148984E+01 -0.16714953393E+02  0.40025801766E+02  0.47787219091E+02  0.19999763123E+02 0.  0.
         12    1    1    2    0    0 -0.14742148984E+01  0.16714953393E+02 -0.40025801766E+02  0.43400780909E+02  0.00000000000E+00 0. -1.
         11    1    3    3    0    0  0.26837415379E+01 -0.98220086712E+01  0.17800672811E+02  0.20507029911E+02  0.51100000000E-03 0. -1.
        -11    1    3    3    0    0  0.56190978697E+01 -0.65271375779E+01  0.94222100143E+01  0.12765415295E+02  0.51100000000E-03 0.  1.
         12    1    3    3    0    0 -0.68286245093E+01 -0.36580714368E+00  0.12802918940E+02  0.14514773885E+02  0.00000000000E+00 0. -1.
</event>
<event>
 7    1  0.2387817E-009  0.4778727E+02  0.7816164E-02  0.1312668E+00
        -11   -1    0    0    0    0  0.00000000000E+00  0.00000000000E+00  0.45593999997E+02  0.45594000000E+02  0.51100000000E-03 0.  1.
         11   -1    0    0    0    0 -0.00000000000E+00 -0.00000000000E+00 -0.45593999997E+02  0.45594000000E+02  0.51100000000E-03 0. -1.
    9900012    2    1    2    0    0  0.29006377677E+02  0.92198216448E+01  0.30939428747E+02  0.47787270648E+02  0.19999998193E+02 0.  0.
         12    1    1    2    0    0 -0.29006377677E+02 -0.92198216448E+01 -0.30939428747E+02  0.43400729352E+02  0.00000000000E+00 0. -1.
         11    1    3    3    0    0  0.39230519911E+01 -0.52597024247E+00 -0.46041663755E-01  0.39584216193E+01  0.51100000000E-03 0. -1.
        -11    1    3    3    0    0  0.12930546288E+02 -0.30942237825E+01  0.14139267030E+02  0.19408557920E+02  0.51100000000E-03 0.  1.
         12    1    3    3    0    0  0.12152779397E+02  0.12840015670E+02  0.16846203381E+02  0.24420291109E+02  0.00000000000E+00 0. -1.
</event>
<event>
 7    1  0.2387817E-009  0.4778727E+02  0.7816164E-02  0.1312668E+00
        -11   -1    0    0    0    0  0.00000000000E+00  0.00000000000E+00  0.45593999997E+02  0.45594000000E+02  0.51100000000E-03 0.  1.
         11   -1    0    0    0    0 -0.00000000000E+00 -0.00000000000E+00 -0.45593999997E+02  0.45594000000E+02  0.51100000000E-03 0. -1.
    9900012    2    1    2    0    0  0.42156639355E+02 -0.95654567130E+01  0.38656503712E+01  0.47787268939E+02  0.19999990403E+02 0.  0.
         12    1    1    2    0    0 -0.42156639355E+02  0.95654567130E+01 -0.38656503712E+01  0.43400731061E+02  0.00000000000E+00 0. -1.
         11    1    3    3    0    0  0.15627507464E+02  0.48460291838E+01  0.31596734405E+01  0.16663928855E+02  0.51100000000E-03 0. -1.
        -11    1    3    3    0    0 -0.11451277520E+00 -0.14875594907E+01 -0.14040354659E+00  0.14985525786E+01  0.51100000000E-03 0.  1.
        -12    1    3    3    0    0  0.26643644666E+02 -0.12923926406E+02  0.84638047734E+00  0.29624787506E+02  0.00000000000E+00 0.  1.
</event>
<event>
 7    1  0.2387817E-009  0.4778727E+02  0.7816164E-02  0.1312668E+00
        -11   -1    0    0    0    0  0.00000000000E+00  0.00000000000E+00  0.45593999997E+02  0.45594000000E+02  0.51100000000E-03 0.  1.
         11   -1    0    0    0    0 -0.00000000000E+00 -0.00000000000E+00 -0.45593999997E+02  0.45594000000E+02  0.51100000000E-03 0. -1.
    9900012    2    1    2    0    0 -0.23366326716E+02 -0.61949607686E+01  0.36045253888E+02  0.47787273152E+02  0.20000009607E+02 0.  0.
         12    1    1    2    0    0  0.23366326716E+02  0.61949607686E+01 -0.36045253888E+02  0.43400726848E+02  0.00000000000E+00 0. -1.
         11    1    3    3    0    0  0.30640796809E+01  0.15014568907E+01  0.19684187583E+01  0.39392422818E+01  0.51100000000E-03 0. -1.
        -11    1    3    3    0    0 -0.53994550736E+01 -0.23784500750E+01  0.71474628095E+01  0.92680831203E+01  0.51100000000E-03 0.  1.
         12    1    3    3    0    0 -0.21030951324E+02 -0.53179675843E+01  0.26929372320E+02  0.34579947749E+02  0.00000000000E+00 0. -1.
</event>
<event>
 7    1  0.2387817E-009  0.4778728E+02  0.7816164E-02  0.1312668E+00
        -11   -1    0    0    0    0  0.00000000000E+00  0.00000000000E+00  0.45593999997E+02  0.45594000000E+02  0.51100000000E-03 0.  1.
         11   -1    0    0    0    0 -0.00000000000E+00 -0.00000000000E+00 -0.45593999997E+02  0.45594000000E+02  0.51100000000E-03 0. -1.
    9900012    2    1    2    0    0 -0.15430472886E+02 -0.35212617930E+02  0.20139387312E+02  0.47787275625E+02  0.20000020886E+02 0.  0.
         12    1    1    2    0    0  0.15430472886E+02  0.35212617930E+02 -0.20139387312E+02  0.43400724375E+02  0.00000000000E+00 0. -1.
         11    1    3    3    0    0 -0.14916947704E+01 -0.84589385625E+01  0.41500719049E+01  0.95394911798E+01  0.51100000000E-03 0. -1.
        -11    1    3    3    0    0 -0.14499669574E+02 -0.27674392978E+02  0.10968060715E+02  0.33112094476E+02  0.51100000000E-03 0.  1.
         12    1    3    3    0    0  0.56089145853E+00  0.92071361126E+00  0.50212546918E+01  0.51356899694E+01  0.00000000000E+00 0. -1.
</event>
<event>
 7    1  0.2387817E-009  0.4778728E+02  0.7816164E-02  0.1312668E+00
        -11   -1    0    0    0    0  0.00000000000E+00  0.00000000000E+00  0.45593999997E+02  0.45594000000E+02  0.51100000000E-03 0.  1.
         11   -1    0    0    0    0 -0.00000000000E+00 -0.00000000000E+00 -0.45593999997E+02  0.45594000000E+02  0.51100000000E-03 0. -1.
    9900012    2    1    2    0    0  0.40768762488E+01 -0.10717120184E+02  0.41858633955E+02  0.47787276255E+02  0.20000023759E+02 0.  0.
         12    1    1    2    0    0 -0.40768762488E+01  0.10717120184E+02 -0.41858633955E+02  0.43400723745E+02  0.00000000000E+00 0. -1.
         11    1    3    3    0    0 -0.49495513233E+00 -0.97721819932E+01  0.14543589527E+02  0.17528734070E+02  0.51100000000E-03 0. -1.
        -11    1    3    3    0    0  0.36493521446E+01 -0.42349256837E+01  0.26005061246E+02  0.26599164974E+02  0.51100000000E-03 0.  1.
         12    1    3    3    0    0  0.92247923653E+00  0.32899874925E+01  0.13099831812E+01  0.36593772117E+01  0.00000000000E+00 0. -1.
</event>
<event>
 7    1  0.2387817E-009  0.4778727E+02  0.7816164E-02  0.1312668E+00
        -11   -1    0    0    0    0  0.00000000000E+00  0.00000000000E+00  0.45593999997E+02  0.45594000000E+02  0.51100000000E-03 0.  1.
         11   -1    0    0    0    0 -0.00000000000E+00 -0.00000000000E+00 -0.45593999997E+02  0.45594000000E+02  0.51100000000E-03 0. -1.
    9900012    2    1    2    0    0  0.27318620565E+01  0.17325951193E+02  0.39698509387E+02  0.47787270713E+02  0.19999998491E+02 0.  0.
         12    1    1    2    0    0 -0.27318620565E+01 -0.17325951193E+02 -0.39698509387E+02  0.43400729287E+02  0.00000000000E+00 0. -1.
         11    1    3    3    0    0 -0.23526775864E+01  0.10169530908E+01  0.69382660781E+00  0.26553118531E+01  0.51100000000E-03 0. -1.
        -11    1    3    3    0    0  0.15126615849E+01 -0.28443313473E+01  0.55942519890E+01  0.64555419184E+01  0.51100000000E-03 0.  1.
        -12    1    3    3    0    0  0.35718780580E+01  0.19153329449E+02  0.33410430791E+02  0.38676416942E+02  0.00000000000E+00 0.  1.
</event>
<event>
 7    1  0.2387817E-009  0.4778727E+02  0.7816164E-02  0.1312668E+00
        -11   -1    0    0    0    0  0.00000000000E+00  0.00000000000E+00  0.45593999997E+02  0.45594000000E+02  0.51100000000E-03 0.  1.
         11   -1    0    0    0    0 -0.00000000000E+00 -0.00000000000E+00 -0.45593999997E+02  0.45594000000E+02  0.51100000000E-03 0. -1.
    9900012    2    1    2    0    0  0.17625772258E+02  0.39306270925E+02 -0.52888970103E+01  0.47787271743E+02  0.20000003184E+02 0.  0.
         12    1    1    2    0    0 -0.17625772258E+02 -0.39306270925E+02  0.52888970103E+01  0.43400728257E+02  0.00000000000E+00 0. -1.
         11    1    3    3    0    0  0.17037686123E+02  0.34647108327E+02 -0.11093344831E+02  0.40171720945E+02  0.51100000000E-03 0.  1.
        -11    1    3    3    0    0  0.43966824008E+00  0.22690856248E+01  0.17206866089E+01  0.28814615043E+01  0.51100000000E-03 0. -1.
        -12    1    3    3    0    0  0.14841789502E+00  0.23900769723E+01  0.40837612116E+01  0.47340892935E+01  0.00000000000E+00 0.  1.
</event>
<event>
 7    1  0.2387817E-009  0.4778727E+02  0.7816164E-02  0.1312668E+00
        -11   -1    0    0    0    0  0.00000000000E+00  0.00000000000E+00  0.45593999997E+02  0.45594000000E+02  0.51100000000E-03 0. -1.
         11   -1    0    0    0    0 -0.00000000000E+00 -0.00000000000E+00 -0.45593999997E+02  0.45594000000E+02  0.51100000000E-03 0.  1.
    9900012    2    1    2    0    0 -0.33462261497E+02  0.73329896238E+01 -0.26648218664E+02  0.47787271443E+02  0.20000001817E+02 0.  0.
         12    1    1    2    0    0  0.33462261497E+02 -0.73329896238E+01  0.26648218664E+02  0.43400728557E+02  0.00000000000E+00 0. -1.
         11    1    3    3    0    0 -0.44412269685E+01 -0.24787403763E+01 -0.28515539679E+01  0.58309528493E+01  0.51100000000E-03 0. -1.
        -11    1    3    3    0    0 -0.29740133057E+02  0.74100567347E+01 -0.24624632829E+02  0.39316116254E+02  0.51100000000E-03 0.  1.
        -12    1    3    3    0    0  0.71909852831E+00  0.24016732654E+01  0.82796813293E+00  0.26402023400E+01  0.00000000000E+00 0.  1.
</event>
<event>
 7    1  0.2387817E-009  0.4778728E+02  0.7816164E-02  0.1312668E+00
        -11   -1    0    0    0    0  0.00000000000E+00  0.00000000000E+00  0.45593999997E+02  0.45594000000E+02  0.51100000000E-03 0. -1.
         11   -1    0    0    0    0 -0.00000000000E+00 -0.00000000000E+00 -0.45593999997E+02  0.45594000000E+02  0.51100000000E-03 0.  1.
    9900012    2    1    2    0    0 -0.10303274927E+02  0.14297671724E+02 -0.39661591895E+02  0.47787276935E+02  0.20000026856E+02 0.  0.
         12    1    1    2    0    0  0.10303274927E+02 -0.14297671724E+02  0.39661591895E+02  0.43400723065E+02  0.00000000000E+00 0. -1.
         11    1    3    3    0    0  0.18547644233E+00  0.18912593931E+01  0.49804224064E+00  0.19645126462E+01  0.51100000000E-03 0. -1.
        -11    1    3    3    0    0  0.39457150177E+00 -0.27625137971E+01 -0.23230574672E+01  0.36309455251E+01  0.51100000000E-03 0.  1.
        -12    1    3    3    0    0 -0.10883322871E+02  0.15168926128E+02 -0.37836576668E+02  0.42191818763E+02  0.00000000000E+00 0.  1.
</event>
<event>
 7    1  0.2387817E-009  0.4778727E+02  0.7816164E-02  0.1312668E+00
        -11   -1    0    0    0    0  0.00000000000E+00  0.00000000000E+00  0.45593999997E+02  0.45594000000E+02  0.51100000000E-03 0.  1.
         11   -1    0    0    0    0 -0.00000000000E+00 -0.00000000000E+00 -0.45593999997E+02  0.45594000000E+02  0.51100000000E-03 0. -1.
    9900012    2    1    2    0    0 -0.34331540631E+02 -0.51502072829E+01  0.26046955015E+02  0.47787272095E+02  0.20000004789E+02 0.  0.
         12    1    1    2    0    0  0.34331540631E+02  0.51502072829E+01 -0.26046955015E+02  0.43400727905E+02  0.00000000000E+00 0. -1.
         11    1    3    3    0    0 -0.35035918639E+01  0.12537766971E+01  0.84647962107E+01  0.92466148998E+01  0.51100000000E-03 0. -1.
        -11    1    3    3    0    0 -0.12313008611E+02  0.61256177158E+00  0.13578331679E+02  0.18340024657E+02  0.51100000000E-03 0.  1.
         12    1    3    3    0    0 -0.18514940157E+02 -0.70165457516E+01  0.40038271251E+01  0.20200632538E+02  0.00000000000E+00 0. -1.
</event>
<event>
 7    1  0.2387817E-009  0.4778727E+02  0.7816164E-02  0.1312668E+00
        -11   -1    0    0    0    0  0.00000000000E+00  0.00000000000E+00  0.45593999997E+02  0.45594000000E+02  0.51100000000E-03 0.  1.
         11   -1    0    0    0    0 -0.00000000000E+00 -0.00000000000E+00 -0.45593999997E+02  0.45594000000E+02  0.51100000000E-03 0. -1.
    9900012    2    1    2    0    0  0.30990895869E+01  0.43272722872E+02  0.12208392365E+01  0.47787270174E+02  0.19999996029E+02 0.  0.
         12    1    1    2    0    0 -0.30990895869E+01 -0.43272722872E+02 -0.12208392365E+01  0.43400729826E+02  0.00000000000E+00 0. -1.
         11    1    3    3    0    0 -0.28557013756E+01  0.16949309984E+01  0.17943938544E+01  0.37746087216E+01  0.51100000000E-03 0. -1.
        -11    1    3    3    0    0  0.63669799658E+01  0.11755230901E+02  0.37275761552E+01  0.13878714338E+02  0.51100000000E-03 0.  1.
        -12    1    3    3    0    0 -0.41218900334E+00  0.29822560973E+02 -0.43011307731E+01  0.30133947114E+02  0.00000000000E+00 0.  1.
</event>
<event>
 7    1  0.2387817E-009  0.4778729E+02  0.7816164E-02  0.1312668E+00
        -11   -1    0    0    0    0  0.00000000000E+00  0.00000000000E+00  0.45593999997E+02  0.45594000000E+02  0.51100000000E-03 0. -1.
         11   -1    0    0    0    0 -0.00000000000E+00 -0.00000000000E+00 -0.45593999997E+02  0.45594000000E+02  0.51100000000E-03 0.  1.
    9900012    2    1    2    0    0 -0.21278747755E+02  0.17600472484E+02 -0.33482229653E+02  0.47787292170E+02  0.20000096317E+02 0.  0.
         12    1    1    2    0    0  0.21278747755E+02 -0.17600472484E+02  0.33482229653E+02  0.43400707830E+02  0.00000000000E+00 0. -1.
         11    1    3    3    0    0 -0.10855686935E+01  0.91947055055E+01 -0.12116105167E+02  0.15248641690E+02  0.51100000000E-03 0. -1.
        -11    1    3    3    0    0 -0.47779908217E+01  0.43450094803E+01 -0.78464281374E+00  0.65056873797E+01  0.51100000000E-03 0.  1.
        -12    1    3    3    0    0 -0.15415188240E+02  0.40607574979E+01 -0.20581481672E+02  0.26032963100E+02  0.00000000000E+00 0.  1.
</event>
<event>
 7    1  0.2387817E-009  0.4778727E+02  0.7816164E-02  0.1312668E+00
        -11   -1    0    0    0    0  0.00000000000E+00  0.00000000000E+00  0.45593999997E+02  0.45594000000E+02  0.51100000000E-03 0.  1.
         11   -1    0    0    0    0 -0.00000000000E+00 -0.00000000000E+00 -0.45593999997E+02  0.45594000000E+02  0.51100000000E-03 0. -1.
    9900012    2    1    2    0    0  0.23235579427E+02 -0.27190186610E+02  0.24585054769E+02  0.47787270545E+02  0.19999997724E+02 0.  0.
         12    1    1    2    0    0 -0.23235579427E+02  0.27190186610E+02 -0.24585054769E+02  0.43400729455E+02  0.00000000000E+00 0. -1.
         11    1    3    3    0    0  0.42315275126E+01 -0.13831285093E+02  0.53258438615E+01  0.15413464423E+02  0.51100000000E-03 0. -1.
        -11    1    3    3    0    0  0.18329799378E+02 -0.14931951078E+02  0.19498974644E+02  0.30645631347E+02  0.51100000000E-03 0.  1.
         12    1    3    3    0    0  0.67425253669E+00  0.15730495610E+01 -0.23976373645E+00  0.17281747753E+01  0.00000000000E+00 0. -1.
</event>
<event>
 7    1  0.2387817E-009  0.4778727E+02  0.7816164E-02  0.1312668E+00
        -11   -1    0    0    0    0  0.00000000000E+00  0.00000000000E+00  0.45593999997E+02  0.45594000000E+02  0.51100000000E-03 0.  1.
         11   -1    0    0    0    0 -0.00000000000E+00 -0.00000000000E+00 -0.45593999997E+02  0.45594000000E+02  0.51100000000E-03 0. -1.
    9900012    2    1    2    0    0  0.14796759390E+02  0.38579876862E+02  0.13276754370E+02  0.47787271968E+02  0.20000004210E+02 0.  0.
         12    1    1    2    0    0 -0.14796759390E+02 -0.38579876862E+02 -0.13276754370E+02  0.43400728032E+02  0.00000000000E+00 0. -1.
         11    1    3    3    0    0  0.10300600302E+02  0.18100326209E+02  0.60915441008E+01  0.21698642475E+02  0.51100000000E-03 0.  1.
        -11    1    3    3    0    0  0.23417725816E+01  0.22186571787E+02  0.60571086601E+01  0.23117448649E+02  0.51100000000E-03 0. -1.
        -12    1    3    3    0    0  0.21543865062E+01 -0.17070211333E+01  0.11281016091E+01  0.29711808440E+01  0.00000000000E+00 0.  1.
</event>
<event>
 7    1  0.2387817E-009  0.4778722E+02  0.7816164E-02  0.1312668E+00
        -11   -1    0    0    0    0  0.00000000000E+00  0.00000000000E+00  0.45593999997E+02  0.45594000000E+02  0.51100000000E-03 0. -1.
         11   -1    0    0    0    0 -0.00000000000E+00 -0.00000000000E+00 -0.45593999997E+02  0.45594000000E+02  0.51100000000E-03 0.  1.
    9900012    2    1    2    0    0 -0.20623415553E+02 -0.27374034836E+02 -0.26626385473E+02  0.47787222868E+02  0.19999780343E+02 0.  0.
         12    1    1    2    0    0  0.20623415553E+02  0.27374034836E+02  0.26626385473E+02  0.43400777132E+02  0.00000000000E+00 0. -1.
         11    1    3    3    0    0 -0.14350604807E+01 -0.79601179576E+01 -0.49579649287E+01  0.94870592376E+01  0.51100000000E-03 0. -1.
        -11    1    3    3    0    0 -0.29366278853E+00 -0.85129054585E+01 -0.11291306310E+02  0.14143881915E+02  0.51100000000E-03 0.  1.
        -12    1    3    3    0    0 -0.18894692284E+02 -0.10901011420E+02 -0.10377114235E+02  0.24156281716E+02  0.00000000000E+00 0.  1.
</event>
<event>
 7    1  0.2387817E-009  0.4778727E+02  0.7816164E-02  0.1312668E+00
        -11   -1    0    0    0    0  0.00000000000E+00  0.00000000000E+00  0.45593999997E+02  0.45594000000E+02  0.51100000000E-03 0.  1.
         11   -1    0    0    0    0 -0.00000000000E+00 -0.00000000000E+00 -0.45593999997E+02  0.45594000000E+02  0.51100000000E-03 0. -1.
    9900012    2    1    2    0    0 -0.12292914364E+02 -0.26700817870E+01  0.41537673353E+02  0.47787269731E+02  0.19999994012E+02 0.  0.
         12    1    1    2    0    0  0.12292914364E+02  0.26700817870E+01 -0.41537673353E+02  0.43400730269E+02  0.00000000000E+00 0. -1.
         11    1    3    3    0    0 -0.20336712271E+01  0.37439891972E+01  0.37049784701E+01  0.56462500382E+01  0.51100000000E-03 0. -1.
        -11    1    3    3    0    0 -0.50388628329E+01  0.27370292177E+01  0.48295104062E+01  0.74970419908E+01  0.51100000000E-03 0.  1.
        -12    1    3    3    0    0 -0.52203803039E+01 -0.91511002019E+01  0.33003184477E+02  0.34643977702E+02  0.00000000000E+00 0.  1.
</event>
<event>
 7    1  0.2387817E-009  0.4778727E+02  0.7816164E-02  0.1312668E+00
        -11   -1    0    0    0    0  0.00000000000E+00  0.00000000000E+00  0.45593999997E+02  0.45594000000E+02  0.51100000000E-03 0.  1.
         11   -1    0    0    0    0 -0.00000000000E+00 -0.00000000000E+00 -0.45593999997E+02  0.45594000000E+02  0.51100000000E-03 0. -1.
    9900012    2    1    2    0    0 -0.23019038628E+02  0.35065519995E+02  0.11142551434E+02  0.47787270924E+02  0.19999999450E+02 0.  0.
         12    1    1    2    0    0  0.23019038628E+02 -0.35065519995E+02 -0.11142551434E+02  0.43400729076E+02  0.00000000000E+00 0. -1.
         11    1    3    3    0    0 -0.25835640476E+01 -0.46089083014E+00  0.27551044189E+00  0.26387743007E+01  0.51100000000E-03 0. -1.
        -11    1    3    3    0    0 -0.31971512905E+01  0.16667232010E+02  0.97524872917E+01  0.19573691729E+02  0.51100000000E-03 0.  1.
        -12    1    3    3    0    0 -0.17238323290E+02  0.18859178815E+02  0.11145537009E+01  0.25574804894E+02  0.00000000000E+00 0.  1.
</event>
<event>
 7    1  0.2387817E-009  0.4778727E+02  0.7816164E-02  0.1312668E+00
        -11   -1    0    0    0    0  0.00000000000E+00  0.00000000000E+00  0.45593999997E+02  0.45594000000E+02  0.51100000000E-03 0. -1.
         11   -1    0    0    0    0 -0.00000000000E+00 -0.00000000000E+00 -0.45593999997E+02  0.45594000000E+02  0.51100000000E-03 0.  1.
    9900012    2    1    2    0    0 -0.14976947209E+02  0.20007412246E+02  0.35482647754E+02  0.47787265166E+02  0.19999973200E+02 0.  0.
         12    1    1    2    0    0  0.14976947209E+02 -0.20007412246E+02 -0.35482647754E+02  0.43400734834E+02  0.00000000000E+00 0. -1.
         11    1    3    3    0    0  0.22949633213E+01  0.79059380531E+01  0.18454248436E+02  0.20207176912E+02  0.51100000000E-03 0. -1.
        -11    1    3    3    0    0 -0.17015327103E+01  0.12813113786E+01  0.53128631792E-01  0.21306795455E+01  0.51100000000E-03 0.  1.
        -12    1    3    3    0    0 -0.15570377820E+02  0.10820162814E+02  0.16975270686E+02  0.25449408709E+02  0.00000000000E+00 0.  1.
</event>
<event>
 7    1  0.2459982E-009  0.4778727E+02  0.7816164E-02  0.1312668E+00
        -11   -1    0    0    0    0  0.00000000000E+00  0.00000000000E+00  0.45593999997E+02  0.45594000000E+02  0.51100000000E-03 0. -1.
         11   -1    0    0    0    0 -0.00000000000E+00 -0.00000000000E+00 -0.45593999997E+02  0.45594000000E+02  0.51100000000E-03 0.  1.
    9900012    2    1    2    0    0  0.14336464176E+02  0.13967872539E+01 -0.40940665927E+02  0.47787270211E+02  0.19999996199E+02 0.  0.
         12    1    1    2    0    0 -0.14336464176E+02 -0.13967872539E+01  0.40940665927E+02  0.43400729789E+02  0.00000000000E+00 0. -1.
         11    1    3    3    0    0  0.34875752233E+01 -0.29702574838E+01 -0.15661099731E+02  0.16317342170E+02  0.51100000000E-03 0.  1.
        -11    1    3    3    0    0  0.11587929989E+02 -0.26793409590E-01 -0.24280156934E+02  0.26903658864E+02  0.51100000000E-03 0. -1.
         12    1    3    3    0    0 -0.73904103584E+00  0.43938381473E+01 -0.99940926249E+00  0.45662691764E+01  0.00000000000E+00 0. -1.
</event>
<event>
 7    1  0.2387817E-009  0.4778727E+02  0.7816164E-02  0.1312668E+00
        -11   -1    0    0    0    0  0.00000000000E+00  0.00000000000E+00  0.45593999997E+02  0.45594000000E+02  0.51100000000E-03 0.  1.
         11   -1    0    0    0    0 -0.00000000000E+00 -0.00000000000E+00 -0.45593999997E+02  0.45594000000E+02  0.51100000000E-03 0. -1.
    9900012    2    1    2    0    0  0.15134889470E+02 -0.39343344387E+02  0.10327615710E+02  0.47787271054E+02  0.20000000044E+02 0.  0.
         12    1    1    2    0    0 -0.15134889470E+02  0.39343344387E+02 -0.10327615710E+02  0.43400728946E+02  0.00000000000E+00 0. -1.
         11    1    3    3    0    0 -0.24633112318E+01 -0.32332783364E+01  0.19174471449E+01  0.44942846861E+01  0.51100000000E-03 0.  1.
        -11    1    3    3    0    0  0.40448106671E+01 -0.59445705762E+01  0.72372740840E+01  0.10201791465E+02  0.51100000000E-03 0. -1.
        -12    1    3    3    0    0  0.13553390035E+02 -0.30165495474E+02  0.11728944806E+01  0.33091194903E+02  0.00000000000E+00 0.  1.
</event>
<event>
 7    1  0.2387817E-009  0.4778727E+02  0.7816164E-02  0.1312668E+00
        -11   -1    0    0    0    0  0.00000000000E+00  0.00000000000E+00  0.45593999997E+02  0.45594000000E+02  0.51100000000E-03 0. -1.
         11   -1    0    0    0    0 -0.00000000000E+00 -0.00000000000E+00 -0.45593999997E+02  0.45594000000E+02  0.51100000000E-03 0.  1.
    9900012    2    1    2    0    0  0.72160938966E+01 -0.37633486600E+02 -0.20378228546E+02  0.47787268169E+02  0.19999986889E+02 0.  0.
         12    1    1    2    0    0 -0.72160938966E+01  0.37633486600E+02  0.20378228546E+02  0.43400731831E+02  0.00000000000E+00 0. -1.
         11    1    3    3    0    0  0.71257254571E+01 -0.83681745326E+01 -0.22712181252E+01  0.11223223259E+02  0.51100000000E-03 0. -1.
        -11    1    3    3    0    0  0.26666456412E+01 -0.16195076952E+02 -0.34767157767E+01  0.16777337969E+02  0.51100000000E-03 0.  1.
         12    1    3    3    0    0 -0.25762772017E+01 -0.13070235115E+02 -0.14630294644E+02  0.19786706941E+02  0.00000000000E+00 0. -1.
</event>
<event>
 7    1  0.2387817E-009  0.4778727E+02  0.7816164E-02  0.1312668E+00
        -11   -1    0    0    0    0  0.00000000000E+00  0.00000000000E+00  0.45593999997E+02  0.45594000000E+02  0.51100000000E-03 0.  1.
         11   -1    0    0    0    0 -0.00000000000E+00 -0.00000000000E+00 -0.45593999997E+02  0.45594000000E+02  0.51100000000E-03 0. -1.
    9900012    2    1    2    0    0  0.19202784176E+02  0.28301048704E+02  0.26719414538E+02  0.47787269694E+02  0.19999993844E+02 0.  0.
         12    1    1    2    0    0 -0.19202784176E+02 -0.28301048704E+02 -0.26719414538E+02  0.43400730306E+02  0.00000000000E+00 0. -1.
         11    1    3    3    0    0  0.78919285952E+01  0.55482834805E+01  0.95180007267E+01  0.13552059793E+02  0.51100000000E-03 0. -1.
        -11    1    3    3    0    0  0.88157410640E+01  0.14964346175E+02  0.19124317920E+02  0.25833863109E+02  0.51100000000E-03 0.  1.
         12    1    3    3    0    0  0.24951145163E+01  0.77884190481E+01 -0.19229041089E+01  0.84013467926E+01  0.00000000000E+00 0. -1.
</event>
<event>
 7    1  0.2387817E-009  0.4778729E+02  0.7816164E-02  0.1312668E+00
        -11   -1    0    0    0    0  0.00000000000E+00  0.00000000000E+00  0.45593999997E+02  0.45594000000E+02  0.51100000000E-03 0.  1.
         11   -1    0    0    0    0 -0.00000000000E+00 -0.00000000000E+00 -0.45593999997E+02  0.45594000000E+02  0.51100000000E-03 0. -1.
    9900012    2    1    2    0    0 -0.71448800261E+01 -0.94416483647E+01  0.41754372058E+02  0.47787290094E+02  0.20000086854E+02 0.  0.
         12    1    1    2    0    0  0.71448800261E+01  0.94416483647E+01 -0.41754372058E+02  0.43400709906E+02  0.00000000000E+00 0. -1.
         11    1    3    3    0    0 -0.53119477520E+01 -0.24120381769E+01  0.47372983879E+01  0.75150990255E+01  0.51100000000E-03 0.  1.
        -11    1    3    3    0    0 -0.41130580393E+01 -0.10453438955E+02  0.22002179477E+02  0.24703998349E+02  0.51100000000E-03 0. -1.
         12    1    3    3    0    0  0.22801257652E+01  0.34238287671E+01  0.15014894192E+02  0.15568192719E+02  0.00000000000E+00 0. -1.
</event>
<event>
 7    1  0.2387817E-009  0.4778727E+02  0.7816164E-02  0.1312668E+00
        -11   -1    0    0    0    0  0.00000000000E+00  0.00000000000E+00  0.45593999997E+02  0.45594000000E+02  0.51100000000E-03 0.  1.
         11   -1    0    0    0    0 -0.00000000000E+00 -0.00000000000E+00 -0.45593999997E+02  0.45594000000E+02  0.51100000000E-03 0. -1.
    9900012    2    1    2    0    0  0.98488102194E+01  0.27497949962E+02  0.32101200069E+02  0.47787270044E+02  0.19999995440E+02 0.  0.
         12    1    1    2    0    0 -0.98488102194E+01 -0.27497949962E+02 -0.32101200069E+02  0.43400729956E+02  0.00000000000E+00 0. -1.
         11    1    3    3    0    0  0.23253338570E+01  0.19059343683E+01 -0.22018883835E+00  0.30146719139E+01  0.51100000000E-03 0. -1.
        -11    1    3    3    0    0  0.12116570628E+02  0.14491621882E+02  0.18173618138E+02  0.26212569218E+02  0.51100000000E-03 0.  1.
         12    1    3    3    0    0 -0.45930942652E+01  0.11100393712E+02  0.14147770769E+02  0.18560028912E+02  0.00000000000E+00 0. -1.
</event>
<event>
 7    1  0.2387817E-009  0.4778727E+02  0.7816164E-02  0.1312668E+00
        -11   -1    0    0    0    0  0.00000000000E+00  0.00000000000E+00  0.45593999997E+02  0.45594000000E+02  0.51100000000E-03 0. -1.
         11   -1    0    0    0    0 -0.00000000000E+00 -0.00000000000E+00 -0.45593999997E+02  0.45594000000E+02  0.51100000000E-03 0.  1.
    9900012    2    1    2    0    0  0.42800882624E+02  0.70345932108E+01 -0.14907207444E+01  0.47787270704E+02  0.19999998450E+02 0.  0.
         12    1    1    2    0    0 -0.42800882624E+02 -0.70345932108E+01  0.14907207444E+01  0.43400729296E+02  0.00000000000E+00 0. -1.
         11    1    3    3    0    0  0.29450557620E+02 -0.30561904702E+00  0.49816526847E+01  0.29870480593E+02  0.51100000000E-03 0. -1.
        -11    1    3    3    0    0  0.73771874380E+01  0.31637242475E+00 -0.38683354217E+01  0.83358865877E+01  0.51100000000E-03 0.  1.
         12    1    3    3    0    0  0.59731375660E+01  0.70238398331E+01 -0.26040380074E+01  0.95809035235E+01  0.00000000000E+00 0. -1.
</event>
<event>
 7    1  0.2387817E-009  0.4778727E+02  0.7816164E-02  0.1312668E+00
        -11   -1    0    0    0    0  0.00000000000E+00  0.00000000000E+00  0.45593999997E+02  0.45594000000E+02  0.51100000000E-03 0.  1.
         11   -1    0    0    0    0 -0.00000000000E+00 -0.00000000000E+00 -0.45593999997E+02  0.45594000000E+02  0.51100000000E-03 0. -1.
    9900012    2    1    2    0    0 -0.34774119754E+01 -0.14631641368E+01  0.43236445705E+02  0.47787268664E+02  0.19999989146E+02 0.  0.
         12    1    1    2    0    0  0.34774119754E+01  0.14631641368E+01 -0.43236445705E+02  0.43400731336E+02  0.00000000000E+00 0. -1.
         11    1    3    3    0    0  0.19498775033E+01  0.12534399348E+01  0.61601552423E+01  0.65818422055E+01  0.51100000000E-03 0. -1.
        -11    1    3    3    0    0  0.48479203161E+00  0.61756767177E-01  0.33967515409E+02  0.33971030902E+02  0.51100000000E-03 0.  1.
         12    1    3    3    0    0 -0.59120815104E+01 -0.27783608388E+01  0.31087750538E+01  0.72343955567E+01  0.00000000000E+00 0. -1.
</event>
<event>
 7    1  0.2387817E-009  0.4778727E+02  0.7816164E-02  0.1312668E+00
        -11   -1    0    0    0    0  0.00000000000E+00  0.00000000000E+00  0.45593999997E+02  0.45594000000E+02  0.51100000000E-03 0. -1.
         11   -1    0    0    0    0 -0.00000000000E+00 -0.00000000000E+00 -0.45593999997E+02  0.45594000000E+02  0.51100000000E-03 0.  1.
    9900012    2    1    2    0    0 -0.25880669025E+02 -0.32435960980E+02  0.12717015712E+02  0.47787273249E+02  0.20000010052E+02 0.  0.
         12    1    1    2    0    0  0.25880669025E+02  0.32435960980E+02 -0.12717015712E+02  0.43400726751E+02  0.00000000000E+00 0. -1.
         11    1    3    3    0    0 -0.63735916904E+01 -0.40360144355E+01  0.78492696836E+01  0.10886832339E+02  0.51100000000E-03 0. -1.
        -11    1    3    3    0    0 -0.88896744325E+01 -0.36120850707E+01  0.17652309119E+01  0.97565111853E+01  0.51100000000E-03 0.  1.
        -12    1    3    3    0    0 -0.10617402902E+02 -0.24787861474E+02  0.31025151162E+01  0.27143929724E+02  0.00000000000E+00 0.  1.
</event>
<event>
 7    1  0.2387817E-009  0.4778728E+02  0.7816164E-02  0.1312668E+00
        -11   -1    0    0    0    0  0.00000000000E+00  0.00000000000E+00  0.45593999997E+02  0.45594000000E+02  0.51100000000E-03 0. -1.
         11   -1    0    0    0    0 -0.00000000000E+00 -0.00000000000E+00 -0.45593999997E+02  0.45594000000E+02  0.51100000000E-03 0.  1.
    9900012    2    1    2    0    0  0.20718884438E+02 -0.14367900573E+02 -0.35325826684E+02  0.47787276848E+02  0.20000026459E+02 0.  0.
         12    1    1    2    0    0 -0.20718884438E+02  0.14367900573E+02  0.35325826684E+02  0.43400723152E+02  0.00000000000E+00 0. -1.
         11    1    3    3    0    0  0.17203517885E+01  0.85135878212E+00  0.15045167697E+01  0.24388507588E+01  0.51100000000E-03 0. -1.
        -11    1    3    3    0    0  0.81803541608E+01 -0.74056823004E+01 -0.81584122520E+01  0.13723046865E+02  0.51100000000E-03 0.  1.
         12    1    3    3    0    0  0.10818178488E+02 -0.78135770545E+01 -0.28671931202E+02  0.31625379224E+02  0.00000000000E+00 0. -1.
</event>
<event>
 7    1  0.2387817E-009  0.4778726E+02  0.7816164E-02  0.1312668E+00
        -11   -1    0    0    0    0  0.00000000000E+00  0.00000000000E+00  0.45593999997E+02  0.45594000000E+02  0.51100000000E-03 0. -1.
         11   -1    0    0    0    0 -0.00000000000E+00 -0.00000000000E+00 -0.45593999997E+02  0.45594000000E+02  0.51100000000E-03 0.  1.
    9900012    2    1    2    0    0  0.38991140752E+01 -0.19068593556E+02 -0.38791878762E+02  0.47787260276E+02  0.19999950901E+02 0.  0.
         12    1    1    2    0    0 -0.38991140752E+01  0.19068593556E+02  0.38791878762E+02  0.43400739724E+02  0.00000000000E+00 0. -1.
         11    1    3    3    0    0 -0.89384049509E+00  0.11484226079E+00 -0.20176436489E+01  0.22097569392E+01  0.51100000000E-03 0. -1.
        -11    1    3    3    0    0  0.33763185688E+01 -0.18974296518E+02 -0.38667217905E+02  0.43203902557E+02  0.51100000000E-03 0.  1.
         12    1    3    3    0    0  0.14166360016E+01 -0.20913929839E+00  0.18929827921E+01  0.23736007790E+01  0.00000000000E+00 0. -1.
</event>
<event>
 7    1  0.2387817E-009  0.4778723E+02  0.7816164E-02  0.1312668E+00
        -11   -1    0    0    0    0  0.00000000000E+00  0.00000000000E+00  0.45593999997E+02  0.45594000000E+02  0.51100000000E-03 0.  1.
         11   -1    0    0    0    0 -0.00000000000E+00 -0.00000000000E+00 -0.45593999997E+02  0.45594000000E+02  0.51100000000E-03 0. -1.
    9900012    2    1    2    0    0 -0.25405496724E+02  0.31357319301E+02  0.15965770644E+02  0.47787233073E+02  0.19999826873E+02 0.  0.
         12    1    1    2    0    0  0.25405496724E+02 -0.31357319301E+02 -0.15965770644E+02  0.43400766927E+02  0.00000000000E+00 0. -1.
         11    1    3    3    0    0 -0.10754792800E+02  0.15484317018E+02  0.17698365524E+01  0.18935732449E+02  0.51100000000E-03 0. -1.
        -11    1    3    3    0    0 -0.95723668251E+01  0.12118629404E+02  0.26185380142E+01  0.15663592400E+02  0.51100000000E-03 0.  1.
        -12    1    3    3    0    0 -0.50783370992E+01  0.37543728793E+01  0.11577396077E+02  0.13187908225E+02  0.00000000000E+00 0.  1.
</event>
<event>
 7    1  0.2387817E-009  0.4778728E+02  0.7816164E-02  0.1312668E+00
        -11   -1    0    0    0    0  0.00000000000E+00  0.00000000000E+00  0.45593999997E+02  0.45594000000E+02  0.51100000000E-03 0.  1.
         11   -1    0    0    0    0 -0.00000000000E+00 -0.00000000000E+00 -0.45593999997E+02  0.45594000000E+02  0.51100000000E-03 0. -1.
    9900012    2    1    2    0    0 -0.12042307472E+02 -0.59304439148E+01  0.41272695188E+02  0.47787277629E+02  0.20000030021E+02 0.  0.
         12    1    1    2    0    0  0.12042307472E+02  0.59304439148E+01 -0.41272695188E+02  0.43400722371E+02  0.00000000000E+00 0. -1.
         11    1    3    3    0    0 -0.52498168925E+01 -0.77577451692E+01  0.72322864244E+01  0.11834236549E+02  0.51100000000E-03 0. -1.
        -11    1    3    3    0    0 -0.42036427404E+01  0.25009334892E+01  0.58041553819E+01  0.75903557601E+01  0.51100000000E-03 0.  1.
        -12    1    3    3    0    0 -0.25888478392E+01 -0.67363223480E+00  0.28236253381E+02  0.28362685320E+02  0.00000000000E+00 0.  1.
</event>
<event>
 7    1  0.2387817E-009  0.4778727E+02  0.7816164E-02  0.1312668E+00
        -11   -1    0    0    0    0  0.00000000000E+00  0.00000000000E+00  0.45593999997E+02  0.45594000000E+02  0.51100000000E-03 0. -1.
         11   -1    0    0    0    0 -0.00000000000E+00 -0.00000000000E+00 -0.45593999997E+02  0.45594000000E+02  0.51100000000E-03 0.  1.
    9900012    2    1    2    0    0 -0.39964585536E+02 -0.40704712759E+01  0.16428227669E+02  0.47787268465E+02  0.19999988239E+02 0.  0.
         12    1    1    2    0    0  0.39964585536E+02  0.40704712759E+01 -0.16428227669E+02  0.43400731535E+02  0.00000000000E+00 0. -1.
         11    1    3    3    0    0 -0.53863848732E+01 -0.32046790953E+01 -0.40019385199E+01  0.74363043432E+01  0.51100000000E-03 0. -1.
        -11    1    3    3    0    0 -0.11510919255E+02 -0.17349035209E+01  0.56369348931E+01  0.12933916173E+02  0.51100000000E-03 0.  1.
         12    1    3    3    0    0 -0.23067281407E+02  0.86911134033E+00  0.14793231296E+02  0.27417047949E+02  0.00000000000E+00 0. -1.
</event>
<event>
 7    1  0.2387817E-009  0.4778728E+02  0.7816164E-02  0.1312668E+00
        -11   -1    0    0    0    0  0.00000000000E+00  0.00000000000E+00  0.45593999997E+02  0.45594000000E+02  0.51100000000E-03 0. -1.
         11   -1    0    0    0    0 -0.00000000000E+00 -0.00000000000E+00 -0.45593999997E+02  0.45594000000E+02  0.51100000000E-03 0.  1.
    9900012    2    1    2    0    0 -0.25187597302E+02  0.35342205701E+02  0.36920262484E+00  0.47787275672E+02  0.20000021099E+02 0.  0.
         12    1    1    2    0    0  0.25187597302E+02 -0.35342205701E+02 -0.36920262484E+00  0.43400724328E+02  0.00000000000E+00 0. -1.
         11    1    3    3    0    0 -0.15531788392E+02  0.14391117469E+02  0.71743744552E+01  0.22356483662E+02  0.51100000000E-03 0. -1.
        -11    1    3    3    0    0 -0.51973003482E+01  0.13645418830E+02 -0.17219884136E+00  0.14602706553E+02  0.51100000000E-03 0.  1.
         12    1    3    3    0    0 -0.44585085619E+01  0.73056694013E+01 -0.66329729890E+01  0.10828085457E+02  0.00000000000E+00 0. -1.
</event>
<event>
 7    1  0.2387817E-009  0.4778727E+02  0.7816164E-02  0.1312668E+00
        -11   -1    0    0    0    0  0.00000000000E+00  0.00000000000E+00  0.45593999997E+02  0.45594000000E+02  0.51100000000E-03 0.  1.
         11   -1    0    0    0    0 -0.00000000000E+00 -0.00000000000E+00 -0.45593999997E+02  0.45594000000E+02  0.51100000000E-03 0. -1.
    9900012    2    1    2    0    0 -0.42550471470E+02 -0.24610915304E+00  0.85451922326E+01  0.47787268412E+02  0.19999987999E+02 0.  0.
         12    1    1    2    0    0  0.42550471470E+02  0.24610915304E+00 -0.85451922326E+01  0.43400731588E+02  0.00000000000E+00 0. -1.
         11    1    3    3    0    0 -0.78203167254E+01 -0.34647523747E+00  0.56488557413E+01  0.96533398481E+01  0.51100000000E-03 0. -1.
        -11    1    3    3    0    0 -0.11295411887E+02 -0.50886185984E+01  0.62879916152E+01  0.13893135274E+02  0.51100000000E-03 0.  1.
         12    1    3    3    0    0 -0.23434742858E+02  0.51889846828E+01 -0.33916551238E+01  0.24240793290E+02  0.00000000000E+00 0. -1.
</event>
<event>
 7    1  0.2387817E-009  0.4778726E+02  0.7816164E-02  0.1312668E+00
        -11   -1    0    0    0    0  0.00000000000E+00  0.00000000000E+00  0.45593999997E+02  0.45594000000E+02  0.51100000000E-03 0. -1.
         11   -1    0    0    0    0 -0.00000000000E+00 -0.00000000000E+00 -0.45593999997E+02  0.45594000000E+02  0.51100000000E-03 0.  1.
    9900012    2    1    2    0    0 -0.34348200561E+02 -0.16923289199E+02 -0.20431056014E+02  0.47787255203E+02  0.19999927771E+02 0.  0.
         12    1    1    2    0    0  0.34348200561E+02  0.16923289199E+02  0.20431056014E+02  0.43400744797E+02  0.00000000000E+00 0. -1.
         11    1    3    3    0    0 -0.18130780619E+02 -0.59188913255E+01 -0.17723291167E+02  0.26036004502E+02  0.51100000000E-03 0. -1.
        -11    1    3    3    0    0 -0.93575702385E+01 -0.39829783223E+01 -0.54782117388E+01  0.11551581762E+02  0.51100000000E-03 0.  1.
        -12    1    3    3    0    0 -0.68598497041E+01 -0.70214195509E+01  0.27704468922E+01  0.10199668939E+02  0.00000000000E+00 0.  1.
</event>
<event>
 7    1  0.2387817E-009  0.4778727E+02  0.7816164E-02  0.1312668E+00
        -11   -1    0    0    0    0  0.00000000000E+00  0.00000000000E+00  0.45593999997E+02  0.45594000000E+02  0.51100000000E-03 0.  1.
         11   -1    0    0    0    0 -0.00000000000E+00 -0.00000000000E+00 -0.45593999997E+02  0.45594000000E+02  0.51100000000E-03 0. -1.
    9900012    2    1    2    0    0  0.40419229070E+02  0.69326809319E+01 -0.14207295877E+02  0.47787269595E+02  0.19999993392E+02 0.  0.
         12    1    1    2    0    0 -0.40419229070E+02 -0.69326809319E+01  0.14207295877E+02  0.43400730405E+02  0.00000000000E+00 0. -1.
         11    1    3    3    0    0  0.12243360160E+02 -0.25224049976E+01 -0.10490423390E+01  0.12544436419E+02  0.51100000000E-03 0. -1.
        -11    1    3    3    0    0  0.22561349128E+02  0.10833186179E+01 -0.97532149017E+01  0.24603114739E+02  0.51100000000E-03 0.  1.
         12    1    3    3    0    0  0.56145197829E+01  0.83717673117E+01 -0.34050386366E+01  0.10639718438E+02  0.00000000000E+00 0. -1.
</event>
<event>
 7    1  0.2387817E-009  0.4778726E+02  0.7816164E-02  0.1312668E+00
        -11   -1    0    0    0    0  0.00000000000E+00  0.00000000000E+00  0.45593999997E+02  0.45594000000E+02  0.51100000000E-03 0.  1.
         11   -1    0    0    0    0 -0.00000000000E+00 -0.00000000000E+00 -0.45593999997E+02  0.45594000000E+02  0.51100000000E-03 0. -1.
    9900012    2    1    2    0    0  0.85822532995E+01 -0.88277241561E+01  0.41617786331E+02  0.47787263548E+02  0.19999965822E+02 0.  0.
         12    1    1    2    0    0 -0.85822532995E+01  0.88277241561E+01 -0.41617786331E+02  0.43400736452E+02  0.00000000000E+00 0. -1.
         11    1    3    3    0    0  0.67458556456E+01 -0.20925176237E+00  0.50014560341E+01  0.84002926981E+01  0.51100000000E-03 0. -1.
        -11    1    3    3    0    0  0.59113513582E+01 -0.83617573929E+01  0.28837010700E+02  0.30601245856E+02  0.51100000000E-03 0.  1.
        -12    1    3    3    0    0 -0.40749537043E+01 -0.25671500083E+00  0.77793195967E+01  0.87857249941E+01  0.00000000000E+00 0.  1.
</event>
<event>
 7    1  0.2484304E-009  0.4778727E+02  0.7816164E-02  0.1312668E+00
        -11   -1    0    0    0    0  0.00000000000E+00  0.00000000000E+00  0.45593999997E+02  0.45594000000E+02  0.51100000000E-03 0. -1.
         11   -1    0    0    0    0 -0.00000000000E+00 -0.00000000000E+00 -0.45593999997E+02  0.45594000000E+02  0.51100000000E-03 0.  1.
    9900012    2    1    2    0    0  0.23470895603E+02  0.11206828172E+02 -0.34744023725E+02  0.47787272787E+02  0.20000007943E+02 0.  0.
         12    1    1    2    0    0 -0.23470895603E+02 -0.11206828172E+02  0.34744023725E+02  0.43400727213E+02  0.00000000000E+00 0. -1.
         11    1    3    3    0    0  0.34125663818E+01  0.63909794061E+01 -0.65240876822E+01  0.97495613966E+01  0.51100000000E-03 0. -1.
        -11    1    3    3    0    0  0.54115825365E+01  0.59494321324E+01 -0.19156504565E+02  0.20776251723E+02  0.51100000000E-03 0.  1.
         12    1    3    3    0    0  0.14646746684E+02 -0.11335833661E+01 -0.90634314771E+01  0.17261459667E+02  0.00000000000E+00 0. -1.
</event>
<event>
 7    1  0.2387817E-009  0.4778729E+02  0.7816164E-02  0.1312668E+00
        -11   -1    0    0    0    0  0.00000000000E+00  0.00000000000E+00  0.45593999997E+02  0.45594000000E+02  0.51100000000E-03 0.  1.
         11   -1    0    0    0    0 -0.00000000000E+00 -0.00000000000E+00 -0.45593999997E+02  0.45594000000E+02  0.51100000000E-03 0. -1.
    9900012    2    1    2    0    0 -0.41869146737E+02 -0.11371135335E+02  0.11374619201E+01  0.47787285871E+02  0.20000067598E+02 0.  0.
         12    1    1    2    0    0  0.41869146737E+02  0.11371135335E+02 -0.11374619201E+01  0.43400714129E+02  0.00000000000E+00 0. -1.
         11    1    3    3    0    0 -0.16553738557E+02 -0.68771428948E+01 -0.24610086910E+01  0.18093587777E+02  0.51100000000E-03 0. -1.
        -11    1    3    3    0    0 -0.21174035268E+02 -0.75634521787E+01  0.69632150478E+01  0.23537883134E+02  0.51100000000E-03 0.  1.
         12    1    3    3    0    0 -0.41413729131E+01  0.30694597388E+01 -0.33647444366E+01  0.61558149596E+01  0.00000000000E+00 0. -1.
</event>
<event>
 7    1  0.2387817E-009  0.4778727E+02  0.7816164E-02  0.1312668E+00
        -11   -1    0    0    0    0  0.00000000000E+00  0.00000000000E+00  0.45593999997E+02  0.45594000000E+02  0.51100000000E-03 0. -1.
         11   -1    0    0    0    0 -0.00000000000E+00 -0.00000000000E+00 -0.45593999997E+02  0.45594000000E+02  0.51100000000E-03 0.  1.
    9900012    2    1    2    0    0 -0.10768358822E+02  0.36481009541E+02 -0.20899807649E+02  0.47787267649E+02  0.19999984517E+02 0.  0.
         12    1    1    2    0    0  0.10768358822E+02 -0.36481009541E+02  0.20899807649E+02  0.43400732351E+02  0.00000000000E+00 0. -1.
         11    1    3    3    0    0  0.77128615129E+00  0.18583235015E+02 -0.69238895347E+01  0.19846202471E+02  0.51100000000E-03 0. -1.
        -11    1    3    3    0    0 -0.35771563486E+00  0.11104035351E+02 -0.65303120896E+01  0.12886913432E+02  0.51100000000E-03 0.  1.
         12    1    3    3    0    0 -0.11181929339E+02  0.67937391749E+01 -0.74456060246E+01  0.15054151746E+02  0.00000000000E+00 0. -1.
</event>
<event>
 7    1  0.2387817E-009  0.4778727E+02  0.7816164E-02  0.1312668E+00
        -11   -1    0    0    0    0  0.00000000000E+00  0.00000000000E+00  0.45593999997E+02  0.45594000000E+02  0.51100000000E-03 0.  1.
         11   -1    0    0    0    0 -0.00000000000E+00 -0.00000000000E+00 -0.45593999997E+02  0.45594000000E+02  0.51100000000E-03 0. -1.
    9900012    2    1    2    0    0  0.33836941246E+02  0.20169921092E+02  0.18217006421E+02  0.47787266911E+02  0.19999981152E+02 0.  0.
         12    1    1    2    0    0 -0.33836941246E+02 -0.20169921092E+02 -0.18217006421E+02  0.43400733089E+02  0.00000000000E+00 0. -1.
         11    1    3    3    0    0  0.27735873835E+02  0.10046967085E+02  0.10288955712E+02  0.31242324736E+02  0.51100000000E-03 0. -1.
        -11    1    3    3    0    0  0.58744095902E+01  0.41005787234E+01  0.76952404940E+01  0.10513808084E+02  0.51100000000E-03 0.  1.
         12    1    3    3    0    0  0.22665782053E+00  0.60223752835E+01  0.23281021526E+00  0.60311340906E+01  0.00000000000E+00 0. -1.
</event>
<event>
 7    1  0.2387817E-009  0.4778726E+02  0.7816164E-02  0.1312668E+00
        -11   -1    0    0    0    0  0.00000000000E+00  0.00000000000E+00  0.45593999997E+02  0.45594000000E+02  0.51100000000E-03 0.  1.
         11   -1    0    0    0    0 -0.00000000000E+00 -0.00000000000E+00 -0.45593999997E+02  0.45594000000E+02  0.51100000000E-03 0. -1.
    9900012    2    1    2    0    0 -0.38242502772E+01 -0.19742208286E+02  0.38460949225E+02  0.47787259298E+02  0.19999946445E+02 0.  0.
         12    1    1    2    0    0  0.38242502772E+01  0.19742208286E+02 -0.38460949225E+02  0.43400740702E+02  0.00000000000E+00 0. -1.
         11    1    3    3    0    0 -0.34982560350E+01 -0.11043342480E+02  0.11064523615E+02  0.16019266260E+02  0.51100000000E-03 0. -1.
        -11    1    3    3    0    0  0.28549393755E+01 -0.11490360558E+02  0.20679184713E+02  0.23828716819E+02  0.51100000000E-03 0.  1.
         12    1    3    3    0    0 -0.31809336177E+01  0.27914947516E+01  0.67172408966E+01  0.79392762196E+01  0.00000000000E+00 0. -1.
</event>
<event>
 7    1  0.2387817E-009  0.4778727E+02  0.7816164E-02  0.1312668E+00
        -11   -1    0    0    0    0  0.00000000000E+00  0.00000000000E+00  0.45593999997E+02  0.45594000000E+02  0.51100000000E-03 0.  1.
         11   -1    0    0    0    0 -0.00000000000E+00 -0.00000000000E+00 -0.45593999997E+02  0.45594000000E+02  0.51100000000E-03 0. -1.
    9900012    2    1    2    0    0  0.43314658557E+02 -0.42385745939E+00 -0.26988566980E+01  0.47787272718E+02  0.20000007633E+02 0.  0.
         12    1    1    2    0    0 -0.43314658557E+02  0.42385745939E+00  0.26988566980E+01  0.43400727282E+02  0.00000000000E+00 0. -1.
         11    1    3    3    0    0  0.64523482458E+00 -0.11159019637E+01 -0.13975737664E+01  0.19012569172E+01  0.51100000000E-03 0. -1.
        -11    1    3    3    0    0  0.15429585065E+02  0.81061414578E+01  0.16201194567E+01  0.17504468342E+02  0.51100000000E-03 0.  1.
         12    1    3    3    0    0  0.27239838668E+02 -0.74140969535E+01 -0.29214023882E+01  0.28381547460E+02  0.00000000000E+00 0. -1.
</event>
<event>
 7    1  0.2387817E-009  0.4778725E+02  0.7816164E-02  0.1312668E+00
        -11   -1    0    0    0    0  0.00000000000E+00  0.00000000000E+00  0.45593999997E+02  0.45594000000E+02  0.51100000000E-03 0.  1.
         11   -1    0    0    0    0 -0.00000000000E+00 -0.00000000000E+00 -0.45593999997E+02  0.45594000000E+02  0.51100000000E-03 0. -1.
    9900012    2    1    2    0    0 -0.31846339794E+02  0.29480828327E+02  0.56289246044E+00  0.47787246031E+02  0.19999885954E+02 0.  0.
         12    1    1    2    0    0  0.31846339794E+02 -0.29480828327E+02 -0.56289246044E+00  0.43400753969E+02  0.00000000000E+00 0. -1.
         11    1    3    3    0    0 -0.23756276043E+01  0.13003488765E+01 -0.16947914149E+00  0.27135285433E+01  0.51100000000E-03 0. -1.
        -11    1    3    3    0    0 -0.28883123441E+02  0.19831261029E+02 -0.43136373345E+01  0.35300441938E+02  0.51100000000E-03 0.  1.
         12    1    3    3    0    0 -0.58758874950E+00  0.83492184216E+01  0.50460089365E+01  0.97732755500E+01  0.00000000000E+00 0. -1.
</event>
<event>
 7    1  0.2387817E-009  0.4778726E+02  0.7816164E-02  0.1312668E+00
        -11   -1    0    0    0    0  0.00000000000E+00  0.00000000000E+00  0.45593999997E+02  0.45594000000E+02  0.51100000000E-03 0.  1.
         11   -1    0    0    0    0 -0.00000000000E+00 -0.00000000000E+00 -0.45593999997E+02  0.45594000000E+02  0.51100000000E-03 0. -1.
    9900012    2    1    2    0    0 -0.27237589477E+02 -0.28100580856E+02  0.18764201117E+02  0.47787260738E+02  0.19999953009E+02 0.  0.
         12    1    1    2    0    0  0.27237589477E+02  0.28100580856E+02 -0.18764201117E+02  0.43400739262E+02  0.00000000000E+00 0. -1.
         11    1    3    3    0    0 -0.18261503838E+01 -0.49568211484E+01  0.77364571379E+01  0.93679064058E+01  0.51100000000E-03 0. -1.
        -11    1    3    3    0    0 -0.33143885835E+01 -0.37118650980E+01  0.71903528158E+01  0.87443860885E+01  0.51100000000E-03 0.  1.
        -12    1    3    3    0    0 -0.22097050509E+02 -0.19431894610E+02  0.38373911630E+01  0.29674968244E+02  0.00000000000E+00 0.  1.
</event>
<event>
 7    1  0.2387817E-009  0.4778727E+02  0.7816164E-02  0.1312668E+00
        -11   -1    0    0    0    0  0.00000000000E+00  0.00000000000E+00  0.45593999997E+02  0.45594000000E+02  0.51100000000E-03 0.  1.
         11   -1    0    0    0    0 -0.00000000000E+00 -0.00000000000E+00 -0.45593999997E+02  0.45594000000E+02  0.51100000000E-03 0. -1.
    9900012    2    1    2    0    0 -0.28101790114E+02  0.38493972411E+01  0.32849578937E+02  0.47787270708E+02  0.19999998466E+02 0.  0.
         12    1    1    2    0    0  0.28101790114E+02 -0.38493972411E+01 -0.32849578937E+02  0.43400729292E+02  0.00000000000E+00 0. -1.
         11    1    3    3    0    0  0.16876686655E+01 -0.10379765862E+01  0.22021494949E+01  0.29622767556E+01  0.51100000000E-03 0. -1.
        -11    1    3    3    0    0 -0.12024126969E+02  0.51550025371E+01  0.20629326708E+02  0.24427910292E+02  0.51100000000E-03 0.  1.
         12    1    3    3    0    0 -0.17765331811E+02 -0.26762870985E+00  0.10018102734E+02  0.20397083661E+02  0.00000000000E+00 0. -1.
</event>
<event>
 7    1  0.2387817E-009  0.4778727E+02  0.7816164E-02  0.1312668E+00
        -11   -1    0    0    0    0  0.00000000000E+00  0.00000000000E+00  0.45593999997E+02  0.45594000000E+02  0.51100000000E-03 0.  1.
         11   -1    0    0    0    0 -0.00000000000E+00 -0.00000000000E+00 -0.45593999997E+02  0.45594000000E+02  0.51100000000E-03 0. -1.
    9900012    2    1    2    0    0  0.13901298537E+02 -0.13718760259E+02  0.38757875314E+02  0.47787269788E+02  0.19999994272E+02 0.  0.
         12    1    1    2    0    0 -0.13901298537E+02  0.13718760259E+02 -0.38757875314E+02  0.43400730212E+02  0.00000000000E+00 0. -1.
         11    1    3    3    0    0 -0.17264781655E+01 -0.49389840552E+01  0.94354633726E+01  0.10788987889E+02  0.51100000000E-03 0.  1.
        -11    1    3    3    0    0  0.36662053873E+01  0.31005408510E+01  0.27622117692E+01  0.55393347642E+01  0.51100000000E-03 0. -1.
        -12    1    3    3    0    0  0.11961571315E+02 -0.11880317055E+02  0.26560200172E+02  0.31458947135E+02  0.00000000000E+00 0.  1.
</event>
<event>
 7    1  0.2387817E-009  0.4778724E+02  0.7816164E-02  0.1312668E+00
        -11   -1    0    0    0    0  0.00000000000E+00  0.00000000000E+00  0.45593999997E+02  0.45594000000E+02  0.51100000000E-03 0.  1.
         11   -1    0    0    0    0 -0.00000000000E+00 -0.00000000000E+00 -0.45593999997E+02  0.45594000000E+02  0.51100000000E-03 0. -1.
    9900012    2    1    2    0    0 -0.43022255855E+00 -0.86608831124E+01  0.42525637368E+02  0.47787241697E+02  0.19999866192E+02 0.  0.
         12    1    1    2    0    0  0.43022255855E+00  0.86608831124E+01 -0.42525637368E+02  0.43400758303E+02  0.00000000000E+00 0. -1.
         11    1    3    3    0    0 -0.52382684036E+01  0.11449363446E+01  0.12010656680E+02  0.13153182476E+02  0.51100000000E-03 0. -1.
        -11    1    3    3    0    0 -0.22979645851E+01 -0.80756651677E+01  0.11327421166E+02  0.14099910626E+02  0.51100000000E-03 0.  1.
        -12    1    3    3    0    0  0.71060104302E+01 -0.17301542893E+01  0.19187559522E+02  0.20534148595E+02  0.00000000000E+00 0.  1.
</event>
<event>
 7    1  0.2490818E-009  0.4778727E+02  0.7816164E-02  0.1312668E+00
        -11   -1    0    0    0    0  0.00000000000E+00  0.00000000000E+00  0.45593999997E+02  0.45594000000E+02  0.51100000000E-03 0. -1.
         11   -1    0    0    0    0 -0.00000000000E+00 -0.00000000000E+00 -0.45593999997E+02  0.45594000000E+02  0.51100000000E-03 0.  1.
    9900012    2    1    2    0    0 -0.38033716680E+02 -0.95590748621E+01 -0.18592571090E+02  0.47787271706E+02  0.20000003016E+02 0.  0.
         12    1    1    2    0    0  0.38033716680E+02  0.95590748621E+01  0.18592571090E+02  0.43400728294E+02  0.00000000000E+00 0. -1.
         11    1    3    3    0    0  0.17154993170E+00 -0.51447414608E+00 -0.38161886495E+01  0.38545309826E+01  0.51100000000E-03 0. -1.
        -11    1    3    3    0    0 -0.19171255318E+02 -0.10176917170E+02 -0.11573933671E+02  0.24598020539E+02  0.51100000000E-03 0.  1.
         12    1    3    3    0    0 -0.19034011294E+02  0.11323164541E+01 -0.32024487696E+01  0.19334720184E+02  0.00000000000E+00 0. -1.
</event>
<event>
 7    1  0.2387817E-009  0.4778727E+02  0.7816164E-02  0.1312668E+00
        -11   -1    0    0    0    0  0.00000000000E+00  0.00000000000E+00  0.45593999997E+02  0.45594000000E+02  0.51100000000E-03 0. -1.
         11   -1    0    0    0    0 -0.00000000000E+00 -0.00000000000E+00 -0.45593999997E+02  0.45594000000E+02  0.51100000000E-03 0.  1.
    9900012    2    1    2    0    0 -0.85215661243E+01  0.41531058299E+02 -0.92831880021E+01  0.47787268760E+02  0.19999989586E+02 0.  0.
         12    1    1    2    0    0  0.85215661243E+01 -0.41531058299E+02  0.92831880021E+01  0.43400731240E+02  0.00000000000E+00 0. -1.
         11    1    3    3    0    0  0.19686859273E+01  0.17047528931E+02 -0.25668707159E+01  0.17351737448E+02  0.51100000000E-03 0. -1.
        -11    1    3    3    0    0 -0.38694243190E+01  0.16094418964E+02 -0.98959161089E+01  0.19285536608E+02  0.51100000000E-03 0.  1.
         12    1    3    3    0    0 -0.66208277327E+01  0.83891104045E+01  0.31795988227E+01  0.11149994705E+02  0.00000000000E+00 0. -1.
</event>
<event>
 7    1  0.2387817E-009  0.4778727E+02  0.7816164E-02  0.1312668E+00
        -11   -1    0    0    0    0  0.00000000000E+00  0.00000000000E+00  0.45593999997E+02  0.45594000000E+02  0.51100000000E-03 0. -1.
         11   -1    0    0    0    0 -0.00000000000E+00 -0.00000000000E+00 -0.45593999997E+02  0.45594000000E+02  0.51100000000E-03 0.  1.
    9900012    2    1    2    0    0  0.34600322884E+02 -0.25772223042E+02 -0.47152409065E+01  0.47787270501E+02  0.19999997523E+02 0.  0.
         12    1    1    2    0    0 -0.34600322884E+02  0.25772223042E+02  0.47152409065E+01  0.43400729499E+02  0.00000000000E+00 0. -1.
         11    1    3    3    0    0  0.40828580788E+01 -0.66522641369E+01 -0.38310350804E+01  0.86947787946E+01  0.51100000000E-03 0. -1.
        -11    1    3    3    0    0  0.15817270384E+02 -0.13350842916E+02 -0.74385319899E+01  0.21994608598E+02  0.51100000000E-03 0.  1.
        -12    1    3    3    0    0  0.14700194422E+02 -0.57691159892E+01  0.65543261638E+01  0.17097883109E+02  0.00000000000E+00 0.  1.
</event>
<event>
 7    1  0.2387817E-009  0.4778727E+02  0.7816164E-02  0.1312668E+00
        -11   -1    0    0    0    0  0.00000000000E+00  0.00000000000E+00  0.45593999997E+02  0.45594000000E+02  0.51100000000E-03 0.  1.
         11   -1    0    0    0    0 -0.00000000000E+00 -0.00000000000E+00 -0.45593999997E+02  0.45594000000E+02  0.51100000000E-03 0. -1.
    9900012    2    1    2    0    0 -0.54882514394E+01  0.22137398713E+02  0.36924761970E+02  0.47787269912E+02  0.19999994835E+02 0.  0.
         12    1    1    2    0    0  0.54882514394E+01 -0.22137398713E+02 -0.36924761970E+02  0.43400730088E+02  0.00000000000E+00 0. -1.
         11    1    3    3    0    0 -0.57781828932E+01  0.81710284140E+01  0.10180740971E+02  0.14275874400E+02  0.51100000000E-03 0. -1.
        -11    1    3    3    0    0 -0.18742844008E+01  0.70612423290E+01  0.25030573839E+02  0.26074963322E+02  0.51100000000E-03 0.  1.
         12    1    3    3    0    0  0.21642158546E+01  0.69051279703E+01  0.17134471594E+01  0.74364321902E+01  0.00000000000E+00 0. -1.
</event>
<event>
 7    1  0.2387817E-009  0.4778727E+02  0.7816164E-02  0.1312668E+00
        -11   -1    0    0    0    0  0.00000000000E+00  0.00000000000E+00  0.45593999997E+02  0.45594000000E+02  0.51100000000E-03 0.  1.
         11   -1    0    0    0    0 -0.00000000000E+00 -0.00000000000E+00 -0.45593999997E+02  0.45594000000E+02  0.51100000000E-03 0. -1.
    9900012    2    1    2    0    0 -0.31519771771E+02 -0.25228177928E+02  0.15926899807E+02  0.47787272914E+02  0.20000008525E+02 0.  0.
         12    1    1    2    0    0  0.31519771771E+02  0.25228177928E+02 -0.15926899807E+02  0.43400727086E+02  0.00000000000E+00 0. -1.
         11    1    3    3    0    0 -0.22853350544E+02 -0.94820674154E+01  0.27467017706E+01  0.24894368930E+02  0.51100000000E-03 0. -1.
        -11    1    3    3    0    0 -0.33893715488E+01 -0.30251651040E+01  0.13555499697E+01  0.47409892832E+01  0.51100000000E-03 0.  1.
        -12    1    3    3    0    0 -0.52770496789E+01 -0.12720945409E+02  0.11824648067E+02  0.18151914701E+02  0.00000000000E+00 0.  1.
</event>
<event>
 7    1  0.2387817E-009  0.4778727E+02  0.7816164E-02  0.1312668E+00
        -11   -1    0    0    0    0  0.00000000000E+00  0.00000000000E+00  0.45593999997E+02  0.45594000000E+02  0.51100000000E-03 0.  1.
         11   -1    0    0    0    0 -0.00000000000E+00 -0.00000000000E+00 -0.45593999997E+02  0.45594000000E+02  0.51100000000E-03 0. -1.
    9900012    2    1    2    0    0  0.40336187697E+02 -0.12333930965E+02  0.10222010096E+02  0.47787269806E+02  0.19999994355E+02 0.  0.
         12    1    1    2    0    0 -0.40336187697E+02  0.12333930965E+02 -0.10222010096E+02  0.43400730194E+02  0.00000000000E+00 0. -1.
         11    1    3    3    0    0  0.11211948329E+02 -0.37608950286E+01  0.56480617966E+01  0.13105446160E+02  0.51100000000E-03 0.  1.
        -11    1    3    3    0    0  0.29118039488E+02 -0.10025740854E+02  0.98661759962E+00  0.30811509503E+02  0.51100000000E-03 0. -1.
         12    1    3    3    0    0  0.61998794218E-02  0.14527049177E+01  0.35873306993E+01  0.38703141426E+01  0.00000000000E+00 0. -1.
</event>
<event>
 7    1  0.2387817E-009  0.4778727E+02  0.7816164E-02  0.1312668E+00
        -11   -1    0    0    0    0  0.00000000000E+00  0.00000000000E+00  0.45593999997E+02  0.45594000000E+02  0.51100000000E-03 0.  1.
         11   -1    0    0    0    0 -0.00000000000E+00 -0.00000000000E+00 -0.45593999997E+02  0.45594000000E+02  0.51100000000E-03 0. -1.
    9900012    2    1    2    0    0 -0.29195037802E+01 -0.47704085152E+01  0.43038854555E+02  0.47787270731E+02  0.19999998569E+02 0.  0.
         12    1    1    2    0    0  0.29195037802E+01  0.47704085152E+01 -0.43038854555E+02  0.43400729269E+02  0.00000000000E+00 0. -1.
         11    1    3    3    0    0 -0.94981178229E+00  0.18688218474E+01 -0.78447371679E+00  0.22383111474E+01  0.51100000000E-03 0. -1.
        -11    1    3    3    0    0 -0.10594541992E+01  0.19009152296E+01  0.23795371522E+01  0.32246114852E+01  0.51100000000E-03 0.  1.
        -12    1    3    3    0    0 -0.91023779870E+00 -0.85401455923E+01  0.41443791119E+02  0.42324348098E+02  0.00000000000E+00 0.  1.
</event>
<event>
 7    1  0.2387817E-009  0.4778726E+02  0.7816164E-02  0.1312668E+00
        -11   -1    0    0    0    0  0.00000000000E+00  0.00000000000E+00  0.45593999997E+02  0.45594000000E+02  0.51100000000E-03 0.  1.
         11   -1    0    0    0    0 -0.00000000000E+00 -0.00000000000E+00 -0.45593999997E+02  0.45594000000E+02  0.51100000000E-03 0. -1.
    9900012    2    1    2    0    0 -0.28446590591E+02  0.70287916275E+01  0.32015803334E+02  0.47787261629E+02  0.19999957072E+02 0.  0.
         12    1    1    2    0    0  0.28446590591E+02 -0.70287916275E+01 -0.32015803334E+02  0.43400738371E+02  0.00000000000E+00 0. -1.
         11    1    3    3    0    0 -0.76663022692E+01  0.27970289887E+01  0.12281258982E+02  0.14745334316E+02  0.51100000000E-03 0. -1.
        -11    1    3    3    0    0 -0.17182798432E+02  0.54374347852E+01  0.22141079010E+02  0.28548934113E+02  0.51100000000E-03 0.  1.
         12    1    3    3    0    0 -0.35974898897E+01 -0.12056721463E+01 -0.24065346583E+01  0.44929931997E+01  0.00000000000E+00 0. -1.
</event>
<event>
 7    1  0.2387817E-009  0.4778727E+02  0.7816164E-02  0.1312668E+00
        -11   -1    0    0    0    0  0.00000000000E+00  0.00000000000E+00  0.45593999997E+02  0.45594000000E+02  0.51100000000E-03 0. -1.
         11   -1    0    0    0    0 -0.00000000000E+00 -0.00000000000E+00 -0.45593999997E+02  0.45594000000E+02  0.51100000000E-03 0.  1.
    9900012    2    1    2    0    0 -0.35393621254E+02 -0.23511385148E+02 -0.88390972020E+01  0.47787270784E+02  0.19999998814E+02 0.  0.
         12    1    1    2    0    0  0.35393621254E+02  0.23511385148E+02  0.88390972020E+01  0.43400729216E+02  0.00000000000E+00 0. -1.
         11    1    3    3    0    0 -0.11835007384E+01 -0.22590607217E+01 -0.49392475179E+01  0.55587944418E+01  0.51100000000E-03 0. -1.
        -11    1    3    3    0    0 -0.18141178750E+02 -0.10744051790E+02 -0.80792411812E+01  0.22578998066E+02  0.51100000000E-03 0.  1.
         12    1    3    3    0    0 -0.16068941766E+02 -0.10508272637E+02  0.41793914971E+01  0.19649478277E+02  0.00000000000E+00 0. -1.
</event>
<event>
 7    1  0.2387817E-009  0.4778727E+02  0.7816164E-02  0.1312668E+00
        -11   -1    0    0    0    0  0.00000000000E+00  0.00000000000E+00  0.45593999997E+02  0.45594000000E+02  0.51100000000E-03 0.  1.
         11   -1    0    0    0    0 -0.00000000000E+00 -0.00000000000E+00 -0.45593999997E+02  0.45594000000E+02  0.51100000000E-03 0. -1.
    9900012    2    1    2    0    0  0.13058734262E+02 -0.22957441609E+02  0.34439056782E+02  0.47787270769E+02  0.19999998742E+02 0.  0.
         12    1    1    2    0    0 -0.13058734262E+02  0.22957441609E+02 -0.34439056782E+02  0.43400729231E+02  0.00000000000E+00 0. -1.
         11    1    3    3    0    0  0.16213587933E+01  0.20506415900E+01  0.35235022568E+01  0.43873686513E+01  0.51100000000E-03 0. -1.
        -11    1    3    3    0    0  0.14144948263E+01 -0.97908964531E+01  0.35243611961E+01  0.10501598501E+02  0.51100000000E-03 0.  1.
        -12    1    3    3    0    0  0.10022880642E+02 -0.15217186746E+02  0.27391193329E+02  0.32898303617E+02  0.00000000000E+00 0.  1.
</event>
<event>
 7    1  0.2387817E-009  0.4778728E+02  0.7816164E-02  0.1312668E+00
        -11   -1    0    0    0    0  0.00000000000E+00  0.00000000000E+00  0.45593999997E+02  0.45594000000E+02  0.51100000000E-03 0.  1.
         11   -1    0    0    0    0 -0.00000000000E+00 -0.00000000000E+00 -0.45593999997E+02  0.45594000000E+02  0.51100000000E-03 0. -1.
    9900012    2    1    2    0    0  0.42137572796E+02  0.79474758174E+01  0.66996609294E+01  0.47787275702E+02  0.20000021235E+02 0.  0.
         12    1    1    2    0    0 -0.42137572796E+02 -0.79474758174E+01 -0.66996609294E+01  0.43400724298E+02  0.00000000000E+00 0. -1.
         11    1    3    3    0    0  0.96991775712E+01 -0.19918224958E+01 -0.26865170718E+01  0.10259570003E+02  0.51100000000E-03 0. -1.
        -11    1    3    3    0    0  0.19436968106E+02 -0.39530610566E+00  0.27156472456E+01  0.19629741116E+02  0.51100000000E-03 0.  1.
         12    1    3    3    0    0  0.13001427119E+02  0.10334604419E+02  0.66705307556E+01  0.17897964583E+02  0.00000000000E+00 0. -1.
</event>
<event>
 7    1  0.2387817E-009  0.4778728E+02  0.7816164E-02  0.1312668E+00
        -11   -1    0    0    0    0  0.00000000000E+00  0.00000000000E+00  0.45593999997E+02  0.45594000000E+02  0.51100000000E-03 0.  1.
         11   -1    0    0    0    0 -0.00000000000E+00 -0.00000000000E+00 -0.45593999997E+02  0.45594000000E+02  0.51100000000E-03 0. -1.
    9900012    2    1    2    0    0 -0.12476170277E+02  0.17461168987E+02  0.37723664776E+02  0.47787284207E+02  0.20000060014E+02 0.  0.
         12    1    1    2    0    0  0.12476170277E+02 -0.17461168987E+02 -0.37723664776E+02  0.43400715793E+02  0.00000000000E+00 0. -1.
         11    1    3    3    0    0 -0.87786332575E+00  0.69573844565E+01  0.70123642350E+01  0.99171112185E+01  0.51100000000E-03 0. -1.
        -11    1    3    3    0    0 -0.29407336946E+01  0.57900100214E+01  0.26265447357E+02  0.27056345944E+02  0.51100000000E-03 0.  1.
        -12    1    3    3    0    0 -0.86575732565E+01  0.47137745093E+01  0.44458531837E+01  0.10813827045E+02  0.00000000000E+00 0.  1.
</event>
<event>
 7    1  0.2387817E-009  0.4778727E+02  0.7816164E-02  0.1312668E+00
        -11   -1    0    0    0    0  0.00000000000E+00  0.00000000000E+00  0.45593999997E+02  0.45594000000E+02  0.51100000000E-03 0.  1.
         11   -1    0    0    0    0 -0.00000000000E+00 -0.00000000000E+00 -0.45593999997E+02  0.45594000000E+02  0.51100000000E-03 0. -1.
    9900012    2    1    2    0    0  0.14647374946E+02 -0.38585217014E+02  0.13426041696E+02  0.47787272352E+02  0.20000005960E+02 0.  0.
         12    1    1    2    0    0 -0.14647374946E+02  0.38585217014E+02 -0.13426041696E+02  0.43400727648E+02  0.00000000000E+00 0. -1.
         11    1    3    3    0    0 -0.10435257284E+01 -0.21899231562E+01 -0.56749790157E+00  0.24913376939E+01  0.51100000000E-03 0. -1.
        -11    1    3    3    0    0 -0.34478151531E+01 -0.31435798992E+01  0.86243024388E+00  0.47448192905E+01  0.51100000000E-03 0.  1.
         12    1    3    3    0    0  0.19138715828E+02 -0.33251713958E+02  0.13131109353E+02  0.40551115367E+02  0.00000000000E+00 0. -1.
</event>
<event>
 7    1  0.2387817E-009  0.4778727E+02  0.7816164E-02  0.1312668E+00
        -11   -1    0    0    0    0  0.00000000000E+00  0.00000000000E+00  0.45593999997E+02  0.45594000000E+02  0.51100000000E-03 0.  1.
         11   -1    0    0    0    0 -0.00000000000E+00 -0.00000000000E+00 -0.45593999997E+02  0.45594000000E+02  0.51100000000E-03 0. -1.
    9900012    2    1    2    0    0  0.78163775056E+01  0.28466105393E+02  0.31815220697E+02  0.47787272108E+02  0.20000004851E+02 0.  0.
         12    1    1    2    0    0 -0.78163775056E+01 -0.28466105393E+02 -0.31815220697E+02  0.43400727892E+02  0.00000000000E+00 0. -1.
         11    1    3    3    0    0  0.45448796825E+01  0.61153279108E+01  0.13281655448E+02  0.15311941043E+02  0.51100000000E-03 0. -1.
        -11    1    3    3    0    0  0.62960034507E+01  0.14725136874E+02  0.18231304227E+02  0.24266226931E+02  0.51100000000E-03 0.  1.
         12    1    3    3    0    0 -0.30245056276E+01  0.76256406076E+01  0.30226102191E+00  0.82091041347E+01  0.00000000000E+00 0. -1.
</event>
<event>
 7    1  0.2387817E-009  0.4778727E+02  0.7816164E-02  0.1312668E+00
        -11   -1    0    0    0    0  0.00000000000E+00  0.00000000000E+00  0.45593999997E+02  0.45594000000E+02  0.51100000000E-03 0.  1.
         11   -1    0    0    0    0 -0.00000000000E+00 -0.00000000000E+00 -0.45593999997E+02  0.45594000000E+02  0.51100000000E-03 0. -1.
    9900012    2    1    2    0    0 -0.38970020434E+02  0.83102952389E+00  0.19085862929E+02  0.47787271130E+02  0.20000000390E+02 0.  0.
         12    1    1    2    0    0  0.38970020434E+02 -0.83102952389E+00 -0.19085862929E+02  0.43400728870E+02  0.00000000000E+00 0. -1.
         11    1    3    3    0    0 -0.67412909151E+01 -0.46481381522E+00  0.19152549823E+01  0.70234789808E+01  0.51100000000E-03 0. -1.
        -11    1    3    3    0    0 -0.22240189100E+02 -0.74531019125E+01  0.13147985083E+02  0.26889482169E+02  0.51100000000E-03 0.  1.
         12    1    3    3    0    0 -0.99885404195E+01  0.87489452516E+01  0.40226228630E+01  0.13874309980E+02  0.00000000000E+00 0. -1.
</event>
<event>
 7    1  0.2387817E-009  0.4778725E+02  0.7816164E-02  0.1312668E+00
        -11   -1    0    0    0    0  0.00000000000E+00  0.00000000000E+00  0.45593999997E+02  0.45594000000E+02  0.51100000000E-03 0.  1.
         11   -1    0    0    0    0 -0.00000000000E+00 -0.00000000000E+00 -0.45593999997E+02  0.45594000000E+02  0.51100000000E-03 0. -1.
    9900012    2    1    2    0    0 -0.29877986606E+02 -0.17536782514E+02  0.26141771696E+02  0.47787250560E+02  0.19999906602E+02 0.  0.
         12    1    1    2    0    0  0.29877986606E+02  0.17536782514E+02 -0.26141771696E+02  0.43400749440E+02  0.00000000000E+00 0. -1.
         11    1    3    3    0    0 -0.22194110862E+01  0.22496086949E+01  0.28331390417E+01  0.42441962655E+01  0.51100000000E-03 0. -1.
        -11    1    3    3    0    0 -0.85939648449E+01 -0.23293707318E+00  0.99245204741E+01  0.13130369315E+02  0.51100000000E-03 0.  1.
        -12    1    3    3    0    0 -0.19064610675E+02 -0.19553454135E+02  0.13384112180E+02  0.30412684980E+02  0.00000000000E+00 0.  1.
</event>
<event>
 7    1  0.2387817E-009  0.4778727E+02  0.7816164E-02  0.1312668E+00
        -11   -1    0    0    0    0  0.00000000000E+00  0.00000000000E+00  0.45593999997E+02  0.45594000000E+02  0.51100000000E-03 0.  1.
         11   -1    0    0    0    0 -0.00000000000E+00 -0.00000000000E+00 -0.45593999997E+02  0.45594000000E+02  0.51100000000E-03 0. -1.
    9900012    2    1    2    0    0 -0.33963399956E+02 -0.90891341039E+01  0.25445988184E+02  0.47787271780E+02  0.20000003356E+02 0.  0.
         12    1    1    2    0    0  0.33963399956E+02  0.90891341039E+01 -0.25445988184E+02  0.43400728220E+02  0.00000000000E+00 0. -1.
         11    1    3    3    0    0 -0.10257985471E+02 -0.37706252153E+01  0.18052924059E+02  0.21103363424E+02  0.51100000000E-03 0. -1.
        -11    1    3    3    0    0 -0.11922800404E+02 -0.57602955016E+01  0.67820932157E+01  0.14877196053E+02  0.51100000000E-03 0.  1.
         12    1    3    3    0    0 -0.11782614080E+02  0.44178661301E+00  0.61097090945E+00  0.11806712304E+02  0.00000000000E+00 0. -1.
</event>
<event>
 7    1  0.2387817E-009  0.4778726E+02  0.7816164E-02  0.1312668E+00
        -11   -1    0    0    0    0  0.00000000000E+00  0.00000000000E+00  0.45593999997E+02  0.45594000000E+02  0.51100000000E-03 0.  1.
         11   -1    0    0    0    0 -0.00000000000E+00 -0.00000000000E+00 -0.45593999997E+02  0.45594000000E+02  0.51100000000E-03 0. -1.
    9900012    2    1    2    0    0  0.11860133233E+02  0.11371017465E+02  0.40170402676E+02  0.47787262107E+02  0.19999959252E+02 0.  0.
         12    1    1    2    0    0 -0.11860133233E+02 -0.11371017465E+02 -0.40170402676E+02  0.43400737893E+02  0.00000000000E+00 0. -1.
         11    1    3    3    0    0  0.71681429359E+01  0.59061499676E+01  0.10615197074E+02  0.14104867592E+02  0.51100000000E-03 0.  1.
        -11    1    3    3    0    0  0.86549440524E+01  0.77062072897E+01  0.20578732100E+02  0.23617322085E+02  0.51100000000E-03 0. -1.
         12    1    3    3    0    0 -0.39629537550E+01 -0.22413397918E+01  0.89764735007E+01  0.10065072431E+02  0.00000000000E+00 0. -1.
</event>
<event>
 7    1  0.3134459E-009  0.4778727E+02  0.7816164E-02  0.1312668E+00
        -11   -1    0    0    0    0  0.00000000000E+00  0.00000000000E+00  0.45593999997E+02  0.45594000000E+02  0.51100000000E-03 0. -1.
         11   -1    0    0    0    0 -0.00000000000E+00 -0.00000000000E+00 -0.45593999997E+02  0.45594000000E+02  0.51100000000E-03 0.  1.
    9900012    2    1    2    0    0  0.66991770869E+01 -0.37323832966E+02 -0.21111036673E+02  0.47787270163E+02  0.19999995982E+02 0.  0.
         12    1    1    2    0    0 -0.66991770869E+01  0.37323832966E+02  0.21111036673E+02  0.43400729837E+02  0.00000000000E+00 0. -1.
         11    1    3    3    0    0  0.22930750300E+01 -0.25718196951E+00 -0.33481966213E+01  0.40662951854E+01  0.51100000000E-03 0. -1.
        -11    1    3    3    0    0  0.63513794427E+01 -0.16439227109E+02 -0.14341368435E+02  0.22721422878E+02  0.51100000000E-03 0.  1.
         12    1    3    3    0    0 -0.19452773858E+01 -0.20627423888E+02 -0.34214716173E+01  0.20999552100E+02  0.00000000000E+00 0. -1.
</event>
<event>
 7    1  0.2387817E-009  0.4778726E+02  0.7816164E-02  0.1312668E+00
        -11   -1    0    0    0    0  0.00000000000E+00  0.00000000000E+00  0.45593999997E+02  0.45594000000E+02  0.51100000000E-03 0. -1.
         11   -1    0    0    0    0 -0.00000000000E+00 -0.00000000000E+00 -0.45593999997E+02  0.45594000000E+02  0.51100000000E-03 0.  1.
    9900012    2    1    2    0    0  0.36056180708E+02  0.33892684453E+00 -0.24154937392E+02  0.47787262229E+02  0.19999959808E+02 0.  0.
         12    1    1    2    0    0 -0.36056180708E+02 -0.33892684453E+00  0.24154937392E+02  0.43400737771E+02  0.00000000000E+00 0. -1.
         11    1    3    3    0    0  0.32465403386E+01  0.11733680725E+01 -0.81641777835E+01  0.88640067659E+01  0.51100000000E-03 0.  1.
        -11    1    3    3    0    0  0.36760404670E+01  0.37416948842E+01  0.25926474291E+00  0.52517399583E+01  0.51100000000E-03 0. -1.
         12    1    3    3    0    0  0.29133599902E+02 -0.45761361122E+01 -0.16250024352E+02  0.33671515505E+02  0.00000000000E+00 0. -1.
</event>
<event>
 7    1  0.2387817E-009  0.4778728E+02  0.7816164E-02  0.1312668E+00
        -11   -1    0    0    0    0  0.00000000000E+00  0.00000000000E+00  0.45593999997E+02  0.45594000000E+02  0.51100000000E-03 0. -1.
         11   -1    0    0    0    0 -0.00000000000E+00 -0.00000000000E+00 -0.45593999997E+02  0.45594000000E+02  0.51100000000E-03 0.  1.
    9900012    2    1    2    0    0  0.37499863810E+02 -0.13864803277E+02 -0.16886394554E+02  0.47787275620E+02  0.20000020863E+02 0.  0.
         12    1    1    2    0    0 -0.37499863810E+02  0.13864803277E+02  0.16886394554E+02  0.43400724380E+02  0.00000000000E+00 0. -1.
         11    1    3    3    0    0  0.30442389074E+02 -0.14177436892E+02 -0.19378181482E+02  0.38771802733E+02  0.51100000000E-03 0. -1.
        -11    1    3    3    0    0  0.97516882845E+00 -0.46549011437E+00 -0.13881730149E+01  0.17591645378E+01  0.51100000000E-03 0.  1.
         12    1    3    3    0    0  0.60823059079E+01  0.77812372983E+00  0.38799599436E+01  0.72563083493E+01  0.00000000000E+00 0. -1.
</event>
<event>
 7    1  0.2387817E-009  0.4778726E+02  0.7816164E-02  0.1312668E+00
        -11   -1    0    0    0    0  0.00000000000E+00  0.00000000000E+00  0.45593999997E+02  0.45594000000E+02  0.51100000000E-03 0.  1.
         11   -1    0    0    0    0 -0.00000000000E+00 -0.00000000000E+00 -0.45593999997E+02  0.45594000000E+02  0.51100000000E-03 0. -1.
    9900012    2    1    2    0    0 -0.11272298878E+02  0.24905720502E+02  0.33708519251E+02  0.47787263764E+02  0.19999966805E+02 0.  0.
         12    1    1    2    0    0  0.11272298878E+02 -0.24905720502E+02 -0.33708519251E+02  0.43400736236E+02  0.00000000000E+00 0. -1.
         11    1    3    3    0    0 -0.75251076808E+01  0.30864545931E+01  0.22538150396E+01  0.84399721598E+01  0.51100000000E-03 0. -1.
        -11    1    3    3    0    0  0.18104526412E+01  0.64802534578E+01  0.54976074901E+01  0.86887923223E+01  0.51100000000E-03 0.  1.
         12    1    3    3    0    0 -0.55576438386E+01  0.15339012451E+02  0.25957096722E+02  0.30658499282E+02  0.00000000000E+00 0. -1.
</event>
<event>
 7    1  0.2387817E-009  0.4778727E+02  0.7816164E-02  0.1312668E+00
        -11   -1    0    0    0    0  0.00000000000E+00  0.00000000000E+00  0.45593999997E+02  0.45594000000E+02  0.51100000000E-03 0.  1.
         11   -1    0    0    0    0 -0.00000000000E+00 -0.00000000000E+00 -0.45593999997E+02  0.45594000000E+02  0.51100000000E-03 0. -1.
    9900012    2    1    2    0    0  0.71616138971E+01  0.14426347956E+02  0.40301554325E+02  0.47787268325E+02  0.19999987599E+02 0.  0.
         12    1    1    2    0    0 -0.71616138971E+01 -0.14426347956E+02 -0.40301554325E+02  0.43400731675E+02  0.00000000000E+00 0. -1.
         11    1    3    3    0    0 -0.19189205929E+01  0.60724962061E+00  0.10737825199E+01  0.22812315763E+01  0.51100000000E-03 0. -1.
        -11    1    3    3    0    0  0.12405968486E+02  0.68144522364E+01  0.17948882098E+02  0.22858416003E+02  0.51100000000E-03 0.  1.
        -12    1    3    3    0    0 -0.33254339960E+01  0.70046460995E+01  0.21278889707E+02  0.22647620745E+02  0.00000000000E+00 0.  1.
</event>
<event>
 7    1  0.2387817E-009  0.4778728E+02  0.7816164E-02  0.1312668E+00
        -11   -1    0    0    0    0  0.00000000000E+00  0.00000000000E+00  0.45593999997E+02  0.45594000000E+02  0.51100000000E-03 0.  1.
         11   -1    0    0    0    0 -0.00000000000E+00 -0.00000000000E+00 -0.45593999997E+02  0.45594000000E+02  0.51100000000E-03 0. -1.
    9900012    2    1    2    0    0 -0.36117593706E+02  0.12130425649E+02  0.20784489484E+02  0.47787276450E+02  0.20000024646E+02 0.  0.
         12    1    1    2    0    0  0.36117593706E+02 -0.12130425649E+02 -0.20784489484E+02  0.43400723550E+02  0.00000000000E+00 0. -1.
         11    1    3    3    0    0 -0.85426764882E+01 -0.29880999197E+01  0.20852085342E+01  0.92873116457E+01  0.51100000000E-03 0. -1.
        -11    1    3    3    0    0 -0.14865786238E+02  0.15874937340E+01  0.66067802832E+01  0.16345069067E+02  0.51100000000E-03 0.  1.
        -12    1    3    3    0    0 -0.12709130981E+02  0.13531031835E+02  0.12092500666E+02  0.22154895738E+02  0.00000000000E+00 0.  1.
</event>
<event>
 7    1  0.2387817E-009  0.4778727E+02  0.7816164E-02  0.1312668E+00
        -11   -1    0    0    0    0  0.00000000000E+00  0.00000000000E+00  0.45593999997E+02  0.45594000000E+02  0.51100000000E-03 0.  1.
         11   -1    0    0    0    0 -0.00000000000E+00 -0.00000000000E+00 -0.45593999997E+02  0.45594000000E+02  0.51100000000E-03 0. -1.
    9900012    2    1    2    0    0 -0.54195328548E+01  0.24932067337E+02  0.35109029464E+02  0.47787271112E+02  0.20000000310E+02 0.  0.
         12    1    1    2    0    0  0.54195328548E+01 -0.24932067337E+02 -0.35109029464E+02  0.43400728888E+02  0.00000000000E+00 0. -1.
         11    1    3    3    0    0  0.64826824507E+01  0.40487569918E+01  0.94316735734E+01  0.12139772304E+02  0.51100000000E-03 0. -1.
        -11    1    3    3    0    0 -0.12807069971E+01  0.76296807809E+00  0.38080160672E+01  0.40894152797E+01  0.51100000000E-03 0.  1.
         12    1    3    3    0    0 -0.10621508308E+02  0.20120342267E+02  0.21869339824E+02  0.31558083529E+02  0.00000000000E+00 0. -1.
</event>
<event>
 7    1  0.2387817E-009  0.4778727E+02  0.7816164E-02  0.1312668E+00
        -11   -1    0    0    0    0  0.00000000000E+00  0.00000000000E+00  0.45593999997E+02  0.45594000000E+02  0.51100000000E-03 0. -1.
         11   -1    0    0    0    0 -0.00000000000E+00 -0.00000000000E+00 -0.45593999997E+02  0.45594000000E+02  0.51100000000E-03 0.  1.
    9900012    2    1    2    0    0  0.44083072831E+01  0.43161759229E+02  0.11191545573E+01  0.47787272590E+02  0.20000007045E+02 0.  0.
         12    1    1    2    0    0 -0.44083072831E+01 -0.43161759229E+02 -0.11191545573E+01  0.43400727410E+02  0.00000000000E+00 0. -1.
         11    1    3    3    0    0 -0.13619986533E+01  0.22823144564E+02  0.77560767816E+01  0.24143481427E+02  0.51100000000E-03 0. -1.
        -11    1    3    3    0    0 -0.32919469558E+00  0.12495232788E+02 -0.19239801726E+01  0.12646774748E+02  0.51100000000E-03 0.  1.
        -12    1    3    3    0    0  0.60995006320E+01  0.78433818772E+01 -0.47129420516E+01  0.10997016414E+02  0.00000000000E+00 0.  1.
</event>
<event>
 7    1  0.2387817E-009  0.4778727E+02  0.7816164E-02  0.1312668E+00
        -11   -1    0    0    0    0  0.00000000000E+00  0.00000000000E+00  0.45593999997E+02  0.45594000000E+02  0.51100000000E-03 0.  1.
         11   -1    0    0    0    0 -0.00000000000E+00 -0.00000000000E+00 -0.45593999997E+02  0.45594000000E+02  0.51100000000E-03 0. -1.
    9900012    2    1    2    0    0  0.24597280130E+02 -0.23174565836E+02  0.27231167642E+02  0.47787272096E+02  0.20000004796E+02 0.  0.
         12    1    1    2    0    0 -0.24597280130E+02  0.23174565836E+02 -0.27231167642E+02  0.43400727904E+02  0.00000000000E+00 0. -1.
         11    1    3    3    0    0  0.15391646455E+02 -0.12897292404E+02  0.21973649528E+02  0.29767166573E+02  0.51100000000E-03 0. -1.
        -11    1    3    3    0    0  0.38370000445E+01  0.46108067072E+00  0.45839191142E+01  0.59956216886E+01  0.51100000000E-03 0.  1.
         12    1    3    3    0    0  0.53686336305E+01 -0.10738354102E+02  0.67359899960E+00  0.12024483835E+02  0.00000000000E+00 0. -1.
</event>
<event>
 7    1  0.2387817E-009  0.4778727E+02  0.7816164E-02  0.1312668E+00
        -11   -1    0    0    0    0  0.00000000000E+00  0.00000000000E+00  0.45593999997E+02  0.45594000000E+02  0.51100000000E-03 0.  1.
         11   -1    0    0    0    0 -0.00000000000E+00 -0.00000000000E+00 -0.45593999997E+02  0.45594000000E+02  0.51100000000E-03 0. -1.
    9900012    2    1    2    0    0 -0.41882273978E+02 -0.10456057288E+02  0.44910294870E+01  0.47787270128E+02  0.19999995823E+02 0.  0.
         12    1    1    2    0    0  0.41882273978E+02  0.10456057288E+02 -0.44910294870E+01  0.43400729872E+02  0.00000000000E+00 0. -1.
         11    1    3    3    0    0 -0.35068840179E+01  0.19408561270E+01 -0.13624958070E+00  0.40104516242E+01  0.51100000000E-03 0. -1.
        -11    1    3    3    0    0 -0.12543422056E+02 -0.12375181997E+02  0.58289821157E+00  0.17630154194E+02  0.51100000000E-03 0.  1.
        -12    1    3    3    0    0 -0.25831967904E+02 -0.21731418424E-01  0.40443808561E+01  0.26146664310E+02  0.00000000000E+00 0.  1.
</event>
<event>
 7    1  0.2421340E-009  0.4778727E+02  0.7816164E-02  0.1312668E+00
        -11   -1    0    0    0    0  0.00000000000E+00  0.00000000000E+00  0.45593999997E+02  0.45594000000E+02  0.51100000000E-03 0.  1.
         11   -1    0    0    0    0 -0.00000000000E+00 -0.00000000000E+00 -0.45593999997E+02  0.45594000000E+02  0.51100000000E-03 0. -1.
    9900012    2    1    2    0    0 -0.13623259701E+02 -0.39999963958E+02  0.99011556305E+01  0.47787271846E+02  0.20000003653E+02 0.  0.
         12    1    1    2    0    0  0.13623259701E+02  0.39999963958E+02 -0.99011556305E+01  0.43400728154E+02  0.00000000000E+00 0. -1.
         11    1    3    3    0    0 -0.68275939915E+01 -0.17213886724E+02  0.66039395954E+01  0.19660771966E+02  0.51100000000E-03 0. -1.
        -11    1    3    3    0    0 -0.10113317120E+02 -0.21845264873E+02  0.12261451213E+01  0.24103904510E+02  0.51100000000E-03 0.  1.
         12    1    3    3    0    0  0.33176514096E+01 -0.94081236049E+00  0.20710709137E+01  0.40225953690E+01  0.00000000000E+00 0. -1.
</event>
<event>
 7    1  0.2387817E-009  0.4778726E+02  0.7816164E-02  0.1312668E+00
        -11   -1    0    0    0    0  0.00000000000E+00  0.00000000000E+00  0.45593999997E+02  0.45594000000E+02  0.51100000000E-03 0.  1.
         11   -1    0    0    0    0 -0.00000000000E+00 -0.00000000000E+00 -0.45593999997E+02  0.45594000000E+02  0.51100000000E-03 0. -1.
    9900012    2    1    2    0    0 -0.62991689167E+00  0.35709078036E+01  0.43249001215E+02  0.47787259408E+02  0.19999946947E+02 0.  0.
         12    1    1    2    0    0  0.62991689167E+00 -0.35709078036E+01 -0.43249001215E+02  0.43400740592E+02  0.00000000000E+00 0. -1.
         11    1    3    3    0    0  0.88283249264E+01  0.40794032278E+01  0.27072457335E+02  0.28766278837E+02  0.51100000000E-03 0. -1.
        -11    1    3    3    0    0 -0.84339982543E+00 -0.60100020768E+00  0.38173275694E+01  0.39553147218E+01  0.51100000000E-03 0.  1.
         12    1    3    3    0    0 -0.86148419926E+01  0.92504783495E-01  0.12359216310E+02  0.15065665850E+02  0.00000000000E+00 0. -1.
</event>
<event>
 7    1  0.3386775E-009  0.4778727E+02  0.7816164E-02  0.1312668E+00
        -11   -1    0    0    0    0  0.00000000000E+00  0.00000000000E+00  0.45593999997E+02  0.45594000000E+02  0.51100000000E-03 0.  1.
         11   -1    0    0    0    0 -0.00000000000E+00 -0.00000000000E+00 -0.45593999997E+02  0.45594000000E+02  0.51100000000E-03 0. -1.
    9900012    2    1    2    0    0  0.13250371243E+02  0.20232658755E+02 -0.36037351570E+02  0.47787268134E+02  0.19999986729E+02 0.  0.
         12    1    1    2    0    0 -0.13250371243E+02 -0.20232658755E+02  0.36037351570E+02  0.43400731866E+02  0.00000000000E+00 0. -1.
         11    1    3    3    0    0  0.74940271417E+00 -0.19466460855E+01 -0.15733907055E+01  0.26127751498E+01  0.51100000000E-03 0. -1.
        -11    1    3    3    0    0  0.11653503462E+02  0.97526053865E+01 -0.26000718825E+02  0.30115690834E+02  0.51100000000E-03 0.  1.
         12    1    3    3    0    0  0.84746506642E+00  0.12426699454E+02 -0.84632420394E+01  0.15058802150E+02  0.00000000000E+00 0. -1.
</event>
<event>
 7    1  0.2387817E-009  0.4778727E+02  0.7816164E-02  0.1312668E+00
        -11   -1    0    0    0    0  0.00000000000E+00  0.00000000000E+00  0.45593999997E+02  0.45594000000E+02  0.51100000000E-03 0. -1.
         11   -1    0    0    0    0 -0.00000000000E+00 -0.00000000000E+00 -0.45593999997E+02  0.45594000000E+02  0.51100000000E-03 0.  1.
    9900012    2    1    2    0    0  0.19073479387E+02 -0.54317768511E+00  0.38981155235E+02  0.47787272801E+02  0.20000008008E+02 0.  0.
         12    1    1    2    0    0 -0.19073479387E+02  0.54317768511E+00 -0.38981155235E+02  0.43400727199E+02  0.00000000000E+00 0. -1.
         11    1    3    3    0    0  0.46160793575E+01 -0.43367268338E+00  0.20440835396E+01  0.50670048756E+01  0.51100000000E-03 0. -1.
        -11    1    3    3    0    0  0.40609699132E+01 -0.22669965695E+01  0.39590529583E+00  0.46677072901E+01  0.51100000000E-03 0.  1.
         12    1    3    3    0    0  0.10396430117E+02  0.21574915678E+01  0.36541166400E+02  0.38052560635E+02  0.00000000000E+00 0. -1.
</event>
<event>
 7    1  0.2387817E-009  0.4778727E+02  0.7816164E-02  0.1312668E+00
        -11   -1    0    0    0    0  0.00000000000E+00  0.00000000000E+00  0.45593999997E+02  0.45594000000E+02  0.51100000000E-03 0. -1.
         11   -1    0    0    0    0 -0.00000000000E+00 -0.00000000000E+00 -0.45593999997E+02  0.45594000000E+02  0.51100000000E-03 0.  1.
    9900012    2    1    2    0    0 -0.17200253295E+02  0.19472642815E+02 -0.34764795626E+02  0.47787267903E+02  0.19999985677E+02 0.  0.
         12    1    1    2    0    0  0.17200253295E+02 -0.19472642815E+02  0.34764795626E+02  0.43400732097E+02  0.00000000000E+00 0. -1.
         11    1    3    3    0    0 -0.16552039587E+01  0.50480961365E+00 -0.54766911493E+01  0.57435772039E+01  0.51100000000E-03 0. -1.
        -11    1    3    3    0    0 -0.18737015723E+02  0.12652858455E+02 -0.25264837477E+02  0.33904020385E+02  0.51100000000E-03 0.  1.
         12    1    3    3    0    0  0.31919663869E+01  0.63149747469E+01 -0.40232670003E+01  0.81396703142E+01  0.00000000000E+00 0. -1.
</event>
<event>
 7    1  0.2387817E-009  0.4778727E+02  0.7816164E-02  0.1312668E+00
        -11   -1    0    0    0    0  0.00000000000E+00  0.00000000000E+00  0.45593999997E+02  0.45594000000E+02  0.51100000000E-03 0.  1.
         11   -1    0    0    0    0 -0.00000000000E+00 -0.00000000000E+00 -0.45593999997E+02  0.45594000000E+02  0.51100000000E-03 0. -1.
    9900012    2    1    2    0    0 -0.38357335021E+02  0.11038531045E+02  0.17043747451E+02  0.47787266772E+02  0.19999980521E+02 0.  0.
         12    1    1    2    0    0  0.38357335021E+02 -0.11038531045E+02 -0.17043747451E+02  0.43400733228E+02  0.00000000000E+00 0. -1.
         11    1    3    3    0    0 -0.22468959146E+02  0.78083471750E+01  0.13652104443E+02  0.27426344392E+02  0.51100000000E-03 0. -1.
        -11    1    3    3    0    0 -0.82253628580E+01  0.31086220430E+01  0.75957159765E+01  0.11619596663E+02  0.51100000000E-03 0.  1.
         12    1    3    3    0    0 -0.76630130167E+01  0.12156182733E+00 -0.42040729687E+01  0.87413257174E+01  0.00000000000E+00 0. -1.
</event>
<event>
 7    1  0.2387817E-009  0.4778728E+02  0.7816164E-02  0.1312668E+00
        -11   -1    0    0    0    0  0.00000000000E+00  0.00000000000E+00  0.45593999997E+02  0.45594000000E+02  0.51100000000E-03 0. -1.
         11   -1    0    0    0    0 -0.00000000000E+00 -0.00000000000E+00 -0.45593999997E+02  0.45594000000E+02  0.51100000000E-03 0.  1.
    9900012    2    1    2    0    0 -0.36451912080E+02 -0.18925938374E+02 -0.14024601321E+02  0.47787280192E+02  0.20000041707E+02 0.  0.
         12    1    1    2    0    0  0.36451912080E+02  0.18925938374E+02  0.14024601321E+02  0.43400719808E+02  0.00000000000E+00 0. -1.
         11    1    3    3    0    0 -0.13159606021E+01  0.23307842737E+01 -0.72497524251E+00  0.27730663533E+01  0.51100000000E-03 0. -1.
        -11    1    3    3    0    0 -0.20340313672E+02 -0.18280933991E+02 -0.50358340735E+01  0.27807922125E+02  0.51100000000E-03 0.  1.
         12    1    3    3    0    0 -0.14795637806E+02 -0.29757886573E+01 -0.82637920051E+01  0.17206291714E+02  0.00000000000E+00 0. -1.
</event>
<event>
 7    1  0.2387817E-009  0.4778727E+02  0.7816164E-02  0.1312668E+00
        -11   -1    0    0    0    0  0.00000000000E+00  0.00000000000E+00  0.45593999997E+02  0.45594000000E+02  0.51100000000E-03 0.  1.
         11   -1    0    0    0    0 -0.00000000000E+00 -0.00000000000E+00 -0.45593999997E+02  0.45594000000E+02  0.51100000000E-03 0. -1.
    9900012    2    1    2    0    0  0.26900694816E+01  0.26064771745E+02  0.34597898128E+02  0.47787270113E+02  0.19999995751E+02 0.  0.
         12    1    1    2    0    0 -0.26900694816E+01 -0.26064771745E+02 -0.34597898128E+02  0.43400729887E+02  0.00000000000E+00 0. -1.
         11    1    3    3    0    0  0.75000434460E+01  0.13601225435E+02  0.16674184052E+02  0.22787549212E+02  0.51100000000E-03 0. -1.
        -11    1    3    3    0    0  0.10221972516E+01  0.11163565840E+02  0.13597161432E+02  0.17622510853E+02  0.51100000000E-03 0.  1.
         12    1    3    3    0    0 -0.58321712159E+01  0.12999804695E+01  0.43265526437E+01  0.73772100480E+01  0.00000000000E+00 0. -1.
</event>
<event>
 7    1  0.2387817E-009  0.4778726E+02  0.7816164E-02  0.1312668E+00
        -11   -1    0    0    0    0  0.00000000000E+00  0.00000000000E+00  0.45593999997E+02  0.45594000000E+02  0.51100000000E-03 0. -1.
         11   -1    0    0    0    0 -0.00000000000E+00 -0.00000000000E+00 -0.45593999997E+02  0.45594000000E+02  0.51100000000E-03 0.  1.
    9900012    2    1    2    0    0  0.15750062727E+02  0.25796596099E+02 -0.31146348412E+02  0.47787264227E+02  0.19999968916E+02 0.  0.
         12    1    1    2    0    0 -0.15750062727E+02 -0.25796596099E+02  0.31146348412E+02  0.43400735773E+02  0.00000000000E+00 0. -1.
         11    1    3    3    0    0  0.33621462442E+01  0.10712417666E+02 -0.16794450025E+02  0.20201818521E+02  0.51100000000E-03 0.  1.
        -11    1    3    3    0    0  0.53373441626E+01  0.15596676098E+02 -0.98050226834E+01  0.19180250731E+02  0.51100000000E-03 0. -1.
        -12    1    3    3    0    0  0.70505723208E+01 -0.51249766562E+00 -0.45468757036E+01  0.84051949752E+01  0.00000000000E+00 0.  1.
</event>
<event>
 7    1  0.2387817E-009  0.4778734E+02  0.7816164E-02  0.1312667E+00
        -11   -1    0    0    0    0  0.00000000000E+00  0.00000000000E+00  0.45593999997E+02  0.45594000000E+02  0.51100000000E-03 0.  1.
         11   -1    0    0    0    0 -0.00000000000E+00 -0.00000000000E+00 -0.45593999997E+02  0.45594000000E+02  0.51100000000E-03 0. -1.
    9900012    2    1    2    0    0 -0.43047557420E+02  0.41174059440E+01  0.36840839904E+01  0.47787335185E+02  0.20000292441E+02 0.  0.
         12    1    1    2    0    0  0.43047557420E+02 -0.41174059440E+01 -0.36840839904E+01  0.43400664815E+02  0.00000000000E+00 0. -1.
         11    1    3    3    0    0 -0.38820829014E+01 -0.14546812418E+01  0.52665579614E+00  0.41789988942E+01  0.51100000000E-03 0. -1.
        -11    1    3    3    0    0 -0.38029720655E+02  0.13220662039E+01  0.57763716420E+01  0.38488621459E+02  0.51100000000E-03 0.  1.
         12    1    3    3    0    0 -0.11357538629E+01  0.42500209819E+01 -0.26189434477E+01  0.51197148325E+01  0.00000000000E+00 0. -1.
</event>
<event>
 7    1  0.2387817E-009  0.4778727E+02  0.7816164E-02  0.1312668E+00
        -11   -1    0    0    0    0  0.00000000000E+00  0.00000000000E+00  0.45593999997E+02  0.45594000000E+02  0.51100000000E-03 0.  1.
         11   -1    0    0    0    0 -0.00000000000E+00 -0.00000000000E+00 -0.45593999997E+02  0.45594000000E+02  0.51100000000E-03 0. -1.
    9900012    2    1    2    0    0  0.30067664813E+02  0.25865993529E+02  0.17621280568E+02  0.47787267087E+02  0.19999981955E+02 0.  0.
         12    1    1    2    0    0 -0.30067664813E+02 -0.25865993529E+02 -0.17621280568E+02  0.43400732913E+02  0.00000000000E+00 0. -1.
         11    1    3    3    0    0  0.74054920148E+01  0.24076824711E+01  0.15819081972E+00  0.77886630085E+01  0.51100000000E-03 0. -1.
        -11    1    3    3    0    0  0.13780456914E+02  0.11073685903E+02  0.12127840377E+01  0.17719998804E+02  0.51100000000E-03 0.  1.
         12    1    3    3    0    0  0.88817158842E+01  0.12384625155E+02  0.16250305711E+02  0.22278605274E+02  0.00000000000E+00 0. -1.
</event>
<event>
 7    1  0.2387817E-009  0.4778727E+02  0.7816164E-02  0.1312668E+00
        -11   -1    0    0    0    0  0.00000000000E+00  0.00000000000E+00  0.45593999997E+02  0.45594000000E+02  0.51100000000E-03 0.  1.
         11   -1    0    0    0    0 -0.00000000000E+00 -0.00000000000E+00 -0.45593999997E+02  0.45594000000E+02  0.51100000000E-03 0. -1.
    9900012    2    1    2    0    0 -0.21488433614E+02  0.98670774997E+01  0.36393834656E+02  0.47787271912E+02  0.20000003957E+02 0.  0.
         12    1    1    2    0    0  0.21488433614E+02 -0.98670774997E+01 -0.36393834656E+02  0.43400728088E+02  0.00000000000E+00 0. -1.
         11    1    3    3    0    0 -0.52858030022E+01  0.35107224644E+01  0.10233007077E+01  0.64274435198E+01  0.51100000000E-03 0. -1.
        -11    1    3    3    0    0 -0.13636324994E+01  0.35327079652E+00 -0.92910439880E+00  0.16874623237E+01  0.51100000000E-03 0.  1.
        -12    1    3    3    0    0 -0.14838998112E+02  0.60030842388E+01  0.36299638347E+02  0.39672366069E+02  0.00000000000E+00 0.  1.
</event>
<event>
 7    1  0.2387817E-009  0.4778727E+02  0.7816164E-02  0.1312668E+00
        -11   -1    0    0    0    0  0.00000000000E+00  0.00000000000E+00  0.45593999997E+02  0.45594000000E+02  0.51100000000E-03 0. -1.
         11   -1    0    0    0    0 -0.00000000000E+00 -0.00000000000E+00 -0.45593999997E+02  0.45594000000E+02  0.51100000000E-03 0.  1.
    9900012    2    1    2    0    0  0.18982380525E+02 -0.39026843017E+02  0.44517716357E+00  0.47787269258E+02  0.19999991855E+02 0.  0.
         12    1    1    2    0    0 -0.18982380525E+02  0.39026843017E+02 -0.44517716357E+00  0.43400730742E+02  0.00000000000E+00 0. -1.
         11    1    3    3    0    0  0.10048967407E+02 -0.94656526306E+01 -0.22902794725E+01  0.13993773830E+02  0.51100000000E-03 0. -1.
        -11    1    3    3    0    0  0.97067712247E+01 -0.13586363984E+02 -0.26730211754E+01  0.16910225793E+02  0.51100000000E-03 0.  1.
         12    1    3    3    0    0 -0.77335810698E+00 -0.15974826402E+02  0.54084778114E+01  0.16883269635E+02  0.00000000000E+00 0. -1.
</event>
<event>
 7    1  0.2387817E-009  0.4778728E+02  0.7816164E-02  0.1312668E+00
        -11   -1    0    0    0    0  0.00000000000E+00  0.00000000000E+00  0.45593999997E+02  0.45594000000E+02  0.51100000000E-03 0. -1.
         11   -1    0    0    0    0 -0.00000000000E+00 -0.00000000000E+00 -0.45593999997E+02  0.45594000000E+02  0.51100000000E-03 0.  1.
    9900012    2    1    2    0    0 -0.37835133243E+02  0.38302077091E+01 -0.20915425953E+02  0.47787276027E+02  0.20000022715E+02 0.  0.
         12    1    1    2    0    0  0.37835133243E+02 -0.38302077091E+01  0.20915425953E+02  0.43400723973E+02  0.00000000000E+00 0. -1.
         11    1    3    3    0    0 -0.43670602733E+01  0.27360381544E+01  0.26662143218E+01  0.58022253735E+01  0.51100000000E-03 0. -1.
        -11    1    3    3    0    0 -0.46966146389E+01  0.27505364357E+01 -0.65237979181E+01  0.84960920009E+01  0.51100000000E-03 0.  1.
        -12    1    3    3    0    0 -0.28771458331E+02 -0.16563668810E+01 -0.17057842357E+02  0.33488958652E+02  0.00000000000E+00 0.  1.
</event>
<event>
 7    1  0.2387817E-009  0.4778727E+02  0.7816164E-02  0.1312668E+00
        -11   -1    0    0    0    0  0.00000000000E+00  0.00000000000E+00  0.45593999997E+02  0.45594000000E+02  0.51100000000E-03 0.  1.
         11   -1    0    0    0    0 -0.00000000000E+00 -0.00000000000E+00 -0.45593999997E+02  0.45594000000E+02  0.51100000000E-03 0. -1.
    9900012    2    1    2    0    0  0.25507347137E+02  0.33825461407E+02  0.94253201549E+01  0.47787271235E+02  0.20000000868E+02 0.  0.
         12    1    1    2    0    0 -0.25507347137E+02 -0.33825461407E+02 -0.94253201549E+01  0.43400728765E+02  0.00000000000E+00 0. -1.
         11    1    3    3    0    0  0.72131233721E+01  0.31815231787E+01 -0.17317614336E+01  0.80715696393E+01  0.51100000000E-03 0. -1.
        -11    1    3    3    0    0  0.88478472096E+01  0.81168428888E+01  0.93561790707E+01  0.15221879838E+02  0.51100000000E-03 0.  1.
        -12    1    3    3    0    0  0.94463765553E+01  0.22527095339E+02  0.18009025178E+01  0.24493821758E+02  0.00000000000E+00 0.  1.
</event>
<event>
 7    1  0.2387817E-009  0.4778727E+02  0.7816164E-02  0.1312668E+00
        -11   -1    0    0    0    0  0.00000000000E+00  0.00000000000E+00  0.45593999997E+02  0.45594000000E+02  0.51100000000E-03 0.  1.
         11   -1    0    0    0    0 -0.00000000000E+00 -0.00000000000E+00 -0.45593999997E+02  0.45594000000E+02  0.51100000000E-03 0. -1.
    9900012    2    1    2    0    0  0.26665734167E+02  0.17723104595E+02  0.29299372443E+02  0.47787273731E+02  0.20000012249E+02 0.  0.
         12    1    1    2    0    0 -0.26665734167E+02 -0.17723104595E+02 -0.29299372443E+02  0.43400726269E+02  0.00000000000E+00 0. -1.
         11    1    3    3    0    0 -0.28970774918E-01  0.64459143821E+01  0.28968522654E+01  0.70669940452E+01  0.51100000000E-03 0. -1.
        -11    1    3    3    0    0  0.11543048486E+02  0.50047709446E+01  0.45060728496E+01  0.13363921332E+02  0.51100000000E-03 0.  1.
         12    1    3    3    0    0  0.15151656455E+02  0.62724192680E+01  0.21896447328E+02  0.27356358354E+02  0.00000000000E+00 0. -1.
</event>
<event>
 7    1  0.2387817E-009  0.4778727E+02  0.7816164E-02  0.1312668E+00
        -11   -1    0    0    0    0  0.00000000000E+00  0.00000000000E+00  0.45593999997E+02  0.45594000000E+02  0.51100000000E-03 0.  1.
         11   -1    0    0    0    0 -0.00000000000E+00 -0.00000000000E+00 -0.45593999997E+02  0.45594000000E+02  0.51100000000E-03 0. -1.
    9900012    2    1    2    0    0  0.40867377941E+01  0.23834535183E+02  0.36039376079E+02  0.47787272802E+02  0.20000008012E+02 0.  0.
         12    1    1    2    0    0 -0.40867377941E+01 -0.23834535183E+02 -0.36039376079E+02  0.43400727198E+02  0.00000000000E+00 0. -1.
         11    1    3    3    0    0  0.21870077532E+01  0.95818269274E+01  0.72486847979E+01  0.12212200528E+02  0.51100000000E-03 0. -1.
        -11    1    3    3    0    0 -0.17953187210E+01  0.16449560748E+02  0.21807080478E+02  0.27374440220E+02  0.51100000000E-03 0.  1.
        -12    1    3    3    0    0  0.36950487618E+01 -0.21968524932E+01  0.69836108028E+01  0.82006320533E+01  0.00000000000E+00 0.  1.
</event>
<event>
 7    1  0.2387817E-009  0.4778727E+02  0.7816164E-02  0.1312668E+00
        -11   -1    0    0    0    0  0.00000000000E+00  0.00000000000E+00  0.45593999997E+02  0.45594000000E+02  0.51100000000E-03 0.  1.
         11   -1    0    0    0    0 -0.00000000000E+00 -0.00000000000E+00 -0.45593999997E+02  0.45594000000E+02  0.51100000000E-03 0. -1.
    9900012    2    1    2    0    0 -0.12577265523E+02 -0.38623254756E+02 -0.15286593477E+02  0.47787270097E+02  0.19999995682E+02 0.  0.
         12    1    1    2    0    0  0.12577265523E+02  0.38623254756E+02  0.15286593477E+02  0.43400729903E+02  0.00000000000E+00 0. -1.
         11    1    3    3    0    0 -0.45006851573E+01 -0.13903897289E+02 -0.40106106308E+01  0.15154521589E+02  0.51100000000E-03 0. -1.
        -11    1    3    3    0    0 -0.13067055357E+02 -0.17587433483E+02 -0.83994151675E+01  0.23465206746E+02  0.51100000000E-03 0.  1.
         12    1    3    3    0    0  0.49904749912E+01 -0.71319239839E+01 -0.28765676783E+01  0.91675417620E+01  0.00000000000E+00 0. -1.
</event>
<event>
 7    1  0.2387817E-009  0.4778727E+02  0.7816164E-02  0.1312668E+00
        -11   -1    0    0    0    0  0.00000000000E+00  0.00000000000E+00  0.45593999997E+02  0.45594000000E+02  0.51100000000E-03 0.  1.
         11   -1    0    0    0    0 -0.00000000000E+00 -0.00000000000E+00 -0.45593999997E+02  0.45594000000E+02  0.51100000000E-03 0. -1.
    9900012    2    1    2    0    0  0.27434769417E+02  0.14017206285E+02  0.30569178465E+02  0.47787270547E+02  0.19999997732E+02 0.  0.
         12    1    1    2    0    0 -0.27434769417E+02 -0.14017206285E+02 -0.30569178465E+02  0.43400729453E+02  0.00000000000E+00 0. -1.
         11    1    3    3    0    0  0.89513305579E+01  0.40637634537E+01  0.23945109306E+01  0.10118012405E+02  0.51100000000E-03 0. -1.
        -11    1    3    3    0    0  0.23814245185E+01  0.66321555287E+01  0.31308086943E+01  0.77109424220E+01  0.51100000000E-03 0.  1.
        -12    1    3    3    0    0  0.16102014341E+02  0.33212873025E+01  0.25043858840E+02  0.29958315720E+02  0.00000000000E+00 0.  1.
</event>
<event>
 7    1  0.2387817E-009  0.4778727E+02  0.7816164E-02  0.1312668E+00
        -11   -1    0    0    0    0  0.00000000000E+00  0.00000000000E+00  0.45593999997E+02  0.45594000000E+02  0.51100000000E-03 0.  1.
         11   -1    0    0    0    0 -0.00000000000E+00 -0.00000000000E+00 -0.45593999997E+02  0.45594000000E+02  0.51100000000E-03 0. -1.
    9900012    2    1    2    0    0 -0.39069377967E+02  0.17935707659E+02 -0.59596292605E+01  0.47787273222E+02  0.20000009928E+02 0.  0.
         12    1    1    2    0    0  0.39069377967E+02 -0.17935707659E+02  0.59596292605E+01  0.43400726778E+02  0.00000000000E+00 0. -1.
         11    1    3    3    0    0 -0.32883044012E+02  0.17044036166E+02 -0.14067000318E+01  0.37064437910E+02  0.51100000000E-03 0. -1.
        -11    1    3    3    0    0 -0.64036475612E+01  0.11064560066E+01 -0.34908669174E+00  0.65079035612E+01  0.51100000000E-03 0.  1.
        -12    1    3    3    0    0  0.21731360627E+00 -0.21478451399E+00 -0.42038425369E+01  0.42149317510E+01  0.00000000000E+00 0.  1.
</event>
<event>
 7    1  0.2387817E-009  0.4778727E+02  0.7816164E-02  0.1312668E+00
        -11   -1    0    0    0    0  0.00000000000E+00  0.00000000000E+00  0.45593999997E+02  0.45594000000E+02  0.51100000000E-03 0. -1.
         11   -1    0    0    0    0 -0.00000000000E+00 -0.00000000000E+00 -0.45593999997E+02  0.45594000000E+02  0.51100000000E-03 0.  1.
    9900012    2    1    2    0    0  0.22982560828E+01  0.41097913381E+02 -0.13758739975E+02  0.47787269695E+02  0.19999993849E+02 0.  0.
         12    1    1    2    0    0 -0.22982560828E+01 -0.41097913381E+02  0.13758739975E+02  0.43400730305E+02  0.00000000000E+00 0. -1.
         11    1    3    3    0    0 -0.36490910280E+01  0.37486878940E+01 -0.20967102173E+01  0.56360198947E+01  0.51100000000E-03 0. -1.
        -11    1    3    3    0    0  0.10196967157E+01  0.22400584614E+02 -0.13703566909E+02  0.26279530413E+02  0.51100000000E-03 0.  1.
        -12    1    3    3    0    0  0.49276503950E+01  0.14948640873E+02  0.20415371521E+01  0.15871719388E+02  0.00000000000E+00 0.  1.
</event>
<event>
 7    1  0.2387817E-009  0.4778728E+02  0.7816164E-02  0.1312668E+00
        -11   -1    0    0    0    0  0.00000000000E+00  0.00000000000E+00  0.45593999997E+02  0.45594000000E+02  0.51100000000E-03 0.  1.
         11   -1    0    0    0    0 -0.00000000000E+00 -0.00000000000E+00 -0.45593999997E+02  0.45594000000E+02  0.51100000000E-03 0. -1.
    9900012    2    1    2    0    0 -0.14376028527E+02 -0.12282241779E+02  0.39065320437E+02  0.47787275119E+02  0.20000018578E+02 0.  0.
         12    1    1    2    0    0  0.14376028527E+02  0.12282241779E+02 -0.39065320437E+02  0.43400724881E+02  0.00000000000E+00 0. -1.
         11    1    3    3    0    0 -0.56453275539E+01  0.14934161584E+01  0.65716878868E+01  0.87913080344E+01  0.51100000000E-03 0. -1.
        -11    1    3    3    0    0 -0.96369094759E+01 -0.52211377961E+01  0.26006411128E+02  0.28221688896E+02  0.51100000000E-03 0.  1.
        -12    1    3    3    0    0  0.90620850278E+00 -0.85545201412E+01  0.64872214223E+01  0.10774278188E+02  0.00000000000E+00 0.  1.
</event>
<event>
 7    1  0.2387817E-009  0.4778727E+02  0.7816164E-02  0.1312668E+00
        -11   -1    0    0    0    0  0.00000000000E+00  0.00000000000E+00  0.45593999997E+02  0.45594000000E+02  0.51100000000E-03 0.  1.
         11   -1    0    0    0    0 -0.00000000000E+00 -0.00000000000E+00 -0.45593999997E+02  0.45594000000E+02  0.51100000000E-03 0. -1.
    9900012    2    1    2    0    0  0.71352818717E+01 -0.27000033193E+02  0.33222117273E+02  0.47787272864E+02  0.20000008297E+02 0.  0.
         12    1    1    2    0    0 -0.71352818717E+01  0.27000033193E+02 -0.33222117273E+02  0.43400727136E+02  0.00000000000E+00 0. -1.
         11    1    3    3    0    0  0.30832528076E+01 -0.11009914520E+02  0.17234989626E+02  0.20682590101E+02  0.51100000000E-03 0.  1.
        -11    1    3    3    0    0  0.71015807136E+01 -0.11932996542E+02  0.45844853330E+01  0.14623486627E+02  0.51100000000E-03 0. -1.
         12    1    3    3    0    0 -0.30495516496E+01 -0.40571221313E+01  0.11402642314E+02  0.12481196136E+02  0.00000000000E+00 0. -1.
</event>
<event>
 7    1  0.2387817E-009  0.4778727E+02  0.7816164E-02  0.1312668E+00
        -11   -1    0    0    0    0  0.00000000000E+00  0.00000000000E+00  0.45593999997E+02  0.45594000000E+02  0.51100000000E-03 0.  1.
         11   -1    0    0    0    0 -0.00000000000E+00 -0.00000000000E+00 -0.45593999997E+02  0.45594000000E+02  0.51100000000E-03 0. -1.
    9900012    2    1    2    0    0 -0.26688094710E+01 -0.43518937833E+01  0.43099441016E+02  0.47787270290E+02  0.19999996560E+02 0.  0.
         12    1    1    2    0    0  0.26688094710E+01  0.43518937833E+01 -0.43099441016E+02  0.43400729710E+02  0.00000000000E+00 0. -1.
         11    1    3    3    0    0 -0.65640876649E+01  0.45191851749E+00  0.19602586348E+02  0.20677351595E+02  0.51100000000E-03 0. -1.
        -11    1    3    3    0    0 -0.26000616658E+01 -0.61151939523E+01  0.91665089105E+01  0.11321696145E+02  0.51100000000E-03 0.  1.
         12    1    3    3    0    0  0.64953398597E+01  0.13113816516E+01  0.14330345758E+02  0.15788222549E+02  0.00000000000E+00 0. -1.
</event>
<event>
 7    1  0.2387817E-009  0.4778727E+02  0.7816164E-02  0.1312668E+00
        -11   -1    0    0    0    0  0.00000000000E+00  0.00000000000E+00  0.45593999997E+02  0.45594000000E+02  0.51100000000E-03 0.  1.
         11   -1    0    0    0    0 -0.00000000000E+00 -0.00000000000E+00 -0.45593999997E+02  0.45594000000E+02  0.51100000000E-03 0. -1.
    9900012    2    1    2    0    0 -0.12627284622E+02 -0.30749557802E+02  0.27904114516E+02  0.47787271563E+02  0.20000002364E+02 0.  0.
         12    1    1    2    0    0  0.12627284622E+02  0.30749557802E+02 -0.27904114516E+02  0.43400728437E+02  0.00000000000E+00 0. -1.
         11    1    3    3    0    0 -0.15979556839E+01 -0.29254143082E+01 -0.14994698799E+01  0.36551226278E+01  0.51100000000E-03 0. -1.
        -11    1    3    3    0    0 -0.17460097436E+01 -0.10480000048E+01 -0.12468633995E+01  0.23877861364E+01  0.51100000000E-03 0.  1.
        -12    1    3    3    0    0 -0.92833191946E+01 -0.26776143489E+02  0.30650447795E+02  0.41744362799E+02  0.00000000000E+00 0.  1.
</event>
<event>
 7    1  0.2387817E-009  0.4778727E+02  0.7816164E-02  0.1312668E+00
        -11   -1    0    0    0    0  0.00000000000E+00  0.00000000000E+00  0.45593999997E+02  0.45594000000E+02  0.51100000000E-03 0.  1.
         11   -1    0    0    0    0 -0.00000000000E+00 -0.00000000000E+00 -0.45593999997E+02  0.45594000000E+02  0.51100000000E-03 0. -1.
    9900012    2    1    2    0    0  0.35617575141E+02 -0.22490485618E+01  0.24697231551E+02  0.47787272764E+02  0.20000007841E+02 0.  0.
         12    1    1    2    0    0 -0.35617575141E+02  0.22490485618E+01 -0.24697231551E+02  0.43400727236E+02  0.00000000000E+00 0. -1.
         11    1    3    3    0    0  0.90919568927E+01  0.47732673209E+01  0.10212601748E+02  0.14482575592E+02  0.51100000000E-03 0. -1.
        -11    1    3    3    0    0  0.95830477743E+01 -0.90957154937E+00  0.11583162010E+02  0.15060935145E+02  0.51100000000E-03 0.  1.
         12    1    3    3    0    0  0.16942570474E+02 -0.61127443334E+01  0.29014677930E+01  0.18243762027E+02  0.00000000000E+00 0. -1.
</event>
<event>
 7    1  0.2387817E-009  0.4778728E+02  0.7816164E-02  0.1312668E+00
        -11   -1    0    0    0    0  0.00000000000E+00  0.00000000000E+00  0.45593999997E+02  0.45594000000E+02  0.51100000000E-03 0.  1.
         11   -1    0    0    0    0 -0.00000000000E+00 -0.00000000000E+00 -0.45593999997E+02  0.45594000000E+02  0.51100000000E-03 0. -1.
    9900012    2    1    2    0    0 -0.86211607900E+01 -0.28570181798E+02  0.31512586352E+02  0.47787276504E+02  0.20000024894E+02 0.  0.
         12    1    1    2    0    0  0.86211607900E+01  0.28570181798E+02 -0.31512586352E+02  0.43400723496E+02  0.00000000000E+00 0. -1.
         11    1    3    3    0    0  0.52146344807E+01 -0.14612833223E+02  0.14788955098E+02  0.21434563227E+02  0.51100000000E-03 0. -1.
        -11    1    3    3    0    0 -0.10703905852E+00 -0.10927532425E+01 -0.11453764635E+00  0.11039411862E+01  0.51100000000E-03 0.  1.
        -12    1    3    3    0    0 -0.13728756212E+02 -0.12864595332E+02  0.16838168900E+02  0.25248772091E+02  0.00000000000E+00 0.  1.
</event>
<event>
 7    1  0.2387817E-009  0.4778727E+02  0.7816164E-02  0.1312668E+00
        -11   -1    0    0    0    0  0.00000000000E+00  0.00000000000E+00  0.45593999997E+02  0.45594000000E+02  0.51100000000E-03 0. -1.
         11   -1    0    0    0    0 -0.00000000000E+00 -0.00000000000E+00 -0.45593999997E+02  0.45594000000E+02  0.51100000000E-03 0.  1.
    9900012    2    1    2    0    0  0.29832668302E+02  0.86856862675E+01 -0.30301719023E+02  0.47787269365E+02  0.19999992343E+02 0.  0.
         12    1    1    2    0    0 -0.29832668302E+02 -0.86856862675E+01  0.30301719023E+02  0.43400730635E+02  0.00000000000E+00 0. -1.
         11    1    3    3    0    0  0.81393707385E+01  0.17843025167E+01 -0.18368551260E+02  0.20170195020E+02  0.51100000000E-03 0.  1.
        -11    1    3    3    0    0  0.11767530666E+02 -0.56264781683E+00 -0.90811321802E+01  0.14874754199E+02  0.51100000000E-03 0. -1.
        -12    1    3    3    0    0  0.99257668966E+01  0.74640315676E+01 -0.28520355819E+01  0.12742320145E+02  0.00000000000E+00 0.  1.
</event>
<event>
 7    1  0.2387817E-009  0.4778728E+02  0.7816164E-02  0.1312668E+00
        -11   -1    0    0    0    0  0.00000000000E+00  0.00000000000E+00  0.45593999997E+02  0.45594000000E+02  0.51100000000E-03 0.  1.
         11   -1    0    0    0    0 -0.00000000000E+00 -0.00000000000E+00 -0.45593999997E+02  0.45594000000E+02  0.51100000000E-03 0. -1.
    9900012    2    1    2    0    0  0.21548825444E+01  0.43072573260E+02 -0.48716244218E+01  0.47787276382E+02  0.20000024336E+02 0.  0.
         12    1    1    2    0    0 -0.21548825444E+01 -0.43072573260E+02  0.48716244218E+01  0.43400723618E+02  0.00000000000E+00 0. -1.
         11    1    3    3    0    0  0.97884515462E+00  0.10298102270E+02 -0.55069243863E+01  0.11719012956E+02  0.51100000000E-03 0. -1.
        -11    1    3    3    0    0  0.54434994790E+01  0.29251086341E+02 -0.22294828316E+01  0.29836694399E+02  0.51100000000E-03 0.  1.
        -12    1    3    3    0    0 -0.42674620893E+01  0.35233846493E+01  0.28647827962E+01  0.62315690271E+01  0.00000000000E+00 0.  1.
</event>
<event>
 7    1  0.2387817E-009  0.4778727E+02  0.7816164E-02  0.1312668E+00
        -11   -1    0    0    0    0  0.00000000000E+00  0.00000000000E+00  0.45593999997E+02  0.45594000000E+02  0.51100000000E-03 0.  1.
         11   -1    0    0    0    0 -0.00000000000E+00 -0.00000000000E+00 -0.45593999997E+02  0.45594000000E+02  0.51100000000E-03 0. -1.
    9900012    2    1    2    0    0  0.78568829042E+01  0.70849657820E+01  0.42091518886E+02  0.47787270614E+02  0.19999998038E+02 0.  0.
         12    1    1    2    0    0 -0.78568829042E+01 -0.70849657820E+01 -0.42091518886E+02  0.43400729386E+02  0.00000000000E+00 0. -1.
         11    1    3    3    0    0  0.63090183227E+01  0.93456456314E+01  0.19338875210E+02  0.22386087177E+02  0.51100000000E-03 0. -1.
        -11    1    3    3    0    0 -0.21409633719E+01  0.36581968831E+01  0.10107164722E+02  0.10959968412E+02  0.51100000000E-03 0.  1.
        -12    1    3    3    0    0  0.36888279534E+01 -0.59188767324E+01  0.12645478953E+02  0.14441215025E+02  0.00000000000E+00 0.  1.
</event>
<event>
 7    1  0.2387817E-009  0.4778726E+02  0.7816164E-02  0.1312668E+00
        -11   -1    0    0    0    0  0.00000000000E+00  0.00000000000E+00  0.45593999997E+02  0.45594000000E+02  0.51100000000E-03 0.  1.
         11   -1    0    0    0    0 -0.00000000000E+00 -0.00000000000E+00 -0.45593999997E+02  0.45594000000E+02  0.51100000000E-03 0. -1.
    9900012    2    1    2    0    0 -0.68789742819E+01  0.33254496008E+02  0.27026700992E+02  0.47787258550E+02  0.19999943031E+02 0.  0.
         12    1    1    2    0    0  0.68789742819E+01 -0.33254496008E+02 -0.27026700992E+02  0.43400741450E+02  0.00000000000E+00 0. -1.
         11    1    3    3    0    0  0.40525647974E+01  0.42415032435E+01  0.97258350970E+00  0.59463896733E+01  0.51100000000E-03 0.  1.
        -11    1    3    3    0    0  0.14095876749E+01  0.44413443037E+01  0.12863617055E+01  0.48339635224E+01  0.51100000000E-03 0. -1.
        -12    1    3    3    0    0 -0.12341126754E+02  0.24571648461E+02  0.24767755777E+02  0.37006905354E+02  0.00000000000E+00 0.  1.
</event>
<event>
 7    1  0.2387817E-009  0.4778727E+02  0.7816164E-02  0.1312668E+00
        -11   -1    0    0    0    0  0.00000000000E+00  0.00000000000E+00  0.45593999997E+02  0.45594000000E+02  0.51100000000E-03 0.  1.
         11   -1    0    0    0    0 -0.00000000000E+00 -0.00000000000E+00 -0.45593999997E+02  0.45594000000E+02  0.51100000000E-03 0. -1.
    9900012    2    1    2    0    0 -0.12438804608E+02  0.41266833593E+02 -0.50939149589E+01  0.47787269770E+02  0.19999994191E+02 0.  0.
         12    1    1    2    0    0  0.12438804608E+02 -0.41266833593E+02  0.50939149589E+01  0.43400730230E+02  0.00000000000E+00 0. -1.
         11    1    3    3    0    0 -0.17536303208E+01  0.24437497570E+01  0.25333509465E+01  0.39325563513E+01  0.51100000000E-03 0. -1.
        -11    1    3    3    0    0 -0.91074696495E+01  0.14822272547E+02 -0.93322493681E+01  0.19741748793E+02  0.51100000000E-03 0.  1.
        -12    1    3    3    0    0 -0.15777046376E+01  0.24000811289E+02  0.17049834627E+01  0.24112964626E+02  0.00000000000E+00 0.  1.
</event>
<event>
 7    1  0.2387817E-009  0.4778728E+02  0.7816164E-02  0.1312668E+00
        -11   -1    0    0    0    0  0.00000000000E+00  0.00000000000E+00  0.45593999997E+02  0.45594000000E+02  0.51100000000E-03 0.  1.
         11   -1    0    0    0    0 -0.00000000000E+00 -0.00000000000E+00 -0.45593999997E+02  0.45594000000E+02  0.51100000000E-03 0. -1.
    9900012    2    1    2    0    0 -0.24951915368E+02 -0.33598095950E+02  0.11497511995E+02  0.47787275189E+02  0.20000018897E+02 0.  0.
         12    1    1    2    0    0  0.24951915368E+02  0.33598095950E+02 -0.11497511995E+02  0.43400724811E+02  0.00000000000E+00 0. -1.
         11    1    3    3    0    0  0.18622939849E+01 -0.16053112841E+01  0.10700366935E+01  0.26814440124E+01  0.51100000000E-03 0. -1.
        -11    1    3    3    0    0  0.15611114183E+01 -0.19341152693E+01  0.11628761372E+01  0.27441122256E+01  0.51100000000E-03 0.  1.
        -12    1    3    3    0    0 -0.28375320772E+02 -0.30058669397E+02  0.92645991639E+01  0.42361718951E+02  0.00000000000E+00 0.  1.
</event>
<event>
 7    1  0.4424088E-009  0.4778728E+02  0.7816164E-02  0.1312668E+00
        -11   -1    0    0    0    0  0.00000000000E+00  0.00000000000E+00  0.45593999997E+02  0.45594000000E+02  0.51100000000E-03 0. -1.
         11   -1    0    0    0    0 -0.00000000000E+00 -0.00000000000E+00 -0.45593999997E+02  0.45594000000E+02  0.51100000000E-03 0.  1.
    9900012    2    1    2    0    0 -0.32688239103E+02  0.16169053558E+02 -0.23530057619E+02  0.47787275580E+02  0.20000020680E+02 0.  0.
         12    1    1    2    0    0  0.32688239103E+02 -0.16169053558E+02  0.23530057619E+02  0.43400724420E+02  0.00000000000E+00 0. -1.
         11    1    3    3    0    0 -0.97607892631E+01  0.63524164323E-02 -0.71273659260E+00  0.97867788932E+01  0.51100000000E-03 0. -1.
        -11    1    3    3    0    0 -0.19410106201E+02  0.92593784256E+01 -0.11795454267E+02  0.24527964718E+02  0.51100000000E-03 0.  1.
         12    1    3    3    0    0 -0.35173436384E+01  0.69033227156E+01 -0.11021866760E+02  0.13472531969E+02  0.00000000000E+00 0. -1.
</event>
<event>
 7    1  0.2387817E-009  0.4778727E+02  0.7816164E-02  0.1312668E+00
        -11   -1    0    0    0    0  0.00000000000E+00  0.00000000000E+00  0.45593999997E+02  0.45594000000E+02  0.51100000000E-03 0.  1.
         11   -1    0    0    0    0 -0.00000000000E+00 -0.00000000000E+00 -0.45593999997E+02  0.45594000000E+02  0.51100000000E-03 0. -1.
    9900012    2    1    2    0    0  0.13687106472E+02 -0.36202042621E+02  0.19639210908E+02  0.47787269838E+02  0.19999994497E+02 0.  0.
         12    1    1    2    0    0 -0.13687106472E+02  0.36202042621E+02 -0.19639210908E+02  0.43400730162E+02  0.00000000000E+00 0. -1.
         11    1    3    3    0    0  0.80036766757E+01 -0.95085166443E+01 -0.88393310933E+00  0.12460018744E+02  0.51100000000E-03 0. -1.
        -11    1    3    3    0    0 -0.22042691417E+01 -0.55029339214E+01  0.25948240752E+01  0.64710274636E+01  0.51100000000E-03 0.  1.
        -12    1    3    3    0    0  0.78876989376E+01 -0.21190592056E+02  0.17928319943E+02  0.28856223630E+02  0.00000000000E+00 0.  1.
</event>
<event>
 7    1  0.2387817E-009  0.4778727E+02  0.7816164E-02  0.1312668E+00
        -11   -1    0    0    0    0  0.00000000000E+00  0.00000000000E+00  0.45593999997E+02  0.45594000000E+02  0.51100000000E-03 0. -1.
         11   -1    0    0    0    0 -0.00000000000E+00 -0.00000000000E+00 -0.45593999997E+02  0.45594000000E+02  0.51100000000E-03 0.  1.
    9900012    2    1    2    0    0  0.25392482908E+02  0.28596204525E+02 -0.20520777147E+02  0.47787269635E+02  0.19999993573E+02 0.  0.
         12    1    1    2    0    0 -0.25392482908E+02 -0.28596204525E+02  0.20520777147E+02  0.43400730365E+02  0.00000000000E+00 0. -1.
         11    1    3    3    0    0  0.57937276785E+01  0.80931929130E+01 -0.12982777820E+02  0.16359082252E+02  0.51100000000E-03 0. -1.
        -11    1    3    3    0    0  0.14720668304E+02  0.13082786975E+02 -0.10171753370E+02  0.22165783479E+02  0.51100000000E-03 0.  1.
         12    1    3    3    0    0  0.48780869259E+01  0.74202246371E+01  0.26337540425E+01  0.92624039039E+01  0.00000000000E+00 0. -1.
</event>
<event>
 7    1  0.2387817E-009  0.4778727E+02  0.7816164E-02  0.1312668E+00
        -11   -1    0    0    0    0  0.00000000000E+00  0.00000000000E+00  0.45593999997E+02  0.45594000000E+02  0.51100000000E-03 0.  1.
         11   -1    0    0    0    0 -0.00000000000E+00 -0.00000000000E+00 -0.45593999997E+02  0.45594000000E+02  0.51100000000E-03 0. -1.
    9900012    2    1    2    0    0 -0.40742446862E+02  0.24608481180E+01  0.14751955645E+02  0.47787274832E+02  0.20000017268E+02 0.  0.
         12    1    1    2    0    0  0.40742446862E+02 -0.24608481180E+01 -0.14751955645E+02  0.43400725168E+02  0.00000000000E+00 0. -1.
         11    1    3    3    0    0 -0.10472986423E+01 -0.19996095058E+01  0.98469268785E+00  0.24627002604E+01  0.51100000000E-03 0. -1.
        -11    1    3    3    0    0 -0.86403585258E+01 -0.20684014892E+01 -0.30710423785E+01  0.94002862577E+01  0.51100000000E-03 0.  1.
         12    1    3    3    0    0 -0.31054789694E+02  0.65288591130E+01  0.16838305335E+02  0.35924288314E+02  0.00000000000E+00 0. -1.
</event>
<event>
 7    1  0.2387817E-009  0.4778727E+02  0.7816164E-02  0.1312668E+00
        -11   -1    0    0    0    0  0.00000000000E+00  0.00000000000E+00  0.45593999997E+02  0.45594000000E+02  0.51100000000E-03 0.  1.
         11   -1    0    0    0    0 -0.00000000000E+00 -0.00000000000E+00 -0.45593999997E+02  0.45594000000E+02  0.51100000000E-03 0. -1.
    9900012    2    1    2    0    0 -0.15398974375E+02 -0.11187491225E+02  0.39004289054E+02  0.47787274933E+02  0.20000017730E+02 0.  0.
         12    1    1    2    0    0  0.15398974375E+02  0.11187491225E+02 -0.39004289054E+02  0.43400725067E+02  0.00000000000E+00 0. -1.
         11    1    3    3    0    0 -0.23243851938E+01 -0.39578053357E+01  0.63444605711E+01  0.78306557710E+01  0.51100000000E-03 0. -1.
        -11    1    3    3    0    0 -0.15556893013E+02 -0.98139006128E+01  0.21812146480E+02  0.28532425410E+02  0.51100000000E-03 0.  1.
         12    1    3    3    0    0  0.24823038314E+01  0.25842147234E+01  0.10847682002E+02  0.11424193752E+02  0.00000000000E+00 0. -1.
</event>
<event>
 7    1  0.2387817E-009  0.4778727E+02  0.7816164E-02  0.1312668E+00
        -11   -1    0    0    0    0  0.00000000000E+00  0.00000000000E+00  0.45593999997E+02  0.45594000000E+02  0.51100000000E-03 0.  1.
         11   -1    0    0    0    0 -0.00000000000E+00 -0.00000000000E+00 -0.45593999997E+02  0.45594000000E+02  0.51100000000E-03 0. -1.
    9900012    2    1    2    0    0  0.26901183156E+02  0.14880088282E+02  0.30635481322E+02  0.47787269611E+02  0.19999993463E+02 0.  0.
         12    1    1    2    0    0 -0.26901183156E+02 -0.14880088282E+02 -0.30635481322E+02  0.43400730389E+02  0.00000000000E+00 0. -1.
         11    1    3    3    0    0  0.53360328477E+01  0.15529851573E-01  0.26654624304E+01  0.59647445844E+01  0.51100000000E-03 0. -1.
        -11    1    3    3    0    0  0.13016695940E+02  0.24777618397E+01  0.21895400512E+02  0.25592620826E+02  0.51100000000E-03 0.  1.
         12    1    3    3    0    0  0.85484543689E+01  0.12386796591E+02  0.60746183799E+01  0.16229904200E+02  0.00000000000E+00 0. -1.
</event>
<event>
 7    1  0.2387817E-009  0.4778727E+02  0.7816164E-02  0.1312668E+00
        -11   -1    0    0    0    0  0.00000000000E+00  0.00000000000E+00  0.45593999997E+02  0.45594000000E+02  0.51100000000E-03 0.  1.
         11   -1    0    0    0    0 -0.00000000000E+00 -0.00000000000E+00 -0.45593999997E+02  0.45594000000E+02  0.51100000000E-03 0. -1.
    9900012    2    1    2    0    0 -0.60195853627E+01  0.34100206587E+02  0.26164166607E+02  0.47787272916E+02  0.20000008532E+02 0.  0.
         12    1    1    2    0    0  0.60195853627E+01 -0.34100206587E+02 -0.26164166607E+02  0.43400727084E+02  0.00000000000E+00 0. -1.
         11    1    3    3    0    0  0.24449127033E+01  0.88421363356E+01  0.16344766191E+02  0.18743328286E+02  0.51100000000E-03 0. -1.
        -11    1    3    3    0    0 -0.41559736730E+01  0.16273585128E+02  0.89766640132E+01  0.19044216633E+02  0.51100000000E-03 0.  1.
         12    1    3    3    0    0 -0.43085243930E+01  0.89844851236E+01  0.84273640194E+00  0.99997279975E+01  0.00000000000E+00 0. -1.
</event>
<event>
 7    1  0.2387817E-009  0.4778727E+02  0.7816164E-02  0.1312668E+00
        -11   -1    0    0    0    0  0.00000000000E+00  0.00000000000E+00  0.45593999997E+02  0.45594000000E+02  0.51100000000E-03 0.  1.
         11   -1    0    0    0    0 -0.00000000000E+00 -0.00000000000E+00 -0.45593999997E+02  0.45594000000E+02  0.51100000000E-03 0. -1.
    9900012    2    1    2    0    0  0.21355310289E+02  0.20093585441E+02  0.31997217220E+02  0.47787270015E+02  0.19999995307E+02 0.  0.
         12    1    1    2    0    0 -0.21355310289E+02 -0.20093585441E+02 -0.31997217220E+02  0.43400729985E+02  0.00000000000E+00 0. -1.
         11    1    3    3    0    0  0.62362443022E+01  0.20199839759E+01  0.78218312064E+01  0.10205494694E+02  0.51100000000E-03 0. -1.
        -11    1    3    3    0    0  0.11582589666E+02  0.13406697813E+02  0.25987519516E+02  0.31452298811E+02  0.51100000000E-03 0.  1.
         12    1    3    3    0    0  0.35364763204E+01  0.46669036518E+01 -0.18121335026E+01  0.61294765104E+01  0.00000000000E+00 0. -1.
</event>
<event>
 7    1  0.2387817E-009  0.4778727E+02  0.7816164E-02  0.1312668E+00
        -11   -1    0    0    0    0  0.00000000000E+00  0.00000000000E+00  0.45593999997E+02  0.45594000000E+02  0.51100000000E-03 0.  1.
         11   -1    0    0    0    0 -0.00000000000E+00 -0.00000000000E+00 -0.45593999997E+02  0.45594000000E+02  0.51100000000E-03 0. -1.
    9900012    2    1    2    0    0  0.12912690060E+02 -0.31409737480E+02  0.27024322408E+02  0.47787272186E+02  0.20000005207E+02 0.  0.
         12    1    1    2    0    0 -0.12912690060E+02  0.31409737480E+02 -0.27024322408E+02  0.43400727814E+02  0.00000000000E+00 0. -1.
         11    1    3    3    0    0  0.42343851787E+01 -0.78999187752E+01  0.80862741962E+01  0.12071725856E+02  0.51100000000E-03 0.  1.
        -11    1    3    3    0    0  0.59097461360E+00 -0.11063473968E+02  0.17620376249E+02  0.20814114602E+02  0.51100000000E-03 0. -1.
         12    1    3    3    0    0  0.80873302678E+01 -0.12446344737E+02  0.13176719625E+01  0.14901431729E+02  0.00000000000E+00 0. -1.
</event>
<event>
 7    1  0.2387817E-009  0.4778727E+02  0.7816164E-02  0.1312668E+00
        -11   -1    0    0    0    0  0.00000000000E+00  0.00000000000E+00  0.45593999997E+02  0.45594000000E+02  0.51100000000E-03 0.  1.
         11   -1    0    0    0    0 -0.00000000000E+00 -0.00000000000E+00 -0.45593999997E+02  0.45594000000E+02  0.51100000000E-03 0. -1.
    9900012    2    1    2    0    0  0.37768962701E+02 -0.20071496087E+02  0.73663878163E+01  0.47787272263E+02  0.20000005554E+02 0.  0.
         12    1    1    2    0    0 -0.37768962701E+02  0.20071496087E+02 -0.73663878163E+01  0.43400727737E+02  0.00000000000E+00 0. -1.
         11    1    3    3    0    0  0.85245798940E+01 -0.56239532796E+01 -0.24923250827E+01  0.10512325977E+02  0.51100000000E-03 0. -1.
        -11    1    3    3    0    0  0.39008807251E+01 -0.68166445740E+01 -0.22490941988E+01  0.81695739580E+01  0.51100000000E-03 0.  1.
        -12    1    3    3    0    0  0.25343502082E+02 -0.76308982333E+01  0.12107807098E+02  0.29105372328E+02  0.00000000000E+00 0.  1.
</event>
<event>
 7    1  0.2387817E-009  0.4778727E+02  0.7816164E-02  0.1312668E+00
        -11   -1    0    0    0    0  0.00000000000E+00  0.00000000000E+00  0.45593999997E+02  0.45594000000E+02  0.51100000000E-03 0.  1.
         11   -1    0    0    0    0 -0.00000000000E+00 -0.00000000000E+00 -0.45593999997E+02  0.45594000000E+02  0.51100000000E-03 0. -1.
    9900012    2    1    2    0    0 -0.22248892427E+02 -0.48369991259E+00  0.37260914646E+02  0.47787274890E+02  0.20000017534E+02 0.  0.
         12    1    1    2    0    0  0.22248892427E+02  0.48369991259E+00 -0.37260914646E+02  0.43400725110E+02  0.00000000000E+00 0. -1.
         11    1    3    3    0    0 -0.70165524474E+01 -0.21865727409E+01  0.83474859903E+01  0.11121763854E+02  0.51100000000E-03 0.  1.
        -11    1    3    3    0    0 -0.35987783840E+01  0.33669531464E+01 -0.53649492129E+00  0.49573588138E+01  0.51100000000E-03 0. -1.
        -12    1    3    3    0    0 -0.11633561596E+02 -0.16640803181E+01  0.29449923577E+02  0.31708152223E+02  0.00000000000E+00 0.  1.
</event>
<event>
 7    1  0.2387817E-009  0.4778727E+02  0.7816164E-02  0.1312668E+00
        -11   -1    0    0    0    0  0.00000000000E+00  0.00000000000E+00  0.45593999997E+02  0.45594000000E+02  0.51100000000E-03 0.  1.
         11   -1    0    0    0    0 -0.00000000000E+00 -0.00000000000E+00 -0.45593999997E+02  0.45594000000E+02  0.51100000000E-03 0. -1.
    9900012    2    1    2    0    0 -0.40451192945E+02  0.11679620305E+02  0.10531427826E+02  0.47787268287E+02  0.19999987427E+02 0.  0.
         12    1    1    2    0    0  0.40451192945E+02 -0.11679620305E+02 -0.10531427826E+02  0.43400731713E+02  0.00000000000E+00 0. -1.
         11    1    3    3    0    0 -0.73893787943E+01  0.48830172168E+01 -0.49953788406E+01  0.10168607876E+02  0.51100000000E-03 0. -1.
        -11    1    3    3    0    0 -0.63048341555E+01  0.32583739827E+01  0.17209499631E+01  0.73027120836E+01  0.51100000000E-03 0.  1.
        -12    1    3    3    0    0 -0.26756979996E+02  0.35382291057E+01  0.13805856703E+02  0.30315948328E+02  0.00000000000E+00 0.  1.
</event>
<event>
 7    1  0.2387817E-009  0.4778727E+02  0.7816164E-02  0.1312668E+00
        -11   -1    0    0    0    0  0.00000000000E+00  0.00000000000E+00  0.45593999997E+02  0.45594000000E+02  0.51100000000E-03 0.  1.
         11   -1    0    0    0    0 -0.00000000000E+00 -0.00000000000E+00 -0.45593999997E+02  0.45594000000E+02  0.51100000000E-03 0. -1.
    9900012    2    1    2    0    0 -0.30358154086E+02  0.23656854225E+02  0.20058888663E+02  0.47787270908E+02  0.19999999380E+02 0.  0.
         12    1    1    2    0    0  0.30358154086E+02 -0.23656854225E+02 -0.20058888663E+02  0.43400729092E+02  0.00000000000E+00 0. -1.
         11    1    3    3    0    0 -0.50330480436E+01 -0.33102853397E+01  0.91708086664E+00  0.60934882634E+01  0.51100000000E-03 0. -1.
        -11    1    3    3    0    0 -0.38838803653E+01  0.32169607053E+01  0.25867565051E+01  0.56678631202E+01  0.51100000000E-03 0.  1.
         12    1    3    3    0    0 -0.21441225677E+02  0.23750178859E+02  0.16555051291E+02  0.36025919525E+02  0.00000000000E+00 0. -1.
</event>
<event>
 7    1  0.2387817E-009  0.4778727E+02  0.7816164E-02  0.1312668E+00
        -11   -1    0    0    0    0  0.00000000000E+00  0.00000000000E+00  0.45593999997E+02  0.45594000000E+02  0.51100000000E-03 0. -1.
         11   -1    0    0    0    0 -0.00000000000E+00 -0.00000000000E+00 -0.45593999997E+02  0.45594000000E+02  0.51100000000E-03 0.  1.
    9900012    2    1    2    0    0  0.35999801512E+02  0.10324937064E+02 -0.21932470742E+02  0.47787270661E+02  0.19999998252E+02 0.  0.
         12    1    1    2    0    0 -0.35999801512E+02 -0.10324937064E+02  0.21932470742E+02  0.43400729339E+02  0.00000000000E+00 0. -1.
         11    1    3    3    0    0  0.58153691065E+01  0.35644090783E+01  0.23213023822E+01  0.72049965256E+01  0.51100000000E-03 0. -1.
        -11    1    3    3    0    0  0.23763401836E+01 -0.11214428257E+01  0.31645163169E+00  0.26466523337E+01  0.51100000000E-03 0.  1.
         12    1    3    3    0    0  0.27808092222E+02  0.78819708116E+01 -0.24570224756E+02  0.37935621802E+02  0.00000000000E+00 0. -1.
</event>
<event>
 7    1  0.2387817E-009  0.4778728E+02  0.7816164E-02  0.1312668E+00
        -11   -1    0    0    0    0  0.00000000000E+00  0.00000000000E+00  0.45593999997E+02  0.45594000000E+02  0.51100000000E-03 0. -1.
         11   -1    0    0    0    0 -0.00000000000E+00 -0.00000000000E+00 -0.45593999997E+02  0.45594000000E+02  0.51100000000E-03 0.  1.
    9900012    2    1    2    0    0  0.14948173450E+02  0.18691246127E+02 -0.36205139804E+02  0.47787277431E+02  0.20000029119E+02 0.  0.
         12    1    1    2    0    0 -0.14948173450E+02 -0.18691246127E+02  0.36205139804E+02  0.43400722569E+02  0.00000000000E+00 0. -1.
         11    1    3    3    0    0  0.14445515682E+01 -0.39344037269E+01 -0.78889846103E+01  0.89332155668E+01  0.51100000000E-03 0. -1.
        -11    1    3    3    0    0  0.49674952648E+01  0.53056913548E+01 -0.69662581147E+01  0.10067528115E+02  0.51100000000E-03 0.  1.
        -12    1    3    3    0    0  0.85361266166E+01  0.17319958499E+02 -0.21349897079E+02  0.28786533750E+02  0.00000000000E+00 0.  1.
</event>
<event>
 7    1  0.2387817E-009  0.4778729E+02  0.7816164E-02  0.1312668E+00
        -11   -1    0    0    0    0  0.00000000000E+00  0.00000000000E+00  0.45593999997E+02  0.45594000000E+02  0.51100000000E-03 0. -1.
         11   -1    0    0    0    0 -0.00000000000E+00 -0.00000000000E+00 -0.45593999997E+02  0.45594000000E+02  0.51100000000E-03 0.  1.
    9900012    2    1    2    0    0 -0.59617880409E+01  0.38935141486E+02  0.18224532673E+02  0.47787288597E+02  0.20000080027E+02 0.  0.
         12    1    1    2    0    0  0.59617880409E+01 -0.38935141486E+02 -0.18224532673E+02  0.43400711403E+02  0.00000000000E+00 0. -1.
         11    1    3    3    0    0  0.10080733591E+01  0.10362272615E+01  0.59126384848E+01  0.60868113941E+01  0.51100000000E-03 0. -1.
        -11    1    3    3    0    0 -0.14483154989E+01  0.97839114046E+01  0.80100474505E+01  0.12727269958E+02  0.51100000000E-03 0.  1.
        -12    1    3    3    0    0 -0.55215459011E+01  0.28115002820E+02  0.43018467382E+01  0.28973207245E+02  0.00000000000E+00 0.  1.
</event>
<event>
 7    1  0.2387817E-009  0.4778726E+02  0.7816164E-02  0.1312668E+00
        -11   -1    0    0    0    0  0.00000000000E+00  0.00000000000E+00  0.45593999997E+02  0.45594000000E+02  0.51100000000E-03 0. -1.
         11   -1    0    0    0    0 -0.00000000000E+00 -0.00000000000E+00 -0.45593999997E+02  0.45594000000E+02  0.51100000000E-03 0.  1.
    9900012    2    1    2    0    0  0.42643739372E+02 -0.44092918475E+01 -0.67596965475E+01  0.47787264297E+02  0.19999969234E+02 0.  0.
         12    1    1    2    0    0 -0.42643739372E+02  0.44092918475E+01  0.67596965475E+01  0.43400735703E+02  0.00000000000E+00 0. -1.
         11    1    3    3    0    0  0.10219385888E+02  0.23817932039E+01 -0.62936840698E+01  0.12235981621E+02  0.51100000000E-03 0. -1.
        -11    1    3    3    0    0  0.19547932397E+02  0.22121337568E+01 -0.19523985704E+01  0.19769346403E+02  0.51100000000E-03 0.  1.
         12    1    3    3    0    0  0.12876421087E+02 -0.90032188082E+01  0.14863860927E+01  0.15781936273E+02  0.00000000000E+00 0. -1.
</event>
<event>
 7    1  0.2387817E-009  0.4778727E+02  0.7816164E-02  0.1312668E+00
        -11   -1    0    0    0    0  0.00000000000E+00  0.00000000000E+00  0.45593999997E+02  0.45594000000E+02  0.51100000000E-03 0. -1.
         11   -1    0    0    0    0 -0.00000000000E+00 -0.00000000000E+00 -0.45593999997E+02  0.45594000000E+02  0.51100000000E-03 0.  1.
    9900012    2    1    2    0    0  0.34596635192E+02  0.19514157183E+02  0.17489834094E+02  0.47787265055E+02  0.19999972690E+02 0.  0.
         12    1    1    2    0    0 -0.34596635192E+02 -0.19514157183E+02 -0.17489834094E+02  0.43400734945E+02  0.00000000000E+00 0. -1.
         11    1    3    3    0    0  0.94872055874E+01  0.11197657403E+01  0.44308446798E+01  0.10530590202E+02  0.51100000000E-03 0. -1.
        -11    1    3    3    0    0  0.12528528964E+02  0.61495602955E+01 -0.20350987880E+01  0.14103997914E+02  0.51100000000E-03 0.  1.
         12    1    3    3    0    0  0.12580900640E+02  0.12244831147E+02  0.15094088202E+02  0.23152676938E+02  0.00000000000E+00 0. -1.
</event>
<event>
 7    1  0.2387817E-009  0.4778727E+02  0.7816164E-02  0.1312668E+00
        -11   -1    0    0    0    0  0.00000000000E+00  0.00000000000E+00  0.45593999997E+02  0.45594000000E+02  0.51100000000E-03 0.  1.
         11   -1    0    0    0    0 -0.00000000000E+00 -0.00000000000E+00 -0.45593999997E+02  0.45594000000E+02  0.51100000000E-03 0. -1.
    9900012    2    1    2    0    0  0.94389998934E+01  0.40750701705E+02  0.11571898718E+02  0.47787271338E+02  0.20000001338E+02 0.  0.
         12    1    1    2    0    0 -0.94389998934E+01 -0.40750701705E+02 -0.11571898718E+02  0.43400728662E+02  0.00000000000E+00 0. -1.
         11    1    3    3    0    0 -0.53237168398E+01  0.13128852869E+02  0.29743521146E+01  0.14476032240E+02  0.51100000000E-03 0. -1.
        -11    1    3    3    0    0 -0.27484521972E+00  0.20290768361E+00 -0.62117055747E+00  0.70891786933E+00  0.51100000000E-03 0.  1.
        -12    1    3    3    0    0  0.15037561953E+02  0.27418941153E+02  0.92187171610E+01  0.32602321229E+02  0.00000000000E+00 0.  1.
</event>
<event>
 7    1  0.2387817E-009  0.4778727E+02  0.7816164E-02  0.1312668E+00
        -11   -1    0    0    0    0  0.00000000000E+00  0.00000000000E+00  0.45593999997E+02  0.45594000000E+02  0.51100000000E-03 0. -1.
         11   -1    0    0    0    0 -0.00000000000E+00 -0.00000000000E+00 -0.45593999997E+02  0.45594000000E+02  0.51100000000E-03 0.  1.
    9900012    2    1    2    0    0 -0.35281967768E+02 -0.25078223276E+02  0.31446475547E+01  0.47787270277E+02  0.19999996501E+02 0.  0.
         12    1    1    2    0    0  0.35281967768E+02  0.25078223276E+02 -0.31446475547E+01  0.43400729723E+02  0.00000000000E+00 0. -1.
         11    1    3    3    0    0 -0.92082540332E+01  0.20049718252E+01  0.10224254045E+01  0.94793042112E+01  0.51100000000E-03 0. -1.
        -11    1    3    3    0    0 -0.13003048262E+02 -0.90635108532E+01  0.24866606234E+01  0.16044001197E+02  0.51100000000E-03 0.  1.
         12    1    3    3    0    0 -0.13070665473E+02 -0.18019684248E+02 -0.36443847318E+00  0.22263964869E+02  0.00000000000E+00 0. -1.
</event>
<event>
 7    1  0.2387817E-009  0.4778727E+02  0.7816164E-02  0.1312668E+00
        -11   -1    0    0    0    0  0.00000000000E+00  0.00000000000E+00  0.45593999997E+02  0.45594000000E+02  0.51100000000E-03 0.  1.
         11   -1    0    0    0    0 -0.00000000000E+00 -0.00000000000E+00 -0.45593999997E+02  0.45594000000E+02  0.51100000000E-03 0. -1.
    9900012    2    1    2    0    0 -0.13366631743E+02 -0.41260806493E+02 -0.15818474132E+01  0.47787271459E+02  0.20000001892E+02 0.  0.
         12    1    1    2    0    0  0.13366631743E+02  0.41260806493E+02  0.15818474132E+01  0.43400728541E+02  0.00000000000E+00 0. -1.
         11    1    3    3    0    0 -0.54857605834E+01 -0.30096055983E+02 -0.56566570702E+01  0.31110511478E+02  0.51100000000E-03 0. -1.
        -11    1    3    3    0    0 -0.49790824651E+01 -0.57013852388E+01 -0.21824040698E+01  0.78778133781E+01  0.51100000000E-03 0.  1.
        -12    1    3    3    0    0 -0.29017886940E+01 -0.54633652710E+01  0.62572137269E+01  0.87989466036E+01  0.00000000000E+00 0.  1.
</event>
<event>
 7    1  0.2387817E-009  0.4778727E+02  0.7816164E-02  0.1312668E+00
        -11   -1    0    0    0    0  0.00000000000E+00  0.00000000000E+00  0.45593999997E+02  0.45594000000E+02  0.51100000000E-03 0.  1.
         11   -1    0    0    0    0 -0.00000000000E+00 -0.00000000000E+00 -0.45593999997E+02  0.45594000000E+02  0.51100000000E-03 0. -1.
    9900012    2    1    2    0    0  0.35707419856E+02 -0.10121665431E+02  0.22497901971E+02  0.47787268013E+02  0.19999986179E+02 0.  0.
         12    1    1    2    0    0 -0.35707419856E+02  0.10121665431E+02 -0.22497901971E+02  0.43400731987E+02  0.00000000000E+00 0. -1.
         11    1    3    3    0    0 -0.26001288163E+00 -0.26831593883E+01  0.15946452153E+01  0.31320671489E+01  0.51100000000E-03 0. -1.
        -11    1    3    3    0    0  0.22471678818E+02 -0.97237271067E+01  0.18659163752E+02  0.30784600207E+02  0.51100000000E-03 0.  1.
        -12    1    3    3    0    0  0.13495753920E+02  0.22852210637E+01  0.22440930041E+01  0.13870600657E+02  0.00000000000E+00 0.  1.
</event>
<event>
 7    1  0.2387817E-009  0.4778727E+02  0.7816164E-02  0.1312668E+00
        -11   -1    0    0    0    0  0.00000000000E+00  0.00000000000E+00  0.45593999997E+02  0.45594000000E+02  0.51100000000E-03 0.  1.
         11   -1    0    0    0    0 -0.00000000000E+00 -0.00000000000E+00 -0.45593999997E+02  0.45594000000E+02  0.51100000000E-03 0. -1.
    9900012    2    1    2    0    0  0.43295616683E+02 -0.28189953695E+01  0.10798846493E+01  0.47787270632E+02  0.19999998119E+02 0.  0.
         12    1    1    2    0    0 -0.43295616683E+02  0.28189953695E+01 -0.10798846493E+01  0.43400729368E+02  0.00000000000E+00 0. -1.
         11    1    3    3    0    0  0.96438787523E+01  0.13973193622E+01 -0.72227494710E+00  0.97713141465E+01  0.51100000000E-03 0. -1.
        -11    1    3    3    0    0  0.18780314707E+02 -0.10140936229E+02  0.44171541918E+01  0.21795643131E+02  0.51100000000E-03 0.  1.
        -12    1    3    3    0    0  0.14871423223E+02  0.59246214971E+01 -0.26149945954E+01  0.16220313354E+02  0.00000000000E+00 0.  1.
</event>
<event>
 7    1  0.2387817E-009  0.4778727E+02  0.7816164E-02  0.1312668E+00
        -11   -1    0    0    0    0  0.00000000000E+00  0.00000000000E+00  0.45593999997E+02  0.45594000000E+02  0.51100000000E-03 0. -1.
         11   -1    0    0    0    0 -0.00000000000E+00 -0.00000000000E+00 -0.45593999997E+02  0.45594000000E+02  0.51100000000E-03 0.  1.
    9900012    2    1    2    0    0  0.17378961974E+02 -0.85175786210E+01 -0.38846443674E+02  0.47787266701E+02  0.19999980194E+02 0.  0.
         12    1    1    2    0    0 -0.17378961974E+02  0.85175786210E+01  0.38846443674E+02  0.43400733299E+02  0.00000000000E+00 0. -1.
         11    1    3    3    0    0  0.77930573801E+01 -0.61759478756E+01 -0.29836646782E+02  0.31449953370E+02  0.51100000000E-03 0.  1.
        -11    1    3    3    0    0  0.85612860268E+00 -0.43716637665E+01 -0.43888272500E+01  0.62534954356E+01  0.51100000000E-03 0. -1.
        -12    1    3    3    0    0  0.87297759909E+01  0.20300330211E+01 -0.46209696414E+01  0.10083817895E+02  0.00000000000E+00 0.  1.
</event>
<event>
 7    1  0.2387817E-009  0.4778727E+02  0.7816164E-02  0.1312668E+00
        -11   -1    0    0    0    0  0.00000000000E+00  0.00000000000E+00  0.45593999997E+02  0.45594000000E+02  0.51100000000E-03 0.  1.
         11   -1    0    0    0    0 -0.00000000000E+00 -0.00000000000E+00 -0.45593999997E+02  0.45594000000E+02  0.51100000000E-03 0. -1.
    9900012    2    1    2    0    0  0.62866242313E+01 -0.42938789996E+02 -0.60164637249E+00  0.47787270641E+02  0.19999998160E+02 0.  0.
         12    1    1    2    0    0 -0.62866242313E+01  0.42938789996E+02  0.60164637249E+00  0.43400729359E+02  0.00000000000E+00 0. -1.
         11    1    3    3    0    0 -0.53842510611E+01 -0.17221990886E+02 -0.20928004141E+01  0.18164992249E+02  0.51100000000E-03 0. -1.
        -11    1    3    3    0    0 -0.15744054476E+00 -0.13091987275E+01 -0.18742106988E+01  0.22916052971E+01  0.51100000000E-03 0.  1.
        -12    1    3    3    0    0  0.11828315837E+02 -0.24407600382E+02  0.33653647404E+01  0.27330673094E+02  0.00000000000E+00 0.  1.
</event>
<event>
 7    1  0.2387817E-009  0.4778727E+02  0.7816164E-02  0.1312668E+00
        -11   -1    0    0    0    0  0.00000000000E+00  0.00000000000E+00  0.45593999997E+02  0.45594000000E+02  0.51100000000E-03 0.  1.
         11   -1    0    0    0    0 -0.00000000000E+00 -0.00000000000E+00 -0.45593999997E+02  0.45594000000E+02  0.51100000000E-03 0. -1.
    9900012    2    1    2    0    0 -0.40174649058E+02 -0.16419899419E+02  0.87697947030E-01  0.47787271725E+02  0.20000003104E+02 0.  0.
         12    1    1    2    0    0  0.40174649058E+02  0.16419899419E+02 -0.87697947030E-01  0.43400728275E+02  0.00000000000E+00 0. -1.
         11    1    3    3    0    0 -0.23860477769E+02 -0.17040955934E+02  0.29457962525E+00  0.29322403652E+02  0.51100000000E-03 0. -1.
        -11    1    3    3    0    0 -0.13744688154E+02 -0.25182894171E+01 -0.18351708917E+01  0.14093476736E+02  0.51100000000E-03 0.  1.
        -12    1    3    3    0    0 -0.25694831343E+01  0.31393459319E+01  0.16282892135E+01  0.43713913369E+01  0.00000000000E+00 0.  1.
</event>
<event>
 7    1  0.2387817E-009  0.4778727E+02  0.7816164E-02  0.1312668E+00
        -11   -1    0    0    0    0  0.00000000000E+00  0.00000000000E+00  0.45593999997E+02  0.45594000000E+02  0.51100000000E-03 0.  1.
         11   -1    0    0    0    0 -0.00000000000E+00 -0.00000000000E+00 -0.45593999997E+02  0.45594000000E+02  0.51100000000E-03 0. -1.
    9900012    2    1    2    0    0  0.43331844078E+00 -0.30705047451E+01  0.43289811375E+02  0.47787268057E+02  0.19999986380E+02 0.  0.
         12    1    1    2    0    0 -0.43331844078E+00  0.30705047451E+01 -0.43289811375E+02  0.43400731943E+02  0.00000000000E+00 0. -1.
         11    1    3    3    0    0 -0.88963526839E+00  0.53067565791E+00  0.16334969921E+01  0.19342647826E+01  0.51100000000E-03 0. -1.
        -11    1    3    3    0    0  0.18279574404E+01 -0.82594901480E+01  0.39997745177E+02  0.40882517356E+02  0.51100000000E-03 0.  1.
        -12    1    3    3    0    0 -0.50500373119E+00  0.46583097451E+01  0.16585692065E+01  0.49704859181E+01  0.00000000000E+00 0.  1.
</event>
<event>
 7    1  0.2387817E-009  0.4778727E+02  0.7816164E-02  0.1312668E+00
        -11   -1    0    0    0    0  0.00000000000E+00  0.00000000000E+00  0.45593999997E+02  0.45594000000E+02  0.51100000000E-03 0.  1.
         11   -1    0    0    0    0 -0.00000000000E+00 -0.00000000000E+00 -0.45593999997E+02  0.45594000000E+02  0.51100000000E-03 0. -1.
    9900012    2    1    2    0    0  0.28248151236E+02 -0.17790057717E+02  0.27734084076E+02  0.47787267041E+02  0.19999981746E+02 0.  0.
         12    1    1    2    0    0 -0.28248151236E+02  0.17790057717E+02 -0.27734084076E+02  0.43400732959E+02  0.00000000000E+00 0. -1.
         11    1    3    3    0    0  0.61804396984E+01 -0.10037368195E+02  0.99587434952E+01  0.15431239983E+02  0.51100000000E-03 0. -1.
        -11    1    3    3    0    0  0.15837634155E+02 -0.82586574450E+01  0.18900367913E+02  0.26004999249E+02  0.51100000000E-03 0.  1.
         12    1    3    3    0    0  0.62300773832E+01  0.50596792226E+00 -0.11250273320E+01  0.63510278094E+01  0.00000000000E+00 0. -1.
</event>
<event>
 7    1  0.2387817E-009  0.4778726E+02  0.7816164E-02  0.1312668E+00
        -11   -1    0    0    0    0  0.00000000000E+00  0.00000000000E+00  0.45593999997E+02  0.45594000000E+02  0.51100000000E-03 0. -1.
         11   -1    0    0    0    0 -0.00000000000E+00 -0.00000000000E+00 -0.45593999997E+02  0.45594000000E+02  0.51100000000E-03 0.  1.
    9900012    2    1    2    0    0 -0.18622954527E+02 -0.24283237306E+02 -0.30775544442E+02  0.47787260547E+02  0.19999952136E+02 0.  0.
         12    1    1    2    0    0  0.18622954527E+02  0.24283237306E+02  0.30775544442E+02  0.43400739453E+02  0.00000000000E+00 0. -1.
         11    1    3    3    0    0 -0.99919263219E+00  0.12217028593E+01 -0.17472626903E+01  0.23545426229E+01  0.51100000000E-03 0. -1.
        -11    1    3    3    0    0 -0.15375054614E+02 -0.19060660082E+02 -0.12381207438E+02  0.27440761014E+02  0.51100000000E-03 0.  1.
        -12    1    3    3    0    0 -0.22487072805E+01 -0.64442800837E+01 -0.16647074314E+02  0.17991956910E+02  0.00000000000E+00 0.  1.
</event>
<event>
 7    1  0.2387817E-009  0.4778727E+02  0.7816164E-02  0.1312668E+00
        -11   -1    0    0    0    0  0.00000000000E+00  0.00000000000E+00  0.45593999997E+02  0.45594000000E+02  0.51100000000E-03 0. -1.
         11   -1    0    0    0    0 -0.00000000000E+00 -0.00000000000E+00 -0.45593999997E+02  0.45594000000E+02  0.51100000000E-03 0.  1.
    9900012    2    1    2    0    0  0.83208477048E+01  0.18491574878E+02 -0.38372496594E+02  0.47787270250E+02  0.19999996378E+02 0.  0.
         12    1    1    2    0    0 -0.83208477048E+01 -0.18491574878E+02  0.38372496594E+02  0.43400729750E+02  0.00000000000E+00 0. -1.
         11    1    3    3    0    0 -0.34966721690E+01  0.10129801006E+01 -0.92782242601E+01  0.99668596169E+01  0.51100000000E-03 0. -1.
        -11    1    3    3    0    0 -0.92579198399E+00  0.52449369121E+01 -0.24751035589E+01  0.58730394089E+01  0.51100000000E-03 0.  1.
        -12    1    3    3    0    0  0.12743311858E+02  0.12233657865E+02 -0.26619168775E+02  0.31947371224E+02  0.00000000000E+00 0.  1.
</event>
<event>
 7    1  0.2387817E-009  0.4778727E+02  0.7816164E-02  0.1312668E+00
        -11   -1    0    0    0    0  0.00000000000E+00  0.00000000000E+00  0.45593999997E+02  0.45594000000E+02  0.51100000000E-03 0.  1.
         11   -1    0    0    0    0 -0.00000000000E+00 -0.00000000000E+00 -0.45593999997E+02  0.45594000000E+02  0.51100000000E-03 0. -1.
    9900012    2    1    2    0    0 -0.14290617073E+02  0.19877491937E+02  0.35836948081E+02  0.47787271091E+02  0.20000000211E+02 0.  0.
         12    1    1    2    0    0  0.14290617073E+02 -0.19877491937E+02 -0.35836948081E+02  0.43400728909E+02  0.00000000000E+00 0. -1.
         11    1    3    3    0    0 -0.11781993271E+02  0.21577246050E+01  0.11084407008E+02  0.16319780020E+02  0.51100000000E-03 0. -1.
        -11    1    3    3    0    0 -0.25677282571E+01  0.46913906853E+01  0.12442634690E+02  0.13543320614E+02  0.51100000000E-03 0.  1.
        -12    1    3    3    0    0  0.59104455004E-01  0.13028376647E+02  0.12309906383E+02  0.17924170457E+02  0.00000000000E+00 0.  1.
</event>
<event>
 7    1  0.2387817E-009  0.4778727E+02  0.7816164E-02  0.1312668E+00
        -11   -1    0    0    0    0  0.00000000000E+00  0.00000000000E+00  0.45593999997E+02  0.45594000000E+02  0.51100000000E-03 0.  1.
         11   -1    0    0    0    0 -0.00000000000E+00 -0.00000000000E+00 -0.45593999997E+02  0.45594000000E+02  0.51100000000E-03 0. -1.
    9900012    2    1    2    0    0 -0.17041735085E+02  0.81558000800E+01  0.39072823201E+02  0.47787270484E+02  0.19999997445E+02 0.  0.
         12    1    1    2    0    0  0.17041735085E+02 -0.81558000800E+01 -0.39072823201E+02  0.43400729516E+02  0.00000000000E+00 0. -1.
         11    1    3    3    0    0 -0.49702490570E+01  0.16850821609E+01  0.26744540702E+02  0.27254602092E+02  0.51100000000E-03 0.  1.
        -11    1    3    3    0    0 -0.46590330594E+01 -0.20793129881E+01  0.36893988247E+01  0.62961730837E+01  0.51100000000E-03 0. -1.
        -12    1    3    3    0    0 -0.74124529687E+01  0.85500309072E+01  0.86388836738E+01  0.14236495308E+02  0.00000000000E+00 0.  1.
</event>
<event>
 7    1  0.2387817E-009  0.4778727E+02  0.7816164E-02  0.1312668E+00
        -11   -1    0    0    0    0  0.00000000000E+00  0.00000000000E+00  0.45593999997E+02  0.45594000000E+02  0.51100000000E-03 0.  1.
         11   -1    0    0    0    0 -0.00000000000E+00 -0.00000000000E+00 -0.45593999997E+02  0.45594000000E+02  0.51100000000E-03 0. -1.
    9900012    2    1    2    0    0 -0.13806260469E+02 -0.37577983092E+02  0.16760239180E+02  0.47787271218E+02  0.20000000793E+02 0.  0.
         12    1    1    2    0    0  0.13806260469E+02  0.37577983092E+02 -0.16760239180E+02  0.43400728782E+02  0.00000000000E+00 0. -1.
         11    1    3    3    0    0 -0.55904129098E+01 -0.59706996403E+01  0.25810382589E+01  0.85769300715E+01  0.51100000000E-03 0. -1.
        -11    1    3    3    0    0 -0.99471458851E+01 -0.12345033000E+02  0.11718164975E+02  0.19714485580E+02  0.51100000000E-03 0.  1.
        -12    1    3    3    0    0  0.17312983261E+01 -0.19262250452E+02  0.24610359461E+01  0.19495855567E+02  0.00000000000E+00 0.  1.
</event>
<event>
 7    1  0.2387817E-009  0.4778727E+02  0.7816164E-02  0.1312668E+00
        -11   -1    0    0    0    0  0.00000000000E+00  0.00000000000E+00  0.45593999997E+02  0.45594000000E+02  0.51100000000E-03 0. -1.
         11   -1    0    0    0    0 -0.00000000000E+00 -0.00000000000E+00 -0.45593999997E+02  0.45594000000E+02  0.51100000000E-03 0.  1.
    9900012    2    1    2    0    0  0.96152209916E+01 -0.44231370388E+01 -0.42090459391E+02  0.47787269733E+02  0.19999994019E+02 0.  0.
         12    1    1    2    0    0 -0.96152209916E+01  0.44231370388E+01  0.42090459391E+02  0.43400730267E+02  0.00000000000E+00 0. -1.
         11    1    3    3    0    0  0.35614264817E+01 -0.38690920891E+01 -0.34206474739E+01  0.62733134451E+01  0.51100000000E-03 0. -1.
        -11    1    3    3    0    0  0.79488531455E+01 -0.28830853358E+01 -0.12023549036E+02  0.14699053679E+02  0.51100000000E-03 0.  1.
         12    1    3    3    0    0 -0.18950586356E+01  0.23290403860E+01 -0.26646262881E+02  0.26814902608E+02  0.00000000000E+00 0. -1.
</event>
<event>
 7    1  0.2387817E-009  0.4778727E+02  0.7816164E-02  0.1312668E+00
        -11   -1    0    0    0    0  0.00000000000E+00  0.00000000000E+00  0.45593999997E+02  0.45594000000E+02  0.51100000000E-03 0. -1.
         11   -1    0    0    0    0 -0.00000000000E+00 -0.00000000000E+00 -0.45593999997E+02  0.45594000000E+02  0.51100000000E-03 0.  1.
    9900012    2    1    2    0    0 -0.22420498254E+02  0.91759080010E+01 -0.36010376337E+02  0.47787271509E+02  0.20000002118E+02 0.  0.
         12    1    1    2    0    0  0.22420498254E+02 -0.91759080010E+01  0.36010376337E+02  0.43400728491E+02  0.00000000000E+00 0. -1.
         11    1    3    3    0    0 -0.13032651520E+02  0.12481650658E+02 -0.27099523243E+02  0.32558036935E+02  0.51100000000E-03 0. -1.
        -11    1    3    3    0    0 -0.57721245302E+01  0.18422410733E+01 -0.43196638500E+01  0.74411537951E+01  0.51100000000E-03 0.  1.
         12    1    3    3    0    0 -0.36157222040E+01 -0.51479837305E+01 -0.45911892440E+01  0.77880807790E+01  0.00000000000E+00 0. -1.
</event>
<event>
 7    1  0.2387817E-009  0.4778725E+02  0.7816164E-02  0.1312668E+00
        -11   -1    0    0    0    0  0.00000000000E+00  0.00000000000E+00  0.45593999997E+02  0.45594000000E+02  0.51100000000E-03 0.  1.
         11   -1    0    0    0    0 -0.00000000000E+00 -0.00000000000E+00 -0.45593999997E+02  0.45594000000E+02  0.51100000000E-03 0. -1.
    9900012    2    1    2    0    0  0.19573909239E+02  0.48473851113E+01  0.38431626711E+02  0.47787251194E+02  0.19999909493E+02 0.  0.
         12    1    1    2    0    0 -0.19573909239E+02 -0.48473851113E+01 -0.38431626711E+02  0.43400748806E+02  0.00000000000E+00 0. -1.
         11    1    3    3    0    0  0.63339218643E+01  0.57712501969E+01  0.28267045663E+02  0.29537294490E+02  0.51100000000E-03 0. -1.
        -11    1    3    3    0    0  0.69791755702E+01 -0.23427174872E+00  0.96755709286E+01  0.11932327851E+02  0.51100000000E-03 0.  1.
         12    1    3    3    0    0  0.62608118045E+01 -0.68959333682E+00  0.48901011878E+00  0.63176288525E+01  0.00000000000E+00 0. -1.
</event>
<event>
 7    1  0.2387817E-009  0.4778726E+02  0.7816164E-02  0.1312668E+00
        -11   -1    0    0    0    0  0.00000000000E+00  0.00000000000E+00  0.45593999997E+02  0.45594000000E+02  0.51100000000E-03 0.  1.
         11   -1    0    0    0    0 -0.00000000000E+00 -0.00000000000E+00 -0.45593999997E+02  0.45594000000E+02  0.51100000000E-03 0. -1.
    9900012    2    1    2    0    0 -0.24515135033E+02  0.32012430388E+02  0.16057290041E+02  0.47787261429E+02  0.19999956161E+02 0.  0.
         12    1    1    2    0    0  0.24515135033E+02 -0.32012430388E+02 -0.16057290041E+02  0.43400738571E+02  0.00000000000E+00 0. -1.
         11    1    3    3    0    0  0.65570490817E+00 -0.83321069175E+00  0.13360849334E+01  0.17056705995E+01  0.51100000000E-03 0. -1.
        -11    1    3    3    0    0 -0.95404746790E+01  0.87553723774E+01 -0.16054017446E+01  0.13048161464E+02  0.51100000000E-03 0.  1.
        -12    1    3    3    0    0 -0.15630365262E+02  0.24090268702E+02  0.16326606853E+02  0.33033429366E+02  0.00000000000E+00 0.  1.
</event>
<event>
 7    1  0.2387817E-009  0.4778727E+02  0.7816164E-02  0.1312668E+00
        -11   -1    0    0    0    0  0.00000000000E+00  0.00000000000E+00  0.45593999997E+02  0.45594000000E+02  0.51100000000E-03 0.  1.
         11   -1    0    0    0    0 -0.00000000000E+00 -0.00000000000E+00 -0.45593999997E+02  0.45594000000E+02  0.51100000000E-03 0. -1.
    9900012    2    1    2    0    0  0.21836954031E+02 -0.30969177693E+02  0.21158467184E+02  0.47787271182E+02  0.20000000628E+02 0.  0.
         12    1    1    2    0    0 -0.21836954031E+02  0.30969177693E+02 -0.21158467184E+02  0.43400728818E+02  0.00000000000E+00 0. -1.
         11    1    3    3    0    0  0.59177837166E+01 -0.11692095769E+02  0.26828274437E+01  0.13376203906E+02  0.51100000000E-03 0. -1.
        -11    1    3    3    0    0  0.81007240575E+01 -0.19578938753E+02  0.14020792230E+02  0.25407463234E+02  0.51100000000E-03 0.  1.
         12    1    3    3    0    0  0.78184462566E+01  0.30185682846E+00  0.44548475104E+01  0.90036040424E+01  0.00000000000E+00 0. -1.
</event>
<event>
 7    1  0.2387817E-009  0.4778726E+02  0.7816164E-02  0.1312668E+00
        -11   -1    0    0    0    0  0.00000000000E+00  0.00000000000E+00  0.45593999997E+02  0.45594000000E+02  0.51100000000E-03 0.  1.
         11   -1    0    0    0    0 -0.00000000000E+00 -0.00000000000E+00 -0.45593999997E+02  0.45594000000E+02  0.51100000000E-03 0. -1.
    9900012    2    1    2    0    0  0.14980461161E+02 -0.99361312338E+00  0.40721284113E+02  0.47787257340E+02  0.19999937515E+02 0.  0.
         12    1    1    2    0    0 -0.14980461161E+02  0.99361312338E+00 -0.40721284113E+02  0.43400742660E+02  0.00000000000E+00 0. -1.
         11    1    3    3    0    0  0.41208171238E+01  0.13301512427E+01  0.10144268572E+01  0.44474147778E+01  0.51100000000E-03 0. -1.
        -11    1    3    3    0    0  0.11128211221E+02 -0.14586237293E+01  0.15609870407E+02  0.19225834769E+02  0.51100000000E-03 0.  1.
        -12    1    3    3    0    0 -0.26856718389E+00 -0.86514063673E+00  0.24096986849E+02  0.24114007793E+02  0.00000000000E+00 0.  1.
</event>
<event>
 7    1  0.2387817E-009  0.4778727E+02  0.7816164E-02  0.1312668E+00
        -11   -1    0    0    0    0  0.00000000000E+00  0.00000000000E+00  0.45593999997E+02  0.45594000000E+02  0.51100000000E-03 0.  1.
         11   -1    0    0    0    0 -0.00000000000E+00 -0.00000000000E+00 -0.45593999997E+02  0.45594000000E+02  0.51100000000E-03 0. -1.
    9900012    2    1    2    0    0  0.21899829371E+02 -0.86967757829E+01  0.36447038304E+02  0.47787273778E+02  0.20000012461E+02 0.  0.
         12    1    1    2    0    0 -0.21899829371E+02  0.86967757829E+01 -0.36447038304E+02  0.43400726222E+02  0.00000000000E+00 0. -1.
         11    1    3    3    0    0  0.11054977742E+02 -0.51172074126E+01  0.21344022580E+02  0.24575712497E+02  0.51100000000E-03 0. -1.
        -11    1    3    3    0    0  0.10519514412E+02  0.21116686773E+01  0.13587560839E+02  0.17313033757E+02  0.51100000000E-03 0.  1.
         12    1    3    3    0    0  0.32533721833E+00 -0.56912370476E+01  0.15154548846E+01  0.58985275235E+01  0.00000000000E+00 0. -1.
</event>
<event>
 7    1  0.2387817E-009  0.4778727E+02  0.7816164E-02  0.1312668E+00
        -11   -1    0    0    0    0  0.00000000000E+00  0.00000000000E+00  0.45593999997E+02  0.45594000000E+02  0.51100000000E-03 0.  1.
         11   -1    0    0    0    0 -0.00000000000E+00 -0.00000000000E+00 -0.45593999997E+02  0.45594000000E+02  0.51100000000E-03 0. -1.
    9900012    2    1    2    0    0 -0.26571739317E+01  0.37166737798E+02  0.22252999191E+02  0.47787274835E+02  0.20000017282E+02 0.  0.
         12    1    1    2    0    0  0.26571739317E+01 -0.37166737798E+02 -0.22252999191E+02  0.43400725165E+02  0.00000000000E+00 0. -1.
         11    1    3    3    0    0  0.27502196283E+01  0.64898929645E+01 -0.13310655976E+01  0.71731551343E+01  0.51100000000E-03 0. -1.
        -11    1    3    3    0    0 -0.54808617995E+01  0.64121101944E+01  0.35677011458E+01  0.91587933123E+01  0.51100000000E-03 0.  1.
        -12    1    3    3    0    0  0.73468239520E-01  0.24264734640E+02  0.20016363643E+02  0.31455326388E+02  0.00000000000E+00 0.  1.
</event>
<event>
 7    1  0.2387817E-009  0.4778726E+02  0.7816164E-02  0.1312668E+00
        -11   -1    0    0    0    0  0.00000000000E+00  0.00000000000E+00  0.45593999997E+02  0.45594000000E+02  0.51100000000E-03 0. -1.
         11   -1    0    0    0    0 -0.00000000000E+00 -0.00000000000E+00 -0.45593999997E+02  0.45594000000E+02  0.51100000000E-03 0.  1.
    9900012    2    1    2    0    0 -0.30552805844E+02  0.12588370611E+02 -0.28136865272E+02  0.47787260295E+02  0.19999950989E+02 0.  0.
         12    1    1    2    0    0  0.30552805844E+02 -0.12588370611E+02  0.28136865272E+02  0.43400739705E+02  0.00000000000E+00 0. -1.
         11    1    3    3    0    0 -0.52182078037E+01  0.63199768465E+01 -0.88901714013E+01  0.12091606503E+02  0.51100000000E-03 0. -1.
        -11    1    3    3    0    0 -0.99426758375E+01 -0.23387383679E+00 -0.15746030448E+02  0.18623881843E+02  0.51100000000E-03 0.  1.
        -12    1    3    3    0    0 -0.15391922203E+02  0.65022676017E+01 -0.35006634231E+01  0.17071771949E+02  0.00000000000E+00 0.  1.
</event>
<event>
 7    1  0.2387817E-009  0.4778726E+02  0.7816164E-02  0.1312668E+00
        -11   -1    0    0    0    0  0.00000000000E+00  0.00000000000E+00  0.45593999997E+02  0.45594000000E+02  0.51100000000E-03 0. -1.
         11   -1    0    0    0    0 -0.00000000000E+00 -0.00000000000E+00 -0.45593999997E+02  0.45594000000E+02  0.51100000000E-03 0.  1.
    9900012    2    1    2    0    0 -0.29650376319E+02 -0.29818567553E+01 -0.31552935550E+02  0.47787262363E+02  0.19999960419E+02 0.  0.
         12    1    1    2    0    0  0.29650376319E+02  0.29818567553E+01  0.31552935550E+02  0.43400737637E+02  0.00000000000E+00 0. -1.
         11    1    3    3    0    0 -0.99193119748E+00  0.25644358782E+01  0.86859913938E+00  0.28835262440E+01  0.51100000000E-03 0. -1.
        -11    1    3    3    0    0 -0.20576059192E+01  0.14561045065E+01 -0.18647964040E+00  0.25275991316E+01  0.51100000000E-03 0.  1.
        -12    1    3    3    0    0 -0.26600839203E+02 -0.70023971400E+01 -0.32235055049E+02  0.42376136988E+02  0.00000000000E+00 0.  1.
</event>
<event>
 7    1  0.2387817E-009  0.4778727E+02  0.7816164E-02  0.1312668E+00
        -11   -1    0    0    0    0  0.00000000000E+00  0.00000000000E+00  0.45593999997E+02  0.45594000000E+02  0.51100000000E-03 0.  1.
         11   -1    0    0    0    0 -0.00000000000E+00 -0.00000000000E+00 -0.45593999997E+02  0.45594000000E+02  0.51100000000E-03 0. -1.
    9900012    2    1    2    0    0  0.14456332647E+02 -0.38791601403E+02  0.13032630172E+02  0.47787270257E+02  0.19999996410E+02 0.  0.
         12    1    1    2    0    0 -0.14456332647E+02  0.38791601403E+02 -0.13032630172E+02  0.43400729743E+02  0.00000000000E+00 0. -1.
         11    1    3    3    0    0  0.29209353832E+01 -0.27054905293E+02  0.11514734087E+02  0.29548077184E+02  0.51100000000E-03 0. -1.
        -11    1    3    3    0    0  0.45129876738E+01 -0.99541355905E+01  0.80198949978E+00  0.10958789190E+02  0.51100000000E-03 0.  1.
        -12    1    3    3    0    0  0.70224095902E+01 -0.17825605198E+01  0.71590658586E+00  0.72804038829E+01  0.00000000000E+00 0.  1.
</event>
<event>
 7    1  0.2387817E-009  0.4778727E+02  0.7816164E-02  0.1312668E+00
        -11   -1    0    0    0    0  0.00000000000E+00  0.00000000000E+00  0.45593999997E+02  0.45594000000E+02  0.51100000000E-03 0.  1.
         11   -1    0    0    0    0 -0.00000000000E+00 -0.00000000000E+00 -0.45593999997E+02  0.45594000000E+02  0.51100000000E-03 0. -1.
    9900012    2    1    2    0    0 -0.40906893447E+01  0.34389263993E+02  0.26158521124E+02  0.47787269076E+02  0.19999991027E+02 0.  0.
         12    1    1    2    0    0  0.40906893447E+01 -0.34389263993E+02 -0.26158521124E+02  0.43400730924E+02  0.00000000000E+00 0. -1.
         11    1    3    3    0    0 -0.38845045552E+01  0.11002476474E+02  0.21667221862E+01  0.11867541847E+02  0.51100000000E-03 0. -1.
        -11    1    3    3    0    0 -0.22809216055E+01  0.16676819972E+02  0.83841028674E+01  0.18804576808E+02  0.51100000000E-03 0.  1.
         12    1    3    3    0    0  0.20747368160E+01  0.67099675470E+01  0.15607696070E+02  0.17115150422E+02  0.00000000000E+00 0. -1.
</event>
<event>
 7    1  0.2387817E-009  0.4778726E+02  0.7816164E-02  0.1312668E+00
        -11   -1    0    0    0    0  0.00000000000E+00  0.00000000000E+00  0.45593999997E+02  0.45594000000E+02  0.51100000000E-03 0.  1.
         11   -1    0    0    0    0 -0.00000000000E+00 -0.00000000000E+00 -0.45593999997E+02  0.45594000000E+02  0.51100000000E-03 0. -1.
    9900012    2    1    2    0    0  0.38773453699E+02 -0.13999868308E+02  0.13573757477E+02  0.47787263642E+02  0.19999966248E+02 0.  0.
         12    1    1    2    0    0 -0.38773453699E+02  0.13999868308E+02 -0.13573757477E+02  0.43400736358E+02  0.00000000000E+00 0. -1.
         11    1    3    3    0    0  0.12399121030E+02 -0.93301631708E+01  0.11817291799E+02  0.19504833576E+02  0.51100000000E-03 0.  1.
        -11    1    3    3    0    0  0.11694893943E+01  0.16974135823E+01 -0.68325376443E+00  0.21715787530E+01  0.51100000000E-03 0. -1.
        -12    1    3    3    0    0  0.25204843275E+02 -0.63671187191E+01  0.24397194423E+01  0.26110851313E+02  0.00000000000E+00 0.  1.
</event>
<event>
 7    1  0.2387817E-009  0.4778727E+02  0.7816164E-02  0.1312668E+00
        -11   -1    0    0    0    0  0.00000000000E+00  0.00000000000E+00  0.45593999997E+02  0.45594000000E+02  0.51100000000E-03 0. -1.
         11   -1    0    0    0    0 -0.00000000000E+00 -0.00000000000E+00 -0.45593999997E+02  0.45594000000E+02  0.51100000000E-03 0.  1.
    9900012    2    1    2    0    0  0.20403847687E+02  0.14253428416E+02 -0.35554832254E+02  0.47787270529E+02  0.19999997648E+02 0.  0.
         12    1    1    2    0    0 -0.20403847687E+02 -0.14253428416E+02  0.35554832254E+02  0.43400729471E+02  0.00000000000E+00 0. -1.
         11    1    3    3    0    0  0.92533110541E+01 -0.18334614622E+01 -0.20556673286E+02  0.22617740012E+02  0.51100000000E-03 0. -1.
        -11    1    3    3    0    0  0.22494088334E+01  0.40207184718E+01 -0.63977937060E+01  0.78840206554E+01  0.51100000000E-03 0.  1.
         12    1    3    3    0    0  0.89011277991E+01  0.12066171407E+02 -0.86003652618E+01  0.17285509861E+02  0.00000000000E+00 0. -1.
</event>
<event>
 7    1  0.2387817E-009  0.4778727E+02  0.7816164E-02  0.1312668E+00
        -11   -1    0    0    0    0  0.00000000000E+00  0.00000000000E+00  0.45593999997E+02  0.45594000000E+02  0.51100000000E-03 0.  1.
         11   -1    0    0    0    0 -0.00000000000E+00 -0.00000000000E+00 -0.45593999997E+02  0.45594000000E+02  0.51100000000E-03 0. -1.
    9900012    2    1    2    0    0 -0.88229662310E+01 -0.27729879548E+02  0.32199882193E+02  0.47787269982E+02  0.19999995155E+02 0.  0.
         12    1    1    2    0    0  0.88229662310E+01  0.27729879548E+02 -0.32199882193E+02  0.43400730018E+02  0.00000000000E+00 0. -1.
         11    1    3    3    0    0  0.42198967530E+01 -0.13021642352E+02  0.96624445115E+01  0.16755104666E+02  0.51100000000E-03 0. -1.
        -11    1    3    3    0    0  0.85324244245E+00 -0.30081044615E+01  0.26690488956E+01  0.41110263177E+01  0.51100000000E-03 0.  1.
        -12    1    3    3    0    0 -0.13896105426E+02 -0.11700132735E+02  0.19868388786E+02  0.26921138999E+02  0.00000000000E+00 0.  1.
</event>
<event>
 7    1  0.2387817E-009  0.4778727E+02  0.7816164E-02  0.1312668E+00
        -11   -1    0    0    0    0  0.00000000000E+00  0.00000000000E+00  0.45593999997E+02  0.45594000000E+02  0.51100000000E-03 0.  1.
         11   -1    0    0    0    0 -0.00000000000E+00 -0.00000000000E+00 -0.45593999997E+02  0.45594000000E+02  0.51100000000E-03 0. -1.
    9900012    2    1    2    0    0 -0.32436326326E+02 -0.87780588749E+01  0.27467319285E+02  0.47787271759E+02  0.20000003260E+02 0.  0.
         12    1    1    2    0    0  0.32436326326E+02  0.87780588749E+01 -0.27467319285E+02  0.43400728241E+02  0.00000000000E+00 0. -1.
         11    1    3    3    0    0 -0.19711013596E+02  0.42600222300E+00  0.65139406507E+01  0.20763837746E+02  0.51100000000E-03 0. -1.
        -11    1    3    3    0    0  0.55852818424E+00  0.24811575048E+00  0.22406435753E+00  0.65093798142E+00  0.51100000000E-03 0.  1.
        -12    1    3    3    0    0 -0.13283840914E+02 -0.94521768483E+01  0.20729314277E+02  0.26372496033E+02  0.00000000000E+00 0.  1.
</event>
<event>
 7    1  0.2387817E-009  0.4778727E+02  0.7816164E-02  0.1312668E+00
        -11   -1    0    0    0    0  0.00000000000E+00  0.00000000000E+00  0.45593999997E+02  0.45594000000E+02  0.51100000000E-03 0.  1.
         11   -1    0    0    0    0 -0.00000000000E+00 -0.00000000000E+00 -0.45593999997E+02  0.45594000000E+02  0.51100000000E-03 0. -1.
    9900012    2    1    2    0    0 -0.35434529792E+02 -0.37925981523E+01  0.24771633353E+02  0.47787268194E+02  0.19999987004E+02 0.  0.
         12    1    1    2    0    0  0.35434529792E+02  0.37925981523E+01 -0.24771633353E+02  0.43400731806E+02  0.00000000000E+00 0. -1.
         11    1    3    3    0    0 -0.53609371245E+01 -0.64859402560E+01  0.10101885808E+01  0.84751135147E+01  0.51100000000E-03 0. -1.
        -11    1    3    3    0    0 -0.88408274236E+01  0.46529819141E+01  0.72605626368E+01  0.12350151428E+02  0.51100000000E-03 0.  1.
        -12    1    3    3    0    0 -0.21232765244E+02 -0.19596398104E+01  0.16500882135E+02  0.26962003251E+02  0.00000000000E+00 0.  1.
</event>
<event>
 7    1  0.2387817E-009  0.4778727E+02  0.7816164E-02  0.1312668E+00
        -11   -1    0    0    0    0  0.00000000000E+00  0.00000000000E+00  0.45593999997E+02  0.45594000000E+02  0.51100000000E-03 0. -1.
         11   -1    0    0    0    0 -0.00000000000E+00 -0.00000000000E+00 -0.45593999997E+02  0.45594000000E+02  0.51100000000E-03 0.  1.
    9900012    2    1    2    0    0  0.22889427828E+02  0.26599861018E+02 -0.25537120186E+02  0.47787273971E+02  0.20000013342E+02 0.  0.
         12    1    1    2    0    0 -0.22889427828E+02 -0.26599861018E+02  0.25537120186E+02  0.43400726029E+02  0.00000000000E+00 0. -1.
         11    1    3    3    0    0  0.16485448042E+02  0.15241351271E+02 -0.18914984257E+02  0.29357203808E+02  0.51100000000E-03 0. -1.
        -11    1    3    3    0    0  0.59225709252E+01  0.12095047736E+02 -0.87957183832E+01  0.16085138738E+02  0.51100000000E-03 0.  1.
         12    1    3    3    0    0  0.48140886067E+00 -0.73653798895E+00  0.21735824540E+01  0.23449314243E+01  0.00000000000E+00 0. -1.
</event>
<event>
 7    1  0.2387817E-009  0.4778727E+02  0.7816164E-02  0.1312668E+00
        -11   -1    0    0    0    0  0.00000000000E+00  0.00000000000E+00  0.45593999997E+02  0.45594000000E+02  0.51100000000E-03 0.  1.
         11   -1    0    0    0    0 -0.00000000000E+00 -0.00000000000E+00 -0.45593999997E+02  0.45594000000E+02  0.51100000000E-03 0. -1.
    9900012    2    1    2    0    0 -0.74654433579E+01  0.39068316676E+02  0.17365402003E+02  0.47787269601E+02  0.19999993421E+02 0.  0.
         12    1    1    2    0    0  0.74654433579E+01 -0.39068316676E+02 -0.17365402003E+02  0.43400730399E+02  0.00000000000E+00 0. -1.
         11    1    3    3    0    0 -0.23553694018E+00  0.13605761969E+02 -0.11801123212E+01  0.13658876299E+02  0.51100000000E-03 0. -1.
        -11    1    3    3    0    0 -0.26838188516E+00 -0.70718846098E+00  0.25886204258E+01  0.26968686149E+01  0.51100000000E-03 0.  1.
        -12    1    3    3    0    0 -0.69615245326E+01  0.26169743168E+02  0.15956893899E+02  0.31431524687E+02  0.00000000000E+00 0.  1.
</event>
<event>
 7    1  0.2387817E-009  0.4778727E+02  0.7816164E-02  0.1312668E+00
        -11   -1    0    0    0    0  0.00000000000E+00  0.00000000000E+00  0.45593999997E+02  0.45594000000E+02  0.51100000000E-03 0.  1.
         11   -1    0    0    0    0 -0.00000000000E+00 -0.00000000000E+00 -0.45593999997E+02  0.45594000000E+02  0.51100000000E-03 0. -1.
    9900012    2    1    2    0    0  0.41395675819E+02  0.27618943693E+01  0.12743369792E+02  0.47787268316E+02  0.19999987561E+02 0.  0.
         12    1    1    2    0    0 -0.41395675819E+02 -0.27618943693E+01 -0.12743369792E+02  0.43400731684E+02  0.00000000000E+00 0. -1.
         11    1    3    3    0    0  0.17948430932E+02 -0.62954500948E+00 -0.21661912642E+01  0.18089634731E+02  0.51100000000E-03 0. -1.
        -11    1    3    3    0    0  0.16101564018E+02  0.11549245177E+01  0.44925380870E+01  0.16756405139E+02  0.51100000000E-03 0.  1.
         12    1    3    3    0    0  0.73456808690E+01  0.22365148611E+01  0.10417022969E+02  0.12941228446E+02  0.00000000000E+00 0. -1.
</event>
<event>
 7    1  0.2387817E-009  0.4778727E+02  0.7816164E-02  0.1312668E+00
        -11   -1    0    0    0    0  0.00000000000E+00  0.00000000000E+00  0.45593999997E+02  0.45594000000E+02  0.51100000000E-03 0.  1.
         11   -1    0    0    0    0 -0.00000000000E+00 -0.00000000000E+00 -0.45593999997E+02  0.45594000000E+02  0.51100000000E-03 0. -1.
    9900012    2    1    2    0    0  0.31160472609E+01 -0.80529144411E+01  0.42533094583E+02  0.47787270555E+02  0.19999997767E+02 0.  0.
         12    1    1    2    0    0 -0.31160472609E+01  0.80529144411E+01 -0.42533094583E+02  0.43400729445E+02  0.00000000000E+00 0. -1.
         11    1    3    3    0    0 -0.32414043920E+01 -0.21437795442E+01  0.29875717761E+01  0.49018444024E+01  0.51100000000E-03 0. -1.
        -11    1    3    3    0    0 -0.32727808278E+01  0.33362933537E+00  0.19596509186E+02  0.19870721562E+02  0.51100000000E-03 0.  1.
        -12    1    3    3    0    0  0.96302324807E+01 -0.62427642323E+01  0.19949013622E+02  0.23014704590E+02  0.00000000000E+00 0.  1.
</event>
<event>
 7    1  0.2387817E-009  0.4778727E+02  0.7816164E-02  0.1312668E+00
        -11   -1    0    0    0    0  0.00000000000E+00  0.00000000000E+00  0.45593999997E+02  0.45594000000E+02  0.51100000000E-03 0. -1.
         11   -1    0    0    0    0 -0.00000000000E+00 -0.00000000000E+00 -0.45593999997E+02  0.45594000000E+02  0.51100000000E-03 0.  1.
    9900012    2    1    2    0    0  0.38202759612E+02 -0.84785593069E+01 -0.18769296495E+02  0.47787270734E+02  0.19999998585E+02 0.  0.
         12    1    1    2    0    0 -0.38202759612E+02  0.84785593069E+01  0.18769296495E+02  0.43400729266E+02  0.00000000000E+00 0. -1.
         11    1    3    3    0    0  0.31649752786E+01 -0.38683443093E+01 -0.32699337443E+01  0.59727400046E+01  0.51100000000E-03 0. -1.
        -11    1    3    3    0    0  0.11369875724E+02 -0.22145097537E+01  0.26620873058E+01  0.11885488485E+02  0.51100000000E-03 0.  1.
         12    1    3    3    0    0  0.23667908609E+02 -0.23957052439E+01 -0.18161450056E+02  0.29929042245E+02  0.00000000000E+00 0. -1.
</event>
<event>
 7    1  0.2387817E-009  0.4778727E+02  0.7816164E-02  0.1312668E+00
        -11   -1    0    0    0    0  0.00000000000E+00  0.00000000000E+00  0.45593999997E+02  0.45594000000E+02  0.51100000000E-03 0.  1.
         11   -1    0    0    0    0 -0.00000000000E+00 -0.00000000000E+00 -0.45593999997E+02  0.45594000000E+02  0.51100000000E-03 0. -1.
    9900012    2    1    2    0    0 -0.33906264403E+02 -0.10562678906E+02  0.24948310477E+02  0.47787272505E+02  0.20000006657E+02 0.  0.
         12    1    1    2    0    0  0.33906264403E+02  0.10562678906E+02 -0.24948310477E+02  0.43400727495E+02  0.00000000000E+00 0. -1.
         11    1    3    3    0    0 -0.10027858832E+02 -0.54935134893E+01  0.34774513544E+01  0.11951121763E+02  0.51100000000E-03 0. -1.
        -11    1    3    3    0    0 -0.17898822569E+02 -0.98079209716E+01  0.18810388033E+02  0.27755969833E+02  0.51100000000E-03 0.  1.
        -12    1    3    3    0    0 -0.59795830021E+01  0.47387555553E+01  0.26604710896E+01  0.80801809083E+01  0.00000000000E+00 0.  1.
</event>
<event>
 7    1  0.2387817E-009  0.4778727E+02  0.7816164E-02  0.1312668E+00
        -11   -1    0    0    0    0  0.00000000000E+00  0.00000000000E+00  0.45593999997E+02  0.45594000000E+02  0.51100000000E-03 0.  1.
         11   -1    0    0    0    0 -0.00000000000E+00 -0.00000000000E+00 -0.45593999997E+02  0.45594000000E+02  0.51100000000E-03 0. -1.
    9900012    2    1    2    0    0  0.11388034916E+02 -0.12376531023E+02  0.40009464334E+02  0.47787273097E+02  0.20000009356E+02 0.  0.
         12    1    1    2    0    0 -0.11388034916E+02  0.12376531023E+02 -0.40009464334E+02  0.43400726903E+02  0.00000000000E+00 0. -1.
         11    1    3    3    0    0 -0.37673186092E+01 -0.11911640336E+00  0.87317535897E+01  0.95105414795E+01  0.51100000000E-03 0. -1.
        -11    1    3    3    0    0  0.42277869041E+01 -0.50983459600E+01  0.19829887140E+02  0.20906739055E+02  0.51100000000E-03 0.  1.
         12    1    3    3    0    0  0.10927566621E+02 -0.71590686599E+01  0.11447823604E+02  0.17369992562E+02  0.00000000000E+00 0. -1.
</event>
<event>
 7    1  0.2419138E-009  0.4778727E+02  0.7816164E-02  0.1312668E+00
        -11   -1    0    0    0    0  0.00000000000E+00  0.00000000000E+00  0.45593999997E+02  0.45594000000E+02  0.51100000000E-03 0. -1.
         11   -1    0    0    0    0 -0.00000000000E+00 -0.00000000000E+00 -0.45593999997E+02  0.45594000000E+02  0.51100000000E-03 0.  1.
    9900012    2    1    2    0    0 -0.17148344298E+02  0.25938338652E+02 -0.30278046648E+02  0.47787271515E+02  0.20000002147E+02 0.  0.
         12    1    1    2    0    0  0.17148344298E+02 -0.25938338652E+02  0.30278046648E+02  0.43400728485E+02  0.00000000000E+00 0. -1.
         11    1    3    3    0    0 -0.73557339403E+01  0.59333198055E+01 -0.34380953858E+01  0.10056421126E+02  0.51100000000E-03 0. -1.
        -11    1    3    3    0    0 -0.12073744590E+02  0.17646477216E+02 -0.16871879040E+02  0.27236625510E+02  0.51100000000E-03 0.  1.
         12    1    3    3    0    0  0.22811342325E+01  0.23585416313E+01 -0.99680722213E+01  0.10494224880E+02  0.00000000000E+00 0. -1.
</event>
<event>
 7    1  0.2387817E-009  0.4778727E+02  0.7816164E-02  0.1312668E+00
        -11   -1    0    0    0    0  0.00000000000E+00  0.00000000000E+00  0.45593999997E+02  0.45594000000E+02  0.51100000000E-03 0.  1.
         11   -1    0    0    0    0 -0.00000000000E+00 -0.00000000000E+00 -0.45593999997E+02  0.45594000000E+02  0.51100000000E-03 0. -1.
    9900012    2    1    2    0    0  0.41225247964E+02 -0.13522940774E+02 -0.11101151345E+01  0.47787270139E+02  0.19999995872E+02 0.  0.
         12    1    1    2    0    0 -0.41225247964E+02  0.13522940774E+02  0.11101151345E+01  0.43400729861E+02  0.00000000000E+00 0. -1.
         11    1    3    3    0    0  0.89615003160E+01 -0.30834723359E+01  0.68153644442E+01  0.11673280701E+02  0.51100000000E-03 0.  1.
        -11    1    3    3    0    0  0.13056294921E+01  0.97105586067E+00  0.10305481228E+01  0.19260445347E+01  0.51100000000E-03 0. -1.
        -12    1    3    3    0    0  0.30958118156E+02 -0.11410524299E+02 -0.89560277015E+01  0.34187944903E+02  0.00000000000E+00 0.  1.
</event>
<event>
 7    1  0.2387817E-009  0.4778727E+02  0.7816164E-02  0.1312668E+00
        -11   -1    0    0    0    0  0.00000000000E+00  0.00000000000E+00  0.45593999997E+02  0.45594000000E+02  0.51100000000E-03 0. -1.
         11   -1    0    0    0    0 -0.00000000000E+00 -0.00000000000E+00 -0.45593999997E+02  0.45594000000E+02  0.51100000000E-03 0.  1.
    9900012    2    1    2    0    0  0.25178437249E+02 -0.35155634654E+02 -0.37082391560E+01  0.47787269732E+02  0.19999994014E+02 0.  0.
         12    1    1    2    0    0 -0.25178437249E+02  0.35155634654E+02  0.37082391560E+01  0.43400730268E+02  0.00000000000E+00 0. -1.
         11    1    3    3    0    0  0.14415238905E+02 -0.16303214400E+02  0.59880556545E+00  0.21770449716E+02  0.51100000000E-03 0. -1.
        -11    1    3    3    0    0  0.10849121232E+01 -0.45657642518E+01  0.46224325788E+01  0.65871177859E+01  0.51100000000E-03 0.  1.
        -12    1    3    3    0    0  0.96782862205E+01 -0.14286656002E+02 -0.89294773003E+01  0.19429702230E+02  0.00000000000E+00 0.  1.
</event>
<event>
 7    1  0.2387817E-009  0.4778725E+02  0.7816164E-02  0.1312668E+00
        -11   -1    0    0    0    0  0.00000000000E+00  0.00000000000E+00  0.45593999997E+02  0.45594000000E+02  0.51100000000E-03 0.  1.
         11   -1    0    0    0    0 -0.00000000000E+00 -0.00000000000E+00 -0.45593999997E+02  0.45594000000E+02  0.51100000000E-03 0. -1.
    9900012    2    1    2    0    0  0.23935240237E+02 -0.48055674082E+01  0.35883641002E+02  0.47787252370E+02  0.19999914854E+02 0.  0.
         12    1    1    2    0    0 -0.23935240237E+02  0.48055674082E+01 -0.35883641002E+02  0.43400747630E+02  0.00000000000E+00 0. -1.
         11    1    3    3    0    0  0.48547185945E+01  0.15112945849E+01  0.16940702488E+02  0.17687275229E+02  0.51100000000E-03 0. -1.
        -11    1    3    3    0    0  0.77553639979E+01  0.87763323608E+00  0.13555007918E+02  0.15641424192E+02  0.51100000000E-03 0.  1.
         12    1    3    3    0    0  0.11325157644E+02 -0.71944952293E+01  0.53879305960E+01  0.14458552949E+02  0.00000000000E+00 0. -1.
</event>
<event>
 7    1  0.2387817E-009  0.4778727E+02  0.7816164E-02  0.1312668E+00
        -11   -1    0    0    0    0  0.00000000000E+00  0.00000000000E+00  0.45593999997E+02  0.45594000000E+02  0.51100000000E-03 0.  1.
         11   -1    0    0    0    0 -0.00000000000E+00 -0.00000000000E+00 -0.45593999997E+02  0.45594000000E+02  0.51100000000E-03 0. -1.
    9900012    2    1    2    0    0  0.39735531836E+01  0.42036042015E+02  0.10040183339E+02  0.47787271496E+02  0.20000002061E+02 0.  0.
         12    1    1    2    0    0 -0.39735531836E+01 -0.42036042015E+02 -0.10040183339E+02  0.43400728504E+02  0.00000000000E+00 0. -1.
         11    1    3    3    0    0  0.31516941879E+00  0.55699771207E+00  0.26348792658E+01  0.27114880085E+01  0.51100000000E-03 0. -1.
        -11    1    3    3    0    0  0.92182402043E+01  0.19415197448E+02  0.13735949570E+01  0.21536309056E+02  0.51100000000E-03 0.  1.
        -12    1    3    3    0    0 -0.55598564395E+01  0.22063846855E+02  0.60317091158E+01  0.23539474432E+02  0.00000000000E+00 0.  1.
</event>
<event>
 7    1  0.2387817E-009  0.4778727E+02  0.7816164E-02  0.1312668E+00
        -11   -1    0    0    0    0  0.00000000000E+00  0.00000000000E+00  0.45593999997E+02  0.45594000000E+02  0.51100000000E-03 0.  1.
         11   -1    0    0    0    0 -0.00000000000E+00 -0.00000000000E+00 -0.45593999997E+02  0.45594000000E+02  0.51100000000E-03 0. -1.
    9900012    2    1    2    0    0 -0.11050120259E+01  0.37727235682E+02  0.21425639454E+02  0.47787269710E+02  0.19999993914E+02 0.  0.
         12    1    1    2    0    0  0.11050120259E+01 -0.37727235682E+02 -0.21425639454E+02  0.43400730290E+02  0.00000000000E+00 0. -1.
         11    1    3    3    0    0 -0.17499377786E+01  0.10989641918E+01  0.56430687852E+00  0.21420660677E+01  0.51100000000E-03 0. -1.
        -11    1    3    3    0    0 -0.66639465426E+01  0.24723438342E+02  0.18224477828E+02  0.31429097654E+02  0.51100000000E-03 0.  1.
        -12    1    3    3    0    0  0.73088722953E+01  0.11904833148E+02  0.26368547471E+01  0.14216105988E+02  0.00000000000E+00 0.  1.
</event>
<event>
 7    1  0.2387817E-009  0.4778727E+02  0.7816164E-02  0.1312668E+00
        -11   -1    0    0    0    0  0.00000000000E+00  0.00000000000E+00  0.45593999997E+02  0.45594000000E+02  0.51100000000E-03 0.  1.
         11   -1    0    0    0    0 -0.00000000000E+00 -0.00000000000E+00 -0.45593999997E+02  0.45594000000E+02  0.51100000000E-03 0. -1.
    9900012    2    1    2    0    0 -0.34812099842E+01  0.89020447960E+01  0.42335072059E+02  0.47787267855E+02  0.19999985459E+02 0.  0.
         12    1    1    2    0    0  0.34812099842E+01 -0.89020447960E+01 -0.42335072059E+02  0.43400732145E+02  0.00000000000E+00 0. -1.
         11    1    3    3    0    0  0.15252807315E+01  0.42240599077E+00  0.15176113842E+01  0.21927272300E+01  0.51100000000E-03 0. -1.
        -11    1    3    3    0    0 -0.34243936670E+01  0.13521362606E+02  0.35295518760E+02  0.37951645070E+02  0.51100000000E-03 0.  1.
        -12    1    3    3    0    0 -0.15820970487E+01 -0.50417238013E+01  0.55219419140E+01  0.76428955548E+01  0.00000000000E+00 0.  1.
</event>
<event>
 7    1  0.2387817E-009  0.4778727E+02  0.7816164E-02  0.1312668E+00
        -11   -1    0    0    0    0  0.00000000000E+00  0.00000000000E+00  0.45593999997E+02  0.45594000000E+02  0.51100000000E-03 0.  1.
         11   -1    0    0    0    0 -0.00000000000E+00 -0.00000000000E+00 -0.45593999997E+02  0.45594000000E+02  0.51100000000E-03 0. -1.
    9900012    2    1    2    0    0  0.33465717151E+02 -0.25836812151E+02  0.98045095790E+01  0.47787268501E+02  0.19999988401E+02 0.  0.
         12    1    1    2    0    0 -0.33465717151E+02  0.25836812151E+02 -0.98045095790E+01  0.43400731499E+02  0.00000000000E+00 0. -1.
         11    1    3    3    0    0  0.11990392950E+00 -0.44265174140E+01  0.88278539545E+00  0.45152789155E+01  0.51100000000E-03 0. -1.
        -11    1    3    3    0    0  0.16419323077E+02 -0.12144106708E+02 -0.29220487239E+01  0.20630362746E+02  0.51100000000E-03 0.  1.
         12    1    3    3    0    0  0.16926490145E+02 -0.92661880294E+01  0.11843772907E+02  0.22641626839E+02  0.00000000000E+00 0. -1.
</event>
<event>
 7    1  0.2387817E-009  0.4778728E+02  0.7816164E-02  0.1312668E+00
        -11   -1    0    0    0    0  0.00000000000E+00  0.00000000000E+00  0.45593999997E+02  0.45594000000E+02  0.51100000000E-03 0.  1.
         11   -1    0    0    0    0 -0.00000000000E+00 -0.00000000000E+00 -0.45593999997E+02  0.45594000000E+02  0.51100000000E-03 0. -1.
    9900012    2    1    2    0    0 -0.56205541849E+01  0.42986464187E+02  0.20484484928E+01  0.47787275652E+02  0.20000021010E+02 0.  0.
         12    1    1    2    0    0  0.56205541849E+01 -0.42986464187E+02 -0.20484484928E+01  0.43400724348E+02  0.00000000000E+00 0. -1.
         11    1    3    3    0    0 -0.19321703495E+01  0.12287002396E+02 -0.83505895523E+01  0.14981190082E+02  0.51100000000E-03 0. -1.
        -11    1    3    3    0    0 -0.19169389504E+01  0.50895335095E+01  0.16045364094E+01  0.56703212991E+01  0.51100000000E-03 0.  1.
         12    1    3    3    0    0 -0.17714448850E+01  0.25609928282E+02  0.87945016357E+01  0.27135764271E+02  0.00000000000E+00 0. -1.
</event>
<event>
 7    1  0.2387817E-009  0.4778728E+02  0.7816164E-02  0.1312668E+00
        -11   -1    0    0    0    0  0.00000000000E+00  0.00000000000E+00  0.45593999997E+02  0.45594000000E+02  0.51100000000E-03 0. -1.
         11   -1    0    0    0    0 -0.00000000000E+00 -0.00000000000E+00 -0.45593999997E+02  0.45594000000E+02  0.51100000000E-03 0.  1.
    9900012    2    1    2    0    0 -0.41448860648E+02  0.97271992536E+01 -0.84258910582E+01  0.47787284632E+02  0.20000061951E+02 0.  0.
         12    1    1    2    0    0  0.41448860648E+02 -0.97271992536E+01  0.84258910582E+01  0.43400715368E+02  0.00000000000E+00 0. -1.
         11    1    3    3    0    0 -0.22460722656E+02  0.29960027153E+01 -0.63853067803E+01  0.23542137487E+02  0.51100000000E-03 0. -1.
        -11    1    3    3    0    0 -0.21062576391E+02  0.58761923131E+01 -0.13996039065E+01  0.21911655612E+02  0.51100000000E-03 0.  1.
         12    1    3    3    0    0  0.20744383991E+01  0.85500422527E+00 -0.64098037135E+00  0.23334915327E+01  0.00000000000E+00 0. -1.
</event>
<event>
 7    1  0.2387817E-009  0.4778727E+02  0.7816164E-02  0.1312668E+00
        -11   -1    0    0    0    0  0.00000000000E+00  0.00000000000E+00  0.45593999997E+02  0.45594000000E+02  0.51100000000E-03 0. -1.
         11   -1    0    0    0    0 -0.00000000000E+00 -0.00000000000E+00 -0.45593999997E+02  0.45594000000E+02  0.51100000000E-03 0.  1.
    9900012    2    1    2    0    0 -0.17275663355E+02 -0.34137631851E+02  0.20488936536E+02  0.47787274509E+02  0.20000015798E+02 0.  0.
         12    1    1    2    0    0  0.17275663355E+02  0.34137631851E+02 -0.20488936536E+02  0.43400725491E+02  0.00000000000E+00 0. -1.
         11    1    3    3    0    0 -0.10693595498E+02 -0.30760633954E+02  0.20142288902E+02  0.38292053855E+02  0.51100000000E-03 0. -1.
        -11    1    3    3    0    0 -0.57664334161E+01 -0.38478394569E+01  0.23186770023E+01  0.73098485710E+01  0.51100000000E-03 0.  1.
         12    1    3    3    0    0 -0.81563444059E+00  0.47084155986E+00 -0.19720293684E+01  0.21853720839E+01  0.00000000000E+00 0. -1.
</event>
<event>
 7    1  0.2387817E-009  0.4778728E+02  0.7816164E-02  0.1312668E+00
        -11   -1    0    0    0    0  0.00000000000E+00  0.00000000000E+00  0.45593999997E+02  0.45594000000E+02  0.51100000000E-03 0.  1.
         11   -1    0    0    0    0 -0.00000000000E+00 -0.00000000000E+00 -0.45593999997E+02  0.45594000000E+02  0.51100000000E-03 0. -1.
    9900012    2    1    2    0    0 -0.27312926194E+01  0.35979844872E+02  0.24116661860E+02  0.47787279088E+02  0.20000036675E+02 0.  0.
         12    1    1    2    0    0  0.27312926194E+01 -0.35979844872E+02 -0.24116661860E+02  0.43400720912E+02  0.00000000000E+00 0. -1.
         11    1    3    3    0    0  0.11934694650E+01  0.28107002550E+02  0.23969298873E+02  0.36958831833E+02  0.51100000000E-03 0. -1.
        -11    1    3    3    0    0  0.89544098717E+00 -0.33319535083E+00  0.85909408478E+00  0.12848644329E+01  0.51100000000E-03 0.  1.
         12    1    3    3    0    0 -0.48202030715E+01  0.82060376727E+01 -0.71173109785E+00  0.95435828226E+01  0.00000000000E+00 0. -1.
</event>
<event>
 7    1  0.2387817E-009  0.4778727E+02  0.7816164E-02  0.1312668E+00
        -11   -1    0    0    0    0  0.00000000000E+00  0.00000000000E+00  0.45593999997E+02  0.45594000000E+02  0.51100000000E-03 0.  1.
         11   -1    0    0    0    0 -0.00000000000E+00 -0.00000000000E+00 -0.45593999997E+02  0.45594000000E+02  0.51100000000E-03 0. -1.
    9900012    2    1    2    0    0  0.38566178863E+02  0.19388338153E+02 -0.45128518117E+01  0.47787266828E+02  0.19999980775E+02 0.  0.
         12    1    1    2    0    0 -0.38566178863E+02 -0.19388338153E+02  0.45128518117E+01  0.43400733172E+02  0.00000000000E+00 0. -1.
         11    1    3    3    0    0  0.15105784598E+02  0.54027508131E+01 -0.10920000335E+02  0.19406721832E+02  0.51100000000E-03 0. -1.
        -11    1    3    3    0    0  0.97980437858E+01  0.45672597469E+01  0.70176035626E+00  0.10833004730E+02  0.51100000000E-03 0.  1.
         12    1    3    3    0    0  0.13662350479E+02  0.94183275927E+01  0.57053881671E+01  0.17547540266E+02  0.00000000000E+00 0. -1.
</event>
<event>
 7    1  0.2387817E-009  0.4778727E+02  0.7816164E-02  0.1312668E+00
        -11   -1    0    0    0    0  0.00000000000E+00  0.00000000000E+00  0.45593999997E+02  0.45594000000E+02  0.51100000000E-03 0.  1.
         11   -1    0    0    0    0 -0.00000000000E+00 -0.00000000000E+00 -0.45593999997E+02  0.45594000000E+02  0.51100000000E-03 0. -1.
    9900012    2    1    2    0    0  0.14518918184E+02 -0.12359666206E+02  0.38987982285E+02  0.47787273087E+02  0.20000009312E+02 0.  0.
         12    1    1    2    0    0 -0.14518918184E+02  0.12359666206E+02 -0.38987982285E+02  0.43400726913E+02  0.00000000000E+00 0. -1.
         11    1    3    3    0    0  0.18666474823E+01  0.85815921348E+00  0.46934910550E+01  0.51234430419E+01  0.51100000000E-03 0. -1.
        -11    1    3    3    0    0  0.13315261336E+02 -0.82551410824E+01  0.34243107693E+02  0.37656791731E+02  0.51100000000E-03 0.  1.
         12    1    3    3    0    0 -0.66299063467E+00 -0.49626843366E+01  0.51383536920E-01  0.50070383137E+01  0.00000000000E+00 0. -1.
</event>
<event>
 7    1  0.2387817E-009  0.4778727E+02  0.7816164E-02  0.1312668E+00
        -11   -1    0    0    0    0  0.00000000000E+00  0.00000000000E+00  0.45593999997E+02  0.45594000000E+02  0.51100000000E-03 0.  1.
         11   -1    0    0    0    0 -0.00000000000E+00 -0.00000000000E+00 -0.45593999997E+02  0.45594000000E+02  0.51100000000E-03 0. -1.
    9900012    2    1    2    0    0  0.10438782894E+02 -0.10698833776E+02  0.40745428572E+02  0.47787272103E+02  0.20000004824E+02 0.  0.
         12    1    1    2    0    0 -0.10438782894E+02  0.10698833776E+02 -0.40745428572E+02  0.43400727897E+02  0.00000000000E+00 0. -1.
         11    1    3    3    0    0  0.23845649958E+01 -0.20859691849E+00  0.22650627145E+02  0.22776755107E+02  0.51100000000E-03 0. -1.
        -11    1    3    3    0    0 -0.25445419399E+01 -0.34235918331E+00  0.31892184413E+01  0.40942664815E+01  0.51100000000E-03 0.  1.
         12    1    3    3    0    0  0.10598759838E+02 -0.10147877674E+02  0.14905582986E+02  0.20916250514E+02  0.00000000000E+00 0. -1.
</event>
<event>
 7    1  0.2387817E-009  0.4778727E+02  0.7816164E-02  0.1312668E+00
        -11   -1    0    0    0    0  0.00000000000E+00  0.00000000000E+00  0.45593999997E+02  0.45594000000E+02  0.51100000000E-03 0.  1.
         11   -1    0    0    0    0 -0.00000000000E+00 -0.00000000000E+00 -0.45593999997E+02  0.45594000000E+02  0.51100000000E-03 0. -1.
    9900012    2    1    2    0    0  0.12470568939E+02 -0.20082241709E+00  0.41570034810E+02  0.47787271741E+02  0.20000003175E+02 0.  0.
         12    1    1    2    0    0 -0.12470568939E+02  0.20082241709E+00 -0.41570034810E+02  0.43400728259E+02  0.00000000000E+00 0. -1.
         11    1    3    3    0    0  0.70677323479E+01 -0.40816119092E+01  0.23400439129E+02  0.24782916455E+02  0.51100000000E-03 0. -1.
        -11    1    3    3    0    0  0.56611812579E+01 -0.29522500332E+01  0.12821956980E+02  0.14323663447E+02  0.51100000000E-03 0.  1.
         12    1    3    3    0    0 -0.25834466680E+00  0.68330395253E+01  0.53476387013E+01  0.86806918389E+01  0.00000000000E+00 0. -1.
</event>
<event>
 7    1  0.2387817E-009  0.4778727E+02  0.7816164E-02  0.1312668E+00
        -11   -1    0    0    0    0  0.00000000000E+00  0.00000000000E+00  0.45593999997E+02  0.45594000000E+02  0.51100000000E-03 0.  1.
         11   -1    0    0    0    0 -0.00000000000E+00 -0.00000000000E+00 -0.45593999997E+02  0.45594000000E+02  0.51100000000E-03 0. -1.
    9900012    2    1    2    0    0  0.23836364563E+02 -0.33132001111E+02  0.14755391478E+02  0.47787270157E+02  0.19999995955E+02 0.  0.
         12    1    1    2    0    0 -0.23836364563E+02  0.33132001111E+02 -0.14755391478E+02  0.43400729843E+02  0.00000000000E+00 0. -1.
         11    1    3    3    0    0  0.14259110172E+02 -0.17032171265E+02  0.87420891782E+01  0.23871346932E+02  0.51100000000E-03 0. -1.
        -11    1    3    3    0    0  0.13004413262E+02 -0.13447982981E+02  0.57651677528E+01  0.19575499228E+02  0.51100000000E-03 0.  1.
         12    1    3    3    0    0 -0.34271588708E+01 -0.26518468648E+01  0.24813454734E+00  0.43404239970E+01  0.00000000000E+00 0. -1.
</event>
<event>
 7    1  0.2387817E-009  0.4778727E+02  0.7816164E-02  0.1312668E+00
        -11   -1    0    0    0    0  0.00000000000E+00  0.00000000000E+00  0.45593999997E+02  0.45594000000E+02  0.51100000000E-03 0. -1.
         11   -1    0    0    0    0 -0.00000000000E+00 -0.00000000000E+00 -0.45593999997E+02  0.45594000000E+02  0.51100000000E-03 0.  1.
    9900012    2    1    2    0    0  0.34579613254E+02  0.81149250689E+01 -0.24940363332E+02  0.47787269766E+02  0.19999994172E+02 0.  0.
         12    1    1    2    0    0 -0.34579613254E+02 -0.81149250689E+01  0.24940363332E+02  0.43400730234E+02  0.00000000000E+00 0. -1.
         11    1    3    3    0    0  0.32554665337E+01  0.33956900126E+01 -0.14250785835E+01  0.49152438641E+01  0.51100000000E-03 0. -1.
        -11    1    3    3    0    0  0.27075698874E+02  0.72265382262E+01 -0.12269428322E+02  0.30591750454E+02  0.51100000000E-03 0.  1.
         12    1    3    3    0    0  0.42484478465E+01 -0.25073031699E+01 -0.11245856427E+02  0.12280275448E+02  0.00000000000E+00 0. -1.
</event>
<event>
 7    1  0.2387817E-009  0.4778727E+02  0.7816164E-02  0.1312668E+00
        -11   -1    0    0    0    0  0.00000000000E+00  0.00000000000E+00  0.45593999997E+02  0.45594000000E+02  0.51100000000E-03 0. -1.
         11   -1    0    0    0    0 -0.00000000000E+00 -0.00000000000E+00 -0.45593999997E+02  0.45594000000E+02  0.51100000000E-03 0.  1.
    9900012    2    1    2    0    0  0.54163748405E+01  0.31468501631E+02  0.29394206962E+02  0.47787272883E+02  0.20000008385E+02 0.  0.
         12    1    1    2    0    0 -0.54163748405E+01 -0.31468501631E+02 -0.29394206962E+02  0.43400727117E+02  0.00000000000E+00 0. -1.
         11    1    3    3    0    0  0.67520700657E+00  0.26408742443E+01  0.63247738960E+01  0.68871537208E+01  0.51100000000E-03 0. -1.
        -11    1    3    3    0    0 -0.17129990292E+00  0.39201498801E+01 -0.26708378439E+01  0.47466086618E+01  0.51100000000E-03 0.  1.
        -12    1    3    3    0    0  0.49124677368E+01  0.24907477506E+02  0.25740270910E+02  0.36153510501E+02  0.00000000000E+00 0.  1.
</event>
<event>
 7    1  0.2387817E-009  0.4778727E+02  0.7816164E-02  0.1312668E+00
        -11   -1    0    0    0    0  0.00000000000E+00  0.00000000000E+00  0.45593999997E+02  0.45594000000E+02  0.51100000000E-03 0.  1.
         11   -1    0    0    0    0 -0.00000000000E+00 -0.00000000000E+00 -0.45593999997E+02  0.45594000000E+02  0.51100000000E-03 0. -1.
    9900012    2    1    2    0    0 -0.91766686711E+01  0.31042093489E+02  0.28910208582E+02  0.47787274473E+02  0.20000015631E+02 0.  0.
         12    1    1    2    0    0  0.91766686711E+01 -0.31042093489E+02 -0.28910208582E+02  0.43400725527E+02  0.00000000000E+00 0. -1.
         11    1    3    3    0    0 -0.17366074968E+01  0.11022316002E+02  0.16097113560E+02  0.19586329949E+02  0.51100000000E-03 0. -1.
        -11    1    3    3    0    0 -0.23004990213E+01 -0.10727050631E+01  0.40705025438E+01  0.47970806873E+01  0.51100000000E-03 0.  1.
         12    1    3    3    0    0 -0.51395621531E+01  0.21092482550E+02  0.87425924774E+01  0.23403863836E+02  0.00000000000E+00 0. -1.
</event>
<event>
 7    1  0.2387817E-009  0.4778727E+02  0.7816164E-02  0.1312668E+00
        -11   -1    0    0    0    0  0.00000000000E+00  0.00000000000E+00  0.45593999997E+02  0.45594000000E+02  0.51100000000E-03 0.  1.
         11   -1    0    0    0    0 -0.00000000000E+00 -0.00000000000E+00 -0.45593999997E+02  0.45594000000E+02  0.51100000000E-03 0. -1.
    9900012    2    1    2    0    0  0.28196857730E+02 -0.27352523696E+02 -0.18449933747E+02  0.47787269665E+02  0.19999993709E+02 0.  0.
         12    1    1    2    0    0 -0.28196857730E+02  0.27352523696E+02  0.18449933747E+02  0.43400730335E+02  0.00000000000E+00 0. -1.
         11    1    3    3    0    0  0.18012868916E+01  0.58422010579E+00  0.77384996541E+00  0.20456763253E+01  0.51100000000E-03 0. -1.
        -11    1    3    3    0    0  0.96120423330E+01 -0.94031610086E+00 -0.34569275022E+01  0.10257967645E+02  0.51100000000E-03 0.  1.
         12    1    3    3    0    0  0.16783528505E+02 -0.26996427701E+02 -0.15766856210E+02  0.35483625695E+02  0.00000000000E+00 0. -1.
</event>
<event>
 7    1  0.2387817E-009  0.4778727E+02  0.7816164E-02  0.1312668E+00
        -11   -1    0    0    0    0  0.00000000000E+00  0.00000000000E+00  0.45593999997E+02  0.45594000000E+02  0.51100000000E-03 0. -1.
         11   -1    0    0    0    0 -0.00000000000E+00 -0.00000000000E+00 -0.45593999997E+02  0.45594000000E+02  0.51100000000E-03 0.  1.
    9900012    2    1    2    0    0 -0.35371752446E+02  0.24273266592E+02 -0.65780580120E+01  0.47787272018E+02  0.20000004439E+02 0.  0.
         12    1    1    2    0    0  0.35371752446E+02 -0.24273266592E+02  0.65780580120E+01  0.43400727982E+02  0.00000000000E+00 0. -1.
         11    1    3    3    0    0 -0.17425804249E+02  0.17361752169E+02 -0.33560941128E+01  0.24826446787E+02  0.51100000000E-03 0.  1.
        -11    1    3    3    0    0 -0.89161309054E+01  0.93185655922E+01  0.48790528579E+00  0.12906242941E+02  0.51100000000E-03 0. -1.
         12    1    3    3    0    0 -0.90298172921E+01 -0.24070511696E+01 -0.37098691850E+01  0.10054582290E+02  0.00000000000E+00 0. -1.
</event>
<event>
 7    1  0.2387817E-009  0.4778727E+02  0.7816164E-02  0.1312668E+00
        -11   -1    0    0    0    0  0.00000000000E+00  0.00000000000E+00  0.45593999997E+02  0.45594000000E+02  0.51100000000E-03 0.  1.
         11   -1    0    0    0    0 -0.00000000000E+00 -0.00000000000E+00 -0.45593999997E+02  0.45594000000E+02  0.51100000000E-03 0. -1.
    9900012    2    1    2    0    0 -0.76009131382E+01  0.89025363652E+01  0.41792273765E+02  0.47787272117E+02  0.20000004892E+02 0.  0.
         12    1    1    2    0    0  0.76009131382E+01 -0.89025363652E+01 -0.41792273765E+02  0.43400727883E+02  0.00000000000E+00 0. -1.
         11    1    3    3    0    0 -0.20090309748E+01  0.11079279109E+02  0.17999644615E+02  0.21231435127E+02  0.51100000000E-03 0. -1.
        -11    1    3    3    0    0 -0.47577074654E+01  0.13517625529E+01  0.21927646524E+02  0.22478539202E+02  0.51100000000E-03 0.  1.
        -12    1    3    3    0    0 -0.83417469802E+00 -0.35285052968E+01  0.18649826270E+01  0.40772977884E+01  0.00000000000E+00 0.  1.
</event>
<event>
 7    1  0.2387817E-009  0.4778727E+02  0.7816164E-02  0.1312668E+00
        -11   -1    0    0    0    0  0.00000000000E+00  0.00000000000E+00  0.45593999997E+02  0.45594000000E+02  0.51100000000E-03 0. -1.
         11   -1    0    0    0    0 -0.00000000000E+00 -0.00000000000E+00 -0.45593999997E+02  0.45594000000E+02  0.51100000000E-03 0.  1.
    9900012    2    1    2    0    0 -0.25095246229E+02 -0.29428790664E+02 -0.19692591345E+02  0.47787271237E+02  0.20000000879E+02 0.  0.
         12    1    1    2    0    0  0.25095246229E+02  0.29428790664E+02  0.19692591345E+02  0.43400728763E+02  0.00000000000E+00 0. -1.
         11    1    3    3    0    0 -0.18373671871E+01 -0.72386836657E+01 -0.29223394202E+01  0.80196338658E+01  0.51100000000E-03 0. -1.
        -11    1    3    3    0    0 -0.67264808215E+01 -0.44169621144E+01 -0.12876889870E+02  0.15184511568E+02  0.51100000000E-03 0.  1.
         12    1    3    3    0    0 -0.16531398221E+02 -0.17773144884E+02 -0.38933620545E+01  0.24583125804E+02  0.00000000000E+00 0. -1.
</event>
<event>
 7    1  0.2387817E-009  0.4778727E+02  0.7816164E-02  0.1312668E+00
        -11   -1    0    0    0    0  0.00000000000E+00  0.00000000000E+00  0.45593999997E+02  0.45594000000E+02  0.51100000000E-03 0.  1.
         11   -1    0    0    0    0 -0.00000000000E+00 -0.00000000000E+00 -0.45593999997E+02  0.45594000000E+02  0.51100000000E-03 0. -1.
    9900012    2    1    2    0    0 -0.23863624976E+02  0.32697945821E+02  0.15652317495E+02  0.47787270733E+02  0.19999998582E+02 0.  0.
         12    1    1    2    0    0  0.23863624976E+02 -0.32697945821E+02 -0.15652317495E+02  0.43400729267E+02  0.00000000000E+00 0. -1.
         11    1    3    3    0    0 -0.12849499267E+02  0.69748290749E+01  0.60083922325E+01  0.15806917774E+02  0.51100000000E-03 0. -1.
        -11    1    3    3    0    0  0.73312183601E+00 -0.15916935420E+00  0.25875774035E+01  0.26941342932E+01  0.51100000000E-03 0.  1.
        -12    1    3    3    0    0 -0.11747247545E+02  0.25882286100E+02  0.70563478587E+01  0.29286218666E+02  0.00000000000E+00 0.  1.
</event>
<event>
 7    1  0.2387817E-009  0.4778728E+02  0.7816164E-02  0.1312668E+00
        -11   -1    0    0    0    0  0.00000000000E+00  0.00000000000E+00  0.45593999997E+02  0.45594000000E+02  0.51100000000E-03 0.  1.
         11   -1    0    0    0    0 -0.00000000000E+00 -0.00000000000E+00 -0.45593999997E+02  0.45594000000E+02  0.51100000000E-03 0. -1.
    9900012    2    1    2    0    0 -0.17276214856E+02 -0.34428662021E+02  0.19995561417E+02  0.47787275989E+02  0.20000022543E+02 0.  0.
         12    1    1    2    0    0  0.17276214856E+02  0.34428662021E+02 -0.19995561417E+02  0.43400724011E+02  0.00000000000E+00 0. -1.
         11    1    3    3    0    0 -0.10011958761E+02 -0.27947829644E+02  0.14886133497E+02  0.33210201306E+02  0.51100000000E-03 0.  1.
        -11    1    3    3    0    0  0.20538834095E+01 -0.27106132380E+01  0.24123046041E+01  0.41695413357E+01  0.51100000000E-03 0. -1.
         12    1    3    3    0    0 -0.93181395046E+01 -0.37702191393E+01  0.26971233161E+01  0.10407533347E+02  0.00000000000E+00 0. -1.
</event>
<event>
 7    1  0.2387817E-009  0.4778727E+02  0.7816164E-02  0.1312668E+00
        -11   -1    0    0    0    0  0.00000000000E+00  0.00000000000E+00  0.45593999997E+02  0.45594000000E+02  0.51100000000E-03 0.  1.
         11   -1    0    0    0    0 -0.00000000000E+00 -0.00000000000E+00 -0.45593999997E+02  0.45594000000E+02  0.51100000000E-03 0. -1.
    9900012    2    1    2    0    0 -0.16997928407E+02 -0.34593227020E+02  0.19949993830E+02  0.47787272130E+02  0.20000004952E+02 0.  0.
         12    1    1    2    0    0  0.16997928407E+02  0.34593227020E+02 -0.19949993830E+02  0.43400727870E+02  0.00000000000E+00 0. -1.
         11    1    3    3    0    0  0.85181111640E+00 -0.48084665962E+00  0.25086770710E+01  0.26926300518E+01  0.51100000000E-03 0. -1.
        -11    1    3    3    0    0 -0.63071435322E+01 -0.35508486815E+01  0.86203804275E+01  0.11256089235E+02  0.51100000000E-03 0.  1.
         12    1    3    3    0    0 -0.11542595991E+02 -0.30561531679E+02  0.88209363312E+01  0.33838552843E+02  0.00000000000E+00 0. -1.
</event>
<event>
 7    1  0.2387817E-009  0.4778727E+02  0.7816164E-02  0.1312668E+00
        -11   -1    0    0    0    0  0.00000000000E+00  0.00000000000E+00  0.45593999997E+02  0.45594000000E+02  0.51100000000E-03 0.  1.
         11   -1    0    0    0    0 -0.00000000000E+00 -0.00000000000E+00 -0.45593999997E+02  0.45594000000E+02  0.51100000000E-03 0. -1.
    9900012    2    1    2    0    0 -0.55631946859E+01  0.33820378760E+02  0.26624347178E+02  0.47787274001E+02  0.20000013480E+02 0.  0.
         12    1    1    2    0    0  0.55631946859E+01 -0.33820378760E+02 -0.26624347178E+02  0.43400725999E+02  0.00000000000E+00 0. -1.
         11    1    3    3    0    0 -0.24116282443E+01 -0.87256817467E+00  0.27898264801E+01  0.37895195023E+01  0.51100000000E-03 0. -1.
        -11    1    3    3    0    0 -0.51746423367E+01  0.49183581441E+01  0.45309432709E+01  0.84555672389E+01  0.51100000000E-03 0.  1.
         12    1    3    3    0    0  0.20230758951E+01  0.29774588790E+02  0.19303577427E+02  0.35542187260E+02  0.00000000000E+00 0. -1.
</event>
<event>
 7    1  0.2387817E-009  0.4778726E+02  0.7816164E-02  0.1312668E+00
        -11   -1    0    0    0    0  0.00000000000E+00  0.00000000000E+00  0.45593999997E+02  0.45594000000E+02  0.51100000000E-03 0. -1.
         11   -1    0    0    0    0 -0.00000000000E+00 -0.00000000000E+00 -0.45593999997E+02  0.45594000000E+02  0.51100000000E-03 0.  1.
    9900012    2    1    2    0    0 -0.23875857066E+01 -0.21419024103E+02 -0.37671597356E+02  0.47787257998E+02  0.19999940515E+02 0.  0.
         12    1    1    2    0    0  0.23875857066E+01  0.21419024103E+02  0.37671597356E+02  0.43400742002E+02  0.00000000000E+00 0. -1.
         11    1    3    3    0    0  0.30378023132E+01 -0.45754120603E+01 -0.62817623095E+01  0.83440503587E+01  0.51100000000E-03 0. -1.
        -11    1    3    3    0    0 -0.33413079749E+01 -0.19896035386E+02 -0.26993871239E+02  0.33699935428E+02  0.51100000000E-03 0.  1.
         12    1    3    3    0    0 -0.20840800448E+01  0.30524233440E+01 -0.43959638068E+01  0.57432722115E+01  0.00000000000E+00 0. -1.
</event>
<event>
 7    1  0.2387817E-009  0.4778727E+02  0.7816164E-02  0.1312668E+00
        -11   -1    0    0    0    0  0.00000000000E+00  0.00000000000E+00  0.45593999997E+02  0.45594000000E+02  0.51100000000E-03 0. -1.
         11   -1    0    0    0    0 -0.00000000000E+00 -0.00000000000E+00 -0.45593999997E+02  0.45594000000E+02  0.51100000000E-03 0.  1.
    9900012    2    1    2    0    0  0.31103637067E+02 -0.21048034707E+02 -0.21752407995E+02  0.47787271235E+02  0.20000000868E+02 0.  0.
         12    1    1    2    0    0 -0.31103637067E+02  0.21048034707E+02  0.21752407995E+02  0.43400728765E+02  0.00000000000E+00 0. -1.
         11    1    3    3    0    0  0.13725480987E+01 -0.89113022633E+01 -0.45112479670E+01  0.10081991608E+02  0.51100000000E-03 0. -1.
        -11    1    3    3    0    0  0.20566718841E+02 -0.11905780601E+02 -0.91067931294E+01  0.25449385395E+02  0.51100000000E-03 0.  1.
        -12    1    3    3    0    0  0.91643701267E+01 -0.23095184215E+00 -0.81343668985E+01  0.12255894231E+02  0.00000000000E+00 0.  1.
</event>
<event>
 7    1  0.2387817E-009  0.4778727E+02  0.7816164E-02  0.1312668E+00
        -11   -1    0    0    0    0  0.00000000000E+00  0.00000000000E+00  0.45593999997E+02  0.45594000000E+02  0.51100000000E-03 0.  1.
         11   -1    0    0    0    0 -0.00000000000E+00 -0.00000000000E+00 -0.45593999997E+02  0.45594000000E+02  0.51100000000E-03 0. -1.
    9900012    2    1    2    0    0 -0.90928180908E+01 -0.42053166582E+02  0.56986961785E+01  0.47787270761E+02  0.19999998706E+02 0.  0.
         12    1    1    2    0    0  0.90928180908E+01  0.42053166582E+02 -0.56986961785E+01  0.43400729239E+02  0.00000000000E+00 0. -1.
         11    1    3    3    0    0 -0.56215391758E+00 -0.64092126679E+01  0.59291184975E+01  0.87491982757E+01  0.51100000000E-03 0. -1.
        -11    1    3    3    0    0 -0.43135170274E+01 -0.14452178808E+01  0.46825352370E+00  0.45732204727E+01  0.51100000000E-03 0.  1.
         12    1    3    3    0    0 -0.42171471458E+01 -0.34198736033E+02 -0.69867584263E+00  0.34464852012E+02  0.00000000000E+00 0. -1.
</event>
<event>
 7    1  0.2387817E-009  0.4778727E+02  0.7816164E-02  0.1312668E+00
        -11   -1    0    0    0    0  0.00000000000E+00  0.00000000000E+00  0.45593999997E+02  0.45594000000E+02  0.51100000000E-03 0.  1.
         11   -1    0    0    0    0 -0.00000000000E+00 -0.00000000000E+00 -0.45593999997E+02  0.45594000000E+02  0.51100000000E-03 0. -1.
    9900012    2    1    2    0    0 -0.42142980434E+02 -0.70672959414E+01  0.75924781339E+01  0.47787271942E+02  0.20000004092E+02 0.  0.
         12    1    1    2    0    0  0.42142980434E+02  0.70672959414E+01 -0.75924781339E+01  0.43400728058E+02  0.00000000000E+00 0. -1.
         11    1    3    3    0    0 -0.11799079154E+02 -0.23317347968E+01  0.79835989440E+01  0.14435827250E+02  0.51100000000E-03 0. -1.
        -11    1    3    3    0    0 -0.14615820668E+00 -0.28881540033E+01 -0.10865930447E+01  0.30892524135E+01  0.51100000000E-03 0.  1.
        -12    1    3    3    0    0 -0.30197743073E+02 -0.18474071413E+01  0.69547223472E+00  0.30262192278E+02  0.00000000000E+00 0.  1.
</event>
<event>
 7    1  0.2387817E-009  0.4778727E+02  0.7816164E-02  0.1312668E+00
        -11   -1    0    0    0    0  0.00000000000E+00  0.00000000000E+00  0.45593999997E+02  0.45594000000E+02  0.51100000000E-03 0.  1.
         11   -1    0    0    0    0 -0.00000000000E+00 -0.00000000000E+00 -0.45593999997E+02  0.45594000000E+02  0.51100000000E-03 0. -1.
    9900012    2    1    2    0    0 -0.74966269354E+01  0.38074372293E+02 -0.19436201375E+02  0.47787272301E+02  0.20000005730E+02 0.  0.
         12    1    1    2    0    0  0.74966269354E+01 -0.38074372293E+02  0.19436201375E+02  0.43400727699E+02  0.00000000000E+00 0. -1.
         11    1    3    3    0    0 -0.11558732064E+02  0.34009504823E+02 -0.19074150992E+02  0.40670307862E+02  0.51100000000E-03 0.  1.
        -11    1    3    3    0    0  0.16234503899E+01 -0.67897767813E+00  0.10330113740E+00  0.17627459380E+01  0.51100000000E-03 0. -1.
        -12    1    3    3    0    0  0.24386547390E+01  0.47438451478E+01 -0.46535152055E+00  0.53542185014E+01  0.00000000000E+00 0.  1.
</event>
<event>
 7    1  0.2387817E-009  0.4778727E+02  0.7816164E-02  0.1312668E+00
        -11   -1    0    0    0    0  0.00000000000E+00  0.00000000000E+00  0.45593999997E+02  0.45594000000E+02  0.51100000000E-03 0.  1.
         11   -1    0    0    0    0 -0.00000000000E+00 -0.00000000000E+00 -0.45593999997E+02  0.45594000000E+02  0.51100000000E-03 0. -1.
    9900012    2    1    2    0    0 -0.39075651420E+02  0.12052283989E+01  0.18848448765E+02  0.47787272699E+02  0.20000007543E+02 0.  0.
         12    1    1    2    0    0  0.39075651420E+02 -0.12052283989E+01 -0.18848448765E+02  0.43400727301E+02  0.00000000000E+00 0. -1.
         11    1    3    3    0    0 -0.16669101839E+02  0.56225111371E+01  0.69705155794E+01  0.18922464832E+02  0.51100000000E-03 0. -1.
        -11    1    3    3    0    0 -0.69475914975E+01 -0.72625469350E+00 -0.25134191345E+01  0.74238635159E+01  0.51100000000E-03 0.  1.
         12    1    3    3    0    0 -0.15458958083E+02 -0.36910280447E+01  0.14391352321E+02  0.21440944351E+02  0.00000000000E+00 0. -1.
</event>
<event>
 7    1  0.2387817E-009  0.4778727E+02  0.7816164E-02  0.1312668E+00
        -11   -1    0    0    0    0  0.00000000000E+00  0.00000000000E+00  0.45593999997E+02  0.45594000000E+02  0.51100000000E-03 0.  1.
         11   -1    0    0    0    0 -0.00000000000E+00 -0.00000000000E+00 -0.45593999997E+02  0.45594000000E+02  0.51100000000E-03 0. -1.
    9900012    2    1    2    0    0 -0.32056934917E+02  0.28287829965E+01  0.29119993421E+02  0.47787272974E+02  0.20000008797E+02 0.  0.
         12    1    1    2    0    0  0.32056934917E+02 -0.28287829965E+01 -0.29119993421E+02  0.43400727026E+02  0.00000000000E+00 0. -1.
         11    1    3    3    0    0  0.15609673218E+01  0.84789290603E-01  0.14711967948E+01  0.21466784747E+01  0.51100000000E-03 0. -1.
        -11    1    3    3    0    0 -0.15541879478E+02  0.74179541707E+01  0.16740103123E+02  0.24016809001E+02  0.51100000000E-03 0.  1.
        -12    1    3    3    0    0 -0.18076022762E+02 -0.46739604648E+01  0.10908693503E+02  0.21623785498E+02  0.00000000000E+00 0.  1.
</event>
<event>
 7    1  0.3013282E-009  0.4778727E+02  0.7816164E-02  0.1312668E+00
        -11   -1    0    0    0    0  0.00000000000E+00  0.00000000000E+00  0.45593999997E+02  0.45594000000E+02  0.51100000000E-03 0. -1.
         11   -1    0    0    0    0 -0.00000000000E+00 -0.00000000000E+00 -0.45593999997E+02  0.45594000000E+02  0.51100000000E-03 0.  1.
    9900012    2    1    2    0    0  0.44761086052E+01  0.24127227563E+02 -0.35797553369E+02  0.47787268608E+02  0.19999988893E+02 0.  0.
         12    1    1    2    0    0 -0.44761086052E+01 -0.24127227563E+02  0.35797553369E+02  0.43400731392E+02  0.00000000000E+00 0. -1.
         11    1    3    3    0    0 -0.55750359365E+01  0.65425358223E+01 -0.95438642310E+01  0.12844109366E+02  0.51100000000E-03 0. -1.
        -11    1    3    3    0    0  0.30717432794E+01  0.15461369219E+02 -0.17774076010E+02  0.23757258326E+02  0.51100000000E-03 0.  1.
         12    1    3    3    0    0  0.69794012623E+01  0.21233225216E+01 -0.84796131277E+01  0.11185900916E+02  0.00000000000E+00 0. -1.
</event>
<event>
 7    1  0.2387817E-009  0.4778725E+02  0.7816164E-02  0.1312668E+00
        -11   -1    0    0    0    0  0.00000000000E+00  0.00000000000E+00  0.45593999997E+02  0.45594000000E+02  0.51100000000E-03 0.  1.
         11   -1    0    0    0    0 -0.00000000000E+00 -0.00000000000E+00 -0.45593999997E+02  0.45594000000E+02  0.51100000000E-03 0. -1.
    9900012    2    1    2    0    0 -0.10217660140E+02  0.40665064774E+02  0.11206100472E+02  0.47787253928E+02  0.19999921958E+02 0.  0.
         12    1    1    2    0    0  0.10217660140E+02 -0.40665064774E+02 -0.11206100472E+02  0.43400746072E+02  0.00000000000E+00 0. -1.
         11    1    3    3    0    0 -0.11029722414E+02  0.12906388221E+02  0.78319885012E+01  0.18696782547E+02  0.51100000000E-03 0. -1.
        -11    1    3    3    0    0 -0.34215000680E+01  0.85231558773E+01  0.65242129606E+00  0.92074156326E+01  0.51100000000E-03 0.  1.
        -12    1    3    3    0    0  0.42335623423E+01  0.19235520676E+02  0.27216906745E+01  0.19883055749E+02  0.00000000000E+00 0.  1.
</event>
<event>
 7    1  0.2387817E-009  0.4778727E+02  0.7816164E-02  0.1312668E+00
        -11   -1    0    0    0    0  0.00000000000E+00  0.00000000000E+00  0.45593999997E+02  0.45594000000E+02  0.51100000000E-03 0. -1.
         11   -1    0    0    0    0 -0.00000000000E+00 -0.00000000000E+00 -0.45593999997E+02  0.45594000000E+02  0.51100000000E-03 0.  1.
    9900012    2    1    2    0    0  0.68991462542E+01  0.51975268810E+01 -0.42532468396E+02  0.47787269907E+02  0.19999994814E+02 0.  0.
         12    1    1    2    0    0 -0.68991462542E+01 -0.51975268810E+01  0.42532468396E+02  0.43400730093E+02  0.00000000000E+00 0. -1.
         11    1    3    3    0    0  0.34688152089E+01  0.24764064367E+01 -0.14158317609E+02  0.14785913078E+02  0.51100000000E-03 0. -1.
        -11    1    3    3    0    0  0.88878487550E+01 -0.59333958619E+00 -0.92598098377E+01  0.12848734796E+02  0.51100000000E-03 0.  1.
         12    1    3    3    0    0 -0.54575177097E+01  0.33144600305E+01 -0.19114340950E+02  0.20152622033E+02  0.00000000000E+00 0. -1.
</event>
<event>
 7    1  0.2387817E-009  0.4778727E+02  0.7816164E-02  0.1312668E+00
        -11   -1    0    0    0    0  0.00000000000E+00  0.00000000000E+00  0.45593999997E+02  0.45594000000E+02  0.51100000000E-03 0. -1.
         11   -1    0    0    0    0 -0.00000000000E+00 -0.00000000000E+00 -0.45593999997E+02  0.45594000000E+02  0.51100000000E-03 0.  1.
    9900012    2    1    2    0    0  0.19885053209E+01 -0.43066326839E+02 -0.49960598050E+01  0.47787271038E+02  0.19999999971E+02 0.  0.
         12    1    1    2    0    0 -0.19885053209E+01  0.43066326839E+02  0.49960598050E+01  0.43400728962E+02  0.00000000000E+00 0. -1.
         11    1    3    3    0    0  0.60373658625E+01 -0.23379614144E+02 -0.73700540717E+01  0.25246263909E+02  0.51100000000E-03 0. -1.
        -11    1    3    3    0    0  0.12919433369E+01 -0.15195660404E+02  0.29718778446E+01  0.15537350832E+02  0.51100000000E-03 0.  1.
         12    1    3    3    0    0 -0.53408038785E+01 -0.44910522917E+01 -0.59788357795E+00  0.70036562971E+01  0.00000000000E+00 0. -1.
</event>
<event>
 7    1  0.2387817E-009  0.4778728E+02  0.7816164E-02  0.1312668E+00
        -11   -1    0    0    0    0  0.00000000000E+00  0.00000000000E+00  0.45593999997E+02  0.45594000000E+02  0.51100000000E-03 0.  1.
         11   -1    0    0    0    0 -0.00000000000E+00 -0.00000000000E+00 -0.45593999997E+02  0.45594000000E+02  0.51100000000E-03 0. -1.
    9900012    2    1    2    0    0 -0.17349675467E+01  0.17326208008E+02  0.39754435893E+02  0.47787276855E+02  0.20000026492E+02 0.  0.
         12    1    1    2    0    0  0.17349675467E+01 -0.17326208008E+02 -0.39754435893E+02  0.43400723145E+02  0.00000000000E+00 0. -1.
         11    1    3    3    0    0 -0.14888680904E+01 -0.78124336517E+00  0.42971177779E+01  0.46143570348E+01  0.51100000000E-03 0. -1.
        -11    1    3    3    0    0 -0.38696263815E+01  0.78446484049E+01  0.35144203115E+01  0.94267527450E+01  0.51100000000E-03 0.  1.
         12    1    3    3    0    0  0.36235269252E+01  0.10262802969E+02  0.31942897804E+02  0.33746167075E+02  0.00000000000E+00 0. -1.
</event>
<event>
 7    1  0.2387817E-009  0.4778727E+02  0.7816164E-02  0.1312668E+00
        -11   -1    0    0    0    0  0.00000000000E+00  0.00000000000E+00  0.45593999997E+02  0.45594000000E+02  0.51100000000E-03 0.  1.
         11   -1    0    0    0    0 -0.00000000000E+00 -0.00000000000E+00 -0.45593999997E+02  0.45594000000E+02  0.51100000000E-03 0. -1.
    9900012    2    1    2    0    0 -0.55159703511E+01  0.22283363887E+02  0.36832714528E+02  0.47787273111E+02  0.20000009421E+02 0.  0.
         12    1    1    2    0    0  0.55159703511E+01 -0.22283363887E+02 -0.36832714528E+02  0.43400726889E+02  0.00000000000E+00 0. -1.
         11    1    3    3    0    0  0.37295212873E+01  0.36613677533E+01  0.10776832903E+02  0.11977273085E+02  0.51100000000E-03 0. -1.
        -11    1    3    3    0    0 -0.17192584081E+01  0.16658391512E+02  0.18728882320E+02  0.25124268954E+02  0.51100000000E-03 0.  1.
        -12    1    3    3    0    0 -0.75262332303E+01  0.19636046219E+01  0.73269993040E+01  0.10685731072E+02  0.00000000000E+00 0.  1.
</event>
<event>
 7    1  0.2387817E-009  0.4778727E+02  0.7816164E-02  0.1312668E+00
        -11   -1    0    0    0    0  0.00000000000E+00  0.00000000000E+00  0.45593999997E+02  0.45594000000E+02  0.51100000000E-03 0.  1.
         11   -1    0    0    0    0 -0.00000000000E+00 -0.00000000000E+00 -0.45593999997E+02  0.45594000000E+02  0.51100000000E-03 0. -1.
    9900012    2    1    2    0    0 -0.16929413863E+02  0.30430361652E+01  0.39846687185E+02  0.47787267259E+02  0.19999982741E+02 0.  0.
         12    1    1    2    0    0  0.16929413863E+02 -0.30430361652E+01 -0.39846687185E+02  0.43400732741E+02  0.00000000000E+00 0. -1.
         11    1    3    3    0    0 -0.10072545835E+01  0.52534313671E+01  0.11193900356E+02  0.12406309217E+02  0.51100000000E-03 0. -1.
        -11    1    3    3    0    0  0.13738778045E+01 -0.30950610175E+01  0.38106949931E+01  0.50978759808E+01  0.51100000000E-03 0.  1.
        -12    1    3    3    0    0 -0.17296037084E+02  0.88466581566E+00  0.24842091835E+02  0.30283082062E+02  0.00000000000E+00 0.  1.
</event>
<event>
 7    1  0.2387817E-009  0.4778727E+02  0.7816164E-02  0.1312668E+00
        -11   -1    0    0    0    0  0.00000000000E+00  0.00000000000E+00  0.45593999997E+02  0.45594000000E+02  0.51100000000E-03 0.  1.
         11   -1    0    0    0    0 -0.00000000000E+00 -0.00000000000E+00 -0.45593999997E+02  0.45594000000E+02  0.51100000000E-03 0. -1.
    9900012    2    1    2    0    0  0.21018012692E+02  0.76837365536E+01  0.37186374602E+02  0.47787272806E+02  0.20000008030E+02 0.  0.
         12    1    1    2    0    0 -0.21018012692E+02 -0.76837365536E+01 -0.37186374602E+02  0.43400727194E+02  0.00000000000E+00 0. -1.
         11    1    3    3    0    0  0.25094091423E+01 -0.12059846167E+01  0.62176167014E+01  0.68125098786E+01  0.51100000000E-03 0. -1.
        -11    1    3    3    0    0  0.35133141370E+01 -0.28332639276E+01 -0.12805248499E+00  0.45152141044E+01  0.51100000000E-03 0.  1.
        -12    1    3    3    0    0  0.14995289413E+02  0.11722985098E+02  0.31096810386E+02  0.36459548823E+02  0.00000000000E+00 0.  1.
</event>
<event>
 7    1  0.2387817E-009  0.4778728E+02  0.7816164E-02  0.1312668E+00
        -11   -1    0    0    0    0  0.00000000000E+00  0.00000000000E+00  0.45593999997E+02  0.45594000000E+02  0.51100000000E-03 0.  1.
         11   -1    0    0    0    0 -0.00000000000E+00 -0.00000000000E+00 -0.45593999997E+02  0.45594000000E+02  0.51100000000E-03 0. -1.
    9900012    2    1    2    0    0 -0.18152010774E+00  0.59532737322E+01  0.42990088533E+02  0.47787284225E+02  0.20000060097E+02 0.  0.
         12    1    1    2    0    0  0.18152010774E+00 -0.59532737322E+01 -0.42990088533E+02  0.43400715775E+02  0.00000000000E+00 0. -1.
         11    1    3    3    0    0 -0.18050415679E+01  0.27380482590E+00  0.19848039790E+01  0.26967742287E+01  0.51100000000E-03 0. -1.
        -11    1    3    3    0    0  0.31791542718E+00  0.10908948374E+02  0.36400518679E+02  0.38001368202E+02  0.51100000000E-03 0.  1.
         12    1    3    3    0    0  0.13056060329E+01 -0.52294794681E+01  0.46047658747E+01  0.70891417944E+01  0.00000000000E+00 0. -1.
</event>
<event>
 7    1  0.2387817E-009  0.4778727E+02  0.7816164E-02  0.1312668E+00
        -11   -1    0    0    0    0  0.00000000000E+00  0.00000000000E+00  0.45593999997E+02  0.45594000000E+02  0.51100000000E-03 0.  1.
         11   -1    0    0    0    0 -0.00000000000E+00 -0.00000000000E+00 -0.45593999997E+02  0.45594000000E+02  0.51100000000E-03 0. -1.
    9900012    2    1    2    0    0  0.85715457253E+01 -0.11710331585E+02  0.40902570103E+02  0.47787268405E+02  0.19999987965E+02 0.  0.
         12    1    1    2    0    0 -0.85715457253E+01  0.11710331585E+02 -0.40902570103E+02  0.43400731595E+02  0.00000000000E+00 0. -1.
         11    1    3    3    0    0  0.24889761561E+00 -0.13912143782E+01 -0.22951113526E+00  0.14318181070E+01  0.51100000000E-03 0. -1.
        -11    1    3    3    0    0 -0.35310317110E+01 -0.22324839617E+01  0.22254943117E+02  0.22643645091E+02  0.51100000000E-03 0.  1.
        -12    1    3    3    0    0  0.11853679821E+02 -0.80866332454E+01  0.18877138121E+02  0.23711805207E+02  0.00000000000E+00 0.  1.
</event>
<event>
 7    1  0.2387817E-009  0.4778727E+02  0.7816164E-02  0.1312668E+00
        -11   -1    0    0    0    0  0.00000000000E+00  0.00000000000E+00  0.45593999997E+02  0.45594000000E+02  0.51100000000E-03 0.  1.
         11   -1    0    0    0    0 -0.00000000000E+00 -0.00000000000E+00 -0.45593999997E+02  0.45594000000E+02  0.51100000000E-03 0. -1.
    9900012    2    1    2    0    0 -0.25058518239E+02  0.34511646280E+02  0.80399126755E+01  0.47787271191E+02  0.20000000669E+02 0.  0.
         12    1    1    2    0    0  0.25058518239E+02 -0.34511646280E+02 -0.80399126755E+01  0.43400728809E+02  0.00000000000E+00 0. -1.
         11    1    3    3    0    0 -0.80731142791E+01  0.79134426024E+01 -0.43569030895E+01  0.12115294168E+02  0.51100000000E-03 0. -1.
        -11    1    3    3    0    0 -0.24507793426E+01 -0.44786391807E+00  0.21862022624E+01  0.33145711741E+01  0.51100000000E-03 0.  1.
        -12    1    3    3    0    0 -0.14534624618E+02  0.27046067596E+02  0.10210613503E+02  0.32357405849E+02  0.00000000000E+00 0.  1.
</event>
<event>
 7    1  0.2387817E-009  0.4778727E+02  0.7816164E-02  0.1312668E+00
        -11   -1    0    0    0    0  0.00000000000E+00  0.00000000000E+00  0.45593999997E+02  0.45594000000E+02  0.51100000000E-03 0.  1.
         11   -1    0    0    0    0 -0.00000000000E+00 -0.00000000000E+00 -0.45593999997E+02  0.45594000000E+02  0.51100000000E-03 0. -1.
    9900012    2    1    2    0    0 -0.14516117748E+02 -0.25822925501E+02  0.31718796426E+02  0.47787271865E+02  0.20000003742E+02 0.  0.
         12    1    1    2    0    0  0.14516117748E+02  0.25822925501E+02 -0.31718796426E+02  0.43400728135E+02  0.00000000000E+00 0. -1.
         11    1    3    3    0    0 -0.25928917237E+01 -0.10614780349E+02  0.16644602782E+02  0.19910787312E+02  0.51100000000E-03 0.  1.
        -11    1    3    3    0    0  0.16546066352E+01 -0.62919773957E+01  0.75749176774E+01  0.99852932229E+01  0.51100000000E-03 0. -1.
         12    1    3    3    0    0 -0.13577832660E+02 -0.89161677564E+01  0.74992759665E+01  0.17891191330E+02  0.00000000000E+00 0. -1.
</event>
<event>
 7    1  0.2387817E-009  0.4778728E+02  0.7816164E-02  0.1312668E+00
        -11   -1    0    0    0    0  0.00000000000E+00  0.00000000000E+00  0.45593999997E+02  0.45594000000E+02  0.51100000000E-03 0.  1.
         11   -1    0    0    0    0 -0.00000000000E+00 -0.00000000000E+00 -0.45593999997E+02  0.45594000000E+02  0.51100000000E-03 0. -1.
    9900012    2    1    2    0    0 -0.40712378651E+02  0.30351209530E+01  0.14727949630E+02  0.47787283013E+02  0.20000054571E+02 0.  0.
         12    1    1    2    0    0  0.40712378651E+02 -0.30351209530E+01 -0.14727949630E+02  0.43400716987E+02  0.00000000000E+00 0. -1.
         11    1    3    3    0    0 -0.15925471863E+02 -0.27232683958E+01  0.95904490668E+01  0.18788655045E+02  0.51100000000E-03 0. -1.
        -11    1    3    3    0    0 -0.21896776522E+02  0.49959384806E+01  0.89301401986E+01  0.24169725435E+02  0.51100000000E-03 0.  1.
         12    1    3    3    0    0 -0.28901302658E+01  0.76245086819E+00 -0.37926396352E+01  0.48289025339E+01  0.00000000000E+00 0. -1.
</event>
<event>
 7    1  0.2387817E-009  0.4778728E+02  0.7816164E-02  0.1312668E+00
        -11   -1    0    0    0    0  0.00000000000E+00  0.00000000000E+00  0.45593999997E+02  0.45594000000E+02  0.51100000000E-03 0.  1.
         11   -1    0    0    0    0 -0.00000000000E+00 -0.00000000000E+00 -0.45593999997E+02  0.45594000000E+02  0.51100000000E-03 0. -1.
    9900012    2    1    2    0    0 -0.40392516747E+02  0.10532611301E+02  0.11879861279E+02  0.47787280951E+02  0.20000045169E+02 0.  0.
         12    1    1    2    0    0  0.40392516747E+02 -0.10532611301E+02 -0.11879861279E+02  0.43400719049E+02  0.00000000000E+00 0. -1.
         11    1    3    3    0    0 -0.13537545456E+02 -0.91546500689E+00  0.63357417465E+01  0.14974806740E+02  0.51100000000E-03 0. -1.
        -11    1    3    3    0    0  0.54544611610E+00 -0.10674067192E+01  0.21982240816E+01  0.25038086875E+01  0.51100000000E-03 0.  1.
         12    1    3    3    0    0 -0.27400417407E+02  0.12515483027E+02  0.33458954506E+01  0.30308665524E+02  0.00000000000E+00 0. -1.
</event>
<event>
 7    1  0.2387817E-009  0.4778728E+02  0.7816164E-02  0.1312668E+00
        -11   -1    0    0    0    0  0.00000000000E+00  0.00000000000E+00  0.45593999997E+02  0.45594000000E+02  0.51100000000E-03 0.  1.
         11   -1    0    0    0    0 -0.00000000000E+00 -0.00000000000E+00 -0.45593999997E+02  0.45594000000E+02  0.51100000000E-03 0. -1.
    9900012    2    1    2    0    0  0.10984407108E+02  0.51321580048E+01  0.41672853064E+02  0.47787275032E+02  0.20000018179E+02 0.  0.
         12    1    1    2    0    0 -0.10984407108E+02 -0.51321580048E+01 -0.41672853064E+02  0.43400724968E+02  0.00000000000E+00 0. -1.
         11    1    3    3    0    0  0.11911777624E+01  0.16686396139E+01  0.11905376626E+02  0.12080614864E+02  0.51100000000E-03 0. -1.
        -11    1    3    3    0    0  0.13477229857E+02  0.29532688231E+01  0.28689130141E+02  0.31834316545E+02  0.51100000000E-03 0.  1.
         12    1    3    3    0    0 -0.36840005120E+01  0.51024956787E+00  0.10783462963E+01  0.38723436223E+01  0.00000000000E+00 0. -1.
</event>
<event>
 7    1  0.2387817E-009  0.4778728E+02  0.7816164E-02  0.1312668E+00
        -11   -1    0    0    0    0  0.00000000000E+00  0.00000000000E+00  0.45593999997E+02  0.45594000000E+02  0.51100000000E-03 0. -1.
         11   -1    0    0    0    0 -0.00000000000E+00 -0.00000000000E+00 -0.45593999997E+02  0.45594000000E+02  0.51100000000E-03 0.  1.
    9900012    2    1    2    0    0 -0.39336811254E+00  0.29176979783E+02 -0.32127433122E+02  0.47787275965E+02  0.20000022437E+02 0.  0.
         12    1    1    2    0    0  0.39336811254E+00 -0.29176979783E+02  0.32127433122E+02  0.43400724035E+02  0.00000000000E+00 0. -1.
         11    1    3    3    0    0  0.87384838485E+00 -0.12559328133E+01 -0.52547233305E+01  0.54729421496E+01  0.51100000000E-03 0. -1.
        -11    1    3    3    0    0 -0.29356619532E+01  0.48038535233E+01 -0.10329867052E+02  0.11764407055E+02  0.51100000000E-03 0.  1.
         12    1    3    3    0    0  0.16684454558E+01  0.25629059073E+02 -0.16542842739E+02  0.30549926761E+02  0.00000000000E+00 0. -1.
</event>
<event>
 7    1  0.2387817E-009  0.4778727E+02  0.7816164E-02  0.1312668E+00
        -11   -1    0    0    0    0  0.00000000000E+00  0.00000000000E+00  0.45593999997E+02  0.45594000000E+02  0.51100000000E-03 0.  1.
         11   -1    0    0    0    0 -0.00000000000E+00 -0.00000000000E+00 -0.45593999997E+02  0.45594000000E+02  0.51100000000E-03 0. -1.
    9900012    2    1    2    0    0 -0.11640421317E+02 -0.20869891476E+02  0.36229426564E+02  0.47787272727E+02  0.20000007673E+02 0.  0.
         12    1    1    2    0    0  0.11640421317E+02  0.20869891476E+02 -0.36229426564E+02  0.43400727273E+02  0.00000000000E+00 0. -1.
         11    1    3    3    0    0 -0.69581263763E+01 -0.70521919742E+01  0.22072363144E+02  0.24193762612E+02  0.51100000000E-03 0.  1.
        -11    1    3    3    0    0 -0.48909972909E+00 -0.19797723725E+01  0.10235736874E+02  0.10436906956E+02  0.51100000000E-03 0. -1.
         12    1    3    3    0    0 -0.41931952117E+01 -0.11837927130E+02  0.39213265457E+01  0.13156603159E+02  0.00000000000E+00 0. -1.
</event>
<event>
 7    1  0.2387817E-009  0.4778727E+02  0.7816164E-02  0.1312668E+00
        -11   -1    0    0    0    0  0.00000000000E+00  0.00000000000E+00  0.45593999997E+02  0.45594000000E+02  0.51100000000E-03 0.  1.
         11   -1    0    0    0    0 -0.00000000000E+00 -0.00000000000E+00 -0.45593999997E+02  0.45594000000E+02  0.51100000000E-03 0. -1.
    9900012    2    1    2    0    0 -0.62636671593E+01 -0.73878267767E+01  0.42306142619E+02  0.47787271734E+02  0.20000003142E+02 0.  0.
         12    1    1    2    0    0  0.62636671593E+01  0.73878267767E+01 -0.42306142619E+02  0.43400728266E+02  0.00000000000E+00 0. -1.
         11    1    3    3    0    0  0.85869252763E+00  0.12905295813E+01 -0.23152815700E+00  0.15672986332E+01  0.51100000000E-03 0. -1.
        -11    1    3    3    0    0  0.88862428151E+00 -0.61171713587E+00 -0.84630521781E+00  0.13711614605E+01  0.51100000000E-03 0.  1.
        -12    1    3    3    0    0 -0.80109839684E+01 -0.80666392221E+01  0.43383975994E+02  0.44848811640E+02  0.00000000000E+00 0.  1.
</event>
<event>
 7    1  0.2387817E-009  0.4778727E+02  0.7816164E-02  0.1312668E+00
        -11   -1    0    0    0    0  0.00000000000E+00  0.00000000000E+00  0.45593999997E+02  0.45594000000E+02  0.51100000000E-03 0.  1.
         11   -1    0    0    0    0 -0.00000000000E+00 -0.00000000000E+00 -0.45593999997E+02  0.45594000000E+02  0.51100000000E-03 0. -1.
    9900012    2    1    2    0    0  0.42778084172E+02 -0.25250336852E+01  0.68762709816E+01  0.47787269785E+02  0.19999994258E+02 0.  0.
         12    1    1    2    0    0 -0.42778084172E+02  0.25250336852E+01 -0.68762709816E+01  0.43400730215E+02  0.00000000000E+00 0. -1.
         11    1    3    3    0    0  0.19135838654E+02  0.49898383639E+01  0.20403886184E+01  0.19880693999E+02  0.51100000000E-03 0. -1.
        -11    1    3    3    0    0  0.15551937137E+02  0.11020254012E+01  0.37610269324E+01  0.16038158639E+02  0.51100000000E-03 0.  1.
         12    1    3    3    0    0  0.80903083815E+01 -0.86168974504E+01  0.10748554308E+01  0.11868417147E+02  0.00000000000E+00 0. -1.
</event>
<event>
 7    1  0.2387817E-009  0.4778727E+02  0.7816164E-02  0.1312668E+00
        -11   -1    0    0    0    0  0.00000000000E+00  0.00000000000E+00  0.45593999997E+02  0.45594000000E+02  0.51100000000E-03 0.  1.
         11   -1    0    0    0    0 -0.00000000000E+00 -0.00000000000E+00 -0.45593999997E+02  0.45594000000E+02  0.51100000000E-03 0. -1.
    9900012    2    1    2    0    0 -0.21813003337E+02 -0.13798632312E+01  0.37495499585E+02  0.47787266985E+02  0.19999981492E+02 0.  0.
         12    1    1    2    0    0  0.21813003337E+02  0.13798632312E+01 -0.37495499585E+02  0.43400733015E+02  0.00000000000E+00 0. -1.
         11    1    3    3    0    0 -0.76270156282E+01 -0.90239429204E+00  0.12891547302E+02  0.15005921330E+02  0.51100000000E-03 0. -1.
        -11    1    3    3    0    0 -0.10514687441E+02  0.68716862374E+01  0.10122829322E+02  0.16132278124E+02  0.51100000000E-03 0.  1.
         12    1    3    3    0    0 -0.36713002678E+01 -0.73491551766E+01  0.14481122961E+02  0.16649067532E+02  0.00000000000E+00 0. -1.
</event>
<event>
 7    1  0.2387817E-009  0.4778727E+02  0.7816164E-02  0.1312668E+00
        -11   -1    0    0    0    0  0.00000000000E+00  0.00000000000E+00  0.45593999997E+02  0.45594000000E+02  0.51100000000E-03 0. -1.
         11   -1    0    0    0    0 -0.00000000000E+00 -0.00000000000E+00 -0.45593999997E+02  0.45594000000E+02  0.51100000000E-03 0.  1.
    9900012    2    1    2    0    0  0.14364808438E+02  0.39739574110E+02 -0.99016237742E+01  0.47787266996E+02  0.19999981543E+02 0.  0.
         12    1    1    2    0    0 -0.14364808438E+02 -0.39739574110E+02  0.99016237742E+01  0.43400733004E+02  0.00000000000E+00 0. -1.
         11    1    3    3    0    0  0.10183268380E+02  0.22899333032E+02 -0.75549561575E+01  0.26175480340E+02  0.51100000000E-03 0. -1.
        -11    1    3    3    0    0  0.66292922125E+01  0.16962921298E+02  0.91525786368E-02  0.18212311721E+02  0.51100000000E-03 0.  1.
         12    1    3    3    0    0 -0.24477521537E+01 -0.12268022058E+00 -0.23558201954E+01  0.33994749352E+01  0.00000000000E+00 0. -1.
</event>
<event>
 7    1  0.2387817E-009  0.4778728E+02  0.7816164E-02  0.1312668E+00
        -11   -1    0    0    0    0  0.00000000000E+00  0.00000000000E+00  0.45593999997E+02  0.45594000000E+02  0.51100000000E-03 0.  1.
         11   -1    0    0    0    0 -0.00000000000E+00 -0.00000000000E+00 -0.45593999997E+02  0.45594000000E+02  0.51100000000E-03 0. -1.
    9900012    2    1    2    0    0 -0.72444107449E+01 -0.28568889884E+02  0.31858434277E+02  0.47787276610E+02  0.20000025373E+02 0.  0.
         12    1    1    2    0    0  0.72444107449E+01  0.28568889884E+02 -0.31858434277E+02  0.43400723390E+02  0.00000000000E+00 0. -1.
         11    1    3    3    0    0 -0.61795096388E+01 -0.11192892502E+02  0.12250656662E+02  0.17707223692E+02  0.51100000000E-03 0. -1.
        -11    1    3    3    0    0 -0.24576652438E+01 -0.18904563743E+02  0.20348563785E+02  0.27883448444E+02  0.51100000000E-03 0.  1.
         12    1    3    3    0    0  0.13927641377E+01  0.15285663618E+01 -0.74078616980E+00  0.21966044740E+01  0.00000000000E+00 0. -1.
</event>
<event>
 7    1  0.2387817E-009  0.4778727E+02  0.7816164E-02  0.1312668E+00
        -11   -1    0    0    0    0  0.00000000000E+00  0.00000000000E+00  0.45593999997E+02  0.45594000000E+02  0.51100000000E-03 0.  1.
         11   -1    0    0    0    0 -0.00000000000E+00 -0.00000000000E+00 -0.45593999997E+02  0.45594000000E+02  0.51100000000E-03 0. -1.
    9900012    2    1    2    0    0  0.40650885221E+02 -0.14851990959E+02  0.32476737705E+01  0.47787268559E+02  0.19999988667E+02 0.  0.
         12    1    1    2    0    0 -0.40650885221E+02  0.14851990959E+02 -0.32476737705E+01  0.43400731441E+02  0.00000000000E+00 0. -1.
         11    1    3    3    0    0  0.17876023937E+02 -0.33860715934E+01 -0.53840191068E+01  0.18973807594E+02  0.51100000000E-03 0. -1.
        -11    1    3    3    0    0  0.16313683713E+02 -0.39431969583E+01  0.20424055036E+01  0.16907291298E+02  0.51100000000E-03 0.  1.
         12    1    3    3    0    0  0.64611775713E+01 -0.75227224077E+01  0.65892873738E+01  0.11906169666E+02  0.00000000000E+00 0. -1.
</event>
<event>
 7    1  0.2387817E-009  0.4778730E+02  0.7816164E-02  0.1312668E+00
        -11   -1    0    0    0    0  0.00000000000E+00  0.00000000000E+00  0.45593999997E+02  0.45594000000E+02  0.51100000000E-03 0. -1.
         11   -1    0    0    0    0 -0.00000000000E+00 -0.00000000000E+00 -0.45593999997E+02  0.45594000000E+02  0.51100000000E-03 0.  1.
    9900012    2    1    2    0    0 -0.35795181528E+01  0.30564164250E+02 -0.30604569593E+02  0.47787299931E+02  0.20000131704E+02 0.  0.
         12    1    1    2    0    0  0.35795181528E+01 -0.30564164250E+02  0.30604569593E+02  0.43400700069E+02  0.00000000000E+00 0. -1.
         11    1    3    3    0    0 -0.48558619276E+01  0.28393695537E+01 -0.10733530405E+02  0.12118171881E+02  0.51100000000E-03 0. -1.
        -11    1    3    3    0    0 -0.96182183506E-01  0.63366835870E+01 -0.10529730239E+02  0.12289753011E+02  0.51100000000E-03 0.  1.
        -12    1    3    3    0    0  0.13725259583E+01  0.21388111109E+02 -0.93413089492E+01  0.23379375039E+02  0.00000000000E+00 0.  1.
</event>
<event>
 7    1  0.2387817E-009  0.4778727E+02  0.7816164E-02  0.1312668E+00
        -11   -1    0    0    0    0  0.00000000000E+00  0.00000000000E+00  0.45593999997E+02  0.45594000000E+02  0.51100000000E-03 0.  1.
         11   -1    0    0    0    0 -0.00000000000E+00 -0.00000000000E+00 -0.45593999997E+02  0.45594000000E+02  0.51100000000E-03 0. -1.
    9900012    2    1    2    0    0  0.38171765847E+02  0.18172664143E+02 -0.98129444370E+01  0.47787270646E+02  0.19999998181E+02 0.  0.
         12    1    1    2    0    0 -0.38171765847E+02 -0.18172664143E+02  0.98129444370E+01  0.43400729354E+02  0.00000000000E+00 0. -1.
         11    1    3    3    0    0  0.10350941335E+01  0.28312803935E+01 -0.17923880674E+01  0.35071674863E+01  0.51100000000E-03 0. -1.
        -11    1    3    3    0    0  0.36525524724E+02  0.13147391852E+02 -0.11168790296E+02  0.40394427163E+02  0.51100000000E-03 0.  1.
         12    1    3    3    0    0  0.61114699011E+00  0.21939918977E+01  0.31482339269E+01  0.38856759964E+01  0.00000000000E+00 0. -1.
</event>
<event>
 7    1  0.2387817E-009  0.4778727E+02  0.7816164E-02  0.1312668E+00
        -11   -1    0    0    0    0  0.00000000000E+00  0.00000000000E+00  0.45593999997E+02  0.45594000000E+02  0.51100000000E-03 0.  1.
         11   -1    0    0    0    0 -0.00000000000E+00 -0.00000000000E+00 -0.45593999997E+02  0.45594000000E+02  0.51100000000E-03 0. -1.
    9900012    2    1    2    0    0 -0.49434302666E+01 -0.42052368103E+02  0.95280617084E+01  0.47787272750E+02  0.20000007778E+02 0.  0.
         12    1    1    2    0    0  0.49434302666E+01  0.42052368103E+02 -0.95280617084E+01  0.43400727250E+02  0.00000000000E+00 0. -1.
         11    1    3    3    0    0 -0.82324163992E+00 -0.91092140245E+01 -0.27706329838E+01  0.95567732177E+01  0.51100000000E-03 0. -1.
        -11    1    3    3    0    0  0.37490081134E-01 -0.22361782196E+02  0.12804220055E+01  0.22398441671E+02  0.51100000000E-03 0.  1.
         12    1    3    3    0    0 -0.41576787078E+01 -0.10581371882E+02  0.11018272687E+02  0.15832057862E+02  0.00000000000E+00 0. -1.
</event>
<event>
 7    1  0.2387817E-009  0.4778727E+02  0.7816164E-02  0.1312668E+00
        -11   -1    0    0    0    0  0.00000000000E+00  0.00000000000E+00  0.45593999997E+02  0.45594000000E+02  0.51100000000E-03 0.  1.
         11   -1    0    0    0    0 -0.00000000000E+00 -0.00000000000E+00 -0.45593999997E+02  0.45594000000E+02  0.51100000000E-03 0. -1.
    9900012    2    1    2    0    0  0.88573694073E+01  0.36060812325E+02  0.22467486498E+02  0.47787272726E+02  0.20000007667E+02 0.  0.
         12    1    1    2    0    0 -0.88573694073E+01 -0.36060812325E+02 -0.22467486498E+02  0.43400727274E+02  0.00000000000E+00 0. -1.
         11    1    3    3    0    0  0.84606898037E+01  0.19002120696E+02  0.47716919092E+01  0.21340874088E+02  0.51100000000E-03 0. -1.
        -11    1    3    3    0    0 -0.29316710135E+01  0.44015179537E+01  0.12600839748E+01  0.54365307976E+01  0.51100000000E-03 0.  1.
        -12    1    3    3    0    0  0.33283506171E+01  0.12657173676E+02  0.16435710614E+02  0.21009867840E+02  0.00000000000E+00 0.  1.
</event>
<event>
 7    1  0.2387817E-009  0.4778727E+02  0.7816164E-02  0.1312668E+00
        -11   -1    0    0    0    0  0.00000000000E+00  0.00000000000E+00  0.45593999997E+02  0.45594000000E+02  0.51100000000E-03 0.  1.
         11   -1    0    0    0    0 -0.00000000000E+00 -0.00000000000E+00 -0.45593999997E+02  0.45594000000E+02  0.51100000000E-03 0. -1.
    9900012    2    1    2    0    0 -0.13086043762E+01  0.24012840938E+01  0.43314483735E+02  0.47787272910E+02  0.20000008506E+02 0.  0.
         12    1    1    2    0    0  0.13086043762E+01 -0.24012840938E+01 -0.43314483735E+02  0.43400727090E+02  0.00000000000E+00 0. -1.
         11    1    3    3    0    0 -0.24031844364E+00  0.50124651349E+01  0.15640729779E+02  0.16426046024E+02  0.51100000000E-03 0. -1.
        -11    1    3    3    0    0 -0.11839616048E+01  0.40317005403E+01  0.22637701005E+02  0.23024375809E+02  0.51100000000E-03 0.  1.
        -12    1    3    3    0    0  0.11567567227E+00 -0.66428815815E+01  0.50360529508E+01  0.83368510776E+01  0.00000000000E+00 0.  1.
</event>
<event>
 7    1  0.2387817E-009  0.4778726E+02  0.7816164E-02  0.1312668E+00
        -11   -1    0    0    0    0  0.00000000000E+00  0.00000000000E+00  0.45593999997E+02  0.45594000000E+02  0.51100000000E-03 0.  1.
         11   -1    0    0    0    0 -0.00000000000E+00 -0.00000000000E+00 -0.45593999997E+02  0.45594000000E+02  0.51100000000E-03 0. -1.
    9900012    2    1    2    0    0  0.33524090508E+02 -0.11973062442E+02  0.24827503515E+02  0.47787264990E+02  0.19999972396E+02 0.  0.
         12    1    1    2    0    0 -0.33524090508E+02  0.11973062442E+02 -0.24827503515E+02  0.43400735010E+02  0.00000000000E+00 0. -1.
         11    1    3    3    0    0  0.10558982244E+02 -0.37462097671E+01  0.95599191973E+01  0.14728144790E+02  0.51100000000E-03 0. -1.
        -11    1    3    3    0    0  0.14898750392E+02 -0.12953276536E+02  0.12254692607E+02  0.23236557994E+02  0.51100000000E-03 0.  1.
         12    1    3    3    0    0  0.80663578720E+01  0.47264238607E+01  0.30128917106E+01  0.98225622059E+01  0.00000000000E+00 0. -1.
</event>
<event>
 7    1  0.2387817E-009  0.4778727E+02  0.7816164E-02  0.1312668E+00
        -11   -1    0    0    0    0  0.00000000000E+00  0.00000000000E+00  0.45593999997E+02  0.45594000000E+02  0.51100000000E-03 0.  1.
         11   -1    0    0    0    0 -0.00000000000E+00 -0.00000000000E+00 -0.45593999997E+02  0.45594000000E+02  0.51100000000E-03 0. -1.
    9900012    2    1    2    0    0  0.13107732746E+02 -0.30095707687E+02  0.28391179211E+02  0.47787270329E+02  0.19999996740E+02 0.  0.
         12    1    1    2    0    0 -0.13107732746E+02  0.30095707687E+02 -0.28391179211E+02  0.43400729671E+02  0.00000000000E+00 0. -1.
         11    1    3    3    0    0  0.58845762641E+01 -0.53485262974E+01  0.84107572409E+01  0.11574791963E+02  0.51100000000E-03 0. -1.
        -11    1    3    3    0    0  0.65950743545E+01 -0.27027796502E+02  0.18098066260E+02  0.33189407830E+02  0.51100000000E-03 0.  1.
         12    1    3    3    0    0  0.62808212768E+00  0.22806151122E+01  0.18823557096E+01  0.30230705362E+01  0.00000000000E+00 0. -1.
</event>
<event>
 7    1  0.2387817E-009  0.4778727E+02  0.7816164E-02  0.1312668E+00
        -11   -1    0    0    0    0  0.00000000000E+00  0.00000000000E+00  0.45593999997E+02  0.45594000000E+02  0.51100000000E-03 0.  1.
         11   -1    0    0    0    0 -0.00000000000E+00 -0.00000000000E+00 -0.45593999997E+02  0.45594000000E+02  0.51100000000E-03 0. -1.
    9900012    2    1    2    0    0 -0.20480165232E+02  0.25327367239E+02  0.28682933979E+02  0.47787269582E+02  0.19999993333E+02 0.  0.
         12    1    1    2    0    0  0.20480165232E+02 -0.25327367239E+02 -0.28682933979E+02  0.43400730418E+02  0.00000000000E+00 0. -1.
         11    1    3    3    0    0 -0.32350964360E+01  0.15709273459E+02  0.20146957095E+02  0.25751640764E+02  0.51100000000E-03 0.  1.
        -11    1    3    3    0    0 -0.43112239086E+01  0.49441328712E+01  0.29310430165E+01  0.71848531553E+01  0.51100000000E-03 0. -1.
        -12    1    3    3    0    0 -0.12933844887E+02  0.46739609082E+01  0.56049338675E+01  0.14850775663E+02  0.00000000000E+00 0.  1.
</event>
<event>
 7    1  0.2387817E-009  0.4778727E+02  0.7816164E-02  0.1312668E+00
        -11   -1    0    0    0    0  0.00000000000E+00  0.00000000000E+00  0.45593999997E+02  0.45594000000E+02  0.51100000000E-03 0.  1.
         11   -1    0    0    0    0 -0.00000000000E+00 -0.00000000000E+00 -0.45593999997E+02  0.45594000000E+02  0.51100000000E-03 0. -1.
    9900012    2    1    2    0    0  0.15104572489E+02  0.39315531445E+02  0.10476837574E+02  0.47787271338E+02  0.20000001338E+02 0.  0.
         12    1    1    2    0    0 -0.15104572489E+02 -0.39315531445E+02 -0.10476837574E+02  0.43400728662E+02  0.00000000000E+00 0. -1.
         11    1    3    3    0    0  0.10628675975E+02  0.21380994800E+02  0.11587358784E+01  0.23905195266E+02  0.51100000000E-03 0. -1.
        -11    1    3    3    0    0  0.13990892774E+01  0.18625695829E+02  0.89354472453E+01  0.20705463377E+02  0.51100000000E-03 0.  1.
         12    1    3    3    0    0  0.30768072362E+01 -0.69115918376E+00  0.38265444987E+00  0.31766126950E+01  0.00000000000E+00 0. -1.
</event>
<event>
 7    1  0.2387817E-009  0.4778726E+02  0.7816164E-02  0.1312668E+00
        -11   -1    0    0    0    0  0.00000000000E+00  0.00000000000E+00  0.45593999997E+02  0.45594000000E+02  0.51100000000E-03 0.  1.
         11   -1    0    0    0    0 -0.00000000000E+00 -0.00000000000E+00 -0.45593999997E+02  0.45594000000E+02  0.51100000000E-03 0. -1.
    9900012    2    1    2    0    0  0.75046439657E+01 -0.19211729239E+02  0.38186563603E+02  0.47787264278E+02  0.19999969151E+02 0.  0.
         12    1    1    2    0    0 -0.75046439657E+01  0.19211729239E+02 -0.38186563603E+02  0.43400735722E+02  0.00000000000E+00 0. -1.
         11    1    3    3    0    0 -0.39451555012E+00 -0.53984345751E+01  0.73980067199E+01  0.91667465368E+01  0.51100000000E-03 0. -1.
        -11    1    3    3    0    0  0.34950077610E+00  0.17977331776E+01  0.15178740384E+02  0.15288824523E+02  0.51100000000E-03 0.  1.
         12    1    3    3    0    0  0.75496587397E+01 -0.15611027841E+02  0.15609816498E+02  0.23331693219E+02  0.00000000000E+00 0. -1.
</event>
<event>
 7    1  0.2387817E-009  0.4778727E+02  0.7816164E-02  0.1312668E+00
        -11   -1    0    0    0    0  0.00000000000E+00  0.00000000000E+00  0.45593999997E+02  0.45594000000E+02  0.51100000000E-03 0. -1.
         11   -1    0    0    0    0 -0.00000000000E+00 -0.00000000000E+00 -0.45593999997E+02  0.45594000000E+02  0.51100000000E-03 0.  1.
    9900012    2    1    2    0    0  0.35742611992E+02  0.21086383866E+02 -0.12706428949E+02  0.47787271513E+02  0.20000002136E+02 0.  0.
         12    1    1    2    0    0 -0.35742611992E+02 -0.21086383866E+02  0.12706428949E+02  0.43400728487E+02  0.00000000000E+00 0. -1.
         11    1    3    3    0    0  0.10576281227E+01 -0.21869943689E+00  0.19552571159E+01  0.22337048462E+01  0.51100000000E-03 0.  1.
        -11    1    3    3    0    0 -0.25725433029E+00  0.37417768418E+01  0.10121659827E+00  0.37519753178E+01  0.51100000000E-03 0. -1.
        -12    1    3    3    0    0  0.34942238200E+02  0.17563306461E+02 -0.14762902663E+02  0.41801591349E+02  0.00000000000E+00 0.  1.
</event>
<event>
 7    1  0.2387817E-009  0.4778727E+02  0.7816164E-02  0.1312668E+00
        -11   -1    0    0    0    0  0.00000000000E+00  0.00000000000E+00  0.45593999997E+02  0.45594000000E+02  0.51100000000E-03 0.  1.
         11   -1    0    0    0    0 -0.00000000000E+00 -0.00000000000E+00 -0.45593999997E+02  0.45594000000E+02  0.51100000000E-03 0. -1.
    9900012    2    1    2    0    0  0.38960052132E+02 -0.15753273582E+02  0.10843054979E+02  0.47787272679E+02  0.20000007455E+02 0.  0.
         12    1    1    2    0    0 -0.38960052132E+02  0.15753273582E+02 -0.10843054979E+02  0.43400727321E+02  0.00000000000E+00 0. -1.
         11    1    3    3    0    0  0.11938209019E+02 -0.71590404403E+01 -0.29371326214E+01  0.14226715816E+02  0.51100000000E-03 0. -1.
        -11    1    3    3    0    0  0.60885316981E+01 -0.74437499662E+01  0.37816894584E+01  0.10333479918E+02  0.51100000000E-03 0.  1.
        -12    1    3    3    0    0  0.20933311415E+02 -0.11504831752E+01  0.99984981424E+01  0.23227076945E+02  0.00000000000E+00 0.  1.
</event>
<event>
 7    1  0.2387817E-009  0.4778727E+02  0.7816164E-02  0.1312668E+00
        -11   -1    0    0    0    0  0.00000000000E+00  0.00000000000E+00  0.45593999997E+02  0.45594000000E+02  0.51100000000E-03 0. -1.
         11   -1    0    0    0    0 -0.00000000000E+00 -0.00000000000E+00 -0.45593999997E+02  0.45594000000E+02  0.51100000000E-03 0.  1.
    9900012    2    1    2    0    0  0.16798615064E+01  0.19924665576E+02 -0.38520242710E+02  0.47787270381E+02  0.19999996977E+02 0.  0.
         12    1    1    2    0    0 -0.16798615064E+01 -0.19924665576E+02  0.38520242710E+02  0.43400729619E+02  0.00000000000E+00 0. -1.
         11    1    3    3    0    0 -0.15697061564E+01  0.76831487455E+00 -0.41343833154E+01  0.44885867290E+01  0.51100000000E-03 0. -1.
        -11    1    3    3    0    0  0.53203861917E+01  0.21666439375E+02 -0.25752644634E+02  0.34072566830E+02  0.51100000000E-03 0.  1.
        -12    1    3    3    0    0 -0.20708185289E+01 -0.25100886741E+01 -0.86332147602E+01  0.92261168227E+01  0.00000000000E+00 0.  1.
</event>
<event>
 7    1  0.2387817E-009  0.4778727E+02  0.7816164E-02  0.1312668E+00
        -11   -1    0    0    0    0  0.00000000000E+00  0.00000000000E+00  0.45593999997E+02  0.45594000000E+02  0.51100000000E-03 0.  1.
         11   -1    0    0    0    0 -0.00000000000E+00 -0.00000000000E+00 -0.45593999997E+02  0.45594000000E+02  0.51100000000E-03 0. -1.
    9900012    2    1    2    0    0  0.76384127100E+01 -0.15381765978E+01  0.42695572497E+02  0.47787271356E+02  0.20000001419E+02 0.  0.
         12    1    1    2    0    0 -0.76384127100E+01  0.15381765978E+01 -0.42695572497E+02  0.43400728644E+02  0.00000000000E+00 0. -1.
         11    1    3    3    0    0  0.22351143095E+01 -0.36499997918E+01  0.17956953296E+01  0.46414175027E+01  0.51100000000E-03 0. -1.
        -11    1    3    3    0    0  0.17649098657E+01 -0.48375432357E+01  0.23530164371E+02  0.24087037322E+02  0.51100000000E-03 0.  1.
        -12    1    3    3    0    0  0.36383885349E+01  0.69493664297E+01  0.17369712797E+02  0.19058816531E+02  0.00000000000E+00 0.  1.
</event>
<event>
 7    1  0.2387817E-009  0.4778727E+02  0.7816164E-02  0.1312668E+00
        -11   -1    0    0    0    0  0.00000000000E+00  0.00000000000E+00  0.45593999997E+02  0.45594000000E+02  0.51100000000E-03 0. -1.
         11   -1    0    0    0    0 -0.00000000000E+00 -0.00000000000E+00 -0.45593999997E+02  0.45594000000E+02  0.51100000000E-03 0.  1.
    9900012    2    1    2    0    0  0.12862042015E+02  0.41450987696E+02 -0.80886474252E-01  0.47787273643E+02  0.20000011846E+02 0.  0.
         12    1    1    2    0    0 -0.12862042015E+02 -0.41450987696E+02  0.80886474252E-01  0.43400726357E+02  0.00000000000E+00 0. -1.
         11    1    3    3    0    0 -0.75227184854E+00  0.51225828475E+01  0.65379251191E+00  0.52186409029E+01  0.51100000000E-03 0. -1.
        -11    1    3    3    0    0 -0.21699464184E+01  0.12358354077E+02  0.46240968428E+01  0.13372354124E+02  0.51100000000E-03 0.  1.
         12    1    3    3    0    0  0.15784260282E+02  0.23970050771E+02 -0.53587758289E+01  0.29196278615E+02  0.00000000000E+00 0. -1.
</event>
<event>
 7    1  0.2387817E-009  0.4778727E+02  0.7816164E-02  0.1312668E+00
        -11   -1    0    0    0    0  0.00000000000E+00  0.00000000000E+00  0.45593999997E+02  0.45594000000E+02  0.51100000000E-03 0.  1.
         11   -1    0    0    0    0 -0.00000000000E+00 -0.00000000000E+00 -0.45593999997E+02  0.45594000000E+02  0.51100000000E-03 0. -1.
    9900012    2    1    2    0    0 -0.14822327942E+01  0.33058410786E+02  0.28081450443E+02  0.47787269629E+02  0.19999993546E+02 0.  0.
         12    1    1    2    0    0  0.14822327942E+01 -0.33058410786E+02 -0.28081450443E+02  0.43400730371E+02  0.00000000000E+00 0. -1.
         11    1    3    3    0    0  0.63190552487E+01  0.22234584200E+02  0.13686993468E+02  0.26863376263E+02  0.51100000000E-03 0. -1.
        -11    1    3    3    0    0 -0.19607441960E+01  0.50932100890E+01  0.15131254166E+01  0.56634667475E+01  0.51100000000E-03 0.  1.
        -12    1    3    3    0    0 -0.58405438470E+01  0.57306164971E+01  0.12881331558E+02  0.15260426618E+02  0.00000000000E+00 0.  1.
</event>
<event>
 7    1  0.3391674E-009  0.4778727E+02  0.7816164E-02  0.1312668E+00
        -11   -1    0    0    0    0  0.00000000000E+00  0.00000000000E+00  0.45593999997E+02  0.45594000000E+02  0.51100000000E-03 0. -1.
         11   -1    0    0    0    0 -0.00000000000E+00 -0.00000000000E+00 -0.45593999997E+02  0.45594000000E+02  0.51100000000E-03 0.  1.
    9900012    2    1    2    0    0 -0.19254997721E+02 -0.37345316081E+02 -0.10871776013E+02  0.47787273231E+02  0.20000009968E+02 0.  0.
         12    1    1    2    0    0  0.19254997721E+02  0.37345316081E+02  0.10871776013E+02  0.43400726769E+02  0.00000000000E+00 0. -1.
         11    1    3    3    0    0 -0.21327236483E+00 -0.34426327906E+01  0.39103810082E+01  0.52142387290E+01  0.51100000000E-03 0. -1.
        -11    1    3    3    0    0 -0.12861240416E+01 -0.76588401134E+01 -0.56289112993E+01  0.95914852661E+01  0.51100000000E-03 0.  1.
         12    1    3    3    0    0 -0.17755601314E+02 -0.26243843177E+02 -0.91532457220E+01  0.32981549236E+02  0.00000000000E+00 0. -1.
</event>
<event>
 7    1  0.2387817E-009  0.4778727E+02  0.7816164E-02  0.1312668E+00
        -11   -1    0    0    0    0  0.00000000000E+00  0.00000000000E+00  0.45593999997E+02  0.45594000000E+02  0.51100000000E-03 0.  1.
         11   -1    0    0    0    0 -0.00000000000E+00 -0.00000000000E+00 -0.45593999997E+02  0.45594000000E+02  0.51100000000E-03 0. -1.
    9900012    2    1    2    0    0  0.10985639511E+02 -0.32509321030E+02  0.26572228448E+02  0.47787267818E+02  0.19999985288E+02 0.  0.
         12    1    1    2    0    0 -0.10985639511E+02  0.32509321030E+02 -0.26572228448E+02  0.43400732182E+02  0.00000000000E+00 0. -1.
         11    1    3    3    0    0  0.47711976832E+01 -0.17414610694E+01  0.50075687061E+01  0.71325141848E+01  0.51100000000E-03 0. -1.
        -11    1    3    3    0    0  0.58438267862E+01 -0.28206705218E+02  0.23697968517E+02  0.37300968391E+02  0.51100000000E-03 0.  1.
         12    1    3    3    0    0  0.37061504135E+00 -0.25611547418E+01 -0.21333087752E+01  0.33537852421E+01  0.00000000000E+00 0. -1.
</event>
<event>
 7    1  0.2387817E-009  0.4778727E+02  0.7816164E-02  0.1312668E+00
        -11   -1    0    0    0    0  0.00000000000E+00  0.00000000000E+00  0.45593999997E+02  0.45594000000E+02  0.51100000000E-03 0. -1.
         11   -1    0    0    0    0 -0.00000000000E+00 -0.00000000000E+00 -0.45593999997E+02  0.45594000000E+02  0.51100000000E-03 0.  1.
    9900012    2    1    2    0    0 -0.22063998535E+02 -0.19489638962E+02 -0.31889766438E+02  0.47787271184E+02  0.20000000637E+02 0.  0.
         12    1    1    2    0    0  0.22063998535E+02  0.19489638962E+02  0.31889766438E+02  0.43400728816E+02  0.00000000000E+00 0. -1.
         11    1    3    3    0    0  0.13673605419E+01 -0.62425484558E+01 -0.90867919135E+01  0.11108954659E+02  0.51100000000E-03 0. -1.
        -11    1    3    3    0    0 -0.72316857461E+01 -0.90386216200E+01 -0.63254866823E+01  0.13191123589E+02  0.51100000000E-03 0.  1.
         12    1    3    3    0    0 -0.16199673331E+02 -0.42084688867E+01 -0.16477487842E+02  0.23487192936E+02  0.00000000000E+00 0. -1.
</event>
<event>
 7    1  0.2387817E-009  0.4778727E+02  0.7816164E-02  0.1312668E+00
        -11   -1    0    0    0    0  0.00000000000E+00  0.00000000000E+00  0.45593999997E+02  0.45594000000E+02  0.51100000000E-03 0. -1.
         11   -1    0    0    0    0 -0.00000000000E+00 -0.00000000000E+00 -0.45593999997E+02  0.45594000000E+02  0.51100000000E-03 0.  1.
    9900012    2    1    2    0    0  0.24569585270E+02  0.22375878160E+01 -0.35706469014E+02  0.47787271331E+02  0.20000001306E+02 0.  0.
         12    1    1    2    0    0 -0.24569585270E+02 -0.22375878160E+01  0.35706469014E+02  0.43400728669E+02  0.00000000000E+00 0. -1.
         11    1    3    3    0    0  0.23286685840E+01 -0.19603228875E+01 -0.13001538762E+00  0.30467142070E+01  0.51100000000E-03 0. -1.
        -11    1    3    3    0    0  0.13375911642E+02 -0.44820937216E+01 -0.14146286536E+02  0.19978027915E+02  0.51100000000E-03 0.  1.
        -12    1    3    3    0    0  0.88650050438E+01  0.86800044251E+01 -0.21430167091E+02  0.24762529208E+02  0.00000000000E+00 0.  1.
</event>
<event>
 7    1  0.2563171E-009  0.4778727E+02  0.7816164E-02  0.1312668E+00
        -11   -1    0    0    0    0  0.00000000000E+00  0.00000000000E+00  0.45593999997E+02  0.45594000000E+02  0.51100000000E-03 0.  1.
         11   -1    0    0    0    0 -0.00000000000E+00 -0.00000000000E+00 -0.45593999997E+02  0.45594000000E+02  0.51100000000E-03 0. -1.
    9900012    2    1    2    0    0  0.23523029865E+02  0.36149193877E+02  0.48503940494E+01  0.47787268734E+02  0.19999989468E+02 0.  0.
         12    1    1    2    0    0 -0.23523029865E+02 -0.36149193877E+02 -0.48503940494E+01  0.43400731266E+02  0.00000000000E+00 0. -1.
         11    1    3    3    0    0  0.15617793704E+00 -0.88832332482E+00 -0.24767046560E+01  0.26358255048E+01  0.51100000000E-03 0. -1.
        -11    1    3    3    0    0  0.10517546574E+02  0.11064314451E+02  0.15970675178E-01  0.15265585332E+02  0.51100000000E-03 0.  1.
         12    1    3    3    0    0  0.12849305354E+02  0.25973202751E+02  0.73111280302E+01  0.29885857898E+02  0.00000000000E+00 0. -1.
</event>
<event>
 7    1  0.2387817E-009  0.4778727E+02  0.7816164E-02  0.1312668E+00
        -11   -1    0    0    0    0  0.00000000000E+00  0.00000000000E+00  0.45593999997E+02  0.45594000000E+02  0.51100000000E-03 0.  1.
         11   -1    0    0    0    0 -0.00000000000E+00 -0.00000000000E+00 -0.45593999997E+02  0.45594000000E+02  0.51100000000E-03 0. -1.
    9900012    2    1    2    0    0  0.22391057663E+02 -0.14352197520E+01  0.37151094841E+02  0.47787272277E+02  0.20000005618E+02 0.  0.
         12    1    1    2    0    0 -0.22391057663E+02  0.14352197520E+01 -0.37151094841E+02  0.43400727723E+02  0.00000000000E+00 0. -1.
         11    1    3    3    0    0  0.18133009151E+02 -0.67085726299E+00  0.17281579494E+02  0.25058113664E+02  0.51100000000E-03 0. -1.
        -11    1    3    3    0    0  0.42650877509E+01  0.41314813715E+01  0.13016567123E+02  0.14307030852E+02  0.51100000000E-03 0.  1.
         12    1    3    3    0    0 -0.70392390511E-02 -0.48958438604E+01  0.68529482240E+01  0.84221277607E+01  0.00000000000E+00 0. -1.
</event>
<event>
 7    1  0.2387817E-009  0.4778727E+02  0.7816164E-02  0.1312668E+00
        -11   -1    0    0    0    0  0.00000000000E+00  0.00000000000E+00  0.45593999997E+02  0.45594000000E+02  0.51100000000E-03 0.  1.
         11   -1    0    0    0    0 -0.00000000000E+00 -0.00000000000E+00 -0.45593999997E+02  0.45594000000E+02  0.51100000000E-03 0. -1.
    9900012    2    1    2    0    0 -0.25160259166E+02  0.14684380722E+02  0.32170690325E+02  0.47787274264E+02  0.20000014678E+02 0.  0.
         12    1    1    2    0    0  0.25160259166E+02 -0.14684380722E+02 -0.32170690325E+02  0.43400725736E+02  0.00000000000E+00 0. -1.
         11    1    3    3    0    0 -0.15276602524E+01 -0.25244882756E+01  0.42350653753E+00  0.29809637617E+01  0.51100000000E-03 0. -1.
        -11    1    3    3    0    0 -0.42919402858E+01  0.21492903994E+00  0.10772458115E+02  0.11597965340E+02  0.51100000000E-03 0.  1.
         12    1    3    3    0    0 -0.19340658627E+02  0.16993939957E+02  0.20974725672E+02  0.33208345162E+02  0.00000000000E+00 0. -1.
</event>
<event>
 7    1  0.2387817E-009  0.4778727E+02  0.7816164E-02  0.1312668E+00
        -11   -1    0    0    0    0  0.00000000000E+00  0.00000000000E+00  0.45593999997E+02  0.45594000000E+02  0.51100000000E-03 0.  1.
         11   -1    0    0    0    0 -0.00000000000E+00 -0.00000000000E+00 -0.45593999997E+02  0.45594000000E+02  0.51100000000E-03 0. -1.
    9900012    2    1    2    0    0  0.15472109963E+02  0.21954599450E+02  0.34091533783E+02  0.47787270750E+02  0.19999998660E+02 0.  0.
         12    1    1    2    0    0 -0.15472109963E+02 -0.21954599450E+02 -0.34091533783E+02  0.43400729250E+02  0.00000000000E+00 0. -1.
         11    1    3    3    0    0  0.21467400180E+00  0.34172010186E+00  0.99471411760E+01  0.99553239722E+01  0.51100000000E-03 0. -1.
        -11    1    3    3    0    0  0.26555174233E+01  0.52380206636E+01  0.13205320412E+02  0.14452305030E+02  0.51100000000E-03 0.  1.
        -12    1    3    3    0    0  0.12601918537E+02  0.16374858684E+02  0.10939072196E+02  0.23379641748E+02  0.00000000000E+00 0.  1.
</event>
<event>
 7    1  0.2387817E-009  0.4778727E+02  0.7816164E-02  0.1312668E+00
        -11   -1    0    0    0    0  0.00000000000E+00  0.00000000000E+00  0.45593999997E+02  0.45594000000E+02  0.51100000000E-03 0.  1.
         11   -1    0    0    0    0 -0.00000000000E+00 -0.00000000000E+00 -0.45593999997E+02  0.45594000000E+02  0.51100000000E-03 0. -1.
    9900012    2    1    2    0    0 -0.16508745896E+02  0.36417164484E+02 -0.16878238434E+02  0.47787268523E+02  0.19999988505E+02 0.  0.
         12    1    1    2    0    0  0.16508745896E+02 -0.36417164484E+02  0.16878238434E+02  0.43400731477E+02  0.00000000000E+00 0. -1.
         11    1    3    3    0    0 -0.93250866722E+01  0.13423876889E+02 -0.74828891495E+01  0.17976410722E+02  0.51100000000E-03 0. -1.
        -11    1    3    3    0    0 -0.63520496473E+01  0.12037013113E+02 -0.12408267952E+02  0.18417473584E+02  0.51100000000E-03 0.  1.
         12    1    3    3    0    0 -0.83160957674E+00  0.10956274482E+02  0.30129186677E+01  0.11393384217E+02  0.00000000000E+00 0. -1.
</event>
<event>
 7    1  0.2387817E-009  0.4778727E+02  0.7816164E-02  0.1312668E+00
        -11   -1    0    0    0    0  0.00000000000E+00  0.00000000000E+00  0.45593999997E+02  0.45594000000E+02  0.51100000000E-03 0. -1.
         11   -1    0    0    0    0 -0.00000000000E+00 -0.00000000000E+00 -0.45593999997E+02  0.45594000000E+02  0.51100000000E-03 0.  1.
    9900012    2    1    2    0    0 -0.52330910683E+01 -0.43054372921E+02  0.15996731004E+01  0.47787271621E+02  0.20000002630E+02 0.  0.
         12    1    1    2    0    0  0.52330910683E+01  0.43054372921E+02 -0.15996731004E+01  0.43400728379E+02  0.00000000000E+00 0. -1.
         11    1    3    3    0    0  0.11317236078E+01  0.54060223373E+00 -0.27398349098E+01  0.30132614711E+01  0.51100000000E-03 0. -1.
        -11    1    3    3    0    0  0.97293921315E+00 -0.13453280738E+02  0.31541851265E+00  0.13492103707E+02  0.51100000000E-03 0.  1.
        -12    1    3    3    0    0 -0.73377538892E+01 -0.30141694417E+02  0.40240894975E+01  0.31281906444E+02  0.00000000000E+00 0.  1.
</event>
<event>
 7    1  0.2387817E-009  0.4778727E+02  0.7816164E-02  0.1312668E+00
        -11   -1    0    0    0    0  0.00000000000E+00  0.00000000000E+00  0.45593999997E+02  0.45594000000E+02  0.51100000000E-03 0. -1.
         11   -1    0    0    0    0 -0.00000000000E+00 -0.00000000000E+00 -0.45593999997E+02  0.45594000000E+02  0.51100000000E-03 0.  1.
    9900012    2    1    2    0    0 -0.24367810650E+02  0.89316730028E+01 -0.34785890202E+02  0.47787272637E+02  0.20000007260E+02 0.  0.
         12    1    1    2    0    0  0.24367810650E+02 -0.89316730028E+01  0.34785890202E+02  0.43400727363E+02  0.00000000000E+00 0. -1.
         11    1    3    3    0    0 -0.82338371668E+01  0.59168050814E+01 -0.12597364047E+02  0.16170907150E+02  0.51100000000E-03 0. -1.
        -11    1    3    3    0    0  0.26896219772E+01  0.25282511758E+01 -0.37623284648E+01  0.52707908445E+01  0.51100000000E-03 0.  1.
        -12    1    3    3    0    0 -0.18823595461E+02  0.48661674565E+00 -0.18426197690E+02  0.26345574643E+02  0.00000000000E+00 0.  1.
</event>
<event>
 7    1  0.2479048E-009  0.4778727E+02  0.7816164E-02  0.1312668E+00
        -11   -1    0    0    0    0  0.00000000000E+00  0.00000000000E+00  0.45593999997E+02  0.45594000000E+02  0.51100000000E-03 0. -1.
         11   -1    0    0    0    0 -0.00000000000E+00 -0.00000000000E+00 -0.45593999997E+02  0.45594000000E+02  0.51100000000E-03 0.  1.
    9900012    2    1    2    0    0  0.67260777738E+01  0.11540285565E+02 -0.41294124698E+02  0.47787273650E+02  0.20000011878E+02 0.  0.
         12    1    1    2    0    0 -0.67260777738E+01 -0.11540285565E+02  0.41294124698E+02  0.43400726350E+02  0.00000000000E+00 0. -1.
         11    1    3    3    0    0  0.67522594796E+01  0.11564324249E+02 -0.17474827886E+02  0.22015817344E+02  0.51100000000E-03 0. -1.
        -11    1    3    3    0    0  0.47412436533E+01 -0.10298423886E+01 -0.99207748995E+01  0.11043629005E+02  0.51100000000E-03 0.  1.
         12    1    3    3    0    0 -0.47674253591E+01  0.10058037049E+01 -0.13898521913E+02  0.14727827301E+02  0.00000000000E+00 0. -1.
</event>
<event>
 7    1  0.2387817E-009  0.4778727E+02  0.7816164E-02  0.1312668E+00
        -11   -1    0    0    0    0  0.00000000000E+00  0.00000000000E+00  0.45593999997E+02  0.45594000000E+02  0.51100000000E-03 0. -1.
         11   -1    0    0    0    0 -0.00000000000E+00 -0.00000000000E+00 -0.45593999997E+02  0.45594000000E+02  0.51100000000E-03 0.  1.
    9900012    2    1    2    0    0  0.34012507097E+02  0.26706833270E+02  0.36766319702E+01  0.47787271838E+02  0.20000003619E+02 0.  0.
         12    1    1    2    0    0 -0.34012507097E+02 -0.26706833270E+02 -0.36766319702E+01  0.43400728162E+02  0.00000000000E+00 0. -1.
         11    1    3    3    0    0  0.17370942952E+00 -0.42256027974E+00  0.11663163639E+01  0.12526077909E+01  0.51100000000E-03 0. -1.
        -11    1    3    3    0    0  0.28207628114E+02  0.24092358973E+02 -0.41160918892E+01  0.37323642070E+02  0.51100000000E-03 0.  1.
         12    1    3    3    0    0  0.56311695534E+01  0.30370345769E+01  0.66264074954E+01  0.92110219768E+01  0.00000000000E+00 0. -1.
</event>
<event>
 7    1  0.2387817E-009  0.4778727E+02  0.7816164E-02  0.1312668E+00
        -11   -1    0    0    0    0  0.00000000000E+00  0.00000000000E+00  0.45593999997E+02  0.45594000000E+02  0.51100000000E-03 0. -1.
         11   -1    0    0    0    0 -0.00000000000E+00 -0.00000000000E+00 -0.45593999997E+02  0.45594000000E+02  0.51100000000E-03 0.  1.
    9900012    2    1    2    0    0 -0.38942198499E+02 -0.19097809680E+02  0.15498807737E+01  0.47787270871E+02  0.19999999210E+02 0.  0.
         12    1    1    2    0    0  0.38942198499E+02  0.19097809680E+02 -0.15498807737E+01  0.43400729129E+02  0.00000000000E+00 0. -1.
         11    1    3    3    0    0 -0.18216920098E+02 -0.13464645010E+02 -0.51920111349E+01  0.23240262972E+02  0.51100000000E-03 0.  1.
        -11    1    3    3    0    0 -0.39214343904E+01 -0.22948949442E+01 -0.23890781600E+01  0.51334087309E+01  0.51100000000E-03 0. -1.
        -12    1    3    3    0    0 -0.16803844010E+02 -0.33382697264E+01  0.91309700686E+01  0.19413599169E+02  0.00000000000E+00 0.  1.
</event>
<event>
 7    1  0.2387817E-009  0.4778727E+02  0.7816164E-02  0.1312668E+00
        -11   -1    0    0    0    0  0.00000000000E+00  0.00000000000E+00  0.45593999997E+02  0.45594000000E+02  0.51100000000E-03 0.  1.
         11   -1    0    0    0    0 -0.00000000000E+00 -0.00000000000E+00 -0.45593999997E+02  0.45594000000E+02  0.51100000000E-03 0. -1.
    9900012    2    1    2    0    0 -0.27369183237E+02 -0.24392755449E+02  0.23228100188E+02  0.47787270193E+02  0.19999996117E+02 0.  0.
         12    1    1    2    0    0  0.27369183237E+02  0.24392755449E+02 -0.23228100188E+02  0.43400729807E+02  0.00000000000E+00 0. -1.
         11    1    3    3    0    0 -0.24872622746E+01 -0.59411306228E+01  0.52294422782E+00  0.64619639141E+01  0.51100000000E-03 0. -1.
        -11    1    3    3    0    0 -0.17759587589E+02 -0.57786755637E+01  0.70526286673E+01  0.19963356781E+02  0.51100000000E-03 0.  1.
         12    1    3    3    0    0 -0.71223333740E+01 -0.12672949262E+02  0.15652527293E+02  0.21361949498E+02  0.00000000000E+00 0. -1.
</event>
<event>
 7    1  0.2387817E-009  0.4778722E+02  0.7816164E-02  0.1312668E+00
        -11   -1    0    0    0    0  0.00000000000E+00  0.00000000000E+00  0.45593999997E+02  0.45594000000E+02  0.51100000000E-03 0.  1.
         11   -1    0    0    0    0 -0.00000000000E+00 -0.00000000000E+00 -0.45593999997E+02  0.45594000000E+02  0.51100000000E-03 0. -1.
    9900012    2    1    2    0    0 -0.39536363834E+02 -0.13119815699E+02  0.12180894729E+02  0.47787218606E+02  0.19999760913E+02 0.  0.
         12    1    1    2    0    0  0.39536363834E+02  0.13119815699E+02 -0.12180894729E+02  0.43400781394E+02  0.00000000000E+00 0. -1.
         11    1    3    3    0    0 -0.13322233844E+00  0.10455175843E+01  0.74268325955E+00  0.12893540614E+01  0.51100000000E-03 0. -1.
        -11    1    3    3    0    0 -0.20874395603E+02 -0.16142309052E+02  0.77516045942E+01  0.27502761814E+02  0.51100000000E-03 0.  1.
        -12    1    3    3    0    0 -0.18528745892E+02  0.19769757684E+01  0.36866068748E+01  0.18995102731E+02  0.00000000000E+00 0.  1.
</event>
<event>
 7    1  0.2387817E-009  0.4778727E+02  0.7816164E-02  0.1312668E+00
        -11   -1    0    0    0    0  0.00000000000E+00  0.00000000000E+00  0.45593999997E+02  0.45594000000E+02  0.51100000000E-03 0.  1.
         11   -1    0    0    0    0 -0.00000000000E+00 -0.00000000000E+00 -0.45593999997E+02  0.45594000000E+02  0.51100000000E-03 0. -1.
    9900012    2    1    2    0    0 -0.27864036247E+02  0.16856318036E+02  0.28689426932E+02  0.47787271994E+02  0.20000004331E+02 0.  0.
         12    1    1    2    0    0  0.27864036247E+02 -0.16856318036E+02 -0.28689426932E+02  0.43400728006E+02  0.00000000000E+00 0. -1.
         11    1    3    3    0    0 -0.54596738839E+01  0.19300718066E+01  0.45764075075E+01  0.73808347789E+01  0.51100000000E-03 0.  1.
        -11    1    3    3    0    0 -0.10781377034E+02  0.17180894817E+02  0.12521311349E+02  0.23837039993E+02  0.51100000000E-03 0. -1.
         12    1    3    3    0    0 -0.11622985329E+02 -0.22546485869E+01  0.11591708075E+02  0.16569397223E+02  0.00000000000E+00 0. -1.
</event>
<event>
 7    1  0.2416351E-009  0.4778727E+02  0.7816164E-02  0.1312668E+00
        -11   -1    0    0    0    0  0.00000000000E+00  0.00000000000E+00  0.45593999997E+02  0.45594000000E+02  0.51100000000E-03 0. -1.
         11   -1    0    0    0    0 -0.00000000000E+00 -0.00000000000E+00 -0.45593999997E+02  0.45594000000E+02  0.51100000000E-03 0.  1.
    9900012    2    1    2    0    0  0.18213509357E+02  0.33299500934E+02 -0.21048397835E+02  0.47787265709E+02  0.19999975674E+02 0.  0.
         12    1    1    2    0    0 -0.18213509357E+02 -0.33299500934E+02  0.21048397835E+02  0.43400734291E+02  0.00000000000E+00 0. -1.
         11    1    3    3    0    0  0.45487464477E+01  0.69596123045E+01 -0.12239632514E+02  0.14796482758E+02  0.51100000000E-03 0. -1.
        -11    1    3    3    0    0  0.92620947343E+01  0.18804061857E+02 -0.11433666844E+02  0.23876931942E+02  0.51100000000E-03 0.  1.
         12    1    3    3    0    0  0.44026681747E+01  0.75358267733E+01  0.26249015235E+01  0.91138510094E+01  0.00000000000E+00 0. -1.
</event>
<event>
 7    1  0.2387817E-009  0.4778727E+02  0.7816164E-02  0.1312668E+00
        -11   -1    0    0    0    0  0.00000000000E+00  0.00000000000E+00  0.45593999997E+02  0.45594000000E+02  0.51100000000E-03 0.  1.
         11   -1    0    0    0    0 -0.00000000000E+00 -0.00000000000E+00 -0.45593999997E+02  0.45594000000E+02  0.51100000000E-03 0. -1.
    9900012    2    1    2    0    0 -0.25319803983E+02 -0.11317047952E+02  0.33383461822E+02  0.47787267617E+02  0.19999984374E+02 0.  0.
         12    1    1    2    0    0  0.25319803983E+02  0.11317047952E+02 -0.33383461822E+02  0.43400732383E+02  0.00000000000E+00 0. -1.
         11    1    3    3    0    0 -0.64945197185E+01 -0.78785788504E+01  0.40643852571E+01  0.10989541340E+02  0.51100000000E-03 0. -1.
        -11    1    3    3    0    0 -0.11699344708E+02 -0.68542310458E+01  0.13602506249E+02  0.19206335578E+02  0.51100000000E-03 0.  1.
        -12    1    3    3    0    0 -0.71259395566E+01  0.34157619442E+01  0.15716570316E+02  0.17591390699E+02  0.00000000000E+00 0.  1.
</event>
<event>
 7    1  0.2387817E-009  0.4778727E+02  0.7816164E-02  0.1312668E+00
        -11   -1    0    0    0    0  0.00000000000E+00  0.00000000000E+00  0.45593999997E+02  0.45594000000E+02  0.51100000000E-03 0.  1.
         11   -1    0    0    0    0 -0.00000000000E+00 -0.00000000000E+00 -0.45593999997E+02  0.45594000000E+02  0.51100000000E-03 0. -1.
    9900012    2    1    2    0    0 -0.39640097515E+02  0.88500437014E+01  0.15295838398E+02  0.47787271011E+02  0.19999999846E+02 0.  0.
         12    1    1    2    0    0  0.39640097515E+02 -0.88500437014E+01 -0.15295838398E+02  0.43400728989E+02  0.00000000000E+00 0. -1.
         11    1    3    3    0    0 -0.47056765942E+01  0.42042473716E+01  0.46709881518E+01  0.78509374438E+01  0.51100000000E-03 0. -1.
        -11    1    3    3    0    0 -0.35672022954E+02  0.67085480539E+01  0.10218575470E+02  0.37708316370E+02  0.51100000000E-03 0.  1.
        -12    1    3    3    0    0  0.73760203273E+00 -0.20627517241E+01  0.40627477576E+00  0.22280171964E+01  0.00000000000E+00 0.  1.
</event>
<event>
 7    1  0.2387817E-009  0.4778727E+02  0.7816164E-02  0.1312668E+00
        -11   -1    0    0    0    0  0.00000000000E+00  0.00000000000E+00  0.45593999997E+02  0.45594000000E+02  0.51100000000E-03 0.  1.
         11   -1    0    0    0    0 -0.00000000000E+00 -0.00000000000E+00 -0.45593999997E+02  0.45594000000E+02  0.51100000000E-03 0. -1.
    9900012    2    1    2    0    0  0.15925642683E+02  0.21688978363E+02  0.34052685733E+02  0.47787270940E+02  0.19999999523E+02 0.  0.
         12    1    1    2    0    0 -0.15925642683E+02 -0.21688978363E+02 -0.34052685733E+02  0.43400729060E+02  0.00000000000E+00 0. -1.
         11    1    3    3    0    0 -0.17765046007E+01  0.10677209777E+01  0.12302045675E+01  0.24102697404E+01  0.51100000000E-03 0. -1.
        -11    1    3    3    0    0  0.10092352497E+01  0.81622247932E+01  0.18065728761E+02  0.19849710962E+02  0.51100000000E-03 0.  1.
         12    1    3    3    0    0  0.16692912034E+02  0.12459032592E+02  0.14756752405E+02  0.25527290237E+02  0.00000000000E+00 0. -1.
</event>
<event>
 7    1  0.2387817E-009  0.4778727E+02  0.7816164E-02  0.1312668E+00
        -11   -1    0    0    0    0  0.00000000000E+00  0.00000000000E+00  0.45593999997E+02  0.45594000000E+02  0.51100000000E-03 0. -1.
         11   -1    0    0    0    0 -0.00000000000E+00 -0.00000000000E+00 -0.45593999997E+02  0.45594000000E+02  0.51100000000E-03 0.  1.
    9900012    2    1    2    0    0 -0.14937729713E+02 -0.40121529756E+02 -0.71239259022E+01  0.47787271444E+02  0.20000001823E+02 0.  0.
         12    1    1    2    0    0  0.14937729713E+02  0.40121529756E+02  0.71239259022E+01  0.43400728556E+02  0.00000000000E+00 0. -1.
         11    1    3    3    0    0 -0.43453474329E+01 -0.11731498639E+02 -0.42204474501E+01  0.13203116359E+02  0.51100000000E-03 0. -1.
        -11    1    3    3    0    0 -0.10156920039E+02 -0.18817999415E+02 -0.90284088112E+01  0.23211899805E+02  0.51100000000E-03 0.  1.
         12    1    3    3    0    0 -0.43546224139E+00 -0.95720317015E+01  0.61249303590E+01  0.11372255280E+02  0.00000000000E+00 0. -1.
</event>
<event>
 7    1  0.3933948E-009  0.4778727E+02  0.7816164E-02  0.1312668E+00
        -11   -1    0    0    0    0  0.00000000000E+00  0.00000000000E+00  0.45593999997E+02  0.45594000000E+02  0.51100000000E-03 0. -1.
         11   -1    0    0    0    0 -0.00000000000E+00 -0.00000000000E+00 -0.45593999997E+02  0.45594000000E+02  0.51100000000E-03 0.  1.
    9900012    2    1    2    0    0  0.22795712663E+01  0.16039867375E+02 -0.40263503471E+02  0.47787268413E+02  0.19999988001E+02 0.  0.
         12    1    1    2    0    0 -0.22795712663E+01 -0.16039867375E+02  0.40263503471E+02  0.43400731587E+02  0.00000000000E+00 0. -1.
         11    1    3    3    0    0  0.72084278818E+01  0.90502906181E+01 -0.14168810816E+02  0.18292741538E+02  0.51100000000E-03 0. -1.
        -11    1    3    3    0    0 -0.21600600892E+01  0.96298098976E+01 -0.17603557468E+02  0.20181286729E+02  0.51100000000E-03 0.  1.
         12    1    3    3    0    0 -0.27687965263E+01 -0.26402331405E+01 -0.84911351874E+01  0.93132401456E+01  0.00000000000E+00 0. -1.
</event>
<event>
 7    1  0.2387817E-009  0.4778727E+02  0.7816164E-02  0.1312668E+00
        -11   -1    0    0    0    0  0.00000000000E+00  0.00000000000E+00  0.45593999997E+02  0.45594000000E+02  0.51100000000E-03 0. -1.
         11   -1    0    0    0    0 -0.00000000000E+00 -0.00000000000E+00 -0.45593999997E+02  0.45594000000E+02  0.51100000000E-03 0.  1.
    9900012    2    1    2    0    0  0.37116937192E+02  0.14848850679E+02 -0.16895789673E+02  0.47787273028E+02  0.20000009044E+02 0.  0.
         12    1    1    2    0    0 -0.37116937192E+02 -0.14848850679E+02  0.16895789673E+02  0.43400726972E+02  0.00000000000E+00 0. -1.
         11    1    3    3    0    0  0.10297842342E+02  0.75834011981E+01 -0.30179304343E+01  0.13140069825E+02  0.51100000000E-03 0. -1.
        -11    1    3    3    0    0  0.22507383723E+02  0.36694526530E+01 -0.38113365843E+01  0.23120845392E+02  0.51100000000E-03 0.  1.
         12    1    3    3    0    0  0.43117111269E+01  0.35959968284E+01 -0.10066522655E+02  0.11526357811E+02  0.00000000000E+00 0. -1.
</event>
<event>
 7    1  0.2387817E-009  0.4778728E+02  0.7816164E-02  0.1312668E+00
        -11   -1    0    0    0    0  0.00000000000E+00  0.00000000000E+00  0.45593999997E+02  0.45594000000E+02  0.51100000000E-03 0.  1.
         11   -1    0    0    0    0 -0.00000000000E+00 -0.00000000000E+00 -0.45593999997E+02  0.45594000000E+02  0.51100000000E-03 0. -1.
    9900012    2    1    2    0    0 -0.20697802925E+02  0.34437469048E+02 -0.16409889865E+02  0.47787276437E+02  0.20000024588E+02 0.  0.
         12    1    1    2    0    0  0.20697802925E+02 -0.34437469048E+02  0.16409889865E+02  0.43400723563E+02  0.00000000000E+00 0. -1.
         11    1    3    3    0    0 -0.74166006663E+01  0.12773962332E+02 -0.70210409685E+01  0.16354665868E+02  0.51100000000E-03 0.  1.
        -11    1    3    3    0    0 -0.12506506898E+01  0.16786419804E+02 -0.35736887010E+01  0.17208116346E+02  0.51100000000E-03 0. -1.
         12    1    3    3    0    0 -0.12030551569E+02  0.48770869121E+01 -0.58151601955E+01  0.14224494223E+02  0.00000000000E+00 0. -1.
</event>
<event>
 7    1  0.2387817E-009  0.4778727E+02  0.7816164E-02  0.1312668E+00
        -11   -1    0    0    0    0  0.00000000000E+00  0.00000000000E+00  0.45593999997E+02  0.45594000000E+02  0.51100000000E-03 0. -1.
         11   -1    0    0    0    0 -0.00000000000E+00 -0.00000000000E+00 -0.45593999997E+02  0.45594000000E+02  0.51100000000E-03 0.  1.
    9900012    2    1    2    0    0 -0.35492469864E+02 -0.15288190188E+02 -0.19752945073E+02  0.47787274023E+02  0.20000013582E+02 0.  0.
         12    1    1    2    0    0  0.35492469864E+02  0.15288190188E+02  0.19752945073E+02  0.43400725977E+02  0.00000000000E+00 0. -1.
         11    1    3    3    0    0 -0.12352033313E+02  0.25243001627E-01 -0.38455928593E+01  0.12936844626E+02  0.51100000000E-03 0. -1.
        -11    1    3    3    0    0 -0.36618118249E+01 -0.12516587956E+01  0.24809748879E+01  0.45968197960E+01  0.51100000000E-03 0.  1.
        -12    1    3    3    0    0 -0.19478624726E+02 -0.14061774394E+02 -0.18388327102E+02  0.30253609602E+02  0.00000000000E+00 0.  1.
</event>
<event>
 7    1  0.2387817E-009  0.4778727E+02  0.7816164E-02  0.1312668E+00
        -11   -1    0    0    0    0  0.00000000000E+00  0.00000000000E+00  0.45593999997E+02  0.45594000000E+02  0.51100000000E-03 0. -1.
         11   -1    0    0    0    0 -0.00000000000E+00 -0.00000000000E+00 -0.45593999997E+02  0.45594000000E+02  0.51100000000E-03 0.  1.
    9900012    2    1    2    0    0 -0.43277542430E+02  0.24795431807E+01 -0.21283309198E+01  0.47787267222E+02  0.19999982570E+02 0.  0.
         12    1    1    2    0    0  0.43277542430E+02 -0.24795431807E+01  0.21283309198E+01  0.43400732778E+02  0.00000000000E+00 0. -1.
         11    1    3    3    0    0 -0.12509375582E+02  0.67101116390E+01  0.43406333270E+01  0.14844230313E+02  0.51100000000E-03 0. -1.
        -11    1    3    3    0    0 -0.12982810832E+02 -0.14115990669E+01  0.16997630382E+01  0.13169479249E+02  0.51100000000E-03 0.  1.
        -12    1    3    3    0    0 -0.17785356017E+02 -0.28189693914E+01 -0.81687272850E+01  0.19773557660E+02  0.00000000000E+00 0.  1.
</event>
<event>
 7    1  0.2387817E-009  0.4778727E+02  0.7816164E-02  0.1312668E+00
        -11   -1    0    0    0    0  0.00000000000E+00  0.00000000000E+00  0.45593999997E+02  0.45594000000E+02  0.51100000000E-03 0.  1.
         11   -1    0    0    0    0 -0.00000000000E+00 -0.00000000000E+00 -0.45593999997E+02  0.45594000000E+02  0.51100000000E-03 0. -1.
    9900012    2    1    2    0    0  0.42162453871E+02  0.77834048677E+01 -0.67356961583E+01  0.47787268319E+02  0.19999987572E+02 0.  0.
         12    1    1    2    0    0 -0.42162453871E+02 -0.77834048677E+01  0.67356961583E+01  0.43400731681E+02  0.00000000000E+00 0. -1.
         11    1    3    3    0    0  0.21264701533E+02 -0.23533996631E+01 -0.42460870153E+01  0.21811815065E+02  0.51100000000E-03 0. -1.
        -11    1    3    3    0    0  0.11701698395E+02  0.34437238971E+01 -0.66154974972E+01  0.13876375139E+02  0.51100000000E-03 0.  1.
        -12    1    3    3    0    0  0.91960539437E+01  0.66930806337E+01  0.41258883542E+01  0.12099078114E+02  0.00000000000E+00 0.  1.
</event>
<event>
 7    1  0.2387817E-009  0.4778727E+02  0.7816164E-02  0.1312668E+00
        -11   -1    0    0    0    0  0.00000000000E+00  0.00000000000E+00  0.45593999997E+02  0.45594000000E+02  0.51100000000E-03 0.  1.
         11   -1    0    0    0    0 -0.00000000000E+00 -0.00000000000E+00 -0.45593999997E+02  0.45594000000E+02  0.51100000000E-03 0. -1.
    9900012    2    1    2    0    0  0.31003515474E+02  0.13694801775E+01  0.30340228893E+02  0.47787274925E+02  0.20000017695E+02 0.  0.
         12    1    1    2    0    0 -0.31003515474E+02 -0.13694801775E+01 -0.30340228893E+02  0.43400725075E+02  0.00000000000E+00 0. -1.
         11    1    3    3    0    0  0.18035049030E+02  0.56916199318E+00  0.16704432374E+02  0.24589123613E+02  0.51100000000E-03 0. -1.
        -11    1    3    3    0    0  0.15789857636E+02  0.14676544749E+01  0.11801531366E+02  0.19767391246E+02  0.51100000000E-03 0.  1.
         12    1    3    3    0    0 -0.28213911915E+01 -0.66733629062E+00  0.18342651531E+01  0.34307600662E+01  0.00000000000E+00 0. -1.
</event>
<event>
 7    1  0.3036835E-009  0.4778733E+02  0.7816164E-02  0.1312668E+00
        -11   -1    0    0    0    0  0.00000000000E+00  0.00000000000E+00  0.45593999997E+02  0.45594000000E+02  0.51100000000E-03 0.  1.
         11   -1    0    0    0    0 -0.00000000000E+00 -0.00000000000E+00 -0.45593999997E+02  0.45594000000E+02  0.51100000000E-03 0. -1.
    9900012    2    1    2    0    0 -0.36589876809E+02 -0.23286621230E+02  0.15914426374E+01  0.47787326009E+02  0.20000250604E+02 0.  0.
         12    1    1    2    0    0  0.36589876809E+02  0.23286621230E+02 -0.15914426374E+01  0.43400673991E+02  0.00000000000E+00 0. -1.
         11    1    3    3    0    0 -0.78641126952E+01  0.72839888945E+00  0.13480039212E+01  0.80119877844E+01  0.51100000000E-03 0. -1.
        -11    1    3    3    0    0 -0.24088831404E+02 -0.15160438231E+02  0.46713274454E+01  0.28843231201E+02  0.51100000000E-03 0.  1.
         12    1    3    3    0    0 -0.46369327101E+01 -0.88545818881E+01 -0.44278887293E+01  0.10932107023E+02  0.00000000000E+00 0. -1.
</event>
<event>
 7    1  0.2387817E-009  0.4778726E+02  0.7816164E-02  0.1312668E+00
        -11   -1    0    0    0    0  0.00000000000E+00  0.00000000000E+00  0.45593999997E+02  0.45594000000E+02  0.51100000000E-03 0.  1.
         11   -1    0    0    0    0 -0.00000000000E+00 -0.00000000000E+00 -0.45593999997E+02  0.45594000000E+02  0.51100000000E-03 0. -1.
    9900012    2    1    2    0    0 -0.97879914006E+01 -0.38471955790E+02 -0.17542168299E+02  0.47787264677E+02  0.19999970968E+02 0.  0.
         12    1    1    2    0    0  0.97879914006E+01  0.38471955790E+02  0.17542168299E+02  0.43400735323E+02  0.00000000000E+00 0. -1.
         11    1    3    3    0    0  0.22654217411E+01 -0.13766926983E+02 -0.80335249728E+01  0.16099625398E+02  0.51100000000E-03 0. -1.
        -11    1    3    3    0    0 -0.24723315835E+01 -0.18641240140E+02 -0.47805455650E+01  0.19402625430E+02  0.51100000000E-03 0.  1.
        -12    1    3    3    0    0 -0.95810815582E+01 -0.60637886675E+01 -0.47280977613E+01  0.12285013849E+02  0.00000000000E+00 0.  1.
</event>
<event>
 7    1  0.2387817E-009  0.4778727E+02  0.7816164E-02  0.1312668E+00
        -11   -1    0    0    0    0  0.00000000000E+00  0.00000000000E+00  0.45593999997E+02  0.45594000000E+02  0.51100000000E-03 0.  1.
         11   -1    0    0    0    0 -0.00000000000E+00 -0.00000000000E+00 -0.45593999997E+02  0.45594000000E+02  0.51100000000E-03 0. -1.
    9900012    2    1    2    0    0 -0.20581769879E+02  0.11452894485E+01  0.38192964956E+02  0.47787268308E+02  0.19999987524E+02 0.  0.
         12    1    1    2    0    0  0.20581769879E+02 -0.11452894485E+01 -0.38192964956E+02  0.43400731692E+02  0.00000000000E+00 0. -1.
         11    1    3    3    0    0 -0.28532149305E+01  0.44069366705E+01  0.39068018338E+01  0.65440833649E+01  0.51100000000E-03 0. -1.
        -11    1    3    3    0    0  0.20318702205E+01  0.58166393774E-01  0.76281901869E+01  0.78943755745E+01  0.51100000000E-03 0.  1.
        -12    1    3    3    0    0 -0.19760425169E+02 -0.33198136158E+01  0.26657972935E+02  0.33348809369E+02  0.00000000000E+00 0.  1.
</event>
<event>
 7    1  0.2387817E-009  0.4778727E+02  0.7816164E-02  0.1312668E+00
        -11   -1    0    0    0    0  0.00000000000E+00  0.00000000000E+00  0.45593999997E+02  0.45594000000E+02  0.51100000000E-03 0.  1.
         11   -1    0    0    0    0 -0.00000000000E+00 -0.00000000000E+00 -0.45593999997E+02  0.45594000000E+02  0.51100000000E-03 0. -1.
    9900012    2    1    2    0    0  0.34641810829E+02 -0.22835146629E+01  0.26045226610E+02  0.47787270445E+02  0.19999997267E+02 0.  0.
         12    1    1    2    0    0 -0.34641810829E+02  0.22835146629E+01 -0.26045226610E+02  0.43400729555E+02  0.00000000000E+00 0. -1.
         11    1    3    3    0    0  0.66979610677E+01 -0.65095462248E+01  0.30782423482E+01  0.98342488647E+01  0.51100000000E-03 0. -1.
        -11    1    3    3    0    0 -0.75736856788E+00  0.67544379216E+00 -0.12558897272E-01  0.10148839594E+01  0.51100000000E-03 0.  1.
        -12    1    3    3    0    0  0.28701218330E+02  0.35505877698E+01  0.22979543159E+02  0.36938137621E+02  0.00000000000E+00 0.  1.
</event>
<event>
 7    1  0.2387817E-009  0.4778727E+02  0.7816164E-02  0.1312668E+00
        -11   -1    0    0    0    0  0.00000000000E+00  0.00000000000E+00  0.45593999997E+02  0.45594000000E+02  0.51100000000E-03 0. -1.
         11   -1    0    0    0    0 -0.00000000000E+00 -0.00000000000E+00 -0.45593999997E+02  0.45594000000E+02  0.51100000000E-03 0.  1.
    9900012    2    1    2    0    0  0.28824087107E+02  0.67155056620E+01 -0.31744249906E+02  0.47787269407E+02  0.19999992537E+02 0.  0.
         12    1    1    2    0    0 -0.28824087107E+02 -0.67155056620E+01  0.31744249906E+02  0.43400730593E+02  0.00000000000E+00 0. -1.
         11    1    3    3    0    0  0.26417280614E+02  0.60988915537E+01 -0.32983477617E+02  0.42696358032E+02  0.51100000000E-03 0.  1.
        -11    1    3    3    0    0  0.10747474359E+01  0.93149708270E+00 -0.14762916351E+01  0.20499283205E+01  0.51100000000E-03 0. -1.
         12    1    3    3    0    0  0.13320590574E+01 -0.31488297436E+00  0.27155193463E+01  0.30409830549E+01  0.00000000000E+00 0. -1.
</event>
<event>
 7    1  0.2387817E-009  0.4778722E+02  0.7816164E-02  0.1312668E+00
        -11   -1    0    0    0    0  0.00000000000E+00  0.00000000000E+00  0.45593999997E+02  0.45594000000E+02  0.51100000000E-03 0. -1.
         11   -1    0    0    0    0 -0.00000000000E+00 -0.00000000000E+00 -0.45593999997E+02  0.45594000000E+02  0.51100000000E-03 0.  1.
    9900012    2    1    2    0    0 -0.22999618823E+02  0.28852113483E+02 -0.22851706604E+02  0.47787223358E+02  0.19999782577E+02 0.  0.
         12    1    1    2    0    0  0.22999618823E+02 -0.28852113483E+02  0.22851706604E+02  0.43400776642E+02  0.00000000000E+00 0. -1.
         11    1    3    3    0    0 -0.14526408563E+01  0.48825039030E+01 -0.55155068048E+01  0.75079841099E+01  0.51100000000E-03 0. -1.
        -11    1    3    3    0    0 -0.14170169344E+02  0.24899561302E+02 -0.11686906738E+02  0.30941325789E+02  0.51100000000E-03 0.  1.
        -12    1    3    3    0    0 -0.73768086234E+01 -0.92995172195E+00 -0.56492930610E+01  0.93379134586E+01  0.00000000000E+00 0.  1.
</event>
<event>
 7    1  0.2387817E-009  0.4778729E+02  0.7816164E-02  0.1312668E+00
        -11   -1    0    0    0    0  0.00000000000E+00  0.00000000000E+00  0.45593999997E+02  0.45594000000E+02  0.51100000000E-03 0. -1.
         11   -1    0    0    0    0 -0.00000000000E+00 -0.00000000000E+00 -0.45593999997E+02  0.45594000000E+02  0.51100000000E-03 0.  1.
    9900012    2    1    2    0    0 -0.27852719086E+02 -0.21198690857E+02 -0.25660545280E+02  0.47787285275E+02  0.20000064885E+02 0.  0.
         12    1    1    2    0    0  0.27852719086E+02  0.21198690857E+02  0.25660545280E+02  0.43400714725E+02  0.00000000000E+00 0. -1.
         11    1    3    3    0    0 -0.14611749937E+02 -0.53087217732E+01 -0.84350396205E+01  0.17687160788E+02  0.51100000000E-03 0. -1.
        -11    1    3    3    0    0 -0.14425649999E+02 -0.89034532359E+01 -0.88302177033E+01  0.19113963544E+02  0.51100000000E-03 0.  1.
         12    1    3    3    0    0  0.11846808495E+01 -0.69865158475E+01 -0.83952879566E+01  0.10986160943E+02  0.00000000000E+00 0. -1.
</event>
<event>
 7    1  0.2387817E-009  0.4778727E+02  0.7816164E-02  0.1312668E+00
        -11   -1    0    0    0    0  0.00000000000E+00  0.00000000000E+00  0.45593999997E+02  0.45594000000E+02  0.51100000000E-03 0.  1.
         11   -1    0    0    0    0 -0.00000000000E+00 -0.00000000000E+00 -0.45593999997E+02  0.45594000000E+02  0.51100000000E-03 0. -1.
    9900012    2    1    2    0    0  0.21031979666E+02 -0.87476053869E+01  0.36942637365E+02  0.47787271617E+02  0.20000002611E+02 0.  0.
         12    1    1    2    0    0 -0.21031979666E+02  0.87476053869E+01 -0.36942637365E+02  0.43400728383E+02  0.00000000000E+00 0. -1.
         11    1    3    3    0    0  0.12625572472E+02 -0.72595933928E+01  0.11040637775E+02  0.18275734164E+02  0.51100000000E-03 0. -1.
        -11    1    3    3    0    0  0.10017071579E+02 -0.24968547465E+01  0.13656657640E+02  0.17119588336E+02  0.51100000000E-03 0.  1.
         12    1    3    3    0    0 -0.16106643847E+01  0.10088427524E+01  0.12245341950E+02  0.12391949117E+02  0.00000000000E+00 0. -1.
</event>
<event>
 7    1  0.2387817E-009  0.4778727E+02  0.7816164E-02  0.1312668E+00
        -11   -1    0    0    0    0  0.00000000000E+00  0.00000000000E+00  0.45593999997E+02  0.45594000000E+02  0.51100000000E-03 0. -1.
         11   -1    0    0    0    0 -0.00000000000E+00 -0.00000000000E+00 -0.45593999997E+02  0.45594000000E+02  0.51100000000E-03 0.  1.
    9900012    2    1    2    0    0 -0.17735795209E+02 -0.13960318833E+02 -0.37069858544E+02  0.47787270212E+02  0.19999996206E+02 0.  0.
         12    1    1    2    0    0  0.17735795209E+02  0.13960318833E+02  0.37069858544E+02  0.43400729788E+02  0.00000000000E+00 0. -1.
         11    1    3    3    0    0 -0.97277413583E+01 -0.71476115299E+01 -0.52859666274E+01  0.13177964409E+02  0.51100000000E-03 0. -1.
        -11    1    3    3    0    0 -0.95031424377E+00  0.19892883746E+01 -0.32624662576E+01  0.39375184752E+01  0.51100000000E-03 0.  1.
        -12    1    3    3    0    0 -0.70577396073E+01 -0.88019956774E+01 -0.28521425659E+02  0.30671787328E+02  0.00000000000E+00 0.  1.
</event>
<event>
 7    1  0.2387817E-009  0.4778727E+02  0.7816164E-02  0.1312668E+00
        -11   -1    0    0    0    0  0.00000000000E+00  0.00000000000E+00  0.45593999997E+02  0.45594000000E+02  0.51100000000E-03 0.  1.
         11   -1    0    0    0    0 -0.00000000000E+00 -0.00000000000E+00 -0.45593999997E+02  0.45594000000E+02  0.51100000000E-03 0. -1.
    9900012    2    1    2    0    0  0.17814936652E+02  0.14167294511E+02  0.36953198433E+02  0.47787273323E+02  0.20000010390E+02 0.  0.
         12    1    1    2    0    0 -0.17814936652E+02 -0.14167294511E+02 -0.36953198433E+02  0.43400726677E+02  0.00000000000E+00 0. -1.
         11    1    3    3    0    0  0.32951230773E+01  0.49144243010E+00  0.13499744685E+02  0.13904763880E+02  0.51100000000E-03 0. -1.
        -11    1    3    3    0    0  0.13217004180E+02  0.96096496847E+01  0.24534097203E+02  0.29478067989E+02  0.51100000000E-03 0.  1.
         12    1    3    3    0    0  0.13028093944E+01  0.40662023960E+01 -0.10806434548E+01  0.44044414538E+01  0.00000000000E+00 0. -1.
</event>
<event>
 7    1  0.2387817E-009  0.4778727E+02  0.7816164E-02  0.1312668E+00
        -11   -1    0    0    0    0  0.00000000000E+00  0.00000000000E+00  0.45593999997E+02  0.45594000000E+02  0.51100000000E-03 0.  1.
         11   -1    0    0    0    0 -0.00000000000E+00 -0.00000000000E+00 -0.45593999997E+02  0.45594000000E+02  0.51100000000E-03 0. -1.
    9900012    2    1    2    0    0 -0.19536640326E+02  0.12887668938E+02  0.36549297045E+02  0.47787269126E+02  0.19999991254E+02 0.  0.
         12    1    1    2    0    0  0.19536640326E+02 -0.12887668938E+02 -0.36549297045E+02  0.43400730874E+02  0.00000000000E+00 0. -1.
         11    1    3    3    0    0  0.73079663041E-01 -0.13558034545E+01  0.51691314774E+01  0.53444797816E+01  0.51100000000E-03 0. -1.
        -11    1    3    3    0    0 -0.10844709602E+02 -0.89253934860E+00  0.14558754389E+02  0.18175854380E+02  0.51100000000E-03 0.  1.
         12    1    3    3    0    0 -0.87650103868E+01  0.15136011741E+02  0.16821411179E+02  0.24266934964E+02  0.00000000000E+00 0. -1.
</event>
<event>
 7    1  0.2387817E-009  0.4778727E+02  0.7816164E-02  0.1312668E+00
        -11   -1    0    0    0    0  0.00000000000E+00  0.00000000000E+00  0.45593999997E+02  0.45594000000E+02  0.51100000000E-03 0.  1.
         11   -1    0    0    0    0 -0.00000000000E+00 -0.00000000000E+00 -0.45593999997E+02  0.45594000000E+02  0.51100000000E-03 0. -1.
    9900012    2    1    2    0    0 -0.71618522251E+01  0.38926707775E+02  0.17805687946E+02  0.47787271565E+02  0.20000002372E+02 0.  0.
         12    1    1    2    0    0  0.71618522251E+01 -0.38926707775E+02 -0.17805687946E+02  0.43400728435E+02  0.00000000000E+00 0. -1.
         11    1    3    3    0    0 -0.32531657626E+00  0.31864504735E+02  0.80602223659E+01  0.32869738023E+02  0.51100000000E-03 0. -1.
        -11    1    3    3    0    0 -0.15445206127E+01  0.55773209748E+01  0.46756192313E+01  0.74399911718E+01  0.51100000000E-03 0.  1.
         12    1    3    3    0    0 -0.52920150361E+01  0.14848820653E+01  0.50698463486E+01  0.74775423696E+01  0.00000000000E+00 0. -1.
</event>
<event>
 7    1  0.2387817E-009  0.4778727E+02  0.7816164E-02  0.1312668E+00
        -11   -1    0    0    0    0  0.00000000000E+00  0.00000000000E+00  0.45593999997E+02  0.45594000000E+02  0.51100000000E-03 0. -1.
         11   -1    0    0    0    0 -0.00000000000E+00 -0.00000000000E+00 -0.45593999997E+02  0.45594000000E+02  0.51100000000E-03 0.  1.
    9900012    2    1    2    0    0 -0.28335054628E+02 -0.22139726440E+01 -0.32800095232E+02  0.47787271401E+02  0.20000001628E+02 0.  0.
         12    1    1    2    0    0  0.28335054628E+02  0.22139726440E+01  0.32800095232E+02  0.43400728599E+02  0.00000000000E+00 0. -1.
         11    1    3    3    0    0 -0.11585267054E+02 -0.82182387995E+01 -0.72921538629E+01  0.15966633017E+02  0.51100000000E-03 0. -1.
        -11    1    3    3    0    0 -0.53575645452E-01  0.16282444573E+01 -0.34242587065E+01  0.37920440810E+01  0.51100000000E-03 0.  1.
        -12    1    3    3    0    0 -0.16696211929E+02  0.43760216983E+01 -0.22083682663E+02  0.28028594304E+02  0.00000000000E+00 0.  1.
</event>
<event>
 7    1  0.2387817E-009  0.4778727E+02  0.7816164E-02  0.1312668E+00
        -11   -1    0    0    0    0  0.00000000000E+00  0.00000000000E+00  0.45593999997E+02  0.45594000000E+02  0.51100000000E-03 0. -1.
         11   -1    0    0    0    0 -0.00000000000E+00 -0.00000000000E+00 -0.45593999997E+02  0.45594000000E+02  0.51100000000E-03 0.  1.
    9900012    2    1    2    0    0  0.17549441512E+02  0.29650489933E+01 -0.39583443003E+02  0.47787269904E+02  0.19999994799E+02 0.  0.
         12    1    1    2    0    0 -0.17549441512E+02 -0.29650489933E+01  0.39583443003E+02  0.43400730096E+02  0.00000000000E+00 0. -1.
         11    1    3    3    0    0  0.13597021331E+01 -0.12077996845E+01  0.50075198096E+00  0.18863517106E+01  0.51100000000E-03 0. -1.
        -11    1    3    3    0    0  0.10755784173E+02  0.32092029919E+01 -0.91585430442E+01  0.14486710737E+02  0.51100000000E-03 0.  1.
         12    1    3    3    0    0  0.54339552053E+01  0.96364568593E+00 -0.30925651940E+02  0.31414207456E+02  0.00000000000E+00 0. -1.
</event>
<event>
 7    1  0.2387817E-009  0.4778727E+02  0.7816164E-02  0.1312668E+00
        -11   -1    0    0    0    0  0.00000000000E+00  0.00000000000E+00  0.45593999997E+02  0.45594000000E+02  0.51100000000E-03 0.  1.
         11   -1    0    0    0    0 -0.00000000000E+00 -0.00000000000E+00 -0.45593999997E+02  0.45594000000E+02  0.51100000000E-03 0. -1.
    9900012    2    1    2    0    0 -0.34764927822E+02 -0.37192939310E+01  0.25713618293E+02  0.47787268214E+02  0.19999987097E+02 0.  0.
         12    1    1    2    0    0  0.34764927822E+02  0.37192939310E+01 -0.25713618293E+02  0.43400731786E+02  0.00000000000E+00 0. -1.
         11    1    3    3    0    0 -0.25229335830E+01 -0.26822547129E+01 -0.80716636090E+00  0.37697747950E+01  0.51100000000E-03 0. -1.
        -11    1    3    3    0    0 -0.24043161981E+02 -0.69342558502E+01  0.18454824926E+02  0.31092412347E+02  0.51100000000E-03 0.  1.
         12    1    3    3    0    0 -0.81988322575E+01  0.58972166322E+01  0.80659597274E+01  0.12925081072E+02  0.00000000000E+00 0. -1.
</event>
<event>
 7    1  0.2387817E-009  0.4778728E+02  0.7816164E-02  0.1312668E+00
        -11   -1    0    0    0    0  0.00000000000E+00  0.00000000000E+00  0.45593999997E+02  0.45594000000E+02  0.51100000000E-03 0.  1.
         11   -1    0    0    0    0 -0.00000000000E+00 -0.00000000000E+00 -0.45593999997E+02  0.45594000000E+02  0.51100000000E-03 0. -1.
    9900012    2    1    2    0    0  0.20771203716E+01  0.36698925185E+02  0.23075893469E+02  0.47787281133E+02  0.20000045998E+02 0.  0.
         12    1    1    2    0    0 -0.20771203716E+01 -0.36698925185E+02 -0.23075893469E+02  0.43400718867E+02  0.00000000000E+00 0. -1.
         11    1    3    3    0    0 -0.22445672591E-01 -0.40341681714E+00 -0.14484914095E+01  0.15037874056E+01  0.51100000000E-03 0. -1.
        -11    1    3    3    0    0  0.59506302885E+01  0.92547849108E+01  0.86718545262E+01  0.14009357793E+02  0.51100000000E-03 0.  1.
         12    1    3    3    0    0 -0.38510642444E+01  0.27847557091E+02  0.15852530353E+02  0.32274135935E+02  0.00000000000E+00 0. -1.
</event>
<event>
 7    1  0.2387817E-009  0.4778727E+02  0.7816164E-02  0.1312668E+00
        -11   -1    0    0    0    0  0.00000000000E+00  0.00000000000E+00  0.45593999997E+02  0.45594000000E+02  0.51100000000E-03 0. -1.
         11   -1    0    0    0    0 -0.00000000000E+00 -0.00000000000E+00 -0.45593999997E+02  0.45594000000E+02  0.51100000000E-03 0.  1.
    9900012    2    1    2    0    0  0.25410298687E+02  0.18413035945E+02 -0.29981666994E+02  0.47787268119E+02  0.19999986661E+02 0.  0.
         12    1    1    2    0    0 -0.25410298687E+02 -0.18413035945E+02  0.29981666994E+02  0.43400731881E+02  0.00000000000E+00 0. -1.
         11    1    3    3    0    0  0.55528687491E+01  0.38181816313E+00 -0.42612056740E+01  0.70098509622E+01  0.51100000000E-03 0. -1.
        -11    1    3    3    0    0  0.13233893270E+02  0.12052847213E+01 -0.82952406754E+01  0.15665237325E+02  0.51100000000E-03 0.  1.
         12    1    3    3    0    0  0.66235366678E+01  0.16825933061E+02 -0.17425220645E+02  0.25112179831E+02  0.00000000000E+00 0. -1.
</event>
<event>
 7    1  0.2387817E-009  0.4778727E+02  0.7816164E-02  0.1312668E+00
        -11   -1    0    0    0    0  0.00000000000E+00  0.00000000000E+00  0.45593999997E+02  0.45594000000E+02  0.51100000000E-03 0.  1.
         11   -1    0    0    0    0 -0.00000000000E+00 -0.00000000000E+00 -0.45593999997E+02  0.45594000000E+02  0.51100000000E-03 0. -1.
    9900012    2    1    2    0    0  0.20853001402E+02 -0.22180491922E+02 -0.30932210137E+02  0.47787268286E+02  0.19999987423E+02 0.  0.
         12    1    1    2    0    0 -0.20853001402E+02  0.22180491922E+02  0.30932210137E+02  0.43400731714E+02  0.00000000000E+00 0. -1.
         11    1    3    3    0    0  0.58783865041E+01 -0.41983854547E+01 -0.55642502274E+01  0.91182645921E+01  0.51100000000E-03 0. -1.
        -11    1    3    3    0    0  0.14145115923E+02 -0.20269558641E+02 -0.26273596729E+02  0.36072720958E+02  0.51100000000E-03 0.  1.
         12    1    3    3    0    0  0.82949897471E+00  0.22874521740E+01  0.90563681907E+00  0.25962827360E+01  0.00000000000E+00 0. -1.
</event>
<event>
 7    1  0.2387817E-009  0.4778727E+02  0.7816164E-02  0.1312668E+00
        -11   -1    0    0    0    0  0.00000000000E+00  0.00000000000E+00  0.45593999997E+02  0.45594000000E+02  0.51100000000E-03 0. -1.
         11   -1    0    0    0    0 -0.00000000000E+00 -0.00000000000E+00 -0.45593999997E+02  0.45594000000E+02  0.51100000000E-03 0.  1.
    9900012    2    1    2    0    0  0.36289598222E+02 -0.53662581657E+01 -0.23192490281E+02  0.47787271074E+02  0.20000000137E+02 0.  0.
         12    1    1    2    0    0 -0.36289598222E+02  0.53662581657E+01  0.23192490281E+02  0.43400728926E+02  0.00000000000E+00 0. -1.
         11    1    3    3    0    0  0.41001336131E+01  0.41490998150E+01  0.96994966470E+00  0.59132839889E+01  0.51100000000E-03 0. -1.
        -11    1    3    3    0    0  0.56260633994E+01 -0.24871928070E+00 -0.17276869934E+01  0.58906156947E+01  0.51100000000E-03 0.  1.
        -12    1    3    3    0    0  0.26563401210E+02 -0.92666387000E+01 -0.22434752952E+02  0.35983371391E+02  0.00000000000E+00 0.  1.
</event>
<event>
 7    1  0.2387817E-009  0.4778725E+02  0.7816164E-02  0.1312668E+00
        -11   -1    0    0    0    0  0.00000000000E+00  0.00000000000E+00  0.45593999997E+02  0.45594000000E+02  0.51100000000E-03 0.  1.
         11   -1    0    0    0    0 -0.00000000000E+00 -0.00000000000E+00 -0.45593999997E+02  0.45594000000E+02  0.51100000000E-03 0. -1.
    9900012    2    1    2    0    0 -0.80641749295E+00 -0.35401340884E+02  0.25094224506E+02  0.47787247136E+02  0.19999890994E+02 0.  0.
         12    1    1    2    0    0  0.80641749295E+00  0.35401340884E+02 -0.25094224506E+02  0.43400752864E+02  0.00000000000E+00 0. -1.
         11    1    3    3    0    0 -0.10401631525E+01 -0.21284193273E+02  0.71527781221E+01  0.22478012763E+02  0.51100000000E-03 0. -1.
        -11    1    3    3    0    0 -0.37472134080E+01 -0.38082695105E+01  0.15910482977E+01  0.55745815930E+01  0.51100000000E-03 0.  1.
        -12    1    3    3    0    0  0.39809590676E+01 -0.10308878101E+02  0.16350398086E+02  0.19734652781E+02  0.00000000000E+00 0.  1.
</event>
<event>
 7    1  0.2387817E-009  0.4778727E+02  0.7816164E-02  0.1312668E+00
        -11   -1    0    0    0    0  0.00000000000E+00  0.00000000000E+00  0.45593999997E+02  0.45594000000E+02  0.51100000000E-03 0. -1.
         11   -1    0    0    0    0 -0.00000000000E+00 -0.00000000000E+00 -0.45593999997E+02  0.45594000000E+02  0.51100000000E-03 0.  1.
    9900012    2    1    2    0    0 -0.30085700584E+02 -0.25507454725E+02 -0.18106451231E+02  0.47787271868E+02  0.20000003757E+02 0.  0.
         12    1    1    2    0    0  0.30085700584E+02  0.25507454725E+02  0.18106451231E+02  0.43400728132E+02  0.00000000000E+00 0. -1.
         11    1    3    3    0    0 -0.56355490741E+01 -0.55138197860E+01 -0.85575946296E+01  0.11635894813E+02  0.51100000000E-03 0. -1.
        -11    1    3    3    0    0 -0.15443062589E+02 -0.20668443855E+02 -0.77732550625E+01  0.26946173162E+02  0.51100000000E-03 0.  1.
         12    1    3    3    0    0 -0.90070889207E+01  0.67480891639E+00 -0.17756015390E+01  0.92052038937E+01  0.00000000000E+00 0. -1.
</event>
<event>
 7    1  0.2387817E-009  0.4778727E+02  0.7816164E-02  0.1312668E+00
        -11   -1    0    0    0    0  0.00000000000E+00  0.00000000000E+00  0.45593999997E+02  0.45594000000E+02  0.51100000000E-03 0. -1.
         11   -1    0    0    0    0 -0.00000000000E+00 -0.00000000000E+00 -0.45593999997E+02  0.45594000000E+02  0.51100000000E-03 0.  1.
    9900012    2    1    2    0    0 -0.10560955522E+02  0.32928283686E+02 -0.26226284650E+02  0.47787266659E+02  0.19999980005E+02 0.  0.
         12    1    1    2    0    0  0.10560955522E+02 -0.32928283686E+02  0.26226284650E+02  0.43400733341E+02  0.00000000000E+00 0. -1.
         11    1    3    3    0    0 -0.35651635682E+01  0.39309544071E+01 -0.70960538444E+00  0.53540950572E+01  0.51100000000E-03 0. -1.
        -11    1    3    3    0    0 -0.69592233242E+01  0.54427518939E+01 -0.18180984359E+01  0.90199678291E+01  0.51100000000E-03 0.  1.
        -12    1    3    3    0    0 -0.36568629178E-01  0.23554577385E+02 -0.23698580829E+02  0.33413203773E+02  0.00000000000E+00 0.  1.
</event>
<event>
 7    1  0.2387817E-009  0.4778726E+02  0.7816164E-02  0.1312668E+00
        -11   -1    0    0    0    0  0.00000000000E+00  0.00000000000E+00  0.45593999997E+02  0.45594000000E+02  0.51100000000E-03 0.  1.
         11   -1    0    0    0    0 -0.00000000000E+00 -0.00000000000E+00 -0.45593999997E+02  0.45594000000E+02  0.51100000000E-03 0. -1.
    9900012    2    1    2    0    0 -0.24080774002E+02  0.22306233808E+02  0.28393172129E+02  0.47787263062E+02  0.19999963606E+02 0.  0.
         12    1    1    2    0    0  0.24080774002E+02 -0.22306233808E+02 -0.28393172129E+02  0.43400736938E+02  0.00000000000E+00 0. -1.
         11    1    3    3    0    0 -0.91697645941E+01  0.26601301426E+01  0.25890491509E+01  0.98926260848E+01  0.51100000000E-03 0. -1.
        -11    1    3    3    0    0 -0.13352901544E+02  0.71585249883E+01  0.14744103366E+02  0.21140790997E+02  0.51100000000E-03 0.  1.
         12    1    3    3    0    0 -0.15581078634E+01  0.12487578677E+02  0.11060019612E+02  0.16753845981E+02  0.00000000000E+00 0. -1.
</event>
<event>
 7    1  0.2387817E-009  0.4778727E+02  0.7816164E-02  0.1312668E+00
        -11   -1    0    0    0    0  0.00000000000E+00  0.00000000000E+00  0.45593999997E+02  0.45594000000E+02  0.51100000000E-03 0.  1.
         11   -1    0    0    0    0 -0.00000000000E+00 -0.00000000000E+00 -0.45593999997E+02  0.45594000000E+02  0.51100000000E-03 0. -1.
    9900012    2    1    2    0    0 -0.10280870706E+02 -0.52902574841E+01  0.41832285394E+02  0.47787271573E+02  0.20000002412E+02 0.  0.
         12    1    1    2    0    0  0.10280870706E+02  0.52902574841E+01 -0.41832285394E+02  0.43400728427E+02  0.00000000000E+00 0. -1.
         11    1    3    3    0    0 -0.27836660170E+00 -0.84840138994E+01  0.23585069963E+02  0.25066142608E+02  0.51100000000E-03 0. -1.
        -11    1    3    3    0    0 -0.29767287180E+01  0.33005692639E-01  0.13151815126E+02  0.13484518701E+02  0.51100000000E-03 0.  1.
         12    1    3    3    0    0 -0.70257753861E+01  0.31607507227E+01  0.50954003039E+01  0.92366102637E+01  0.00000000000E+00 0. -1.
</event>
<event>
 7    1  0.2387817E-009  0.4778727E+02  0.7816164E-02  0.1312668E+00
        -11   -1    0    0    0    0  0.00000000000E+00  0.00000000000E+00  0.45593999997E+02  0.45594000000E+02  0.51100000000E-03 0. -1.
         11   -1    0    0    0    0 -0.00000000000E+00 -0.00000000000E+00 -0.45593999997E+02  0.45594000000E+02  0.51100000000E-03 0.  1.
    9900012    2    1    2    0    0  0.40462575796E+02  0.10070975894E+01  0.15664897440E+02  0.47787270774E+02  0.19999998765E+02 0.  0.
         12    1    1    2    0    0 -0.40462575796E+02 -0.10070975894E+01 -0.15664897440E+02  0.43400729226E+02  0.00000000000E+00 0. -1.
         11    1    3    3    0    0  0.12035757750E+02 -0.36951770502E+00  0.10245137914E+02  0.15810087257E+02  0.51100000000E-03 0. -1.
        -11    1    3    3    0    0  0.20489192340E+02 -0.52614894181E+01  0.40717036877E+01  0.21542261832E+02  0.51100000000E-03 0.  1.
        -12    1    3    3    0    0  0.79376257064E+01  0.66381047125E+01  0.13480558384E+01  0.10434921685E+02  0.00000000000E+00 0.  1.
</event>
<event>
 7    1  0.2387817E-009  0.4778727E+02  0.7816164E-02  0.1312668E+00
        -11   -1    0    0    0    0  0.00000000000E+00  0.00000000000E+00  0.45593999997E+02  0.45594000000E+02  0.51100000000E-03 0. -1.
         11   -1    0    0    0    0 -0.00000000000E+00 -0.00000000000E+00 -0.45593999997E+02  0.45594000000E+02  0.51100000000E-03 0.  1.
    9900012    2    1    2    0    0 -0.11917208297E+02 -0.37023119105E+02 -0.19258554877E+02  0.47787272612E+02  0.20000007148E+02 0.  0.
         12    1    1    2    0    0  0.11917208297E+02  0.37023119105E+02  0.19258554877E+02  0.43400727388E+02  0.00000000000E+00 0. -1.
         11    1    3    3    0    0 -0.16521757630E+01 -0.90280497378E+01 -0.82944270775E+01  0.12370646209E+02  0.51100000000E-03 0. -1.
        -11    1    3    3    0    0 -0.47082164225E+01 -0.27263033512E+02 -0.11099785510E+02  0.29810158282E+02  0.51100000000E-03 0.  1.
         12    1    3    3    0    0 -0.55568161112E+01 -0.73203585531E+00  0.13565771041E+00  0.56064681218E+01  0.00000000000E+00 0. -1.
</event>
<event>
 7    1  0.2387817E-009  0.4778727E+02  0.7816164E-02  0.1312668E+00
        -11   -1    0    0    0    0  0.00000000000E+00  0.00000000000E+00  0.45593999997E+02  0.45594000000E+02  0.51100000000E-03 0.  1.
         11   -1    0    0    0    0 -0.00000000000E+00 -0.00000000000E+00 -0.45593999997E+02  0.45594000000E+02  0.51100000000E-03 0. -1.
    9900012    2    1    2    0    0  0.16754643911E+02 -0.23713875690E+02  0.32257667494E+02  0.47787272990E+02  0.20000008873E+02 0.  0.
         12    1    1    2    0    0 -0.16754643911E+02  0.23713875690E+02 -0.32257667494E+02  0.43400727010E+02  0.00000000000E+00 0. -1.
         11    1    3    3    0    0  0.11495291138E+02 -0.12437263770E+02  0.11163718122E+02  0.20284374553E+02  0.51100000000E-03 0. -1.
        -11    1    3    3    0    0  0.63484614777E+01 -0.13227908370E+02  0.14870831058E+02  0.20890718982E+02  0.51100000000E-03 0.  1.
         12    1    3    3    0    0 -0.10891087045E+01  0.19512964502E+01  0.62231183136E+01  0.66121794555E+01  0.00000000000E+00 0. -1.
</event>
<event>
 7    1  0.2387817E-009  0.4778727E+02  0.7816164E-02  0.1312668E+00
        -11   -1    0    0    0    0  0.00000000000E+00  0.00000000000E+00  0.45593999997E+02  0.45594000000E+02  0.51100000000E-03 0.  1.
         11   -1    0    0    0    0 -0.00000000000E+00 -0.00000000000E+00 -0.45593999997E+02  0.45594000000E+02  0.51100000000E-03 0. -1.
    9900012    2    1    2    0    0  0.12007521063E+02  0.27889902209E+01  0.41613275181E+02  0.47787266138E+02  0.19999977627E+02 0.  0.
         12    1    1    2    0    0 -0.12007521063E+02 -0.27889902209E+01 -0.41613275181E+02  0.43400733862E+02  0.00000000000E+00 0. -1.
         11    1    3    3    0    0  0.74878437386E+01  0.44008669738E+01  0.17736304162E+02  0.19748719441E+02  0.51100000000E-03 0.  1.
        -11    1    3    3    0    0  0.44711566573E+01  0.52884986317E+00  0.46210663622E+00  0.45259768931E+01  0.51100000000E-03 0. -1.
         12    1    3    3    0    0  0.48520666731E-01 -0.21407266161E+01  0.23414864383E+02  0.23512569804E+02  0.00000000000E+00 0. -1.
</event>
<event>
 7    1  0.2387817E-009  0.4778727E+02  0.7816164E-02  0.1312668E+00
        -11   -1    0    0    0    0  0.00000000000E+00  0.00000000000E+00  0.45593999997E+02  0.45594000000E+02  0.51100000000E-03 0.  1.
         11   -1    0    0    0    0 -0.00000000000E+00 -0.00000000000E+00 -0.45593999997E+02  0.45594000000E+02  0.51100000000E-03 0. -1.
    9900012    2    1    2    0    0  0.42328798198E+02  0.93792681987E+01 -0.19812490419E+01  0.47787272165E+02  0.20000005111E+02 0.  0.
         12    1    1    2    0    0 -0.42328798198E+02 -0.93792681987E+01  0.19812490419E+01  0.43400727835E+02  0.00000000000E+00 0. -1.
         11    1    3    3    0    0  0.12194577825E+02 -0.20676836329E+01  0.81137307377E+00  0.12395215628E+02  0.51100000000E-03 0. -1.
        -11    1    3    3    0    0  0.13033410609E+02 -0.17563369774E+01  0.18881844703E+01  0.13286073632E+02  0.51100000000E-03 0.  1.
         12    1    3    3    0    0  0.17100809763E+02  0.13203288809E+02 -0.46808065859E+01  0.22105982906E+02  0.00000000000E+00 0. -1.
</event>
<event>
 7    1  0.2387817E-009  0.4778728E+02  0.7816164E-02  0.1312668E+00
        -11   -1    0    0    0    0  0.00000000000E+00  0.00000000000E+00  0.45593999997E+02  0.45594000000E+02  0.51100000000E-03 0. -1.
         11   -1    0    0    0    0 -0.00000000000E+00 -0.00000000000E+00 -0.45593999997E+02  0.45594000000E+02  0.51100000000E-03 0.  1.
    9900012    2    1    2    0    0 -0.32081510838E+02  0.28094577398E+02  0.80680996674E+01  0.47787275938E+02  0.20000022312E+02 0.  0.
         12    1    1    2    0    0  0.32081510838E+02 -0.28094577398E+02 -0.80680996674E+01  0.43400724062E+02  0.00000000000E+00 0. -1.
         11    1    3    3    0    0 -0.84315852167E+01  0.61267177669E+01 -0.28676393705E+01  0.10809794433E+02  0.51100000000E-03 0. -1.
        -11    1    3    3    0    0 -0.40604378577E-01  0.77700557620E+01  0.21845915688E+01  0.80714221699E+01  0.51100000000E-03 0.  1.
        -12    1    3    3    0    0 -0.23609321243E+02  0.14197803869E+02  0.87511474690E+01  0.28906059335E+02  0.00000000000E+00 0.  1.
</event>
<event>
 7    1  0.2387817E-009  0.4778726E+02  0.7816164E-02  0.1312668E+00
        -11   -1    0    0    0    0  0.00000000000E+00  0.00000000000E+00  0.45593999997E+02  0.45594000000E+02  0.51100000000E-03 0. -1.
         11   -1    0    0    0    0 -0.00000000000E+00 -0.00000000000E+00 -0.45593999997E+02  0.45594000000E+02  0.51100000000E-03 0.  1.
    9900012    2    1    2    0    0 -0.28374065769E+01 -0.28451968767E+02 -0.32650551988E+02  0.47787263279E+02  0.19999964593E+02 0.  0.
         12    1    1    2    0    0  0.28374065769E+01  0.28451968767E+02  0.32650551988E+02  0.43400736721E+02  0.00000000000E+00 0. -1.
         11    1    3    3    0    0  0.23763783583E+01 -0.49714400164E+01 -0.42362822512E+01  0.69504300235E+01  0.51100000000E-03 0. -1.
        -11    1    3    3    0    0  0.54105994121E+01 -0.91470064538E+01 -0.60543479942E+01  0.12231003351E+02  0.51100000000E-03 0.  1.
        -12    1    3    3    0    0 -0.10624384347E+02 -0.14333522297E+02 -0.22359921743E+02  0.28605829905E+02  0.00000000000E+00 0.  1.
</event>
<event>
 7    1  0.2387817E-009  0.4778727E+02  0.7816164E-02  0.1312668E+00
        -11   -1    0    0    0    0  0.00000000000E+00  0.00000000000E+00  0.45593999997E+02  0.45594000000E+02  0.51100000000E-03 0.  1.
         11   -1    0    0    0    0 -0.00000000000E+00 -0.00000000000E+00 -0.45593999997E+02  0.45594000000E+02  0.51100000000E-03 0. -1.
    9900012    2    1    2    0    0 -0.18667080786E+02  0.20851788153E+02  0.33171766528E+02  0.47787273406E+02  0.20000010769E+02 0.  0.
         12    1    1    2    0    0  0.18667080786E+02 -0.20851788153E+02 -0.33171766528E+02  0.43400726594E+02  0.00000000000E+00 0. -1.
         11    1    3    3    0    0 -0.36001929505E+01  0.55286089495E+00 -0.17056455074E+01  0.40219735588E+01  0.51100000000E-03 0.  1.
        -11    1    3    3    0    0 -0.12142640626E+01  0.23635529116E+01  0.68404932770E+00  0.27438555581E+01  0.51100000000E-03 0. -1.
        -12    1    3    3    0    0 -0.13852623773E+02  0.17935374347E+02  0.34193362708E+02  0.41021444290E+02  0.00000000000E+00 0.  1.
</event>
<event>
 7    1  0.2387817E-009  0.4778727E+02  0.7816164E-02  0.1312668E+00
        -11   -1    0    0    0    0  0.00000000000E+00  0.00000000000E+00  0.45593999997E+02  0.45594000000E+02  0.51100000000E-03 0. -1.
         11   -1    0    0    0    0 -0.00000000000E+00 -0.00000000000E+00 -0.45593999997E+02  0.45594000000E+02  0.51100000000E-03 0.  1.
    9900012    2    1    2    0    0  0.10541973933E+02 -0.84173885181E+01 -0.41250915036E+02  0.47787266882E+02  0.19999981020E+02 0.  0.
         12    1    1    2    0    0 -0.10541973933E+02  0.84173885181E+01  0.41250915036E+02  0.43400733118E+02  0.00000000000E+00 0. -1.
         11    1    3    3    0    0  0.56455297969E+01  0.46027707486E+00 -0.14161193784E+02  0.15251992372E+02  0.51100000000E-03 0. -1.
        -11    1    3    3    0    0  0.23876257037E+01  0.20216036206E+01  0.10522184325E+00  0.31302890597E+01  0.51100000000E-03 0.  1.
        -12    1    3    3    0    0  0.25088184323E+01 -0.10899269214E+02 -0.27194943096E+02  0.29404985450E+02  0.00000000000E+00 0.  1.
</event>
<event>
 7    1  0.2387817E-009  0.4778727E+02  0.7816164E-02  0.1312668E+00
        -11   -1    0    0    0    0  0.00000000000E+00  0.00000000000E+00  0.45593999997E+02  0.45594000000E+02  0.51100000000E-03 0. -1.
         11   -1    0    0    0    0 -0.00000000000E+00 -0.00000000000E+00 -0.45593999997E+02  0.45594000000E+02  0.51100000000E-03 0.  1.
    9900012    2    1    2    0    0  0.11281417088E+02  0.21260035076E+02 -0.36115973538E+02  0.47787274113E+02  0.20000013989E+02 0.  0.
         12    1    1    2    0    0 -0.11281417088E+02 -0.21260035076E+02  0.36115973538E+02  0.43400725887E+02  0.00000000000E+00 0. -1.
         11    1    3    3    0    0  0.42456258531E+00  0.26004233360E+01 -0.19244073652E+01  0.32627900459E+01  0.51100000000E-03 0. -1.
        -11    1    3    3    0    0  0.74970647795E+01  0.11289013775E+02 -0.33799199817E+02  0.36414745926E+02  0.51100000000E-03 0.  1.
        -12    1    3    3    0    0  0.33597897230E+01  0.73705979651E+01 -0.39236635551E+00  0.81097381403E+01  0.00000000000E+00 0.  1.
</event>
<event>
 7    1  0.2387817E-009  0.4778727E+02  0.7816164E-02  0.1312668E+00
        -11   -1    0    0    0    0  0.00000000000E+00  0.00000000000E+00  0.45593999997E+02  0.45594000000E+02  0.51100000000E-03 0.  1.
         11   -1    0    0    0    0 -0.00000000000E+00 -0.00000000000E+00 -0.45593999997E+02  0.45594000000E+02  0.51100000000E-03 0. -1.
    9900012    2    1    2    0    0 -0.31420693326E+02 -0.26081007261E+02 -0.14701861228E+02  0.47787266915E+02  0.19999981171E+02 0.  0.
         12    1    1    2    0    0  0.31420693326E+02  0.26081007261E+02  0.14701861228E+02  0.43400733085E+02  0.00000000000E+00 0. -1.
         11    1    3    3    0    0 -0.77072590678E+01 -0.13030314879E+02 -0.94652685700E+01  0.17854474441E+02  0.51100000000E-03 0. -1.
        -11    1    3    3    0    0 -0.13579797941E+02 -0.11376352399E+02 -0.77848787586E+01  0.19350365463E+02  0.51100000000E-03 0.  1.
         12    1    3    3    0    0 -0.10133636317E+02 -0.16743399822E+01  0.25482861009E+01  0.10582427011E+02  0.00000000000E+00 0. -1.
</event>
<event>
 7    1  0.2387817E-009  0.4778727E+02  0.7816164E-02  0.1312668E+00
        -11   -1    0    0    0    0  0.00000000000E+00  0.00000000000E+00  0.45593999997E+02  0.45594000000E+02  0.51100000000E-03 0.  1.
         11   -1    0    0    0    0 -0.00000000000E+00 -0.00000000000E+00 -0.45593999997E+02  0.45594000000E+02  0.51100000000E-03 0. -1.
    9900012    2    1    2    0    0  0.60530608336E+01 -0.23461557661E+02  0.36007485986E+02  0.47787270970E+02  0.19999999659E+02 0.  0.
         12    1    1    2    0    0 -0.60530608336E+01  0.23461557661E+02 -0.36007485986E+02  0.43400729030E+02  0.00000000000E+00 0. -1.
         11    1    3    3    0    0 -0.69722859477E-01 -0.29874436570E+01  0.14633635845E+02  0.14935627847E+02  0.51100000000E-03 0. -1.
        -11    1    3    3    0    0 -0.23392472142E+01 -0.23161634285E+01 -0.33867139773E+00  0.33092883122E+01  0.51100000000E-03 0.  1.
        -12    1    3    3    0    0  0.84620309072E+01 -0.18157950576E+02  0.21712521539E+02  0.29542354811E+02  0.00000000000E+00 0.  1.
</event>
<event>
 7    1  0.2387817E-009  0.4778727E+02  0.7816164E-02  0.1312668E+00
        -11   -1    0    0    0    0  0.00000000000E+00  0.00000000000E+00  0.45593999997E+02  0.45594000000E+02  0.51100000000E-03 0. -1.
         11   -1    0    0    0    0 -0.00000000000E+00 -0.00000000000E+00 -0.45593999997E+02  0.45594000000E+02  0.51100000000E-03 0.  1.
    9900012    2    1    2    0    0  0.29925193332E+02  0.27661884221E+02  0.14930720567E+02  0.47787269001E+02  0.19999990682E+02 0.  0.
         12    1    1    2    0    0 -0.29925193332E+02 -0.27661884221E+02 -0.14930720567E+02  0.43400730999E+02  0.00000000000E+00 0. -1.
         11    1    3    3    0    0 -0.12587123634E+01  0.26529367364E+01 -0.11198304401E+01  0.31426820738E+01  0.51100000000E-03 0. -1.
        -11    1    3    3    0    0  0.12038192516E+02  0.13882329086E+02  0.21527390512E+01  0.18500579060E+02  0.51100000000E-03 0.  1.
         12    1    3    3    0    0  0.19145713180E+02  0.11126618399E+02  0.13897811956E+02  0.26144007866E+02  0.00000000000E+00 0. -1.
</event>
<event>
 7    1  0.2387817E-009  0.4778728E+02  0.7816164E-02  0.1312668E+00
        -11   -1    0    0    0    0  0.00000000000E+00  0.00000000000E+00  0.45593999997E+02  0.45594000000E+02  0.51100000000E-03 0.  1.
         11   -1    0    0    0    0 -0.00000000000E+00 -0.00000000000E+00 -0.45593999997E+02  0.45594000000E+02  0.51100000000E-03 0. -1.
    9900012    2    1    2    0    0 -0.31367253014E+01  0.10547621416E+02  0.41982505111E+02  0.47787284585E+02  0.20000061737E+02 0.  0.
         12    1    1    2    0    0  0.31367253014E+01 -0.10547621416E+02 -0.41982505111E+02  0.43400715415E+02  0.00000000000E+00 0. -1.
         11    1    3    3    0    0 -0.75733257633E+01  0.69175687580E+01  0.17275558775E+02  0.20091116243E+02  0.51100000000E-03 0. -1.
        -11    1    3    3    0    0 -0.27273237634E+01 -0.18602036175E+01  0.46581676497E+01  0.57093938840E+01  0.51100000000E-03 0.  1.
         12    1    3    3    0    0  0.71639242252E+01  0.54902562755E+01  0.20048778686E+02  0.21986774458E+02  0.00000000000E+00 0. -1.
</event>
<event>
 7    1  0.2387817E-009  0.4778721E+02  0.7816164E-02  0.1312668E+00
        -11   -1    0    0    0    0  0.00000000000E+00  0.00000000000E+00  0.45593999997E+02  0.45594000000E+02  0.51100000000E-03 0. -1.
         11   -1    0    0    0    0 -0.00000000000E+00 -0.00000000000E+00 -0.45593999997E+02  0.45594000000E+02  0.51100000000E-03 0.  1.
    9900012    2    1    2    0    0 -0.19759853694E+02 -0.37196058629E+02 -0.10470424794E+02  0.47787212093E+02  0.19999731214E+02 0.  0.
         12    1    1    2    0    0  0.19759853694E+02  0.37196058629E+02  0.10470424794E+02  0.43400787907E+02  0.00000000000E+00 0. -1.
         11    1    3    3    0    0 -0.33298502971E+01 -0.24482298860E+01  0.29960865349E+01  0.51047299010E+01  0.51100000000E-03 0. -1.
        -11    1    3    3    0    0 -0.11804306520E+02 -0.16928648413E+02 -0.14305332942E+01  0.20687368496E+02  0.51100000000E-03 0.  1.
         12    1    3    3    0    0 -0.46256968771E+01 -0.17819180330E+02 -0.12035978035E+02  0.21995113696E+02  0.00000000000E+00 0. -1.
</event>
<event>
 7    1  0.2387817E-009  0.4778726E+02  0.7816164E-02  0.1312668E+00
        -11   -1    0    0    0    0  0.00000000000E+00  0.00000000000E+00  0.45593999997E+02  0.45594000000E+02  0.51100000000E-03 0.  1.
         11   -1    0    0    0    0 -0.00000000000E+00 -0.00000000000E+00 -0.45593999997E+02  0.45594000000E+02  0.51100000000E-03 0. -1.
    9900012    2    1    2    0    0  0.92438254528E+01 -0.37103809727E+02  0.20530053066E+02  0.47787261710E+02  0.19999957439E+02 0.  0.
         12    1    1    2    0    0 -0.92438254528E+01  0.37103809727E+02 -0.20530053066E+02  0.43400738290E+02  0.00000000000E+00 0. -1.
         11    1    3    3    0    0  0.65205225970E+01 -0.14918861208E+02  0.46515522629E+01  0.16933002492E+02  0.51100000000E-03 0.  1.
        -11    1    3    3    0    0  0.61974036441E+01 -0.80298323552E+01  0.12115755656E+02  0.15801188403E+02  0.51100000000E-03 0. -1.
         12    1    3    3    0    0 -0.34741007883E+01 -0.14155116164E+02  0.37627451471E+01  0.15053070814E+02  0.00000000000E+00 0. -1.
</event>
<event>
 7    1  0.3693962E-009  0.4778727E+02  0.7816164E-02  0.1312668E+00
        -11   -1    0    0    0    0  0.00000000000E+00  0.00000000000E+00  0.45593999997E+02  0.45594000000E+02  0.51100000000E-03 0. -1.
         11   -1    0    0    0    0 -0.00000000000E+00 -0.00000000000E+00 -0.45593999997E+02  0.45594000000E+02  0.51100000000E-03 0.  1.
    9900012    2    1    2    0    0 -0.35656844145E+02 -0.76042448669E+01 -0.23545457388E+02  0.47787266850E+02  0.19999980875E+02 0.  0.
         12    1    1    2    0    0  0.35656844145E+02  0.76042448669E+01  0.23545457388E+02  0.43400733150E+02  0.00000000000E+00 0. -1.
         11    1    3    3    0    0 -0.12574270288E+02 -0.20545295789E+01 -0.42567758765E+01  0.13433298411E+02  0.51100000000E-03 0. -1.
        -11    1    3    3    0    0 -0.20742915755E+02 -0.10064016722E+02 -0.13790200263E+02  0.26864895499E+02  0.51100000000E-03 0.  1.
         12    1    3    3    0    0 -0.23396581012E+01  0.45143014337E+01 -0.54984812483E+01  0.74890729402E+01  0.00000000000E+00 0. -1.
</event>
<event>
 7    1  0.2387817E-009  0.4778724E+02  0.7816164E-02  0.1312668E+00
        -11   -1    0    0    0    0  0.00000000000E+00  0.00000000000E+00  0.45593999997E+02  0.45594000000E+02  0.51100000000E-03 0. -1.
         11   -1    0    0    0    0 -0.00000000000E+00 -0.00000000000E+00 -0.45593999997E+02  0.45594000000E+02  0.51100000000E-03 0.  1.
    9900012    2    1    2    0    0 -0.28374039627E+02  0.11452510981E+02 -0.30779538717E+02  0.47787238069E+02  0.19999849653E+02 0.  0.
         12    1    1    2    0    0  0.28374039627E+02 -0.11452510981E+02  0.30779538717E+02  0.43400761931E+02  0.00000000000E+00 0. -1.
         11    1    3    3    0    0 -0.19509462802E+02  0.12477341507E+02 -0.29340797316E+02  0.37378945642E+02  0.51100000000E-03 0. -1.
        -11    1    3    3    0    0 -0.61611844001E+01  0.63488625617E+00 -0.29892501839E+01  0.68774188976E+01  0.51100000000E-03 0.  1.
         12    1    3    3    0    0 -0.27033924250E+01 -0.16597167817E+01  0.15505087827E+01  0.35308735300E+01  0.00000000000E+00 0. -1.
</event>
<event>
 7    1  0.2387817E-009  0.4778727E+02  0.7816164E-02  0.1312668E+00
        -11   -1    0    0    0    0  0.00000000000E+00  0.00000000000E+00  0.45593999997E+02  0.45594000000E+02  0.51100000000E-03 0. -1.
         11   -1    0    0    0    0 -0.00000000000E+00 -0.00000000000E+00 -0.45593999997E+02  0.45594000000E+02  0.51100000000E-03 0.  1.
    9900012    2    1    2    0    0  0.25068299281E+02  0.31592787891E+02  0.16034318638E+02  0.47787271323E+02  0.20000001268E+02 0.  0.
         12    1    1    2    0    0 -0.25068299281E+02 -0.31592787891E+02 -0.16034318638E+02  0.43400728677E+02  0.00000000000E+00 0. -1.
         11    1    3    3    0    0  0.10034388046E+02  0.79842876335E+01  0.58792436127E+01  0.14106852880E+02  0.51100000000E-03 0. -1.
        -11    1    3    3    0    0  0.18075946144E+02  0.21461835399E+02  0.10457168330E+02  0.29944992527E+02  0.51100000000E-03 0.  1.
         12    1    3    3    0    0 -0.30420349094E+01  0.21466648581E+01 -0.30209330441E+00  0.37354259152E+01  0.00000000000E+00 0. -1.
</event>
<event>
 7    1  0.2387817E-009  0.4778727E+02  0.7816164E-02  0.1312668E+00
        -11   -1    0    0    0    0  0.00000000000E+00  0.00000000000E+00  0.45593999997E+02  0.45594000000E+02  0.51100000000E-03 0.  1.
         11   -1    0    0    0    0 -0.00000000000E+00 -0.00000000000E+00 -0.45593999997E+02  0.45594000000E+02  0.51100000000E-03 0. -1.
    9900012    2    1    2    0    0 -0.32296132540E+01  0.11122179159E+02  0.41826910496E+02  0.47787265989E+02  0.19999976952E+02 0.  0.
         12    1    1    2    0    0  0.32296132540E+01 -0.11122179159E+02 -0.41826910496E+02  0.43400734011E+02  0.00000000000E+00 0. -1.
         11    1    3    3    0    0 -0.20320233230E+01  0.74572396779E+01  0.11087157789E+02  0.13515347221E+02  0.51100000000E-03 0. -1.
        -11    1    3    3    0    0 -0.30263472830E+01  0.89773959893E+01  0.17773764098E+02  0.20140980788E+02  0.51100000000E-03 0.  1.
        -12    1    3    3    0    0  0.18287573520E+01 -0.53124565081E+01  0.12965988609E+02  0.14130937981E+02  0.00000000000E+00 0.  1.
</event>
<event>
 7    1  0.2387817E-009  0.4778727E+02  0.7816164E-02  0.1312668E+00
        -11   -1    0    0    0    0  0.00000000000E+00  0.00000000000E+00  0.45593999997E+02  0.45594000000E+02  0.51100000000E-03 0. -1.
         11   -1    0    0    0    0 -0.00000000000E+00 -0.00000000000E+00 -0.45593999997E+02  0.45594000000E+02  0.51100000000E-03 0.  1.
    9900012    2    1    2    0    0 -0.33433095679E+02  0.13548850687E+02 -0.24130486916E+02  0.47787266822E+02  0.19999980748E+02 0.  0.
         12    1    1    2    0    0  0.33433095679E+02 -0.13548850687E+02  0.24130486916E+02  0.43400733178E+02  0.00000000000E+00 0. -1.
         11    1    3    3    0    0 -0.10189108949E+02  0.68919198579E+01 -0.13618539611E+02  0.18351597257E+02  0.51100000000E-03 0. -1.
        -11    1    3    3    0    0 -0.21100536722E+02  0.87821022320E+01 -0.12272132112E+02  0.25941534196E+02  0.51100000000E-03 0.  1.
         12    1    3    3    0    0 -0.21434500070E+01 -0.21251714026E+01  0.17601848069E+01  0.34941353691E+01  0.00000000000E+00 0. -1.
</event>
<event>
 7    1  0.2387817E-009  0.4778728E+02  0.7816164E-02  0.1312668E+00
        -11   -1    0    0    0    0  0.00000000000E+00  0.00000000000E+00  0.45593999997E+02  0.45594000000E+02  0.51100000000E-03 0.  1.
         11   -1    0    0    0    0 -0.00000000000E+00 -0.00000000000E+00 -0.45593999997E+02  0.45594000000E+02  0.51100000000E-03 0. -1.
    9900012    2    1    2    0    0  0.30444336629E+02  0.11062307355E+02  0.28885816123E+02  0.47787278233E+02  0.20000032775E+02 0.  0.
         12    1    1    2    0    0 -0.30444336629E+02 -0.11062307355E+02 -0.28885816123E+02  0.43400721767E+02  0.00000000000E+00 0. -1.
         11    1    3    3    0    0  0.17921130116E+01  0.47900760084E+01  0.68259395987E+01  0.85293580579E+01  0.51100000000E-03 0. -1.
        -11    1    3    3    0    0  0.35003830102E+01 -0.38801231018E+01  0.48889813010E+01  0.71561284873E+01  0.51100000000E-03 0.  1.
        -12    1    3    3    0    0  0.25151840608E+02  0.10152354449E+02  0.17170895223E+02  0.32101791688E+02  0.00000000000E+00 0.  1.
</event>
<event>
 7    1  0.2387817E-009  0.4778727E+02  0.7816164E-02  0.1312668E+00
        -11   -1    0    0    0    0  0.00000000000E+00  0.00000000000E+00  0.45593999997E+02  0.45594000000E+02  0.51100000000E-03 0.  1.
         11   -1    0    0    0    0 -0.00000000000E+00 -0.00000000000E+00 -0.45593999997E+02  0.45594000000E+02  0.51100000000E-03 0. -1.
    9900012    2    1    2    0    0 -0.89199179266E+01  0.13562790176E+02  0.40250583244E+02  0.47787266543E+02  0.19999979475E+02 0.  0.
         12    1    1    2    0    0  0.89199179266E+01 -0.13562790176E+02 -0.40250583244E+02  0.43400733457E+02  0.00000000000E+00 0. -1.
         11    1    3    3    0    0 -0.12468129304E+01  0.57706393559E+01  0.75154603718E+01  0.95570375075E+01  0.51100000000E-03 0. -1.
        -11    1    3    3    0    0 -0.39930451738E+01  0.76751621758E+01  0.44924578808E+01  0.97485743705E+01  0.51100000000E-03 0.  1.
         12    1    3    3    0    0 -0.36800598224E+01  0.11698864378E+00  0.28242664991E+02  0.28481654665E+02  0.00000000000E+00 0. -1.
</event>
<event>
 7    1  0.2387817E-009  0.4778728E+02  0.7816164E-02  0.1312668E+00
        -11   -1    0    0    0    0  0.00000000000E+00  0.00000000000E+00  0.45593999997E+02  0.45594000000E+02  0.51100000000E-03 0.  1.
         11   -1    0    0    0    0 -0.00000000000E+00 -0.00000000000E+00 -0.45593999997E+02  0.45594000000E+02  0.51100000000E-03 0. -1.
    9900012    2    1    2    0    0  0.36668783257E+02  0.17668586429E+02  0.15061344877E+02  0.47787277408E+02  0.20000029016E+02 0.  0.
         12    1    1    2    0    0 -0.36668783257E+02 -0.17668586429E+02 -0.15061344877E+02  0.43400722592E+02  0.00000000000E+00 0. -1.
         11    1    3    3    0    0  0.74201458363E+01  0.34505545317E+01 -0.19437709512E+01  0.84108939228E+01  0.51100000000E-03 0.  1.
        -11    1    3    3    0    0 -0.67563921266E+00  0.33715120213E+01  0.35966432285E+00  0.34573024661E+01  0.51100000000E-03 0. -1.
        -12    1    3    3    0    0  0.29924276634E+02  0.10846519876E+02  0.16645451505E+02  0.35919081020E+02  0.00000000000E+00 0.  1.
</event>
<event>
 7    1  0.2387817E-009  0.4778727E+02  0.7816164E-02  0.1312668E+00
        -11   -1    0    0    0    0  0.00000000000E+00  0.00000000000E+00  0.45593999997E+02  0.45594000000E+02  0.51100000000E-03 0.  1.
         11   -1    0    0    0    0 -0.00000000000E+00 -0.00000000000E+00 -0.45593999997E+02  0.45594000000E+02  0.51100000000E-03 0. -1.
    9900012    2    1    2    0    0  0.37698017064E+02 -0.94089498555E+01  0.19337898175E+02  0.47787272659E+02  0.20000007360E+02 0.  0.
         12    1    1    2    0    0 -0.37698017064E+02  0.94089498555E+01 -0.19337898175E+02  0.43400727341E+02  0.00000000000E+00 0. -1.
         11    1    3    3    0    0  0.25246313058E+02 -0.15059722965E+02  0.11125321018E+02  0.31431581997E+02  0.51100000000E-03 0. -1.
        -11    1    3    3    0    0  0.28930229548E+01  0.71328235049E+00  0.35376642552E+01  0.46253023871E+01  0.51100000000E-03 0.  1.
         12    1    3    3    0    0  0.95586810512E+01  0.49374907595E+01  0.46749129025E+01  0.11730388275E+02  0.00000000000E+00 0. -1.
</event>
<event>
 7    1  0.2387817E-009  0.4778729E+02  0.7816164E-02  0.1312668E+00
        -11   -1    0    0    0    0  0.00000000000E+00  0.00000000000E+00  0.45593999997E+02  0.45594000000E+02  0.51100000000E-03 0.  1.
         11   -1    0    0    0    0 -0.00000000000E+00 -0.00000000000E+00 -0.45593999997E+02  0.45594000000E+02  0.51100000000E-03 0. -1.
    9900012    2    1    2    0    0 -0.35492267324E+02 -0.24867769056E+02 -0.23484070474E+01  0.47787285797E+02  0.20000067265E+02 0.  0.
         12    1    1    2    0    0  0.35492267324E+02  0.24867769056E+02  0.23484070474E+01  0.43400714203E+02  0.00000000000E+00 0. -1.
         11    1    3    3    0    0 -0.26079492738E+01 -0.39203882674E+01 -0.50649928446E+01  0.69155618975E+01  0.51100000000E-03 0.  1.
        -11    1    3    3    0    0 -0.23052505442E+01 -0.49618271614E+01  0.32473374303E+01  0.63623195062E+01  0.51100000000E-03 0. -1.
        -12    1    3    3    0    0 -0.30579067506E+02 -0.15985553627E+02 -0.53075163306E+00  0.34509404394E+02  0.00000000000E+00 0.  1.
</event>
<event>
 7    1  0.2387817E-009  0.4778728E+02  0.7816164E-02  0.1312668E+00
        -11   -1    0    0    0    0  0.00000000000E+00  0.00000000000E+00  0.45593999997E+02  0.45594000000E+02  0.51100000000E-03 0.  1.
         11   -1    0    0    0    0 -0.00000000000E+00 -0.00000000000E+00 -0.45593999997E+02  0.45594000000E+02  0.51100000000E-03 0. -1.
    9900012    2    1    2    0    0 -0.10194125503E+02 -0.12139251280E+02  0.40402238041E+02  0.47787280476E+02  0.20000043003E+02 0.  0.
         12    1    1    2    0    0  0.10194125503E+02  0.12139251280E+02 -0.40402238041E+02  0.43400719524E+02  0.00000000000E+00 0. -1.
         11    1    3    3    0    0 -0.43840123511E+01 -0.10275456316E+02  0.26589878560E+02  0.28841397485E+02  0.51100000000E-03 0. -1.
        -11    1    3    3    0    0 -0.54324747871E+01 -0.63903238571E+01  0.96420349045E+01  0.12779548453E+02  0.51100000000E-03 0.  1.
         12    1    3    3    0    0 -0.37763836519E+00  0.45265288930E+01  0.41703245766E+01  0.61663345375E+01  0.00000000000E+00 0. -1.
</event>
<event>
 7    1  0.2387817E-009  0.4778727E+02  0.7816164E-02  0.1312668E+00
        -11   -1    0    0    0    0  0.00000000000E+00  0.00000000000E+00  0.45593999997E+02  0.45594000000E+02  0.51100000000E-03 0. -1.
         11   -1    0    0    0    0 -0.00000000000E+00 -0.00000000000E+00 -0.45593999997E+02  0.45594000000E+02  0.51100000000E-03 0.  1.
    9900012    2    1    2    0    0 -0.42023556301E+02  0.31612683777E+01 -0.10375473233E+02  0.47787270205E+02  0.19999996171E+02 0.  0.
         12    1    1    2    0    0  0.42023556301E+02 -0.31612683777E+01  0.10375473233E+02  0.43400729795E+02  0.00000000000E+00 0. -1.
         11    1    3    3    0    0 -0.18518147697E+01 -0.33594886279E+01 -0.40449488239E+00  0.38573304439E+01  0.51100000000E-03 0. -1.
        -11    1    3    3    0    0 -0.11524668603E+02  0.11170534285E+01 -0.91642818170E+01  0.14766511309E+02  0.51100000000E-03 0.  1.
        -12    1    3    3    0    0 -0.28647072929E+02  0.54037035772E+01 -0.80669653379E+00  0.29163428451E+02  0.00000000000E+00 0.  1.
</event>
<event>
 7    1  0.2387817E-009  0.4778727E+02  0.7816164E-02  0.1312668E+00
        -11   -1    0    0    0    0  0.00000000000E+00  0.00000000000E+00  0.45593999997E+02  0.45594000000E+02  0.51100000000E-03 0. -1.
         11   -1    0    0    0    0 -0.00000000000E+00 -0.00000000000E+00 -0.45593999997E+02  0.45594000000E+02  0.51100000000E-03 0.  1.
    9900012    2    1    2    0    0 -0.95336082281E+01 -0.26604065679E+02 -0.32938690840E+02  0.47787270159E+02  0.19999995961E+02 0.  0.
         12    1    1    2    0    0  0.95336082281E+01  0.26604065679E+02  0.32938690840E+02  0.43400729841E+02  0.00000000000E+00 0. -1.
         11    1    3    3    0    0  0.12274104474E+01 -0.16746350066E+02 -0.89034130439E+01  0.19005723902E+02  0.51100000000E-03 0. -1.
        -11    1    3    3    0    0 -0.43508705507E+01 -0.80498097180E+01 -0.14660160149E+02  0.17281487404E+02  0.51100000000E-03 0.  1.
         12    1    3    3    0    0 -0.64101481248E+01 -0.18079058946E+01 -0.93751176474E+01  0.11500058852E+02  0.00000000000E+00 0. -1.
</event>
<event>
 7    1  0.2387817E-009  0.4778728E+02  0.7816164E-02  0.1312668E+00
        -11   -1    0    0    0    0  0.00000000000E+00  0.00000000000E+00  0.45593999997E+02  0.45594000000E+02  0.51100000000E-03 0. -1.
         11   -1    0    0    0    0 -0.00000000000E+00 -0.00000000000E+00 -0.45593999997E+02  0.45594000000E+02  0.51100000000E-03 0.  1.
    9900012    2    1    2    0    0 -0.71759152461E+01 -0.17910676624E+01 -0.42765885876E+02  0.47787277912E+02  0.20000031314E+02 0.  0.
         12    1    1    2    0    0  0.71759152461E+01  0.17910676624E+01  0.42765885876E+02  0.43400722088E+02  0.00000000000E+00 0. -1.
         11    1    3    3    0    0  0.57282959795E+00  0.52099202572E+01 -0.24947406261E+01  0.58047509755E+01  0.51100000000E-03 0. -1.
        -11    1    3    3    0    0  0.58351370036E+00 -0.18625053508E+01 -0.92403310674E+01  0.94442116090E+01  0.51100000000E-03 0.  1.
        -12    1    3    3    0    0 -0.83322585444E+01 -0.51384825688E+01 -0.31030814182E+02  0.32538315328E+02  0.00000000000E+00 0.  1.
</event>
<event>
 7    1  0.2387817E-009  0.4778727E+02  0.7816164E-02  0.1312668E+00
        -11   -1    0    0    0    0  0.00000000000E+00  0.00000000000E+00  0.45593999997E+02  0.45594000000E+02  0.51100000000E-03 0. -1.
         11   -1    0    0    0    0 -0.00000000000E+00 -0.00000000000E+00 -0.45593999997E+02  0.45594000000E+02  0.51100000000E-03 0.  1.
    9900012    2    1    2    0    0  0.10977516253E+02 -0.40610429791E+02  0.10672885104E+02  0.47787270198E+02  0.19999996142E+02 0.  0.
         12    1    1    2    0    0 -0.10977516253E+02  0.40610429791E+02 -0.10672885104E+02  0.43400729802E+02  0.00000000000E+00 0. -1.
         11    1    3    3    0    0  0.31696891730E+01 -0.79601889331E+00  0.57201635526E+01  0.65879319109E+01  0.51100000000E-03 0. -1.
        -11    1    3    3    0    0  0.53964205977E+00 -0.17479690171E+00 -0.12327039955E+00  0.58048545378E+00  0.51100000000E-03 0.  1.
        -12    1    3    3    0    0  0.72681850205E+01 -0.39639613996E+02  0.50759919504E+01  0.40618852834E+02  0.00000000000E+00 0.  1.
</event>
<event>
 7    1  0.2387817E-009  0.4778727E+02  0.7816164E-02  0.1312668E+00
        -11   -1    0    0    0    0  0.00000000000E+00  0.00000000000E+00  0.45593999997E+02  0.45594000000E+02  0.51100000000E-03 0. -1.
         11   -1    0    0    0    0 -0.00000000000E+00 -0.00000000000E+00 -0.45593999997E+02  0.45594000000E+02  0.51100000000E-03 0.  1.
    9900012    2    1    2    0    0  0.36025382365E+02 -0.75864073188E+01 -0.22983511089E+02  0.47787268065E+02  0.19999986415E+02 0.  0.
         12    1    1    2    0    0 -0.36025382365E+02  0.75864073188E+01  0.22983511089E+02  0.43400731935E+02  0.00000000000E+00 0. -1.
         11    1    3    3    0    0  0.51058246697E+01 -0.45482797770E+01 -0.17209248474E+01  0.70510904887E+01  0.51100000000E-03 0. -1.
        -11    1    3    3    0    0  0.26409079575E+02 -0.40077506366E+01 -0.99247965446E+01  0.28495668721E+02  0.51100000000E-03 0.  1.
         12    1    3    3    0    0  0.45104781200E+01  0.96962309479E+00 -0.11337789697E+02  0.12240508855E+02  0.00000000000E+00 0. -1.
</event>
<event>
 7    1  0.2387817E-009  0.4778727E+02  0.7816164E-02  0.1312668E+00
        -11   -1    0    0    0    0  0.00000000000E+00  0.00000000000E+00  0.45593999997E+02  0.45594000000E+02  0.51100000000E-03 0.  1.
         11   -1    0    0    0    0 -0.00000000000E+00 -0.00000000000E+00 -0.45593999997E+02  0.45594000000E+02  0.51100000000E-03 0. -1.
    9900012    2    1    2    0    0 -0.36936865271E+02  0.59872242613E+01  0.21987377833E+02  0.47787266661E+02  0.19999980015E+02 0.  0.
         12    1    1    2    0    0  0.36936865271E+02 -0.59872242613E+01 -0.21987377833E+02  0.43400733339E+02  0.00000000000E+00 0. -1.
         11    1    3    3    0    0 -0.27775577683E+02 -0.21575945901E+01  0.99494013629E+01  0.29582571182E+02  0.51100000000E-03 0.  1.
        -11    1    3    3    0    0  0.58863613706E+00  0.60456297926E+00 -0.16555151448E+00  0.85988165628E+00  0.51100000000E-03 0. -1.
        -12    1    3    3    0    0 -0.97499237251E+01  0.75402558721E+01  0.12203527985E+02  0.17344813822E+02  0.00000000000E+00 0.  1.
</event>
<event>
 7    1  0.2387817E-009  0.4778727E+02  0.7816164E-02  0.1312668E+00
        -11   -1    0    0    0    0  0.00000000000E+00  0.00000000000E+00  0.45593999997E+02  0.45594000000E+02  0.51100000000E-03 0.  1.
         11   -1    0    0    0    0 -0.00000000000E+00 -0.00000000000E+00 -0.45593999997E+02  0.45594000000E+02  0.51100000000E-03 0. -1.
    9900012    2    1    2    0    0  0.89940575895E+01  0.69392891472E+01  0.41887665271E+02  0.47787270656E+02  0.19999998228E+02 0.  0.
         12    1    1    2    0    0 -0.89940575895E+01 -0.69392891472E+01 -0.41887665271E+02  0.43400729344E+02  0.00000000000E+00 0. -1.
         11    1    3    3    0    0  0.35739169803E+01  0.57355434593E+01  0.24668380539E+01  0.71940691962E+01  0.51100000000E-03 0. -1.
        -11    1    3    3    0    0 -0.10984534856E+00 -0.38952486454E+00 -0.27052738109E+00  0.48680688752E+00  0.51100000000E-03 0.  1.
        -12    1    3    3    0    0  0.55299859577E+01  0.15932705525E+01  0.39691354598E+02  0.40106394572E+02  0.00000000000E+00 0.  1.
</event>
<event>
 7    1  0.2387817E-009  0.4778728E+02  0.7816164E-02  0.1312668E+00
        -11   -1    0    0    0    0  0.00000000000E+00  0.00000000000E+00  0.45593999997E+02  0.45594000000E+02  0.51100000000E-03 0. -1.
         11   -1    0    0    0    0 -0.00000000000E+00 -0.00000000000E+00 -0.45593999997E+02  0.45594000000E+02  0.51100000000E-03 0.  1.
    9900012    2    1    2    0    0 -0.39102354939E+02 -0.91832798581E+01 -0.16440679712E+02  0.47787277193E+02  0.20000028035E+02 0.  0.
         12    1    1    2    0    0  0.39102354939E+02  0.91832798581E+01  0.16440679712E+02  0.43400722807E+02  0.00000000000E+00 0. -1.
         11    1    3    3    0    0 -0.14055069392E+02 -0.34139597669E+01 -0.12487905718E+02  0.19108843146E+02  0.51100000000E-03 0. -1.
        -11    1    3    3    0    0 -0.67925156053E+00 -0.19630508021E+01 -0.34292979782E+01  0.40093685312E+01  0.51100000000E-03 0.  1.
        -12    1    3    3    0    0 -0.24368033987E+02 -0.38062692891E+01 -0.52347601577E+00  0.24669065516E+02  0.00000000000E+00 0.  1.
</event>
<event>
 7    1  0.2387817E-009  0.4778727E+02  0.7816164E-02  0.1312668E+00
        -11   -1    0    0    0    0  0.00000000000E+00  0.00000000000E+00  0.45593999997E+02  0.45594000000E+02  0.51100000000E-03 0.  1.
         11   -1    0    0    0    0 -0.00000000000E+00 -0.00000000000E+00 -0.45593999997E+02  0.45594000000E+02  0.51100000000E-03 0. -1.
    9900012    2    1    2    0    0 -0.16100270449E+02 -0.14153271988E+02  0.37737112730E+02  0.47787268512E+02  0.19999988455E+02 0.  0.
         12    1    1    2    0    0  0.16100270449E+02  0.14153271988E+02 -0.37737112730E+02  0.43400731488E+02  0.00000000000E+00 0. -1.
         11    1    3    3    0    0 -0.98820279384E+01  0.80362492530E+00  0.84473676954E+01  0.13025295023E+02  0.51100000000E-03 0. -1.
        -11    1    3    3    0    0 -0.28693896843E+01 -0.15460144766E+01  0.12325906399E+01  0.34846574966E+01  0.51100000000E-03 0.  1.
        -12    1    3    3    0    0 -0.33488528261E+01 -0.13410882437E+02  0.28057154394E+02  0.31277315993E+02  0.00000000000E+00 0.  1.
</event>
<event>
 7    1  0.2387817E-009  0.4778727E+02  0.7816164E-02  0.1312668E+00
        -11   -1    0    0    0    0  0.00000000000E+00  0.00000000000E+00  0.45593999997E+02  0.45594000000E+02  0.51100000000E-03 0.  1.
         11   -1    0    0    0    0 -0.00000000000E+00 -0.00000000000E+00 -0.45593999997E+02  0.45594000000E+02  0.51100000000E-03 0. -1.
    9900012    2    1    2    0    0  0.23551793384E+02  0.21931830275E+02  0.29119256154E+02  0.47787271552E+02  0.20000002316E+02 0.  0.
         12    1    1    2    0    0 -0.23551793384E+02 -0.21931830275E+02 -0.29119256154E+02  0.43400728448E+02  0.00000000000E+00 0. -1.
         11    1    3    3    0    0 -0.17627526551E+01  0.77216115218E+01  0.67049226078E+01  0.10377213925E+02  0.51100000000E-03 0. -1.
        -11    1    3    3    0    0  0.12466162848E+02  0.91587444383E+01  0.78666809521E+01  0.17354321805E+02  0.51100000000E-03 0.  1.
        -12    1    3    3    0    0  0.12848383191E+02  0.50514743150E+01  0.14547652594E+02  0.20055735822E+02  0.00000000000E+00 0.  1.
</event>
<event>
 7    1  0.2387817E-009  0.4778727E+02  0.7816164E-02  0.1312668E+00
        -11   -1    0    0    0    0  0.00000000000E+00  0.00000000000E+00  0.45593999997E+02  0.45594000000E+02  0.51100000000E-03 0.  1.
         11   -1    0    0    0    0 -0.00000000000E+00 -0.00000000000E+00 -0.45593999997E+02  0.45594000000E+02  0.51100000000E-03 0. -1.
    9900012    2    1    2    0    0 -0.35239443322E+02  0.22265795456E+02  0.12084661325E+02  0.47787273598E+02  0.20000011643E+02 0.  0.
         12    1    1    2    0    0  0.35239443322E+02 -0.22265795456E+02 -0.12084661325E+02  0.43400726402E+02  0.00000000000E+00 0. -1.
         11    1    3    3    0    0 -0.23157199880E+02  0.78586734125E+01  0.24876821849E+01  0.24580545498E+02  0.51100000000E-03 0. -1.
        -11    1    3    3    0    0 -0.79038765088E+01  0.33148463550E+01  0.70149478636E+01  0.11075602196E+02  0.51100000000E-03 0.  1.
        -12    1    3    3    0    0 -0.41783669328E+01  0.11092275688E+02  0.25820312761E+01  0.12131125903E+02  0.00000000000E+00 0.  1.
</event>
<event>
 7    1  0.2387817E-009  0.4778727E+02  0.7816164E-02  0.1312668E+00
        -11   -1    0    0    0    0  0.00000000000E+00  0.00000000000E+00  0.45593999997E+02  0.45594000000E+02  0.51100000000E-03 0.  1.
         11   -1    0    0    0    0 -0.00000000000E+00 -0.00000000000E+00 -0.45593999997E+02  0.45594000000E+02  0.51100000000E-03 0. -1.
    9900012    2    1    2    0    0  0.22780962541E+02  0.22778177857E+02  0.29082743945E+02  0.47787266871E+02  0.19999980970E+02 0.  0.
         12    1    1    2    0    0 -0.22780962541E+02 -0.22778177857E+02 -0.29082743945E+02  0.43400733129E+02  0.00000000000E+00 0. -1.
         11    1    3    3    0    0 -0.14326922367E+01  0.58742942816E+01  0.17512659820E+01  0.62949879391E+01  0.51100000000E-03 0. -1.
        -11    1    3    3    0    0  0.49711363338E+01  0.92207555418E+01  0.84248953433E+01  0.13442968088E+02  0.51100000000E-03 0.  1.
        -12    1    3    3    0    0  0.19242518443E+02  0.76831280334E+01  0.18906582620E+02  0.28049310844E+02  0.00000000000E+00 0.  1.
</event>
<event>
 7    1  0.2387817E-009  0.4778728E+02  0.7816164E-02  0.1312668E+00
        -11   -1    0    0    0    0  0.00000000000E+00  0.00000000000E+00  0.45593999997E+02  0.45594000000E+02  0.51100000000E-03 0.  1.
         11   -1    0    0    0    0 -0.00000000000E+00 -0.00000000000E+00 -0.45593999997E+02  0.45594000000E+02  0.51100000000E-03 0. -1.
    9900012    2    1    2    0    0 -0.12314399187E+01  0.33017550796E+02  0.28141567534E+02  0.47787275028E+02  0.20000018164E+02 0.  0.
         12    1    1    2    0    0  0.12314399187E+01 -0.33017550796E+02 -0.28141567534E+02  0.43400724972E+02  0.00000000000E+00 0. -1.
         11    1    3    3    0    0  0.10488479215E+01  0.15169130167E+01 -0.24442836262E-01  0.18443711058E+01  0.51100000000E-03 0. -1.
        -11    1    3    3    0    0 -0.10061654681E+02  0.15704865781E+02  0.13458891131E+02  0.23000466405E+02  0.51100000000E-03 0.  1.
         12    1    3    3    0    0  0.77813668407E+01  0.15795771998E+02  0.14707119239E+02  0.22942437517E+02  0.00000000000E+00 0. -1.
</event>
<event>
 7    1  0.2387817E-009  0.4778727E+02  0.7816164E-02  0.1312668E+00
        -11   -1    0    0    0    0  0.00000000000E+00  0.00000000000E+00  0.45593999997E+02  0.45594000000E+02  0.51100000000E-03 0. -1.
         11   -1    0    0    0    0 -0.00000000000E+00 -0.00000000000E+00 -0.45593999997E+02  0.45594000000E+02  0.51100000000E-03 0.  1.
    9900012    2    1    2    0    0  0.42543775914E+01  0.19386559814E+02 -0.38596436321E+02  0.47787270435E+02  0.19999997222E+02 0.  0.
         12    1    1    2    0    0 -0.42543775914E+01 -0.19386559814E+02  0.38596436321E+02  0.43400729565E+02  0.00000000000E+00 0. -1.
         11    1    3    3    0    0  0.88783166481E+01  0.82452417478E+01 -0.17798660300E+02  0.21531391658E+02  0.51100000000E-03 0. -1.
        -11    1    3    3    0    0  0.75857633320E+00  0.17418656724E+01 -0.12414796003E+02  0.12559326978E+02  0.51100000000E-03 0.  1.
        -12    1    3    3    0    0 -0.53825153898E+01  0.93994523937E+01 -0.83829800170E+01  0.13696551799E+02  0.00000000000E+00 0.  1.
</event>
<event>
 7    1  0.2387817E-009  0.4778727E+02  0.7816164E-02  0.1312668E+00
        -11   -1    0    0    0    0  0.00000000000E+00  0.00000000000E+00  0.45593999997E+02  0.45594000000E+02  0.51100000000E-03 0.  1.
         11   -1    0    0    0    0 -0.00000000000E+00 -0.00000000000E+00 -0.45593999997E+02  0.45594000000E+02  0.51100000000E-03 0. -1.
    9900012    2    1    2    0    0  0.11395284706E+02 -0.40612138588E+02  0.10218870549E+02  0.47787266947E+02  0.19999981318E+02 0.  0.
         12    1    1    2    0    0 -0.11395284706E+02  0.40612138588E+02 -0.10218870549E+02  0.43400733053E+02  0.00000000000E+00 0. -1.
         11    1    3    3    0    0  0.25093438022E+01 -0.50025928755E+01  0.91636349826E+01  0.10737548517E+02  0.51100000000E-03 0. -1.
        -11    1    3    3    0    0  0.23845042988E+00  0.18242087120E-01 -0.27365020757E+00  0.36342272697E+00  0.51100000000E-03 0.  1.
        -12    1    3    3    0    0  0.86474904743E+01 -0.35627787800E+02  0.13288857739E+01  0.36686295703E+02  0.00000000000E+00 0.  1.
</event>
<event>
 7    1  0.2387817E-009  0.4778730E+02  0.7816164E-02  0.1312668E+00
        -11   -1    0    0    0    0  0.00000000000E+00  0.00000000000E+00  0.45593999997E+02  0.45594000000E+02  0.51100000000E-03 0. -1.
         11   -1    0    0    0    0 -0.00000000000E+00 -0.00000000000E+00 -0.45593999997E+02  0.45594000000E+02  0.51100000000E-03 0.  1.
    9900012    2    1    2    0    0 -0.43329156581E+02 -0.13198530537E+01 -0.21126655965E+01  0.47787295190E+02  0.20000110087E+02 0.  0.
         12    1    1    2    0    0  0.43329156581E+02  0.13198530537E+01  0.21126655965E+01  0.43400704810E+02  0.00000000000E+00 0. -1.
         11    1    3    3    0    0 -0.11450666525E+02  0.31379952116E+01  0.23032179972E+01  0.12094196592E+02  0.51100000000E-03 0. -1.
        -11    1    3    3    0    0 -0.18297564151E+02  0.41047731595E+01  0.91952666678E+00  0.18774864742E+02  0.51100000000E-03 0.  1.
         12    1    3    3    0    0 -0.13580925906E+02 -0.85626214248E+01 -0.53354102605E+01  0.16918233855E+02  0.00000000000E+00 0. -1.
</event>
<event>
 7    1  0.2595106E-009  0.4778727E+02  0.7816164E-02  0.1312668E+00
        -11   -1    0    0    0    0  0.00000000000E+00  0.00000000000E+00  0.45593999997E+02  0.45594000000E+02  0.51100000000E-03 0. -1.
         11   -1    0    0    0    0 -0.00000000000E+00 -0.00000000000E+00 -0.45593999997E+02  0.45594000000E+02  0.51100000000E-03 0.  1.
    9900012    2    1    2    0    0  0.20976522231E+02 -0.31214364524E+02 -0.21662693400E+02  0.47787270480E+02  0.19999997428E+02 0.  0.
         12    1    1    2    0    0 -0.20976522231E+02  0.31214364524E+02  0.21662693400E+02  0.43400729520E+02  0.00000000000E+00 0. -1.
         11    1    3    3    0    0  0.42429686098E+01 -0.11037418632E+02 -0.27191740131E+01  0.12133478489E+02  0.51100000000E-03 0.  1.
        -11    1    3    3    0    0  0.16821810603E+02 -0.20452890313E+02 -0.12640470712E+02  0.29344088574E+02  0.51100000000E-03 0. -1.
         12    1    3    3    0    0 -0.88256982335E-01  0.27594442158E+00 -0.63030486743E+01  0.63097034169E+01  0.00000000000E+00 0. -1.
</event>
<event>
 7    1  0.2387817E-009  0.4778727E+02  0.7816164E-02  0.1312668E+00
        -11   -1    0    0    0    0  0.00000000000E+00  0.00000000000E+00  0.45593999997E+02  0.45594000000E+02  0.51100000000E-03 0. -1.
         11   -1    0    0    0    0 -0.00000000000E+00 -0.00000000000E+00 -0.45593999997E+02  0.45594000000E+02  0.51100000000E-03 0.  1.
    9900012    2    1    2    0    0  0.40668402116E+02 -0.24941730967E+01 -0.14949366779E+02  0.47787269624E+02  0.19999993521E+02 0.  0.
         12    1    1    2    0    0 -0.40668402116E+02  0.24941730967E+01  0.14949366779E+02  0.43400730376E+02  0.00000000000E+00 0. -1.
         11    1    3    3    0    0  0.16629431056E+01 -0.99010120270E+00 -0.26034926295E+01  0.32440490590E+01  0.51100000000E-03 0. -1.
        -11    1    3    3    0    0  0.39893494698E+02 -0.39179286846E+00 -0.14073387429E+02  0.42304901074E+02  0.51100000000E-03 0.  1.
         12    1    3    3    0    0 -0.88803568776E+00 -0.11122790256E+01  0.17275132789E+01  0.22383194907E+01  0.00000000000E+00 0. -1.
</event>
<event>
 7    1  0.2387817E-009  0.4778727E+02  0.7816164E-02  0.1312668E+00
        -11   -1    0    0    0    0  0.00000000000E+00  0.00000000000E+00  0.45593999997E+02  0.45594000000E+02  0.51100000000E-03 0.  1.
         11   -1    0    0    0    0 -0.00000000000E+00 -0.00000000000E+00 -0.45593999997E+02  0.45594000000E+02  0.51100000000E-03 0. -1.
    9900012    2    1    2    0    0 -0.33749897307E+02 -0.69415971734E+01  0.26389045263E+02  0.47787273630E+02  0.20000011789E+02 0.  0.
         12    1    1    2    0    0  0.33749897307E+02  0.69415971734E+01 -0.26389045263E+02  0.43400726370E+02  0.00000000000E+00 0. -1.
         11    1    3    3    0    0 -0.13513700229E+01 -0.64051375082E+00 -0.10034475507E+01  0.18009347717E+01  0.51100000000E-03 0. -1.
        -11    1    3    3    0    0 -0.22094583133E+02 -0.11134717791E+02  0.23018124706E+02  0.33793292372E+02  0.51100000000E-03 0.  1.
        -12    1    3    3    0    0 -0.10303944151E+02  0.48336343688E+01  0.43743681076E+01  0.12193046486E+02  0.00000000000E+00 0.  1.
</event>
<event>
 7    1  0.2387817E-009  0.4778727E+02  0.7816164E-02  0.1312668E+00
        -11   -1    0    0    0    0  0.00000000000E+00  0.00000000000E+00  0.45593999997E+02  0.45594000000E+02  0.51100000000E-03 0.  1.
         11   -1    0    0    0    0 -0.00000000000E+00 -0.00000000000E+00 -0.45593999997E+02  0.45594000000E+02  0.51100000000E-03 0. -1.
    9900012    2    1    2    0    0  0.17466554178E+01 -0.42675497813E+02  0.77054795352E+01  0.47787270356E+02  0.19999996862E+02 0.  0.
         12    1    1    2    0    0 -0.17466554178E+01  0.42675497813E+02 -0.77054795352E+01  0.43400729644E+02  0.00000000000E+00 0. -1.
         11    1    3    3    0    0  0.68054826113E+00  0.10709979545E+01  0.72687547401E+00  0.14623716252E+01  0.51100000000E-03 0. -1.
        -11    1    3    3    0    0 -0.40347684041E+01 -0.38902402925E+01  0.53586336517E+00  0.56303175235E+01  0.51100000000E-03 0.  1.
        -12    1    3    3    0    0  0.51008755608E+01 -0.39856255475E+02  0.64427406961E+01  0.40694581208E+02  0.00000000000E+00 0.  1.
</event>
<event>
 7    1  0.2387817E-009  0.4778727E+02  0.7816164E-02  0.1312668E+00
        -11   -1    0    0    0    0  0.00000000000E+00  0.00000000000E+00  0.45593999997E+02  0.45594000000E+02  0.51100000000E-03 0. -1.
         11   -1    0    0    0    0 -0.00000000000E+00 -0.00000000000E+00 -0.45593999997E+02  0.45594000000E+02  0.51100000000E-03 0.  1.
    9900012    2    1    2    0    0 -0.72831617353E+01 -0.29388310524E+02 -0.31095110952E+02  0.47787272294E+02  0.20000005696E+02 0.  0.
         12    1    1    2    0    0  0.72831617353E+01  0.29388310524E+02  0.31095110952E+02  0.43400727706E+02  0.00000000000E+00 0. -1.
         11    1    3    3    0    0 -0.24140703124E+01 -0.10930443133E+02 -0.17299765890E+02  0.20605441579E+02  0.51100000000E-03 0. -1.
        -11    1    3    3    0    0 -0.10370156689E+01 -0.93746266693E+01 -0.14500569158E+02  0.17298136688E+02  0.51100000000E-03 0.  1.
         12    1    3    3    0    0 -0.38320757539E+01 -0.90832407218E+01  0.70522409658E+00  0.98836940270E+01  0.00000000000E+00 0. -1.
</event>
<event>
 7    1  0.2387817E-009  0.4778728E+02  0.7816164E-02  0.1312668E+00
        -11   -1    0    0    0    0  0.00000000000E+00  0.00000000000E+00  0.45593999997E+02  0.45594000000E+02  0.51100000000E-03 0.  1.
         11   -1    0    0    0    0 -0.00000000000E+00 -0.00000000000E+00 -0.45593999997E+02  0.45594000000E+02  0.51100000000E-03 0. -1.
    9900012    2    1    2    0    0 -0.28379084012E+02  0.95702236355E+00  0.32822770331E+02  0.47787279345E+02  0.20000037845E+02 0.  0.
         12    1    1    2    0    0  0.28379084012E+02 -0.95702236355E+00 -0.32822770331E+02  0.43400720655E+02  0.00000000000E+00 0. -1.
         11    1    3    3    0    0 -0.11259892937E+02  0.96124485428E+01  0.17649618981E+02  0.23036783768E+02  0.51100000000E-03 0. -1.
        -11    1    3    3    0    0 -0.34085830265E+01 -0.13992763727E+00  0.24900654149E+01  0.42235582184E+01  0.51100000000E-03 0.  1.
        -12    1    3    3    0    0 -0.13710608049E+02 -0.85154985419E+01  0.12683085935E+02  0.20526937358E+02  0.00000000000E+00 0.  1.
</event>
<event>
 7    1  0.2387817E-009  0.4778727E+02  0.7816164E-02  0.1312668E+00
        -11   -1    0    0    0    0  0.00000000000E+00  0.00000000000E+00  0.45593999997E+02  0.45594000000E+02  0.51100000000E-03 0. -1.
         11   -1    0    0    0    0 -0.00000000000E+00 -0.00000000000E+00 -0.45593999997E+02  0.45594000000E+02  0.51100000000E-03 0.  1.
    9900012    2    1    2    0    0  0.15457518820E+02  0.17204216829E+02 -0.36724697665E+02  0.47787269783E+02  0.19999994248E+02 0.  0.
         12    1    1    2    0    0 -0.15457518820E+02 -0.17204216829E+02  0.36724697665E+02  0.43400730217E+02  0.00000000000E+00 0. -1.
         11    1    3    3    0    0  0.12025735263E+02  0.35971488259E+01 -0.82683427713E+01  0.15030744517E+02  0.51100000000E-03 0. -1.
        -11    1    3    3    0    0  0.31337011512E+00  0.20686768581E+01 -0.23126273473E+00  0.21050195928E+01  0.51100000000E-03 0.  1.
        -12    1    3    3    0    0  0.31184134414E+01  0.11538391145E+02 -0.28225092159E+02  0.30651505673E+02  0.00000000000E+00 0.  1.
</event>
<event>
 7    1  0.2387817E-009  0.4778727E+02  0.7816164E-02  0.1312668E+00
        -11   -1    0    0    0    0  0.00000000000E+00  0.00000000000E+00  0.45593999997E+02  0.45594000000E+02  0.51100000000E-03 0.  1.
         11   -1    0    0    0    0 -0.00000000000E+00 -0.00000000000E+00 -0.45593999997E+02  0.45594000000E+02  0.51100000000E-03 0. -1.
    9900012    2    1    2    0    0 -0.77366633657E+01 -0.25400694143E-01  0.42705582189E+02  0.47787270106E+02  0.19999995719E+02 0.  0.
         12    1    1    2    0    0  0.77366633657E+01  0.25400694143E-01 -0.42705582189E+02  0.43400729894E+02  0.00000000000E+00 0. -1.
         11    1    3    3    0    0 -0.40270949143E+01  0.46664275081E+01  0.13962560266E+02  0.15262572804E+02  0.51100000000E-03 0. -1.
        -11    1    3    3    0    0  0.25454755172E+01 -0.38856224557E+00  0.22633343895E+02  0.22779347716E+02  0.51100000000E-03 0.  1.
         12    1    3    3    0    0 -0.62550439687E+01 -0.43032659567E+01  0.61096780279E+01  0.97453495857E+01  0.00000000000E+00 0. -1.
</event>
<event>
 7    1  0.2387817E-009  0.4778727E+02  0.7816164E-02  0.1312668E+00
        -11   -1    0    0    0    0  0.00000000000E+00  0.00000000000E+00  0.45593999997E+02  0.45594000000E+02  0.51100000000E-03 0.  1.
         11   -1    0    0    0    0 -0.00000000000E+00 -0.00000000000E+00 -0.45593999997E+02  0.45594000000E+02  0.51100000000E-03 0. -1.
    9900012    2    1    2    0    0  0.11857715359E+02  0.20050570296E+02  0.36619565714E+02  0.47787269871E+02  0.19999994648E+02 0.  0.
         12    1    1    2    0    0 -0.11857715359E+02 -0.20050570296E+02 -0.36619565714E+02  0.43400730129E+02  0.00000000000E+00 0. -1.
         11    1    3    3    0    0 -0.26384815214E+01  0.86029059737E+00  0.57488799660E+00  0.28341102873E+01  0.51100000000E-03 0. -1.
        -11    1    3    3    0    0  0.63779248410E+01  0.90124674801E+01  0.68657674903E+01  0.13001586782E+02  0.51100000000E-03 0.  1.
         12    1    3    3    0    0  0.81182720394E+01  0.10177812218E+02  0.29178910227E+02  0.31951572801E+02  0.00000000000E+00 0. -1.
</event>
<event>
 7    1  0.2387817E-009  0.4778727E+02  0.7816164E-02  0.1312668E+00
        -11   -1    0    0    0    0  0.00000000000E+00  0.00000000000E+00  0.45593999997E+02  0.45594000000E+02  0.51100000000E-03 0.  1.
         11   -1    0    0    0    0 -0.00000000000E+00 -0.00000000000E+00 -0.45593999997E+02  0.45594000000E+02  0.51100000000E-03 0. -1.
    9900012    2    1    2    0    0  0.53890108772E+01 -0.27636503729E+02  0.33027351691E+02  0.47787265717E+02  0.19999975710E+02 0.  0.
         12    1    1    2    0    0 -0.53890108772E+01  0.27636503729E+02 -0.33027351691E+02  0.43400734283E+02  0.00000000000E+00 0. -1.
         11    1    3    3    0    0  0.47293814011E+01 -0.46452000428E+01  0.15969245558E+01  0.68187315663E+01  0.51100000000E-03 0. -1.
        -11    1    3    3    0    0  0.56961263714E+01 -0.18522838857E+02  0.21212425650E+02  0.28731662277E+02  0.51100000000E-03 0.  1.
        -12    1    3    3    0    0 -0.50364968953E+01 -0.44684648284E+01  0.10218001485E+02  0.12236871874E+02  0.00000000000E+00 0.  1.
</event>
<event>
 7    1  0.2387817E-009  0.4778731E+02  0.7816164E-02  0.1312668E+00
        -11   -1    0    0    0    0  0.00000000000E+00  0.00000000000E+00  0.45593999997E+02  0.45594000000E+02  0.51100000000E-03 0.  1.
         11   -1    0    0    0    0 -0.00000000000E+00 -0.00000000000E+00 -0.45593999997E+02  0.45594000000E+02  0.51100000000E-03 0. -1.
    9900012    2    1    2    0    0  0.42558879423E+02  0.81115238232E+01 -0.25621297450E+01  0.47787313999E+02  0.20000195847E+02 0.  0.
         12    1    1    2    0    0 -0.42558879423E+02 -0.81115238232E+01  0.25621297450E+01  0.43400686001E+02  0.00000000000E+00 0. -1.
         11    1    3    3    0    0  0.17122347366E+02  0.37773138626E+01 -0.67702945694E+01  0.18795738032E+02  0.51100000000E-03 0. -1.
        -11    1    3    3    0    0  0.77632511443E+01  0.13040970123E+01 -0.44895613119E+01  0.90622788735E+01  0.51100000000E-03 0.  1.
        -12    1    3    3    0    0  0.17673280913E+02  0.30301129484E+01  0.86977261363E+01  0.19929297094E+02  0.00000000000E+00 0.  1.
</event>
<event>
 7    1  0.2387817E-009  0.4778727E+02  0.7816164E-02  0.1312668E+00
        -11   -1    0    0    0    0  0.00000000000E+00  0.00000000000E+00  0.45593999997E+02  0.45594000000E+02  0.51100000000E-03 0.  1.
         11   -1    0    0    0    0 -0.00000000000E+00 -0.00000000000E+00 -0.45593999997E+02  0.45594000000E+02  0.51100000000E-03 0. -1.
    9900012    2    1    2    0    0 -0.23160063740E+02  0.29093399471E+02  0.22378766105E+02  0.47787267084E+02  0.19999981945E+02 0.  0.
         12    1    1    2    0    0  0.23160063740E+02 -0.29093399471E+02 -0.22378766105E+02  0.43400732916E+02  0.00000000000E+00 0. -1.
         11    1    3    3    0    0 -0.12150082252E+01  0.61407057412E+00  0.39987360623E+01  0.42241233427E+01  0.51100000000E-03 0. -1.
        -11    1    3    3    0    0 -0.75146365492E+01  0.54175476169E+01 -0.21152721479E+01  0.95023134641E+01  0.51100000000E-03 0.  1.
        -12    1    3    3    0    0 -0.14430418966E+02  0.23061781280E+02  0.20495302190E+02  0.34060830278E+02  0.00000000000E+00 0.  1.
</event>
<event>
 7    1  0.2387817E-009  0.4778728E+02  0.7816164E-02  0.1312668E+00
        -11   -1    0    0    0    0  0.00000000000E+00  0.00000000000E+00  0.45593999997E+02  0.45594000000E+02  0.51100000000E-03 0.  1.
         11   -1    0    0    0    0 -0.00000000000E+00 -0.00000000000E+00 -0.45593999997E+02  0.45594000000E+02  0.51100000000E-03 0. -1.
    9900012    2    1    2    0    0  0.32396067158E+02 -0.23076373517E+02  0.17366596692E+02  0.47787275782E+02  0.20000021600E+02 0.  0.
         12    1    1    2    0    0 -0.32396067158E+02  0.23076373517E+02 -0.17366596692E+02  0.43400724218E+02  0.00000000000E+00 0. -1.
         11    1    3    3    0    0  0.68710945602E+01 -0.38387815507E+01 -0.15033396968E+01  0.80130028550E+01  0.51100000000E-03 0. -1.
        -11    1    3    3    0    0  0.15909367148E+02 -0.16207264858E+02  0.61220537976E+01  0.23521542045E+02  0.51100000000E-03 0.  1.
         12    1    3    3    0    0  0.96156054495E+01 -0.30303271085E+01  0.12747882591E+02  0.16252730882E+02  0.00000000000E+00 0. -1.
</event>
<event>
 7    1  0.2387817E-009  0.4778727E+02  0.7816164E-02  0.1312668E+00
        -11   -1    0    0    0    0  0.00000000000E+00  0.00000000000E+00  0.45593999997E+02  0.45594000000E+02  0.51100000000E-03 0.  1.
         11   -1    0    0    0    0 -0.00000000000E+00 -0.00000000000E+00 -0.45593999997E+02  0.45594000000E+02  0.51100000000E-03 0. -1.
    9900012    2    1    2    0    0  0.27709310593E+02 -0.24092046589E+02  0.23138510467E+02  0.47787271100E+02  0.20000000255E+02 0.  0.
         12    1    1    2    0    0 -0.27709310593E+02  0.24092046589E+02 -0.23138510467E+02  0.43400728900E+02  0.00000000000E+00 0. -1.
         11    1    3    3    0    0  0.25183157974E+02 -0.15694041888E+02  0.11877946547E+02  0.31962165302E+02  0.51100000000E-03 0. -1.
        -11    1    3    3    0    0  0.49045324698E+01 -0.57702833559E+01  0.78031607155E+01  0.10873818380E+02  0.51100000000E-03 0.  1.
        -12    1    3    3    0    0 -0.23783798510E+01 -0.26277213448E+01  0.34574032044E+01  0.49512874184E+01  0.00000000000E+00 0.  1.
</event>
<event>
 7    1  0.2387817E-009  0.4778727E+02  0.7816164E-02  0.1312668E+00
        -11   -1    0    0    0    0  0.00000000000E+00  0.00000000000E+00  0.45593999997E+02  0.45594000000E+02  0.51100000000E-03 0. -1.
         11   -1    0    0    0    0 -0.00000000000E+00 -0.00000000000E+00 -0.45593999997E+02  0.45594000000E+02  0.51100000000E-03 0.  1.
    9900012    2    1    2    0    0 -0.42433473362E+02 -0.60186836913E+01  0.68409875717E+01  0.47787270445E+02  0.19999997269E+02 0.  0.
         12    1    1    2    0    0  0.42433473362E+02  0.60186836913E+01 -0.68409875717E+01  0.43400729555E+02  0.00000000000E+00 0. -1.
         11    1    3    3    0    0 -0.20094805375E+02  0.26318549776E+01  0.29320217922E+01  0.20477417214E+02  0.51100000000E-03 0. -1.
        -11    1    3    3    0    0 -0.14259399717E+02  0.11634105302E+01  0.16964833870E+01  0.14407014281E+02  0.51100000000E-03 0.  1.
         12    1    3    3    0    0 -0.80792682693E+01 -0.98139491990E+01  0.22124823925E+01  0.12902838951E+02  0.00000000000E+00 0. -1.
</event>
<event>
 7    1  0.2387817E-009  0.4778727E+02  0.7816164E-02  0.1312668E+00
        -11   -1    0    0    0    0  0.00000000000E+00  0.00000000000E+00  0.45593999997E+02  0.45594000000E+02  0.51100000000E-03 0. -1.
         11   -1    0    0    0    0 -0.00000000000E+00 -0.00000000000E+00 -0.45593999997E+02  0.45594000000E+02  0.51100000000E-03 0.  1.
    9900012    2    1    2    0    0 -0.40031638340E+02 -0.16558965273E+02  0.26252364295E+01  0.47787271142E+02  0.20000000444E+02 0.  0.
         12    1    1    2    0    0  0.40031638340E+02  0.16558965273E+02 -0.26252364295E+01  0.43400728858E+02  0.00000000000E+00 0. -1.
         11    1    3    3    0    0 -0.10472318542E+02  0.15133556921E+01  0.13953129221E+01  0.10672703477E+02  0.51100000000E-03 0. -1.
        -11    1    3    3    0    0 -0.11741271211E+02 -0.27179645190E+00 -0.12296760543E+01  0.11808616618E+02  0.51100000000E-03 0.  1.
         12    1    3    3    0    0 -0.17818048587E+02 -0.17800524514E+02  0.24595995617E+01  0.25305951048E+02  0.00000000000E+00 0. -1.
</event>
<event>
 7    1  0.2387817E-009  0.4778727E+02  0.7816164E-02  0.1312668E+00
        -11   -1    0    0    0    0  0.00000000000E+00  0.00000000000E+00  0.45593999997E+02  0.45594000000E+02  0.51100000000E-03 0.  1.
         11   -1    0    0    0    0 -0.00000000000E+00 -0.00000000000E+00 -0.45593999997E+02  0.45594000000E+02  0.51100000000E-03 0. -1.
    9900012    2    1    2    0    0 -0.11602829243E+02 -0.21177924356E+02  0.36062349882E+02  0.47787271832E+02  0.20000003590E+02 0.  0.
         12    1    1    2    0    0  0.11602829243E+02  0.21177924356E+02 -0.36062349882E+02  0.43400728168E+02  0.00000000000E+00 0. -1.
         11    1    3    3    0    0 -0.41093805530E+01 -0.60911745834E+01  0.68303380778E+00  0.73794276051E+01  0.51100000000E-03 0. -1.
        -11    1    3    3    0    0 -0.48923592042E+01 -0.11500299897E+02  0.14865188577E+02  0.19420759717E+02  0.51100000000E-03 0.  1.
         12    1    3    3    0    0 -0.26010894860E+01 -0.35864498763E+01  0.20514127497E+02  0.20987084510E+02  0.00000000000E+00 0. -1.
</event>
<event>
 7    1  0.2387817E-009  0.4778727E+02  0.7816164E-02  0.1312668E+00
        -11   -1    0    0    0    0  0.00000000000E+00  0.00000000000E+00  0.45593999997E+02  0.45594000000E+02  0.51100000000E-03 0.  1.
         11   -1    0    0    0    0 -0.00000000000E+00 -0.00000000000E+00 -0.45593999997E+02  0.45594000000E+02  0.51100000000E-03 0. -1.
    9900012    2    1    2    0    0 -0.15604958334E+02 -0.31014730612E+02  0.26042179474E+02  0.47787270152E+02  0.19999995933E+02 0.  0.
         12    1    1    2    0    0  0.15604958334E+02  0.31014730612E+02 -0.26042179474E+02  0.43400729848E+02  0.00000000000E+00 0. -1.
         11    1    3    3    0    0 -0.66251424017E+01 -0.19727652034E+01  0.16056904098E+01  0.70966581109E+01  0.51100000000E-03 0. -1.
        -11    1    3    3    0    0 -0.61024700914E+01 -0.12292789777E+02  0.43884588417E+01  0.14408726279E+02  0.51100000000E-03 0.  1.
        -12    1    3    3    0    0 -0.28773458410E+01 -0.16749175631E+02  0.20048030222E+02  0.26281885762E+02  0.00000000000E+00 0.  1.
</event>
<event>
 7    1  0.2387817E-009  0.4778727E+02  0.7816164E-02  0.1312668E+00
        -11   -1    0    0    0    0  0.00000000000E+00  0.00000000000E+00  0.45593999997E+02  0.45594000000E+02  0.51100000000E-03 0.  1.
         11   -1    0    0    0    0 -0.00000000000E+00 -0.00000000000E+00 -0.45593999997E+02  0.45594000000E+02  0.51100000000E-03 0. -1.
    9900012    2    1    2    0    0 -0.13484977016E+01  0.34952918368E+02  0.25692381347E+02  0.47787269502E+02  0.19999992968E+02 0.  0.
         12    1    1    2    0    0  0.13484977016E+01 -0.34952918368E+02 -0.25692381347E+02  0.43400730498E+02  0.00000000000E+00 0. -1.
         11    1    3    3    0    0 -0.19216404276E+01  0.60274283445E+01 -0.57700636034E+00  0.63526003323E+01  0.51100000000E-03 0. -1.
        -11    1    3    3    0    0  0.50508428287E+01  0.21053337210E+02  0.12639128203E+02  0.25069933844E+02  0.51100000000E-03 0.  1.
        -12    1    3    3    0    0 -0.44777001028E+01  0.78721528133E+01  0.13630259504E+02  0.16364735326E+02  0.00000000000E+00 0.  1.
</event>
<event>
 7    1  0.4641976E-009  0.4778733E+02  0.7816164E-02  0.1312668E+00
        -11   -1    0    0    0    0  0.00000000000E+00  0.00000000000E+00  0.45593999997E+02  0.45594000000E+02  0.51100000000E-03 0. -1.
         11   -1    0    0    0    0 -0.00000000000E+00 -0.00000000000E+00 -0.45593999997E+02  0.45594000000E+02  0.51100000000E-03 0.  1.
    9900012    2    1    2    0    0  0.21780893623E+02  0.26724695685E+02 -0.26362883971E+02  0.47787327911E+02  0.20000259277E+02 0.  0.
         12    1    1    2    0    0 -0.21780893623E+02 -0.26724695685E+02  0.26362883971E+02  0.43400672089E+02  0.00000000000E+00 0. -1.
         11    1    3    3    0    0  0.12634845663E+02  0.10350335451E+02 -0.54361758894E+01  0.17213970415E+02  0.51100000000E-03 0. -1.
        -11    1    3    3    0    0  0.88389984618E+01  0.17659029906E+02 -0.15832845069E+02  0.25311029498E+02  0.51100000000E-03 0.  1.
         12    1    3    3    0    0  0.30704949744E+00 -0.12846696720E+01 -0.50938630131E+01  0.52623279978E+01  0.00000000000E+00 0. -1.
</event>
<event>
 7    1  0.2387817E-009  0.4778727E+02  0.7816164E-02  0.1312668E+00
        -11   -1    0    0    0    0  0.00000000000E+00  0.00000000000E+00  0.45593999997E+02  0.45594000000E+02  0.51100000000E-03 0.  1.
         11   -1    0    0    0    0 -0.00000000000E+00 -0.00000000000E+00 -0.45593999997E+02  0.45594000000E+02  0.51100000000E-03 0. -1.
    9900012    2    1    2    0    0 -0.23553667823E+02 -0.26135388566E+01  0.36359561546E+02  0.47787267644E+02  0.19999984495E+02 0.  0.
         12    1    1    2    0    0  0.23553667823E+02  0.26135388566E+01 -0.36359561546E+02  0.43400732356E+02  0.00000000000E+00 0. -1.
         11    1    3    3    0    0  0.66469106758E+00 -0.10765227950E+01  0.81326650553E+01  0.82304894573E+01  0.51100000000E-03 0. -1.
        -11    1    3    3    0    0  0.24985818319E+00 -0.17518770373E+01  0.68183045640E+01  0.70442018465E+01  0.51100000000E-03 0.  1.
        -12    1    3    3    0    0 -0.24468217074E+02  0.21486097572E+00  0.21408591926E+02  0.32512576340E+02  0.00000000000E+00 0.  1.
</event>
<event>
 7    1  0.2387817E-009  0.4778730E+02  0.7816164E-02  0.1312668E+00
        -11   -1    0    0    0    0  0.00000000000E+00  0.00000000000E+00  0.45593999997E+02  0.45594000000E+02  0.51100000000E-03 0.  1.
         11   -1    0    0    0    0 -0.00000000000E+00 -0.00000000000E+00 -0.45593999997E+02  0.45594000000E+02  0.51100000000E-03 0. -1.
    9900012    2    1    2    0    0  0.67475975947E+01 -0.14499512410E+02  0.40346684935E+02  0.47787298178E+02  0.20000123711E+02 0.  0.
         12    1    1    2    0    0 -0.67475975947E+01  0.14499512410E+02 -0.40346684935E+02  0.43400701822E+02  0.00000000000E+00 0. -1.
         11    1    3    3    0    0  0.10913835176E+02 -0.76784246960E+01  0.22111255214E+02  0.25825909693E+02  0.51100000000E-03 0. -1.
        -11    1    3    3    0    0  0.11407603030E+01 -0.47287009637E+01  0.30540940961E+01  0.57436432585E+01  0.51100000000E-03 0.  1.
        -12    1    3    3    0    0 -0.53069978846E+01 -0.20923867499E+01  0.15181335625E+02  0.16217745226E+02  0.00000000000E+00 0.  1.
</event>
<event>
 7    1  0.2387817E-009  0.4778727E+02  0.7816164E-02  0.1312668E+00
        -11   -1    0    0    0    0  0.00000000000E+00  0.00000000000E+00  0.45593999997E+02  0.45594000000E+02  0.51100000000E-03 0.  1.
         11   -1    0    0    0    0 -0.00000000000E+00 -0.00000000000E+00 -0.45593999997E+02  0.45594000000E+02  0.51100000000E-03 0. -1.
    9900012    2    1    2    0    0 -0.37971493493E+02 -0.20459952674E+02 -0.48144939491E+01  0.47787270358E+02  0.19999996870E+02 0.  0.
         12    1    1    2    0    0  0.37971493493E+02  0.20459952674E+02  0.48144939491E+01  0.43400729642E+02  0.00000000000E+00 0. -1.
         11    1    3    3    0    0 -0.80704644958E+01 -0.90370562274E+01 -0.20287049094E+01  0.12284804691E+02  0.51100000000E-03 0. -1.
        -11    1    3    3    0    0 -0.16494443881E+02 -0.78317294066E+01 -0.89276508614E+01  0.20324999745E+02  0.51100000000E-03 0.  1.
        -12    1    3    3    0    0 -0.13406585116E+02 -0.35911670397E+01  0.61418618218E+01  0.15177465922E+02  0.00000000000E+00 0.  1.
</event>
<event>
 7    1  0.2387817E-009  0.4778728E+02  0.7816164E-02  0.1312668E+00
        -11   -1    0    0    0    0  0.00000000000E+00  0.00000000000E+00  0.45593999997E+02  0.45594000000E+02  0.51100000000E-03 0.  1.
         11   -1    0    0    0    0 -0.00000000000E+00 -0.00000000000E+00 -0.45593999997E+02  0.45594000000E+02  0.51100000000E-03 0. -1.
    9900012    2    1    2    0    0 -0.96872050212E+01 -0.30744481905E+02  0.29061275991E+02  0.47787275686E+02  0.20000021162E+02 0.  0.
         12    1    1    2    0    0  0.96872050212E+01  0.30744481905E+02 -0.29061275991E+02  0.43400724314E+02  0.00000000000E+00 0. -1.
         11    1    3    3    0    0 -0.49085270372E+00 -0.16303071103E+01  0.76468256564E+01  0.78340781545E+01  0.51100000000E-03 0.  1.
        -11    1    3    3    0    0 -0.85997444674E+00 -0.10916650768E+02  0.15692091205E+02  0.19135165186E+02  0.51100000000E-03 0. -1.
         12    1    3    3    0    0 -0.83363778708E+01 -0.18197524027E+02  0.57223591295E+01  0.20818032345E+02  0.00000000000E+00 0. -1.
</event>
<event>
 7    1  0.2387817E-009  0.4778727E+02  0.7816164E-02  0.1312668E+00
        -11   -1    0    0    0    0  0.00000000000E+00  0.00000000000E+00  0.45593999997E+02  0.45594000000E+02  0.51100000000E-03 0.  1.
         11   -1    0    0    0    0 -0.00000000000E+00 -0.00000000000E+00 -0.45593999997E+02  0.45594000000E+02  0.51100000000E-03 0. -1.
    9900012    2    1    2    0    0  0.88810799624E+01  0.17048549925E+02  0.38911396877E+02  0.47787269099E+02  0.19999991128E+02 0.  0.
         12    1    1    2    0    0 -0.88810799624E+01 -0.17048549925E+02 -0.38911396877E+02  0.43400730901E+02  0.00000000000E+00 0. -1.
         11    1    3    3    0    0  0.42728726771E+01  0.13355306572E+02  0.27167204541E+02  0.30572514738E+02  0.51100000000E-03 0. -1.
        -11    1    3    3    0    0  0.56910673374E+01  0.22755507366E+01  0.13428619573E+02  0.14761239869E+02  0.51100000000E-03 0.  1.
         12    1    3    3    0    0 -0.10828600521E+01  0.14176926161E+01 -0.16844272363E+01  0.24535144916E+01  0.00000000000E+00 0. -1.
</event>
<event>
 7    1  0.2387817E-009  0.4778727E+02  0.7816164E-02  0.1312668E+00
        -11   -1    0    0    0    0  0.00000000000E+00  0.00000000000E+00  0.45593999997E+02  0.45594000000E+02  0.51100000000E-03 0.  1.
         11   -1    0    0    0    0 -0.00000000000E+00 -0.00000000000E+00 -0.45593999997E+02  0.45594000000E+02  0.51100000000E-03 0. -1.
    9900012    2    1    2    0    0  0.15928307294E+02  0.29035008796E+02  0.28051398729E+02  0.47787266369E+02  0.19999978684E+02 0.  0.
         12    1    1    2    0    0 -0.15928307294E+02 -0.29035008796E+02 -0.28051398729E+02  0.43400733631E+02  0.00000000000E+00 0. -1.
         11    1    3    3    0    0  0.66026239141E+01  0.16207710554E+01  0.26064789791E+01  0.72811588566E+01  0.51100000000E-03 0. -1.
        -11    1    3    3    0    0 -0.14904292006E+00 -0.26273584948E+00 -0.10162608694E+01  0.10602029685E+01  0.51100000000E-03 0.  1.
        -12    1    3    3    0    0  0.94747263004E+01  0.27676973590E+02  0.26461180619E+02  0.39445904544E+02  0.00000000000E+00 0.  1.
</event>
<event>
 7    1  0.2387817E-009  0.4778727E+02  0.7816164E-02  0.1312668E+00
        -11   -1    0    0    0    0  0.00000000000E+00  0.00000000000E+00  0.45593999997E+02  0.45594000000E+02  0.51100000000E-03 0. -1.
         11   -1    0    0    0    0 -0.00000000000E+00 -0.00000000000E+00 -0.45593999997E+02  0.45594000000E+02  0.51100000000E-03 0.  1.
    9900012    2    1    2    0    0 -0.43472831203E+01 -0.31511394835E+02  0.29525524438E+02  0.47787268804E+02  0.19999989785E+02 0.  0.
         12    1    1    2    0    0  0.43472831203E+01  0.31511394835E+02 -0.29525524438E+02  0.43400731196E+02  0.00000000000E+00 0. -1.
         11    1    3    3    0    0  0.75049219826E+00 -0.47911029411E+00  0.42530264060E+00  0.98674607210E+00  0.51100000000E-03 0. -1.
        -11    1    3    3    0    0  0.70938937912E+01 -0.14054036958E+02  0.12009191500E+02  0.19800504152E+02  0.51100000000E-03 0.  1.
        -12    1    3    3    0    0 -0.12191669110E+02 -0.16978247583E+02  0.17091030298E+02  0.27000018580E+02  0.00000000000E+00 0.  1.
</event>
<event>
 7    1  0.2387817E-009  0.4778725E+02  0.7816164E-02  0.1312668E+00
        -11   -1    0    0    0    0  0.00000000000E+00  0.00000000000E+00  0.45593999997E+02  0.45594000000E+02  0.51100000000E-03 0.  1.
         11   -1    0    0    0    0 -0.00000000000E+00 -0.00000000000E+00 -0.45593999997E+02  0.45594000000E+02  0.51100000000E-03 0. -1.
    9900012    2    1    2    0    0  0.85435650647E+01  0.18695200193E+02  0.38224627129E+02  0.47787249621E+02  0.19999902322E+02 0.  0.
         12    1    1    2    0    0 -0.85435650647E+01 -0.18695200193E+02 -0.38224627129E+02  0.43400750379E+02  0.00000000000E+00 0. -1.
         11    1    3    3    0    0  0.13713711798E+01 -0.21058353350E+01  0.13131422425E+02  0.13369721632E+02  0.51100000000E-03 0.  1.
        -11    1    3    3    0    0 -0.19319183833E+01  0.36508035616E+01  0.40475157678E+01  0.57829974439E+01  0.51100000000E-03 0. -1.
        -12    1    3    3    0    0  0.91041122682E+01  0.17150231966E+02  0.21045688937E+02  0.28634530545E+02  0.00000000000E+00 0.  1.
</event>
<event>
 7    1  0.2387817E-009  0.4778727E+02  0.7816164E-02  0.1312668E+00
        -11   -1    0    0    0    0  0.00000000000E+00  0.00000000000E+00  0.45593999997E+02  0.45594000000E+02  0.51100000000E-03 0.  1.
         11   -1    0    0    0    0 -0.00000000000E+00 -0.00000000000E+00 -0.45593999997E+02  0.45594000000E+02  0.51100000000E-03 0. -1.
    9900012    2    1    2    0    0 -0.43064237902E+01 -0.32416714999E+02  0.28534797264E+02  0.47787270143E+02  0.19999995892E+02 0.  0.
         12    1    1    2    0    0  0.43064237902E+01  0.32416714999E+02 -0.28534797264E+02  0.43400729857E+02  0.00000000000E+00 0. -1.
         11    1    3    3    0    0  0.39642535752E+01 -0.35802021749E+01  0.20071180535E+01  0.57062840065E+01  0.51100000000E-03 0. -1.
        -11    1    3    3    0    0 -0.34969823672E+01 -0.30570458079E+01 -0.18949987358E+00  0.46486906986E+01  0.51100000000E-03 0.  1.
        -12    1    3    3    0    0 -0.47736949982E+01 -0.25779467016E+02  0.26717179084E+02  0.37432295438E+02  0.00000000000E+00 0.  1.
</event>
<event>
 7    1  0.2387817E-009  0.4778728E+02  0.7816164E-02  0.1312668E+00
        -11   -1    0    0    0    0  0.00000000000E+00  0.00000000000E+00  0.45593999997E+02  0.45594000000E+02  0.51100000000E-03 0.  1.
         11   -1    0    0    0    0 -0.00000000000E+00 -0.00000000000E+00 -0.45593999997E+02  0.45594000000E+02  0.51100000000E-03 0. -1.
    9900012    2    1    2    0    0 -0.32144515007E+02  0.28332758961E+01  0.29022837353E+02  0.47787281281E+02  0.20000046671E+02 0.  0.
         12    1    1    2    0    0  0.32144515007E+02 -0.28332758961E+01 -0.29022837353E+02  0.43400718719E+02  0.00000000000E+00 0. -1.
         11    1    3    3    0    0 -0.60185667645E+01  0.42474856505E+01  0.36877879365E+01  0.82379645772E+01  0.51100000000E-03 0. -1.
        -11    1    3    3    0    0 -0.20514016240E+02  0.56494645833E+01  0.18994051263E+02  0.28522189537E+02  0.51100000000E-03 0.  1.
         12    1    3    3    0    0 -0.56119320027E+01 -0.70636743377E+01  0.63409981541E+01  0.11027127166E+02  0.00000000000E+00 0. -1.
</event>
<event>
 7    1  0.2387817E-009  0.4778727E+02  0.7816164E-02  0.1312668E+00
        -11   -1    0    0    0    0  0.00000000000E+00  0.00000000000E+00  0.45593999997E+02  0.45594000000E+02  0.51100000000E-03 0. -1.
         11   -1    0    0    0    0 -0.00000000000E+00 -0.00000000000E+00 -0.45593999997E+02  0.45594000000E+02  0.51100000000E-03 0.  1.
    9900012    2    1    2    0    0 -0.20834864660E+01  0.31175225096E+02 -0.30122881842E+02  0.47787267448E+02  0.19999983601E+02 0.  0.
         12    1    1    2    0    0  0.20834864660E+01 -0.31175225096E+02  0.30122881842E+02  0.43400732552E+02  0.00000000000E+00 0. -1.
         11    1    3    3    0    0 -0.38812857193E+01  0.70547709015E+01 -0.40659303002E+01  0.90203082417E+01  0.51100000000E-03 0. -1.
        -11    1    3    3    0    0 -0.63391563513E+01  0.15776098999E+02 -0.14363995440E+02  0.22257460954E+02  0.51100000000E-03 0.  1.
        -12    1    3    3    0    0  0.81369556046E+01  0.83443551959E+01 -0.11692956101E+02  0.16509498252E+02  0.00000000000E+00 0.  1.
</event>
<event>
 7    1  0.2387817E-009  0.4778727E+02  0.7816164E-02  0.1312668E+00
        -11   -1    0    0    0    0  0.00000000000E+00  0.00000000000E+00  0.45593999997E+02  0.45594000000E+02  0.51100000000E-03 0.  1.
         11   -1    0    0    0    0 -0.00000000000E+00 -0.00000000000E+00 -0.45593999997E+02  0.45594000000E+02  0.51100000000E-03 0. -1.
    9900012    2    1    2    0    0 -0.14950324265E+02  0.37209967258E+02  0.16599081784E+02  0.47787269878E+02  0.19999994684E+02 0.  0.
         12    1    1    2    0    0  0.14950324265E+02 -0.37209967258E+02 -0.16599081784E+02  0.43400730122E+02  0.00000000000E+00 0. -1.
         11    1    3    3    0    0 -0.41450459849E+01  0.28287745605E+01  0.10762440407E+01  0.51324139766E+01  0.51100000000E-03 0. -1.
        -11    1    3    3    0    0  0.25777358251E+01  0.12799057696E+02  0.10531604340E+02  0.16774244845E+02  0.51100000000E-03 0.  1.
        -12    1    3    3    0    0 -0.13383014105E+02  0.21582135002E+02  0.49912334039E+01  0.25880611057E+02  0.00000000000E+00 0.  1.
</event>
<event>
 7    1  0.2387817E-009  0.4778727E+02  0.7816164E-02  0.1312668E+00
        -11   -1    0    0    0    0  0.00000000000E+00  0.00000000000E+00  0.45593999997E+02  0.45594000000E+02  0.51100000000E-03 0.  1.
         11   -1    0    0    0    0 -0.00000000000E+00 -0.00000000000E+00 -0.45593999997E+02  0.45594000000E+02  0.51100000000E-03 0. -1.
    9900012    2    1    2    0    0  0.12438607276E+02  0.20812179281E+02  0.35996628144E+02  0.47787274256E+02  0.20000014643E+02 0.  0.
         12    1    1    2    0    0 -0.12438607276E+02 -0.20812179281E+02 -0.35996628144E+02  0.43400725744E+02  0.00000000000E+00 0. -1.
         11    1    3    3    0    0 -0.20965667486E+01 -0.19385674544E+01  0.10949665006E+01  0.30582000924E+01  0.51100000000E-03 0. -1.
        -11    1    3    3    0    0  0.55554383347E+01  0.41694766799E+01  0.12278671356E+02  0.14107203883E+02  0.51100000000E-03 0.  1.
         12    1    3    3    0    0  0.89797356894E+01  0.18581270056E+02  0.22622990287E+02  0.30621870280E+02  0.00000000000E+00 0. -1.
</event>
<event>
 7    1  0.2387817E-009  0.4778727E+02  0.7816164E-02  0.1312668E+00
        -11   -1    0    0    0    0  0.00000000000E+00  0.00000000000E+00  0.45593999997E+02  0.45594000000E+02  0.51100000000E-03 0.  1.
         11   -1    0    0    0    0 -0.00000000000E+00 -0.00000000000E+00 -0.45593999997E+02  0.45594000000E+02  0.51100000000E-03 0. -1.
    9900012    2    1    2    0    0 -0.54870397357E+01 -0.67670818195E+00  0.43047155821E+02  0.47787272318E+02  0.20000005806E+02 0.  0.
         12    1    1    2    0    0  0.54870397357E+01  0.67670818195E+00 -0.43047155821E+02  0.43400727682E+02  0.00000000000E+00 0. -1.
         11    1    3    3    0    0  0.18228935815E+01 -0.51268204533E+00  0.63803360929E+00  0.19982169644E+01  0.51100000000E-03 0.  1.
        -11    1    3    3    0    0  0.12711020072E+01 -0.35938372031E+01  0.19381199923E+01  0.42764091854E+01  0.51100000000E-03 0. -1.
        -12    1    3    3    0    0 -0.85810353244E+01  0.34298110665E+01  0.40471002220E+02  0.41512646168E+02  0.00000000000E+00 0.  1.
</event>
<event>
 7    1  0.2387817E-009  0.4778727E+02  0.7816164E-02  0.1312668E+00
        -11   -1    0    0    0    0  0.00000000000E+00  0.00000000000E+00  0.45593999997E+02  0.45594000000E+02  0.51100000000E-03 0.  1.
         11   -1    0    0    0    0 -0.00000000000E+00 -0.00000000000E+00 -0.45593999997E+02  0.45594000000E+02  0.51100000000E-03 0. -1.
    9900012    2    1    2    0    0  0.37918951550E+02 -0.59307121819E+00  0.21105078196E+02  0.47787274824E+02  0.20000017234E+02 0.  0.
         12    1    1    2    0    0 -0.37918951550E+02  0.59307121819E+00 -0.21105078196E+02  0.43400725176E+02  0.00000000000E+00 0. -1.
         11    1    3    3    0    0  0.24611954626E+01  0.34730543907E+01  0.15510350688E+01  0.45304856199E+01  0.51100000000E-03 0. -1.
        -11    1    3    3    0    0  0.46208307406E+01 -0.38227765116E+01  0.86954788825E+01  0.10563003846E+02  0.51100000000E-03 0.  1.
         12    1    3    3    0    0  0.30836925347E+02 -0.24334909729E+00  0.10858564245E+02  0.32693785359E+02  0.00000000000E+00 0. -1.
</event>
<event>
 7    1  0.2489882E-009  0.4778727E+02  0.7816164E-02  0.1312668E+00
        -11   -1    0    0    0    0  0.00000000000E+00  0.00000000000E+00  0.45593999997E+02  0.45594000000E+02  0.51100000000E-03 0.  1.
         11   -1    0    0    0    0 -0.00000000000E+00 -0.00000000000E+00 -0.45593999997E+02  0.45594000000E+02  0.51100000000E-03 0. -1.
    9900012    2    1    2    0    0  0.36037510622E+02  0.19162576656E+02 -0.14755229686E+02  0.47787270524E+02  0.19999997628E+02 0.  0.
         12    1    1    2    0    0 -0.36037510622E+02 -0.19162576656E+02  0.14755229686E+02  0.43400729476E+02  0.00000000000E+00 0. -1.
         11    1    3    3    0    0  0.22330995817E+02  0.81328540686E+01 -0.67323699068E+01  0.24701042373E+02  0.51100000000E-03 0. -1.
        -11    1    3    3    0    0  0.14279195799E+02  0.10752346626E+02 -0.10362697271E+02  0.20661410543E+02  0.51100000000E-03 0.  1.
         12    1    3    3    0    0 -0.57268099357E+00  0.27737596160E+00  0.23398374923E+01  0.24248176086E+01  0.00000000000E+00 0. -1.
</event>
<event>
 7    1  0.2387817E-009  0.4778727E+02  0.7816164E-02  0.1312668E+00
        -11   -1    0    0    0    0  0.00000000000E+00  0.00000000000E+00  0.45593999997E+02  0.45594000000E+02  0.51100000000E-03 0.  1.
         11   -1    0    0    0    0 -0.00000000000E+00 -0.00000000000E+00 -0.45593999997E+02  0.45594000000E+02  0.51100000000E-03 0. -1.
    9900012    2    1    2    0    0  0.16476272199E+01 -0.20865172921E+02  0.38020430073E+02  0.47787271672E+02  0.20000002859E+02 0.  0.
         12    1    1    2    0    0 -0.16476272199E+01  0.20865172921E+02 -0.38020430073E+02  0.43400728328E+02  0.00000000000E+00 0. -1.
         11    1    3    3    0    0 -0.21602313009E+01 -0.14801994107E+02  0.19985948105E+02  0.24964049166E+02  0.51100000000E-03 0. -1.
        -11    1    3    3    0    0  0.20329538427E+00 -0.73725270822E+01  0.17449130104E+02  0.18943801789E+02  0.51100000000E-03 0.  1.
         12    1    3    3    0    0  0.36045631366E+01  0.13093482681E+01  0.58535186436E+00  0.38794207168E+01  0.00000000000E+00 0. -1.
</event>
<event>
 7    1  0.2387817E-009  0.4778728E+02  0.7816164E-02  0.1312668E+00
        -11   -1    0    0    0    0  0.00000000000E+00  0.00000000000E+00  0.45593999997E+02  0.45594000000E+02  0.51100000000E-03 0. -1.
         11   -1    0    0    0    0 -0.00000000000E+00 -0.00000000000E+00 -0.45593999997E+02  0.45594000000E+02  0.51100000000E-03 0.  1.
    9900012    2    1    2    0    0  0.34468782483E+02  0.33363939176E+01 -0.26160932563E+02  0.47787275550E+02  0.20000020541E+02 0.  0.
         12    1    1    2    0    0 -0.34468782483E+02 -0.33363939176E+01  0.26160932563E+02  0.43400724450E+02  0.00000000000E+00 0. -1.
         11    1    3    3    0    0  0.63517237600E+01  0.52376262290E+01 -0.36876715611E+01  0.90208672001E+01  0.51100000000E-03 0. -1.
        -11    1    3    3    0    0  0.79472770652E+01 -0.66899421553E+01 -0.10756951220E+02  0.14954147873E+02  0.51100000000E-03 0.  1.
         12    1    3    3    0    0  0.20169781658E+02  0.47887098439E+01 -0.11716309782E+02  0.23812260477E+02  0.00000000000E+00 0. -1.
</event>
<event>
 7    1  0.2387817E-009  0.4778727E+02  0.7816164E-02  0.1312668E+00
        -11   -1    0    0    0    0  0.00000000000E+00  0.00000000000E+00  0.45593999997E+02  0.45594000000E+02  0.51100000000E-03 0.  1.
         11   -1    0    0    0    0 -0.00000000000E+00 -0.00000000000E+00 -0.45593999997E+02  0.45594000000E+02  0.51100000000E-03 0. -1.
    9900012    2    1    2    0    0 -0.48591463381E+01  0.41733433627E+02 -0.10878061174E+02  0.47787274196E+02  0.20000014367E+02 0.  0.
         12    1    1    2    0    0  0.48591463381E+01 -0.41733433627E+02  0.10878061174E+02  0.43400725804E+02  0.00000000000E+00 0. -1.
         11    1    3    3    0    0  0.51149262741E+01  0.19420295095E+02 -0.66302689335E+01  0.21148777713E+02  0.51100000000E-03 0. -1.
        -11    1    3    3    0    0 -0.34325821304E+00 -0.43161981715E+00 -0.17241272037E+01  0.18101758873E+01  0.51100000000E-03 0.  1.
        -12    1    3    3    0    0 -0.96308143992E+01  0.22744758349E+02 -0.25236650369E+01  0.24828320595E+02  0.00000000000E+00 0.  1.
</event>
<event>
 7    1  0.2387817E-009  0.4778727E+02  0.7816164E-02  0.1312668E+00
        -11   -1    0    0    0    0  0.00000000000E+00  0.00000000000E+00  0.45593999997E+02  0.45594000000E+02  0.51100000000E-03 0. -1.
         11   -1    0    0    0    0 -0.00000000000E+00 -0.00000000000E+00 -0.45593999997E+02  0.45594000000E+02  0.51100000000E-03 0.  1.
    9900012    2    1    2    0    0  0.54483636668E+01  0.21344925439E+02 -0.37394287716E+02  0.47787271176E+02  0.20000000601E+02 0.  0.
         12    1    1    2    0    0 -0.54483636668E+01 -0.21344925439E+02  0.37394287716E+02  0.43400728824E+02  0.00000000000E+00 0. -1.
         11    1    3    3    0    0  0.16347728486E+00  0.38996474789E+01  0.55354473942E-02  0.39030765025E+01  0.51100000000E-03 0. -1.
        -11    1    3    3    0    0  0.44988473658E+01  0.61675613752E+01 -0.39907131677E+01  0.86141878773E+01  0.51100000000E-03 0.  1.
         12    1    3    3    0    0  0.78603901614E+00  0.11277716585E+02 -0.33409109996E+02  0.35270006796E+02  0.00000000000E+00 0. -1.
</event>
<event>
 7    1  0.2387817E-009  0.4778727E+02  0.7816164E-02  0.1312668E+00
        -11   -1    0    0    0    0  0.00000000000E+00  0.00000000000E+00  0.45593999997E+02  0.45594000000E+02  0.51100000000E-03 0.  1.
         11   -1    0    0    0    0 -0.00000000000E+00 -0.00000000000E+00 -0.45593999997E+02  0.45594000000E+02  0.51100000000E-03 0. -1.
    9900012    2    1    2    0    0 -0.10869160913E+02  0.14803394414E+02  0.39323584096E+02  0.47787269461E+02  0.19999992781E+02 0.  0.
         12    1    1    2    0    0  0.10869160913E+02 -0.14803394414E+02 -0.39323584096E+02  0.43400730539E+02  0.00000000000E+00 0. -1.
         11    1    3    3    0    0 -0.64727420090E+01  0.11377452021E+02  0.13135160229E+02  0.18543873330E+02  0.51100000000E-03 0. -1.
        -11    1    3    3    0    0  0.11209928277E+01  0.54087325826E+01  0.57193227703E+01  0.79512053351E+01  0.51100000000E-03 0.  1.
         12    1    3    3    0    0 -0.55174117320E+01 -0.19827901894E+01  0.20469101097E+02  0.21292190796E+02  0.00000000000E+00 0. -1.
</event>
<event>
 7    1  0.2387817E-009  0.4778727E+02  0.7816164E-02  0.1312668E+00
        -11   -1    0    0    0    0  0.00000000000E+00  0.00000000000E+00  0.45593999997E+02  0.45594000000E+02  0.51100000000E-03 0.  1.
         11   -1    0    0    0    0 -0.00000000000E+00 -0.00000000000E+00 -0.45593999997E+02  0.45594000000E+02  0.51100000000E-03 0. -1.
    9900012    2    1    2    0    0  0.16953851366E+02  0.38700599276E+02  0.99223947953E+01  0.47787269834E+02  0.19999994481E+02 0.  0.
         12    1    1    2    0    0 -0.16953851366E+02 -0.38700599276E+02 -0.99223947953E+01  0.43400730166E+02  0.00000000000E+00 0. -1.
         11    1    3    3    0    0  0.59475542505E+01  0.12804097526E+02  0.43327222185E+01  0.14767897518E+02  0.51100000000E-03 0. -1.
        -11    1    3    3    0    0  0.15345760633E+02  0.19529083962E+02  0.42081504118E+01  0.25190990849E+02  0.51100000000E-03 0.  1.
         12    1    3    3    0    0 -0.43394635173E+01  0.63674177880E+01  0.13815221650E+01  0.78283814673E+01  0.00000000000E+00 0. -1.
</event>
<event>
 7    1  0.2387817E-009  0.4778725E+02  0.7816164E-02  0.1312668E+00
        -11   -1    0    0    0    0  0.00000000000E+00  0.00000000000E+00  0.45593999997E+02  0.45594000000E+02  0.51100000000E-03 0. -1.
         11   -1    0    0    0    0 -0.00000000000E+00 -0.00000000000E+00 -0.45593999997E+02  0.45594000000E+02  0.51100000000E-03 0.  1.
    9900012    2    1    2    0    0 -0.38266616046E+01  0.16158550986E+02 -0.40098421125E+02  0.47787245563E+02  0.19999883818E+02 0.  0.
         12    1    1    2    0    0  0.38266616046E+01 -0.16158550986E+02  0.40098421125E+02  0.43400754437E+02  0.00000000000E+00 0. -1.
         11    1    3    3    0    0 -0.13295396010E+01 -0.64279240839E+00 -0.69090792205E+00  0.16304022966E+01  0.51100000000E-03 0. -1.
        -11    1    3    3    0    0  0.19632557833E+01  0.16069451300E+02 -0.17713161257E+02  0.23996618936E+02  0.51100000000E-03 0.  1.
        -12    1    3    3    0    0 -0.44603777869E+01  0.73189209482E+00 -0.21694351945E+02  0.22160224330E+02  0.00000000000E+00 0.  1.
</event>
<event>
 7    1  0.2387817E-009  0.4778727E+02  0.7816164E-02  0.1312668E+00
        -11   -1    0    0    0    0  0.00000000000E+00  0.00000000000E+00  0.45593999997E+02  0.45594000000E+02  0.51100000000E-03 0. -1.
         11   -1    0    0    0    0 -0.00000000000E+00 -0.00000000000E+00 -0.45593999997E+02  0.45594000000E+02  0.51100000000E-03 0.  1.
    9900012    2    1    2    0    0  0.39468904942E+02 -0.16560355899E+02 -0.71821514720E+01  0.47787272534E+02  0.20000006792E+02 0.  0.
         12    1    1    2    0    0 -0.39468904942E+02  0.16560355899E+02  0.71821514720E+01  0.43400727466E+02  0.00000000000E+00 0. -1.
         11    1    3    3    0    0  0.67976776164E+01  0.42309461258E+01 -0.20418118663E+01  0.82630697718E+01  0.51100000000E-03 0. -1.
        -11    1    3    3    0    0  0.32965225807E+01 -0.45315757810E+01 -0.42088618388E+00  0.56195538635E+01  0.51100000000E-03 0.  1.
         12    1    3    3    0    0  0.29374704745E+02 -0.16259726244E+02 -0.47194534217E+01  0.33904648899E+02  0.00000000000E+00 0. -1.
</event>
<event>
 7    1  0.2387817E-009  0.4778727E+02  0.7816164E-02  0.1312668E+00
        -11   -1    0    0    0    0  0.00000000000E+00  0.00000000000E+00  0.45593999997E+02  0.45594000000E+02  0.51100000000E-03 0.  1.
         11   -1    0    0    0    0 -0.00000000000E+00 -0.00000000000E+00 -0.45593999997E+02  0.45594000000E+02  0.51100000000E-03 0. -1.
    9900012    2    1    2    0    0  0.48569822522E+01  0.36115793416E+02  0.23572916599E+02  0.47787271807E+02  0.20000003479E+02 0.  0.
         12    1    1    2    0    0 -0.48569822522E+01 -0.36115793416E+02 -0.23572916599E+02  0.43400728193E+02  0.00000000000E+00 0. -1.
         11    1    3    3    0    0  0.73255068765E+00 -0.45145278008E+00 -0.11326564193E+01  0.14224454112E+01  0.51100000000E-03 0. -1.
        -11    1    3    3    0    0 -0.62734034527E+00  0.15680944029E+00 -0.12438002498E+01  0.14018503600E+01  0.51100000000E-03 0.  1.
        -12    1    3    3    0    0  0.47517719099E+01  0.36410436756E+02  0.25949373268E+02  0.44962976036E+02  0.00000000000E+00 0.  1.
</event>
<event>
 7    1  0.2387817E-009  0.4778727E+02  0.7816164E-02  0.1312668E+00
        -11   -1    0    0    0    0  0.00000000000E+00  0.00000000000E+00  0.45593999997E+02  0.45594000000E+02  0.51100000000E-03 0.  1.
         11   -1    0    0    0    0 -0.00000000000E+00 -0.00000000000E+00 -0.45593999997E+02  0.45594000000E+02  0.51100000000E-03 0. -1.
    9900012    2    1    2    0    0 -0.55713692431E+01  0.77250255398E+00  0.43034708275E+02  0.47787273833E+02  0.20000012716E+02 0.  0.
         12    1    1    2    0    0  0.55713692431E+01 -0.77250255398E+00 -0.43034708275E+02  0.43400726167E+02  0.00000000000E+00 0. -1.
         11    1    3    3    0    0 -0.10712217881E+02 -0.33833115478E-01  0.12844033281E+02  0.16724890068E+02  0.51100000000E-03 0. -1.
        -11    1    3    3    0    0 -0.66882273275E+00 -0.10151900890E+01  0.47047195145E+01  0.48592510468E+01  0.51100000000E-03 0.  1.
        -12    1    3    3    0    0  0.58096713708E+01  0.18215257585E+01  0.25485955480E+02  0.26203132719E+02  0.00000000000E+00 0.  1.
</event>
<event>
 7    1  0.2387817E-009  0.4778727E+02  0.7816164E-02  0.1312668E+00
        -11   -1    0    0    0    0  0.00000000000E+00  0.00000000000E+00  0.45593999997E+02  0.45594000000E+02  0.51100000000E-03 0.  1.
         11   -1    0    0    0    0 -0.00000000000E+00 -0.00000000000E+00 -0.45593999997E+02  0.45594000000E+02  0.51100000000E-03 0. -1.
    9900012    2    1    2    0    0  0.33208834017E+01 -0.65938541685E+01  0.42768167267E+02  0.47787270619E+02  0.19999998062E+02 0.  0.
         12    1    1    2    0    0 -0.33208834017E+01  0.65938541685E+01 -0.42768167267E+02  0.43400729381E+02  0.00000000000E+00 0. -1.
         11    1    3    3    0    0  0.35907699460E+01 -0.50068324901E+01  0.47367501419E+01  0.77716666525E+01  0.51100000000E-03 0. -1.
        -11    1    3    3    0    0  0.18810115939E+01 -0.55128761348E+01  0.95628129945E+01  0.11197205032E+02  0.51100000000E-03 0.  1.
        -12    1    3    3    0    0 -0.21508981382E+01  0.39258544564E+01  0.28468604131E+02  0.28818398935E+02  0.00000000000E+00 0.  1.
</event>
<event>
 7    1  0.2387817E-009  0.4778727E+02  0.7816164E-02  0.1312668E+00
        -11   -1    0    0    0    0  0.00000000000E+00  0.00000000000E+00  0.45593999997E+02  0.45594000000E+02  0.51100000000E-03 0.  1.
         11   -1    0    0    0    0 -0.00000000000E+00 -0.00000000000E+00 -0.45593999997E+02  0.45594000000E+02  0.51100000000E-03 0. -1.
    9900012    2    1    2    0    0 -0.40211932429E+02 -0.14057956508E+02  0.83064618952E+01  0.47787274660E+02  0.20000016485E+02 0.  0.
         12    1    1    2    0    0  0.40211932429E+02  0.14057956508E+02 -0.83064618952E+01  0.43400725340E+02  0.00000000000E+00 0. -1.
         11    1    3    3    0    0 -0.10159249443E+02  0.21193279806E+01  0.36098827879E+01  0.10987863957E+02  0.51100000000E-03 0. -1.
        -11    1    3    3    0    0 -0.44129637539E+01 -0.31689388096E+01  0.59038517143E+01  0.80232093078E+01  0.51100000000E-03 0.  1.
         12    1    3    3    0    0 -0.25639719232E+02 -0.13008345679E+02 -0.12072726071E+01  0.28776201395E+02  0.00000000000E+00 0. -1.
</event>
<event>
 7    1  0.2387817E-009  0.4778727E+02  0.7816164E-02  0.1312668E+00
        -11   -1    0    0    0    0  0.00000000000E+00  0.00000000000E+00  0.45593999997E+02  0.45594000000E+02  0.51100000000E-03 0. -1.
         11   -1    0    0    0    0 -0.00000000000E+00 -0.00000000000E+00 -0.45593999997E+02  0.45594000000E+02  0.51100000000E-03 0.  1.
    9900012    2    1    2    0    0  0.23093051984E+01 -0.42153359489E+02 -0.10068996057E+02  0.47787270879E+02  0.19999999244E+02 0.  0.
         12    1    1    2    0    0 -0.23093051984E+01  0.42153359489E+02  0.10068996057E+02  0.43400729121E+02  0.00000000000E+00 0. -1.
         11    1    3    3    0    0  0.38763970851E+01 -0.24190484931E+01  0.13336046217E+01  0.47599108733E+01  0.51100000000E-03 0. -1.
        -11    1    3    3    0    0 -0.37804013160E+01 -0.88242951346E+01 -0.66442736074E+01  0.11675015664E+02  0.51100000000E-03 0.  1.
        -12    1    3    3    0    0  0.22133094293E+01 -0.30910015861E+02 -0.47583270717E+01  0.31352344341E+02  0.00000000000E+00 0.  1.
</event>
<event>
 7    1  0.2387817E-009  0.4778727E+02  0.7816164E-02  0.1312668E+00
        -11   -1    0    0    0    0  0.00000000000E+00  0.00000000000E+00  0.45593999997E+02  0.45594000000E+02  0.51100000000E-03 0.  1.
         11   -1    0    0    0    0 -0.00000000000E+00 -0.00000000000E+00 -0.45593999997E+02  0.45594000000E+02  0.51100000000E-03 0. -1.
    9900012    2    1    2    0    0 -0.12332115884E+02 -0.35898477671E+02  0.21043803501E+02  0.47787269050E+02  0.19999990905E+02 0.  0.
         12    1    1    2    0    0  0.12332115884E+02  0.35898477671E+02 -0.21043803501E+02  0.43400730950E+02  0.00000000000E+00 0. -1.
         11    1    3    3    0    0 -0.15912174570E+01 -0.57843806052E+01  0.61764267374E+01  0.86104169170E+01  0.51100000000E-03 0. -1.
        -11    1    3    3    0    0 -0.14355781391E+01 -0.22315690714E+02  0.15187421837E+02  0.27031624423E+02  0.51100000000E-03 0.  1.
         12    1    3    3    0    0 -0.93053202875E+01 -0.77984063519E+01 -0.32004507330E+00  0.12145227710E+02  0.00000000000E+00 0. -1.
</event>
<event>
 7    1  0.2387817E-009  0.4778728E+02  0.7816164E-02  0.1312668E+00
        -11   -1    0    0    0    0  0.00000000000E+00  0.00000000000E+00  0.45593999997E+02  0.45594000000E+02  0.51100000000E-03 0. -1.
         11   -1    0    0    0    0 -0.00000000000E+00 -0.00000000000E+00 -0.45593999997E+02  0.45594000000E+02  0.51100000000E-03 0.  1.
    9900012    2    1    2    0    0 -0.17107011114E+02 -0.29379577630E+02  0.26978014324E+02  0.47787278026E+02  0.20000031832E+02 0.  0.
         12    1    1    2    0    0  0.17107011114E+02  0.29379577630E+02 -0.26978014324E+02  0.43400721974E+02  0.00000000000E+00 0. -1.
         11    1    3    3    0    0 -0.18562276745E+01 -0.68311442011E+01  0.11917847099E+01  0.71784722143E+01  0.51100000000E-03 0. -1.
        -11    1    3    3    0    0 -0.78092147226E+01 -0.17757204274E+02  0.84805935776E+01  0.21171268405E+02  0.51100000000E-03 0.  1.
        -12    1    3    3    0    0 -0.74415687174E+01 -0.47912291552E+01  0.17305636037E+02  0.19437537406E+02  0.00000000000E+00 0.  1.
</event>
<event>
 7    1  0.2387817E-009  0.4778727E+02  0.7816164E-02  0.1312668E+00
        -11   -1    0    0    0    0  0.00000000000E+00  0.00000000000E+00  0.45593999997E+02  0.45594000000E+02  0.51100000000E-03 0. -1.
         11   -1    0    0    0    0 -0.00000000000E+00 -0.00000000000E+00 -0.45593999997E+02  0.45594000000E+02  0.51100000000E-03 0.  1.
    9900012    2    1    2    0    0 -0.99170659962E+01 -0.31157546690E+02 -0.28539138439E+02  0.47787270323E+02  0.19999996710E+02 0.  0.
         12    1    1    2    0    0  0.99170659962E+01  0.31157546690E+02  0.28539138439E+02  0.43400729677E+02  0.00000000000E+00 0. -1.
         11    1    3    3    0    0 -0.33446603930E+01 -0.47886686811E+01 -0.19704255072E+01  0.61644689814E+01  0.51100000000E-03 0.  1.
        -11    1    3    3    0    0 -0.19374820159E+01 -0.24200257940E+02 -0.27209210710E+02  0.36465702635E+02  0.51100000000E-03 0. -1.
         12    1    3    3    0    0 -0.46349235873E+01 -0.21686200683E+01  0.64049777892E+00  0.51570987062E+01  0.00000000000E+00 0. -1.
</event>
<event>
 7    1  0.2387817E-009  0.4778726E+02  0.7816164E-02  0.1312668E+00
        -11   -1    0    0    0    0  0.00000000000E+00  0.00000000000E+00  0.45593999997E+02  0.45594000000E+02  0.51100000000E-03 0.  1.
         11   -1    0    0    0    0 -0.00000000000E+00 -0.00000000000E+00 -0.45593999997E+02  0.45594000000E+02  0.51100000000E-03 0. -1.
    9900012    2    1    2    0    0 -0.81624986312E+01  0.14289126128E+02  0.40159912460E+02  0.47787261778E+02  0.19999957750E+02 0.  0.
         12    1    1    2    0    0  0.81624986312E+01 -0.14289126128E+02 -0.40159912460E+02  0.43400738222E+02  0.00000000000E+00 0. -1.
         11    1    3    3    0    0  0.18482455750E+01  0.30194601337E+00  0.31732749531E+01  0.36846787227E+01  0.51100000000E-03 0. -1.
        -11    1    3    3    0    0 -0.80492871048E+01  0.17872221097E+02  0.28918196992E+02  0.34935217581E+02  0.51100000000E-03 0.  1.
         12    1    3    3    0    0 -0.19614571014E+01 -0.38850409830E+01  0.80684405148E+01  0.91673654744E+01  0.00000000000E+00 0. -1.
</event>
<event>
 7    1  0.2488848E-009  0.4778727E+02  0.7816164E-02  0.1312668E+00
        -11   -1    0    0    0    0  0.00000000000E+00  0.00000000000E+00  0.45593999997E+02  0.45594000000E+02  0.51100000000E-03 0. -1.
         11   -1    0    0    0    0 -0.00000000000E+00 -0.00000000000E+00 -0.45593999997E+02  0.45594000000E+02  0.51100000000E-03 0.  1.
    9900012    2    1    2    0    0  0.23465807846E+02 -0.22299257021E+02 -0.28908866521E+02  0.47787267690E+02  0.19999984706E+02 0.  0.
         12    1    1    2    0    0 -0.23465807846E+02  0.22299257021E+02  0.28908866521E+02  0.43400732310E+02  0.00000000000E+00 0. -1.
         11    1    3    3    0    0  0.57784234224E+01 -0.43498239328E+01 -0.31543341019E+01  0.78905620448E+01  0.51100000000E-03 0. -1.
        -11    1    3    3    0    0  0.20407387367E+02 -0.17718865401E+02 -0.20312926210E+02  0.33808795035E+02  0.51100000000E-03 0.  1.
         12    1    3    3    0    0 -0.27200029436E+01 -0.23056768704E+00 -0.54416062086E+01  0.60879106105E+01  0.00000000000E+00 0. -1.
</event>
<event>
 7    1  0.2387817E-009  0.4778727E+02  0.7816164E-02  0.1312668E+00
        -11   -1    0    0    0    0  0.00000000000E+00  0.00000000000E+00  0.45593999997E+02  0.45594000000E+02  0.51100000000E-03 0.  1.
         11   -1    0    0    0    0 -0.00000000000E+00 -0.00000000000E+00 -0.45593999997E+02  0.45594000000E+02  0.51100000000E-03 0. -1.
    9900012    2    1    2    0    0  0.65389523355E+00 -0.24169364114E+02  0.36042163268E+02  0.47787271047E+02  0.20000000011E+02 0.  0.
         12    1    1    2    0    0 -0.65389523355E+00  0.24169364114E+02 -0.36042163268E+02  0.43400728953E+02  0.00000000000E+00 0. -1.
         11    1    3    3    0    0 -0.19139971097E+01 -0.53857954319E+01  0.41038635183E+01  0.70364673956E+01  0.51100000000E-03 0. -1.
        -11    1    3    3    0    0  0.16550026655E+00 -0.13702909244E+02  0.32332708897E+02  0.35116964233E+02  0.51100000000E-03 0.  1.
         12    1    3    3    0    0  0.24023920767E+01 -0.50806594378E+01 -0.39440914711E+00  0.56338394180E+01  0.00000000000E+00 0. -1.
</event>
<event>
 7    1  0.2387817E-009  0.4778727E+02  0.7816164E-02  0.1312668E+00
        -11   -1    0    0    0    0  0.00000000000E+00  0.00000000000E+00  0.45593999997E+02  0.45594000000E+02  0.51100000000E-03 0. -1.
         11   -1    0    0    0    0 -0.00000000000E+00 -0.00000000000E+00 -0.45593999997E+02  0.45594000000E+02  0.51100000000E-03 0.  1.
    9900012    2    1    2    0    0 -0.30594854664E+02  0.30647765067E+02 -0.28796624486E+01  0.47787273147E+02  0.20000009588E+02 0.  0.
         12    1    1    2    0    0  0.30594854664E+02 -0.30647765067E+02  0.28796624486E+01  0.43400726853E+02  0.00000000000E+00 0. -1.
         11    1    3    3    0    0 -0.51168798060E+01  0.86914786061E+01  0.45019687857E+01  0.11044998077E+02  0.51100000000E-03 0. -1.
        -11    1    3    3    0    0 -0.27721250814E+01  0.78736085736E+00  0.28533247739E+01  0.40553763220E+01  0.51100000000E-03 0.  1.
        -12    1    3    3    0    0 -0.22705849777E+02  0.21168925604E+02 -0.10234956008E+02  0.32686898748E+02  0.00000000000E+00 0.  1.
</event>
<event>
 7    1  0.2387817E-009  0.4778727E+02  0.7816164E-02  0.1312668E+00
        -11   -1    0    0    0    0  0.00000000000E+00  0.00000000000E+00  0.45593999997E+02  0.45594000000E+02  0.51100000000E-03 0.  1.
         11   -1    0    0    0    0 -0.00000000000E+00 -0.00000000000E+00 -0.45593999997E+02  0.45594000000E+02  0.51100000000E-03 0. -1.
    9900012    2    1    2    0    0  0.21974986160E+02  0.32962575727E+02 -0.17725463242E+02  0.47787268872E+02  0.19999990094E+02 0.  0.
         12    1    1    2    0    0 -0.21974986160E+02 -0.32962575727E+02  0.17725463242E+02  0.43400731128E+02  0.00000000000E+00 0. -1.
         11    1    3    3    0    0  0.12142890297E+02  0.24945453118E+02 -0.73894469855E+01  0.28711136220E+02  0.51100000000E-03 0. -1.
        -11    1    3    3    0    0 -0.19341597521E+01  0.21211257094E+01 -0.17399461713E+01  0.33567188088E+01  0.51100000000E-03 0.  1.
        -12    1    3    3    0    0  0.11766255616E+02  0.58959968998E+01 -0.85960700856E+01  0.15719413843E+02  0.00000000000E+00 0.  1.
</event>
<event>
 7    1  0.2387817E-009  0.4778727E+02  0.7816164E-02  0.1312668E+00
        -11   -1    0    0    0    0  0.00000000000E+00  0.00000000000E+00  0.45593999997E+02  0.45594000000E+02  0.51100000000E-03 0.  1.
         11   -1    0    0    0    0 -0.00000000000E+00 -0.00000000000E+00 -0.45593999997E+02  0.45594000000E+02  0.51100000000E-03 0. -1.
    9900012    2    1    2    0    0 -0.14998077196E+02 -0.33132040279E+02  0.23684360888E+02  0.47787270015E+02  0.19999995304E+02 0.  0.
         12    1    1    2    0    0  0.14998077196E+02  0.33132040279E+02 -0.23684360888E+02  0.43400729985E+02  0.00000000000E+00 0. -1.
         11    1    3    3    0    0 -0.10739897600E+02 -0.26900635813E+02  0.10265487330E+02  0.30730601003E+02  0.51100000000E-03 0. -1.
        -11    1    3    3    0    0 -0.34478960226E+01 -0.31659028798E+01  0.18035642349E+01  0.50163504899E+01  0.51100000000E-03 0.  1.
         12    1    3    3    0    0 -0.81028357297E+00 -0.30655015858E+01  0.11615309323E+02  0.12040318522E+02  0.00000000000E+00 0. -1.
</event>
<event>
 7    1  0.2387817E-009  0.4778727E+02  0.7816164E-02  0.1312668E+00
        -11   -1    0    0    0    0  0.00000000000E+00  0.00000000000E+00  0.45593999997E+02  0.45594000000E+02  0.51100000000E-03 0.  1.
         11   -1    0    0    0    0 -0.00000000000E+00 -0.00000000000E+00 -0.45593999997E+02  0.45594000000E+02  0.51100000000E-03 0. -1.
    9900012    2    1    2    0    0  0.32993748280E+02  0.23369776657E+02  0.15776225602E+02  0.47787272117E+02  0.20000004889E+02 0.  0.
         12    1    1    2    0    0 -0.32993748280E+02 -0.23369776657E+02 -0.15776225602E+02  0.43400727883E+02  0.00000000000E+00 0. -1.
         11    1    3    3    0    0  0.47685388006E+01 -0.18187005257E+00 -0.19711367738E+01  0.51630823595E+01  0.51100000000E-03 0. -1.
        -11    1    3    3    0    0  0.33847171850E+00 -0.13291124682E+01  0.80659071207E+00  0.15911291259E+01  0.51100000000E-03 0.  1.
        -12    1    3    3    0    0  0.27886737761E+02  0.24880759178E+02  0.16940771664E+02  0.41033060631E+02  0.00000000000E+00 0.  1.
</event>
<event>
 7    1  0.2387817E-009  0.4778727E+02  0.7816164E-02  0.1312668E+00
        -11   -1    0    0    0    0  0.00000000000E+00  0.00000000000E+00  0.45593999997E+02  0.45594000000E+02  0.51100000000E-03 0.  1.
         11   -1    0    0    0    0 -0.00000000000E+00 -0.00000000000E+00 -0.45593999997E+02  0.45594000000E+02  0.51100000000E-03 0. -1.
    9900012    2    1    2    0    0  0.19565631661E+02 -0.52821466721E+01  0.38378486986E+02  0.47787270984E+02  0.19999999726E+02 0.  0.
         12    1    1    2    0    0 -0.19565631661E+02  0.52821466721E+01 -0.38378486986E+02  0.43400729016E+02  0.00000000000E+00 0. -1.
         11    1    3    3    0    0  0.87997833808E+01  0.21347643774E+01  0.56628742468E+01  0.10679960276E+02  0.51100000000E-03 0. -1.
        -11    1    3    3    0    0  0.29366921998E+01 -0.44075174950E+01  0.27058565628E+01  0.59474390745E+01  0.51100000000E-03 0.  1.
        -12    1    3    3    0    0  0.78291560808E+01 -0.30093935545E+01  0.30009756176E+02  0.31159871634E+02  0.00000000000E+00 0.  1.
</event>
<event>
 7    1  0.2387817E-009  0.4778727E+02  0.7816164E-02  0.1312668E+00
        -11   -1    0    0    0    0  0.00000000000E+00  0.00000000000E+00  0.45593999997E+02  0.45594000000E+02  0.51100000000E-03 0. -1.
         11   -1    0    0    0    0 -0.00000000000E+00 -0.00000000000E+00 -0.45593999997E+02  0.45594000000E+02  0.51100000000E-03 0.  1.
    9900012    2    1    2    0    0 -0.21114910241E+02  0.21966835395E+02 -0.30906991190E+02  0.47787269636E+02  0.19999993577E+02 0.  0.
         12    1    1    2    0    0  0.21114910241E+02 -0.21966835395E+02  0.30906991190E+02  0.43400730364E+02  0.00000000000E+00 0. -1.
         11    1    3    3    0    0 -0.32694139419E+01  0.42460366097E+01 -0.85061425056E+01  0.10053474773E+02  0.51100000000E-03 0. -1.
        -11    1    3    3    0    0 -0.21387613855E+01  0.19364923763E+01 -0.13414544060E+02  0.13721308085E+02  0.51100000000E-03 0.  1.
         12    1    3    3    0    0 -0.15706734913E+02  0.15784306409E+02 -0.89863046245E+01  0.24012486778E+02  0.00000000000E+00 0. -1.
</event>
<event>
 7    1  0.2387817E-009  0.4778727E+02  0.7816164E-02  0.1312668E+00
        -11   -1    0    0    0    0  0.00000000000E+00  0.00000000000E+00  0.45593999997E+02  0.45594000000E+02  0.51100000000E-03 0.  1.
         11   -1    0    0    0    0 -0.00000000000E+00 -0.00000000000E+00 -0.45593999997E+02  0.45594000000E+02  0.51100000000E-03 0. -1.
    9900012    2    1    2    0    0  0.42405927231E+01 -0.13712650629E+02  0.40958562235E+02  0.47787271501E+02  0.20000002080E+02 0.  0.
         12    1    1    2    0    0 -0.42405927231E+01  0.13712650629E+02 -0.40958562235E+02  0.43400728499E+02  0.00000000000E+00 0. -1.
         11    1    3    3    0    0 -0.20078136027E+01 -0.32624578995E+01  0.50199458007E+01  0.63146498804E+01  0.51100000000E-03 0. -1.
        -11    1    3    3    0    0  0.77946648419E+01 -0.14432962967E+02  0.29264689696E+02  0.33548312674E+02  0.51100000000E-03 0.  1.
         12    1    3    3    0    0 -0.15462585161E+01  0.39827702380E+01  0.66739267381E+01  0.79243089460E+01  0.00000000000E+00 0. -1.
</event>
<event>
 7    1  0.2387817E-009  0.4778727E+02  0.7816164E-02  0.1312668E+00
        -11   -1    0    0    0    0  0.00000000000E+00  0.00000000000E+00  0.45593999997E+02  0.45594000000E+02  0.51100000000E-03 0.  1.
         11   -1    0    0    0    0 -0.00000000000E+00 -0.00000000000E+00 -0.45593999997E+02  0.45594000000E+02  0.51100000000E-03 0. -1.
    9900012    2    1    2    0    0 -0.31576832569E+01 -0.23855849313E+02  0.36118568999E+02  0.47787268018E+02  0.19999986203E+02 0.  0.
         12    1    1    2    0    0  0.31576832569E+01  0.23855849313E+02 -0.36118568999E+02  0.43400731982E+02  0.00000000000E+00 0. -1.
         11    1    3    3    0    0  0.12056739830E+01 -0.99332335535E+00  0.91357864282E+00  0.18096870556E+01  0.51100000000E-03 0. -1.
        -11    1    3    3    0    0 -0.11244207159E+02 -0.14261635349E+02  0.25442174601E+02  0.31259089656E+02  0.51100000000E-03 0.  1.
        -12    1    3    3    0    0  0.68808499187E+01 -0.86008906089E+01  0.97628157550E+01  0.14718491306E+02  0.00000000000E+00 0.  1.
</event>
<event>
 7    1 -0.2387817E-009  0.4778727E+02  0.7816164E-02  0.1312668E+00
        -11   -1    0    0    0    0  0.00000000000E+00  0.00000000000E+00  0.45593999997E+02  0.45594000000E+02  0.51100000000E-03 0. -1.
         11   -1    0    0    0    0 -0.00000000000E+00 -0.00000000000E+00 -0.45593999997E+02  0.45594000000E+02  0.51100000000E-03 0.  1.
    9900012    2    1    2    0    0  0.28672843572E+01  0.13980212987E+02 -0.40987260360E+02  0.47787272051E+02  0.20000004588E+02 0.  0.
         12    1    1    2    0    0 -0.28672843572E+01 -0.13980212987E+02  0.40987260360E+02  0.43400727949E+02  0.00000000000E+00 0. -1.
         11    1    3    3    0    0 -0.19848243336E+01 -0.13013218349E+00 -0.24802608411E+01  0.31793326535E+01  0.51100000000E-03 0. -1.
        -11    1    3    3    0    0 -0.16264924360E+01  0.38668970629E+01 -0.28733277409E+02  0.29037899398E+02  0.51100000000E-03 0.  1.
        -12    1    3    3    0    0  0.64786011268E+01  0.10243448108E+02 -0.97737221096E+01  0.15570039999E+02  0.00000000000E+00 0.  1.
</event>
<event>
 7    1  0.2387817E-009  0.4778728E+02  0.7816164E-02  0.1312668E+00
        -11   -1    0    0    0    0  0.00000000000E+00  0.00000000000E+00  0.45593999997E+02  0.45594000000E+02  0.51100000000E-03 0. -1.
         11   -1    0    0    0    0 -0.00000000000E+00 -0.00000000000E+00 -0.45593999997E+02  0.45594000000E+02  0.51100000000E-03 0.  1.
    9900012    2    1    2    0    0 -0.21738772025E+02 -0.33652387640E+02 -0.16690269491E+02  0.47787279974E+02  0.20000040715E+02 0.  0.
         12    1    1    2    0    0  0.21738772025E+02  0.33652387640E+02  0.16690269491E+02  0.43400720026E+02  0.00000000000E+00 0. -1.
         11    1    3    3    0    0 -0.88242311730E+01 -0.54566247076E+01  0.11620585368E+01  0.10439932437E+02  0.51100000000E-03 0. -1.
        -11    1    3    3    0    0 -0.49923356551E+01 -0.14169794089E+02 -0.27634569431E+01  0.15275574436E+02  0.51100000000E-03 0.  1.
         12    1    3    3    0    0 -0.79222051970E+01 -0.14025968844E+02 -0.15088871085E+02  0.22071773101E+02  0.00000000000E+00 0. -1.
</event>
<event>
 7    1  0.2387817E-009  0.4778728E+02  0.7816164E-02  0.1312668E+00
        -11   -1    0    0    0    0  0.00000000000E+00  0.00000000000E+00  0.45593999997E+02  0.45594000000E+02  0.51100000000E-03 0.  1.
         11   -1    0    0    0    0 -0.00000000000E+00 -0.00000000000E+00 -0.45593999997E+02  0.45594000000E+02  0.51100000000E-03 0. -1.
    9900012    2    1    2    0    0  0.69465593048E+00  0.43125421493E+02  0.48309824769E+01  0.47787275150E+02  0.20000018718E+02 0.  0.
         12    1    1    2    0    0 -0.69465593048E+00 -0.43125421493E+02 -0.48309824769E+01  0.43400724850E+02  0.00000000000E+00 0. -1.
         11    1    3    3    0    0  0.27005771287E+01  0.22925880701E+02  0.39495285146E-01  0.23084425115E+02  0.51100000000E-03 0. -1.
        -11    1    3    3    0    0 -0.22367856611E+01  0.17513478384E+02 -0.16374603142E+01  0.17731509009E+02  0.51100000000E-03 0.  1.
         12    1    3    3    0    0  0.23086446288E+00  0.26860624082E+01  0.64289475060E+01  0.69713410256E+01  0.00000000000E+00 0. -1.
</event>
<event>
 7    1  0.2387817E-009  0.4778727E+02  0.7816164E-02  0.1312668E+00
        -11   -1    0    0    0    0  0.00000000000E+00  0.00000000000E+00  0.45593999997E+02  0.45594000000E+02  0.51100000000E-03 0.  1.
         11   -1    0    0    0    0 -0.00000000000E+00 -0.00000000000E+00 -0.45593999997E+02  0.45594000000E+02  0.51100000000E-03 0. -1.
    9900012    2    1    2    0    0  0.13026837670E+02  0.30274840182E+02  0.28237548081E+02  0.47787267641E+02  0.19999984481E+02 0.  0.
         12    1    1    2    0    0 -0.13026837670E+02 -0.30274840182E+02 -0.28237548081E+02  0.43400732359E+02  0.00000000000E+00 0. -1.
         11    1    3    3    0    0 -0.26256498355E+01 -0.21203337993E+00  0.27879065259E+01  0.38355466718E+01  0.51100000000E-03 0. -1.
        -11    1    3    3    0    0  0.36354240693E+01  0.75265657024E+01  0.12353643084E+02  0.14915696334E+02  0.51100000000E-03 0.  1.
         12    1    3    3    0    0  0.12017063436E+02  0.22960307859E+02  0.13095998471E+02  0.29036024635E+02  0.00000000000E+00 0. -1.
</event>
<event>
 7    1  0.2387817E-009  0.4778728E+02  0.7816164E-02  0.1312668E+00
        -11   -1    0    0    0    0  0.00000000000E+00  0.00000000000E+00  0.45593999997E+02  0.45594000000E+02  0.51100000000E-03 0.  1.
         11   -1    0    0    0    0 -0.00000000000E+00 -0.00000000000E+00 -0.45593999997E+02  0.45594000000E+02  0.51100000000E-03 0. -1.
    9900012    2    1    2    0    0 -0.54941791437E+01  0.41977651252E+02 -0.95558190660E+01  0.47787275500E+02  0.20000020315E+02 0.  0.
         12    1    1    2    0    0  0.54941791437E+01 -0.41977651252E+02  0.95558190660E+01  0.43400724500E+02  0.00000000000E+00 0. -1.
         11    1    3    3    0    0  0.26395277325E+01  0.15252422031E+02  0.45223360767E+01  0.16126221142E+02  0.51100000000E-03 0. -1.
        -11    1    3    3    0    0 -0.22485095811E+00  0.81242830069E+01 -0.35170133959E+01  0.88557278537E+01  0.51100000000E-03 0.  1.
         12    1    3    3    0    0 -0.79088559181E+01  0.18600946214E+02 -0.10561141747E+02  0.22805326505E+02  0.00000000000E+00 0. -1.
</event>
<event>
 7    1  0.2387817E-009  0.4778727E+02  0.7816164E-02  0.1312668E+00
        -11   -1    0    0    0    0  0.00000000000E+00  0.00000000000E+00  0.45593999997E+02  0.45594000000E+02  0.51100000000E-03 0. -1.
         11   -1    0    0    0    0 -0.00000000000E+00 -0.00000000000E+00 -0.45593999997E+02  0.45594000000E+02  0.51100000000E-03 0.  1.
    9900012    2    1    2    0    0  0.17153577593E+02 -0.32932825562E+02 -0.22467915019E+02  0.47787269257E+02  0.19999991848E+02 0.  0.
         12    1    1    2    0    0 -0.17153577593E+02  0.32932825562E+02  0.22467915019E+02  0.43400730743E+02  0.00000000000E+00 0. -1.
         11    1    3    3    0    0  0.45121297710E+00 -0.11504390912E+02 -0.62925594490E+01  0.13120629104E+02  0.51100000000E-03 0. -1.
        -11    1    3    3    0    0  0.13675798425E+02 -0.20167867952E+02 -0.18544724382E+02  0.30621514707E+02  0.51100000000E-03 0.  1.
         12    1    3    3    0    0  0.30265661902E+01 -0.12605666984E+01  0.23693688112E+01  0.40451254454E+01  0.00000000000E+00 0. -1.
</event>
<event>
 7    1  0.2387817E-009  0.4778728E+02  0.7816164E-02  0.1312668E+00
        -11   -1    0    0    0    0  0.00000000000E+00  0.00000000000E+00  0.45593999997E+02  0.45594000000E+02  0.51100000000E-03 0. -1.
         11   -1    0    0    0    0 -0.00000000000E+00 -0.00000000000E+00 -0.45593999997E+02  0.45594000000E+02  0.51100000000E-03 0.  1.
    9900012    2    1    2    0    0 -0.17687160394E+02  0.39559260204E+02  0.24189856112E+01  0.47787283392E+02  0.20000056300E+02 0.  0.
         12    1    1    2    0    0  0.17687160394E+02 -0.39559260204E+02 -0.24189856112E+01  0.43400716608E+02  0.00000000000E+00 0. -1.
         11    1    3    3    0    0  0.47006067411E+00  0.49236337290E+01  0.61309736850E+01  0.78773069460E+01  0.51100000000E-03 0. -1.
        -11    1    3    3    0    0 -0.10576716689E+02  0.25934000787E+02 -0.85387279196E+00  0.28020857084E+02  0.51100000000E-03 0.  1.
        -12    1    3    3    0    0 -0.75805043782E+01  0.87016256882E+01 -0.28581152818E+01  0.11889119362E+02  0.00000000000E+00 0.  1.
</event>
<event>
 7    1  0.2387817E-009  0.4778727E+02  0.7816164E-02  0.1312668E+00
        -11   -1    0    0    0    0  0.00000000000E+00  0.00000000000E+00  0.45593999997E+02  0.45594000000E+02  0.51100000000E-03 0.  1.
         11   -1    0    0    0    0 -0.00000000000E+00 -0.00000000000E+00 -0.45593999997E+02  0.45594000000E+02  0.51100000000E-03 0. -1.
    9900012    2    1    2    0    0 -0.35794406032E+02  0.22537757814E+02  0.97176757630E+01  0.47787271288E+02  0.20000001111E+02 0.  0.
         12    1    1    2    0    0  0.35794406032E+02 -0.22537757814E+02 -0.97176757630E+01  0.43400728712E+02  0.00000000000E+00 0. -1.
         11    1    3    3    0    0  0.14451191182E+01  0.25447517693E-01 -0.10303411685E+01  0.17749985990E+01  0.51100000000E-03 0. -1.
        -11    1    3    3    0    0 -0.13305591790E+02  0.46916189298E+01 -0.51438963881E+00  0.14117884332E+02  0.51100000000E-03 0.  1.
         12    1    3    3    0    0 -0.23933933361E+02  0.17820691367E+02  0.11262406570E+02  0.31894388357E+02  0.00000000000E+00 0. -1.
</event>
<event>
 7    1  0.2387817E-009  0.4778726E+02  0.7816164E-02  0.1312668E+00
        -11   -1    0    0    0    0  0.00000000000E+00  0.00000000000E+00  0.45593999997E+02  0.45594000000E+02  0.51100000000E-03 0.  1.
         11   -1    0    0    0    0 -0.00000000000E+00 -0.00000000000E+00 -0.45593999997E+02  0.45594000000E+02  0.51100000000E-03 0. -1.
    9900012    2    1    2    0    0  0.27793824777E+02 -0.27098423529E+02  0.19411410903E+02  0.47787261219E+02  0.19999955202E+02 0.  0.
         12    1    1    2    0    0 -0.27793824777E+02  0.27098423529E+02 -0.19411410903E+02  0.43400738781E+02  0.00000000000E+00 0. -1.
         11    1    3    3    0    0  0.87393085033E+00 -0.92431383487E+00 -0.22207148758E+01  0.25592354361E+01  0.51100000000E-03 0. -1.
        -11    1    3    3    0    0  0.51522175566E+01 -0.93360163897E+01  0.12042494377E+02  0.16085030894E+02  0.51100000000E-03 0.  1.
        -12    1    3    3    0    0  0.21767676370E+02 -0.16838093305E+02  0.95896314016E+01  0.29142994889E+02  0.00000000000E+00 0.  1.
</event>
<event>
 7    1  0.2387817E-009  0.4778727E+02  0.7816164E-02  0.1312668E+00
        -11   -1    0    0    0    0  0.00000000000E+00  0.00000000000E+00  0.45593999997E+02  0.45594000000E+02  0.51100000000E-03 0.  1.
         11   -1    0    0    0    0 -0.00000000000E+00 -0.00000000000E+00 -0.45593999997E+02  0.45594000000E+02  0.51100000000E-03 0. -1.
    9900012    2    1    2    0    0 -0.20568866129E+01 -0.28322270938E+02  0.32821355488E+02  0.47787272015E+02  0.20000004424E+02 0.  0.
         12    1    1    2    0    0  0.20568866129E+01  0.28322270938E+02 -0.32821355488E+02  0.43400727985E+02  0.00000000000E+00 0. -1.
         11    1    3    3    0    0  0.29402137598E+00  0.13307716631E+01 -0.58207402815E+00  0.14819622884E+01  0.51100000000E-03 0. -1.
        -11    1    3    3    0    0  0.35242359992E+01 -0.88318638184E+01  0.15680668790E+02  0.18338632224E+02  0.51100000000E-03 0.  1.
         12    1    3    3    0    0 -0.58751439881E+01 -0.20821178782E+02  0.17722760726E+02  0.27966677502E+02  0.00000000000E+00 0. -1.
</event>
<event>
 7    1  0.2387817E-009  0.4778727E+02  0.7816164E-02  0.1312668E+00
        -11   -1    0    0    0    0  0.00000000000E+00  0.00000000000E+00  0.45593999997E+02  0.45594000000E+02  0.51100000000E-03 0. -1.
         11   -1    0    0    0    0 -0.00000000000E+00 -0.00000000000E+00 -0.45593999997E+02  0.45594000000E+02  0.51100000000E-03 0.  1.
    9900012    2    1    2    0    0  0.42724526388E+02 -0.15920720065E+01  0.74634669333E+01  0.47787272045E+02  0.20000004561E+02 0.  0.
         12    1    1    2    0    0 -0.42724526388E+02  0.15920720065E+01 -0.74634669333E+01  0.43400727955E+02  0.00000000000E+00 0. -1.
         11    1    3    3    0    0 -0.14562235895E+01 -0.12969622017E+01  0.17766815518E+00  0.19581277614E+01  0.51100000000E-03 0. -1.
        -11    1    3    3    0    0  0.25056796632E+01 -0.23579007372E+01 -0.15798231415E+00  0.34442829637E+01  0.51100000000E-03 0.  1.
        -12    1    3    3    0    0  0.41675070314E+02  0.20627909325E+01  0.74437810923E+01  0.42384861320E+02  0.00000000000E+00 0.  1.
</event>
<event>
 7    1  0.2387817E-009  0.4778727E+02  0.7816164E-02  0.1312668E+00
        -11   -1    0    0    0    0  0.00000000000E+00  0.00000000000E+00  0.45593999997E+02  0.45594000000E+02  0.51100000000E-03 0.  1.
         11   -1    0    0    0    0 -0.00000000000E+00 -0.00000000000E+00 -0.45593999997E+02  0.45594000000E+02  0.51100000000E-03 0. -1.
    9900012    2    1    2    0    0  0.42827176630E+02 -0.70052629893E+01 -0.61844768348E+00  0.47787271375E+02  0.20000001509E+02 0.  0.
         12    1    1    2    0    0 -0.42827176630E+02  0.70052629893E+01  0.61844768348E+00  0.43400728625E+02  0.00000000000E+00 0. -1.
         11    1    3    3    0    0  0.16643280961E+02 -0.34082423913E+01 -0.46908781094E+01  0.17624393750E+02  0.51100000000E-03 0. -1.
        -11    1    3    3    0    0 -0.70786169210E-01  0.91704635111E+00 -0.25511460804E+01  0.27118870324E+01  0.51100000000E-03 0.  1.
        -12    1    3    3    0    0  0.26254681838E+02 -0.45140669491E+01  0.66235765063E+01  0.27450990593E+02  0.00000000000E+00 0.  1.
</event>
<event>
 7    1  0.2387817E-009  0.4778727E+02  0.7816164E-02  0.1312668E+00
        -11   -1    0    0    0    0  0.00000000000E+00  0.00000000000E+00  0.45593999997E+02  0.45594000000E+02  0.51100000000E-03 0. -1.
         11   -1    0    0    0    0 -0.00000000000E+00 -0.00000000000E+00 -0.45593999997E+02  0.45594000000E+02  0.51100000000E-03 0.  1.
    9900012    2    1    2    0    0  0.36570071333E+02 -0.21495496977E+01  0.23273006128E+02  0.47787268492E+02  0.19999988362E+02 0.  0.
         12    1    1    2    0    0 -0.36570071333E+02  0.21495496977E+01 -0.23273006128E+02  0.43400731508E+02  0.00000000000E+00 0. -1.
         11    1    3    3    0    0  0.73354613895E+01  0.41543612447E+01  0.14073120757E+02  0.16404890711E+02  0.51100000000E-03 0. -1.
        -11    1    3    3    0    0  0.71249149013E+01 -0.14417986089E+01  0.33299775164E+01  0.79957455000E+01  0.51100000000E-03 0.  1.
         12    1    3    3    0    0  0.22109695042E+02 -0.48621123335E+01  0.58699078546E+01  0.23386632280E+02  0.00000000000E+00 0. -1.
</event>
<event>
 7    1  0.2934498E-009  0.4778728E+02  0.7816164E-02  0.1312668E+00
        -11   -1    0    0    0    0  0.00000000000E+00  0.00000000000E+00  0.45593999997E+02  0.45594000000E+02  0.51100000000E-03 0. -1.
         11   -1    0    0    0    0 -0.00000000000E+00 -0.00000000000E+00 -0.45593999997E+02  0.45594000000E+02  0.51100000000E-03 0.  1.
    9900012    2    1    2    0    0 -0.39371505174E+01  0.30758975214E+02 -0.30364570649E+02  0.47787275799E+02  0.20000021679E+02 0.  0.
         12    1    1    2    0    0  0.39371505174E+01 -0.30758975214E+02  0.30364570649E+02  0.43400724201E+02  0.00000000000E+00 0. -1.
         11    1    3    3    0    0 -0.19741079797E-01  0.10345102554E+02  0.62085102140E+00  0.10363734501E+02  0.51100000000E-03 0. -1.
        -11    1    3    3    0    0 -0.23054817217E+01  0.65012003899E+01 -0.87048987843E+01  0.11106579833E+02  0.51100000000E-03 0.  1.
         12    1    3    3    0    0 -0.16119277159E+01  0.13912672271E+02 -0.22280522887E+02  0.26316961465E+02  0.00000000000E+00 0. -1.
</event>
<event>
 7    1  0.2387817E-009  0.4778727E+02  0.7816164E-02  0.1312668E+00
        -11   -1    0    0    0    0  0.00000000000E+00  0.00000000000E+00  0.45593999997E+02  0.45594000000E+02  0.51100000000E-03 0.  1.
         11   -1    0    0    0    0 -0.00000000000E+00 -0.00000000000E+00 -0.45593999997E+02  0.45594000000E+02  0.51100000000E-03 0. -1.
    9900012    2    1    2    0    0  0.15586442719E+02 -0.33509632943E+02  0.22755011667E+02  0.47787271290E+02  0.20000001119E+02 0.  0.
         12    1    1    2    0    0 -0.15586442719E+02  0.33509632943E+02 -0.22755011667E+02  0.43400728710E+02  0.00000000000E+00 0. -1.
         11    1    3    3    0    0  0.76922371518E+01 -0.13635805027E+02  0.67912202893E+01  0.17065355678E+02  0.51100000000E-03 0.  1.
        -11    1    3    3    0    0  0.12072371297E+02 -0.11196354905E+02  0.11644826960E+02  0.20166866565E+02  0.51100000000E-03 0. -1.
         12    1    3    3    0    0 -0.41781657301E+01 -0.86774730115E+01  0.43189644181E+01  0.10555049047E+02  0.00000000000E+00 0. -1.
</event>
<event>
 7    1  0.2387817E-009  0.4778727E+02  0.7816164E-02  0.1312668E+00
        -11   -1    0    0    0    0  0.00000000000E+00  0.00000000000E+00  0.45593999997E+02  0.45594000000E+02  0.51100000000E-03 0. -1.
         11   -1    0    0    0    0 -0.00000000000E+00 -0.00000000000E+00 -0.45593999997E+02  0.45594000000E+02  0.51100000000E-03 0.  1.
    9900012    2    1    2    0    0  0.65135635690E+01  0.37874575601E+02 -0.20167126262E+02  0.47787274557E+02  0.20000016014E+02 0.  0.
         12    1    1    2    0    0 -0.65135635690E+01 -0.37874575601E+02  0.20167126262E+02  0.43400725443E+02  0.00000000000E+00 0. -1.
         11    1    3    3    0    0  0.86873678446E+01  0.10549125390E+02 -0.49703785876E+01  0.14541632306E+02  0.51100000000E-03 0. -1.
        -11    1    3    3    0    0  0.42304439344E+01  0.15747818122E+02 -0.91576778456E+01  0.18701697657E+02  0.51100000000E-03 0.  1.
         12    1    3    3    0    0 -0.64042482100E+01  0.11577632089E+02 -0.60390698293E+01  0.14543944593E+02  0.00000000000E+00 0. -1.
</event>
<event>
 7    1  0.3034591E-009  0.4778727E+02  0.7816164E-02  0.1312668E+00
        -11   -1    0    0    0    0  0.00000000000E+00  0.00000000000E+00  0.45593999997E+02  0.45594000000E+02  0.51100000000E-03 0. -1.
         11   -1    0    0    0    0 -0.00000000000E+00 -0.00000000000E+00 -0.45593999997E+02  0.45594000000E+02  0.51100000000E-03 0.  1.
    9900012    2    1    2    0    0  0.27479054433E+02  0.33593060120E+02  0.17610577202E+00  0.47787272656E+02  0.20000007348E+02 0.  0.
         12    1    1    2    0    0 -0.27479054433E+02 -0.33593060120E+02 -0.17610577202E+00  0.43400727344E+02  0.00000000000E+00 0. -1.
         11    1    3    3    0    0  0.23099797786E+01  0.45780208488E+00  0.36399307960E+01  0.43352838185E+01  0.51100000000E-03 0. -1.
        -11    1    3    3    0    0  0.12719400100E+02  0.19194945171E+02  0.39163452336E+01  0.23357371840E+02  0.51100000000E-03 0.  1.
         12    1    3    3    0    0  0.12449674554E+02  0.13940312864E+02 -0.73801702576E+01  0.20094616998E+02  0.00000000000E+00 0. -1.
</event>
<event>
 7    1  0.2387817E-009  0.4778726E+02  0.7816164E-02  0.1312668E+00
        -11   -1    0    0    0    0  0.00000000000E+00  0.00000000000E+00  0.45593999997E+02  0.45594000000E+02  0.51100000000E-03 0.  1.
         11   -1    0    0    0    0 -0.00000000000E+00 -0.00000000000E+00 -0.45593999997E+02  0.45594000000E+02  0.51100000000E-03 0. -1.
    9900012    2    1    2    0    0  0.31522363533E+01  0.41811321426E+02  0.11202727154E+02  0.47787259348E+02  0.19999946672E+02 0.  0.
         12    1    1    2    0    0 -0.31522363533E+01 -0.41811321426E+02 -0.11202727154E+02  0.43400740652E+02  0.00000000000E+00 0. -1.
         11    1    3    3    0    0  0.36436621789E+01  0.23510211588E+02  0.12066146298E+00  0.23791193379E+02  0.51100000000E-03 0. -1.
        -11    1    3    3    0    0  0.42084166755E+01  0.30941393487E+01  0.15727240066E+01  0.54550829770E+01  0.51100000000E-03 0.  1.
        -12    1    3    3    0    0 -0.46998425011E+01  0.15206970490E+02  0.95093416848E+01  0.18540982992E+02  0.00000000000E+00 0.  1.
</event>
<event>
 7    1  0.2387817E-009  0.4778727E+02  0.7816164E-02  0.1312668E+00
        -11   -1    0    0    0    0  0.00000000000E+00  0.00000000000E+00  0.45593999997E+02  0.45594000000E+02  0.51100000000E-03 0. -1.
         11   -1    0    0    0    0 -0.00000000000E+00 -0.00000000000E+00 -0.45593999997E+02  0.45594000000E+02  0.51100000000E-03 0.  1.
    9900012    2    1    2    0    0 -0.12661565441E+02 -0.23721574414E+02 -0.34067511312E+02  0.47787266606E+02  0.19999979764E+02 0.  0.
         12    1    1    2    0    0  0.12661565441E+02  0.23721574414E+02  0.34067511312E+02  0.43400733394E+02  0.00000000000E+00 0. -1.
         11    1    3    3    0    0 -0.44505244547E+01 -0.10355275177E+02 -0.38932931152E+01  0.11924622571E+02  0.51100000000E-03 0. -1.
        -11    1    3    3    0    0  0.19114036447E+01 -0.71595242104E+01 -0.98822608872E+01  0.12351976818E+02  0.51100000000E-03 0.  1.
        -12    1    3    3    0    0 -0.10122444631E+02 -0.62067750273E+01 -0.20291957310E+02  0.23510667217E+02  0.00000000000E+00 0.  1.
</event>
<event>
 7    1  0.2387817E-009  0.4778727E+02  0.7816164E-02  0.1312668E+00
        -11   -1    0    0    0    0  0.00000000000E+00  0.00000000000E+00  0.45593999997E+02  0.45594000000E+02  0.51100000000E-03 0. -1.
         11   -1    0    0    0    0 -0.00000000000E+00 -0.00000000000E+00 -0.45593999997E+02  0.45594000000E+02  0.51100000000E-03 0.  1.
    9900012    2    1    2    0    0 -0.92794280333E+01  0.39989370213E+02 -0.14084241628E+02  0.47787269858E+02  0.19999994589E+02 0.  0.
         12    1    1    2    0    0  0.92794280333E+01 -0.39989370213E+02  0.14084241628E+02  0.43400730142E+02  0.00000000000E+00 0. -1.
         11    1    3    3    0    0 -0.58976568312E+01  0.10759488054E+02 -0.37366617323E+01  0.12826206783E+02  0.51100000000E-03 0. -1.
        -11    1    3    3    0    0 -0.14534367747E+00  0.29153396136E+00 -0.54182310512E+01  0.54280148140E+01  0.51100000000E-03 0.  1.
         12    1    3    3    0    0 -0.32364275246E+01  0.28938348198E+02 -0.49293488442E+01  0.29533048261E+02  0.00000000000E+00 0. -1.
</event>
<event>
 7    1  0.3011863E-009  0.4778727E+02  0.7816164E-02  0.1312668E+00
        -11   -1    0    0    0    0  0.00000000000E+00  0.00000000000E+00  0.45593999997E+02  0.45594000000E+02  0.51100000000E-03 0.  1.
         11   -1    0    0    0    0 -0.00000000000E+00 -0.00000000000E+00 -0.45593999997E+02  0.45594000000E+02  0.51100000000E-03 0. -1.
    9900012    2    1    2    0    0  0.41045794694E+02 -0.12462422493E+02 -0.65995311977E+01  0.47787273641E+02  0.20000011839E+02 0.  0.
         12    1    1    2    0    0 -0.41045794694E+02  0.12462422493E+02  0.65995311977E+01  0.43400726359E+02  0.00000000000E+00 0. -1.
         11    1    3    3    0    0  0.17402858519E+02 -0.89800647048E+01  0.11656131213E+01  0.19617841394E+02  0.51100000000E-03 0.  1.
        -11    1    3    3    0    0  0.24736995873E+02 -0.31817371845E+01 -0.53601952364E+01  0.25510274588E+02  0.51100000000E-03 0. -1.
         12    1    3    3    0    0 -0.10940596978E+01 -0.30062060391E+00 -0.24049490825E+01  0.26591576598E+01  0.00000000000E+00 0. -1.
</event>
<event>
 7    1  0.2387817E-009  0.4778727E+02  0.7816164E-02  0.1312668E+00
        -11   -1    0    0    0    0  0.00000000000E+00  0.00000000000E+00  0.45593999997E+02  0.45594000000E+02  0.51100000000E-03 0. -1.
         11   -1    0    0    0    0 -0.00000000000E+00 -0.00000000000E+00 -0.45593999997E+02  0.45594000000E+02  0.51100000000E-03 0.  1.
    9900012    2    1    2    0    0 -0.86425660204E-01 -0.20893243247E+02 -0.38040612056E+02  0.47787271338E+02  0.20000001339E+02 0.  0.
         12    1    1    2    0    0  0.86425660204E-01  0.20893243247E+02  0.38040612056E+02  0.43400728662E+02  0.00000000000E+00 0. -1.
         11    1    3    3    0    0 -0.15704717296E+01 -0.66040902958E+01 -0.19941187758E+01  0.70750901083E+01  0.51100000000E-03 0. -1.
        -11    1    3    3    0    0 -0.39582128914E+01 -0.20699424471E+01 -0.40392777339E+01  0.60222816191E+01  0.51100000000E-03 0.  1.
        -12    1    3    3    0    0  0.54422589608E+01 -0.12219210504E+02 -0.32007215547E+02  0.34689899611E+02  0.00000000000E+00 0.  1.
</event>
<event>
 7    1  0.2387817E-009  0.4778728E+02  0.7816164E-02  0.1312668E+00
        -11   -1    0    0    0    0  0.00000000000E+00  0.00000000000E+00  0.45593999997E+02  0.45594000000E+02  0.51100000000E-03 0.  1.
         11   -1    0    0    0    0 -0.00000000000E+00 -0.00000000000E+00 -0.45593999997E+02  0.45594000000E+02  0.51100000000E-03 0. -1.
    9900012    2    1    2    0    0  0.29131655759E+02 -0.23755064241E+02  0.21694846408E+02  0.47787276446E+02  0.20000024626E+02 0.  0.
         12    1    1    2    0    0 -0.29131655759E+02  0.23755064241E+02 -0.21694846408E+02  0.43400723554E+02  0.00000000000E+00 0. -1.
         11    1    3    3    0    0  0.21227986754E+01 -0.99863262916E+01  0.50103884592E+01  0.11372641724E+02  0.51100000000E-03 0. -1.
        -11    1    3    3    0    0  0.18392849230E+02 -0.14892516650E+02  0.12647840410E+02  0.26833781364E+02  0.51100000000E-03 0.  1.
         12    1    3    3    0    0  0.86160078541E+01  0.11237787006E+01  0.40366175385E+01  0.95808533577E+01  0.00000000000E+00 0. -1.
</event>
<event>
 7    1  0.2387817E-009  0.4778728E+02  0.7816164E-02  0.1312668E+00
        -11   -1    0    0    0    0  0.00000000000E+00  0.00000000000E+00  0.45593999997E+02  0.45594000000E+02  0.51100000000E-03 0. -1.
         11   -1    0    0    0    0 -0.00000000000E+00 -0.00000000000E+00 -0.45593999997E+02  0.45594000000E+02  0.51100000000E-03 0.  1.
    9900012    2    1    2    0    0 -0.14567347236E+02  0.39194750729E+02 -0.11626964948E+02  0.47787281064E+02  0.20000045684E+02 0.  0.
         12    1    1    2    0    0  0.14567347236E+02 -0.39194750729E+02  0.11626964948E+02  0.43400718936E+02  0.00000000000E+00 0. -1.
         11    1    3    3    0    0 -0.81542811651E+00  0.13893668213E+01 -0.62089162592E+01  0.64145073507E+01  0.51100000000E-03 0. -1.
        -11    1    3    3    0    0 -0.68438955122E+01  0.86185087791E+01 -0.91397143634E+00  0.11043230660E+02  0.51100000000E-03 0.  1.
         12    1    3    3    0    0 -0.69080236076E+01  0.29186875129E+02 -0.45040772527E+01  0.30329543054E+02  0.00000000000E+00 0. -1.
</event>
<event>
 7    1  0.2387817E-009  0.4778726E+02  0.7816164E-02  0.1312668E+00
        -11   -1    0    0    0    0  0.00000000000E+00  0.00000000000E+00  0.45593999997E+02  0.45594000000E+02  0.51100000000E-03 0. -1.
         11   -1    0    0    0    0 -0.00000000000E+00 -0.00000000000E+00 -0.45593999997E+02  0.45594000000E+02  0.51100000000E-03 0.  1.
    9900012    2    1    2    0    0  0.37652621682E+02 -0.20980779754E+02  0.50706607085E+01  0.47787255322E+02  0.19999928313E+02 0.  0.
         12    1    1    2    0    0 -0.37652621682E+02  0.20980779754E+02 -0.50706607085E+01  0.43400744678E+02  0.00000000000E+00 0. -1.
         11    1    3    3    0    0  0.49859843479E+01 -0.36341891863E+01 -0.61385881425E+01  0.87034266587E+01  0.51100000000E-03 0. -1.
        -11    1    3    3    0    0  0.80382588401E+01 -0.25569319017E+01  0.58881585376E+00  0.84556614349E+01  0.51100000000E-03 0.  1.
         12    1    3    3    0    0  0.24628378494E+02 -0.14789658666E+02  0.10620432997E+02  0.30628167228E+02  0.00000000000E+00 0. -1.
</event>
<event>
 7    1  0.2387817E-009  0.4778727E+02  0.7816164E-02  0.1312668E+00
        -11   -1    0    0    0    0  0.00000000000E+00  0.00000000000E+00  0.45593999997E+02  0.45594000000E+02  0.51100000000E-03 0. -1.
         11   -1    0    0    0    0 -0.00000000000E+00 -0.00000000000E+00 -0.45593999997E+02  0.45594000000E+02  0.51100000000E-03 0.  1.
    9900012    2    1    2    0    0 -0.25965374483E+02  0.21392121804E+02 -0.27418964267E+02  0.47787272486E+02  0.20000006570E+02 0.  0.
         12    1    1    2    0    0  0.25965374483E+02 -0.21392121804E+02  0.27418964267E+02  0.43400727514E+02  0.00000000000E+00 0. -1.
         11    1    3    3    0    0 -0.43072715189E+01  0.90421374230E+01 -0.55119156227E+01  0.11432149894E+02  0.51100000000E-03 0. -1.
        -11    1    3    3    0    0 -0.18198822724E+02  0.97225465717E+01 -0.85940675604E+01  0.22351354721E+02  0.51100000000E-03 0.  1.
         12    1    3    3    0    0 -0.34592802406E+01  0.26274378089E+01 -0.13312981084E+02  0.14003767870E+02  0.00000000000E+00 0. -1.
</event>
<event>
 7    1  0.2387817E-009  0.4778727E+02  0.7816164E-02  0.1312668E+00
        -11   -1    0    0    0    0  0.00000000000E+00  0.00000000000E+00  0.45593999997E+02  0.45594000000E+02  0.51100000000E-03 0.  1.
         11   -1    0    0    0    0 -0.00000000000E+00 -0.00000000000E+00 -0.45593999997E+02  0.45594000000E+02  0.51100000000E-03 0. -1.
    9900012    2    1    2    0    0 -0.10352373685E+02  0.20767839692E+02  0.36676266767E+02  0.47787270164E+02  0.19999995984E+02 0.  0.
         12    1    1    2    0    0  0.10352373685E+02 -0.20767839692E+02 -0.36676266767E+02  0.43400729836E+02  0.00000000000E+00 0. -1.
         11    1    3    3    0    0  0.33999806407E+01  0.20873909851E+01  0.46863979755E+01  0.61546239307E+01  0.51100000000E-03 0.  1.
        -11    1    3    3    0    0 -0.23482637063E+01 -0.15597858220E+01  0.68217757529E+01  0.73813209474E+01  0.51100000000E-03 0. -1.
        -12    1    3    3    0    0 -0.11404090619E+02  0.20240234529E+02  0.25168093038E+02  0.34251325286E+02  0.00000000000E+00 0.  1.
</event>
<event>
 7    1  0.2387817E-009  0.4778728E+02  0.7816164E-02  0.1312668E+00
        -11   -1    0    0    0    0  0.00000000000E+00  0.00000000000E+00  0.45593999997E+02  0.45594000000E+02  0.51100000000E-03 0.  1.
         11   -1    0    0    0    0 -0.00000000000E+00 -0.00000000000E+00 -0.45593999997E+02  0.45594000000E+02  0.51100000000E-03 0. -1.
    9900012    2    1    2    0    0  0.39446029721E+02  0.18096583557E+02 -0.38363826298E+00  0.47787276786E+02  0.20000026178E+02 0.  0.
         12    1    1    2    0    0 -0.39446029721E+02 -0.18096583557E+02  0.38363826298E+00  0.43400723214E+02  0.00000000000E+00 0. -1.
         11    1    3    3    0    0 -0.58888930177E+00 -0.20761731832E+01 -0.93006381282E+00  0.23499584366E+01  0.51100000000E-03 0. -1.
        -11    1    3    3    0    0  0.64828716474E+01  0.11254976079E+01  0.18458991398E+01  0.68338651990E+01  0.51100000000E-03 0.  1.
         12    1    3    3    0    0  0.33552047375E+02  0.19047259132E+02 -0.12994735900E+01  0.38603453150E+02  0.00000000000E+00 0. -1.
</event>
<event>
 7    1  0.2387817E-009  0.4778727E+02  0.7816164E-02  0.1312668E+00
        -11   -1    0    0    0    0  0.00000000000E+00  0.00000000000E+00  0.45593999997E+02  0.45594000000E+02  0.51100000000E-03 0.  1.
         11   -1    0    0    0    0 -0.00000000000E+00 -0.00000000000E+00 -0.45593999997E+02  0.45594000000E+02  0.51100000000E-03 0. -1.
    9900012    2    1    2    0    0 -0.28103531510E+02 -0.32120454189E+02  0.78797783111E+01  0.47787274581E+02  0.20000016126E+02 0.  0.
         12    1    1    2    0    0  0.28103531510E+02  0.32120454189E+02 -0.78797783111E+01  0.43400725419E+02  0.00000000000E+00 0. -1.
         11    1    3    3    0    0  0.16996271046E+00 -0.45799203614E+00 -0.17598607615E+01  0.18264047166E+01  0.51100000000E-03 0. -1.
        -11    1    3    3    0    0  0.12583817684E+01  0.29941443390E+00 -0.29036438475E+00  0.13257018577E+01  0.51100000000E-03 0.  1.
        -12    1    3    3    0    0 -0.29531875989E+02 -0.31961876586E+02  0.99300034573E+01  0.44635168007E+02  0.00000000000E+00 0.  1.
</event>
<event>
 7    1  0.2387817E-009  0.4778722E+02  0.7816164E-02  0.1312668E+00
        -11   -1    0    0    0    0  0.00000000000E+00  0.00000000000E+00  0.45593999997E+02  0.45594000000E+02  0.51100000000E-03 0.  1.
         11   -1    0    0    0    0 -0.00000000000E+00 -0.00000000000E+00 -0.45593999997E+02  0.45594000000E+02  0.51100000000E-03 0. -1.
    9900012    2    1    2    0    0  0.13269982348E+02 -0.18160433238E+02  0.37117840302E+02  0.47787218491E+02  0.19999760387E+02 0.  0.
         12    1    1    2    0    0 -0.13269982348E+02  0.18160433238E+02 -0.37117840302E+02  0.43400781509E+02  0.00000000000E+00 0. -1.
         11    1    3    3    0    0 -0.40236372503E+00 -0.38861339877E+01  0.23138278726E+02  0.23465802279E+02  0.51100000000E-03 0. -1.
        -11    1    3    3    0    0  0.15445323017E+01 -0.27877665544E+01  0.19447846716E+01  0.37335519378E+01  0.51100000000E-03 0.  1.
         12    1    3    3    0    0  0.12127813771E+02 -0.11486532696E+02  0.12034776905E+02  0.20587864275E+02  0.00000000000E+00 0. -1.
</event>
<event>
 7    1  0.2387817E-009  0.4778728E+02  0.7816164E-02  0.1312668E+00
        -11   -1    0    0    0    0  0.00000000000E+00  0.00000000000E+00  0.45593999997E+02  0.45594000000E+02  0.51100000000E-03 0. -1.
         11   -1    0    0    0    0 -0.00000000000E+00 -0.00000000000E+00 -0.45593999997E+02  0.45594000000E+02  0.51100000000E-03 0.  1.
    9900012    2    1    2    0    0  0.11562756843E+02  0.19130126441E+02 -0.37201660134E+02  0.47787278806E+02  0.20000035387E+02 0.  0.
         12    1    1    2    0    0 -0.11562756843E+02 -0.19130126441E+02  0.37201660134E+02  0.43400721194E+02  0.00000000000E+00 0. -1.
         11    1    3    3    0    0  0.15915092064E+01  0.15024954087E+02 -0.14044739752E+02  0.20628544831E+02  0.51100000000E-03 0. -1.
        -11    1    3    3    0    0  0.22267858430E+01  0.51657852728E+01 -0.14182679252E+02  0.15257532687E+02  0.51100000000E-03 0.  1.
        -12    1    3    3    0    0  0.77444617938E+01 -0.10606129184E+01 -0.89742411294E+01  0.11901201288E+02  0.00000000000E+00 0.  1.
</event>
<event>
 7    1  0.2387817E-009  0.4778727E+02  0.7816164E-02  0.1312668E+00
        -11   -1    0    0    0    0  0.00000000000E+00  0.00000000000E+00  0.45593999997E+02  0.45594000000E+02  0.51100000000E-03 0.  1.
         11   -1    0    0    0    0 -0.00000000000E+00 -0.00000000000E+00 -0.45593999997E+02  0.45594000000E+02  0.51100000000E-03 0. -1.
    9900012    2    1    2    0    0  0.26181759164E+02 -0.32087704367E+02  0.12981462911E+02  0.47787266552E+02  0.19999979518E+02 0.  0.
         12    1    1    2    0    0 -0.26181759164E+02  0.32087704367E+02 -0.12981462911E+02  0.43400733448E+02  0.00000000000E+00 0. -1.
         11    1    3    3    0    0  0.29906795183E+01 -0.24347551859E+00 -0.23180373904E+00  0.30095145030E+01  0.51100000000E-03 0. -1.
        -11    1    3    3    0    0  0.10247893128E+02 -0.35176949844E+01  0.73354210462E+01  0.13084414154E+02  0.51100000000E-03 0.  1.
         12    1    3    3    0    0  0.12943186518E+02 -0.28326533864E+02  0.58778456041E+01  0.31693337895E+02  0.00000000000E+00 0. -1.
</event>
<event>
 7    1  0.2387817E-009  0.4778728E+02  0.7816164E-02  0.1312668E+00
        -11   -1    0    0    0    0  0.00000000000E+00  0.00000000000E+00  0.45593999997E+02  0.45594000000E+02  0.51100000000E-03 0.  1.
         11   -1    0    0    0    0 -0.00000000000E+00 -0.00000000000E+00 -0.45593999997E+02  0.45594000000E+02  0.51100000000E-03 0. -1.
    9900012    2    1    2    0    0  0.28423158434E+02  0.16952806612E+02  0.28077554813E+02  0.47787277982E+02  0.20000031631E+02 0.  0.
         12    1    1    2    0    0 -0.28423158434E+02 -0.16952806612E+02 -0.28077554813E+02  0.43400722018E+02  0.00000000000E+00 0. -1.
         11    1    3    3    0    0  0.10452078106E+02  0.35298606639E+01  0.79339581386E+01  0.13588728603E+02  0.51100000000E-03 0. -1.
        -11    1    3    3    0    0  0.13344932142E+02  0.13852021934E+01  0.15480262727E+02  0.20485227197E+02  0.51100000000E-03 0.  1.
         12    1    3    3    0    0  0.46261481871E+01  0.12037743755E+02  0.46633339476E+01  0.13713322182E+02  0.00000000000E+00 0. -1.
</event>
<event>
 7    1  0.2387817E-009  0.4778727E+02  0.7816164E-02  0.1312668E+00
        -11   -1    0    0    0    0  0.00000000000E+00  0.00000000000E+00  0.45593999997E+02  0.45594000000E+02  0.51100000000E-03 0. -1.
         11   -1    0    0    0    0 -0.00000000000E+00 -0.00000000000E+00 -0.45593999997E+02  0.45594000000E+02  0.51100000000E-03 0.  1.
    9900012    2    1    2    0    0 -0.94557516723E+01 -0.18678190018E+02 -0.38017591310E+02  0.47787271077E+02  0.20000000148E+02 0.  0.
         12    1    1    2    0    0  0.94557516723E+01  0.18678190018E+02  0.38017591310E+02  0.43400728923E+02  0.00000000000E+00 0. -1.
         11    1    3    3    0    0 -0.20596756827E+01 -0.87059886680E+01 -0.79476642895E+01  0.11966698397E+02  0.51100000000E-03 0. -1.
        -11    1    3    3    0    0 -0.40105831405E+01 -0.13093042453E+02 -0.16231115808E+02  0.21235857845E+02  0.51100000000E-03 0.  1.
         12    1    3    3    0    0 -0.33854928490E+01  0.31208411030E+01 -0.13838811213E+02  0.14584714834E+02  0.00000000000E+00 0. -1.
</event>
<event>
 7    1  0.2387817E-009  0.4778727E+02  0.7816164E-02  0.1312668E+00
        -11   -1    0    0    0    0  0.00000000000E+00  0.00000000000E+00  0.45593999997E+02  0.45594000000E+02  0.51100000000E-03 0.  1.
         11   -1    0    0    0    0 -0.00000000000E+00 -0.00000000000E+00 -0.45593999997E+02  0.45594000000E+02  0.51100000000E-03 0. -1.
    9900012    2    1    2    0    0  0.24590363864E+02 -0.10743713171E+02  0.34110267655E+02  0.47787265822E+02  0.19999976189E+02 0.  0.
         12    1    1    2    0    0 -0.24590363864E+02  0.10743713171E+02 -0.34110267655E+02  0.43400734178E+02  0.00000000000E+00 0. -1.
         11    1    3    3    0    0  0.72771780736E+01 -0.24541138034E+01  0.11450793404E+02  0.13787699776E+02  0.51100000000E-03 0. -1.
        -11    1    3    3    0    0  0.17841445184E+02 -0.84191489852E+01  0.24857779482E+02  0.31734971828E+02  0.51100000000E-03 0.  1.
         12    1    3    3    0    0 -0.52825939350E+00  0.12954961748E+00 -0.21983052301E+01  0.22645942186E+01  0.00000000000E+00 0. -1.
</event>
<event>
 7    1  0.2387817E-009  0.4778722E+02  0.7816164E-02  0.1312668E+00
        -11   -1    0    0    0    0  0.00000000000E+00  0.00000000000E+00  0.45593999997E+02  0.45594000000E+02  0.51100000000E-03 0. -1.
         11   -1    0    0    0    0 -0.00000000000E+00 -0.00000000000E+00 -0.45593999997E+02  0.45594000000E+02  0.51100000000E-03 0.  1.
    9900012    2    1    2    0    0 -0.35672509423E+01  0.33087319443E+02 -0.27859139991E+02  0.47787220420E+02  0.19999769180E+02 0.  0.
         12    1    1    2    0    0  0.35672509423E+01 -0.33087319443E+02  0.27859139991E+02  0.43400779580E+02  0.00000000000E+00 0. -1.
         11    1    3    3    0    0  0.25664701431E+00  0.28118568917E+01  0.18652093272E+01  0.33839936414E+01  0.51100000000E-03 0. -1.
        -11    1    3    3    0    0 -0.23836774838E+01  0.15198099988E+01 -0.75511987139E+01  0.80630231959E+01  0.51100000000E-03 0.  1.
         12    1    3    3    0    0 -0.14402204729E+01  0.28755652552E+02 -0.22173150604E+02  0.36340203582E+02  0.00000000000E+00 0. -1.
</event>
<event>
 7    1  0.2387817E-009  0.4778727E+02  0.7816164E-02  0.1312668E+00
        -11   -1    0    0    0    0  0.00000000000E+00  0.00000000000E+00  0.45593999997E+02  0.45594000000E+02  0.51100000000E-03 0.  1.
         11   -1    0    0    0    0 -0.00000000000E+00 -0.00000000000E+00 -0.45593999997E+02  0.45594000000E+02  0.51100000000E-03 0. -1.
    9900012    2    1    2    0    0 -0.57523078397E+01 -0.38510886896E+02  0.19168877239E+02  0.47787270633E+02  0.19999998126E+02 0.  0.
         12    1    1    2    0    0  0.57523078397E+01  0.38510886896E+02 -0.19168877239E+02  0.43400729367E+02  0.00000000000E+00 0. -1.
         11    1    3    3    0    0  0.36671146194E+01 -0.27351663250E+02  0.17787665525E+02  0.32832335544E+02  0.51100000000E-03 0. -1.
        -11    1    3    3    0    0 -0.20615114500E+01 -0.15617273990E+01 -0.71017826880E+00  0.26820095753E+01  0.51100000000E-03 0.  1.
         12    1    3    3    0    0 -0.73579110091E+01 -0.95974962465E+01  0.20913899827E+01  0.12272925514E+02  0.00000000000E+00 0. -1.
</event>
<event>
 7    1  0.2387817E-009  0.4778727E+02  0.7816164E-02  0.1312668E+00
        -11   -1    0    0    0    0  0.00000000000E+00  0.00000000000E+00  0.45593999997E+02  0.45594000000E+02  0.51100000000E-03 0.  1.
         11   -1    0    0    0    0 -0.00000000000E+00 -0.00000000000E+00 -0.45593999997E+02  0.45594000000E+02  0.51100000000E-03 0. -1.
    9900012    2    1    2    0    0  0.29301947433E+02  0.27495070756E+02  0.16402453956E+02  0.47787268036E+02  0.19999986284E+02 0.  0.
         12    1    1    2    0    0 -0.29301947433E+02 -0.27495070756E+02 -0.16402453956E+02  0.43400731964E+02  0.00000000000E+00 0. -1.
         11    1    3    3    0    0  0.12993391933E+00  0.60426920444E+00  0.29389254573E+00  0.68439548829E+00  0.51100000000E-03 0. -1.
        -11    1    3    3    0    0  0.13549510005E+02  0.20928583832E+02  0.16315518515E+01  0.24985131664E+02  0.51100000000E-03 0.  1.
         12    1    3    3    0    0  0.15622503509E+02  0.59622177192E+01  0.14477009559E+02  0.22117740884E+02  0.00000000000E+00 0. -1.
</event>
<event>
 7    1  0.2387817E-009  0.4778727E+02  0.7816164E-02  0.1312668E+00
        -11   -1    0    0    0    0  0.00000000000E+00  0.00000000000E+00  0.45593999997E+02  0.45594000000E+02  0.51100000000E-03 0. -1.
         11   -1    0    0    0    0 -0.00000000000E+00 -0.00000000000E+00 -0.45593999997E+02  0.45594000000E+02  0.51100000000E-03 0.  1.
    9900012    2    1    2    0    0  0.17436702691E+02  0.20340784053E+02 -0.34144357162E+02  0.47787271634E+02  0.20000002690E+02 0.  0.
         12    1    1    2    0    0 -0.17436702691E+02 -0.20340784053E+02  0.34144357162E+02  0.43400728366E+02  0.00000000000E+00 0. -1.
         11    1    3    3    0    0  0.38248723043E+01  0.73978191658E+01 -0.14944195556E+02  0.17108078724E+02  0.51100000000E-03 0. -1.
        -11    1    3    3    0    0 -0.13582636007E+01  0.79368309243E+01 -0.77756297442E+01  0.11193684975E+02  0.51100000000E-03 0.  1.
         12    1    3    3    0    0  0.14970093987E+02  0.50061339633E+01 -0.11424531862E+02  0.19485507936E+02  0.00000000000E+00 0. -1.
</event>
<event>
 7    1  0.2387817E-009  0.4778727E+02  0.7816164E-02  0.1312668E+00
        -11   -1    0    0    0    0  0.00000000000E+00  0.00000000000E+00  0.45593999997E+02  0.45594000000E+02  0.51100000000E-03 0.  1.
         11   -1    0    0    0    0 -0.00000000000E+00 -0.00000000000E+00 -0.45593999997E+02  0.45594000000E+02  0.51100000000E-03 0. -1.
    9900012    2    1    2    0    0 -0.39723531992E+01  0.38791075431E+02  0.19055077897E+02  0.47787272855E+02  0.20000008255E+02 0.  0.
         12    1    1    2    0    0  0.39723531992E+01 -0.38791075431E+02 -0.19055077897E+02  0.43400727145E+02  0.00000000000E+00 0. -1.
         11    1    3    3    0    0 -0.39888691124E+01  0.17139693358E+02  0.13823981154E+02  0.22378172857E+02  0.51100000000E-03 0. -1.
        -11    1    3    3    0    0 -0.76682477074E+00  0.21123302113E+02  0.79097796922E+01  0.22568706818E+02  0.51100000000E-03 0.  1.
         12    1    3    3    0    0  0.78334068387E+00  0.52807996016E+00 -0.26786829499E+01  0.28403931800E+01  0.00000000000E+00 0. -1.
</event>
<event>
 7    1  0.2387817E-009  0.4778726E+02  0.7816164E-02  0.1312668E+00
        -11   -1    0    0    0    0  0.00000000000E+00  0.00000000000E+00  0.45593999997E+02  0.45594000000E+02  0.51100000000E-03 0.  1.
         11   -1    0    0    0    0 -0.00000000000E+00 -0.00000000000E+00 -0.45593999997E+02  0.45594000000E+02  0.51100000000E-03 0. -1.
    9900012    2    1    2    0    0 -0.86678832107E+01  0.42353556192E+02  0.38299041201E+01  0.47787261677E+02  0.19999957288E+02 0.  0.
         12    1    1    2    0    0  0.86678832107E+01 -0.42353556192E+02 -0.38299041201E+01  0.43400738323E+02  0.00000000000E+00 0. -1.
         11    1    3    3    0    0  0.76801785821E-01  0.16247035027E+01 -0.22829526139E+01  0.28031112865E+01  0.51100000000E-03 0. -1.
        -11    1    3    3    0    0 -0.35959893329E+01  0.10106726187E+02  0.87178874877E+01  0.13823118896E+02  0.51100000000E-03 0.  1.
        -12    1    3    3    0    0 -0.51486956636E+01  0.30622126502E+02 -0.26050307537E+01  0.31161031494E+02  0.00000000000E+00 0.  1.
</event>
<event>
 7    1  0.2387817E-009  0.4778727E+02  0.7816164E-02  0.1312668E+00
        -11   -1    0    0    0    0  0.00000000000E+00  0.00000000000E+00  0.45593999997E+02  0.45594000000E+02  0.51100000000E-03 0. -1.
         11   -1    0    0    0    0 -0.00000000000E+00 -0.00000000000E+00 -0.45593999997E+02  0.45594000000E+02  0.51100000000E-03 0.  1.
    9900012    2    1    2    0    0  0.15478003172E+02 -0.29047644141E+02 -0.28289384924E+02  0.47787268305E+02  0.19999987509E+02 0.  0.
         12    1    1    2    0    0 -0.15478003172E+02  0.29047644141E+02  0.28289384924E+02  0.43400731695E+02  0.00000000000E+00 0. -1.
         11    1    3    3    0    0 -0.20070091977E+01 -0.18729694258E+01  0.58630547928E+00  0.28071079006E+01  0.51100000000E-03 0. -1.
        -11    1    3    3    0    0  0.99258773675E+01 -0.14800980996E+02 -0.79313554005E+01  0.19506370209E+02  0.51100000000E-03 0.  1.
        -12    1    3    3    0    0  0.75591350020E+01 -0.12373693719E+02 -0.20944335003E+02  0.25473790196E+02  0.00000000000E+00 0.  1.
</event>
<event>
 7    1  0.2387817E-009  0.4778727E+02  0.7816164E-02  0.1312668E+00
        -11   -1    0    0    0    0  0.00000000000E+00  0.00000000000E+00  0.45593999997E+02  0.45594000000E+02  0.51100000000E-03 0. -1.
         11   -1    0    0    0    0 -0.00000000000E+00 -0.00000000000E+00 -0.45593999997E+02  0.45594000000E+02  0.51100000000E-03 0.  1.
    9900012    2    1    2    0    0 -0.36460664044E+00  0.37079010573E+02 -0.22552985578E+02  0.47787272799E+02  0.20000008002E+02 0.  0.
         12    1    1    2    0    0  0.36460664044E+00 -0.37079010573E+02  0.22552985578E+02  0.43400727201E+02  0.00000000000E+00 0. -1.
         11    1    3    3    0    0  0.24255271466E+01  0.11511080655E+02 -0.89156723708E+01  0.14760669831E+02  0.51100000000E-03 0. -1.
        -11    1    3    3    0    0 -0.43628753890E+01  0.26934883445E+02 -0.10449990953E+02  0.29218571817E+02  0.51100000000E-03 0.  1.
         12    1    3    3    0    0  0.15727416020E+01 -0.13669535275E+01 -0.31873222542E+01  0.38080311507E+01  0.00000000000E+00 0. -1.
</event>
<event>
 7    1  0.2387817E-009  0.4778726E+02  0.7816164E-02  0.1312668E+00
        -11   -1    0    0    0    0  0.00000000000E+00  0.00000000000E+00  0.45593999997E+02  0.45594000000E+02  0.51100000000E-03 0.  1.
         11   -1    0    0    0    0 -0.00000000000E+00 -0.00000000000E+00 -0.45593999997E+02  0.45594000000E+02  0.51100000000E-03 0. -1.
    9900012    2    1    2    0    0  0.14150005430E+02 -0.19502462058E+02  0.36097859228E+02  0.47787261287E+02  0.19999955512E+02 0.  0.
         12    1    1    2    0    0 -0.14150005430E+02  0.19502462058E+02 -0.36097859228E+02  0.43400738713E+02  0.00000000000E+00 0. -1.
         11    1    3    3    0    0  0.80528957066E+01 -0.36163808281E+01  0.91214200936E+01  0.12693606436E+02  0.51100000000E-03 0. -1.
        -11    1    3    3    0    0  0.55340331238E+01 -0.31644873184E+01  0.14063484309E+01  0.65281941434E+01  0.51100000000E-03 0.  1.
         12    1    3    3    0    0  0.56307660007E+00 -0.12721593911E+02  0.25570090703E+02  0.28565460708E+02  0.00000000000E+00 0. -1.
</event>
<event>
 7    1  0.2387817E-009  0.4778727E+02  0.7816164E-02  0.1312668E+00
        -11   -1    0    0    0    0  0.00000000000E+00  0.00000000000E+00  0.45593999997E+02  0.45594000000E+02  0.51100000000E-03 0.  1.
         11   -1    0    0    0    0 -0.00000000000E+00 -0.00000000000E+00 -0.45593999997E+02  0.45594000000E+02  0.51100000000E-03 0. -1.
    9900012    2    1    2    0    0 -0.20777721427E+02 -0.26395671461E+02  0.27480511061E+02  0.47787266507E+02  0.19999979312E+02 0.  0.
         12    1    1    2    0    0  0.20777721427E+02  0.26395671461E+02 -0.27480511061E+02  0.43400733493E+02  0.00000000000E+00 0. -1.
         11    1    3    3    0    0 -0.28572357394E+00  0.25580475327E+00  0.54545159126E+01  0.54679811754E+01  0.51100000000E-03 0. -1.
        -11    1    3    3    0    0 -0.48871199816E+01 -0.80484443737E+01  0.13752430868E+02  0.16667055937E+02  0.51100000000E-03 0.  1.
         12    1    3    3    0    0 -0.15604877871E+02 -0.18603031840E+02  0.82735642806E+01  0.25652229395E+02  0.00000000000E+00 0. -1.
</event>
<event>
 7    1  0.2387817E-009  0.4778726E+02  0.7816164E-02  0.1312668E+00
        -11   -1    0    0    0    0  0.00000000000E+00  0.00000000000E+00  0.45593999997E+02  0.45594000000E+02  0.51100000000E-03 0. -1.
         11   -1    0    0    0    0 -0.00000000000E+00 -0.00000000000E+00 -0.45593999997E+02  0.45594000000E+02  0.51100000000E-03 0.  1.
    9900012    2    1    2    0    0 -0.11115964051E+02  0.20832025663E+02 -0.36415461935E+02  0.47787264776E+02  0.19999971421E+02 0.  0.
         12    1    1    2    0    0  0.11115964051E+02 -0.20832025663E+02  0.36415461935E+02  0.43400735224E+02  0.00000000000E+00 0. -1.
         11    1    3    3    0    0 -0.22944080733E+01  0.77908968619E+01 -0.17143498242E+02  0.18970026741E+02  0.51100000000E-03 0. -1.
        -11    1    3    3    0    0  0.30245603782E+01  0.78207322197E+01 -0.89131926886E+01  0.12237516991E+02  0.51100000000E-03 0.  1.
         12    1    3    3    0    0 -0.11846116356E+02  0.52203965816E+01 -0.10358771004E+02  0.16579721044E+02  0.00000000000E+00 0. -1.
</event>
<event>
 7    1  0.2387817E-009  0.4778727E+02  0.7816164E-02  0.1312668E+00
        -11   -1    0    0    0    0  0.00000000000E+00  0.00000000000E+00  0.45593999997E+02  0.45594000000E+02  0.51100000000E-03 0.  1.
         11   -1    0    0    0    0 -0.00000000000E+00 -0.00000000000E+00 -0.45593999997E+02  0.45594000000E+02  0.51100000000E-03 0. -1.
    9900012    2    1    2    0    0  0.13498967261E+02  0.23042275999E+02  0.34211908814E+02  0.47787270686E+02  0.19999998364E+02 0.  0.
         12    1    1    2    0    0 -0.13498967261E+02 -0.23042275999E+02 -0.34211908814E+02  0.43400729314E+02  0.00000000000E+00 0. -1.
         11    1    3    3    0    0 -0.20082886202E+01  0.20688684828E+01  0.46785374279E+01  0.54956485247E+01  0.51100000000E-03 0. -1.
        -11    1    3    3    0    0  0.16997476739E+01  0.25122820040E+01  0.14397277682E+02  0.14713337757E+02  0.51100000000E-03 0.  1.
         12    1    3    3    0    0  0.13807508208E+02  0.18461125512E+02  0.15136093704E+02  0.27578284404E+02  0.00000000000E+00 0. -1.
</event>
<event>
 7    1  0.2387817E-009  0.4778727E+02  0.7816164E-02  0.1312668E+00
        -11   -1    0    0    0    0  0.00000000000E+00  0.00000000000E+00  0.45593999997E+02  0.45594000000E+02  0.51100000000E-03 0. -1.
         11   -1    0    0    0    0 -0.00000000000E+00 -0.00000000000E+00 -0.45593999997E+02  0.45594000000E+02  0.51100000000E-03 0.  1.
    9900012    2    1    2    0    0  0.99976397256E+00  0.40699537895E+02 -0.15038992207E+02  0.47787271902E+02  0.20000003908E+02 0.  0.
         12    1    1    2    0    0 -0.99976397256E+00 -0.40699537895E+02  0.15038992207E+02  0.43400728098E+02  0.00000000000E+00 0. -1.
         11    1    3    3    0    0 -0.69766868247E+01  0.72182096481E+01 -0.66268818465E+01  0.12028810118E+02  0.51100000000E-03 0. -1.
        -11    1    3    3    0    0  0.30103735723E+01  0.22427510617E+02 -0.58467707581E+01  0.23371784486E+02  0.51100000000E-03 0.  1.
        -12    1    3    3    0    0  0.49660772250E+01  0.11053817630E+02 -0.25653396023E+01  0.12386677298E+02  0.00000000000E+00 0.  1.
</event>
<event>
 7    1  0.2387817E-009  0.4778727E+02  0.7816164E-02  0.1312668E+00
        -11   -1    0    0    0    0  0.00000000000E+00  0.00000000000E+00  0.45593999997E+02  0.45594000000E+02  0.51100000000E-03 0.  1.
         11   -1    0    0    0    0 -0.00000000000E+00 -0.00000000000E+00 -0.45593999997E+02  0.45594000000E+02  0.51100000000E-03 0. -1.
    9900012    2    1    2    0    0 -0.24971031445E+01  0.20317332290E+02  0.38270016100E+02  0.47787266737E+02  0.19999980362E+02 0.  0.
         12    1    1    2    0    0  0.24971031445E+01 -0.20317332290E+02 -0.38270016100E+02  0.43400733263E+02  0.00000000000E+00 0. -1.
         11    1    3    3    0    0  0.15106072121E+01 -0.32763256940E+00  0.55912484918E+01  0.58009772632E+01  0.51100000000E-03 0. -1.
        -11    1    3    3    0    0  0.24280952809E+01  0.40569293405E+01  0.18899230733E+02  0.19481664326E+02  0.51100000000E-03 0.  1.
         12    1    3    3    0    0 -0.64358056376E+01  0.16588035518E+02  0.13779536875E+02  0.22504625148E+02  0.00000000000E+00 0. -1.
</event>
<event>
 7    1  0.2387817E-009  0.4778727E+02  0.7816164E-02  0.1312668E+00
        -11   -1    0    0    0    0  0.00000000000E+00  0.00000000000E+00  0.45593999997E+02  0.45594000000E+02  0.51100000000E-03 0.  1.
         11   -1    0    0    0    0 -0.00000000000E+00 -0.00000000000E+00 -0.45593999997E+02  0.45594000000E+02  0.51100000000E-03 0. -1.
    9900012    2    1    2    0    0  0.26336240441E+02 -0.24139721289E+02  0.24643447004E+02  0.47787272072E+02  0.20000004684E+02 0.  0.
         12    1    1    2    0    0 -0.26336240441E+02  0.24139721289E+02 -0.24643447004E+02  0.43400727928E+02  0.00000000000E+00 0. -1.
         11    1    3    3    0    0 -0.25687665892E+01 -0.54880497903E+01  0.27079966976E+01  0.66370549693E+01  0.51100000000E-03 0. -1.
        -11    1    3    3    0    0  0.81264159541E+01 -0.59673311146E+01  0.93268311896E+01  0.13734535201E+02  0.51100000000E-03 0.  1.
         12    1    3    3    0    0  0.20778591076E+02 -0.12684340384E+02  0.12608619116E+02  0.27415681901E+02  0.00000000000E+00 0. -1.
</event>
<event>
 7    1  0.2387817E-009  0.4778727E+02  0.7816164E-02  0.1312668E+00
        -11   -1    0    0    0    0  0.00000000000E+00  0.00000000000E+00  0.45593999997E+02  0.45594000000E+02  0.51100000000E-03 0.  1.
         11   -1    0    0    0    0 -0.00000000000E+00 -0.00000000000E+00 -0.45593999997E+02  0.45594000000E+02  0.51100000000E-03 0. -1.
    9900012    2    1    2    0    0  0.14231756296E+02  0.28194524259E+02  0.29768260069E+02  0.47787269672E+02  0.19999993743E+02 0.  0.
         12    1    1    2    0    0 -0.14231756296E+02 -0.28194524259E+02 -0.29768260069E+02  0.43400730328E+02  0.00000000000E+00 0. -1.
         11    1    3    3    0    0  0.41231543675E+01  0.57215777137E+01  0.97677693792E+01  0.12047662528E+02  0.51100000000E-03 0. -1.
        -11    1    3    3    0    0  0.13369491350E+02  0.17556265024E+02  0.10223521468E+02  0.24320487907E+02  0.51100000000E-03 0.  1.
         12    1    3    3    0    0 -0.32608894216E+01  0.49166815210E+01  0.97769692219E+01  0.11419119238E+02  0.00000000000E+00 0. -1.
</event>
<event>
 7    1  0.2387817E-009  0.4778727E+02  0.7816164E-02  0.1312668E+00
        -11   -1    0    0    0    0  0.00000000000E+00  0.00000000000E+00  0.45593999997E+02  0.45594000000E+02  0.51100000000E-03 0. -1.
         11   -1    0    0    0    0 -0.00000000000E+00 -0.00000000000E+00 -0.45593999997E+02  0.45594000000E+02  0.51100000000E-03 0.  1.
    9900012    2    1    2    0    0  0.23338743310E+02  0.26179599424E+02 -0.25564718241E+02  0.47787272080E+02  0.20000004720E+02 0.  0.
         12    1    1    2    0    0 -0.23338743310E+02 -0.26179599424E+02  0.25564718241E+02  0.43400727920E+02  0.00000000000E+00 0. -1.
         11    1    3    3    0    0  0.82483082835E+01  0.16977707576E+02 -0.16244677796E+02  0.24903146408E+02  0.51100000000E-03 0. -1.
        -11    1    3    3    0    0  0.24364676550E+01  0.48180434381E+01 -0.76862668181E+01  0.93930088399E+01  0.51100000000E-03 0.  1.
         12    1    3    3    0    0  0.12653967371E+02  0.43838484098E+01 -0.16337736273E+01  0.13491116832E+02  0.00000000000E+00 0. -1.
</event>
<event>
 7    1  0.2387817E-009  0.4778727E+02  0.7816164E-02  0.1312668E+00
        -11   -1    0    0    0    0  0.00000000000E+00  0.00000000000E+00  0.45593999997E+02  0.45594000000E+02  0.51100000000E-03 0.  1.
         11   -1    0    0    0    0 -0.00000000000E+00 -0.00000000000E+00 -0.45593999997E+02  0.45594000000E+02  0.51100000000E-03 0. -1.
    9900012    2    1    2    0    0 -0.12560145826E+02 -0.11845492993E+02  0.39818971112E+02  0.47787269271E+02  0.19999991914E+02 0.  0.
         12    1    1    2    0    0  0.12560145826E+02  0.11845492993E+02 -0.39818971112E+02  0.43400730729E+02  0.00000000000E+00 0. -1.
         11    1    3    3    0    0 -0.11262045108E+02 -0.64321335813E+01  0.13830909551E+02  0.18960486853E+02  0.51100000000E-03 0. -1.
        -11    1    3    3    0    0 -0.86429628238E+00 -0.69846131783E+01  0.75679332694E+01  0.10334671913E+02  0.51100000000E-03 0.  1.
         12    1    3    3    0    0 -0.43380443630E+00  0.15712537670E+01  0.18420128291E+02  0.18492110506E+02  0.00000000000E+00 0. -1.
</event>
<event>
 7    1  0.2387817E-009  0.4778727E+02  0.7816164E-02  0.1312668E+00
        -11   -1    0    0    0    0  0.00000000000E+00  0.00000000000E+00  0.45593999997E+02  0.45594000000E+02  0.51100000000E-03 0.  1.
         11   -1    0    0    0    0 -0.00000000000E+00 -0.00000000000E+00 -0.45593999997E+02  0.45594000000E+02  0.51100000000E-03 0. -1.
    9900012    2    1    2    0    0  0.36224917612E+01  0.26185967937E+02  0.34420861445E+02  0.47787273439E+02  0.20000010920E+02 0.  0.
         12    1    1    2    0    0 -0.36224917612E+01 -0.26185967937E+02 -0.34420861445E+02  0.43400726561E+02  0.00000000000E+00 0. -1.
         11    1    3    3    0    0 -0.16249859723E+01  0.53758501904E+01  0.13076959360E+02  0.14231908201E+02  0.51100000000E-03 0. -1.
        -11    1    3    3    0    0  0.50060825314E+01  0.69886711475E+01  0.17025889331E+02  0.19073103955E+02  0.51100000000E-03 0.  1.
         12    1    3    3    0    0  0.24139520205E+00  0.13821446599E+02  0.43180127546E+01  0.14482261283E+02  0.00000000000E+00 0. -1.
</event>
<event>
 7    1  0.2387817E-009  0.4778727E+02  0.7816164E-02  0.1312668E+00
        -11   -1    0    0    0    0  0.00000000000E+00  0.00000000000E+00  0.45593999997E+02  0.45594000000E+02  0.51100000000E-03 0.  1.
         11   -1    0    0    0    0 -0.00000000000E+00 -0.00000000000E+00 -0.45593999997E+02  0.45594000000E+02  0.51100000000E-03 0. -1.
    9900012    2    1    2    0    0  0.11626174292E+02 -0.17342204224E+02  0.38048697206E+02  0.47787270339E+02  0.19999996785E+02 0.  0.
         12    1    1    2    0    0 -0.11626174292E+02  0.17342204224E+02 -0.38048697206E+02  0.43400729661E+02  0.00000000000E+00 0. -1.
         11    1    3    3    0    0  0.93819361937E+01 -0.79759686026E+01  0.12813003277E+02  0.17771039787E+02  0.51100000000E-03 0. -1.
        -11    1    3    3    0    0  0.35676447406E+01 -0.23033699710E+01  0.52140960108E+00  0.42784892721E+01  0.51100000000E-03 0.  1.
        -12    1    3    3    0    0 -0.13234066422E+01 -0.70628656504E+01  0.24714284328E+02  0.25737741280E+02  0.00000000000E+00 0.  1.
</event>
<event>
 7    1  0.2387817E-009  0.4778727E+02  0.7816164E-02  0.1312668E+00
        -11   -1    0    0    0    0  0.00000000000E+00  0.00000000000E+00  0.45593999997E+02  0.45594000000E+02  0.51100000000E-03 0.  1.
         11   -1    0    0    0    0 -0.00000000000E+00 -0.00000000000E+00 -0.45593999997E+02  0.45594000000E+02  0.51100000000E-03 0. -1.
    9900012    2    1    2    0    0  0.24264713324E+01 -0.31133265681E+02  0.30140592206E+02  0.47787270817E+02  0.19999998962E+02 0.  0.
         12    1    1    2    0    0 -0.24264713324E+01  0.31133265681E+02 -0.30140592206E+02  0.43400729183E+02  0.00000000000E+00 0. -1.
         11    1    3    3    0    0  0.82159301789E+00 -0.34595202587E+00  0.99080469639E+00  0.13328136024E+01  0.51100000000E-03 0. -1.
        -11    1    3    3    0    0  0.55592027149E+00 -0.29344036750E+02  0.31790934295E+02  0.43267135840E+02  0.51100000000E-03 0.  1.
         12    1    3    3    0    0  0.10489580430E+01 -0.14432769055E+01 -0.26411467858E+01  0.31873213748E+01  0.00000000000E+00 0. -1.
</event>
<event>
 7    1  0.2387817E-009  0.4778728E+02  0.7816164E-02  0.1312668E+00
        -11   -1    0    0    0    0  0.00000000000E+00  0.00000000000E+00  0.45593999997E+02  0.45594000000E+02  0.51100000000E-03 0.  1.
         11   -1    0    0    0    0 -0.00000000000E+00 -0.00000000000E+00 -0.45593999997E+02  0.45594000000E+02  0.51100000000E-03 0. -1.
    9900012    2    1    2    0    0  0.36332523112E+02  0.22987786940E+02  0.59272310121E+01  0.47787278214E+02  0.20000032687E+02 0.  0.
         12    1    1    2    0    0 -0.36332523112E+02 -0.22987786940E+02 -0.59272310121E+01  0.43400721786E+02  0.00000000000E+00 0. -1.
         11    1    3    3    0    0 -0.87008196556E+00 -0.12630721633E+01 -0.13913604951E-01  0.15338147756E+01  0.51100000000E-03 0. -1.
        -11    1    3    3    0    0  0.77620366566E+01  0.40937774801E+01 -0.33344768907E+01  0.93875962584E+01  0.51100000000E-03 0.  1.
        -12    1    3    3    0    0  0.29440568421E+02  0.20157081623E+02  0.92756215077E+01  0.36865867179E+02  0.00000000000E+00 0.  1.
</event>
<event>
 7    1  0.2387817E-009  0.4778727E+02  0.7816164E-02  0.1312668E+00
        -11   -1    0    0    0    0  0.00000000000E+00  0.00000000000E+00  0.45593999997E+02  0.45594000000E+02  0.51100000000E-03 0.  1.
         11   -1    0    0    0    0 -0.00000000000E+00 -0.00000000000E+00 -0.45593999997E+02  0.45594000000E+02  0.51100000000E-03 0. -1.
    9900012    2    1    2    0    0  0.35533522806E+01 -0.25772269737E+02  0.34738841298E+02  0.47787270806E+02  0.19999998914E+02 0.  0.
         12    1    1    2    0    0 -0.35533522806E+01  0.25772269737E+02 -0.34738841298E+02  0.43400729194E+02  0.00000000000E+00 0. -1.
         11    1    3    3    0    0  0.32254825644E+00 -0.10350502552E+02  0.83532206007E+01  0.13304632093E+02  0.51100000000E-03 0. -1.
        -11    1    3    3    0    0  0.75442514629E+01 -0.14567157166E+02  0.14813972468E+02  0.22103655322E+02  0.51100000000E-03 0.  1.
         12    1    3    3    0    0 -0.43134474388E+01 -0.85461001973E+00  0.11571648228E+02  0.12378983392E+02  0.00000000000E+00 0. -1.
</event>
<event>
 7    1  0.2387817E-009  0.4778731E+02  0.7816164E-02  0.1312668E+00
        -11   -1    0    0    0    0  0.00000000000E+00  0.00000000000E+00  0.45593999997E+02  0.45594000000E+02  0.51100000000E-03 0.  1.
         11   -1    0    0    0    0 -0.00000000000E+00 -0.00000000000E+00 -0.45593999997E+02  0.45594000000E+02  0.51100000000E-03 0. -1.
    9900012    2    1    2    0    0  0.16786515088E+02 -0.28095931678E+02  0.28503538324E+02  0.47787306888E+02  0.20000163424E+02 0.  0.
         12    1    1    2    0    0 -0.16786515088E+02  0.28095931678E+02 -0.28503538324E+02  0.43400693112E+02  0.00000000000E+00 0. -1.
         11    1    3    3    0    0  0.11510901870E+02 -0.84472606573E+01  0.72650914233E+01  0.16019944698E+02  0.51100000000E-03 0. -1.
        -11    1    3    3    0    0  0.75505000643E+01 -0.56308597966E+01  0.81889681442E+01  0.12481018901E+02  0.51100000000E-03 0.  1.
        -12    1    3    3    0    0 -0.22748868465E+01 -0.14017811224E+02  0.13049478756E+02  0.19286343290E+02  0.00000000000E+00 0.  1.
</event>
<event>
 7    1  0.2387817E-009  0.4778729E+02  0.7816164E-02  0.1312668E+00
        -11   -1    0    0    0    0  0.00000000000E+00  0.00000000000E+00  0.45593999997E+02  0.45594000000E+02  0.51100000000E-03 0.  1.
         11   -1    0    0    0    0 -0.00000000000E+00 -0.00000000000E+00 -0.45593999997E+02  0.45594000000E+02  0.51100000000E-03 0. -1.
    9900012    2    1    2    0    0  0.99601851473E+01  0.10379846514E+02  0.40947221683E+02  0.47787291880E+02  0.20000094995E+02 0.  0.
         12    1    1    2    0    0 -0.99601851473E+01 -0.10379846514E+02 -0.40947221683E+02  0.43400708120E+02  0.00000000000E+00 0. -1.
         11    1    3    3    0    0 -0.53720777590E+00 -0.75095434421E+00 -0.10693035876E+01  0.14127756528E+01  0.51100000000E-03 0. -1.
        -11    1    3    3    0    0  0.76283687465E+01  0.35229300230E+01  0.87597374520E+01  0.12138206052E+02  0.51100000000E-03 0.  1.
        -12    1    3    3    0    0  0.28690241768E+01  0.76078708357E+01  0.33256787818E+02  0.34236310174E+02  0.00000000000E+00 0.  1.
</event>
<event>
 7    1  0.2420654E-009  0.4778727E+02  0.7816164E-02  0.1312668E+00
        -11   -1    0    0    0    0  0.00000000000E+00  0.00000000000E+00  0.45593999997E+02  0.45594000000E+02  0.51100000000E-03 0. -1.
         11   -1    0    0    0    0 -0.00000000000E+00 -0.00000000000E+00 -0.45593999997E+02  0.45594000000E+02  0.51100000000E-03 0.  1.
    9900012    2    1    2    0    0 -0.28110019446E+02 -0.92747771472E+01 -0.31740023075E+02  0.47787265569E+02  0.19999975034E+02 0.  0.
         12    1    1    2    0    0  0.28110019446E+02  0.92747771472E+01  0.31740023075E+02  0.43400734431E+02  0.00000000000E+00 0. -1.
         11    1    3    3    0    0 -0.10146332280E+02 -0.41829927001E+01 -0.88666335229E+01  0.14108957331E+02  0.51100000000E-03 0. -1.
        -11    1    3    3    0    0 -0.15024780639E+02 -0.72193007784E+01 -0.24555757272E+02  0.29679076004E+02  0.51100000000E-03 0.  1.
         12    1    3    3    0    0 -0.29389065267E+01  0.21275163313E+01  0.16823677204E+01  0.39992322337E+01  0.00000000000E+00 0. -1.
</event>
<event>
 7    1  0.2387817E-009  0.4778728E+02  0.7816164E-02  0.1312668E+00
        -11   -1    0    0    0    0  0.00000000000E+00  0.00000000000E+00  0.45593999997E+02  0.45594000000E+02  0.51100000000E-03 0.  1.
         11   -1    0    0    0    0 -0.00000000000E+00 -0.00000000000E+00 -0.45593999997E+02  0.45594000000E+02  0.51100000000E-03 0. -1.
    9900012    2    1    2    0    0  0.82627633001E+00 -0.26438834147E+02  0.34408256306E+02  0.47787276669E+02  0.20000025645E+02 0.  0.
         12    1    1    2    0    0 -0.82627633001E+00  0.26438834147E+02 -0.34408256306E+02  0.43400723331E+02  0.00000000000E+00 0. -1.
         11    1    3    3    0    0  0.42891193418E+01 -0.90466543732E+00  0.47492897297E+01  0.64630269596E+01  0.51100000000E-03 0. -1.
        -11    1    3    3    0    0 -0.56059562810E+00 -0.42842540092E+01  0.14316536762E+02  0.14954341343E+02  0.51100000000E-03 0.  1.
        -12    1    3    3    0    0 -0.29022473837E+01 -0.21249914701E+02  0.15342429814E+02  0.26369908366E+02  0.00000000000E+00 0.  1.
</event>
<event>
 7    1  0.2387817E-009  0.4778727E+02  0.7816164E-02  0.1312668E+00
        -11   -1    0    0    0    0  0.00000000000E+00  0.00000000000E+00  0.45593999997E+02  0.45594000000E+02  0.51100000000E-03 0. -1.
         11   -1    0    0    0    0 -0.00000000000E+00 -0.00000000000E+00 -0.45593999997E+02  0.45594000000E+02  0.51100000000E-03 0.  1.
    9900012    2    1    2    0    0  0.29551399646E+02  0.30325446585E+02 -0.95239542368E+01  0.47787266874E+02  0.19999980984E+02 0.  0.
         12    1    1    2    0    0 -0.29551399646E+02 -0.30325446585E+02  0.95239542368E+01  0.43400733126E+02  0.00000000000E+00 0. -1.
         11    1    3    3    0    0  0.11119559116E+01  0.53681152030E+01 -0.74375543904E+00  0.55322942073E+01  0.51100000000E-03 0.  1.
        -11    1    3    3    0    0  0.13564548397E+02  0.21022959763E+02 -0.97173160347E+01  0.26840045485E+02  0.51100000000E-03 0. -1.
         12    1    3    3    0    0  0.14874895336E+02  0.39343716190E+01  0.93711723692E+00  0.15414927182E+02  0.00000000000E+00 0. -1.
</event>
<event>
 7    1  0.2387817E-009  0.4778726E+02  0.7816164E-02  0.1312668E+00
        -11   -1    0    0    0    0  0.00000000000E+00  0.00000000000E+00  0.45593999997E+02  0.45594000000E+02  0.51100000000E-03 0.  1.
         11   -1    0    0    0    0 -0.00000000000E+00 -0.00000000000E+00 -0.45593999997E+02  0.45594000000E+02  0.51100000000E-03 0. -1.
    9900012    2    1    2    0    0  0.26699277013E+02  0.31714729295E+02  0.12843246399E+02  0.47787257779E+02  0.19999939518E+02 0.  0.
         12    1    1    2    0    0 -0.26699277013E+02 -0.31714729295E+02 -0.12843246399E+02  0.43400742221E+02  0.00000000000E+00 0. -1.
         11    1    3    3    0    0 -0.99311658080E+00  0.16026522998E-01  0.15940183738E+01  0.18781459554E+01  0.51100000000E-03 0. -1.
        -11    1    3    3    0    0 -0.14843160296E+01  0.33844152575E+01  0.20439986159E+01  0.42231968122E+01  0.51100000000E-03 0.  1.
        -12    1    3    3    0    0  0.29176709623E+02  0.28314287515E+02  0.92052294093E+01  0.41685915012E+02  0.00000000000E+00 0.  1.
</event>
<event>
 7    1  0.2387817E-009  0.4778728E+02  0.7816164E-02  0.1312668E+00
        -11   -1    0    0    0    0  0.00000000000E+00  0.00000000000E+00  0.45593999997E+02  0.45594000000E+02  0.51100000000E-03 0.  1.
         11   -1    0    0    0    0 -0.00000000000E+00 -0.00000000000E+00 -0.45593999997E+02  0.45594000000E+02  0.51100000000E-03 0. -1.
    9900012    2    1    2    0    0  0.15282263856E+02 -0.40615356838E+02  0.68397193536E+00  0.47787278609E+02  0.20000034491E+02 0.  0.
         12    1    1    2    0    0 -0.15282263856E+02  0.40615356838E+02 -0.68397193536E+00  0.43400721391E+02  0.00000000000E+00 0. -1.
         11    1    3    3    0    0  0.32546612027E+01 -0.27199042908E+02  0.20199676930E+01  0.27467453912E+02  0.51100000000E-03 0. -1.
        -11    1    3    3    0    0  0.12236975125E+01 -0.20284672383E+01  0.31988427100E+01  0.39805414058E+01  0.51100000000E-03 0.  1.
        -12    1    3    3    0    0  0.10803905141E+02 -0.11387846691E+02 -0.45348384676E+01  0.16339283292E+02  0.00000000000E+00 0.  1.
</event>
<event>
 7    1  0.2387817E-009  0.4778727E+02  0.7816164E-02  0.1312668E+00
        -11   -1    0    0    0    0  0.00000000000E+00  0.00000000000E+00  0.45593999997E+02  0.45594000000E+02  0.51100000000E-03 0. -1.
         11   -1    0    0    0    0 -0.00000000000E+00 -0.00000000000E+00 -0.45593999997E+02  0.45594000000E+02  0.51100000000E-03 0.  1.
    9900012    2    1    2    0    0  0.18359191540E+01  0.31315775183E+02 -0.29992914713E+02  0.47787270657E+02  0.19999998236E+02 0.  0.
         12    1    1    2    0    0 -0.18359191540E+01 -0.31315775183E+02  0.29992914713E+02  0.43400729343E+02  0.00000000000E+00 0. -1.
         11    1    3    3    0    0  0.23427450493E+01 -0.76213496648E+00 -0.37986973538E+01  0.45276269634E+01  0.51100000000E-03 0. -1.
        -11    1    3    3    0    0 -0.91545830204E+00  0.11110768389E+01 -0.62732639456E+01  0.64363340837E+01  0.51100000000E-03 0.  1.
        -12    1    3    3    0    0  0.40863240674E+00  0.30966833311E+02 -0.19920953414E+02  0.36823309610E+02  0.00000000000E+00 0.  1.
</event>
<event>
 7    1  0.2387817E-009  0.4778727E+02  0.7816164E-02  0.1312668E+00
        -11   -1    0    0    0    0  0.00000000000E+00  0.00000000000E+00  0.45593999997E+02  0.45594000000E+02  0.51100000000E-03 0. -1.
         11   -1    0    0    0    0 -0.00000000000E+00 -0.00000000000E+00 -0.45593999997E+02  0.45594000000E+02  0.51100000000E-03 0.  1.
    9900012    2    1    2    0    0  0.26229808563E+00  0.25153838472E+02 -0.35367203015E+02  0.47787269139E+02  0.19999991310E+02 0.  0.
         12    1    1    2    0    0 -0.26229808563E+00 -0.25153838472E+02  0.35367203015E+02  0.43400730861E+02  0.00000000000E+00 0. -1.
         11    1    3    3    0    0 -0.26799547240E+01  0.47047808782E+01 -0.10559527493E+01  0.55165348639E+01  0.51100000000E-03 0. -1.
        -11    1    3    3    0    0 -0.43429050328E+01  0.30151601170E+01 -0.11451024402E+02  0.12612611734E+02  0.51100000000E-03 0.  1.
         12    1    3    3    0    0  0.72851578425E+01  0.17433897477E+02 -0.22860225865E+02  0.29658122540E+02  0.00000000000E+00 0. -1.
</event>
<event>
 7    1  0.2387817E-009  0.4778727E+02  0.7816164E-02  0.1312668E+00
        -11   -1    0    0    0    0  0.00000000000E+00  0.00000000000E+00  0.45593999997E+02  0.45594000000E+02  0.51100000000E-03 0.  1.
         11   -1    0    0    0    0 -0.00000000000E+00 -0.00000000000E+00 -0.45593999997E+02  0.45594000000E+02  0.51100000000E-03 0. -1.
    9900012    2    1    2    0    0  0.29712983865E+02  0.12934401274E+02  0.28869762294E+02  0.47787270497E+02  0.19999997503E+02 0.  0.
         12    1    1    2    0    0 -0.29712983865E+02 -0.12934401274E+02 -0.28869762294E+02  0.43400729503E+02  0.00000000000E+00 0. -1.
         11    1    3    3    0    0  0.25861879855E+01 -0.19716427268E+01  0.73583392423E+01  0.80449300807E+01  0.51100000000E-03 0. -1.
        -11    1    3    3    0    0  0.12987033536E+02  0.10643862126E+02  0.17891619722E+02  0.24537010770E+02  0.51100000000E-03 0.  1.
        -12    1    3    3    0    0  0.14139762344E+02  0.42621818744E+01  0.36198033303E+01  0.15205329646E+02  0.00000000000E+00 0.  1.
</event>
<event>
 7    1 -0.1291882E-008  0.4778729E+02  0.7816164E-02  0.1312668E+00
        -11   -1    0    0    0    0  0.00000000000E+00  0.00000000000E+00  0.45593999997E+02  0.45594000000E+02  0.51100000000E-03 0.  1.
         11   -1    0    0    0    0 -0.00000000000E+00 -0.00000000000E+00 -0.45593999997E+02  0.45594000000E+02  0.51100000000E-03 0. -1.
    9900012    2    1    2    0    0  0.17911589762E+02 -0.95762651950E+01  0.38354814354E+02  0.47787289326E+02  0.20000083352E+02 0.  0.
         12    1    1    2    0    0 -0.17911589762E+02  0.95762651950E+01 -0.38354814354E+02  0.43400710674E+02  0.00000000000E+00 0. -1.
         11    1    3    3    0    0  0.33209064079E+01  0.18079145357E+01  0.20112352232E+01  0.42827609930E+01  0.51100000000E-03 0. -1.
        -11    1    3    3    0    0  0.15687668428E+02 -0.10458968806E+02  0.21518345777E+02  0.28610001301E+02  0.51100000000E-03 0.  1.
        -12    1    3    3    0    0 -0.10969850747E+01 -0.92521092525E+00  0.14825233354E+02  0.14894527032E+02  0.00000000000E+00 0.  1.
</event>
<event>
 7    1  0.2684422E-009  0.4778727E+02  0.7816164E-02  0.1312668E+00
        -11   -1    0    0    0    0  0.00000000000E+00  0.00000000000E+00  0.45593999997E+02  0.45594000000E+02  0.51100000000E-03 0.  1.
         11   -1    0    0    0    0 -0.00000000000E+00 -0.00000000000E+00 -0.45593999997E+02  0.45594000000E+02  0.51100000000E-03 0. -1.
    9900012    2    1    2    0    0 -0.23424850817E+02  0.35418457528E+02 -0.89684422789E+01  0.47787265831E+02  0.19999976230E+02 0.  0.
         12    1    1    2    0    0  0.23424850817E+02 -0.35418457528E+02  0.89684422789E+01  0.43400734169E+02  0.00000000000E+00 0. -1.
         11    1    3    3    0    0 -0.24848876285E+01  0.11301607468E+02  0.14397319679E+01  0.11660781547E+02  0.51100000000E-03 0. -1.
        -11    1    3    3    0    0 -0.15525468319E+02  0.24006525469E+02 -0.61649912416E+01  0.29246547640E+02  0.51100000000E-03 0.  1.
         12    1    3    3    0    0 -0.54144948695E+01  0.11032459157E+00 -0.42431830051E+01  0.68799366438E+01  0.00000000000E+00 0. -1.
</event>
<event>
 7    1  0.2387817E-009  0.4778729E+02  0.7816164E-02  0.1312668E+00
        -11   -1    0    0    0    0  0.00000000000E+00  0.00000000000E+00  0.45593999997E+02  0.45594000000E+02  0.51100000000E-03 0.  1.
         11   -1    0    0    0    0 -0.00000000000E+00 -0.00000000000E+00 -0.45593999997E+02  0.45594000000E+02  0.51100000000E-03 0. -1.
    9900012    2    1    2    0    0  0.10458258052E+02  0.47649855801E+00  0.42119111032E+02  0.47787288871E+02  0.20000081278E+02 0.  0.
         12    1    1    2    0    0 -0.10458258052E+02 -0.47649855801E+00 -0.42119111032E+02  0.43400711129E+02  0.00000000000E+00 0. -1.
         11    1    3    3    0    0  0.17890067610E+01  0.10655415679E+01  0.11939185125E+02  0.12119408638E+02  0.51100000000E-03 0. -1.
        -11    1    3    3    0    0  0.13083564340E+02 -0.22861217698E+01  0.26616652832E+02  0.29746465620E+02  0.51100000000E-03 0.  1.
         12    1    3    3    0    0 -0.44143130496E+01  0.16970787599E+01  0.35632730746E+01  0.59214146132E+01  0.00000000000E+00 0. -1.
</event>
<event>
 7    1  0.2387817E-009  0.4778728E+02  0.7816164E-02  0.1312668E+00
        -11   -1    0    0    0    0  0.00000000000E+00  0.00000000000E+00  0.45593999997E+02  0.45594000000E+02  0.51100000000E-03 0.  1.
         11   -1    0    0    0    0 -0.00000000000E+00 -0.00000000000E+00 -0.45593999997E+02  0.45594000000E+02  0.51100000000E-03 0. -1.
    9900012    2    1    2    0    0 -0.39875034251E+01 -0.39743557042E+02  0.16975641892E+02  0.47787275034E+02  0.20000018192E+02 0.  0.
         12    1    1    2    0    0  0.39875034251E+01  0.39743557042E+02 -0.16975641892E+02  0.43400724966E+02  0.00000000000E+00 0. -1.
         11    1    3    3    0    0 -0.11359634021E+01  0.11313237920E+01  0.30825272935E+00  0.16325827328E+01  0.51100000000E-03 0. -1.
        -11    1    3    3    0    0 -0.46911365596E+00 -0.94888907286E+01  0.10352689586E+02  0.14051238266E+02  0.51100000000E-03 0.  1.
        -12    1    3    3    0    0 -0.23824263671E+01 -0.31385990105E+02  0.63146995766E+01  0.32103454036E+02  0.00000000000E+00 0.  1.
</event>
<event>
 7    1  0.2387817E-009  0.4778727E+02  0.7816164E-02  0.1312668E+00
        -11   -1    0    0    0    0  0.00000000000E+00  0.00000000000E+00  0.45593999997E+02  0.45594000000E+02  0.51100000000E-03 0.  1.
         11   -1    0    0    0    0 -0.00000000000E+00 -0.00000000000E+00 -0.45593999997E+02  0.45594000000E+02  0.51100000000E-03 0. -1.
    9900012    2    1    2    0    0 -0.16908814607E+01 -0.13167699854E+02  0.41320410416E+02  0.47787265945E+02  0.19999976749E+02 0.  0.
         12    1    1    2    0    0  0.16908814607E+01  0.13167699854E+02 -0.41320410416E+02  0.43400734055E+02  0.00000000000E+00 0. -1.
         11    1    3    3    0    0  0.42895628651E+00  0.99622378920E+00 -0.37030175359E+00  0.11461190967E+01  0.51100000000E-03 0. -1.
        -11    1    3    3    0    0 -0.30040639828E+01 -0.97367035482E+01  0.88641575403E+01  0.13505594602E+02  0.51100000000E-03 0.  1.
        -12    1    3    3    0    0  0.88422623565E+00 -0.44272200946E+01  0.32826554630E+02  0.33135552246E+02  0.00000000000E+00 0.  1.
</event>
<event>
 7    1  0.2387817E-009  0.4778727E+02  0.7816164E-02  0.1312668E+00
        -11   -1    0    0    0    0  0.00000000000E+00  0.00000000000E+00  0.45593999997E+02  0.45594000000E+02  0.51100000000E-03 0. -1.
         11   -1    0    0    0    0 -0.00000000000E+00 -0.00000000000E+00 -0.45593999997E+02  0.45594000000E+02  0.51100000000E-03 0.  1.
    9900012    2    1    2    0    0 -0.20090915834E+02  0.95618077659E+00 -0.38458598179E+02  0.47787274722E+02  0.20000016769E+02 0.  0.
         12    1    1    2    0    0  0.20090915834E+02 -0.95618077659E+00  0.38458598179E+02  0.43400725278E+02  0.00000000000E+00 0. -1.
         11    1    3    3    0    0 -0.13504632292E+02  0.34500237103E+01 -0.17876683301E+02  0.22668338339E+02  0.51100000000E-03 0. -1.
        -11    1    3    3    0    0 -0.37643489417E+01  0.33609510541E+01 -0.19915317124E+01  0.54251740770E+01  0.51100000000E-03 0.  1.
        -12    1    3    3    0    0 -0.28219345999E+01 -0.58547939879E+01 -0.18590383166E+02  0.19693762307E+02  0.00000000000E+00 0.  1.
</event>
<event>
 7    1  0.2387817E-009  0.4778727E+02  0.7816164E-02  0.1312668E+00
        -11   -1    0    0    0    0  0.00000000000E+00  0.00000000000E+00  0.45593999997E+02  0.45594000000E+02  0.51100000000E-03 0. -1.
         11   -1    0    0    0    0 -0.00000000000E+00 -0.00000000000E+00 -0.45593999997E+02  0.45594000000E+02  0.51100000000E-03 0.  1.
    9900012    2    1    2    0    0 -0.21805251853E+02  0.36066166478E+02 -0.10362718628E+02  0.47787270627E+02  0.19999998096E+02 0.  0.
         12    1    1    2    0    0  0.21805251853E+02 -0.36066166478E+02  0.10362718628E+02  0.43400729373E+02  0.00000000000E+00 0. -1.
         11    1    3    3    0    0 -0.13344759753E+02  0.95766205102E+01 -0.16029902283E+01  0.16503449676E+02  0.51100000000E-03 0. -1.
        -11    1    3    3    0    0 -0.33627144032E+01  0.82128356620E+01  0.25001435943E+01  0.92200453373E+01  0.51100000000E-03 0.  1.
         12    1    3    3    0    0 -0.50977776967E+01  0.18276710305E+02 -0.11259871994E+02  0.22063775614E+02  0.00000000000E+00 0. -1.
</event>
<event>
 7    1  0.2387817E-009  0.4778727E+02  0.7816164E-02  0.1312668E+00
        -11   -1    0    0    0    0  0.00000000000E+00  0.00000000000E+00  0.45593999997E+02  0.45594000000E+02  0.51100000000E-03 0. -1.
         11   -1    0    0    0    0 -0.00000000000E+00 -0.00000000000E+00 -0.45593999997E+02  0.45594000000E+02  0.51100000000E-03 0.  1.
    9900012    2    1    2    0    0 -0.57434067338E+01  0.35854430836E+02 -0.23771751113E+02  0.47787273250E+02  0.20000010054E+02 0.  0.
         12    1    1    2    0    0  0.57434067338E+01 -0.35854430836E+02  0.23771751113E+02  0.43400726750E+02  0.00000000000E+00 0. -1.
         11    1    3    3    0    0 -0.10446363386E+00  0.16869082082E+02 -0.60618131037E+01  0.17925468510E+02  0.51100000000E-03 0.  1.
        -11    1    3    3    0    0 -0.32655131342E+00  0.76605602825E+01 -0.15312930618E+02  0.17125322303E+02  0.51100000000E-03 0. -1.
         12    1    3    3    0    0 -0.53123917865E+01  0.11324788472E+02 -0.23970073906E+01  0.12736482437E+02  0.00000000000E+00 0. -1.
</event>
<event>
 7    1  0.2387817E-009  0.4778728E+02  0.7816164E-02  0.1312668E+00
        -11   -1    0    0    0    0  0.00000000000E+00  0.00000000000E+00  0.45593999997E+02  0.45594000000E+02  0.51100000000E-03 0. -1.
         11   -1    0    0    0    0 -0.00000000000E+00 -0.00000000000E+00 -0.45593999997E+02  0.45594000000E+02  0.51100000000E-03 0.  1.
    9900012    2    1    2    0    0  0.37716116611E+02  0.67056482216E+01 -0.20399791804E+02  0.47787277933E+02  0.20000031405E+02 0.  0.
         12    1    1    2    0    0 -0.37716116611E+02 -0.67056482216E+01  0.20399791804E+02  0.43400722067E+02  0.00000000000E+00 0. -1.
         11    1    3    3    0    0  0.60058084920E+01 -0.34063479179E+01 -0.20913532045E-01  0.69045911839E+01  0.51100000000E-03 0. -1.
        -11    1    3    3    0    0  0.11490877723E+02 -0.19448881528E+01 -0.45315011782E+01  0.12504293821E+02  0.51100000000E-03 0.  1.
        -12    1    3    3    0    0  0.20219430397E+02  0.12056884292E+02 -0.15847377094E+02  0.28378392928E+02  0.00000000000E+00 0.  1.
</event>
<event>
 7    1  0.2387817E-009  0.4778727E+02  0.7816164E-02  0.1312668E+00
        -11   -1    0    0    0    0  0.00000000000E+00  0.00000000000E+00  0.45593999997E+02  0.45594000000E+02  0.51100000000E-03 0.  1.
         11   -1    0    0    0    0 -0.00000000000E+00 -0.00000000000E+00 -0.45593999997E+02  0.45594000000E+02  0.51100000000E-03 0. -1.
    9900012    2    1    2    0    0  0.29226612682E+02 -0.28911531536E+02  0.13912291175E+02  0.47787269703E+02  0.19999993884E+02 0.  0.
         12    1    1    2    0    0 -0.29226612682E+02  0.28911531536E+02 -0.13912291175E+02  0.43400730297E+02  0.00000000000E+00 0. -1.
         11    1    3    3    0    0 -0.24281123015E+01 -0.38565445159E+01 -0.10469423455E+01  0.46759762069E+01  0.51100000000E-03 0. -1.
        -11    1    3    3    0    0  0.13965151426E+02 -0.12419184407E+02  0.72591151994E+01  0.20048849080E+02  0.51100000000E-03 0.  1.
        -12    1    3    3    0    0  0.17689573557E+02 -0.12635802612E+02  0.77001183208E+01  0.23062444416E+02  0.00000000000E+00 0.  1.
</event>
<event>
 7    1  0.2387817E-009  0.4778727E+02  0.7816164E-02  0.1312668E+00
        -11   -1    0    0    0    0  0.00000000000E+00  0.00000000000E+00  0.45593999997E+02  0.45594000000E+02  0.51100000000E-03 0.  1.
         11   -1    0    0    0    0 -0.00000000000E+00 -0.00000000000E+00 -0.45593999997E+02  0.45594000000E+02  0.51100000000E-03 0. -1.
    9900012    2    1    2    0    0  0.17370834661E+02 -0.18826705909E+01  0.39728241331E+02  0.47787268386E+02  0.19999987879E+02 0.  0.
         12    1    1    2    0    0 -0.17370834661E+02  0.18826705909E+01 -0.39728241331E+02  0.43400731614E+02  0.00000000000E+00 0. -1.
         11    1    3    3    0    0  0.70005631056E+01 -0.68798374502E+00  0.10619740105E+02  0.12738135090E+02  0.51100000000E-03 0. -1.
        -11    1    3    3    0    0  0.46218160551E+01 -0.55892282370E+01  0.28176482989E+01  0.77807324931E+01  0.51100000000E-03 0.  1.
        -12    1    3    3    0    0  0.57484555005E+01  0.43945413911E+01  0.26290852927E+02  0.27268400803E+02  0.00000000000E+00 0.  1.
</event>
<event>
 7    1  0.2387817E-009  0.4778727E+02  0.7816164E-02  0.1312668E+00
        -11   -1    0    0    0    0  0.00000000000E+00  0.00000000000E+00  0.45593999997E+02  0.45594000000E+02  0.51100000000E-03 0.  1.
         11   -1    0    0    0    0 -0.00000000000E+00 -0.00000000000E+00 -0.45593999997E+02  0.45594000000E+02  0.51100000000E-03 0. -1.
    9900012    2    1    2    0    0 -0.16139945356E+01 -0.12423542768E+02  0.41553265559E+02  0.47787271067E+02  0.20000000104E+02 0.  0.
         12    1    1    2    0    0  0.16139945356E+01  0.12423542768E+02 -0.41553265559E+02  0.43400728933E+02  0.00000000000E+00 0. -1.
         11    1    3    3    0    0 -0.63984726858E+01 -0.41126629038E+01  0.20394015771E+02  0.21766265835E+02  0.51100000000E-03 0. -1.
        -11    1    3    3    0    0  0.36679395602E+01 -0.35315881879E+01  0.20435091107E+02  0.21059887098E+02  0.51100000000E-03 0.  1.
         12    1    3    3    0    0  0.11165385900E+01 -0.47792916764E+01  0.72415868086E+00  0.49611181346E+01  0.00000000000E+00 0. -1.
</event>
<event>
 7    1  0.2387817E-009  0.4778731E+02  0.7816164E-02  0.1312668E+00
        -11   -1    0    0    0    0  0.00000000000E+00  0.00000000000E+00  0.45593999997E+02  0.45594000000E+02  0.51100000000E-03 0. -1.
         11   -1    0    0    0    0 -0.00000000000E+00 -0.00000000000E+00 -0.45593999997E+02  0.45594000000E+02  0.51100000000E-03 0.  1.
    9900012    2    1    2    0    0 -0.27829955740E+01 -0.99731276893E+01 -0.42147501209E+02  0.47787306475E+02  0.20000161543E+02 0.  0.
         12    1    1    2    0    0  0.27829955740E+01  0.99731276893E+01  0.42147501209E+02  0.43400693525E+02  0.00000000000E+00 0. -1.
         11    1    3    3    0    0  0.22485784762E+00  0.22232840561E+01 -0.10944066374E+02  0.11169876549E+02  0.51100000000E-03 0. -1.
        -11    1    3    3    0    0 -0.35704916472E+01 -0.15278306251E+02 -0.28235347719E+02  0.32301856194E+02  0.51100000000E-03 0.  1.
         12    1    3    3    0    0  0.56263822558E+00  0.30818945057E+01 -0.29680871156E+01  0.43155737328E+01  0.00000000000E+00 0. -1.
</event>
<event>
 7    1  0.2387817E-009  0.4778727E+02  0.7816164E-02  0.1312668E+00
        -11   -1    0    0    0    0  0.00000000000E+00  0.00000000000E+00  0.45593999997E+02  0.45594000000E+02  0.51100000000E-03 0.  1.
         11   -1    0    0    0    0 -0.00000000000E+00 -0.00000000000E+00 -0.45593999997E+02  0.45594000000E+02  0.51100000000E-03 0. -1.
    9900012    2    1    2    0    0 -0.75891890681E+01  0.17120752741E+02  0.39152360228E+02  0.47787271014E+02  0.19999999860E+02 0.  0.
         12    1    1    2    0    0  0.75891890681E+01 -0.17120752741E+02 -0.39152360228E+02  0.43400728986E+02  0.00000000000E+00 0. -1.
         11    1    3    3    0    0  0.12245503768E+01  0.10546251453E+02  0.32281221571E+02  0.33982351445E+02  0.51100000000E-03 0. -1.
        -11    1    3    3    0    0 -0.52374696404E+01  0.26748011530E+01  0.60729891414E+01  0.84538066465E+01  0.51100000000E-03 0.  1.
         12    1    3    3    0    0 -0.35762698044E+01  0.38997001354E+01  0.79814951510E+00  0.53511129224E+01  0.00000000000E+00 0. -1.
</event>
<event>
 7    1  0.2387817E-009  0.4778727E+02  0.7816164E-02  0.1312668E+00
        -11   -1    0    0    0    0  0.00000000000E+00  0.00000000000E+00  0.45593999997E+02  0.45594000000E+02  0.51100000000E-03 0.  1.
         11   -1    0    0    0    0 -0.00000000000E+00 -0.00000000000E+00 -0.45593999997E+02  0.45594000000E+02  0.51100000000E-03 0. -1.
    9900012    2    1    2    0    0 -0.74084055764E+01  0.36523508631E+02  0.22243473015E+02  0.47787271346E+02  0.20000001377E+02 0.  0.
         12    1    1    2    0    0  0.74084055764E+01 -0.36523508631E+02 -0.22243473015E+02  0.43400728654E+02  0.00000000000E+00 0. -1.
         11    1    3    3    0    0 -0.28824034169E+01  0.17512903149E+01  0.18572804701E+00  0.33778339796E+01  0.51100000000E-03 0. -1.
        -11    1    3    3    0    0 -0.10070576529E+02  0.16620655726E+02  0.12988294679E+02  0.23374312981E+02  0.51100000000E-03 0.  1.
         12    1    3    3    0    0  0.55445743694E+01  0.18151562590E+02  0.90694502884E+01  0.21035124386E+02  0.00000000000E+00 0. -1.
</event>
<event>
 7    1  0.2387817E-009  0.4778727E+02  0.7816164E-02  0.1312668E+00
        -11   -1    0    0    0    0  0.00000000000E+00  0.00000000000E+00  0.45593999997E+02  0.45594000000E+02  0.51100000000E-03 0.  1.
         11   -1    0    0    0    0 -0.00000000000E+00 -0.00000000000E+00 -0.45593999997E+02  0.45594000000E+02  0.51100000000E-03 0. -1.
    9900012    2    1    2    0    0 -0.36221746898E+02 -0.93865089988E+01  0.21988668515E+02  0.47787273709E+02  0.20000012149E+02 0.  0.
         12    1    1    2    0    0  0.36221746898E+02  0.93865089988E+01 -0.21988668515E+02  0.43400726291E+02  0.00000000000E+00 0. -1.
         11    1    3    3    0    0 -0.78842071173E+01 -0.17203925374E+01  0.14626571602E+02  0.16705001330E+02  0.51100000000E-03 0. -1.
        -11    1    3    3    0    0 -0.14546475854E+02 -0.33751489654E+01  0.73393973025E+01  0.16639060771E+02  0.51100000000E-03 0.  1.
         12    1    3    3    0    0 -0.13791063926E+02 -0.42909674960E+01  0.22699610732E-01  0.14443211608E+02  0.00000000000E+00 0. -1.
</event>
<event>
 7    1  0.2387817E-009  0.4778727E+02  0.7816164E-02  0.1312668E+00
        -11   -1    0    0    0    0  0.00000000000E+00  0.00000000000E+00  0.45593999997E+02  0.45594000000E+02  0.51100000000E-03 0.  1.
         11   -1    0    0    0    0 -0.00000000000E+00 -0.00000000000E+00 -0.45593999997E+02  0.45594000000E+02  0.51100000000E-03 0. -1.
    9900012    2    1    2    0    0 -0.11542866398E+02  0.21043868365E+02  0.36159935351E+02  0.47787273220E+02  0.20000009918E+02 0.  0.
         12    1    1    2    0    0  0.11542866398E+02 -0.21043868365E+02 -0.36159935351E+02  0.43400726780E+02  0.00000000000E+00 0. -1.
         11    1    3    3    0    0 -0.49247426813E+01  0.37528076375E+01  0.13041425080E+01  0.63275148031E+01  0.51100000000E-03 0. -1.
        -11    1    3    3    0    0 -0.12676050952E+01 -0.16352143277E+01  0.74160582543E+01  0.76992641770E+01  0.51100000000E-03 0.  1.
         12    1    3    3    0    0 -0.53505186217E+01  0.18926275055E+02  0.27439734589E+02  0.33760494240E+02  0.00000000000E+00 0. -1.
</event>
<event>
 7    1  0.2387817E-009  0.4778727E+02  0.7816164E-02  0.1312668E+00
        -11   -1    0    0    0    0  0.00000000000E+00  0.00000000000E+00  0.45593999997E+02  0.45594000000E+02  0.51100000000E-03 0.  1.
         11   -1    0    0    0    0 -0.00000000000E+00 -0.00000000000E+00 -0.45593999997E+02  0.45594000000E+02  0.51100000000E-03 0. -1.
    9900012    2    1    2    0    0 -0.15345168020E+02 -0.38682776771E+02  0.12320378358E+02  0.47787272781E+02  0.20000007918E+02 0.  0.
         12    1    1    2    0    0  0.15345168020E+02  0.38682776771E+02 -0.12320378358E+02  0.43400727219E+02  0.00000000000E+00 0. -1.
         11    1    3    3    0    0 -0.15981622462E+02 -0.32539344582E+02  0.13029923027E+02  0.38522721824E+02  0.51100000000E-03 0. -1.
        -11    1    3    3    0    0 -0.26238534509E+00 -0.67410019740E+01  0.14046339030E+01  0.68907873531E+01  0.51100000000E-03 0.  1.
         12    1    3    3    0    0  0.89883978718E+00  0.59756978530E+00 -0.21141785726E+01  0.23737636041E+01  0.00000000000E+00 0. -1.
</event>
<event>
 7    1  0.2897358E-009  0.4778727E+02  0.7816164E-02  0.1312668E+00
        -11   -1    0    0    0    0  0.00000000000E+00  0.00000000000E+00  0.45593999997E+02  0.45594000000E+02  0.51100000000E-03 0. -1.
         11   -1    0    0    0    0 -0.00000000000E+00 -0.00000000000E+00 -0.45593999997E+02  0.45594000000E+02  0.51100000000E-03 0.  1.
    9900012    2    1    2    0    0 -0.27976357656E+02  0.23761550750E+02 -0.23158917028E+02  0.47787270518E+02  0.19999997598E+02 0.  0.
         12    1    1    2    0    0  0.27976357656E+02 -0.23761550750E+02  0.23158917028E+02  0.43400729482E+02  0.00000000000E+00 0. -1.
         11    1    3    3    0    0 -0.92673241296E+01  0.12711156705E+02 -0.36758652442E+01  0.16154528370E+02  0.51100000000E-03 0. -1.
        -11    1    3    3    0    0 -0.13468423653E+02  0.10647422260E+02 -0.78719619693E+01  0.18887398497E+02  0.51100000000E-03 0.  1.
         12    1    3    3    0    0 -0.52406098734E+01  0.40297178512E+00 -0.11611089814E+02  0.12745343651E+02  0.00000000000E+00 0. -1.
</event>
<event>
 7    1  0.2387817E-009  0.4778727E+02  0.7816164E-02  0.1312668E+00
        -11   -1    0    0    0    0  0.00000000000E+00  0.00000000000E+00  0.45593999997E+02  0.45594000000E+02  0.51100000000E-03 0.  1.
         11   -1    0    0    0    0 -0.00000000000E+00 -0.00000000000E+00 -0.45593999997E+02  0.45594000000E+02  0.51100000000E-03 0. -1.
    9900012    2    1    2    0    0 -0.31731174365E+02  0.28990544970E+02  0.60252903899E+01  0.47787271336E+02  0.20000001330E+02 0.  0.
         12    1    1    2    0    0  0.31731174365E+02 -0.28990544970E+02 -0.60252903899E+01  0.43400728664E+02  0.00000000000E+00 0. -1.
         11    1    3    3    0    0 -0.53821401568E+00  0.63097060997E+00  0.26676620382E+01  0.27936032733E+01  0.51100000000E-03 0. -1.
        -11    1    3    3    0    0 -0.63234678948E+01 -0.89222133211E+00  0.14666110381E+01  0.65523471612E+01  0.51100000000E-03 0.  1.
        -12    1    3    3    0    0 -0.24869492455E+02  0.29251795692E+02  0.18910173136E+01  0.38441320902E+02  0.00000000000E+00 0.  1.
</event>
<event>
 7    1  0.2387817E-009  0.4778727E+02  0.7816164E-02  0.1312668E+00
        -11   -1    0    0    0    0  0.00000000000E+00  0.00000000000E+00  0.45593999997E+02  0.45594000000E+02  0.51100000000E-03 0. -1.
         11   -1    0    0    0    0 -0.00000000000E+00 -0.00000000000E+00 -0.45593999997E+02  0.45594000000E+02  0.51100000000E-03 0.  1.
    9900012    2    1    2    0    0  0.38141448009E+02 -0.10384022453E+02 -0.17917181485E+02  0.47787269927E+02  0.19999994904E+02 0.  0.
         12    1    1    2    0    0 -0.38141448009E+02  0.10384022453E+02  0.17917181485E+02  0.43400730073E+02  0.00000000000E+00 0. -1.
         11    1    3    3    0    0  0.17422796489E+01 -0.51191245702E+01 -0.32752642149E+01  0.63220511449E+01  0.51100000000E-03 0. -1.
        -11    1    3    3    0    0  0.69576904662E+01 -0.51035709951E+01 -0.68294009086E+01  0.11004390513E+02  0.51100000000E-03 0.  1.
        -12    1    3    3    0    0  0.29441477894E+02 -0.16132688795E+00 -0.78125163611E+01  0.30460828269E+02  0.00000000000E+00 0.  1.
</event>
<event>
 7    1  0.2387817E-009  0.4778727E+02  0.7816164E-02  0.1312668E+00
        -11   -1    0    0    0    0  0.00000000000E+00  0.00000000000E+00  0.45593999997E+02  0.45594000000E+02  0.51100000000E-03 0.  1.
         11   -1    0    0    0    0 -0.00000000000E+00 -0.00000000000E+00 -0.45593999997E+02  0.45594000000E+02  0.51100000000E-03 0. -1.
    9900012    2    1    2    0    0 -0.30537305986E+02 -0.27199188171E+02  0.14536185700E+02  0.47787267417E+02  0.19999983460E+02 0.  0.
         12    1    1    2    0    0  0.30537305986E+02  0.27199188171E+02 -0.14536185700E+02  0.43400732583E+02  0.00000000000E+00 0. -1.
         11    1    3    3    0    0  0.94240058146E+00 -0.18356514969E+01  0.22819550918E+01  0.30765328823E+01  0.51100000000E-03 0. -1.
        -11    1    3    3    0    0 -0.19868833532E+02 -0.20198425180E+02  0.14465451299E+02  0.31811887829E+02  0.51100000000E-03 0.  1.
        -12    1    3    3    0    0 -0.11610873036E+02 -0.51651114934E+01 -0.22112206906E+01  0.12898846706E+02  0.00000000000E+00 0.  1.
</event>
<event>
 7    1  0.2387817E-009  0.4778729E+02  0.7816164E-02  0.1312668E+00
        -11   -1    0    0    0    0  0.00000000000E+00  0.00000000000E+00  0.45593999997E+02  0.45594000000E+02  0.51100000000E-03 0.  1.
         11   -1    0    0    0    0 -0.00000000000E+00 -0.00000000000E+00 -0.45593999997E+02  0.45594000000E+02  0.51100000000E-03 0. -1.
    9900012    2    1    2    0    0 -0.15115919414E+02 -0.21894860437E+01  0.40624333918E+02  0.47787292919E+02  0.20000099733E+02 0.  0.
         12    1    1    2    0    0  0.15115919414E+02  0.21894860437E+01 -0.40624333918E+02  0.43400707081E+02  0.00000000000E+00 0. -1.
         11    1    3    3    0    0 -0.30694606304E+01  0.48157259651E+00 -0.74482594998E+00  0.31950378220E+01  0.51100000000E-03 0. -1.
        -11    1    3    3    0    0 -0.13557879282E+02 -0.32894863516E+01  0.29748615935E+02  0.32857525187E+02  0.51100000000E-03 0.  1.
         12    1    3    3    0    0  0.15114204986E+01  0.61842771147E+00  0.11620543933E+02  0.11734729910E+02  0.00000000000E+00 0. -1.
</event>
<event>
 7    1  0.2387817E-009  0.4778727E+02  0.7816164E-02  0.1312668E+00
        -11   -1    0    0    0    0  0.00000000000E+00  0.00000000000E+00  0.45593999997E+02  0.45594000000E+02  0.51100000000E-03 0.  1.
         11   -1    0    0    0    0 -0.00000000000E+00 -0.00000000000E+00 -0.45593999997E+02  0.45594000000E+02  0.51100000000E-03 0. -1.
    9900012    2    1    2    0    0 -0.13455007375E+02  0.23719851643E+02  0.33763212310E+02  0.47787273152E+02  0.20000009607E+02 0.  0.
         12    1    1    2    0    0  0.13455007375E+02 -0.23719851643E+02 -0.33763212310E+02  0.43400726848E+02  0.00000000000E+00 0. -1.
         11    1    3    3    0    0 -0.43701407909E+00  0.32596314807E+01  0.82464872641E+01  0.88781040292E+01  0.51100000000E-03 0. -1.
        -11    1    3    3    0    0  0.31172274608E+00  0.14179902783E+02  0.91107562167E+01  0.16857422493E+02  0.51100000000E-03 0.  1.
         12    1    3    3    0    0 -0.13329716042E+02  0.62803173792E+01  0.16405968830E+02  0.22051746629E+02  0.00000000000E+00 0. -1.
</event>
<event>
 7    1  0.2387817E-009  0.4778727E+02  0.7816164E-02  0.1312668E+00
        -11   -1    0    0    0    0  0.00000000000E+00  0.00000000000E+00  0.45593999997E+02  0.45594000000E+02  0.51100000000E-03 0.  1.
         11   -1    0    0    0    0 -0.00000000000E+00 -0.00000000000E+00 -0.45593999997E+02  0.45594000000E+02  0.51100000000E-03 0. -1.
    9900012    2    1    2    0    0  0.38837475612E+02  0.28451135563E+01  0.19161920570E+02  0.47787269787E+02  0.19999994266E+02 0.  0.
         12    1    1    2    0    0 -0.38837475612E+02 -0.28451135563E+01 -0.19161920570E+02  0.43400730213E+02  0.00000000000E+00 0. -1.
         11    1    3    3    0    0  0.78310003568E+01 -0.16080671928E+01 -0.31305421799E+01  0.85854959837E+01  0.51100000000E-03 0. -1.
        -11    1    3    3    0    0  0.11887633107E+02  0.35812338002E+01  0.49213110480E+01  0.13355162264E+02  0.51100000000E-03 0.  1.
        -12    1    3    3    0    0  0.19118842149E+02  0.87194694891E+00  0.17371151702E+02  0.25846611539E+02  0.00000000000E+00 0.  1.
</event>
<event>
 7    1  0.2387817E-009  0.4778727E+02  0.7816164E-02  0.1312668E+00
        -11   -1    0    0    0    0  0.00000000000E+00  0.00000000000E+00  0.45593999997E+02  0.45594000000E+02  0.51100000000E-03 0.  1.
         11   -1    0    0    0    0 -0.00000000000E+00 -0.00000000000E+00 -0.45593999997E+02  0.45594000000E+02  0.51100000000E-03 0. -1.
    9900012    2    1    2    0    0 -0.44737812524E+01  0.23408047758E+02  0.36272190844E+02  0.47787271352E+02  0.20000001403E+02 0.  0.
         12    1    1    2    0    0  0.44737812524E+01 -0.23408047758E+02 -0.36272190844E+02  0.43400728648E+02  0.00000000000E+00 0. -1.
         11    1    3    3    0    0  0.48402593858E+01  0.46909580612E+01  0.72247114561E+01  0.98807719506E+01  0.51100000000E-03 0. -1.
        -11    1    3    3    0    0  0.24420295263E+01  0.60486293345E+01  0.11841062267E+02  0.13518882384E+02  0.51100000000E-03 0.  1.
        -12    1    3    3    0    0 -0.11756070165E+02  0.12668460362E+02  0.17206417120E+02  0.24387617017E+02  0.00000000000E+00 0.  1.
</event>
<event>
 7    1  0.2387817E-009  0.4778724E+02  0.7816164E-02  0.1312668E+00
        -11   -1    0    0    0    0  0.00000000000E+00  0.00000000000E+00  0.45593999997E+02  0.45594000000E+02  0.51100000000E-03 0.  1.
         11   -1    0    0    0    0 -0.00000000000E+00 -0.00000000000E+00 -0.45593999997E+02  0.45594000000E+02  0.51100000000E-03 0. -1.
    9900012    2    1    2    0    0  0.29837622600E+02  0.29484653890E+02  0.11135402109E+02  0.47787242892E+02  0.19999871640E+02 0.  0.
         12    1    1    2    0    0 -0.29837622600E+02 -0.29484653890E+02 -0.11135402109E+02  0.43400757108E+02  0.00000000000E+00 0. -1.
         11    1    3    3    0    0  0.29283871161E+01  0.50522308144E+00 -0.14343656256E+01  0.32997130894E+01  0.51100000000E-03 0. -1.
        -11    1    3    3    0    0  0.24859690940E+02  0.30444474871E+02  0.13834592952E+02  0.41668528246E+02  0.51100000000E-03 0.  1.
        -12    1    3    3    0    0  0.20495445438E+01 -0.14650440625E+01 -0.12648252168E+01  0.28190015557E+01  0.00000000000E+00 0.  1.
</event>
<event>
 7    1  0.2387817E-009  0.4778727E+02  0.7816164E-02  0.1312668E+00
        -11   -1    0    0    0    0  0.00000000000E+00  0.00000000000E+00  0.45593999997E+02  0.45594000000E+02  0.51100000000E-03 0.  1.
         11   -1    0    0    0    0 -0.00000000000E+00 -0.00000000000E+00 -0.45593999997E+02  0.45594000000E+02  0.51100000000E-03 0. -1.
    9900012    2    1    2    0    0 -0.55877572022E+01 -0.35202348059E+02  0.24762773115E+02  0.47787271069E+02  0.20000000111E+02 0.  0.
         12    1    1    2    0    0  0.55877572022E+01  0.35202348059E+02 -0.24762773115E+02  0.43400728931E+02  0.00000000000E+00 0. -1.
         11    1    3    3    0    0 -0.81026396701E+01 -0.86974499020E+01  0.73699550965E+01  0.13986230472E+02  0.51100000000E-03 0. -1.
        -11    1    3    3    0    0 -0.33018660013E+00 -0.34818622893E+01  0.80779851347E+01  0.88026264427E+01  0.51100000000E-03 0.  1.
         12    1    3    3    0    0  0.28450690680E+01 -0.23023035868E+02  0.93148328835E+01  0.24998414154E+02  0.00000000000E+00 0. -1.
</event>
<event>
 7    1  0.2387817E-009  0.4778727E+02  0.7816164E-02  0.1312668E+00
        -11   -1    0    0    0    0  0.00000000000E+00  0.00000000000E+00  0.45593999997E+02  0.45594000000E+02  0.51100000000E-03 0.  1.
         11   -1    0    0    0    0 -0.00000000000E+00 -0.00000000000E+00 -0.45593999997E+02  0.45594000000E+02  0.51100000000E-03 0. -1.
    9900012    2    1    2    0    0  0.42811537088E+02  0.15990551664E+01  0.69454022099E+01  0.47787270777E+02  0.19999998779E+02 0.  0.
         12    1    1    2    0    0 -0.42811537088E+02 -0.15990551664E+01 -0.69454022099E+01  0.43400729223E+02  0.00000000000E+00 0. -1.
         11    1    3    3    0    0  0.15778662891E+02  0.17954295484E+01 -0.52291393252E+00  0.15889090885E+02  0.51100000000E-03 0. -1.
        -11    1    3    3    0    0  0.23121519361E+02  0.29007903749E+00 -0.36820502886E+00  0.23126270314E+02  0.51100000000E-03 0.  1.
         12    1    3    3    0    0  0.39113548354E+01 -0.48645341945E+00  0.78365211713E+01  0.87719095781E+01  0.00000000000E+00 0. -1.
</event>
<event>
 7    1  0.2387817E-009  0.4778727E+02  0.7816164E-02  0.1312668E+00
        -11   -1    0    0    0    0  0.00000000000E+00  0.00000000000E+00  0.45593999997E+02  0.45594000000E+02  0.51100000000E-03 0.  1.
         11   -1    0    0    0    0 -0.00000000000E+00 -0.00000000000E+00 -0.45593999997E+02  0.45594000000E+02  0.51100000000E-03 0. -1.
    9900012    2    1    2    0    0  0.28186247768E+02 -0.85143931376E+01  0.31885174304E+02  0.47787265051E+02  0.19999972672E+02 0.  0.
         12    1    1    2    0    0 -0.28186247768E+02  0.85143931376E+01 -0.31885174304E+02  0.43400734949E+02  0.00000000000E+00 0. -1.
         11    1    3    3    0    0 -0.13991783794E+01 -0.29324220171E+01  0.72402886554E+01  0.79359044285E+01  0.51100000000E-03 0. -1.
        -11    1    3    3    0    0  0.10666873409E+02 -0.43624230060E+01  0.13915038059E+02  0.18067684059E+02  0.51100000000E-03 0.  1.
         12    1    3    3    0    0  0.18918552738E+02 -0.12195481145E+01  0.10729847589E+02  0.21783676563E+02  0.00000000000E+00 0. -1.
</event>
<event>
 7    1  0.2387817E-009  0.4778726E+02  0.7816164E-02  0.1312668E+00
        -11   -1    0    0    0    0  0.00000000000E+00  0.00000000000E+00  0.45593999997E+02  0.45594000000E+02  0.51100000000E-03 0.  1.
         11   -1    0    0    0    0 -0.00000000000E+00 -0.00000000000E+00 -0.45593999997E+02  0.45594000000E+02  0.51100000000E-03 0. -1.
    9900012    2    1    2    0    0 -0.10498756004E+02 -0.50659285928E+01  0.41805938144E+02  0.47787262976E+02  0.19999963214E+02 0.  0.
         12    1    1    2    0    0  0.10498756004E+02  0.50659285928E+01 -0.41805938144E+02  0.43400737024E+02  0.00000000000E+00 0. -1.
         11    1    3    3    0    0 -0.27007624460E+01 -0.93515448897E+00 -0.30673247989E+00  0.28744941787E+01  0.51100000000E-03 0. -1.
        -11    1    3    3    0    0 -0.67499946797E+01  0.19305425448E+01  0.10013098208E+02  0.12229127470E+02  0.51100000000E-03 0.  1.
        -12    1    3    3    0    0 -0.10479988779E+01 -0.60613166487E+01  0.32099572415E+02  0.32683641327E+02  0.00000000000E+00 0.  1.
</event>
<event>
 7    1  0.2387817E-009  0.4778727E+02  0.7816164E-02  0.1312668E+00
        -11   -1    0    0    0    0  0.00000000000E+00  0.00000000000E+00  0.45593999997E+02  0.45594000000E+02  0.51100000000E-03 0.  1.
         11   -1    0    0    0    0 -0.00000000000E+00 -0.00000000000E+00 -0.45593999997E+02  0.45594000000E+02  0.51100000000E-03 0. -1.
    9900012    2    1    2    0    0  0.30498052424E+02 -0.18992009203E+02  0.24347397087E+02  0.47787270051E+02  0.19999995469E+02 0.  0.
         12    1    1    2    0    0 -0.30498052424E+02  0.18992009203E+02 -0.24347397087E+02  0.43400729949E+02  0.00000000000E+00 0. -1.
         11    1    3    3    0    0  0.16350177113E+02 -0.40113856160E+01  0.22528804868E+01  0.16985139886E+02  0.51100000000E-03 0. -1.
        -11    1    3    3    0    0  0.29340478916E+01 -0.11366261064E+01  0.12612454096E+01  0.33898814405E+01  0.51100000000E-03 0.  1.
        -12    1    3    3    0    0  0.11213827419E+02 -0.13843997481E+02  0.20833271191E+02  0.27412248725E+02  0.00000000000E+00 0.  1.
</event>
<event>
 7    1  0.2387817E-009  0.4778727E+02  0.7816164E-02  0.1312668E+00
        -11   -1    0    0    0    0  0.00000000000E+00  0.00000000000E+00  0.45593999997E+02  0.45594000000E+02  0.51100000000E-03 0.  1.
         11   -1    0    0    0    0 -0.00000000000E+00 -0.00000000000E+00 -0.45593999997E+02  0.45594000000E+02  0.51100000000E-03 0. -1.
    9900012    2    1    2    0    0  0.14865770247E+02 -0.18185845506E+02  0.36495304022E+02  0.47787270542E+02  0.19999997711E+02 0.  0.
         12    1    1    2    0    0 -0.14865770247E+02  0.18185845506E+02 -0.36495304022E+02  0.43400729458E+02  0.00000000000E+00 0. -1.
         11    1    3    3    0    0  0.70025398509E+01 -0.46060128041E+01  0.43881086500E+01  0.94607830596E+01  0.51100000000E-03 0. -1.
        -11    1    3    3    0    0 -0.74926931905E-01 -0.59405677810E+01  0.20027907523E+01  0.62695399085E+01  0.51100000000E-03 0.  1.
        -12    1    3    3    0    0  0.79381573280E+01 -0.76392649211E+01  0.30104404619E+02  0.32056947574E+02  0.00000000000E+00 0.  1.
</event>
<event>
 7    1  0.2387817E-009  0.4778728E+02  0.7816164E-02  0.1312668E+00
        -11   -1    0    0    0    0  0.00000000000E+00  0.00000000000E+00  0.45593999997E+02  0.45594000000E+02  0.51100000000E-03 0.  1.
         11   -1    0    0    0    0 -0.00000000000E+00 -0.00000000000E+00 -0.45593999997E+02  0.45594000000E+02  0.51100000000E-03 0. -1.
    9900012    2    1    2    0    0  0.77497092805E+01  0.20132329224E+02  0.37659709050E+02  0.47787281577E+02  0.20000048021E+02 0.  0.
         12    1    1    2    0    0 -0.77497092805E+01 -0.20132329224E+02 -0.37659709050E+02  0.43400718423E+02  0.00000000000E+00 0. -1.
         11    1    3    3    0    0  0.55160626349E+00  0.70437227935E+01  0.42916957431E+01  0.82666167731E+01  0.51100000000E-03 0. -1.
        -11    1    3    3    0    0  0.25436441862E+01  0.15397808379E+01 -0.86240816333E+00  0.30959326343E+01  0.51100000000E-03 0.  1.
        -12    1    3    3    0    0  0.46544588308E+01  0.11548825592E+02  0.34230421470E+02  0.36424732169E+02  0.00000000000E+00 0.  1.
</event>
<event>
 7    1  0.2387817E-009  0.4778727E+02  0.7816164E-02  0.1312668E+00
        -11   -1    0    0    0    0  0.00000000000E+00  0.00000000000E+00  0.45593999997E+02  0.45594000000E+02  0.51100000000E-03 0.  1.
         11   -1    0    0    0    0 -0.00000000000E+00 -0.00000000000E+00 -0.45593999997E+02  0.45594000000E+02  0.51100000000E-03 0. -1.
    9900012    2    1    2    0    0  0.17835815138E+02 -0.36171933599E+02  0.16034275653E+02  0.47787273305E+02  0.20000010308E+02 0.  0.
         12    1    1    2    0    0 -0.17835815138E+02  0.36171933599E+02 -0.16034275653E+02  0.43400726695E+02  0.00000000000E+00 0. -1.
         11    1    3    3    0    0  0.40112822291E+01  0.14651604974E-01  0.18080470541E+01  0.43999584318E+01  0.51100000000E-03 0. -1.
        -11    1    3    3    0    0  0.15046961067E+02 -0.22387108770E+02  0.11202228783E+02  0.29207595012E+02  0.51100000000E-03 0.  1.
        -12    1    3    3    0    0 -0.12224281579E+01 -0.13799476434E+02  0.30239998153E+01  0.14179719861E+02  0.00000000000E+00 0.  1.
</event>
<event>
 7    1  0.2387817E-009  0.4778728E+02  0.7816164E-02  0.1312668E+00
        -11   -1    0    0    0    0  0.00000000000E+00  0.00000000000E+00  0.45593999997E+02  0.45594000000E+02  0.51100000000E-03 0. -1.
         11   -1    0    0    0    0 -0.00000000000E+00 -0.00000000000E+00 -0.45593999997E+02  0.45594000000E+02  0.51100000000E-03 0.  1.
    9900012    2    1    2    0    0  0.27423889011E+02  0.24810025609E+02 -0.22715981510E+02  0.47787275638E+02  0.20000020943E+02 0.  0.
         12    1    1    2    0    0 -0.27423889011E+02 -0.24810025609E+02  0.22715981510E+02  0.43400724362E+02  0.00000000000E+00 0. -1.
         11    1    3    3    0    0  0.13113701571E+01  0.66660331019E+01 -0.99647413367E+00  0.68664874546E+01  0.51100000000E-03 0. -1.
        -11    1    3    3    0    0  0.53913633337E+01  0.77102230950E+01 -0.13192504299E+02  0.16203595549E+02  0.51100000000E-03 0.  1.
        -12    1    3    3    0    0  0.20721155521E+02  0.10433769412E+02 -0.85270030771E+01  0.24717192634E+02  0.00000000000E+00 0.  1.
</event>
<event>
 7    1  0.2387817E-009  0.4778727E+02  0.7816164E-02  0.1312668E+00
        -11   -1    0    0    0    0  0.00000000000E+00  0.00000000000E+00  0.45593999997E+02  0.45594000000E+02  0.51100000000E-03 0.  1.
         11   -1    0    0    0    0 -0.00000000000E+00 -0.00000000000E+00 -0.45593999997E+02  0.45594000000E+02  0.51100000000E-03 0. -1.
    9900012    2    1    2    0    0 -0.66678725203E+01  0.21526215982E+02  0.37091573566E+02  0.47787270420E+02  0.19999997154E+02 0.  0.
         12    1    1    2    0    0  0.66678725203E+01 -0.21526215982E+02 -0.37091573566E+02  0.43400729580E+02  0.00000000000E+00 0. -1.
         11    1    3    3    0    0 -0.72037823372E+00  0.10326190687E+02  0.83187675668E+01  0.13279723378E+02  0.51100000000E-03 0. -1.
        -11    1    3    3    0    0  0.17793487531E+00  0.11154519448E+02  0.10830755753E+02  0.15548640949E+02  0.51100000000E-03 0.  1.
         12    1    3    3    0    0 -0.61254291619E+01  0.45505847381E-01  0.17942050247E+02  0.18958906093E+02  0.00000000000E+00 0. -1.
</event>
<event>
 7    1  0.2387817E-009  0.4778727E+02  0.7816164E-02  0.1312668E+00
        -11   -1    0    0    0    0  0.00000000000E+00  0.00000000000E+00  0.45593999997E+02  0.45594000000E+02  0.51100000000E-03 0.  1.
         11   -1    0    0    0    0 -0.00000000000E+00 -0.00000000000E+00 -0.45593999997E+02  0.45594000000E+02  0.51100000000E-03 0. -1.
    9900012    2    1    2    0    0 -0.28804800932E+02  0.20964282052E+02  0.24787208873E+02  0.47787269564E+02  0.19999993249E+02 0.  0.
         12    1    1    2    0    0  0.28804800932E+02 -0.20964282052E+02 -0.24787208873E+02  0.43400730436E+02  0.00000000000E+00 0. -1.
         11    1    3    3    0    0 -0.74644875268E+01 -0.40434367645E-01  0.51433831292E+01  0.90650206426E+01  0.51100000000E-03 0. -1.
        -11    1    3    3    0    0 -0.10229338827E+02  0.73731530560E+00  0.61385013744E+01  0.11952581565E+02  0.51100000000E-03 0.  1.
        -12    1    3    3    0    0 -0.11110974578E+02  0.20267401114E+02  0.13505324369E+02  0.26769667356E+02  0.00000000000E+00 0.  1.
</event>
<event>
 7    1  0.2387817E-009  0.4778725E+02  0.7816164E-02  0.1312668E+00
        -11   -1    0    0    0    0  0.00000000000E+00  0.00000000000E+00  0.45593999997E+02  0.45594000000E+02  0.51100000000E-03 0. -1.
         11   -1    0    0    0    0 -0.00000000000E+00 -0.00000000000E+00 -0.45593999997E+02  0.45594000000E+02  0.51100000000E-03 0.  1.
    9900012    2    1    2    0    0 -0.32267927197E+02  0.13420640853E+02 -0.25735034739E+02  0.47787254159E+02  0.19999923015E+02 0.  0.
         12    1    1    2    0    0  0.32267927197E+02 -0.13420640853E+02  0.25735034739E+02  0.43400745841E+02  0.00000000000E+00 0. -1.
         11    1    3    3    0    0 -0.15797100497E+02  0.61425810339E+01 -0.69766479011E+01  0.18329028945E+02  0.51100000000E-03 0. -1.
        -11    1    3    3    0    0 -0.18676264324E+02  0.80642658475E+01 -0.17259307905E+02  0.26678061068E+02  0.51100000000E-03 0.  1.
        -12    1    3    3    0    0  0.22054376238E+01 -0.78620602848E+00 -0.14990789327E+01  0.27801641459E+01  0.00000000000E+00 0.  1.
</event>
<event>
 7    1  0.2387817E-009  0.4778727E+02  0.7816164E-02  0.1312668E+00
        -11   -1    0    0    0    0  0.00000000000E+00  0.00000000000E+00  0.45593999997E+02  0.45594000000E+02  0.51100000000E-03 0.  1.
         11   -1    0    0    0    0 -0.00000000000E+00 -0.00000000000E+00 -0.45593999997E+02  0.45594000000E+02  0.51100000000E-03 0. -1.
    9900012    2    1    2    0    0  0.40270456168E+02  0.54480081042E+00  0.16174565009E+02  0.47787274187E+02  0.20000014328E+02 0.  0.
         12    1    1    2    0    0 -0.40270456168E+02 -0.54480081042E+00 -0.16174565009E+02  0.43400725813E+02  0.00000000000E+00 0. -1.
         11    1    3    3    0    0  0.27653323862E+02  0.28446242051E+01  0.11472002631E+02  0.30073327919E+02  0.51100000000E-03 0. -1.
        -11    1    3    3    0    0  0.89734096693E+01 -0.11723425490E+01  0.84394941175E+01  0.12374228435E+02  0.51100000000E-03 0.  1.
        -12    1    3    3    0    0  0.36437226364E+01 -0.11274808457E+01 -0.37369317398E+01  0.53397178330E+01  0.00000000000E+00 0.  1.
</event>
<event>
 7    1  0.2387817E-009  0.4778726E+02  0.7816164E-02  0.1312668E+00
        -11   -1    0    0    0    0  0.00000000000E+00  0.00000000000E+00  0.45593999997E+02  0.45594000000E+02  0.51100000000E-03 0.  1.
         11   -1    0    0    0    0 -0.00000000000E+00 -0.00000000000E+00 -0.45593999997E+02  0.45594000000E+02  0.51100000000E-03 0. -1.
    9900012    2    1    2    0    0  0.74996262610E+01  0.37085007979E+02  0.21262210323E+02  0.47787264998E+02  0.19999972434E+02 0.  0.
         12    1    1    2    0    0 -0.74996262610E+01 -0.37085007979E+02 -0.21262210323E+02  0.43400735002E+02  0.00000000000E+00 0. -1.
         11    1    3    3    0    0  0.53197782339E-01 -0.42365574015E+00  0.43151899622E+01  0.43362632371E+01  0.51100000000E-03 0. -1.
        -11    1    3    3    0    0 -0.31401710272E+01  0.63180055063E+01  0.34652130099E+01  0.78603797060E+01  0.51100000000E-03 0.  1.
        -12    1    3    3    0    0  0.10586599506E+02  0.31190658213E+02  0.13481807351E+02  0.35590622055E+02  0.00000000000E+00 0.  1.
</event>
<event>
 7    1  0.3495043E-009  0.4778727E+02  0.7816164E-02  0.1312668E+00
        -11   -1    0    0    0    0  0.00000000000E+00  0.00000000000E+00  0.45593999997E+02  0.45594000000E+02  0.51100000000E-03 0. -1.
         11   -1    0    0    0    0 -0.00000000000E+00 -0.00000000000E+00 -0.45593999997E+02  0.45594000000E+02  0.51100000000E-03 0.  1.
    9900012    2    1    2    0    0 -0.36643429349E+02  0.73158201040E+00 -0.23245367872E+02  0.47787271272E+02  0.20000001036E+02 0.  0.
         12    1    1    2    0    0  0.36643429349E+02 -0.73158201040E+00  0.23245367872E+02  0.43400728728E+02  0.00000000000E+00 0. -1.
         11    1    3    3    0    0 -0.14627283741E+02  0.31381330225E+01 -0.35090045107E+01  0.15366145301E+02  0.51100000000E-03 0. -1.
        -11    1    3    3    0    0 -0.19936441264E+02 -0.39339083801E+01 -0.10583968869E+02  0.22911955889E+02  0.51100000000E-03 0.  1.
         12    1    3    3    0    0 -0.20797043444E+01  0.15273573680E+01 -0.91523944922E+01  0.95091700811E+01  0.00000000000E+00 0. -1.
</event>
<event>
 7    1  0.2387817E-009  0.4778728E+02  0.7816164E-02  0.1312668E+00
        -11   -1    0    0    0    0  0.00000000000E+00  0.00000000000E+00  0.45593999997E+02  0.45594000000E+02  0.51100000000E-03 0.  1.
         11   -1    0    0    0    0 -0.00000000000E+00 -0.00000000000E+00 -0.45593999997E+02  0.45594000000E+02  0.51100000000E-03 0. -1.
    9900012    2    1    2    0    0 -0.69738544252E+01 -0.22106601515E+02  0.36691775117E+02  0.47787276073E+02  0.20000022929E+02 0.  0.
         12    1    1    2    0    0  0.69738544252E+01  0.22106601515E+02 -0.36691775117E+02  0.43400723927E+02  0.00000000000E+00 0. -1.
         11    1    3    3    0    0 -0.64230570149E+01 -0.25068139702E+02  0.28254753228E+02  0.38314466847E+02  0.51100000000E-03 0. -1.
        -11    1    3    3    0    0 -0.86870350584E+00 -0.37875719590E+00  0.16935090249E+01  0.19406380067E+01  0.51100000000E-03 0.  1.
         12    1    3    3    0    0  0.31790609556E+00  0.33402953826E+01  0.67435128644E+01  0.75321712196E+01  0.00000000000E+00 0. -1.
</event>
<event>
 7    1  0.2387817E-009  0.4778727E+02  0.7816164E-02  0.1312668E+00
        -11   -1    0    0    0    0  0.00000000000E+00  0.00000000000E+00  0.45593999997E+02  0.45594000000E+02  0.51100000000E-03 0.  1.
         11   -1    0    0    0    0 -0.00000000000E+00 -0.00000000000E+00 -0.45593999997E+02  0.45594000000E+02  0.51100000000E-03 0. -1.
    9900012    2    1    2    0    0  0.32570118617E+02 -0.28334593630E+02  0.44678102287E+01  0.47787272458E+02  0.20000006445E+02 0.  0.
         12    1    1    2    0    0 -0.32570118617E+02  0.28334593630E+02 -0.44678102287E+01  0.43400727542E+02  0.00000000000E+00 0. -1.
         11    1    3    3    0    0  0.24355422465E+01  0.16685707334E+01  0.28548057108E+01  0.41068126612E+01  0.51100000000E-03 0. -1.
        -11    1    3    3    0    0  0.12951143683E+02 -0.65309329508E+01 -0.50699408057E+00  0.14513519599E+02  0.51100000000E-03 0.  1.
         12    1    3    3    0    0  0.17183432688E+02 -0.23472231413E+02  0.21199985985E+01  0.29166940198E+02  0.00000000000E+00 0. -1.
</event>
<event>
 7    1  0.2387817E-009  0.4778727E+02  0.7816164E-02  0.1312668E+00
        -11   -1    0    0    0    0  0.00000000000E+00  0.00000000000E+00  0.45593999997E+02  0.45594000000E+02  0.51100000000E-03 0. -1.
         11   -1    0    0    0    0 -0.00000000000E+00 -0.00000000000E+00 -0.45593999997E+02  0.45594000000E+02  0.51100000000E-03 0.  1.
    9900012    2    1    2    0    0 -0.12676134048E+02  0.20080406824E+02 -0.36327899940E+02  0.47787269284E+02  0.19999991975E+02 0.  0.
         12    1    1    2    0    0  0.12676134048E+02 -0.20080406824E+02  0.36327899940E+02  0.43400730716E+02  0.00000000000E+00 0. -1.
         11    1    3    3    0    0  0.13169355811E+01  0.81555645407E+01 -0.85856374731E+01  0.11914727164E+02  0.51100000000E-03 0. -1.
        -11    1    3    3    0    0 -0.72104044478E+01  0.11557989859E+02 -0.10072131718E+02  0.16941809215E+02  0.51100000000E-03 0.  1.
         12    1    3    3    0    0 -0.67826651817E+01  0.36685242467E+00 -0.17670130749E+02  0.18930732906E+02  0.00000000000E+00 0. -1.
</event>
<event>
 7    1  0.2387817E-009  0.4778727E+02  0.7816164E-02  0.1312668E+00
        -11   -1    0    0    0    0  0.00000000000E+00  0.00000000000E+00  0.45593999997E+02  0.45594000000E+02  0.51100000000E-03 0.  1.
         11   -1    0    0    0    0 -0.00000000000E+00 -0.00000000000E+00 -0.45593999997E+02  0.45594000000E+02  0.51100000000E-03 0. -1.
    9900012    2    1    2    0    0 -0.37095525882E+02  0.67640145216E+01  0.21489381649E+02  0.47787268940E+02  0.19999990403E+02 0.  0.
         12    1    1    2    0    0  0.37095525882E+02 -0.67640145216E+01 -0.21489381649E+02  0.43400731060E+02  0.00000000000E+00 0. -1.
         11    1    3    3    0    0 -0.11786798637E+02  0.68681446155E+01  0.33674168407E+01  0.14051317697E+02  0.51100000000E-03 0. -1.
        -11    1    3    3    0    0 -0.18506948307E+02  0.21596362081E+01  0.58600576398E+01  0.19532317835E+02  0.51100000000E-03 0.  1.
        -12    1    3    3    0    0 -0.68017789380E+01 -0.22637663020E+01  0.12261907168E+02  0.14203633408E+02  0.00000000000E+00 0.  1.
</event>
<event>
 7    1  0.2387817E-009  0.4778726E+02  0.7816164E-02  0.1312668E+00
        -11   -1    0    0    0    0  0.00000000000E+00  0.00000000000E+00  0.45593999997E+02  0.45594000000E+02  0.51100000000E-03 0. -1.
         11   -1    0    0    0    0 -0.00000000000E+00 -0.00000000000E+00 -0.45593999997E+02  0.45594000000E+02  0.51100000000E-03 0.  1.
    9900012    2    1    2    0    0  0.74353688799E+01 -0.22037230185E+02 -0.36642865293E+02  0.47787264966E+02  0.19999972287E+02 0.  0.
         12    1    1    2    0    0 -0.74353688799E+01  0.22037230185E+02  0.36642865293E+02  0.43400735034E+02  0.00000000000E+00 0. -1.
         11    1    3    3    0    0 -0.28481586978E+01 -0.59998668707E+01 -0.18237868170E+02  0.19409540079E+02  0.51100000000E-03 0. -1.
        -11    1    3    3    0    0  0.52898134290E+01 -0.88757958817E+01 -0.16457862293E+02  0.19432527117E+02  0.51100000000E-03 0.  1.
        -12    1    3    3    0    0  0.49937141487E+01 -0.71615674331E+01 -0.19471348296E+01  0.89451977698E+01  0.00000000000E+00 0.  1.
</event>
<event>
 7    1  0.2387817E-009  0.4778727E+02  0.7816164E-02  0.1312668E+00
        -11   -1    0    0    0    0  0.00000000000E+00  0.00000000000E+00  0.45593999997E+02  0.45594000000E+02  0.51100000000E-03 0.  1.
         11   -1    0    0    0    0 -0.00000000000E+00 -0.00000000000E+00 -0.45593999997E+02  0.45594000000E+02  0.51100000000E-03 0. -1.
    9900012    2    1    2    0    0 -0.19206131866E+02  0.36358192978E+02  0.13886321076E+02  0.47787267162E+02  0.19999982299E+02 0.  0.
         12    1    1    2    0    0  0.19206131866E+02 -0.36358192978E+02 -0.13886321076E+02  0.43400732838E+02  0.00000000000E+00 0. -1.
         11    1    3    3    0    0 -0.11396651313E+02  0.43518875588E+01  0.37317138671E+01  0.12757283218E+02  0.51100000000E-03 0. -1.
        -11    1    3    3    0    0 -0.64625338838E+01  0.13484816430E+02  0.47221180422E+01  0.15681295145E+02  0.51100000000E-03 0.  1.
         12    1    3    3    0    0 -0.13469466691E+01  0.18521488989E+02  0.54324891661E+01  0.19348688799E+02  0.00000000000E+00 0. -1.
</event>
<event>
 7    1  0.2387817E-009  0.4778728E+02  0.7816164E-02  0.1312668E+00
        -11   -1    0    0    0    0  0.00000000000E+00  0.00000000000E+00  0.45593999997E+02  0.45594000000E+02  0.51100000000E-03 0. -1.
         11   -1    0    0    0    0 -0.00000000000E+00 -0.00000000000E+00 -0.45593999997E+02  0.45594000000E+02  0.51100000000E-03 0.  1.
    9900012    2    1    2    0    0 -0.24401329769E+02 -0.13474349232E+02 -0.33266195145E+02  0.47787277412E+02  0.20000029034E+02 0.  0.
         12    1    1    2    0    0  0.24401329769E+02  0.13474349232E+02  0.33266195145E+02  0.43400722588E+02  0.00000000000E+00 0. -1.
         11    1    3    3    0    0 -0.82069877013E+01 -0.96731148949E+01 -0.10637675452E+02  0.16555480609E+02  0.51100000000E-03 0. -1.
        -11    1    3    3    0    0 -0.25927268909E+01 -0.32228850238E+01 -0.15138657572E+02  0.15693571103E+02  0.51100000000E-03 0.  1.
        -12    1    3    3    0    0 -0.13601615177E+02 -0.57834931293E+00 -0.74898621208E+01  0.15538225701E+02  0.00000000000E+00 0.  1.
</event>
<event>
 7    1  0.2387817E-009  0.4778727E+02  0.7816164E-02  0.1312668E+00
        -11   -1    0    0    0    0  0.00000000000E+00  0.00000000000E+00  0.45593999997E+02  0.45594000000E+02  0.51100000000E-03 0.  1.
         11   -1    0    0    0    0 -0.00000000000E+00 -0.00000000000E+00 -0.45593999997E+02  0.45594000000E+02  0.51100000000E-03 0. -1.
    9900012    2    1    2    0    0 -0.19998216500E+02  0.25353008970E+02  0.28998614706E+02  0.47787269800E+02  0.19999994326E+02 0.  0.
         12    1    1    2    0    0  0.19998216500E+02 -0.25353008970E+02 -0.28998614706E+02  0.43400730200E+02  0.00000000000E+00 0. -1.
         11    1    3    3    0    0 -0.22699739960E+00  0.49124546243E+01 -0.55653880536E+00  0.49490881946E+01  0.51100000000E-03 0. -1.
        -11    1    3    3    0    0 -0.72078631608E+01  0.51643908005E+01  0.22961257755E+01  0.91594987594E+01  0.51100000000E-03 0.  1.
        -12    1    3    3    0    0 -0.12563355939E+02  0.15276163546E+02  0.27259027736E+02  0.33678682846E+02  0.00000000000E+00 0.  1.
</event>
<event>
 7    1  0.2387817E-009  0.4778729E+02  0.7816164E-02  0.1312668E+00
        -11   -1    0    0    0    0  0.00000000000E+00  0.00000000000E+00  0.45593999997E+02  0.45594000000E+02  0.51100000000E-03 0. -1.
         11   -1    0    0    0    0 -0.00000000000E+00 -0.00000000000E+00 -0.45593999997E+02  0.45594000000E+02  0.51100000000E-03 0.  1.
    9900012    2    1    2    0    0  0.13983627581E+02  0.13834988708E+02 -0.38686859427E+02  0.47787287504E+02  0.20000075044E+02 0.  0.
         12    1    1    2    0    0 -0.13983627581E+02 -0.13834988708E+02  0.38686859427E+02  0.43400712496E+02  0.00000000000E+00 0. -1.
         11    1    3    3    0    0 -0.11009083882E+01  0.18922727403E+01  0.53470482362E+00  0.22535760276E+01  0.51100000000E-03 0. -1.
        -11    1    3    3    0    0  0.63152360303E+01  0.31904796749E+01 -0.38499977823E+01  0.80550512015E+01  0.51100000000E-03 0.  1.
        -12    1    3    3    0    0  0.87692999387E+01  0.87522362927E+01 -0.35371566468E+02  0.37478660274E+02  0.00000000000E+00 0.  1.
</event>
<event>
 7    1  0.2387817E-009  0.4778727E+02  0.7816164E-02  0.1312668E+00
        -11   -1    0    0    0    0  0.00000000000E+00  0.00000000000E+00  0.45593999997E+02  0.45594000000E+02  0.51100000000E-03 0. -1.
         11   -1    0    0    0    0 -0.00000000000E+00 -0.00000000000E+00 -0.45593999997E+02  0.45594000000E+02  0.51100000000E-03 0.  1.
    9900012    2    1    2    0    0 -0.30583029860E+02 -0.30048510478E+02 -0.67370920212E+01  0.47787272976E+02  0.20000008805E+02 0.  0.
         12    1    1    2    0    0  0.30583029860E+02  0.30048510478E+02  0.67370920212E+01  0.43400727024E+02  0.00000000000E+00 0. -1.
         11    1    3    3    0    0 -0.33759978872E+01 -0.63859053230E+01 -0.36602447054E+01  0.80978108210E+01  0.51100000000E-03 0. -1.
        -11    1    3    3    0    0 -0.10950464330E+02 -0.18060020504E+02  0.32467511476E+01  0.21368631283E+02  0.51100000000E-03 0.  1.
         12    1    3    3    0    0 -0.16256567643E+02 -0.56025846514E+01 -0.63235984634E+01  0.18320830872E+02  0.00000000000E+00 0. -1.
</event>
<event>
 7    1  0.2387817E-009  0.4778728E+02  0.7816164E-02  0.1312668E+00
        -11   -1    0    0    0    0  0.00000000000E+00  0.00000000000E+00  0.45593999997E+02  0.45594000000E+02  0.51100000000E-03 0.  1.
         11   -1    0    0    0    0 -0.00000000000E+00 -0.00000000000E+00 -0.45593999997E+02  0.45594000000E+02  0.51100000000E-03 0. -1.
    9900012    2    1    2    0    0  0.42214609617E+02 -0.92992180380E+01 -0.38825498904E+01  0.47787275180E+02  0.20000018858E+02 0.  0.
         12    1    1    2    0    0 -0.42214609617E+02  0.92992180380E+01  0.38825498904E+01  0.43400724820E+02  0.00000000000E+00 0. -1.
         11    1    3    3    0    0  0.51249577344E+00  0.21828388116E+01 -0.29499375049E+00  0.22615169177E+01  0.51100000000E-03 0. -1.
        -11    1    3    3    0    0  0.11263838785E+02 -0.12858050017E+01  0.48559862768E+01  0.12333205652E+02  0.51100000000E-03 0.  1.
         12    1    3    3    0    0  0.30438275059E+02 -0.10196251848E+02 -0.84435424167E+01  0.33192552611E+02  0.00000000000E+00 0. -1.
</event>
<event>
 7    1  0.2387817E-009  0.4778726E+02  0.7816164E-02  0.1312668E+00
        -11   -1    0    0    0    0  0.00000000000E+00  0.00000000000E+00  0.45593999997E+02  0.45594000000E+02  0.51100000000E-03 0.  1.
         11   -1    0    0    0    0 -0.00000000000E+00 -0.00000000000E+00 -0.45593999997E+02  0.45594000000E+02  0.51100000000E-03 0. -1.
    9900012    2    1    2    0    0 -0.36271231507E+02 -0.64774953244E+01  0.22936082502E+02  0.47787261973E+02  0.19999958640E+02 0.  0.
         12    1    1    2    0    0  0.36271231507E+02  0.64774953244E+01 -0.22936082502E+02  0.43400738027E+02  0.00000000000E+00 0. -1.
         11    1    3    3    0    0 -0.38725236508E+00  0.23398489025E+00 -0.19884905358E+01  0.20393156193E+01  0.51100000000E-03 0. -1.
        -11    1    3    3    0    0 -0.81939706879E+01  0.19247553252E+01  0.10182810381E+02  0.13211187161E+02  0.51100000000E-03 0.  1.
         12    1    3    3    0    0 -0.27690008454E+02 -0.86362355399E+01  0.14741762657E+02  0.32536759192E+02  0.00000000000E+00 0. -1.
</event>
<event>
 7    1  0.2387817E-009  0.4778727E+02  0.7816164E-02  0.1312668E+00
        -11   -1    0    0    0    0  0.00000000000E+00  0.00000000000E+00  0.45593999997E+02  0.45594000000E+02  0.51100000000E-03 0.  1.
         11   -1    0    0    0    0 -0.00000000000E+00 -0.00000000000E+00 -0.45593999997E+02  0.45594000000E+02  0.51100000000E-03 0. -1.
    9900012    2    1    2    0    0 -0.18008151807E+02  0.14008821395E+02  0.36919950756E+02  0.47787269912E+02  0.19999994835E+02 0.  0.
         12    1    1    2    0    0  0.18008151807E+02 -0.14008821395E+02 -0.36919950756E+02  0.43400730088E+02  0.00000000000E+00 0. -1.
         11    1    3    3    0    0 -0.95214792335E+01  0.46641949580E+01  0.43608008673E+01  0.11464286540E+02  0.51100000000E-03 0. -1.
        -11    1    3    3    0    0 -0.83369349608E+01  0.26984363538E+01  0.13108574777E+02  0.15767713095E+02  0.51100000000E-03 0.  1.
         12    1    3    3    0    0 -0.14973761232E+00  0.66461900834E+01  0.19450575112E+02  0.20555270277E+02  0.00000000000E+00 0. -1.
</event>
<event>
 7    1  0.2387817E-009  0.4778727E+02  0.7816164E-02  0.1312668E+00
        -11   -1    0    0    0    0  0.00000000000E+00  0.00000000000E+00  0.45593999997E+02  0.45594000000E+02  0.51100000000E-03 0.  1.
         11   -1    0    0    0    0 -0.00000000000E+00 -0.00000000000E+00 -0.45593999997E+02  0.45594000000E+02  0.51100000000E-03 0. -1.
    9900012    2    1    2    0    0 -0.40104973330E+02 -0.20730546545E+00  0.16588297998E+02  0.47787268534E+02  0.19999988554E+02 0.  0.
         12    1    1    2    0    0  0.40104973330E+02  0.20730546545E+00 -0.16588297998E+02  0.43400731466E+02  0.00000000000E+00 0. -1.
         11    1    3    3    0    0 -0.33729148748E+01  0.15106014398E+01  0.24501842735E+01  0.44341712527E+01  0.51100000000E-03 0. -1.
        -11    1    3    3    0    0 -0.29540639441E+02 -0.86169949608E+01  0.85949898035E+01  0.31949582638E+02  0.51100000000E-03 0.  1.
         12    1    3    3    0    0 -0.71914190140E+01  0.68990880556E+01  0.55431239206E+01  0.11403514644E+02  0.00000000000E+00 0. -1.
</event>
<event>
 7    1  0.2387817E-009  0.4778726E+02  0.7816164E-02  0.1312668E+00
        -11   -1    0    0    0    0  0.00000000000E+00  0.00000000000E+00  0.45593999997E+02  0.45594000000E+02  0.51100000000E-03 0.  1.
         11   -1    0    0    0    0 -0.00000000000E+00 -0.00000000000E+00 -0.45593999997E+02  0.45594000000E+02  0.51100000000E-03 0. -1.
    9900012    2    1    2    0    0  0.21473248469E+02 -0.16700418113E+02  0.33817446857E+02  0.47787261793E+02  0.19999957819E+02 0.  0.
         12    1    1    2    0    0 -0.21473248469E+02  0.16700418113E+02 -0.33817446857E+02  0.43400738207E+02  0.00000000000E+00 0. -1.
         11    1    3    3    0    0  0.11323213596E+02 -0.73549407107E+01  0.10473542558E+02  0.17088165875E+02  0.51100000000E-03 0. -1.
        -11    1    3    3    0    0  0.12965933879E+02 -0.10431298700E+02  0.17670452191E+02  0.24272871994E+02  0.51100000000E-03 0.  1.
        -12    1    3    3    0    0 -0.28158990063E+01  0.10858212973E+01  0.56734521080E+01  0.64262239243E+01  0.00000000000E+00 0.  1.
</event>
<event>
 7    1  0.2387817E-009  0.4778727E+02  0.7816164E-02  0.1312668E+00
        -11   -1    0    0    0    0  0.00000000000E+00  0.00000000000E+00  0.45593999997E+02  0.45594000000E+02  0.51100000000E-03 0. -1.
         11   -1    0    0    0    0 -0.00000000000E+00 -0.00000000000E+00 -0.45593999997E+02  0.45594000000E+02  0.51100000000E-03 0.  1.
    9900012    2    1    2    0    0 -0.42509113790E+02  0.41286804365E+01 -0.77170371003E+01  0.47787269373E+02  0.19999992378E+02 0.  0.
         12    1    1    2    0    0  0.42509113790E+02 -0.41286804365E+01  0.77170371003E+01  0.43400730627E+02  0.00000000000E+00 0. -1.
         11    1    3    3    0    0 -0.56259725504E+01  0.11848050732E+01 -0.44730447740E+01  0.72844670368E+01  0.51100000000E-03 0. -1.
        -11    1    3    3    0    0 -0.14717561224E+02 -0.86410947102E+00 -0.90190968399E+01  0.17282864393E+02  0.51100000000E-03 0.  1.
         12    1    3    3    0    0 -0.22165580015E+02  0.38079848344E+01  0.57751045136E+01  0.23219937943E+02  0.00000000000E+00 0. -1.
</event>
<event>
 7    1  0.2387817E-009  0.4778727E+02  0.7816164E-02  0.1312668E+00
        -11   -1    0    0    0    0  0.00000000000E+00  0.00000000000E+00  0.45593999997E+02  0.45594000000E+02  0.51100000000E-03 0.  1.
         11   -1    0    0    0    0 -0.00000000000E+00 -0.00000000000E+00 -0.45593999997E+02  0.45594000000E+02  0.51100000000E-03 0. -1.
    9900012    2    1    2    0    0  0.19489850879E+02 -0.37851681539E+02  0.84273172856E+01  0.47787265453E+02  0.19999974506E+02 0.  0.
         12    1    1    2    0    0 -0.19489850879E+02  0.37851681539E+02 -0.84273172856E+01  0.43400734547E+02  0.00000000000E+00 0. -1.
         11    1    3    3    0    0 -0.19308948899E+00 -0.76623422638E+00  0.36908250643E+01  0.37744653075E+01  0.51100000000E-03 0. -1.
        -11    1    3    3    0    0  0.96444810689E+01 -0.74817562945E+01 -0.93918315861E+00  0.12242334647E+02  0.51100000000E-03 0.  1.
         12    1    3    3    0    0  0.10038459299E+02 -0.29603691018E+02  0.56756753799E+01  0.31770465499E+02  0.00000000000E+00 0. -1.
</event>
<event>
 7    1  0.2387817E-009  0.4778727E+02  0.7816164E-02  0.1312668E+00
        -11   -1    0    0    0    0  0.00000000000E+00  0.00000000000E+00  0.45593999997E+02  0.45594000000E+02  0.51100000000E-03 0. -1.
         11   -1    0    0    0    0 -0.00000000000E+00 -0.00000000000E+00 -0.45593999997E+02  0.45594000000E+02  0.51100000000E-03 0.  1.
    9900012    2    1    2    0    0  0.21547060260E+02 -0.26307348951E+02 -0.26967961147E+02  0.47787270248E+02  0.19999996367E+02 0.  0.
         12    1    1    2    0    0 -0.21547060260E+02  0.26307348951E+02  0.26967961147E+02  0.43400729752E+02  0.00000000000E+00 0. -1.
         11    1    3    3    0    0  0.41687733971E+01 -0.53513189688E+01 -0.51038382976E+00  0.68026302455E+01  0.51100000000E-03 0. -1.
        -11    1    3    3    0    0 -0.20954156796E+01 -0.27578201726E+01 -0.75481884492E+01  0.83049074709E+01  0.51100000000E-03 0.  1.
        -12    1    3    3    0    0  0.19473702542E+02 -0.18198209809E+02 -0.18909388868E+02  0.32679732531E+02  0.00000000000E+00 0.  1.
</event>
<event>
 7    1  0.2387817E-009  0.4778727E+02  0.7816164E-02  0.1312668E+00
        -11   -1    0    0    0    0  0.00000000000E+00  0.00000000000E+00  0.45593999997E+02  0.45594000000E+02  0.51100000000E-03 0.  1.
         11   -1    0    0    0    0 -0.00000000000E+00 -0.00000000000E+00 -0.45593999997E+02  0.45594000000E+02  0.51100000000E-03 0. -1.
    9900012    2    1    2    0    0  0.21739054438E+02 -0.76465720159E+01  0.36777256770E+02  0.47787272276E+02  0.20000005614E+02 0.  0.
         12    1    1    2    0    0 -0.21739054438E+02  0.76465720159E+01 -0.36777256770E+02  0.43400727724E+02  0.00000000000E+00 0. -1.
         11    1    3    3    0    0  0.15024413291E+01  0.20004161183E+01  0.32454216511E+01  0.40977745848E+01  0.51100000000E-03 0. -1.
        -11    1    3    3    0    0  0.36696374746E+01  0.11879330061E+01  0.18327253515E+02  0.18728738497E+02  0.51100000000E-03 0.  1.
         12    1    3    3    0    0  0.16566975634E+02 -0.10834921140E+02  0.15204581604E+02  0.24960759194E+02  0.00000000000E+00 0. -1.
</event>
<event>
 7    1  0.2387817E-009  0.4778727E+02  0.7816164E-02  0.1312668E+00
        -11   -1    0    0    0    0  0.00000000000E+00  0.00000000000E+00  0.45593999997E+02  0.45594000000E+02  0.51100000000E-03 0. -1.
         11   -1    0    0    0    0 -0.00000000000E+00 -0.00000000000E+00 -0.45593999997E+02  0.45594000000E+02  0.51100000000E-03 0.  1.
    9900012    2    1    2    0    0 -0.12776638277E+02 -0.34935885340E+02 -0.22357655624E+02  0.47787270339E+02  0.19999996782E+02 0.  0.
         12    1    1    2    0    0  0.12776638277E+02  0.34935885340E+02  0.22357655624E+02  0.43400729661E+02  0.00000000000E+00 0. -1.
         11    1    3    3    0    0 -0.11260725262E+01 -0.40648615490E+01  0.31427213064E+00  0.42296460821E+01  0.51100000000E-03 0. -1.
        -11    1    3    3    0    0 -0.10228300993E+02 -0.10315531894E+02 -0.16638639307E+02  0.22087839590E+02  0.51100000000E-03 0.  1.
        -12    1    3    3    0    0 -0.14222647571E+01 -0.20555491897E+02 -0.60332884474E+01  0.21469784667E+02  0.00000000000E+00 0.  1.
</event>
<event>
 7    1  0.2387817E-009  0.4778727E+02  0.7816164E-02  0.1312668E+00
        -11   -1    0    0    0    0  0.00000000000E+00  0.00000000000E+00  0.45593999997E+02  0.45594000000E+02  0.51100000000E-03 0.  1.
         11   -1    0    0    0    0 -0.00000000000E+00 -0.00000000000E+00 -0.45593999997E+02  0.45594000000E+02  0.51100000000E-03 0. -1.
    9900012    2    1    2    0    0  0.35656603382E+02  0.17325803030E+02  0.17664839875E+02  0.47787269785E+02  0.19999994258E+02 0.  0.
         12    1    1    2    0    0 -0.35656603382E+02 -0.17325803030E+02 -0.17664839875E+02  0.43400730215E+02  0.00000000000E+00 0. -1.
         11    1    3    3    0    0  0.28310983572E+01  0.53598020715E+01 -0.18385081822E+01  0.63342488703E+01  0.51100000000E-03 0. -1.
        -11    1    3    3    0    0  0.59346936202E+01 -0.17431429538E+01  0.50609124312E+01  0.79919941579E+01  0.51100000000E-03 0.  1.
         12    1    3    3    0    0  0.26890811405E+02  0.13709143912E+02  0.14442435626E+02  0.33461026757E+02  0.00000000000E+00 0. -1.
</event>
<event>
 7    1  0.2387817E-009  0.4778727E+02  0.7816164E-02  0.1312668E+00
        -11   -1    0    0    0    0  0.00000000000E+00  0.00000000000E+00  0.45593999997E+02  0.45594000000E+02  0.51100000000E-03 0.  1.
         11   -1    0    0    0    0 -0.00000000000E+00 -0.00000000000E+00 -0.45593999997E+02  0.45594000000E+02  0.51100000000E-03 0. -1.
    9900012    2    1    2    0    0  0.18896663633E+02  0.37763533039E+02  0.10022744442E+02  0.47787265787E+02  0.19999976030E+02 0.  0.
         12    1    1    2    0    0 -0.18896663633E+02 -0.37763533039E+02 -0.10022744442E+02  0.43400734213E+02  0.00000000000E+00 0. -1.
         11    1    3    3    0    0 -0.13282713866E+01  0.85198740554E+01 -0.48306251362E+00  0.86363133599E+01  0.51100000000E-03 0. -1.
        -11    1    3    3    0    0  0.10835510211E+02  0.21481716779E+02  0.17009228106E+01  0.24119817080E+02  0.51100000000E-03 0.  1.
        -12    1    3    3    0    0  0.93894248087E+01  0.77619422049E+01  0.88048841449E+01  0.15031135348E+02  0.00000000000E+00 0.  1.
</event>
<event>
 7    1  0.2387817E-009  0.4778727E+02  0.7816164E-02  0.1312668E+00
        -11   -1    0    0    0    0  0.00000000000E+00  0.00000000000E+00  0.45593999997E+02  0.45594000000E+02  0.51100000000E-03 0.  1.
         11   -1    0    0    0    0 -0.00000000000E+00 -0.00000000000E+00 -0.45593999997E+02  0.45594000000E+02  0.51100000000E-03 0. -1.
    9900012    2    1    2    0    0  0.15364303001E+02 -0.49093917568E+01  0.40292175429E+02  0.47787270342E+02  0.19999996795E+02 0.  0.
         12    1    1    2    0    0 -0.15364303001E+02  0.49093917568E+01 -0.40292175429E+02  0.43400729658E+02  0.00000000000E+00 0. -1.
         11    1    3    3    0    0  0.62866386590E+01 -0.10695914089E+02  0.24304974869E+02  0.27288389609E+02  0.51100000000E-03 0. -1.
        -11    1    3    3    0    0  0.35366805753E+01  0.41831803609E+00  0.10345216548E+02  0.10941051373E+02  0.51100000000E-03 0.  1.
        -12    1    3    3    0    0  0.55409837664E+01  0.53682042961E+01  0.56419840116E+01  0.95578293587E+01  0.00000000000E+00 0.  1.
</event>
<event>
 7    1  0.2387817E-009  0.4778727E+02  0.7816164E-02  0.1312668E+00
        -11   -1    0    0    0    0  0.00000000000E+00  0.00000000000E+00  0.45593999997E+02  0.45594000000E+02  0.51100000000E-03 0.  1.
         11   -1    0    0    0    0 -0.00000000000E+00 -0.00000000000E+00 -0.45593999997E+02  0.45594000000E+02  0.51100000000E-03 0. -1.
    9900012    2    1    2    0    0 -0.70501748017E+01 -0.18074487605E+02  0.38823077310E+02  0.47787269607E+02  0.19999993444E+02 0.  0.
         12    1    1    2    0    0  0.70501748017E+01  0.18074487605E+02 -0.38823077310E+02  0.43400730393E+02  0.00000000000E+00 0. -1.
         11    1    3    3    0    0 -0.76346111652E+01 -0.43696408556E+01  0.88284096583E+01  0.12462819352E+02  0.51100000000E-03 0. -1.
        -11    1    3    3    0    0 -0.52838427622E+01 -0.59901824798E+01  0.80790614723E+01  0.11361008538E+02  0.51100000000E-03 0.  1.
        -12    1    3    3    0    0  0.58682791256E+01 -0.77146642691E+01  0.21915606179E+02  0.23963441716E+02  0.00000000000E+00 0.  1.
</event>
<event>
 7    1  0.2387817E-009  0.4778727E+02  0.7816164E-02  0.1312668E+00
        -11   -1    0    0    0    0  0.00000000000E+00  0.00000000000E+00  0.45593999997E+02  0.45594000000E+02  0.51100000000E-03 0.  1.
         11   -1    0    0    0    0 -0.00000000000E+00 -0.00000000000E+00 -0.45593999997E+02  0.45594000000E+02  0.51100000000E-03 0. -1.
    9900012    2    1    2    0    0 -0.81605801883E+01 -0.98409333008E+01  0.41475102784E+02  0.47787272032E+02  0.20000004501E+02 0.  0.
         12    1    1    2    0    0  0.81605801883E+01  0.98409333008E+01 -0.41475102784E+02  0.43400727968E+02  0.00000000000E+00 0. -1.
         11    1    3    3    0    0 -0.49341082178E+00 -0.17178237721E+01  0.40412369191E+00  0.18323997846E+01  0.51100000000E-03 0. -1.
        -11    1    3    3    0    0 -0.12754020523E+02 -0.25383598431E+01  0.27607138482E+02  0.30516592300E+02  0.51100000000E-03 0.  1.
        -12    1    3    3    0    0  0.50868511565E+01 -0.55847496856E+01  0.13463840610E+02  0.15438279947E+02  0.00000000000E+00 0.  1.
</event>
<event>
 7    1  0.2387817E-009  0.4778727E+02  0.7816164E-02  0.1312668E+00
        -11   -1    0    0    0    0  0.00000000000E+00  0.00000000000E+00  0.45593999997E+02  0.45594000000E+02  0.51100000000E-03 0.  1.
         11   -1    0    0    0    0 -0.00000000000E+00 -0.00000000000E+00 -0.45593999997E+02  0.45594000000E+02  0.51100000000E-03 0. -1.
    9900012    2    1    2    0    0 -0.19199213861E+02  0.34059879632E+02  0.18839810412E+02  0.47787266483E+02  0.19999979203E+02 0.  0.
         12    1    1    2    0    0  0.19199213861E+02 -0.34059879632E+02 -0.18839810412E+02  0.43400733517E+02  0.00000000000E+00 0. -1.
         11    1    3    3    0    0 -0.30648876358E+01  0.45853041944E+01  0.10183501848E+02  0.11581116567E+02  0.51100000000E-03 0. -1.
        -11    1    3    3    0    0 -0.53477875283E+00  0.98518841449E+01  0.42996612260E+01  0.10762559939E+02  0.51100000000E-03 0.  1.
         12    1    3    3    0    0 -0.15599547473E+02  0.19622691293E+02  0.43566473377E+01  0.25443589978E+02  0.00000000000E+00 0. -1.
</event>
<event>
 7    1  0.2387817E-009  0.4778727E+02  0.7816164E-02  0.1312668E+00
        -11   -1    0    0    0    0  0.00000000000E+00  0.00000000000E+00  0.45593999997E+02  0.45594000000E+02  0.51100000000E-03 0.  1.
         11   -1    0    0    0    0 -0.00000000000E+00 -0.00000000000E+00 -0.45593999997E+02  0.45594000000E+02  0.51100000000E-03 0. -1.
    9900012    2    1    2    0    0  0.12973882923E+02  0.32606975514E+01  0.41287643973E+02  0.47787270382E+02  0.19999996978E+02 0.  0.
         12    1    1    2    0    0 -0.12973882923E+02 -0.32606975514E+01 -0.41287643973E+02  0.43400729618E+02  0.00000000000E+00 0. -1.
         11    1    3    3    0    0  0.42767174475E+00  0.39680955671E+01  0.15236463803E+01  0.42720234204E+01  0.51100000000E-03 0. -1.
        -11    1    3    3    0    0  0.99466064057E+01 -0.77304816242E+00  0.11893888495E+02  0.15524083427E+02  0.51100000000E-03 0.  1.
        -12    1    3    3    0    0  0.25996047722E+01  0.65650146640E-01  0.27870109097E+02  0.27991163534E+02  0.00000000000E+00 0.  1.
</event>
<event>
 7    1  0.2387817E-009  0.4778727E+02  0.7816164E-02  0.1312668E+00
        -11   -1    0    0    0    0  0.00000000000E+00  0.00000000000E+00  0.45593999997E+02  0.45594000000E+02  0.51100000000E-03 0.  1.
         11   -1    0    0    0    0 -0.00000000000E+00 -0.00000000000E+00 -0.45593999997E+02  0.45594000000E+02  0.51100000000E-03 0. -1.
    9900012    2    1    2    0    0 -0.38341354879E+02 -0.19929198721E+02 -0.40485235132E+01  0.47787274220E+02  0.20000014478E+02 0.  0.
         12    1    1    2    0    0  0.38341354879E+02  0.19929198721E+02  0.40485235132E+01  0.43400725780E+02  0.00000000000E+00 0. -1.
         11    1    3    3    0    0 -0.19465741364E+02 -0.17344296035E+02 -0.85842124188E+01  0.27448650148E+02  0.51100000000E-03 0. -1.
        -11    1    3    3    0    0 -0.47776074066E+01  0.21834606880E+00 -0.10860880680E+01  0.49043649017E+01  0.51100000000E-03 0.  1.
         12    1    3    3    0    0 -0.14098006108E+02 -0.28032487548E+01  0.56217769735E+01  0.15434259170E+02  0.00000000000E+00 0. -1.
</event>
<event>
 7    1  0.2485378E-009  0.4778727E+02  0.7816164E-02  0.1312668E+00
        -11   -1    0    0    0    0  0.00000000000E+00  0.00000000000E+00  0.45593999997E+02  0.45594000000E+02  0.51100000000E-03 0. -1.
         11   -1    0    0    0    0 -0.00000000000E+00 -0.00000000000E+00 -0.45593999997E+02  0.45594000000E+02  0.51100000000E-03 0.  1.
    9900012    2    1    2    0    0 -0.10196625745E+02 -0.34347781657E+02 -0.24492486825E+02  0.47787271985E+02  0.20000004288E+02 0.  0.
         12    1    1    2    0    0  0.10196625745E+02  0.34347781657E+02  0.24492486825E+02  0.43400728015E+02  0.00000000000E+00 0. -1.
         11    1    3    3    0    0 -0.25993474778E+01  0.37076238437E+00  0.15436262400E+01  0.30457928830E+01  0.51100000000E-03 0. -1.
        -11    1    3    3    0    0  0.14789936915E+01 -0.86922083098E+01 -0.59927184386E+01  0.10660890309E+02  0.51100000000E-03 0.  1.
         12    1    3    3    0    0 -0.90762719588E+01 -0.26026335732E+02 -0.20043394627E+02  0.34080588793E+02  0.00000000000E+00 0. -1.
</event>
<event>
 7    1  0.2387817E-009  0.4778727E+02  0.7816164E-02  0.1312668E+00
        -11   -1    0    0    0    0  0.00000000000E+00  0.00000000000E+00  0.45593999997E+02  0.45594000000E+02  0.51100000000E-03 0.  1.
         11   -1    0    0    0    0 -0.00000000000E+00 -0.00000000000E+00 -0.45593999997E+02  0.45594000000E+02  0.51100000000E-03 0. -1.
    9900012    2    1    2    0    0  0.43227837871E+02 -0.11372026165E+01  0.36991953669E+01  0.47787271398E+02  0.20000001612E+02 0.  0.
         12    1    1    2    0    0 -0.43227837871E+02  0.11372026165E+01 -0.36991953669E+01  0.43400728602E+02  0.00000000000E+00 0. -1.
         11    1    3    3    0    0 -0.50201197121E+00 -0.56673971772E+00  0.19125178044E+01  0.20569235621E+01  0.51100000000E-03 0. -1.
        -11    1    3    3    0    0  0.11110906256E+02 -0.58827828114E+01 -0.67363323817E+00  0.12590200690E+02  0.51100000000E-03 0.  1.
        -12    1    3    3    0    0  0.32618943587E+02  0.53123199126E+01  0.24603108006E+01  0.33140147145E+02  0.00000000000E+00 0.  1.
</event>
<event>
 7    1  0.2387817E-009  0.4778727E+02  0.7816164E-02  0.1312668E+00
        -11   -1    0    0    0    0  0.00000000000E+00  0.00000000000E+00  0.45593999997E+02  0.45594000000E+02  0.51100000000E-03 0.  1.
         11   -1    0    0    0    0 -0.00000000000E+00 -0.00000000000E+00 -0.45593999997E+02  0.45594000000E+02  0.51100000000E-03 0. -1.
    9900012    2    1    2    0    0 -0.29749920836E+02  0.10479981056E+02  0.29811666113E+02  0.47787271560E+02  0.20000002353E+02 0.  0.
         12    1    1    2    0    0  0.29749920836E+02 -0.10479981056E+02 -0.29811666113E+02  0.43400728440E+02  0.00000000000E+00 0. -1.
         11    1    3    3    0    0 -0.42510480951E+01  0.25809091300E+01 -0.22614078907E+01  0.54631920846E+01  0.51100000000E-03 0.  1.
        -11    1    3    3    0    0 -0.61368246887E+01  0.12483545358E+01  0.12595118890E+02  0.14066130471E+02  0.51100000000E-03 0. -1.
        -12    1    3    3    0    0 -0.19362048052E+02  0.66507173899E+01  0.19477955114E+02  0.28257949005E+02  0.00000000000E+00 0.  1.
</event>
<event>
 7    1  0.2387817E-009  0.4778727E+02  0.7816164E-02  0.1312668E+00
        -11   -1    0    0    0    0  0.00000000000E+00  0.00000000000E+00  0.45593999997E+02  0.45594000000E+02  0.51100000000E-03 0.  1.
         11   -1    0    0    0    0 -0.00000000000E+00 -0.00000000000E+00 -0.45593999997E+02  0.45594000000E+02  0.51100000000E-03 0. -1.
    9900012    2    1    2    0    0  0.21325740746E+02  0.30420247741E+02  0.22437572615E+02  0.47787270100E+02  0.19999995692E+02 0.  0.
         12    1    1    2    0    0 -0.21325740746E+02 -0.30420247741E+02 -0.22437572615E+02  0.43400729900E+02  0.00000000000E+00 0. -1.
         11    1    3    3    0    0  0.63372719040E+01  0.17334525012E+01  0.10119388651E+02  0.12065152286E+02  0.51100000000E-03 0. -1.
        -11    1    3    3    0    0  0.65137819397E+00  0.85691448807E+01  0.50660624685E+01  0.99759474103E+01  0.51100000000E-03 0.  1.
        -12    1    3    3    0    0  0.14337090648E+02  0.20117650359E+02  0.72521214959E+01  0.25746170403E+02  0.00000000000E+00 0.  1.
</event>
<event>
 7    1  0.2387817E-009  0.4778725E+02  0.7816164E-02  0.1312668E+00
        -11   -1    0    0    0    0  0.00000000000E+00  0.00000000000E+00  0.45593999997E+02  0.45594000000E+02  0.51100000000E-03 0.  1.
         11   -1    0    0    0    0 -0.00000000000E+00 -0.00000000000E+00 -0.45593999997E+02  0.45594000000E+02  0.51100000000E-03 0. -1.
    9900012    2    1    2    0    0  0.32864762604E+02 -0.82257639794E+01  0.27126905436E+02  0.47787253317E+02  0.19999919173E+02 0.  0.
         12    1    1    2    0    0 -0.32864762604E+02  0.82257639794E+01 -0.27126905436E+02  0.43400746683E+02  0.00000000000E+00 0. -1.
         11    1    3    3    0    0  0.17738808397E+02 -0.20863862262E+01  0.86764440792E+01  0.19856963840E+02  0.51100000000E-03 0. -1.
        -11    1    3    3    0    0  0.47602077407E+01  0.27782915675E+01  0.74864331263E+00  0.55622791047E+01  0.51100000000E-03 0.  1.
         12    1    3    3    0    0  0.10365746467E+02 -0.89176693207E+01  0.17701818045E+02  0.22368010372E+02  0.00000000000E+00 0. -1.
</event>
<event>
 7    1  0.2387817E-009  0.4778727E+02  0.7816164E-02  0.1312668E+00
        -11   -1    0    0    0    0  0.00000000000E+00  0.00000000000E+00  0.45593999997E+02  0.45594000000E+02  0.51100000000E-03 0.  1.
         11   -1    0    0    0    0 -0.00000000000E+00 -0.00000000000E+00 -0.45593999997E+02  0.45594000000E+02  0.51100000000E-03 0. -1.
    9900012    2    1    2    0    0 -0.25748847053E+02 -0.28183301900E+02  0.20647557861E+02  0.47787271018E+02  0.19999999880E+02 0.  0.
         12    1    1    2    0    0  0.25748847053E+02  0.28183301900E+02 -0.20647557861E+02  0.43400728982E+02  0.00000000000E+00 0. -1.
         11    1    3    3    0    0 -0.17766547555E+02 -0.12578098449E+02  0.71999321021E+01  0.22928100557E+02  0.51100000000E-03 0. -1.
        -11    1    3    3    0    0 -0.95022398372E+01 -0.12645401112E+02  0.14408079123E+02  0.21396062149E+02  0.51100000000E-03 0.  1.
         12    1    3    3    0    0  0.15199403386E+01 -0.29598023387E+01 -0.96045336450E+00  0.34631083122E+01  0.00000000000E+00 0. -1.
</event>
<event>
 7    1 -0.2387817E-009  0.4778726E+02  0.7816164E-02  0.1312668E+00
        -11   -1    0    0    0    0  0.00000000000E+00  0.00000000000E+00  0.45593999997E+02  0.45594000000E+02  0.51100000000E-03 0.  1.
         11   -1    0    0    0    0 -0.00000000000E+00 -0.00000000000E+00 -0.45593999997E+02  0.45594000000E+02  0.51100000000E-03 0. -1.
    9900012    2    1    2    0    0  0.40287146003E+01  0.26010471970E+02  0.34508675561E+02  0.47787264034E+02  0.19999968036E+02 0.  0.
         12    1    1    2    0    0 -0.40287146003E+01 -0.26010471970E+02 -0.34508675561E+02  0.43400735966E+02  0.00000000000E+00 0. -1.
         11    1    3    3    0    0  0.84173832935E+00  0.10255630620E+02  0.69183491600E+01  0.12399598307E+02  0.51100000000E-03 0. -1.
        -11    1    3    3    0    0 -0.38122142024E+01  0.12191777248E+02  0.22949659829E+02  0.26265172684E+02  0.51100000000E-03 0.  1.
        -12    1    3    3    0    0  0.69991904734E+01  0.35630641020E+01  0.46406665724E+01  0.91224930427E+01  0.00000000000E+00 0.  1.
</event>
<event>
 7    1  0.2387817E-009  0.4778725E+02  0.7816164E-02  0.1312668E+00
        -11   -1    0    0    0    0  0.00000000000E+00  0.00000000000E+00  0.45593999997E+02  0.45594000000E+02  0.51100000000E-03 0.  1.
         11   -1    0    0    0    0 -0.00000000000E+00 -0.00000000000E+00 -0.45593999997E+02  0.45594000000E+02  0.51100000000E-03 0. -1.
    9900012    2    1    2    0    0 -0.33844653031E+02  0.25772369578E+02  0.85993696268E+01  0.47787254264E+02  0.19999923492E+02 0.  0.
         12    1    1    2    0    0  0.33844653031E+02 -0.25772369578E+02 -0.85993696268E+01  0.43400745736E+02  0.00000000000E+00 0. -1.
         11    1    3    3    0    0 -0.67564907915E+01  0.32295985901E-01  0.10067223488E+01  0.68311566367E+01  0.51100000000E-03 0. -1.
        -11    1    3    3    0    0 -0.11021867098E+02  0.19932821287E+01 -0.34657697469E+00  0.11206018197E+02  0.51100000000E-03 0.  1.
        -12    1    3    3    0    0 -0.16066295141E+02  0.23746791464E+02  0.79392242526E+01  0.29750079430E+02  0.00000000000E+00 0.  1.
</event>
<event>
 7    1  0.2387817E-009  0.4778727E+02  0.7816164E-02  0.1312668E+00
        -11   -1    0    0    0    0  0.00000000000E+00  0.00000000000E+00  0.45593999997E+02  0.45594000000E+02  0.51100000000E-03 0.  1.
         11   -1    0    0    0    0 -0.00000000000E+00 -0.00000000000E+00 -0.45593999997E+02  0.45594000000E+02  0.51100000000E-03 0. -1.
    9900012    2    1    2    0    0 -0.29987743666E+02  0.31081360030E+02 -0.42787177501E+01  0.47787272621E+02  0.20000007186E+02 0.  0.
         12    1    1    2    0    0  0.29987743666E+02 -0.31081360030E+02  0.42787177501E+01  0.43400727379E+02  0.00000000000E+00 0. -1.
         11    1    3    3    0    0  0.84223190361E+00  0.67408201115E+00 -0.16472183876E+01  0.19690276318E+01  0.51100000000E-03 0. -1.
        -11    1    3    3    0    0 -0.45880327085E+00  0.70279749441E+01  0.17044024011E+01  0.72462348887E+01  0.51100000000E-03 0.  1.
        -12    1    3    3    0    0 -0.30371172299E+02  0.23379303075E+02 -0.43359017636E+01  0.38572010100E+02  0.00000000000E+00 0.  1.
</event>
<event>
 7    1  0.2387817E-009  0.4778727E+02  0.7816164E-02  0.1312668E+00
        -11   -1    0    0    0    0  0.00000000000E+00  0.00000000000E+00  0.45593999997E+02  0.45594000000E+02  0.51100000000E-03 0.  1.
         11   -1    0    0    0    0 -0.00000000000E+00 -0.00000000000E+00 -0.45593999997E+02  0.45594000000E+02  0.51100000000E-03 0. -1.
    9900012    2    1    2    0    0  0.14770610156E+02  0.20314451486E+02  0.35394565688E+02  0.47787272543E+02  0.20000006830E+02 0.  0.
         12    1    1    2    0    0 -0.14770610156E+02 -0.20314451486E+02 -0.35394565688E+02  0.43400727457E+02  0.00000000000E+00 0. -1.
         11    1    3    3    0    0  0.17547984722E+01  0.16388280519E+01 -0.15215727722E+01  0.28425796425E+01  0.51100000000E-03 0. -1.
        -11    1    3    3    0    0 -0.11454591207E+01  0.63576134825E+01  0.13236873362E+02  0.14729091705E+02  0.51100000000E-03 0.  1.
        -12    1    3    3    0    0  0.14161270804E+02  0.12318009952E+02  0.23679265099E+02  0.30215601195E+02  0.00000000000E+00 0.  1.
</event>
<event>
 7    1  0.2387817E-009  0.4778727E+02  0.7816164E-02  0.1312668E+00
        -11   -1    0    0    0    0  0.00000000000E+00  0.00000000000E+00  0.45593999997E+02  0.45594000000E+02  0.51100000000E-03 0. -1.
         11   -1    0    0    0    0 -0.00000000000E+00 -0.00000000000E+00 -0.45593999997E+02  0.45594000000E+02  0.51100000000E-03 0.  1.
    9900012    2    1    2    0    0  0.56612329365E+00 -0.14017016407E+02 -0.41070987263E+02  0.47787271442E+02  0.20000001815E+02 0.  0.
         12    1    1    2    0    0 -0.56612329365E+00  0.14017016407E+02  0.41070987263E+02  0.43400728558E+02  0.00000000000E+00 0. -1.
         11    1    3    3    0    0 -0.41939858806E+00  0.22975247492E+01 -0.60732931981E+00  0.24131647918E+01  0.51100000000E-03 0. -1.
        -11    1    3    3    0    0  0.16522754643E+01 -0.77867737372E+01 -0.33234948309E+02  0.34174927195E+02  0.51100000000E-03 0.  1.
         12    1    3    3    0    0 -0.66675358262E+00 -0.85277674187E+01 -0.72287096347E+01  0.11199179455E+02  0.00000000000E+00 0. -1.
</event>
<event>
 7    1  0.2387817E-009  0.4778726E+02  0.7816164E-02  0.1312668E+00
        -11   -1    0    0    0    0  0.00000000000E+00  0.00000000000E+00  0.45593999997E+02  0.45594000000E+02  0.51100000000E-03 0.  1.
         11   -1    0    0    0    0 -0.00000000000E+00 -0.00000000000E+00 -0.45593999997E+02  0.45594000000E+02  0.51100000000E-03 0. -1.
    9900012    2    1    2    0    0  0.56411396889E+01  0.17705035698E+02  0.39221589501E+02  0.47787264649E+02  0.19999970840E+02 0.  0.
         12    1    1    2    0    0 -0.56411396889E+01 -0.17705035698E+02 -0.39221589501E+02  0.43400735351E+02  0.00000000000E+00 0. -1.
         11    1    3    3    0    0 -0.18030860658E+01  0.94053378726E+01  0.19862288997E+02  0.22050442724E+02  0.51100000000E-03 0. -1.
        -11    1    3    3    0    0  0.66672217682E+01  0.11326268003E+02  0.18098784030E+02  0.22367435629E+02  0.51100000000E-03 0.  1.
         12    1    3    3    0    0  0.77700398648E+00 -0.30265701773E+01  0.12605164736E+01  0.33693862962E+01  0.00000000000E+00 0. -1.
</event>
<event>
 7    1  0.2387817E-009  0.4778728E+02  0.7816164E-02  0.1312668E+00
        -11   -1    0    0    0    0  0.00000000000E+00  0.00000000000E+00  0.45593999997E+02  0.45594000000E+02  0.51100000000E-03 0. -1.
         11   -1    0    0    0    0 -0.00000000000E+00 -0.00000000000E+00 -0.45593999997E+02  0.45594000000E+02  0.51100000000E-03 0.  1.
    9900012    2    1    2    0    0 -0.36978094030E+02  0.97366220114E+01 -0.20529041108E+02  0.47787276791E+02  0.20000026200E+02 0.  0.
         12    1    1    2    0    0  0.36978094030E+02 -0.97366220114E+01  0.20529041108E+02  0.43400723209E+02  0.00000000000E+00 0. -1.
         11    1    3    3    0    0 -0.44956746946E+01  0.75974742946E+01  0.17282287871E+00  0.88296418175E+01  0.51100000000E-03 0. -1.
        -11    1    3    3    0    0 -0.26477984138E+01  0.87262765679E-01 -0.37209985278E+01  0.45677435934E+01  0.51100000000E-03 0.  1.
         12    1    3    3    0    0 -0.29834620922E+02  0.20518849512E+01 -0.16980865459E+02  0.34389891380E+02  0.00000000000E+00 0. -1.
</event>
<event>
 7    1  0.2387817E-009  0.4778727E+02  0.7816164E-02  0.1312668E+00
        -11   -1    0    0    0    0  0.00000000000E+00  0.00000000000E+00  0.45593999997E+02  0.45594000000E+02  0.51100000000E-03 0.  1.
         11   -1    0    0    0    0 -0.00000000000E+00 -0.00000000000E+00 -0.45593999997E+02  0.45594000000E+02  0.51100000000E-03 0. -1.
    9900012    2    1    2    0    0  0.42216337444E+00 -0.25549549803E+02  0.35080843634E+02  0.47787270662E+02  0.19999998256E+02 0.  0.
         12    1    1    2    0    0 -0.42216337444E+00  0.25549549803E+02 -0.35080843634E+02  0.43400729338E+02  0.00000000000E+00 0. -1.
         11    1    3    3    0    0 -0.62441067518E+01 -0.14148585174E+02  0.17888124581E+02  0.23646486691E+02  0.51100000000E-03 0. -1.
        -11    1    3    3    0    0 -0.21050597266E+01 -0.20060901057E+01  0.74960751382E+01  0.80403244153E+01  0.51100000000E-03 0.  1.
         12    1    3    3    0    0  0.87713298528E+01 -0.93948745232E+01  0.96966439143E+01  0.16100459555E+02  0.00000000000E+00 0. -1.
</event>
<event>
 7    1  0.2387817E-009  0.4778727E+02  0.7816164E-02  0.1312668E+00
        -11   -1    0    0    0    0  0.00000000000E+00  0.00000000000E+00  0.45593999997E+02  0.45594000000E+02  0.51100000000E-03 0.  1.
         11   -1    0    0    0    0 -0.00000000000E+00 -0.00000000000E+00 -0.45593999997E+02  0.45594000000E+02  0.51100000000E-03 0. -1.
    9900012    2    1    2    0    0  0.12347934386E+02  0.13208318004E+02  0.39454933820E+02  0.47787274766E+02  0.20000016970E+02 0.  0.
         12    1    1    2    0    0 -0.12347934386E+02 -0.13208318004E+02 -0.39454933820E+02  0.43400725234E+02  0.00000000000E+00 0. -1.
         11    1    3    3    0    0  0.60434104176E+01  0.45237910266E+01  0.13983638739E+02  0.15891181434E+02  0.51100000000E-03 0.  1.
        -11    1    3    3    0    0  0.36629737744E+01  0.13004415489E+00  0.21984649811E+02  0.22288093591E+02  0.51100000000E-03 0. -1.
         12    1    3    3    0    0  0.26415501936E+01  0.85544828225E+01  0.34866452691E+01  0.96079997407E+01  0.00000000000E+00 0. -1.
</event>
<event>
 7    1  0.2387817E-009  0.4778727E+02  0.7816164E-02  0.1312668E+00
        -11   -1    0    0    0    0  0.00000000000E+00  0.00000000000E+00  0.45593999997E+02  0.45594000000E+02  0.51100000000E-03 0.  1.
         11   -1    0    0    0    0 -0.00000000000E+00 -0.00000000000E+00 -0.45593999997E+02  0.45594000000E+02  0.51100000000E-03 0. -1.
    9900012    2    1    2    0    0  0.26415934613E+02 -0.33252569071E+02  0.89492031694E+01  0.47787272026E+02  0.20000004476E+02 0.  0.
         12    1    1    2    0    0 -0.26415934613E+02  0.33252569071E+02 -0.89492031694E+01  0.43400727974E+02  0.00000000000E+00 0. -1.
         11    1    3    3    0    0  0.13435729100E+01 -0.37706032986E+01 -0.26214409523E+01  0.47848291847E+01  0.51100000000E-03 0. -1.
        -11    1    3    3    0    0 -0.12691292180E+01 -0.33656214128E+01 -0.11689046890E+01  0.37821204237E+01  0.51100000000E-03 0.  1.
        -12    1    3    3    0    0  0.26341490921E+02 -0.26116344360E+02  0.12739548811E+02  0.39220322418E+02  0.00000000000E+00 0.  1.
</event>
<event>
 7    1  0.2387817E-009  0.4778727E+02  0.7816164E-02  0.1312668E+00
        -11   -1    0    0    0    0  0.00000000000E+00  0.00000000000E+00  0.45593999997E+02  0.45594000000E+02  0.51100000000E-03 0. -1.
         11   -1    0    0    0    0 -0.00000000000E+00 -0.00000000000E+00 -0.45593999997E+02  0.45594000000E+02  0.51100000000E-03 0.  1.
    9900012    2    1    2    0    0  0.24190738769E+02  0.35301550541E+02  0.72271712703E+01  0.47787270544E+02  0.19999997718E+02 0.  0.
         12    1    1    2    0    0 -0.24190738769E+02 -0.35301550541E+02 -0.72271712703E+01  0.43400729456E+02  0.00000000000E+00 0. -1.
         11    1    3    3    0    0  0.13030521055E+02  0.15128984800E+02 -0.17101735939E+01  0.20040093663E+02  0.51100000000E-03 0. -1.
        -11    1    3    3    0    0  0.17350053282E+01  0.44829071048E+01 -0.32097892006E+01  0.57800905332E+01  0.51100000000E-03 0.  1.
        -12    1    3    3    0    0  0.94252123854E+01  0.15689658636E+02  0.12147134065E+02  0.21967086348E+02  0.00000000000E+00 0.  1.
</event>
<event>
 7    1  0.2387817E-009  0.4778727E+02  0.7816164E-02  0.1312668E+00
        -11   -1    0    0    0    0  0.00000000000E+00  0.00000000000E+00  0.45593999997E+02  0.45594000000E+02  0.51100000000E-03 0.  1.
         11   -1    0    0    0    0 -0.00000000000E+00 -0.00000000000E+00 -0.45593999997E+02  0.45594000000E+02  0.51100000000E-03 0. -1.
    9900012    2    1    2    0    0 -0.50496098141E+01 -0.23989342135E+02  0.35813909029E+02  0.47787272181E+02  0.20000005180E+02 0.  0.
         12    1    1    2    0    0  0.50496098141E+01  0.23989342135E+02 -0.35813909029E+02  0.43400727819E+02  0.00000000000E+00 0. -1.
         11    1    3    3    0    0  0.41942283350E+01 -0.12838872803E+01  0.35877081703E+01  0.56667069848E+01  0.51100000000E-03 0. -1.
        -11    1    3    3    0    0 -0.31240079825E+01 -0.93428368706E+01  0.46971124589E+01  0.10913793675E+02  0.51100000000E-03 0.  1.
        -12    1    3    3    0    0 -0.61198301666E+01 -0.13362617984E+02  0.27529088399E+02  0.31206771521E+02  0.00000000000E+00 0.  1.
</event>
<event>
 7    1  0.2387817E-009  0.4778727E+02  0.7816164E-02  0.1312668E+00
        -11   -1    0    0    0    0  0.00000000000E+00  0.00000000000E+00  0.45593999997E+02  0.45594000000E+02  0.51100000000E-03 0.  1.
         11   -1    0    0    0    0 -0.00000000000E+00 -0.00000000000E+00 -0.45593999997E+02  0.45594000000E+02  0.51100000000E-03 0. -1.
    9900012    2    1    2    0    0 -0.19820487916E+02 -0.17052292049E+02  0.34640884651E+02  0.47787270804E+02  0.19999998905E+02 0.  0.
         12    1    1    2    0    0  0.19820487916E+02  0.17052292049E+02 -0.34640884651E+02  0.43400729196E+02  0.00000000000E+00 0. -1.
         11    1    3    3    0    0 -0.83113705917E+01 -0.41308820707E+01  0.10512672859E+02  0.14023528754E+02  0.51100000000E-03 0.  1.
        -11    1    3    3    0    0 -0.58454643111E+01 -0.45857626342E+01 -0.19849053017E+00  0.74322318788E+01  0.51100000000E-03 0. -1.
         12    1    3    3    0    0 -0.56636530134E+01 -0.83356473439E+01  0.24326702321E+02  0.26331510172E+02  0.00000000000E+00 0. -1.
</event>
<event>
 7    1  0.2387817E-009  0.4778727E+02  0.7816164E-02  0.1312668E+00
        -11   -1    0    0    0    0  0.00000000000E+00  0.00000000000E+00  0.45593999997E+02  0.45594000000E+02  0.51100000000E-03 0. -1.
         11   -1    0    0    0    0 -0.00000000000E+00 -0.00000000000E+00 -0.45593999997E+02  0.45594000000E+02  0.51100000000E-03 0.  1.
    9900012    2    1    2    0    0  0.40390674495E+02  0.10444186423E+02 -0.11963943140E+02  0.47787267844E+02  0.19999985410E+02 0.  0.
         12    1    1    2    0    0 -0.40390674495E+02 -0.10444186423E+02  0.11963943140E+02  0.43400732156E+02  0.00000000000E+00 0. -1.
         11    1    3    3    0    0  0.20042807054E+01  0.23080599743E+01 -0.52729068296E+00  0.31019860922E+01  0.51100000000E-03 0. -1.
        -11    1    3    3    0    0  0.19865979735E+02  0.18578712997E+01 -0.14800080040E+02  0.24842528174E+02  0.51100000000E-03 0.  1.
         12    1    3    3    0    0  0.18520414054E+02  0.62782551490E+01  0.33634275836E+01  0.19842753578E+02  0.00000000000E+00 0. -1.
</event>
<event>
 7    1  0.2387817E-009  0.4778727E+02  0.7816164E-02  0.1312668E+00
        -11   -1    0    0    0    0  0.00000000000E+00  0.00000000000E+00  0.45593999997E+02  0.45594000000E+02  0.51100000000E-03 0.  1.
         11   -1    0    0    0    0 -0.00000000000E+00 -0.00000000000E+00 -0.45593999997E+02  0.45594000000E+02  0.51100000000E-03 0. -1.
    9900012    2    1    2    0    0  0.38665736049E+02 -0.15972214927E+02  0.11553031440E+02  0.47787270405E+02  0.19999997087E+02 0.  0.
         12    1    1    2    0    0 -0.38665736049E+02  0.15972214927E+02 -0.11553031440E+02  0.43400729595E+02  0.00000000000E+00 0. -1.
         11    1    3    3    0    0  0.10576891637E+02 -0.62920723887E+00  0.55735524738E+01  0.11972093630E+02  0.51100000000E-03 0. -1.
        -11    1    3    3    0    0 -0.16270464048E+01  0.36889922030E+00  0.60291324400E+00  0.17739422987E+01  0.51100000000E-03 0.  1.
        -12    1    3    3    0    0  0.29715890817E+02 -0.15711906908E+02  0.53765657227E+01  0.34041234477E+02  0.00000000000E+00 0.  1.
</event>
<event>
 7    1  0.2387817E-009  0.4778727E+02  0.7816164E-02  0.1312668E+00
        -11   -1    0    0    0    0  0.00000000000E+00  0.00000000000E+00  0.45593999997E+02  0.45594000000E+02  0.51100000000E-03 0. -1.
         11   -1    0    0    0    0 -0.00000000000E+00 -0.00000000000E+00 -0.45593999997E+02  0.45594000000E+02  0.51100000000E-03 0.  1.
    9900012    2    1    2    0    0 -0.32154816391E+02 -0.89322608294E+01  0.27747176824E+02  0.47787270486E+02  0.19999997452E+02 0.  0.
         12    1    1    2    0    0  0.32154816391E+02  0.89322608294E+01 -0.27747176824E+02  0.43400729514E+02  0.00000000000E+00 0. -1.
         11    1    3    3    0    0 -0.80453278244E+01 -0.70312662589E+01  0.28687546369E+01  0.11063261654E+02  0.51100000000E-03 0. -1.
        -11    1    3    3    0    0 -0.40104491907E+01 -0.49419878042E+01  0.36697934529E+01  0.73467224267E+01  0.51100000000E-03 0.  1.
        -12    1    3    3    0    0 -0.20099039376E+02  0.30409932337E+01  0.21208628734E+02  0.29377286404E+02  0.00000000000E+00 0.  1.
</event>
<event>
 7    1  0.2387817E-009  0.4778726E+02  0.7816164E-02  0.1312668E+00
        -11   -1    0    0    0    0  0.00000000000E+00  0.00000000000E+00  0.45593999997E+02  0.45594000000E+02  0.51100000000E-03 0. -1.
         11   -1    0    0    0    0 -0.00000000000E+00 -0.00000000000E+00 -0.45593999997E+02  0.45594000000E+02  0.51100000000E-03 0.  1.
    9900012    2    1    2    0    0 -0.37478449187E+02 -0.28481962515E+01 -0.21699710653E+02  0.47787264778E+02  0.19999971431E+02 0.  0.
         12    1    1    2    0    0  0.37478449187E+02  0.28481962515E+01  0.21699710653E+02  0.43400735222E+02  0.00000000000E+00 0. -1.
         11    1    3    3    0    0 -0.14130854455E+00  0.17362764531E+01 -0.20646238254E+01  0.27013507414E+01  0.51100000000E-03 0. -1.
        -11    1    3    3    0    0 -0.32878486703E+02  0.16088457610E+01 -0.16677618022E+02  0.36901574705E+02  0.51100000000E-03 0.  1.
         12    1    3    3    0    0 -0.44586539394E+01 -0.61933184656E+01 -0.29574688061E+01  0.81843393324E+01  0.00000000000E+00 0. -1.
</event>
<event>
 7    1  0.2387817E-009  0.4778727E+02  0.7816164E-02  0.1312668E+00
        -11   -1    0    0    0    0  0.00000000000E+00  0.00000000000E+00  0.45593999997E+02  0.45594000000E+02  0.51100000000E-03 0.  1.
         11   -1    0    0    0    0 -0.00000000000E+00 -0.00000000000E+00 -0.45593999997E+02  0.45594000000E+02  0.51100000000E-03 0. -1.
    9900012    2    1    2    0    0 -0.32629475788E+01  0.28446674262E+02  0.32615382408E+02  0.47787271053E+02  0.20000000040E+02 0.  0.
         12    1    1    2    0    0  0.32629475788E+01 -0.28446674262E+02 -0.32615382408E+02  0.43400728947E+02  0.00000000000E+00 0. -1.
         11    1    3    3    0    0 -0.14571246119E+01  0.78531479896E+00  0.67205939519E-01  0.16566376694E+01  0.51100000000E-03 0. -1.
        -11    1    3    3    0    0  0.22201617711E+01  0.14101227179E+02  0.27727922628E+02  0.31186718644E+02  0.51100000000E-03 0.  1.
        -12    1    3    3    0    0 -0.40259847380E+01  0.13560132284E+02  0.48202538405E+01  0.14943914740E+02  0.00000000000E+00 0.  1.
</event>
<event>
 7    1  0.2387817E-009  0.4778727E+02  0.7816164E-02  0.1312668E+00
        -11   -1    0    0    0    0  0.00000000000E+00  0.00000000000E+00  0.45593999997E+02  0.45594000000E+02  0.51100000000E-03 0.  1.
         11   -1    0    0    0    0 -0.00000000000E+00 -0.00000000000E+00 -0.45593999997E+02  0.45594000000E+02  0.51100000000E-03 0. -1.
    9900012    2    1    2    0    0 -0.23019625439E+02 -0.35775197785E+02  0.85939236440E+01  0.47787268952E+02  0.19999990460E+02 0.  0.
         12    1    1    2    0    0  0.23019625439E+02  0.35775197785E+02 -0.85939236440E+01  0.43400731048E+02  0.00000000000E+00 0. -1.
         11    1    3    3    0    0 -0.23226164390E+02 -0.26015927907E+02  0.10540445616E+01  0.34891176927E+02  0.51100000000E-03 0. -1.
        -11    1    3    3    0    0 -0.89173328575E+00 -0.13992411892E+01  0.11858892246E+00  0.16634685907E+01  0.51100000000E-03 0.  1.
         12    1    3    3    0    0  0.10982722368E+01 -0.83600286881E+01  0.74212901600E+01  0.11232623434E+02  0.00000000000E+00 0. -1.
</event>
<event>
 7    1  0.2387817E-009  0.4778728E+02  0.7816164E-02  0.1312668E+00
        -11   -1    0    0    0    0  0.00000000000E+00  0.00000000000E+00  0.45593999997E+02  0.45594000000E+02  0.51100000000E-03 0. -1.
         11   -1    0    0    0    0 -0.00000000000E+00 -0.00000000000E+00 -0.45593999997E+02  0.45594000000E+02  0.51100000000E-03 0.  1.
    9900012    2    1    2    0    0  0.24257693291E+02  0.62002681631E+01 -0.35450583493E+02  0.47787275593E+02  0.20000020736E+02 0.  0.
         12    1    1    2    0    0 -0.24257693291E+02 -0.62002681631E+01  0.35450583493E+02  0.43400724407E+02  0.00000000000E+00 0. -1.
         11    1    3    3    0    0  0.10187332505E+02 -0.68757818579E-01 -0.12417341331E+02  0.16061657361E+02  0.51100000000E-03 0. -1.
        -11    1    3    3    0    0  0.17461235378E+02  0.57012501561E+01 -0.19034166376E+02  0.26451814384E+02  0.51100000000E-03 0.  1.
         12    1    3    3    0    0 -0.33908745917E+01  0.56777582565E+00 -0.39990757855E+01  0.52738038476E+01  0.00000000000E+00 0. -1.
</event>
<event>
 7    1  0.2387817E-009  0.4778727E+02  0.7816164E-02  0.1312668E+00
        -11   -1    0    0    0    0  0.00000000000E+00  0.00000000000E+00  0.45593999997E+02  0.45594000000E+02  0.51100000000E-03 0.  1.
         11   -1    0    0    0    0 -0.00000000000E+00 -0.00000000000E+00 -0.45593999997E+02  0.45594000000E+02  0.51100000000E-03 0. -1.
    9900012    2    1    2    0    0  0.33901087795E+02  0.16248304223E+02  0.21687139408E+02  0.47787272362E+02  0.20000006009E+02 0.  0.
         12    1    1    2    0    0 -0.33901087795E+02 -0.16248304223E+02 -0.21687139408E+02  0.43400727638E+02  0.00000000000E+00 0. -1.
         11    1    3    3    0    0  0.13315005596E+02 -0.10153493461E+01  0.19940046958E+01  0.13501717051E+02  0.51100000000E-03 0. -1.
        -11    1    3    3    0    0  0.18345090229E+02  0.14471396580E+02  0.13111695098E+02  0.26793286530E+02  0.51100000000E-03 0.  1.
        -12    1    3    3    0    0  0.22409919696E+01  0.27922569888E+01  0.65814396144E+01  0.74922687817E+01  0.00000000000E+00 0.  1.
</event>
<event>
 7    1  0.2387817E-009  0.4778727E+02  0.7816164E-02  0.1312668E+00
        -11   -1    0    0    0    0  0.00000000000E+00  0.00000000000E+00  0.45593999997E+02  0.45594000000E+02  0.51100000000E-03 0.  1.
         11   -1    0    0    0    0 -0.00000000000E+00 -0.00000000000E+00 -0.45593999997E+02  0.45594000000E+02  0.51100000000E-03 0. -1.
    9900012    2    1    2    0    0  0.71379756951E+00 -0.25095473437E+02  0.35402413835E+02  0.47787271903E+02  0.20000003916E+02 0.  0.
         12    1    1    2    0    0 -0.71379756951E+00  0.25095473437E+02 -0.35402413835E+02  0.43400728097E+02  0.00000000000E+00 0. -1.
         11    1    3    3    0    0  0.34338147699E+01 -0.59970782223E+01  0.27775851413E+01  0.74478863147E+01  0.51100000000E-03 0. -1.
        -11    1    3    3    0    0 -0.40256657810E+01 -0.17474532006E+02  0.17447188817E+02  0.25019385518E+02  0.51100000000E-03 0.  1.
        -12    1    3    3    0    0  0.13056485806E+01 -0.16238632083E+01  0.15177639877E+02  0.15320000071E+02  0.00000000000E+00 0.  1.
</event>
<event>
 7    1  0.2387817E-009  0.4778727E+02  0.7816164E-02  0.1312668E+00
        -11   -1    0    0    0    0  0.00000000000E+00  0.00000000000E+00  0.45593999997E+02  0.45594000000E+02  0.51100000000E-03 0.  1.
         11   -1    0    0    0    0 -0.00000000000E+00 -0.00000000000E+00 -0.45593999997E+02  0.45594000000E+02  0.51100000000E-03 0. -1.
    9900012    2    1    2    0    0  0.12121943736E+02 -0.86350376084E+01  0.40769081631E+02  0.47787269459E+02  0.19999992773E+02 0.  0.
         12    1    1    2    0    0 -0.12121943736E+02  0.86350376084E+01 -0.40769081631E+02  0.43400730541E+02  0.00000000000E+00 0. -1.
         11    1    3    3    0    0  0.35960534446E+01  0.72721164564E+00  0.46123152274E+01  0.58935464003E+01  0.51100000000E-03 0. -1.
        -11    1    3    3    0    0  0.10478373920E+02 -0.71685554560E+01  0.11711325872E+02  0.17272511724E+02  0.51100000000E-03 0.  1.
         12    1    3    3    0    0 -0.19524836287E+01 -0.21936937980E+01  0.24445440532E+02  0.24621211335E+02  0.00000000000E+00 0. -1.
</event>
<event>
 7    1  0.2387817E-009  0.4778727E+02  0.7816164E-02  0.1312668E+00
        -11   -1    0    0    0    0  0.00000000000E+00  0.00000000000E+00  0.45593999997E+02  0.45594000000E+02  0.51100000000E-03 0.  1.
         11   -1    0    0    0    0 -0.00000000000E+00 -0.00000000000E+00 -0.45593999997E+02  0.45594000000E+02  0.51100000000E-03 0. -1.
    9900012    2    1    2    0    0 -0.27135243464E+02  0.71087422606E+01  0.33117482971E+02  0.47787270367E+02  0.19999996909E+02 0.  0.
         12    1    1    2    0    0  0.27135243464E+02 -0.71087422606E+01 -0.33117482971E+02  0.43400729633E+02  0.00000000000E+00 0. -1.
         11    1    3    3    0    0 -0.45622615816E+01  0.66849544836E+01  0.10303721164E+02  0.13102271455E+02  0.51100000000E-03 0. -1.
        -11    1    3    3    0    0  0.37264559065E+00  0.16485554945E+01 -0.68042377572E+00  0.18219705624E+01  0.51100000000E-03 0.  1.
        -12    1    3    3    0    0 -0.22945627473E+02 -0.12247677174E+01  0.23494185582E+02  0.32863028349E+02  0.00000000000E+00 0.  1.
</event>
<event>
 7    1  0.2387817E-009  0.4778727E+02  0.7816164E-02  0.1312668E+00
        -11   -1    0    0    0    0  0.00000000000E+00  0.00000000000E+00  0.45593999997E+02  0.45594000000E+02  0.51100000000E-03 0.  1.
         11   -1    0    0    0    0 -0.00000000000E+00 -0.00000000000E+00 -0.45593999997E+02  0.45594000000E+02  0.51100000000E-03 0. -1.
    9900012    2    1    2    0    0  0.29161035394E+02  0.30370243287E+02  0.10531175968E+02  0.47787270400E+02  0.19999997062E+02 0.  0.
         12    1    1    2    0    0 -0.29161035394E+02 -0.30370243287E+02 -0.10531175968E+02  0.43400729600E+02  0.00000000000E+00 0. -1.
         11    1    3    3    0    0  0.58695480230E+01  0.88719030846E+01 -0.10358038503E+01  0.10688084403E+02  0.51100000000E-03 0. -1.
        -11    1    3    3    0    0  0.12609668956E+02  0.20521295937E+02  0.52516191604E+01  0.24651710735E+02  0.51100000000E-03 0.  1.
         12    1    3    3    0    0  0.10681818415E+02  0.97704426546E+00  0.63153606578E+01  0.12447475261E+02  0.00000000000E+00 0. -1.
</event>
<event>
 7    1  0.2387817E-009  0.4778728E+02  0.7816164E-02  0.1312668E+00
        -11   -1    0    0    0    0  0.00000000000E+00  0.00000000000E+00  0.45593999997E+02  0.45594000000E+02  0.51100000000E-03 0.  1.
         11   -1    0    0    0    0 -0.00000000000E+00 -0.00000000000E+00 -0.45593999997E+02  0.45594000000E+02  0.51100000000E-03 0. -1.
    9900012    2    1    2    0    0  0.30080292271E+02 -0.27343183669E+02  0.15203586996E+02  0.47787277267E+02  0.20000028370E+02 0.  0.
         12    1    1    2    0    0 -0.30080292271E+02  0.27343183669E+02 -0.15203586996E+02  0.43400722733E+02  0.00000000000E+00 0. -1.
         11    1    3    3    0    0  0.13927833143E+02 -0.25134125704E+01  0.68898928422E+01  0.15740787860E+02  0.51100000000E-03 0. -1.
        -11    1    3    3    0    0  0.51350614283E+01 -0.22660662264E+01  0.30605814345E+01  0.63930486463E+01  0.51100000000E-03 0.  1.
        -12    1    3    3    0    0  0.11017397699E+02 -0.22563704872E+02  0.52531127189E+01  0.25653440761E+02  0.00000000000E+00 0.  1.
</event>
<event>
 7    1  0.2387817E-009  0.4778727E+02  0.7816164E-02  0.1312668E+00
        -11   -1    0    0    0    0  0.00000000000E+00  0.00000000000E+00  0.45593999997E+02  0.45594000000E+02  0.51100000000E-03 0.  1.
         11   -1    0    0    0    0 -0.00000000000E+00 -0.00000000000E+00 -0.45593999997E+02  0.45594000000E+02  0.51100000000E-03 0. -1.
    9900012    2    1    2    0    0 -0.99786347825E+01 -0.40265496467E+01  0.42045659541E+02  0.47787265670E+02  0.19999975494E+02 0.  0.
         12    1    1    2    0    0  0.99786347825E+01  0.40265496467E+01 -0.42045659541E+02  0.43400734330E+02  0.00000000000E+00 0. -1.
         11    1    3    3    0    0 -0.54650068752E+00  0.29580062767E+01  0.98106155437E+01  0.10261415192E+02  0.51100000000E-03 0. -1.
        -11    1    3    3    0    0 -0.11480081837E+02 -0.24568841179E+01  0.29723309988E+02  0.31957842785E+02  0.51100000000E-03 0.  1.
         12    1    3    3    0    0  0.20479477420E+01 -0.45276718055E+01  0.25117340091E+01  0.55680076926E+01  0.00000000000E+00 0. -1.
</event>
<event>
 7    1  0.2387817E-009  0.4778727E+02  0.7816164E-02  0.1312668E+00
        -11   -1    0    0    0    0  0.00000000000E+00  0.00000000000E+00  0.45593999997E+02  0.45594000000E+02  0.51100000000E-03 0.  1.
         11   -1    0    0    0    0 -0.00000000000E+00 -0.00000000000E+00 -0.45593999997E+02  0.45594000000E+02  0.51100000000E-03 0. -1.
    9900012    2    1    2    0    0  0.99367172601E+01  0.28172493452E+02  0.31483254441E+02  0.47787273653E+02  0.20000011893E+02 0.  0.
         12    1    1    2    0    0 -0.99367172601E+01 -0.28172493452E+02 -0.31483254441E+02  0.43400726347E+02  0.00000000000E+00 0. -1.
         11    1    3    3    0    0  0.52219857682E+01  0.46253722210E+00  0.54353282249E+01  0.75515474718E+01  0.51100000000E-03 0. -1.
        -11    1    3    3    0    0  0.88945779154E+01  0.19009788702E+02  0.17059233436E+02  0.27046312659E+02  0.51100000000E-03 0.  1.
         12    1    3    3    0    0 -0.41798464234E+01  0.87001675286E+01  0.89886927810E+01  0.13189413522E+02  0.00000000000E+00 0. -1.
</event>
<event>
 7    1  0.2387817E-009  0.4778727E+02  0.7816164E-02  0.1312668E+00
        -11   -1    0    0    0    0  0.00000000000E+00  0.00000000000E+00  0.45593999997E+02  0.45594000000E+02  0.51100000000E-03 0.  1.
         11   -1    0    0    0    0 -0.00000000000E+00 -0.00000000000E+00 -0.45593999997E+02  0.45594000000E+02  0.51100000000E-03 0. -1.
    9900012    2    1    2    0    0  0.25321600951E+02  0.41717021838E+00  0.35245793110E+02  0.47787269157E+02  0.19999991395E+02 0.  0.
         12    1    1    2    0    0 -0.25321600951E+02 -0.41717021838E+00 -0.35245793110E+02  0.43400730843E+02  0.00000000000E+00 0. -1.
         11    1    3    3    0    0 -0.15593472805E+01 -0.68190323350E+00  0.27117012663E+00  0.17233947487E+01  0.51100000000E-03 0. -1.
        -11    1    3    3    0    0  0.24147839586E+02  0.31179495985E+01  0.22562212733E+02  0.33194776849E+02  0.51100000000E-03 0.  1.
         12    1    3    3    0    0  0.27331086456E+01 -0.20188761466E+01  0.12412410250E+02  0.12869097559E+02  0.00000000000E+00 0. -1.
</event>
<event>
 7    1  0.2387817E-009  0.4778727E+02  0.7816164E-02  0.1312668E+00
        -11   -1    0    0    0    0  0.00000000000E+00  0.00000000000E+00  0.45593999997E+02  0.45594000000E+02  0.51100000000E-03 0. -1.
         11   -1    0    0    0    0 -0.00000000000E+00 -0.00000000000E+00 -0.45593999997E+02  0.45594000000E+02  0.51100000000E-03 0.  1.
    9900012    2    1    2    0    0 -0.28580341827E+02  0.15491739103E+02 -0.28754013406E+02  0.47787271823E+02  0.20000003550E+02 0.  0.
         12    1    1    2    0    0  0.28580341827E+02 -0.15491739103E+02  0.28754013406E+02  0.43400728177E+02  0.00000000000E+00 0. -1.
         11    1    3    3    0    0 -0.50280667419E+01 -0.26326887460E+00 -0.89454865172E+01  0.10265110567E+02  0.51100000000E-03 0. -1.
        -11    1    3    3    0    0 -0.74580472473E+01 -0.73785035555E+00 -0.59354047317E+00  0.75179240781E+01  0.51100000000E-03 0.  1.
        -12    1    3    3    0    0 -0.16094227837E+02  0.16492858334E+02 -0.19214986415E+02  0.30004237178E+02  0.00000000000E+00 0.  1.
</event>
<event>
 7    1  0.2387817E-009  0.4778729E+02  0.7816164E-02  0.1312668E+00
        -11   -1    0    0    0    0  0.00000000000E+00  0.00000000000E+00  0.45593999997E+02  0.45594000000E+02  0.51100000000E-03 0.  1.
         11   -1    0    0    0    0 -0.00000000000E+00 -0.00000000000E+00 -0.45593999997E+02  0.45594000000E+02  0.51100000000E-03 0. -1.
    9900012    2    1    2    0    0  0.14871833150E+02 -0.34799042157E+02  0.21247992760E+02  0.47787286266E+02  0.20000069400E+02 0.  0.
         12    1    1    2    0    0 -0.14871833150E+02  0.34799042157E+02 -0.21247992760E+02  0.43400713734E+02  0.00000000000E+00 0. -1.
         11    1    3    3    0    0  0.10802924099E+02 -0.17541172895E+02  0.13162997607E+02  0.24447094345E+02  0.51100000000E-03 0. -1.
        -11    1    3    3    0    0  0.43427817156E+01 -0.98680372814E+01  0.10989779152E+02  0.15395231693E+02  0.51100000000E-03 0.  1.
         12    1    3    3    0    0 -0.27387266528E+00 -0.73898319807E+01 -0.29047839988E+01  0.79449602277E+01  0.00000000000E+00 0. -1.
</event>
<event>
 7    1  0.2387817E-009  0.4778727E+02  0.7816164E-02  0.1312668E+00
        -11   -1    0    0    0    0  0.00000000000E+00  0.00000000000E+00  0.45593999997E+02  0.45594000000E+02  0.51100000000E-03 0.  1.
         11   -1    0    0    0    0 -0.00000000000E+00 -0.00000000000E+00 -0.45593999997E+02  0.45594000000E+02  0.51100000000E-03 0. -1.
    9900012    2    1    2    0    0  0.34187261959E+01  0.25554601945E+02  0.34912723104E+02  0.47787267242E+02  0.19999982665E+02 0.  0.
         12    1    1    2    0    0 -0.34187261959E+01 -0.25554601945E+02 -0.34912723104E+02  0.43400732758E+02  0.00000000000E+00 0. -1.
         11    1    3    3    0    0 -0.10784165836E+01  0.39805063846E+01  0.83052522677E+01  0.92727897041E+01  0.51100000000E-03 0. -1.
        -11    1    3    3    0    0  0.41437329346E+01  0.24525482998E+02  0.23844356347E+02  0.34456104957E+02  0.51100000000E-03 0.  1.
         12    1    3    3    0    0  0.35340984490E+00 -0.29513874383E+01  0.27631144893E+01  0.40583725815E+01  0.00000000000E+00 0. -1.
</event>
<event>
 7    1  0.2387817E-009  0.4778727E+02  0.7816164E-02  0.1312668E+00
        -11   -1    0    0    0    0  0.00000000000E+00  0.00000000000E+00  0.45593999997E+02  0.45594000000E+02  0.51100000000E-03 0.  1.
         11   -1    0    0    0    0 -0.00000000000E+00 -0.00000000000E+00 -0.45593999997E+02  0.45594000000E+02  0.51100000000E-03 0. -1.
    9900012    2    1    2    0    0  0.27457280500E+02 -0.23027951374E+02  0.24483346922E+02  0.47787273354E+02  0.20000010528E+02 0.  0.
         12    1    1    2    0    0 -0.27457280500E+02  0.23027951374E+02 -0.24483346922E+02  0.43400726646E+02  0.00000000000E+00 0. -1.
         11    1    3    3    0    0  0.35969531073E+01 -0.54720686043E+01  0.75206607933E+01  0.99720582376E+01  0.51100000000E-03 0. -1.
        -11    1    3    3    0    0  0.23095603539E+02 -0.15717313514E+02  0.19876632911E+02  0.34285877312E+02  0.51100000000E-03 0.  1.
         12    1    3    3    0    0  0.76472385428E+00 -0.18385692557E+01 -0.29139467827E+01  0.35293378038E+01  0.00000000000E+00 0. -1.
</event>
<event>
 7    1  0.2387817E-009  0.4778726E+02  0.7816164E-02  0.1312668E+00
        -11   -1    0    0    0    0  0.00000000000E+00  0.00000000000E+00  0.45593999997E+02  0.45594000000E+02  0.51100000000E-03 0.  1.
         11   -1    0    0    0    0 -0.00000000000E+00 -0.00000000000E+00 -0.45593999997E+02  0.45594000000E+02  0.51100000000E-03 0. -1.
    9900012    2    1    2    0    0 -0.20462806328E+02  0.29703039772E+02  0.24137668632E+02  0.47787261970E+02  0.19999958627E+02 0.  0.
         12    1    1    2    0    0  0.20462806328E+02 -0.29703039772E+02 -0.24137668632E+02  0.43400738030E+02  0.00000000000E+00 0. -1.
         11    1    3    3    0    0 -0.48678980159E+01 -0.58118038647E+00  0.74159508309E+01  0.88899116262E+01  0.51100000000E-03 0. -1.
        -11    1    3    3    0    0 -0.11403955849E+01  0.57554381122E+01  0.62217623423E+01  0.85519528096E+01  0.51100000000E-03 0.  1.
        -12    1    3    3    0    0 -0.14454512727E+02  0.24528782047E+02  0.10499955459E+02  0.30345397534E+02  0.00000000000E+00 0.  1.
</event>
<event>
 7    1  0.2387817E-009  0.4778727E+02  0.7816164E-02  0.1312668E+00
        -11   -1    0    0    0    0  0.00000000000E+00  0.00000000000E+00  0.45593999997E+02  0.45594000000E+02  0.51100000000E-03 0.  1.
         11   -1    0    0    0    0 -0.00000000000E+00 -0.00000000000E+00 -0.45593999997E+02  0.45594000000E+02  0.51100000000E-03 0. -1.
    9900012    2    1    2    0    0  0.30782701412E+02  0.21047806166E+02  0.22204468505E+02  0.47787271063E+02  0.20000000087E+02 0.  0.
         12    1    1    2    0    0 -0.30782701412E+02 -0.21047806166E+02 -0.22204468505E+02  0.43400728937E+02  0.00000000000E+00 0. -1.
         11    1    3    3    0    0  0.11518010513E+01 -0.96017561245E+00  0.15089926456E+01  0.21273556200E+01  0.51100000000E-03 0.  1.
        -11    1    3    3    0    0  0.12086726882E+02  0.10584849321E+02 -0.21873647798E+00  0.16067851374E+02  0.51100000000E-03 0. -1.
        -12    1    3    3    0    0  0.17544173478E+02  0.11423132457E+02  0.20914212338E+02  0.29592064070E+02  0.00000000000E+00 0.  1.
</event>
<event>
 7    1  0.2387817E-009  0.4778728E+02  0.7816164E-02  0.1312668E+00
        -11   -1    0    0    0    0  0.00000000000E+00  0.00000000000E+00  0.45593999997E+02  0.45594000000E+02  0.51100000000E-03 0.  1.
         11   -1    0    0    0    0 -0.00000000000E+00 -0.00000000000E+00 -0.45593999997E+02  0.45594000000E+02  0.51100000000E-03 0. -1.
    9900012    2    1    2    0    0 -0.30118297714E+01 -0.29107718666E+00  0.43295114717E+02  0.47787276470E+02  0.20000024739E+02 0.  0.
         12    1    1    2    0    0  0.30118297714E+01  0.29107718666E+00 -0.43295114717E+02  0.43400723530E+02  0.00000000000E+00 0. -1.
         11    1    3    3    0    0 -0.32812948038E+01  0.86517509237E+01  0.12348310101E+02  0.15430503953E+02  0.51100000000E-03 0. -1.
        -11    1    3    3    0    0  0.47393880658E+00 -0.71005087016E+01  0.19439115370E+02  0.20700749949E+02  0.51100000000E-03 0.  1.
         12    1    3    3    0    0 -0.20447377419E+00 -0.18423194088E+01  0.11507689246E+02  0.11656022568E+02  0.00000000000E+00 0. -1.
</event>
<event>
 7    1  0.2387817E-009  0.4778728E+02  0.7816164E-02  0.1312668E+00
        -11   -1    0    0    0    0  0.00000000000E+00  0.00000000000E+00  0.45593999997E+02  0.45594000000E+02  0.51100000000E-03 0.  1.
         11   -1    0    0    0    0 -0.00000000000E+00 -0.00000000000E+00 -0.45593999997E+02  0.45594000000E+02  0.51100000000E-03 0. -1.
    9900012    2    1    2    0    0 -0.19348602364E+02  0.64964916681E+01  0.38302088427E+02  0.47787276558E+02  0.20000025140E+02 0.  0.
         12    1    1    2    0    0  0.19348602364E+02 -0.64964916681E+01 -0.38302088427E+02  0.43400723442E+02  0.00000000000E+00 0. -1.
         11    1    3    3    0    0  0.16302303115E+01  0.23629504351E+01  0.12828118750E+01  0.31443269860E+01  0.51100000000E-03 0. -1.
        -11    1    3    3    0    0 -0.50443123175E+01 -0.34688068361E+01  0.43558683190E+01  0.75134077951E+01  0.51100000000E-03 0.  1.
        -12    1    3    3    0    0 -0.15934520358E+02  0.76023480691E+01  0.32663408233E+02  0.37129541777E+02  0.00000000000E+00 0.  1.
</event>
<event>
 7    1  0.2387817E-009  0.4778727E+02  0.7816164E-02  0.1312668E+00
        -11   -1    0    0    0    0  0.00000000000E+00  0.00000000000E+00  0.45593999997E+02  0.45594000000E+02  0.51100000000E-03 0.  1.
         11   -1    0    0    0    0 -0.00000000000E+00 -0.00000000000E+00 -0.45593999997E+02  0.45594000000E+02  0.51100000000E-03 0. -1.
    9900012    2    1    2    0    0  0.20899680026E+02  0.13743353250E+02  0.35467549479E+02  0.47787269018E+02  0.19999990758E+02 0.  0.
         12    1    1    2    0    0 -0.20899680026E+02 -0.13743353250E+02 -0.35467549479E+02  0.43400730982E+02  0.00000000000E+00 0. -1.
         11    1    3    3    0    0  0.32965223278E-01 -0.11542401961E+01  0.14641295717E+02  0.14686759263E+02  0.51100000000E-03 0. -1.
        -11    1    3    3    0    0  0.40358369850E+01  0.27856668326E+01  0.29498110131E+01  0.57227008611E+01  0.51100000000E-03 0.  1.
         12    1    3    3    0    0  0.16830877818E+02  0.12111926613E+02  0.17876442750E+02  0.27377808893E+02  0.00000000000E+00 0. -1.
</event>
<event>
 7    1  0.2387817E-009  0.4778726E+02  0.7816164E-02  0.1312668E+00
        -11   -1    0    0    0    0  0.00000000000E+00  0.00000000000E+00  0.45593999997E+02  0.45594000000E+02  0.51100000000E-03 0.  1.
         11   -1    0    0    0    0 -0.00000000000E+00 -0.00000000000E+00 -0.45593999997E+02  0.45594000000E+02  0.51100000000E-03 0. -1.
    9900012    2    1    2    0    0  0.21373698341E+02  0.10095911861E+02  0.36398652421E+02  0.47787259048E+02  0.19999945304E+02 0.  0.
         12    1    1    2    0    0 -0.21373698341E+02 -0.10095911861E+02 -0.36398652421E+02  0.43400740952E+02  0.00000000000E+00 0. -1.
         11    1    3    3    0    0  0.10039129633E+02  0.72932546219E+01  0.21489431995E+02  0.24814741073E+02  0.51100000000E-03 0. -1.
        -11    1    3    3    0    0  0.97998290449E+01  0.60538195158E+01  0.15518156449E+02  0.19326110832E+02  0.51100000000E-03 0.  1.
         12    1    3    3    0    0  0.15347396627E+01 -0.32511622764E+01 -0.60893602249E+00  0.36464071439E+01  0.00000000000E+00 0. -1.
</event>
<event>
 7    1  0.2387817E-009  0.4778727E+02  0.7816164E-02  0.1312668E+00
        -11   -1    0    0    0    0  0.00000000000E+00  0.00000000000E+00  0.45593999997E+02  0.45594000000E+02  0.51100000000E-03 0. -1.
         11   -1    0    0    0    0 -0.00000000000E+00 -0.00000000000E+00 -0.45593999997E+02  0.45594000000E+02  0.51100000000E-03 0.  1.
    9900012    2    1    2    0    0  0.18362428934E+02 -0.81618181332E+00 -0.39316387315E+02  0.47787271197E+02  0.20000000696E+02 0.  0.
         12    1    1    2    0    0 -0.18362428934E+02  0.81618181332E+00  0.39316387315E+02  0.43400728803E+02  0.00000000000E+00 0. -1.
         11    1    3    3    0    0  0.62261147047E-01 -0.31101702759E+00 -0.21387156362E+01  0.21621084328E+01  0.51100000000E-03 0. -1.
        -11    1    3    3    0    0  0.20930684445E+02 -0.42086365744E+01 -0.33744387816E+02  0.39931064130E+02  0.51100000000E-03 0.  1.
         12    1    3    3    0    0 -0.26305166583E+01  0.37034717887E+01 -0.34332838625E+01  0.56940986345E+01  0.00000000000E+00 0. -1.
</event>
<event>
 7    1  0.2387817E-009  0.4778727E+02  0.7816164E-02  0.1312668E+00
        -11   -1    0    0    0    0  0.00000000000E+00  0.00000000000E+00  0.45593999997E+02  0.45594000000E+02  0.51100000000E-03 0. -1.
         11   -1    0    0    0    0 -0.00000000000E+00 -0.00000000000E+00 -0.45593999997E+02  0.45594000000E+02  0.51100000000E-03 0.  1.
    9900012    2    1    2    0    0 -0.16610437966E+02 -0.28271622320E+02 -0.28432935548E+02  0.47787273025E+02  0.20000009032E+02 0.  0.
         12    1    1    2    0    0  0.16610437966E+02  0.28271622320E+02  0.28432935548E+02  0.43400726975E+02  0.00000000000E+00 0. -1.
         11    1    3    3    0    0  0.14512617774E+01 -0.36325799197E+00 -0.21001785064E+01  0.25785397292E+01  0.51100000000E-03 0. -1.
        -11    1    3    3    0    0  0.11675524297E+01  0.13184854451E+01 -0.13515968794E+01  0.22199993087E+01  0.51100000000E-03 0.  1.
         12    1    3    3    0    0 -0.19229252173E+02 -0.29226849773E+02 -0.24981160162E+02  0.42988733988E+02  0.00000000000E+00 0. -1.
</event>
<event>
 7    1  0.2387817E-009  0.4778727E+02  0.7816164E-02  0.1312668E+00
        -11   -1    0    0    0    0  0.00000000000E+00  0.00000000000E+00  0.45593999997E+02  0.45594000000E+02  0.51100000000E-03 0.  1.
         11   -1    0    0    0    0 -0.00000000000E+00 -0.00000000000E+00 -0.45593999997E+02  0.45594000000E+02  0.51100000000E-03 0. -1.
    9900012    2    1    2    0    0  0.34883296292E+02 -0.48074056396E+01  0.25370605763E+02  0.47787272518E+02  0.20000006720E+02 0.  0.
         12    1    1    2    0    0 -0.34883296292E+02  0.48074056396E+01 -0.25370605763E+02  0.43400727482E+02  0.00000000000E+00 0. -1.
         11    1    3    3    0    0  0.50183238355E+01 -0.37186346203E+01  0.17308454234E+00  0.62483418662E+01  0.51100000000E-03 0. -1.
        -11    1    3    3    0    0  0.11094914008E+02 -0.50175059098E+01  0.16436613699E+02  0.20455677759E+02  0.51100000000E-03 0.  1.
         12    1    3    3    0    0  0.18770058448E+02  0.39287348904E+01  0.87609075215E+01  0.21083252894E+02  0.00000000000E+00 0. -1.
</event>
<event>
 7    1  0.2387817E-009  0.4778728E+02  0.7816164E-02  0.1312668E+00
        -11   -1    0    0    0    0  0.00000000000E+00  0.00000000000E+00  0.45593999997E+02  0.45594000000E+02  0.51100000000E-03 0.  1.
         11   -1    0    0    0    0 -0.00000000000E+00 -0.00000000000E+00 -0.45593999997E+02  0.45594000000E+02  0.51100000000E-03 0. -1.
    9900012    2    1    2    0    0 -0.18641910709E+02  0.27718955159E+02  0.27708510612E+02  0.47787275693E+02  0.20000021196E+02 0.  0.
         12    1    1    2    0    0  0.18641910709E+02 -0.27718955159E+02 -0.27708510612E+02  0.43400724307E+02  0.00000000000E+00 0. -1.
         11    1    3    3    0    0 -0.52775610676E+01  0.90821703753E+01  0.16533612986E+02  0.19588231880E+02  0.51100000000E-03 0. -1.
        -11    1    3    3    0    0 -0.65408594395E+01  0.11177342746E+02  0.12504795356E+02  0.18002381516E+02  0.51100000000E-03 0.  1.
        -12    1    3    3    0    0 -0.68234902017E+01  0.74594420381E+01 -0.13298977298E+01  0.10196662298E+02  0.00000000000E+00 0.  1.
</event>
<event>
 7    1  0.2387817E-009  0.4778726E+02  0.7816164E-02  0.1312668E+00
        -11   -1    0    0    0    0  0.00000000000E+00  0.00000000000E+00  0.45593999997E+02  0.45594000000E+02  0.51100000000E-03 0.  1.
         11   -1    0    0    0    0 -0.00000000000E+00 -0.00000000000E+00 -0.45593999997E+02  0.45594000000E+02  0.51100000000E-03 0. -1.
    9900012    2    1    2    0    0  0.35453901304E+01  0.27858065468E+01  0.43165889231E+02  0.47787256891E+02  0.19999935470E+02 0.  0.
         12    1    1    2    0    0 -0.35453901304E+01 -0.27858065468E+01 -0.43165889231E+02  0.43400743109E+02  0.00000000000E+00 0. -1.
         11    1    3    3    0    0  0.17753783143E+01 -0.35095957632E+01  0.42741642409E+01  0.58084172370E+01  0.51100000000E-03 0. -1.
        -11    1    3    3    0    0  0.73263735792E+01  0.58569302966E+01  0.17298073736E+02  0.19677467763E+02  0.51100000000E-03 0.  1.
         12    1    3    3    0    0 -0.55563617631E+01  0.43847201334E+00  0.21593651254E+02  0.22301371891E+02  0.00000000000E+00 0. -1.
</event>
<event>
 7    1  0.2387817E-009  0.4778727E+02  0.7816164E-02  0.1312668E+00
        -11   -1    0    0    0    0  0.00000000000E+00  0.00000000000E+00  0.45593999997E+02  0.45594000000E+02  0.51100000000E-03 0.  1.
         11   -1    0    0    0    0 -0.00000000000E+00 -0.00000000000E+00 -0.45593999997E+02  0.45594000000E+02  0.51100000000E-03 0. -1.
    9900012    2    1    2    0    0 -0.17590136951E+02 -0.28262915617E+02  0.27846329274E+02  0.47787269923E+02  0.19999994888E+02 0.  0.
         12    1    1    2    0    0  0.17590136951E+02  0.28262915617E+02 -0.27846329274E+02  0.43400730077E+02  0.00000000000E+00 0. -1.
         11    1    3    3    0    0 -0.27274541589E+01 -0.49191137431E+01  0.10672011137E+02  0.12063519726E+02  0.51100000000E-03 0. -1.
        -11    1    3    3    0    0 -0.10023958841E+01 -0.83711223321E+01  0.12015854005E+02  0.14678597833E+02  0.51100000000E-03 0.  1.
        -12    1    3    3    0    0 -0.13860286908E+02 -0.14972679542E+02  0.51584641326E+01  0.21045152365E+02  0.00000000000E+00 0.  1.
</event>
<event>
 7    1  0.2387817E-009  0.4778728E+02  0.7816164E-02  0.1312668E+00
        -11   -1    0    0    0    0  0.00000000000E+00  0.00000000000E+00  0.45593999997E+02  0.45594000000E+02  0.51100000000E-03 0.  1.
         11   -1    0    0    0    0 -0.00000000000E+00 -0.00000000000E+00 -0.45593999997E+02  0.45594000000E+02  0.51100000000E-03 0. -1.
    9900012    2    1    2    0    0  0.39325783994E+02 -0.81574522661E+01  0.16448756276E+02  0.47787275384E+02  0.20000019784E+02 0.  0.
         12    1    1    2    0    0 -0.39325783994E+02  0.81574522661E+01 -0.16448756276E+02  0.43400724616E+02  0.00000000000E+00 0. -1.
         11    1    3    3    0    0  0.80922959387E+01  0.47443942740E+00  0.39051596310E+00  0.81155929733E+01  0.51100000000E-03 0. -1.
        -11    1    3    3    0    0  0.28136824653E+02 -0.41341004729E+01  0.18246154507E+02  0.33788960370E+02  0.51100000000E-03 0.  1.
         12    1    3    3    0    0  0.30966634016E+01 -0.44977912206E+01 -0.21879141940E+01  0.58827220406E+01  0.00000000000E+00 0. -1.
</event>
<event>
 7    1  0.2387817E-009  0.4778725E+02  0.7816164E-02  0.1312668E+00
        -11   -1    0    0    0    0  0.00000000000E+00  0.00000000000E+00  0.45593999997E+02  0.45594000000E+02  0.51100000000E-03 0. -1.
         11   -1    0    0    0    0 -0.00000000000E+00 -0.00000000000E+00 -0.45593999997E+02  0.45594000000E+02  0.51100000000E-03 0.  1.
    9900012    2    1    2    0    0 -0.42876925826E+02 -0.18669127616E+01 -0.64582454714E+01  0.47787250397E+02  0.19999905858E+02 0.  0.
         12    1    1    2    0    0  0.42876925826E+02  0.18669127616E+01  0.64582454714E+01  0.43400749603E+02  0.00000000000E+00 0. -1.
         11    1    3    3    0    0 -0.16369832845E+02 -0.33966764034E+01  0.31521096444E+01  0.17013072428E+02  0.51100000000E-03 0. -1.
        -11    1    3    3    0    0 -0.62438413313E+00 -0.29021418715E+01 -0.77234288406E+00  0.30673762044E+01  0.51100000000E-03 0.  1.
        -12    1    3    3    0    0 -0.25882708848E+02  0.44319055133E+01 -0.88380122318E+01  0.27706801764E+02  0.00000000000E+00 0.  1.
</event>
<event>
 7    1  0.2452376E-009  0.4778727E+02  0.7816164E-02  0.1312668E+00
        -11   -1    0    0    0    0  0.00000000000E+00  0.00000000000E+00  0.45593999997E+02  0.45594000000E+02  0.51100000000E-03 0. -1.
         11   -1    0    0    0    0 -0.00000000000E+00 -0.00000000000E+00 -0.45593999997E+02  0.45594000000E+02  0.51100000000E-03 0.  1.
    9900012    2    1    2    0    0  0.39293237146E+02  0.16224083261E+02 -0.87432257461E+01  0.47787270058E+02  0.19999995502E+02 0.  0.
         12    1    1    2    0    0 -0.39293237146E+02 -0.16224083261E+02  0.87432257461E+01  0.43400729942E+02  0.00000000000E+00 0. -1.
         11    1    3    3    0    0  0.14899713122E+02  0.10682928360E+02 -0.20075449328E+01  0.18443336096E+02  0.51100000000E-03 0. -1.
        -11    1    3    3    0    0  0.22482805944E+02  0.92549023674E+01 -0.64686171202E+01  0.25158950468E+02  0.51100000000E-03 0.  1.
         12    1    3    3    0    0  0.19107180799E+01 -0.37137474659E+01 -0.26706369312E+00  0.41849834931E+01  0.00000000000E+00 0. -1.
</event>
<event>
 7    1  0.2387817E-009  0.4778727E+02  0.7816164E-02  0.1312668E+00
        -11   -1    0    0    0    0  0.00000000000E+00  0.00000000000E+00  0.45593999997E+02  0.45594000000E+02  0.51100000000E-03 0.  1.
         11   -1    0    0    0    0 -0.00000000000E+00 -0.00000000000E+00 -0.45593999997E+02  0.45594000000E+02  0.51100000000E-03 0. -1.
    9900012    2    1    2    0    0 -0.26205032291E+01 -0.11559187097E+02  0.41750945603E+02  0.47787270717E+02  0.19999998508E+02 0.  0.
         12    1    1    2    0    0  0.26205032291E+01  0.11559187097E+02 -0.41750945603E+02  0.43400729283E+02  0.00000000000E+00 0. -1.
         11    1    3    3    0    0 -0.42498334945E+01 -0.30641606768E+01  0.11999325967E+02  0.13093280312E+02  0.51100000000E-03 0. -1.
        -11    1    3    3    0    0 -0.51105533235E+01 -0.57559991930E+00  0.29117593083E+01  0.59099418839E+01  0.51100000000E-03 0.  1.
        -12    1    3    3    0    0  0.67398835889E+01 -0.79194265005E+01  0.26839860328E+02  0.28784048522E+02  0.00000000000E+00 0.  1.
</event>
<event>
 7    1  0.2387817E-009  0.4778727E+02  0.7816164E-02  0.1312668E+00
        -11   -1    0    0    0    0  0.00000000000E+00  0.00000000000E+00  0.45593999997E+02  0.45594000000E+02  0.51100000000E-03 0. -1.
         11   -1    0    0    0    0 -0.00000000000E+00 -0.00000000000E+00 -0.45593999997E+02  0.45594000000E+02  0.51100000000E-03 0.  1.
    9900012    2    1    2    0    0 -0.80160505421E+01 -0.37831556938E+02  0.19701261510E+02  0.47787268765E+02  0.19999989608E+02 0.  0.
         12    1    1    2    0    0  0.80160505421E+01  0.37831556938E+02 -0.19701261510E+02  0.43400731235E+02  0.00000000000E+00 0. -1.
         11    1    3    3    0    0  0.64802772807E+00 -0.53934895000E+01  0.76594165046E+01  0.93902252569E+01  0.51100000000E-03 0. -1.
        -11    1    3    3    0    0 -0.20473465356E+01 -0.18781967198E+02  0.13398440982E+02  0.23161868247E+02  0.51100000000E-03 0.  1.
        -12    1    3    3    0    0 -0.66167317345E+01 -0.13656100240E+02 -0.13565959772E+01  0.15235175261E+02  0.00000000000E+00 0.  1.
</event>
<event>
 7    1  0.2387817E-009  0.4778727E+02  0.7816164E-02  0.1312668E+00
        -11   -1    0    0    0    0  0.00000000000E+00  0.00000000000E+00  0.45593999997E+02  0.45594000000E+02  0.51100000000E-03 0.  1.
         11   -1    0    0    0    0 -0.00000000000E+00 -0.00000000000E+00 -0.45593999997E+02  0.45594000000E+02  0.51100000000E-03 0. -1.
    9900012    2    1    2    0    0  0.14659656473E+01  0.17695302926E+02  0.39602406517E+02  0.47787269558E+02  0.19999993224E+02 0.  0.
         12    1    1    2    0    0 -0.14659656473E+01 -0.17695302926E+02 -0.39602406517E+02  0.43400730442E+02  0.00000000000E+00 0. -1.
         11    1    3    3    0    0 -0.28201578158E+01  0.23258680843E+01  0.46493322616E+00  0.36849851584E+01  0.51100000000E-03 0. -1.
        -11    1    3    3    0    0 -0.17632348048E+01  0.35202337450E+01  0.15525618087E+01  0.42321969505E+01  0.51100000000E-03 0.  1.
        -12    1    3    3    0    0  0.60493582679E+01  0.11849201097E+02  0.37584911482E+02  0.39870087449E+02  0.00000000000E+00 0.  1.
</event>
<event>
 7    1  0.2387817E-009  0.4778727E+02  0.7816164E-02  0.1312668E+00
        -11   -1    0    0    0    0  0.00000000000E+00  0.00000000000E+00  0.45593999997E+02  0.45594000000E+02  0.51100000000E-03 0.  1.
         11   -1    0    0    0    0 -0.00000000000E+00 -0.00000000000E+00 -0.45593999997E+02  0.45594000000E+02  0.51100000000E-03 0. -1.
    9900012    2    1    2    0    0 -0.43200700861E+02 -0.41389728066E+01  0.43752559857E+00  0.47787273285E+02  0.20000010214E+02 0.  0.
         12    1    1    2    0    0  0.43200700861E+02  0.41389728066E+01 -0.43752559857E+00  0.43400726715E+02  0.00000000000E+00 0. -1.
         11    1    3    3    0    0 -0.93289721141E+01  0.33856879944E+01 -0.44767326379E+01  0.10887320114E+02  0.51100000000E-03 0.  1.
        -11    1    3    3    0    0 -0.33705871192E+01  0.17524763399E+00 -0.29401858704E+01  0.44761883870E+01  0.51100000000E-03 0. -1.
        -12    1    3    3    0    0 -0.30501141628E+02 -0.76999084350E+01  0.78544441069E+01  0.32423764783E+02  0.00000000000E+00 0.  1.
</event>
<event>
 7    1  0.2387817E-009  0.4778728E+02  0.7816164E-02  0.1312668E+00
        -11   -1    0    0    0    0  0.00000000000E+00  0.00000000000E+00  0.45593999997E+02  0.45594000000E+02  0.51100000000E-03 0.  1.
         11   -1    0    0    0    0 -0.00000000000E+00 -0.00000000000E+00 -0.45593999997E+02  0.45594000000E+02  0.51100000000E-03 0. -1.
    9900012    2    1    2    0    0  0.41352553384E+02  0.55745346595E+01  0.11937914411E+02  0.47787275253E+02  0.20000019190E+02 0.  0.
         12    1    1    2    0    0 -0.41352553384E+02 -0.55745346595E+01 -0.11937914411E+02  0.43400724747E+02  0.00000000000E+00 0. -1.
         11    1    3    3    0    0  0.18600341057E+02 -0.49490560782E+01  0.58140365124E+01  0.20106438380E+02  0.51100000000E-03 0. -1.
        -11    1    3    3    0    0  0.14963958522E+02  0.15287393910E+01  0.42949846482E+01  0.15643017361E+02  0.51100000000E-03 0.  1.
        -12    1    3    3    0    0  0.77882538051E+01  0.89948513468E+01  0.18288932507E+01  0.12037819512E+02  0.00000000000E+00 0.  1.
</event>
<event>
 7    1  0.2387817E-009  0.4778727E+02  0.7816164E-02  0.1312668E+00
        -11   -1    0    0    0    0  0.00000000000E+00  0.00000000000E+00  0.45593999997E+02  0.45594000000E+02  0.51100000000E-03 0.  1.
         11   -1    0    0    0    0 -0.00000000000E+00 -0.00000000000E+00 -0.45593999997E+02  0.45594000000E+02  0.51100000000E-03 0. -1.
    9900012    2    1    2    0    0  0.67962062965E+01 -0.34166775961E+02  0.25885636514E+02  0.47787272156E+02  0.20000005070E+02 0.  0.
         12    1    1    2    0    0 -0.67962062965E+01  0.34166775961E+02 -0.25885636514E+02  0.43400727844E+02  0.00000000000E+00 0. -1.
         11    1    3    3    0    0  0.56549942164E+01 -0.99058709609E+01  0.58173683135E+01  0.12804179530E+02  0.51100000000E-03 0. -1.
        -11    1    3    3    0    0  0.71553485313E+00  0.38897358316E+00 -0.18333790426E+01  0.20061329839E+01  0.51100000000E-03 0.  1.
        -12    1    3    3    0    0  0.42567722698E+00 -0.24649878583E+02  0.21901647243E+02  0.32976959642E+02  0.00000000000E+00 0.  1.
</event>
<event>
 7    1  0.2387817E-009  0.4778727E+02  0.7816164E-02  0.1312668E+00
        -11   -1    0    0    0    0  0.00000000000E+00  0.00000000000E+00  0.45593999997E+02  0.45594000000E+02  0.51100000000E-03 0.  1.
         11   -1    0    0    0    0 -0.00000000000E+00 -0.00000000000E+00 -0.45593999997E+02  0.45594000000E+02  0.51100000000E-03 0. -1.
    9900012    2    1    2    0    0 -0.33567834319E+02 -0.12693526311E+02  0.24406932383E+02  0.47787268906E+02  0.19999990252E+02 0.  0.
         12    1    1    2    0    0  0.33567834319E+02  0.12693526311E+02 -0.24406932383E+02  0.43400731094E+02  0.00000000000E+00 0. -1.
         11    1    3    3    0    0 -0.11457884513E+02  0.39160056259E+01  0.10242612607E+02  0.15859676253E+02  0.51100000000E-03 0. -1.
        -11    1    3    3    0    0 -0.21415068949E+01  0.58933640519E+00  0.15615152066E+01  0.27150873247E+01  0.51100000000E-03 0.  1.
        -12    1    3    3    0    0 -0.19968442912E+02 -0.17198868342E+02  0.12602804570E+02  0.29212505329E+02  0.00000000000E+00 0.  1.
</event>
<event>
 7    1  0.2387817E-009  0.4778727E+02  0.7816164E-02  0.1312668E+00
        -11   -1    0    0    0    0  0.00000000000E+00  0.00000000000E+00  0.45593999997E+02  0.45594000000E+02  0.51100000000E-03 0.  1.
         11   -1    0    0    0    0 -0.00000000000E+00 -0.00000000000E+00 -0.45593999997E+02  0.45594000000E+02  0.51100000000E-03 0. -1.
    9900012    2    1    2    0    0 -0.18616156620E+01  0.42197898624E+02  0.99747178162E+01  0.47787271243E+02  0.20000000904E+02 0.  0.
         12    1    1    2    0    0  0.18616156620E+01 -0.42197898624E+02 -0.99747178162E+01  0.43400728757E+02  0.00000000000E+00 0. -1.
         11    1    3    3    0    0 -0.21474449011E+01  0.10132177721E+02  0.22087006285E+01  0.10590132374E+02  0.51100000000E-03 0. -1.
        -11    1    3    3    0    0 -0.55203981094E+01  0.29525421183E+02  0.65853866511E+01  0.30750489572E+02  0.51100000000E-03 0.  1.
         12    1    3    3    0    0  0.58062273485E+01  0.25402997200E+01  0.11806305366E+01  0.64466492966E+01  0.00000000000E+00 0. -1.
</event>
<event>
 7    1  0.2387817E-009  0.4778727E+02  0.7816164E-02  0.1312668E+00
        -11   -1    0    0    0    0  0.00000000000E+00  0.00000000000E+00  0.45593999997E+02  0.45594000000E+02  0.51100000000E-03 0.  1.
         11   -1    0    0    0    0 -0.00000000000E+00 -0.00000000000E+00 -0.45593999997E+02  0.45594000000E+02  0.51100000000E-03 0. -1.
    9900012    2    1    2    0    0  0.20512487617E+01 -0.22270574259E+02  0.37194583726E+02  0.47787272381E+02  0.20000006094E+02 0.  0.
         12    1    1    2    0    0 -0.20512487617E+01  0.22270574259E+02 -0.37194583726E+02  0.43400727619E+02  0.00000000000E+00 0. -1.
         11    1    3    3    0    0  0.20688717489E+01 -0.13511353067E+02  0.16395132164E+02  0.21345661174E+02  0.51100000000E-03 0. -1.
        -11    1    3    3    0    0 -0.23100988581E+01 -0.12042199905E+02  0.16618583509E+02  0.20652565298E+02  0.51100000000E-03 0.  1.
         12    1    3    3    0    0  0.22924758708E+01  0.32829787138E+01  0.41808680528E+01  0.57890459083E+01  0.00000000000E+00 0. -1.
</event>
<event>
 7    1  0.2387817E-009  0.4778727E+02  0.7816164E-02  0.1312668E+00
        -11   -1    0    0    0    0  0.00000000000E+00  0.00000000000E+00  0.45593999997E+02  0.45594000000E+02  0.51100000000E-03 0.  1.
         11   -1    0    0    0    0 -0.00000000000E+00 -0.00000000000E+00 -0.45593999997E+02  0.45594000000E+02  0.51100000000E-03 0. -1.
    9900012    2    1    2    0    0 -0.71455461498E+01 -0.20387480276E+02  0.37641931226E+02  0.47787272261E+02  0.20000005549E+02 0.  0.
         12    1    1    2    0    0  0.71455461498E+01  0.20387480276E+02 -0.37641931226E+02  0.43400727739E+02  0.00000000000E+00 0. -1.
         11    1    3    3    0    0 -0.29010612049E+01 -0.24170726292E+01  0.17071250316E+01  0.41439923195E+01  0.51100000000E-03 0. -1.
        -11    1    3    3    0    0 -0.88747590241E+01 -0.82663243810E+01  0.10547972851E+02  0.16073369219E+02  0.51100000000E-03 0.  1.
        -12    1    3    3    0    0  0.46302740792E+01 -0.97040832656E+01  0.25386833344E+02  0.27569910723E+02  0.00000000000E+00 0.  1.
</event>
<event>
 7    1  0.2387817E-009  0.4778728E+02  0.7816164E-02  0.1312668E+00
        -11   -1    0    0    0    0  0.00000000000E+00  0.00000000000E+00  0.45593999997E+02  0.45594000000E+02  0.51100000000E-03 0. -1.
         11   -1    0    0    0    0 -0.00000000000E+00 -0.00000000000E+00 -0.45593999997E+02  0.45594000000E+02  0.51100000000E-03 0.  1.
    9900012    2    1    2    0    0 -0.23310363720E+02 -0.36190306909E+02 -0.55237199750E+01  0.47787275889E+02  0.20000022090E+02 0.  0.
         12    1    1    2    0    0  0.23310363720E+02  0.36190306909E+02  0.55237199750E+01  0.43400724111E+02  0.00000000000E+00 0. -1.
         11    1    3    3    0    0 -0.75793649173E+01 -0.27606270720E+01 -0.11444358450E+01  0.81472429720E+01  0.51100000000E-03 0. -1.
        -11    1    3    3    0    0 -0.98067238628E+01 -0.14778902228E+02 -0.84585461009E+01  0.19650312628E+02  0.51100000000E-03 0.  1.
         12    1    3    3    0    0 -0.59242749402E+01 -0.18650777610E+02  0.40792619709E+01  0.19989720289E+02  0.00000000000E+00 0. -1.
</event>
<event>
 7    1  0.2387817E-009  0.4778727E+02  0.7816164E-02  0.1312668E+00
        -11   -1    0    0    0    0  0.00000000000E+00  0.00000000000E+00  0.45593999997E+02  0.45594000000E+02  0.51100000000E-03 0.  1.
         11   -1    0    0    0    0 -0.00000000000E+00 -0.00000000000E+00 -0.45593999997E+02  0.45594000000E+02  0.51100000000E-03 0. -1.
    9900012    2    1    2    0    0 -0.22548975870E+02 -0.27322326365E+02  0.25073044132E+02  0.47787269905E+02  0.19999994803E+02 0.  0.
         12    1    1    2    0    0  0.22548975870E+02  0.27322326365E+02 -0.25073044132E+02  0.43400730095E+02  0.00000000000E+00 0. -1.
         11    1    3    3    0    0 -0.77960265307E+01 -0.79087553057E+01  0.14037615830E+01  0.11193613670E+02  0.51100000000E-03 0. -1.
        -11    1    3    3    0    0 -0.14669921203E+02 -0.18043520772E+02  0.14680687418E+02  0.27500869319E+02  0.51100000000E-03 0.  1.
        -12    1    3    3    0    0 -0.83028135598E-01 -0.13700502869E+01  0.89885951313E+01  0.90927869157E+01  0.00000000000E+00 0.  1.
</event>
<event>
 7    1  0.2387817E-009  0.4778727E+02  0.7816164E-02  0.1312668E+00
        -11   -1    0    0    0    0  0.00000000000E+00  0.00000000000E+00  0.45593999997E+02  0.45594000000E+02  0.51100000000E-03 0.  1.
         11   -1    0    0    0    0 -0.00000000000E+00 -0.00000000000E+00 -0.45593999997E+02  0.45594000000E+02  0.51100000000E-03 0. -1.
    9900012    2    1    2    0    0 -0.30567475625E+02  0.30778163887E+02 -0.13990694243E+01  0.47787270356E+02  0.19999996862E+02 0.  0.
         12    1    1    2    0    0  0.30567475625E+02 -0.30778163887E+02  0.13990694243E+01  0.43400729644E+02  0.00000000000E+00 0. -1.
         11    1    3    3    0    0 -0.21969943646E+02  0.21375574386E+02 -0.14877376938E+01  0.30688873682E+02  0.51100000000E-03 0. -1.
        -11    1    3    3    0    0 -0.35418931940E+01  0.10648016140E+02  0.22772002386E+01  0.11450366645E+02  0.51100000000E-03 0.  1.
         12    1    3    3    0    0 -0.50556387848E+01 -0.12454266387E+01 -0.21885319692E+01  0.56480300296E+01  0.00000000000E+00 0. -1.
</event>
<event>
 7    1  0.2387817E-009  0.4778727E+02  0.7816164E-02  0.1312668E+00
        -11   -1    0    0    0    0  0.00000000000E+00  0.00000000000E+00  0.45593999997E+02  0.45594000000E+02  0.51100000000E-03 0. -1.
         11   -1    0    0    0    0 -0.00000000000E+00 -0.00000000000E+00 -0.45593999997E+02  0.45594000000E+02  0.51100000000E-03 0.  1.
    9900012    2    1    2    0    0  0.40415715626E+02 -0.14567108506E+02 -0.61637826930E+01  0.47787274927E+02  0.20000017701E+02 0.  0.
         12    1    1    2    0    0 -0.40415715626E+02  0.14567108506E+02  0.61637826930E+01  0.43400725073E+02  0.00000000000E+00 0. -1.
         11    1    3    3    0    0 -0.41587793706E+00 -0.26231523311E+01 -0.14159280360E+01  0.30097732597E+01  0.51100000000E-03 0. -1.
        -11    1    3    3    0    0  0.87210946385E+01 -0.49605360166E+00 -0.61102311422E+01  0.10660135353E+02  0.51100000000E-03 0.  1.
        -12    1    3    3    0    0  0.32110498925E+02 -0.11447902573E+02  0.13623764851E+01  0.34117366314E+02  0.00000000000E+00 0.  1.
</event>
<event>
 7    1  0.2387817E-009  0.4778728E+02  0.7816164E-02  0.1312668E+00
        -11   -1    0    0    0    0  0.00000000000E+00  0.00000000000E+00  0.45593999997E+02  0.45594000000E+02  0.51100000000E-03 0. -1.
         11   -1    0    0    0    0 -0.00000000000E+00 -0.00000000000E+00 -0.45593999997E+02  0.45594000000E+02  0.51100000000E-03 0.  1.
    9900012    2    1    2    0    0  0.18164267790E+02  0.37352538021E+02  0.12588483734E+02  0.47787278304E+02  0.20000033101E+02 0.  0.
         12    1    1    2    0    0 -0.18164267790E+02 -0.37352538021E+02 -0.12588483734E+02  0.43400721696E+02  0.00000000000E+00 0. -1.
         11    1    3    3    0    0  0.12750754126E+02  0.15536470212E+02  0.40394065032E+00  0.20102905405E+02  0.51100000000E-03 0. -1.
        -11    1    3    3    0    0 -0.14953770294E+01 -0.14257364627E+00 -0.24683550857E+00  0.15223034304E+01  0.51100000000E-03 0.  1.
        -12    1    3    3    0    0  0.69088906938E+01  0.21958641455E+02  0.12431378592E+02  0.26162069469E+02  0.00000000000E+00 0.  1.
</event>
<event>
 7    1  0.2387817E-009  0.4778727E+02  0.7816164E-02  0.1312668E+00
        -11   -1    0    0    0    0  0.00000000000E+00  0.00000000000E+00  0.45593999997E+02  0.45594000000E+02  0.51100000000E-03 0.  1.
         11   -1    0    0    0    0 -0.00000000000E+00 -0.00000000000E+00 -0.45593999997E+02  0.45594000000E+02  0.51100000000E-03 0. -1.
    9900012    2    1    2    0    0  0.24246834238E+02 -0.31459200166E+02 -0.17493800068E+02  0.47787270899E+02  0.19999999338E+02 0.  0.
         12    1    1    2    0    0 -0.24246834238E+02  0.31459200166E+02  0.17493800068E+02  0.43400729101E+02  0.00000000000E+00 0. -1.
         11    1    3    3    0    0  0.72728522756E+01 -0.11618637901E+02 -0.40701226952E+01  0.14298707141E+02  0.51100000000E-03 0. -1.
        -11    1    3    3    0    0  0.81363217532E+01 -0.12654400190E+02  0.10375010248E+01  0.15080118848E+02  0.51100000000E-03 0.  1.
         12    1    3    3    0    0  0.88376602093E+01 -0.71861620750E+01 -0.14461178398E+02  0.18408444910E+02  0.00000000000E+00 0. -1.
</event>
<event>
 7    1  0.2387817E-009  0.4778727E+02  0.7816164E-02  0.1312668E+00
        -11   -1    0    0    0    0  0.00000000000E+00  0.00000000000E+00  0.45593999997E+02  0.45594000000E+02  0.51100000000E-03 0.  1.
         11   -1    0    0    0    0 -0.00000000000E+00 -0.00000000000E+00 -0.45593999997E+02  0.45594000000E+02  0.51100000000E-03 0. -1.
    9900012    2    1    2    0    0  0.30582155762E+02 -0.27053038600E+02 -0.14713534320E+02  0.47787271427E+02  0.20000001744E+02 0.  0.
         12    1    1    2    0    0 -0.30582155762E+02  0.27053038600E+02  0.14713534320E+02  0.43400728573E+02  0.00000000000E+00 0. -1.
         11    1    3    3    0    0  0.21986188284E+01 -0.22863134349E+01 -0.49977337885E+01  0.59193324925E+01  0.51100000000E-03 0. -1.
        -11    1    3    3    0    0 -0.24092126524E+00 -0.61526068018E+01 -0.37408718212E+01  0.72046329371E+01  0.51100000000E-03 0.  1.
        -12    1    3    3    0    0  0.28624458198E+02 -0.18614118363E+02 -0.59749287100E+01  0.34663305997E+02  0.00000000000E+00 0.  1.
</event>
<event>
 7    1  0.2387817E-009  0.4778727E+02  0.7816164E-02  0.1312668E+00
        -11   -1    0    0    0    0  0.00000000000E+00  0.00000000000E+00  0.45593999997E+02  0.45594000000E+02  0.51100000000E-03 0.  1.
         11   -1    0    0    0    0 -0.00000000000E+00 -0.00000000000E+00 -0.45593999997E+02  0.45594000000E+02  0.51100000000E-03 0. -1.
    9900012    2    1    2    0    0 -0.24244744690E+02 -0.35658211027E+02 -0.49302502015E+01  0.47787273902E+02  0.20000013030E+02 0.  0.
         12    1    1    2    0    0  0.24244744690E+02  0.35658211027E+02  0.49302502015E+01  0.43400726098E+02  0.00000000000E+00 0. -1.
         11    1    3    3    0    0  0.13462541990E+01 -0.69290651372E+01 -0.15136439826E+01  0.72191039895E+01  0.51100000000E-03 0. -1.
        -11    1    3    3    0    0 -0.11310925800E+02 -0.20976305370E+02 -0.46182203717E+01  0.24274892154E+02  0.51100000000E-03 0.  1.
        -12    1    3    3    0    0 -0.14280073089E+02 -0.77528405202E+01  0.12016141528E+01  0.16293277759E+02  0.00000000000E+00 0.  1.
</event>
<event>
 7    1  0.2387817E-009  0.4778727E+02  0.7816164E-02  0.1312668E+00
        -11   -1    0    0    0    0  0.00000000000E+00  0.00000000000E+00  0.45593999997E+02  0.45594000000E+02  0.51100000000E-03 0. -1.
         11   -1    0    0    0    0 -0.00000000000E+00 -0.00000000000E+00 -0.45593999997E+02  0.45594000000E+02  0.51100000000E-03 0.  1.
    9900012    2    1    2    0    0 -0.31725865003E+02  0.26843924844E+02 -0.12509854676E+02  0.47787271029E+02  0.19999999928E+02 0.  0.
         12    1    1    2    0    0  0.31725865003E+02 -0.26843924844E+02  0.12509854676E+02  0.43400728971E+02  0.00000000000E+00 0. -1.
         11    1    3    3    0    0 -0.24389611258E+01  0.94654103549E+01 -0.69699895094E+01  0.12005135509E+02  0.51100000000E-03 0.  1.
        -11    1    3    3    0    0 -0.60006691997E+01  0.65902646897E+01  0.17924722865E+01  0.90913462526E+01  0.51100000000E-03 0. -1.
        -12    1    3    3    0    0 -0.23286234677E+02  0.10788249800E+02 -0.73323374528E+01  0.26690789267E+02  0.00000000000E+00 0.  1.
</event>
<event>
 7    1  0.2387817E-009  0.4778727E+02  0.7816164E-02  0.1312668E+00
        -11   -1    0    0    0    0  0.00000000000E+00  0.00000000000E+00  0.45593999997E+02  0.45594000000E+02  0.51100000000E-03 0. -1.
         11   -1    0    0    0    0 -0.00000000000E+00 -0.00000000000E+00 -0.45593999997E+02  0.45594000000E+02  0.51100000000E-03 0.  1.
    9900012    2    1    2    0    0 -0.85013437881E+01 -0.42466545003E+02  0.28182875083E+01  0.47787273794E+02  0.20000012537E+02 0.  0.
         12    1    1    2    0    0  0.85013437881E+01  0.42466545003E+02 -0.28182875083E+01  0.43400726206E+02  0.00000000000E+00 0. -1.
         11    1    3    3    0    0 -0.43177142994E+01 -0.11228689517E+01 -0.61997356305E+00  0.45042045840E+01  0.51100000000E-03 0. -1.
        -11    1    3    3    0    0  0.19870328234E+01 -0.82075366369E+00  0.33375366824E+00  0.21756212423E+01  0.51100000000E-03 0.  1.
        -12    1    3    3    0    0 -0.61706623121E+01 -0.40522922388E+02  0.31045074031E+01  0.41107447968E+02  0.00000000000E+00 0.  1.
</event>
<event>
 7    1  0.2387817E-009  0.4778727E+02  0.7816164E-02  0.1312668E+00
        -11   -1    0    0    0    0  0.00000000000E+00  0.00000000000E+00  0.45593999997E+02  0.45594000000E+02  0.51100000000E-03 0.  1.
         11   -1    0    0    0    0 -0.00000000000E+00 -0.00000000000E+00 -0.45593999997E+02  0.45594000000E+02  0.51100000000E-03 0. -1.
    9900012    2    1    2    0    0  0.18699834230E+02  0.21632338976E+02  0.32649366812E+02  0.47787273704E+02  0.20000012125E+02 0.  0.
         12    1    1    2    0    0 -0.18699834230E+02 -0.21632338976E+02 -0.32649366812E+02  0.43400726296E+02  0.00000000000E+00 0. -1.
         11    1    3    3    0    0 -0.38956239655E+00  0.10439297120E+02  0.14120337129E+02  0.17564583802E+02  0.51100000000E-03 0. -1.
        -11    1    3    3    0    0  0.27059611707E+01  0.21310440873E+01 -0.55424745215E+00  0.34886623882E+01  0.51100000000E-03 0.  1.
        -12    1    3    3    0    0  0.16383435456E+02  0.90619977681E+01  0.19083277135E+02  0.26734027514E+02  0.00000000000E+00 0.  1.
</event>
<event>
 7    1  0.2387817E-009  0.4778729E+02  0.7816164E-02  0.1312668E+00
        -11   -1    0    0    0    0  0.00000000000E+00  0.00000000000E+00  0.45593999997E+02  0.45594000000E+02  0.51100000000E-03 0.  1.
         11   -1    0    0    0    0 -0.00000000000E+00 -0.00000000000E+00 -0.45593999997E+02  0.45594000000E+02  0.51100000000E-03 0. -1.
    9900012    2    1    2    0    0  0.13183733955E+02 -0.56111704101E+01  0.40967368298E+02  0.47787293328E+02  0.20000101600E+02 0.  0.
         12    1    1    2    0    0 -0.13183733955E+02  0.56111704101E+01 -0.40967368298E+02  0.43400706672E+02  0.00000000000E+00 0. -1.
         11    1    3    3    0    0  0.45575406063E+01 -0.73732734351E+01  0.17148023320E+02  0.19214344682E+02  0.51100000000E-03 0. -1.
        -11    1    3    3    0    0  0.98795543955E+01  0.43153270925E+01  0.23311463543E+02  0.25683690852E+02  0.51100000000E-03 0.  1.
         12    1    3    3    0    0 -0.12533610465E+01 -0.25532240674E+01  0.50788143484E+00  0.28892577945E+01  0.00000000000E+00 0. -1.
</event>
<event>
 7    1  0.2387817E-009  0.4778727E+02  0.7816164E-02  0.1312668E+00
        -11   -1    0    0    0    0  0.00000000000E+00  0.00000000000E+00  0.45593999997E+02  0.45594000000E+02  0.51100000000E-03 0.  1.
         11   -1    0    0    0    0 -0.00000000000E+00 -0.00000000000E+00 -0.45593999997E+02  0.45594000000E+02  0.51100000000E-03 0. -1.
    9900012    2    1    2    0    0 -0.42375988080E+02  0.58019816971E+00 -0.93574857876E+01  0.47787268025E+02  0.19999986233E+02 0.  0.
         12    1    1    2    0    0  0.42375988080E+02 -0.58019816971E+00  0.93574857876E+01  0.43400731975E+02  0.00000000000E+00 0. -1.
         11    1    3    3    0    0  0.27183972972E+00 -0.31296204827E+00 -0.15076666370E+01  0.15636179302E+01  0.51100000000E-03 0. -1.
        -11    1    3    3    0    0 -0.38557865985E+02  0.12950266584E+00 -0.11964810337E+02  0.40371803117E+02  0.51100000000E-03 0.  1.
         12    1    3    3    0    0 -0.40899618248E+01  0.76365755215E+00  0.41149911861E+01  0.58518469774E+01  0.00000000000E+00 0. -1.
</event>
<event>
 7    1  0.2387817E-009  0.4778727E+02  0.7816164E-02  0.1312668E+00
        -11   -1    0    0    0    0  0.00000000000E+00  0.00000000000E+00  0.45593999997E+02  0.45594000000E+02  0.51100000000E-03 0.  1.
         11   -1    0    0    0    0 -0.00000000000E+00 -0.00000000000E+00 -0.45593999997E+02  0.45594000000E+02  0.51100000000E-03 0. -1.
    9900012    2    1    2    0    0 -0.38210671294E+02  0.20073732034E+02  0.45401721098E+01  0.47787270959E+02  0.19999999611E+02 0.  0.
         12    1    1    2    0    0  0.38210671294E+02 -0.20073732034E+02 -0.45401721098E+01  0.43400729041E+02  0.00000000000E+00 0. -1.
         11    1    3    3    0    0 -0.49255149297E+01  0.22235886879E+01  0.52983737569E-01  0.54044288794E+01  0.51100000000E-03 0.  1.
        -11    1    3    3    0    0 -0.20135420810E+02  0.31645694545E+01 -0.42498052936E+01  0.20820915357E+02  0.51100000000E-03 0. -1.
         12    1    3    3    0    0 -0.13149735554E+02  0.14685573892E+02  0.87369936659E+01  0.21561926723E+02  0.00000000000E+00 0. -1.
</event>
<event>
 7    1  0.2493141E-009  0.4778727E+02  0.7816164E-02  0.1312668E+00
        -11   -1    0    0    0    0  0.00000000000E+00  0.00000000000E+00  0.45593999997E+02  0.45594000000E+02  0.51100000000E-03 0.  1.
         11   -1    0    0    0    0 -0.00000000000E+00 -0.00000000000E+00 -0.45593999997E+02  0.45594000000E+02  0.51100000000E-03 0. -1.
    9900012    2    1    2    0    0 -0.16037194927E+02 -0.23001093700E+02  0.33126747479E+02  0.47787270385E+02  0.19999996994E+02 0.  0.
         12    1    1    2    0    0  0.16037194927E+02  0.23001093700E+02 -0.33126747479E+02  0.43400729615E+02  0.00000000000E+00 0. -1.
         11    1    3    3    0    0 -0.97277928382E+01 -0.29981916912E+01  0.39790589883E+01  0.10929410671E+02  0.51100000000E-03 0. -1.
        -11    1    3    3    0    0 -0.61222207274E+01 -0.65515752013E+01  0.13700192747E+02  0.16373759673E+02  0.51100000000E-03 0.  1.
         12    1    3    3    0    0 -0.18718136133E+00 -0.13451326808E+02  0.15447495744E+02  0.20484100041E+02  0.00000000000E+00 0. -1.
</event>
<event>
 7    1  0.2387817E-009  0.4778729E+02  0.7816164E-02  0.1312668E+00
        -11   -1    0    0    0    0  0.00000000000E+00  0.00000000000E+00  0.45593999997E+02  0.45594000000E+02  0.51100000000E-03 0. -1.
         11   -1    0    0    0    0 -0.00000000000E+00 -0.00000000000E+00 -0.45593999997E+02  0.45594000000E+02  0.51100000000E-03 0.  1.
    9900012    2    1    2    0    0 -0.22227540002E+02 -0.12069778807E+02 -0.35268664217E+02  0.47787288362E+02  0.20000078958E+02 0.  0.
         12    1    1    2    0    0  0.22227540002E+02  0.12069778807E+02  0.35268664217E+02  0.43400711638E+02  0.00000000000E+00 0. -1.
         11    1    3    3    0    0 -0.17151692576E+02 -0.39374962738E+01 -0.15751631893E+02  0.23617754819E+02  0.51100000000E-03 0. -1.
        -11    1    3    3    0    0 -0.73928783658E+01 -0.40706969373E+01 -0.16697763011E+02  0.18709369682E+02  0.51100000000E-03 0.  1.
         12    1    3    3    0    0  0.23170309394E+01 -0.40615855959E+01 -0.28192693140E+01  0.54601638613E+01  0.00000000000E+00 0. -1.
</event>
<event>
 7    1  0.2387817E-009  0.4778727E+02  0.7816164E-02  0.1312668E+00
        -11   -1    0    0    0    0  0.00000000000E+00  0.00000000000E+00  0.45593999997E+02  0.45594000000E+02  0.51100000000E-03 0. -1.
         11   -1    0    0    0    0 -0.00000000000E+00 -0.00000000000E+00 -0.45593999997E+02  0.45594000000E+02  0.51100000000E-03 0.  1.
    9900012    2    1    2    0    0  0.29835922572E+02  0.29972350113E+02  0.97518824108E+01  0.47787271232E+02  0.20000000857E+02 0.  0.
         12    1    1    2    0    0 -0.29835922572E+02 -0.29972350113E+02 -0.97518824108E+01  0.43400728768E+02  0.00000000000E+00 0. -1.
         11    1    3    3    0    0  0.66180287899E+01 -0.42489915398E+00  0.27418012814E+01  0.71760935671E+01  0.51100000000E-03 0. -1.
        -11    1    3    3    0    0  0.54506788829E+01  0.98902350664E+01  0.73532467861E+01  0.13475788975E+02  0.51100000000E-03 0.  1.
         12    1    3    3    0    0  0.17767214899E+02  0.20507014200E+02 -0.34316565665E+00  0.27135388690E+02  0.00000000000E+00 0. -1.
</event>
<event>
 7    1  0.2387817E-009  0.4778727E+02  0.7816164E-02  0.1312668E+00
        -11   -1    0    0    0    0  0.00000000000E+00  0.00000000000E+00  0.45593999997E+02  0.45594000000E+02  0.51100000000E-03 0. -1.
         11   -1    0    0    0    0 -0.00000000000E+00 -0.00000000000E+00 -0.45593999997E+02  0.45594000000E+02  0.51100000000E-03 0.  1.
    9900012    2    1    2    0    0  0.24723478801E+02 -0.27803024573E+02 -0.22346473626E+02  0.47787268867E+02  0.19999990071E+02 0.  0.
         12    1    1    2    0    0 -0.24723478801E+02  0.27803024573E+02  0.22346473626E+02  0.43400731133E+02  0.00000000000E+00 0. -1.
         11    1    3    3    0    0  0.14368348535E+01 -0.98389640109E+01 -0.10386260984E+02  0.14378599539E+02  0.51100000000E-03 0. -1.
        -11    1    3    3    0    0  0.58421644920E+01 -0.28726630983E+01 -0.74708509288E+01  0.99094244581E+01  0.51100000000E-03 0.  1.
        -12    1    3    3    0    0  0.17444479455E+02 -0.15091397464E+02 -0.44893617125E+01  0.23499244870E+02  0.00000000000E+00 0.  1.
</event>
<event>
 7    1  0.2387817E-009  0.4778727E+02  0.7816164E-02  0.1312668E+00
        -11   -1    0    0    0    0  0.00000000000E+00  0.00000000000E+00  0.45593999997E+02  0.45594000000E+02  0.51100000000E-03 0.  1.
         11   -1    0    0    0    0 -0.00000000000E+00 -0.00000000000E+00 -0.45593999997E+02  0.45594000000E+02  0.51100000000E-03 0. -1.
    9900012    2    1    2    0    0  0.28051457965E+02  0.33046700394E+02  0.21574691746E+01  0.47787269889E+02  0.19999994734E+02 0.  0.
         12    1    1    2    0    0 -0.28051457965E+02 -0.33046700394E+02 -0.21574691746E+01  0.43400730111E+02  0.00000000000E+00 0. -1.
         11    1    3    3    0    0  0.17951524003E+01 -0.57755373879E+00  0.28753156715E+01  0.34385434319E+01  0.51100000000E-03 0. -1.
        -11    1    3    3    0    0  0.22489746668E+01  0.11255013131E+02 -0.11254540958E+01  0.11532556300E+02  0.51100000000E-03 0.  1.
        -12    1    3    3    0    0  0.24007330898E+02  0.22369241001E+02  0.40760759895E+00  0.32816170157E+02  0.00000000000E+00 0.  1.
</event>
<event>
 7    1  0.2387817E-009  0.4778728E+02  0.7816164E-02  0.1312668E+00
        -11   -1    0    0    0    0  0.00000000000E+00  0.00000000000E+00  0.45593999997E+02  0.45594000000E+02  0.51100000000E-03 0. -1.
         11   -1    0    0    0    0 -0.00000000000E+00 -0.00000000000E+00 -0.45593999997E+02  0.45594000000E+02  0.51100000000E-03 0.  1.
    9900012    2    1    2    0    0  0.28594544471E+02  0.17410755031E+02 -0.27619566849E+02  0.47787276076E+02  0.20000022939E+02 0.  0.
         12    1    1    2    0    0 -0.28594544471E+02 -0.17410755031E+02  0.27619566849E+02  0.43400723924E+02  0.00000000000E+00 0. -1.
         11    1    3    3    0    0  0.34564326106E+01 -0.17913578422E+00  0.12073946886E+01  0.36656265789E+01  0.51100000000E-03 0. -1.
        -11    1    3    3    0    0 -0.15703069801E+01  0.12111077737E+01 -0.25513057528E+01  0.32313785536E+01  0.51100000000E-03 0.  1.
        -12    1    3    3    0    0  0.26708418841E+02  0.16378783042E+02 -0.26275655784E+02  0.40890270943E+02  0.00000000000E+00 0.  1.
</event>
<event>
 7    1  0.2387817E-009  0.4778727E+02  0.7816164E-02  0.1312668E+00
        -11   -1    0    0    0    0  0.00000000000E+00  0.00000000000E+00  0.45593999997E+02  0.45594000000E+02  0.51100000000E-03 0. -1.
         11   -1    0    0    0    0 -0.00000000000E+00 -0.00000000000E+00 -0.45593999997E+02  0.45594000000E+02  0.51100000000E-03 0.  1.
    9900012    2    1    2    0    0 -0.18430869758E+00  0.13570638911E+02 -0.41224105079E+02  0.47787273627E+02  0.20000011776E+02 0.  0.
         12    1    1    2    0    0  0.18430869758E+00 -0.13570638911E+02  0.41224105079E+02  0.43400726373E+02  0.00000000000E+00 0. -1.
         11    1    3    3    0    0  0.46050728529E+01  0.93901988396E+01 -0.23874258370E+02  0.26064587916E+02  0.51100000000E-03 0. -1.
        -11    1    3    3    0    0  0.58505373257E+00 -0.25035299741E+00 -0.13963090204E+02  0.13977583940E+02  0.51100000000E-03 0.  1.
         12    1    3    3    0    0 -0.53744352830E+01  0.44307930688E+01 -0.33867565045E+01  0.77451017715E+01  0.00000000000E+00 0. -1.
</event>
<event>
 7    1  0.2387817E-009  0.4778725E+02  0.7816164E-02  0.1312668E+00
        -11   -1    0    0    0    0  0.00000000000E+00  0.00000000000E+00  0.45593999997E+02  0.45594000000E+02  0.51100000000E-03 0. -1.
         11   -1    0    0    0    0 -0.00000000000E+00 -0.00000000000E+00 -0.45593999997E+02  0.45594000000E+02  0.51100000000E-03 0.  1.
    9900012    2    1    2    0    0  0.42369736973E+02 -0.73330041751E+01  0.58870446499E+01  0.47787252817E+02  0.19999916892E+02 0.  0.
         12    1    1    2    0    0 -0.42369736973E+02  0.73330041751E+01 -0.58870446499E+01  0.43400747183E+02  0.00000000000E+00 0. -1.
         11    1    3    3    0    0  0.59472743176E+01  0.32876076941E+01 -0.11937971829E+01  0.68995353564E+01  0.51100000000E-03 0. -1.
        -11    1    3    3    0    0  0.62865308001E+01  0.25050557753E+01  0.40294980568E+01  0.78760795317E+01  0.51100000000E-03 0.  1.
         12    1    3    3    0    0  0.30135931855E+02 -0.13125667645E+02  0.30513437760E+01  0.33011637928E+02  0.00000000000E+00 0. -1.
</event>
<event>
 7    1  0.2387817E-009  0.4778727E+02  0.7816164E-02  0.1312668E+00
        -11   -1    0    0    0    0  0.00000000000E+00  0.00000000000E+00  0.45593999997E+02  0.45594000000E+02  0.51100000000E-03 0. -1.
         11   -1    0    0    0    0 -0.00000000000E+00 -0.00000000000E+00 -0.45593999997E+02  0.45594000000E+02  0.51100000000E-03 0.  1.
    9900012    2    1    2    0    0  0.72629820576E+01  0.21497042874E+02 -0.36996613922E+02  0.47787271868E+02  0.20000003756E+02 0.  0.
         12    1    1    2    0    0 -0.72629820576E+01 -0.21497042874E+02  0.36996613922E+02  0.43400728132E+02  0.00000000000E+00 0. -1.
         11    1    3    3    0    0 -0.14544672661E+01  0.13792464862E+02 -0.87943895934E+01  0.16422206021E+02  0.51100000000E-03 0. -1.
        -11    1    3    3    0    0 -0.11856452669E+00  0.40777193655E+01 -0.10208779998E+02  0.10993681916E+02  0.51100000000E-03 0.  1.
        -12    1    3    3    0    0  0.88360138504E+01  0.36268586463E+01 -0.17993444330E+02  0.20371383931E+02  0.00000000000E+00 0.  1.
</event>
<event>
 7    1  0.2387817E-009  0.4778727E+02  0.7816164E-02  0.1312668E+00
        -11   -1    0    0    0    0  0.00000000000E+00  0.00000000000E+00  0.45593999997E+02  0.45594000000E+02  0.51100000000E-03 0. -1.
         11   -1    0    0    0    0 -0.00000000000E+00 -0.00000000000E+00 -0.45593999997E+02  0.45594000000E+02  0.51100000000E-03 0.  1.
    9900012    2    1    2    0    0  0.23852258164E+02  0.45266019217E-01 -0.36258669124E+02  0.47787270108E+02  0.19999995730E+02 0.  0.
         12    1    1    2    0    0 -0.23852258164E+02 -0.45266019217E-01  0.36258669124E+02  0.43400729892E+02  0.00000000000E+00 0. -1.
         11    1    3    3    0    0  0.19263680505E-01  0.77946849633E+00  0.10880772300E+01  0.13386017129E+01  0.51100000000E-03 0. -1.
        -11    1    3    3    0    0  0.68841724518E+01  0.57049062660E+01 -0.16913467158E+02  0.19131208990E+02  0.51100000000E-03 0.  1.
         12    1    3    3    0    0  0.16948822032E+02 -0.64391087431E+01 -0.20433279196E+02  0.27317459406E+02  0.00000000000E+00 0. -1.
</event>
<event>
 7    1  0.2387817E-009  0.4778727E+02  0.7816164E-02  0.1312668E+00
        -11   -1    0    0    0    0  0.00000000000E+00  0.00000000000E+00  0.45593999997E+02  0.45594000000E+02  0.51100000000E-03 0.  1.
         11   -1    0    0    0    0 -0.00000000000E+00 -0.00000000000E+00 -0.45593999997E+02  0.45594000000E+02  0.51100000000E-03 0. -1.
    9900012    2    1    2    0    0 -0.18380405786E+02 -0.72412970050E+01  0.38643853784E+02  0.47787272651E+02  0.20000007324E+02 0.  0.
         12    1    1    2    0    0  0.18380405786E+02  0.72412970050E+01 -0.38643853784E+02  0.43400727349E+02  0.00000000000E+00 0. -1.
         11    1    3    3    0    0 -0.64785673828E+01 -0.22937060694E+01  0.24409908143E+02  0.25358953816E+02  0.51100000000E-03 0.  1.
        -11    1    3    3    0    0 -0.57864438183E+01 -0.55017284880E+01  0.14196443573E+02  0.16287754873E+02  0.51100000000E-03 0. -1.
        -12    1    3    3    0    0 -0.61153945850E+01  0.55413755245E+00  0.37502067985E-01  0.61405639612E+01  0.00000000000E+00 0.  1.
</event>
<event>
 7    1  0.2387817E-009  0.4778727E+02  0.7816164E-02  0.1312668E+00
        -11   -1    0    0    0    0  0.00000000000E+00  0.00000000000E+00  0.45593999997E+02  0.45594000000E+02  0.51100000000E-03 0. -1.
         11   -1    0    0    0    0 -0.00000000000E+00 -0.00000000000E+00 -0.45593999997E+02  0.45594000000E+02  0.51100000000E-03 0.  1.
    9900012    2    1    2    0    0  0.66940563875E+01 -0.25257586204E+02 -0.34653529655E+02  0.47787272249E+02  0.20000005492E+02 0.  0.
         12    1    1    2    0    0 -0.66940563875E+01  0.25257586204E+02  0.34653529655E+02  0.43400727751E+02  0.00000000000E+00 0. -1.
         11    1    3    3    0    0  0.10723970239E+02 -0.12404168215E+02 -0.10167794822E+02  0.19293806742E+02  0.51100000000E-03 0. -1.
        -11    1    3    3    0    0 -0.13715368211E+01 -0.18322300574E+01 -0.11766585031E+01  0.25734618181E+01  0.51100000000E-03 0.  1.
        -12    1    3    3    0    0 -0.26583770306E+01 -0.11021187932E+02 -0.23309076331E+02  0.25920003689E+02  0.00000000000E+00 0.  1.
</event>
<event>
 7    1  0.2387817E-009  0.4778727E+02  0.7816164E-02  0.1312668E+00
        -11   -1    0    0    0    0  0.00000000000E+00  0.00000000000E+00  0.45593999997E+02  0.45594000000E+02  0.51100000000E-03 0.  1.
         11   -1    0    0    0    0 -0.00000000000E+00 -0.00000000000E+00 -0.45593999997E+02  0.45594000000E+02  0.51100000000E-03 0. -1.
    9900012    2    1    2    0    0  0.33184442013E+02 -0.96598083556E+01  0.26250795336E+02  0.47787270225E+02  0.19999996266E+02 0.  0.
         12    1    1    2    0    0 -0.33184442013E+02  0.96598083556E+01 -0.26250795336E+02  0.43400729775E+02  0.00000000000E+00 0. -1.
         11    1    3    3    0    0  0.21977966251E+01 -0.14603100714E+01 -0.16771302827E+01  0.31265926751E+01  0.51100000000E-03 0. -1.
        -11    1    3    3    0    0  0.21633233283E+02 -0.53268927682E+01  0.10401307170E+02  0.24587796973E+02  0.51100000000E-03 0.  1.
        -12    1    3    3    0    0  0.93534121046E+01 -0.28726055160E+01  0.17526618448E+02  0.20072880578E+02  0.00000000000E+00 0.  1.
</event>
<event>
 7    1  0.2387817E-009  0.4778728E+02  0.7816164E-02  0.1312668E+00
        -11   -1    0    0    0    0  0.00000000000E+00  0.00000000000E+00  0.45593999997E+02  0.45594000000E+02  0.51100000000E-03 0.  1.
         11   -1    0    0    0    0 -0.00000000000E+00 -0.00000000000E+00 -0.45593999997E+02  0.45594000000E+02  0.51100000000E-03 0. -1.
    9900012    2    1    2    0    0  0.14946246984E+01  0.39744140556E+02  0.17372169674E+02  0.47787275459E+02  0.20000020128E+02 0.  0.
         12    1    1    2    0    0 -0.14946246984E+01 -0.39744140556E+02 -0.17372169674E+02  0.43400724541E+02  0.00000000000E+00 0. -1.
         11    1    3    3    0    0 -0.43655115639E+01  0.74682585593E+01  0.63162035783E+01  0.10711069276E+02  0.51100000000E-03 0. -1.
        -11    1    3    3    0    0 -0.11840741539E+01  0.19488235513E+02  0.14039214758E+01  0.19574584307E+02  0.51100000000E-03 0.  1.
        -12    1    3    3    0    0  0.70442104162E+01  0.12787646484E+02  0.96520446197E+01  0.17501621877E+02  0.00000000000E+00 0.  1.
</event>
<event>
 7    1  0.2387817E-009  0.4778727E+02  0.7816164E-02  0.1312668E+00
        -11   -1    0    0    0    0  0.00000000000E+00  0.00000000000E+00  0.45593999997E+02  0.45594000000E+02  0.51100000000E-03 0.  1.
         11   -1    0    0    0    0 -0.00000000000E+00 -0.00000000000E+00 -0.45593999997E+02  0.45594000000E+02  0.51100000000E-03 0. -1.
    9900012    2    1    2    0    0  0.27474535667E+02  0.29053215393E+01  0.33471362555E+02  0.47787272878E+02  0.20000008362E+02 0.  0.
         12    1    1    2    0    0 -0.27474535667E+02 -0.29053215393E+01 -0.33471362555E+02  0.43400727122E+02  0.00000000000E+00 0. -1.
         11    1    3    3    0    0  0.12840259840E+02  0.26016763660E+01  0.58202516603E+01  0.14335840482E+02  0.51100000000E-03 0. -1.
        -11    1    3    3    0    0  0.82893022152E+01  0.51983985706E+01  0.96282339116E+01  0.13727300078E+02  0.51100000000E-03 0.  1.
        -12    1    3    3    0    0  0.63449736118E+01 -0.48947533974E+01  0.18022876983E+02  0.19724132318E+02  0.00000000000E+00 0.  1.
</event>
<event>
 7    1  0.3144884E-009  0.4778727E+02  0.7816164E-02  0.1312668E+00
        -11   -1    0    0    0    0  0.00000000000E+00  0.00000000000E+00  0.45593999997E+02  0.45594000000E+02  0.51100000000E-03 0. -1.
         11   -1    0    0    0    0 -0.00000000000E+00 -0.00000000000E+00 -0.45593999997E+02  0.45594000000E+02  0.51100000000E-03 0.  1.
    9900012    2    1    2    0    0 -0.56124625409E+01 -0.42823533344E+01 -0.42822715978E+02  0.47787270863E+02  0.19999999174E+02 0.  0.
         12    1    1    2    0    0  0.56124625409E+01  0.42823533344E+01  0.42822715978E+02  0.43400729137E+02  0.00000000000E+00 0. -1.
         11    1    3    3    0    0  0.59094537571E+01  0.11388575046E+01 -0.19016267151E+02  0.19945853122E+02  0.51100000000E-03 0. -1.
        -11    1    3    3    0    0 -0.32794430923E+01 -0.25937314513E+01 -0.14505993194E+02  0.15096556847E+02  0.51100000000E-03 0.  1.
         12    1    3    3    0    0 -0.82424732057E+01 -0.28274793877E+01 -0.93004556329E+01  0.12744860894E+02  0.00000000000E+00 0. -1.
</event>
<event>
 7    1  0.2387817E-009  0.4778726E+02  0.7816164E-02  0.1312668E+00
        -11   -1    0    0    0    0  0.00000000000E+00  0.00000000000E+00  0.45593999997E+02  0.45594000000E+02  0.51100000000E-03 0.  1.
         11   -1    0    0    0    0 -0.00000000000E+00 -0.00000000000E+00 -0.45593999997E+02  0.45594000000E+02  0.51100000000E-03 0. -1.
    9900012    2    1    2    0    0 -0.43046548780E+02  0.57028612941E+00  0.55039767521E+01  0.47787258667E+02  0.19999943567E+02 0.  0.
         12    1    1    2    0    0  0.43046548780E+02 -0.57028612941E+00 -0.55039767521E+01  0.43400741333E+02  0.00000000000E+00 0. -1.
         11    1    3    3    0    0  0.55184004922E+00 -0.51340756412E-01 -0.50777272875E+00  0.75166263601E+00  0.51100000000E-03 0. -1.
        -11    1    3    3    0    0 -0.27404200438E+02 -0.68757864690E+01  0.15652449731E+00  0.28254046461E+02  0.51100000000E-03 0.  1.
        -12    1    3    3    0    0 -0.16194188391E+02  0.74974133548E+01  0.58552249836E+01  0.18781549570E+02  0.00000000000E+00 0.  1.
</event>
<event>
 7    1  0.2387817E-009  0.4778727E+02  0.7816164E-02  0.1312668E+00
        -11   -1    0    0    0    0  0.00000000000E+00  0.00000000000E+00  0.45593999997E+02  0.45594000000E+02  0.51100000000E-03 0.  1.
         11   -1    0    0    0    0 -0.00000000000E+00 -0.00000000000E+00 -0.45593999997E+02  0.45594000000E+02  0.51100000000E-03 0. -1.
    9900012    2    1    2    0    0 -0.39547284328E+02 -0.52986226733E+01  0.17075125449E+02  0.47787274095E+02  0.20000013910E+02 0.  0.
         12    1    1    2    0    0  0.39547284328E+02  0.52986226733E+01 -0.17075125449E+02  0.43400725905E+02  0.00000000000E+00 0. -1.
         11    1    3    3    0    0 -0.36357704204E+01  0.13040053925E+01 -0.13105594102E+01  0.40788261599E+01  0.51100000000E-03 0. -1.
        -11    1    3    3    0    0 -0.22163615048E+02 -0.11037599559E+02  0.83941087483E+01  0.26144129321E+02  0.51100000000E-03 0.  1.
        -12    1    3    3    0    0 -0.13747898859E+02  0.44349714931E+01  0.99915761111E+01  0.17564318614E+02  0.00000000000E+00 0.  1.
</event>
<event>
 7    1  0.2387817E-009  0.4778726E+02  0.7816164E-02  0.1312668E+00
        -11   -1    0    0    0    0  0.00000000000E+00  0.00000000000E+00  0.45593999997E+02  0.45594000000E+02  0.51100000000E-03 0. -1.
         11   -1    0    0    0    0 -0.00000000000E+00 -0.00000000000E+00 -0.45593999997E+02  0.45594000000E+02  0.51100000000E-03 0.  1.
    9900012    2    1    2    0    0  0.42245021974E+02  0.68482563394E+01 -0.72169087793E+01  0.47787259582E+02  0.19999947738E+02 0.  0.
         12    1    1    2    0    0 -0.42245021974E+02 -0.68482563394E+01  0.72169087793E+01  0.43400740418E+02  0.00000000000E+00 0. -1.
         11    1    3    3    0    0  0.28045354792E+01  0.47198738612E+01 -0.17081307550E+01  0.57498121236E+01  0.51100000000E-03 0. -1.
        -11    1    3    3    0    0  0.27982385381E+02  0.67302529436E+01 -0.69451273696E+01  0.29606502508E+02  0.51100000000E-03 0.  1.
        -12    1    3    3    0    0  0.11458101114E+02 -0.46018704654E+01  0.14363493453E+01  0.12430944950E+02  0.00000000000E+00 0.  1.
</event>
<event>
 7    1  0.2387817E-009  0.4778727E+02  0.7816164E-02  0.1312668E+00
        -11   -1    0    0    0    0  0.00000000000E+00  0.00000000000E+00  0.45593999997E+02  0.45594000000E+02  0.51100000000E-03 0.  1.
         11   -1    0    0    0    0 -0.00000000000E+00 -0.00000000000E+00 -0.45593999997E+02  0.45594000000E+02  0.51100000000E-03 0. -1.
    9900012    2    1    2    0    0 -0.16725324855E+02  0.19911258675E+02  0.34748080116E+02  0.47787265153E+02  0.19999973137E+02 0.  0.
         12    1    1    2    0    0  0.16725324855E+02 -0.19911258675E+02 -0.34748080116E+02  0.43400734847E+02  0.00000000000E+00 0. -1.
         11    1    3    3    0    0 -0.20244120647E+01 -0.92349358606E+00  0.65443028414E+01  0.69122344110E+01  0.51100000000E-03 0. -1.
        -11    1    3    3    0    0 -0.11918413701E+02  0.11005917952E+02  0.25643183071E+02  0.30343889885E+02  0.51100000000E-03 0.  1.
         12    1    3    3    0    0 -0.27824990898E+01  0.98288343088E+01  0.25605942040E+01  0.10531140856E+02  0.00000000000E+00 0. -1.
</event>
<event>
 7    1  0.2387817E-009  0.4778728E+02  0.7816164E-02  0.1312668E+00
        -11   -1    0    0    0    0  0.00000000000E+00  0.00000000000E+00  0.45593999997E+02  0.45594000000E+02  0.51100000000E-03 0. -1.
         11   -1    0    0    0    0 -0.00000000000E+00 -0.00000000000E+00 -0.45593999997E+02  0.45594000000E+02  0.51100000000E-03 0.  1.
    9900012    2    1    2    0    0 -0.24630145366E+02 -0.34854871238E+01 -0.35564449715E+02  0.47787276909E+02  0.20000026740E+02 0.  0.
         12    1    1    2    0    0  0.24630145366E+02  0.34854871238E+01  0.35564449715E+02  0.43400723091E+02  0.00000000000E+00 0. -1.
         11    1    3    3    0    0 -0.16382966265E+02  0.33398959512E+01 -0.12825990899E+02  0.21072791258E+02  0.51100000000E-03 0. -1.
        -11    1    3    3    0    0 -0.73545444459E+01 -0.62449654679E+00 -0.15314769969E+02  0.17000632324E+02  0.51100000000E-03 0.  1.
         12    1    3    3    0    0 -0.89263465526E+00 -0.62008865283E+01 -0.74236888475E+01  0.97138533275E+01  0.00000000000E+00 0. -1.
</event>
<event>
 7    1  0.2387817E-009  0.4778727E+02  0.7816164E-02  0.1312668E+00
        -11   -1    0    0    0    0  0.00000000000E+00  0.00000000000E+00  0.45593999997E+02  0.45594000000E+02  0.51100000000E-03 0. -1.
         11   -1    0    0    0    0 -0.00000000000E+00 -0.00000000000E+00 -0.45593999997E+02  0.45594000000E+02  0.51100000000E-03 0.  1.
    9900012    2    1    2    0    0 -0.11850905848E+02 -0.13469541614E+02 -0.39518994492E+02  0.47787269058E+02  0.19999990941E+02 0.  0.
         12    1    1    2    0    0  0.11850905848E+02  0.13469541614E+02  0.39518994492E+02  0.43400730942E+02  0.00000000000E+00 0. -1.
         11    1    3    3    0    0 -0.24426709780E+00  0.16119268815E+01 -0.10795598171E+01  0.19553578563E+01  0.51100000000E-03 0.  1.
        -11    1    3    3    0    0 -0.79402350104E+01 -0.11407017439E+01 -0.50896356192E+01  0.95001538664E+01  0.51100000000E-03 0. -1.
        -12    1    3    3    0    0 -0.36664037403E+01 -0.13940766751E+02 -0.33349799055E+02  0.36331757335E+02  0.00000000000E+00 0.  1.
</event>
<event>
 7    1  0.2387817E-009  0.4778728E+02  0.7816164E-02  0.1312668E+00
        -11   -1    0    0    0    0  0.00000000000E+00  0.00000000000E+00  0.45593999997E+02  0.45594000000E+02  0.51100000000E-03 0.  1.
         11   -1    0    0    0    0 -0.00000000000E+00 -0.00000000000E+00 -0.45593999997E+02  0.45594000000E+02  0.51100000000E-03 0. -1.
    9900012    2    1    2    0    0 -0.40160675791E+02  0.91634625008E+01 -0.13666512374E+02  0.47787280127E+02  0.20000041412E+02 0.  0.
         12    1    1    2    0    0  0.40160675791E+02 -0.91634625008E+01  0.13666512374E+02  0.43400719873E+02  0.00000000000E+00 0. -1.
         11    1    3    3    0    0 -0.63739006703E+01  0.10333400505E+01  0.56958872609E+00  0.64821935325E+01  0.51100000000E-03 0. -1.
        -11    1    3    3    0    0 -0.28849609375E+02  0.74542590362E+01 -0.18219130080E+02  0.34925673079E+02  0.51100000000E-03 0.  1.
         12    1    3    3    0    0 -0.49371657457E+01  0.67586341414E+00  0.39830289798E+01  0.63794135161E+01  0.00000000000E+00 0. -1.
</event>
<event>
 7    1  0.2387817E-009  0.4778727E+02  0.7816164E-02  0.1312668E+00
        -11   -1    0    0    0    0  0.00000000000E+00  0.00000000000E+00  0.45593999997E+02  0.45594000000E+02  0.51100000000E-03 0.  1.
         11   -1    0    0    0    0 -0.00000000000E+00 -0.00000000000E+00 -0.45593999997E+02  0.45594000000E+02  0.51100000000E-03 0. -1.
    9900012    2    1    2    0    0  0.93467726013E+01 -0.17632157255E+02  0.38540475551E+02  0.47787269785E+02  0.19999994256E+02 0.  0.
         12    1    1    2    0    0 -0.93467726013E+01  0.17632157255E+02 -0.38540475551E+02  0.43400730215E+02  0.00000000000E+00 0. -1.
         11    1    3    3    0    0  0.13512283620E+01  0.21550670066E+01  0.11061697929E+02  0.11350387360E+02  0.51100000000E-03 0. -1.
        -11    1    3    3    0    0  0.31902979792E+01  0.19764317404E-01  0.61944204566E+01  0.69677282437E+01  0.51100000000E-03 0.  1.
        -12    1    3    3    0    0  0.48052462600E+01 -0.19806988579E+02  0.21284357166E+02  0.29469154181E+02  0.00000000000E+00 0.  1.
</event>
<event>
 7    1  0.2387817E-009  0.4778727E+02  0.7816164E-02  0.1312668E+00
        -11   -1    0    0    0    0  0.00000000000E+00  0.00000000000E+00  0.45593999997E+02  0.45594000000E+02  0.51100000000E-03 0.  1.
         11   -1    0    0    0    0 -0.00000000000E+00 -0.00000000000E+00 -0.45593999997E+02  0.45594000000E+02  0.51100000000E-03 0. -1.
    9900012    2    1    2    0    0 -0.83667559802E+01  0.35441153282E+02  0.23612401437E+02  0.47787268978E+02  0.19999990580E+02 0.  0.
         12    1    1    2    0    0  0.83667559802E+01 -0.35441153282E+02 -0.23612401437E+02  0.43400731022E+02  0.00000000000E+00 0. -1.
         11    1    3    3    0    0 -0.39264636938E+01  0.18081048718E+01  0.22616413482E+01  0.48786660282E+01  0.51100000000E-03 0. -1.
        -11    1    3    3    0    0 -0.46703077967E+01  0.27547274329E+02  0.23439569211E+02  0.36470227624E+02  0.51100000000E-03 0.  1.
        -12    1    3    3    0    0  0.23001551026E+00  0.60857740810E+01 -0.20888091218E+01  0.64383753267E+01  0.00000000000E+00 0.  1.
</event>
<event>
 7    1  0.2387817E-009  0.4778728E+02  0.7816164E-02  0.1312668E+00
        -11   -1    0    0    0    0  0.00000000000E+00  0.00000000000E+00  0.45593999997E+02  0.45594000000E+02  0.51100000000E-03 0.  1.
         11   -1    0    0    0    0 -0.00000000000E+00 -0.00000000000E+00 -0.45593999997E+02  0.45594000000E+02  0.51100000000E-03 0. -1.
    9900012    2    1    2    0    0  0.31575876259E+02  0.20895284272E+02  0.21212586484E+02  0.47787277752E+02  0.20000030581E+02 0.  0.
         12    1    1    2    0    0 -0.31575876259E+02 -0.20895284272E+02 -0.21212586484E+02  0.43400722248E+02  0.00000000000E+00 0. -1.
         11    1    3    3    0    0  0.22831354203E+01 -0.12008411255E+01 -0.10907428026E+01  0.28007939729E+01  0.51100000000E-03 0. -1.
        -11    1    3    3    0    0  0.12752261147E+02  0.12639393832E+02  0.36489158130E+01  0.18321818351E+02  0.51100000000E-03 0.  1.
        -12    1    3    3    0    0  0.16540479692E+02  0.94567315655E+01  0.18654413474E+02  0.26664665428E+02  0.00000000000E+00 0.  1.
</event>
<event>
 7    1  0.2387817E-009  0.4778727E+02  0.7816164E-02  0.1312668E+00
        -11   -1    0    0    0    0  0.00000000000E+00  0.00000000000E+00  0.45593999997E+02  0.45594000000E+02  0.51100000000E-03 0. -1.
         11   -1    0    0    0    0 -0.00000000000E+00 -0.00000000000E+00 -0.45593999997E+02  0.45594000000E+02  0.51100000000E-03 0.  1.
    9900012    2    1    2    0    0  0.38223373449E+02 -0.14154944521E+02 -0.14907528967E+02  0.47787272447E+02  0.20000006396E+02 0.  0.
         12    1    1    2    0    0 -0.38223373449E+02  0.14154944521E+02  0.14907528967E+02  0.43400727553E+02  0.00000000000E+00 0. -1.
         11    1    3    3    0    0  0.19020353839E+02 -0.75677669522E+01 -0.10487160680E+02  0.23000554259E+02  0.51100000000E-03 0. -1.
        -11    1    3    3    0    0  0.54376759297E+01  0.60737758991E+00 -0.71637035893E+01  0.90142041484E+01  0.51100000000E-03 0.  1.
         12    1    3    3    0    0  0.13765343680E+02 -0.71945551586E+01  0.27433353030E+01  0.15772514040E+02  0.00000000000E+00 0. -1.
</event>
<event>
 7    1  0.2387817E-009  0.4778727E+02  0.7816164E-02  0.1312668E+00
        -11   -1    0    0    0    0  0.00000000000E+00  0.00000000000E+00  0.45593999997E+02  0.45594000000E+02  0.51100000000E-03 0.  1.
         11   -1    0    0    0    0 -0.00000000000E+00 -0.00000000000E+00 -0.45593999997E+02  0.45594000000E+02  0.51100000000E-03 0. -1.
    9900012    2    1    2    0    0  0.41291806131E+02 -0.49461536310E+01  0.12415538378E+02  0.47787270945E+02  0.19999999548E+02 0.  0.
         12    1    1    2    0    0 -0.41291806131E+02  0.49461536310E+01 -0.12415538378E+02  0.43400729055E+02  0.00000000000E+00 0. -1.
         11    1    3    3    0    0  0.21435974798E+01  0.48478163167E+00 -0.30338675293E+01  0.37462482342E+01  0.51100000000E-03 0. -1.
        -11    1    3    3    0    0 -0.41436562725E+00 -0.14346765322E+00 -0.82664766402E+00  0.93575021352E+00  0.51100000000E-03 0.  1.
        -12    1    3    3    0    0  0.39562574278E+02 -0.52874676095E+01  0.16276053571E+02  0.43105272498E+02  0.00000000000E+00 0.  1.
</event>
<event>
 7    1  0.2387817E-009  0.4778727E+02  0.7816164E-02  0.1312668E+00
        -11   -1    0    0    0    0  0.00000000000E+00  0.00000000000E+00  0.45593999997E+02  0.45594000000E+02  0.51100000000E-03 0. -1.
         11   -1    0    0    0    0 -0.00000000000E+00 -0.00000000000E+00 -0.45593999997E+02  0.45594000000E+02  0.51100000000E-03 0.  1.
    9900012    2    1    2    0    0 -0.36565836257E+02  0.21340459314E+02 -0.95471327236E+01  0.47787270419E+02  0.19999997149E+02 0.  0.
         12    1    1    2    0    0  0.36565836257E+02 -0.21340459314E+02  0.95471327236E+01  0.43400729581E+02  0.00000000000E+00 0. -1.
         11    1    3    3    0    0 -0.17984534457E+02  0.13822290120E+02 -0.22740187364E+01  0.22796279198E+02  0.51100000000E-03 0. -1.
        -11    1    3    3    0    0 -0.38611947283E+01  0.73045530826E+01  0.62243691655E+00  0.82856954109E+01  0.51100000000E-03 0.  1.
        -12    1    3    3    0    0 -0.14720107071E+02  0.21361611157E+00 -0.78955509037E+01  0.16705295810E+02  0.00000000000E+00 0.  1.
</event>
<event>
 7    1  0.2387817E-009  0.4778727E+02  0.7816164E-02  0.1312668E+00
        -11   -1    0    0    0    0  0.00000000000E+00  0.00000000000E+00  0.45593999997E+02  0.45594000000E+02  0.51100000000E-03 0. -1.
         11   -1    0    0    0    0 -0.00000000000E+00 -0.00000000000E+00 -0.45593999997E+02  0.45594000000E+02  0.51100000000E-03 0.  1.
    9900012    2    1    2    0    0  0.40000739968E+01  0.75733529374E+01 -0.42547233478E+02  0.47787270244E+02  0.19999996352E+02 0.  0.
         12    1    1    2    0    0 -0.40000739968E+01 -0.75733529374E+01  0.42547233478E+02  0.43400729756E+02  0.00000000000E+00 0. -1.
         11    1    3    3    0    0 -0.37495558217E+01  0.70734252088E+01 -0.10349111574E+02  0.13084212765E+02  0.51100000000E-03 0. -1.
        -11    1    3    3    0    0 -0.98408609310E-01  0.38684111222E+01 -0.15136255855E+02  0.15623076855E+02  0.51100000000E-03 0.  1.
        -12    1    3    3    0    0  0.78480384278E+01 -0.33684833936E+01 -0.17061866049E+02  0.19079980624E+02  0.00000000000E+00 0.  1.
</event>
<event>
 7    1  0.2387817E-009  0.4778726E+02  0.7816164E-02  0.1312668E+00
        -11   -1    0    0    0    0  0.00000000000E+00  0.00000000000E+00  0.45593999997E+02  0.45594000000E+02  0.51100000000E-03 0.  1.
         11   -1    0    0    0    0 -0.00000000000E+00 -0.00000000000E+00 -0.45593999997E+02  0.45594000000E+02  0.51100000000E-03 0. -1.
    9900012    2    1    2    0    0 -0.10219018999E+02  0.41463310797E+01  0.41976227324E+02  0.47787261860E+02  0.19999958126E+02 0.  0.
         12    1    1    2    0    0  0.10219018999E+02 -0.41463310797E+01 -0.41976227324E+02  0.43400738140E+02  0.00000000000E+00 0. -1.
         11    1    3    3    0    0 -0.18012223527E+01 -0.45438767628E+01  0.47950681147E+01  0.68471816454E+01  0.51100000000E-03 0.  1.
        -11    1    3    3    0    0 -0.51082854108E+01 -0.22622205921E+01  0.14434946139E+02  0.15478368523E+02  0.51100000000E-03 0. -1.
        -12    1    3    3    0    0 -0.33095112354E+01  0.10952428435E+02  0.22746213070E+02  0.25461711692E+02  0.00000000000E+00 0.  1.
</event>
<event>
 7    1  0.2387817E-009  0.4778727E+02  0.7816164E-02  0.1312668E+00
        -11   -1    0    0    0    0  0.00000000000E+00  0.00000000000E+00  0.45593999997E+02  0.45594000000E+02  0.51100000000E-03 0. -1.
         11   -1    0    0    0    0 -0.00000000000E+00 -0.00000000000E+00 -0.45593999997E+02  0.45594000000E+02  0.51100000000E-03 0.  1.
    9900012    2    1    2    0    0  0.36715767527E+02  0.16604437171E+02 -0.16120443463E+02  0.47787267099E+02  0.19999982013E+02 0.  0.
         12    1    1    2    0    0 -0.36715767527E+02 -0.16604437171E+02  0.16120443463E+02  0.43400732901E+02  0.00000000000E+00 0. -1.
         11    1    3    3    0    0  0.10047508527E+02  0.40085469169E+01 -0.10494814646E+02  0.15071894729E+02  0.51100000000E-03 0.  1.
        -11    1    3    3    0    0 -0.72018274087E+00  0.31294797926E+01 -0.86370338624E-01  0.32124394234E+01  0.51100000000E-03 0. -1.
        -12    1    3    3    0    0  0.27388441741E+02  0.94664104617E+01 -0.55392584780E+01  0.29502932947E+02  0.00000000000E+00 0.  1.
</event>
<event>
 7    1  0.2387817E-009  0.4778728E+02  0.7816164E-02  0.1312668E+00
        -11   -1    0    0    0    0  0.00000000000E+00  0.00000000000E+00  0.45593999997E+02  0.45594000000E+02  0.51100000000E-03 0.  1.
         11   -1    0    0    0    0 -0.00000000000E+00 -0.00000000000E+00 -0.45593999997E+02  0.45594000000E+02  0.51100000000E-03 0. -1.
    9900012    2    1    2    0    0 -0.21352289647E+01 -0.43347120183E+02  0.30131310210E+00  0.47787276268E+02  0.20000023815E+02 0.  0.
         12    1    1    2    0    0  0.21352289647E+01  0.43347120183E+02 -0.30131310210E+00  0.43400723732E+02  0.00000000000E+00 0. -1.
         11    1    3    3    0    0  0.12484944074E+01 -0.52826444970E+01 -0.41821854455E+01  0.68524263242E+01  0.51100000000E-03 0. -1.
        -11    1    3    3    0    0  0.41801732052E+01 -0.12485967208E+02 -0.24080481013E+01  0.13385511610E+02  0.51100000000E-03 0.  1.
        -12    1    3    3    0    0 -0.75638965773E+01 -0.25578508478E+02  0.68915466489E+01  0.27549338334E+02  0.00000000000E+00 0.  1.
</event>
<event>
 7    1  0.2387817E-009  0.4778727E+02  0.7816164E-02  0.1312668E+00
        -11   -1    0    0    0    0  0.00000000000E+00  0.00000000000E+00  0.45593999997E+02  0.45594000000E+02  0.51100000000E-03 0.  1.
         11   -1    0    0    0    0 -0.00000000000E+00 -0.00000000000E+00 -0.45593999997E+02  0.45594000000E+02  0.51100000000E-03 0. -1.
    9900012    2    1    2    0    0  0.24133605613E+02 -0.28817488985E+01  0.35956756798E+02  0.47787265490E+02  0.19999974676E+02 0.  0.
         12    1    1    2    0    0 -0.24133605613E+02  0.28817488985E+01 -0.35956756798E+02  0.43400734510E+02  0.00000000000E+00 0. -1.
         11    1    3    3    0    0  0.26318533006E+01 -0.49533252756E+01  0.54658951941E+01  0.78318639937E+01  0.51100000000E-03 0. -1.
        -11    1    3    3    0    0  0.16947908573E+02 -0.46367653347E+01  0.18850714064E+02  0.25769761714E+02  0.51100000000E-03 0.  1.
         12    1    3    3    0    0  0.45538437388E+01  0.67083417118E+01  0.11640147539E+02  0.14185639783E+02  0.00000000000E+00 0. -1.
</event>
<event>
 7    1  0.2387817E-009  0.4778727E+02  0.7816164E-02  0.1312668E+00
        -11   -1    0    0    0    0  0.00000000000E+00  0.00000000000E+00  0.45593999997E+02  0.45594000000E+02  0.51100000000E-03 0.  1.
         11   -1    0    0    0    0 -0.00000000000E+00 -0.00000000000E+00 -0.45593999997E+02  0.45594000000E+02  0.51100000000E-03 0. -1.
    9900012    2    1    2    0    0  0.33079662493E+02 -0.28032565515E+02  0.18800096755E+01  0.47787271477E+02  0.20000001970E+02 0.  0.
         12    1    1    2    0    0 -0.33079662493E+02  0.28032565515E+02 -0.18800096755E+01  0.43400728523E+02  0.00000000000E+00 0. -1.
         11    1    3    3    0    0  0.39755733417E+01 -0.20206958590E+01  0.43699004390E+01  0.62437508965E+01  0.51100000000E-03 0. -1.
        -11    1    3    3    0    0  0.51001225816E+00 -0.55261279482E+01 -0.31126429746E+01  0.63629198606E+01  0.51100000000E-03 0.  1.
        -12    1    3    3    0    0  0.28594076893E+02 -0.20485741708E+02  0.62275221108E+00  0.35180600720E+02  0.00000000000E+00 0.  1.
</event>
<event>
 7    1  0.2387817E-009  0.4778727E+02  0.7816164E-02  0.1312668E+00
        -11   -1    0    0    0    0  0.00000000000E+00  0.00000000000E+00  0.45593999997E+02  0.45594000000E+02  0.51100000000E-03 0.  1.
         11   -1    0    0    0    0 -0.00000000000E+00 -0.00000000000E+00 -0.45593999997E+02  0.45594000000E+02  0.51100000000E-03 0. -1.
    9900012    2    1    2    0    0  0.21972452611E+02  0.25573315832E+02  0.27328378158E+02  0.47787269486E+02  0.19999992895E+02 0.  0.
         12    1    1    2    0    0 -0.21972452611E+02 -0.25573315832E+02 -0.27328378158E+02  0.43400730514E+02  0.00000000000E+00 0. -1.
         11    1    3    3    0    0 -0.57435872021E-01  0.41054531877E+01  0.68654031403E+01  0.79994878145E+01  0.51100000000E-03 0. -1.
        -11    1    3    3    0    0  0.83961212467E+00  0.55108734898E+01 -0.10028609853E+01  0.56639567051E+01  0.51100000000E-03 0.  1.
        -12    1    3    3    0    0  0.21190276358E+02  0.15956989155E+02  0.21465836003E+02  0.34123824966E+02  0.00000000000E+00 0.  1.
</event>
<event>
 7    1  0.2387817E-009  0.4778727E+02  0.7816164E-02  0.1312668E+00
        -11   -1    0    0    0    0  0.00000000000E+00  0.00000000000E+00  0.45593999997E+02  0.45594000000E+02  0.51100000000E-03 0.  1.
         11   -1    0    0    0    0 -0.00000000000E+00 -0.00000000000E+00 -0.45593999997E+02  0.45594000000E+02  0.51100000000E-03 0. -1.
    9900012    2    1    2    0    0 -0.85260586860E+01 -0.20406569221E+02  0.37343023934E+02  0.47787272119E+02  0.20000004900E+02 0.  0.
         12    1    1    2    0    0  0.85260586860E+01  0.20406569221E+02 -0.37343023934E+02  0.43400727881E+02  0.00000000000E+00 0. -1.
         11    1    3    3    0    0 -0.14506207046E+01 -0.14848970154E+02  0.19589767768E+02  0.24624281036E+02  0.51100000000E-03 0. -1.
        -11    1    3    3    0    0 -0.45661046062E+01 -0.49290931876E+01  0.19099445649E+02  0.20246829265E+02  0.51100000000E-03 0.  1.
         12    1    3    3    0    0 -0.25093333751E+01 -0.62850587932E+00 -0.13461894832E+01  0.29161618186E+01  0.00000000000E+00 0. -1.
</event>
<event>
 7    1  0.2387817E-009  0.4778727E+02  0.7816164E-02  0.1312668E+00
        -11   -1    0    0    0    0  0.00000000000E+00  0.00000000000E+00  0.45593999997E+02  0.45594000000E+02  0.51100000000E-03 0. -1.
         11   -1    0    0    0    0 -0.00000000000E+00 -0.00000000000E+00 -0.45593999997E+02  0.45594000000E+02  0.51100000000E-03 0.  1.
    9900012    2    1    2    0    0 -0.30365999634E+02  0.22876852110E+02 -0.20932718246E+02  0.47787274321E+02  0.20000014941E+02 0.  0.
         12    1    1    2    0    0  0.30365999634E+02 -0.22876852110E+02  0.20932718246E+02  0.43400725679E+02  0.00000000000E+00 0. -1.
         11    1    3    3    0    0 -0.25545186503E+01  0.74363183859E+01  0.17654709609E+01  0.80586155539E+01  0.51100000000E-03 0. -1.
        -11    1    3    3    0    0 -0.56321430334E+01  0.43727535751E+00 -0.24490516394E+01  0.61571177576E+01  0.51100000000E-03 0.  1.
        -12    1    3    3    0    0 -0.22179337951E+02  0.15003258367E+02 -0.20249137567E+02  0.33571541010E+02  0.00000000000E+00 0.  1.
</event>
<event>
 7    1  0.2387817E-009  0.4778728E+02  0.7816164E-02  0.1312668E+00
        -11   -1    0    0    0    0  0.00000000000E+00  0.00000000000E+00  0.45593999997E+02  0.45594000000E+02  0.51100000000E-03 0. -1.
         11   -1    0    0    0    0 -0.00000000000E+00 -0.00000000000E+00 -0.45593999997E+02  0.45594000000E+02  0.51100000000E-03 0.  1.
    9900012    2    1    2    0    0  0.78060600341E+01  0.95927738748E+01 -0.41601285084E+02  0.47787276451E+02  0.20000024652E+02 0.  0.
         12    1    1    2    0    0 -0.78060600341E+01 -0.95927738748E+01  0.41601285084E+02  0.43400723549E+02  0.00000000000E+00 0. -1.
         11    1    3    3    0    0  0.38016099502E+01 -0.11105225079E+01 -0.21325978740E+01  0.44981632259E+01  0.51100000000E-03 0. -1.
        -11    1    3    3    0    0  0.35975335177E+01  0.30561161722E-01 -0.25254472267E+02  0.25509440432E+02  0.51100000000E-03 0.  1.
        -12    1    3    3    0    0  0.40691656620E+00  0.10672735221E+02 -0.14214214944E+02  0.17779672794E+02  0.00000000000E+00 0.  1.
</event>
<event>
 7    1  0.2387817E-009  0.4778727E+02  0.7816164E-02  0.1312668E+00
        -11   -1    0    0    0    0  0.00000000000E+00  0.00000000000E+00  0.45593999997E+02  0.45594000000E+02  0.51100000000E-03 0.  1.
         11   -1    0    0    0    0 -0.00000000000E+00 -0.00000000000E+00 -0.45593999997E+02  0.45594000000E+02  0.51100000000E-03 0. -1.
    9900012    2    1    2    0    0  0.23506238496E+02  0.16246456326E+02  0.32666996355E+02  0.47787271409E+02  0.20000001662E+02 0.  0.
         12    1    1    2    0    0 -0.23506238496E+02 -0.16246456326E+02 -0.32666996355E+02  0.43400728591E+02  0.00000000000E+00 0. -1.
         11    1    3    3    0    0  0.65679955399E+01 -0.77888271595E+00  0.54876321200E+01  0.85941451142E+01  0.51100000000E-03 0. -1.
        -11    1    3    3    0    0  0.15617097113E+02  0.14524011102E+02  0.13536762200E+02  0.25260335545E+02  0.51100000000E-03 0.  1.
         12    1    3    3    0    0  0.13211458431E+01  0.25013279396E+01  0.13642602035E+02  0.13932790750E+02  0.00000000000E+00 0. -1.
</event>
<event>
 7    1  0.2387817E-009  0.4778727E+02  0.7816164E-02  0.1312668E+00
        -11   -1    0    0    0    0  0.00000000000E+00  0.00000000000E+00  0.45593999997E+02  0.45594000000E+02  0.51100000000E-03 0. -1.
         11   -1    0    0    0    0 -0.00000000000E+00 -0.00000000000E+00 -0.45593999997E+02  0.45594000000E+02  0.51100000000E-03 0.  1.
    9900012    2    1    2    0    0 -0.40064306039E+02  0.11282490322E+02 -0.12295528049E+02  0.47787271708E+02  0.20000003028E+02 0.  0.
         12    1    1    2    0    0  0.40064306039E+02 -0.11282490322E+02  0.12295528049E+02  0.43400728292E+02  0.00000000000E+00 0. -1.
         11    1    3    3    0    0 -0.80786475274E+01 -0.11713542081E+00 -0.73240986208E+01  0.10905076224E+02  0.51100000000E-03 0. -1.
        -11    1    3    3    0    0 -0.29109576567E+02  0.14312765784E+02 -0.47343621499E+01  0.32781654893E+02  0.51100000000E-03 0.  1.
         12    1    3    3    0    0 -0.28760819444E+01 -0.29131400412E+01 -0.23706727854E+00  0.41005405918E+01  0.00000000000E+00 0. -1.
</event>
<event>
 7    1  0.2387817E-009  0.4778727E+02  0.7816164E-02  0.1312668E+00
        -11   -1    0    0    0    0  0.00000000000E+00  0.00000000000E+00  0.45593999997E+02  0.45594000000E+02  0.51100000000E-03 0.  1.
         11   -1    0    0    0    0 -0.00000000000E+00 -0.00000000000E+00 -0.45593999997E+02  0.45594000000E+02  0.51100000000E-03 0. -1.
    9900012    2    1    2    0    0 -0.12183676489E+02  0.25234388926E+02  0.33142219157E+02  0.47787273648E+02  0.20000011871E+02 0.  0.
         12    1    1    2    0    0  0.12183676489E+02 -0.25234388926E+02 -0.33142219157E+02  0.43400726352E+02  0.00000000000E+00 0. -1.
         11    1    3    3    0    0 -0.27231969742E+00  0.75156550655E+01  0.69165522312E+01  0.10217530235E+02  0.51100000000E-03 0. -1.
        -11    1    3    3    0    0 -0.56785690323E+01  0.19366493337E+02  0.17444983116E+02  0.26676481151E+02  0.51100000000E-03 0.  1.
         12    1    3    3    0    0 -0.62327877589E+01 -0.16477594763E+01  0.87806838090E+01  0.10893262261E+02  0.00000000000E+00 0. -1.
</event>
<event>
 7    1  0.2387817E-009  0.4778727E+02  0.7816164E-02  0.1312668E+00
        -11   -1    0    0    0    0  0.00000000000E+00  0.00000000000E+00  0.45593999997E+02  0.45594000000E+02  0.51100000000E-03 0. -1.
         11   -1    0    0    0    0 -0.00000000000E+00 -0.00000000000E+00 -0.45593999997E+02  0.45594000000E+02  0.51100000000E-03 0.  1.
    9900012    2    1    2    0    0  0.28743925864E+02 -0.21731085166E+02  0.24190278947E+02  0.47787274982E+02  0.20000017951E+02 0.  0.
         12    1    1    2    0    0 -0.28743925864E+02  0.21731085166E+02 -0.24190278947E+02  0.43400725018E+02  0.00000000000E+00 0. -1.
         11    1    3    3    0    0  0.17185971836E+02 -0.17787010455E+02  0.13956291914E+02  0.28399180501E+02  0.51100000000E-03 0. -1.
        -11    1    3    3    0    0  0.56027163077E+01 -0.75061494049E+01  0.72022874884E+01  0.11815483665E+02  0.51100000000E-03 0.  1.
         12    1    3    3    0    0  0.59552377207E+01  0.35620746941E+01  0.30316995447E+01  0.75726108157E+01  0.00000000000E+00 0. -1.
</event>
<event>
 7    1  0.2387817E-009  0.4778727E+02  0.7816164E-02  0.1312668E+00
        -11   -1    0    0    0    0  0.00000000000E+00  0.00000000000E+00  0.45593999997E+02  0.45594000000E+02  0.51100000000E-03 0.  1.
         11   -1    0    0    0    0 -0.00000000000E+00 -0.00000000000E+00 -0.45593999997E+02  0.45594000000E+02  0.51100000000E-03 0. -1.
    9900012    2    1    2    0    0 -0.15765654793E+02  0.35421701696E+02  0.19503090368E+02  0.47787270098E+02  0.19999995685E+02 0.  0.
         12    1    1    2    0    0  0.15765654793E+02 -0.35421701696E+02 -0.19503090368E+02  0.43400729902E+02  0.00000000000E+00 0. -1.
         11    1    3    3    0    0  0.19260392974E+01  0.59742722677E+00  0.32754385006E+01  0.38464326718E+01  0.51100000000E-03 0. -1.
        -11    1    3    3    0    0  0.98136560019E-02  0.92855083332E-01  0.26649886101E+01  0.26666238818E+01  0.51100000000E-03 0.  1.
        -12    1    3    3    0    0 -0.17701507747E+02  0.34731419386E+02  0.13562663257E+02  0.41274213544E+02  0.00000000000E+00 0.  1.
</event>
<event>
 7    1  0.2387817E-009  0.4778728E+02  0.7816164E-02  0.1312668E+00
        -11   -1    0    0    0    0  0.00000000000E+00  0.00000000000E+00  0.45593999997E+02  0.45594000000E+02  0.51100000000E-03 0.  1.
         11   -1    0    0    0    0 -0.00000000000E+00 -0.00000000000E+00 -0.45593999997E+02  0.45594000000E+02  0.51100000000E-03 0. -1.
    9900012    2    1    2    0    0 -0.12727964478E+02 -0.19949463451E+02  0.36381873910E+02  0.47787275111E+02  0.20000018539E+02 0.  0.
         12    1    1    2    0    0  0.12727964478E+02  0.19949463451E+02 -0.36381873910E+02  0.43400724889E+02  0.00000000000E+00 0. -1.
         11    1    3    3    0    0 -0.58896860768E+00  0.27158558177E+01  0.40110304716E+01  0.48796641840E+01  0.51100000000E-03 0. -1.
        -11    1    3    3    0    0 -0.28421413905E+01  0.71157838469E+00  0.44134217533E+01  0.52973958994E+01  0.51100000000E-03 0.  1.
        -12    1    3    3    0    0 -0.92968544797E+01 -0.23376897654E+02  0.27957421685E+02  0.37610215027E+02  0.00000000000E+00 0.  1.
</event>
<event>
 7    1  0.2387817E-009  0.4778727E+02  0.7816164E-02  0.1312668E+00
        -11   -1    0    0    0    0  0.00000000000E+00  0.00000000000E+00  0.45593999997E+02  0.45594000000E+02  0.51100000000E-03 0.  1.
         11   -1    0    0    0    0 -0.00000000000E+00 -0.00000000000E+00 -0.45593999997E+02  0.45594000000E+02  0.51100000000E-03 0. -1.
    9900012    2    1    2    0    0 -0.83424488303E+00  0.69793469283E-01  0.43392654491E+02  0.47787270750E+02  0.19999998658E+02 0.  0.
         12    1    1    2    0    0  0.83424488303E+00 -0.69793469283E-01 -0.43392654491E+02  0.43400729250E+02  0.00000000000E+00 0. -1.
         11    1    3    3    0    0  0.50330432530E+01  0.26804358572E+01  0.90569432380E+01  0.10702545578E+02  0.51100000000E-03 0. -1.
        -11    1    3    3    0    0  0.27880305727E+01 -0.17247082232E+01  0.26183163452E+01  0.41956303071E+01  0.51100000000E-03 0.  1.
         12    1    3    3    0    0 -0.86553187087E+01 -0.88593416465E+00  0.31717394908E+02  0.32889094865E+02  0.00000000000E+00 0. -1.
</event>
<event>
 7    1  0.2387817E-009  0.4778727E+02  0.7816164E-02  0.1312668E+00
        -11   -1    0    0    0    0  0.00000000000E+00  0.00000000000E+00  0.45593999997E+02  0.45594000000E+02  0.51100000000E-03 0.  1.
         11   -1    0    0    0    0 -0.00000000000E+00 -0.00000000000E+00 -0.45593999997E+02  0.45594000000E+02  0.51100000000E-03 0. -1.
    9900012    2    1    2    0    0  0.11512192243E+02  0.40029134508E+02  0.12196760996E+02  0.47787272373E+02  0.20000006059E+02 0.  0.
         12    1    1    2    0    0 -0.11512192243E+02 -0.40029134508E+02 -0.12196760996E+02  0.43400727627E+02  0.00000000000E+00 0. -1.
         11    1    3    3    0    0  0.66996592009E+01  0.20685903184E+01  0.21728046753E+01  0.73406797868E+01  0.51100000000E-03 0. -1.
        -11    1    3    3    0    0  0.85848706965E+00  0.13625766131E+01 -0.11478964121E+01  0.19776960103E+01  0.51100000000E-03 0.  1.
        -12    1    3    3    0    0  0.39540459726E+01  0.36597967577E+02  0.11171852733E+02  0.38468896576E+02  0.00000000000E+00 0.  1.
</event>
<event>
 7    1  0.2387817E-009  0.4778727E+02  0.7816164E-02  0.1312668E+00
        -11   -1    0    0    0    0  0.00000000000E+00  0.00000000000E+00  0.45593999997E+02  0.45594000000E+02  0.51100000000E-03 0.  1.
         11   -1    0    0    0    0 -0.00000000000E+00 -0.00000000000E+00 -0.45593999997E+02  0.45594000000E+02  0.51100000000E-03 0. -1.
    9900012    2    1    2    0    0  0.28485959524E+02 -0.93557781109E+01  0.31379016636E+02  0.47787272367E+02  0.20000006029E+02 0.  0.
         12    1    1    2    0    0 -0.28485959524E+02  0.93557781109E+01 -0.31379016636E+02  0.43400727633E+02  0.00000000000E+00 0. -1.
         11    1    3    3    0    0  0.19947239652E+02 -0.11166509894E+02  0.14059205546E+02  0.26837372706E+02  0.51100000000E-03 0. -1.
        -11    1    3    3    0    0  0.68761838952E+01 -0.23595964923E+01  0.11389806148E+02  0.13512116226E+02  0.51100000000E-03 0.  1.
         12    1    3    3    0    0  0.16625359768E+01  0.41703282753E+01  0.59300049423E+01  0.74377834342E+01  0.00000000000E+00 0. -1.
</event>
<event>
 7    1  0.2387817E-009  0.4778727E+02  0.7816164E-02  0.1312668E+00
        -11   -1    0    0    0    0  0.00000000000E+00  0.00000000000E+00  0.45593999997E+02  0.45594000000E+02  0.51100000000E-03 0.  1.
         11   -1    0    0    0    0 -0.00000000000E+00 -0.00000000000E+00 -0.45593999997E+02  0.45594000000E+02  0.51100000000E-03 0. -1.
    9900012    2    1    2    0    0  0.19524812443E+02  0.20092621416E+02  0.33146518539E+02  0.47787269274E+02  0.19999991928E+02 0.  0.
         12    1    1    2    0    0 -0.19524812443E+02 -0.20092621416E+02 -0.33146518539E+02  0.43400730726E+02  0.00000000000E+00 0. -1.
         11    1    3    3    0    0 -0.76772697155E+00 -0.18035228222E+01  0.36020102527E+01  0.41008020428E+01  0.51100000000E-03 0. -1.
        -11    1    3    3    0    0  0.49298173010E+01 -0.47029381818E+00  0.34067968779E+01  0.60108685000E+01  0.51100000000E-03 0.  1.
         12    1    3    3    0    0  0.15362722114E+02  0.22366438057E+02  0.26137711408E+02  0.37675598731E+02  0.00000000000E+00 0. -1.
</event>
<event>
 7    1  0.2387817E-009  0.4778727E+02  0.7816164E-02  0.1312668E+00
        -11   -1    0    0    0    0  0.00000000000E+00  0.00000000000E+00  0.45593999997E+02  0.45594000000E+02  0.51100000000E-03 0. -1.
         11   -1    0    0    0    0 -0.00000000000E+00 -0.00000000000E+00 -0.45593999997E+02  0.45594000000E+02  0.51100000000E-03 0.  1.
    9900012    2    1    2    0    0  0.16188066161E+02 -0.37550199306E+02 -0.14544843121E+02  0.47787269414E+02  0.19999992567E+02 0.  0.
         12    1    1    2    0    0 -0.16188066161E+02  0.37550199306E+02  0.14544843121E+02  0.43400730586E+02  0.00000000000E+00 0. -1.
         11    1    3    3    0    0  0.12521556677E+02 -0.27861865263E+02 -0.46079690254E+01  0.30891848380E+02  0.51100000000E-03 0.  1.
        -11    1    3    3    0    0  0.65494163535E+00 -0.10480933974E+02 -0.82451396557E+01  0.13351451371E+02  0.51100000000E-03 0. -1.
        -12    1    3    3    0    0  0.30115678487E+01  0.79259993064E+00 -0.16917344397E+01  0.35439696630E+01  0.00000000000E+00 0.  1.
</event>
<event>
 7    1  0.2387817E-009  0.4778727E+02  0.7816164E-02  0.1312668E+00
        -11   -1    0    0    0    0  0.00000000000E+00  0.00000000000E+00  0.45593999997E+02  0.45594000000E+02  0.51100000000E-03 0.  1.
         11   -1    0    0    0    0 -0.00000000000E+00 -0.00000000000E+00 -0.45593999997E+02  0.45594000000E+02  0.51100000000E-03 0. -1.
    9900012    2    1    2    0    0  0.22194168410E+02 -0.18409221193E+02  0.32436752323E+02  0.47787269158E+02  0.19999991398E+02 0.  0.
         12    1    1    2    0    0 -0.22194168410E+02  0.18409221193E+02 -0.32436752323E+02  0.43400730842E+02  0.00000000000E+00 0. -1.
         11    1    3    3    0    0  0.63324987159E+01 -0.60744634585E+01  0.31551520461E+01  0.93249467018E+01  0.51100000000E-03 0.  1.
        -11    1    3    3    0    0  0.17594588992E+02 -0.68676166039E+01  0.19671040355E+02  0.27270561940E+02  0.51100000000E-03 0. -1.
         12    1    3    3    0    0 -0.17329192973E+01 -0.54671411311E+01  0.96105599220E+01  0.11191760516E+02  0.00000000000E+00 0. -1.
</event>
<event>
 7    1  0.2919388E-009  0.4778727E+02  0.7816164E-02  0.1312668E+00
        -11   -1    0    0    0    0  0.00000000000E+00  0.00000000000E+00  0.45593999997E+02  0.45594000000E+02  0.51100000000E-03 0. -1.
         11   -1    0    0    0    0 -0.00000000000E+00 -0.00000000000E+00 -0.45593999997E+02  0.45594000000E+02  0.51100000000E-03 0.  1.
    9900012    2    1    2    0    0 -0.25239341377E+02 -0.31075697847E+02 -0.16760066390E+02  0.47787272182E+02  0.20000005184E+02 0.  0.
         12    1    1    2    0    0  0.25239341377E+02  0.31075697847E+02  0.16760066390E+02  0.43400727818E+02  0.00000000000E+00 0. -1.
         11    1    3    3    0    0 -0.59360699912E+01  0.51058786007E+00 -0.17458251845E+01  0.62085048715E+01  0.51100000000E-03 0. -1.
        -11    1    3    3    0    0 -0.15224194697E+02 -0.14097070425E+02 -0.92565139910E+01  0.22719739221E+02  0.51100000000E-03 0.  1.
         12    1    3    3    0    0 -0.40790766888E+01 -0.17489215281E+02 -0.57577272142E+01  0.18859028089E+02  0.00000000000E+00 0. -1.
</event>
<event>
 7    1  0.2387817E-009  0.4778727E+02  0.7816164E-02  0.1312668E+00
        -11   -1    0    0    0    0  0.00000000000E+00  0.00000000000E+00  0.45593999997E+02  0.45594000000E+02  0.51100000000E-03 0.  1.
         11   -1    0    0    0    0 -0.00000000000E+00 -0.00000000000E+00 -0.45593999997E+02  0.45594000000E+02  0.51100000000E-03 0. -1.
    9900012    2    1    2    0    0 -0.12698454751E+02 -0.78627302571E+01  0.40749848948E+02  0.47787268791E+02  0.19999989726E+02 0.  0.
         12    1    1    2    0    0  0.12698454751E+02  0.78627302571E+01 -0.40749848948E+02  0.43400731209E+02  0.00000000000E+00 0. -1.
         11    1    3    3    0    0  0.87853263164E+00 -0.18508842968E+01  0.68084333230E+01  0.71100180619E+01  0.51100000000E-03 0. -1.
        -11    1    3    3    0    0 -0.11046420167E+02 -0.86167826842E+01  0.34277523192E+02  0.37030000523E+02  0.51100000000E-03 0.  1.
         12    1    3    3    0    0 -0.25305672155E+01  0.26049367239E+01 -0.33610756640E+00  0.36472502058E+01  0.00000000000E+00 0. -1.
</event>
<event>
 7    1  0.2387817E-009  0.4778727E+02  0.7816164E-02  0.1312668E+00
        -11   -1    0    0    0    0  0.00000000000E+00  0.00000000000E+00  0.45593999997E+02  0.45594000000E+02  0.51100000000E-03 0.  1.
         11   -1    0    0    0    0 -0.00000000000E+00 -0.00000000000E+00 -0.45593999997E+02  0.45594000000E+02  0.51100000000E-03 0. -1.
    9900012    2    1    2    0    0  0.38320507870E+02  0.12974732884E+02  0.15710455395E+02  0.47787269297E+02  0.19999992032E+02 0.  0.
         12    1    1    2    0    0 -0.38320507870E+02 -0.12974732884E+02 -0.15710455395E+02  0.43400730703E+02  0.00000000000E+00 0. -1.
         11    1    3    3    0    0  0.21266401155E+02 -0.13229114686E+00  0.70132176936E+01  0.22393359322E+02  0.51100000000E-03 0. -1.
        -11    1    3    3    0    0 -0.56706291190E+00 -0.76379526395E+00  0.16190410493E+01  0.18778279292E+01  0.51100000000E-03 0.  1.
        -12    1    3    3    0    0  0.17621169627E+02  0.13870819295E+02  0.70781966519E+01  0.23516082045E+02  0.00000000000E+00 0.  1.
</event>
<event>
 7    1  0.2387817E-009  0.4778729E+02  0.7816164E-02  0.1312668E+00
        -11   -1    0    0    0    0  0.00000000000E+00  0.00000000000E+00  0.45593999997E+02  0.45594000000E+02  0.51100000000E-03 0.  1.
         11   -1    0    0    0    0 -0.00000000000E+00 -0.00000000000E+00 -0.45593999997E+02  0.45594000000E+02  0.51100000000E-03 0. -1.
    9900012    2    1    2    0    0  0.28615916955E+02 -0.43847536354E+01  0.32334575393E+02  0.47787291096E+02  0.20000091421E+02 0.  0.
         12    1    1    2    0    0 -0.28615916955E+02  0.43847536354E+01 -0.32334575393E+02  0.43400708904E+02  0.00000000000E+00 0. -1.
         11    1    3    3    0    0  0.79299119244E+01 -0.83086218908E+01  0.10263658790E+02  0.15403226703E+02  0.51100000000E-03 0. -1.
        -11    1    3    3    0    0  0.84651452809E+00  0.15452968767E+01  0.73687338973E+01  0.75764614956E+01  0.51100000000E-03 0.  1.
        -12    1    3    3    0    0  0.19839490502E+02  0.23785713787E+01  0.14702182705E+02  0.24807602897E+02  0.00000000000E+00 0.  1.
</event>
<event>
 7    1  0.2387817E-009  0.4778728E+02  0.7816164E-02  0.1312668E+00
        -11   -1    0    0    0    0  0.00000000000E+00  0.00000000000E+00  0.45593999997E+02  0.45594000000E+02  0.51100000000E-03 0. -1.
         11   -1    0    0    0    0 -0.00000000000E+00 -0.00000000000E+00 -0.45593999997E+02  0.45594000000E+02  0.51100000000E-03 0.  1.
    9900012    2    1    2    0    0 -0.35995986450E+02 -0.16041759922E+02 -0.18181687016E+02  0.47787275989E+02  0.20000022543E+02 0.  0.
         12    1    1    2    0    0  0.35995986450E+02  0.16041759922E+02  0.18181687016E+02  0.43400724011E+02  0.00000000000E+00 0. -1.
         11    1    3    3    0    0  0.17548962263E+01 -0.13045389967E+01 -0.12144816189E+01  0.25012893921E+01  0.51100000000E-03 0.  1.
        -11    1    3    3    0    0 -0.26042584804E+01 -0.18999986481E+01  0.15042886672E+01  0.35573925494E+01  0.51100000000E-03 0. -1.
         12    1    3    3    0    0 -0.35146624196E+02 -0.12837222277E+02 -0.18471494064E+02  0.41728594047E+02  0.00000000000E+00 0. -1.
</event>
<event>
 7    1  0.2387817E-009  0.4778727E+02  0.7816164E-02  0.1312668E+00
        -11   -1    0    0    0    0  0.00000000000E+00  0.00000000000E+00  0.45593999997E+02  0.45594000000E+02  0.51100000000E-03 0.  1.
         11   -1    0    0    0    0 -0.00000000000E+00 -0.00000000000E+00 -0.45593999997E+02  0.45594000000E+02  0.51100000000E-03 0. -1.
    9900012    2    1    2    0    0 -0.29805837903E+02  0.53669871985E+01  0.31087472299E+02  0.47787268916E+02  0.19999990295E+02 0.  0.
         12    1    1    2    0    0  0.29805837903E+02 -0.53669871985E+01 -0.31087472299E+02  0.43400731084E+02  0.00000000000E+00 0. -1.
         11    1    3    3    0    0 -0.42506985514E+00  0.57337882153E+01  0.98282311280E+01  0.11386445409E+02  0.51100000000E-03 0. -1.
        -11    1    3    3    0    0 -0.53163747885E+01  0.13325548548E+00  0.24584351128E+01  0.58587969226E+01  0.51100000000E-03 0.  1.
        -12    1    3    3    0    0 -0.24064393259E+02 -0.50005650238E+00  0.18800806059E+02  0.30542026585E+02  0.00000000000E+00 0.  1.
</event>
<event>
 7    1  0.2387817E-009  0.4778727E+02  0.7816164E-02  0.1312668E+00
        -11   -1    0    0    0    0  0.00000000000E+00  0.00000000000E+00  0.45593999997E+02  0.45594000000E+02  0.51100000000E-03 0. -1.
         11   -1    0    0    0    0 -0.00000000000E+00 -0.00000000000E+00 -0.45593999997E+02  0.45594000000E+02  0.51100000000E-03 0.  1.
    9900012    2    1    2    0    0 -0.11201387222E+02 -0.41695370756E+02  0.44326266147E+01  0.47787271932E+02  0.20000004045E+02 0.  0.
         12    1    1    2    0    0  0.11201387222E+02  0.41695370756E+02 -0.44326266147E+01  0.43400728068E+02  0.00000000000E+00 0. -1.
         11    1    3    3    0    0  0.13475616905E+01  0.22337911447E+00  0.30038567102E+01  0.32998448653E+01  0.51100000000E-03 0. -1.
        -11    1    3    3    0    0  0.98118466750E+00 -0.55886476265E+01 -0.29033477866E+00  0.56815491012E+01  0.51100000000E-03 0.  1.
        -12    1    3    3    0    0 -0.13530133580E+02 -0.36330102244E+02  0.17191046832E+01  0.38805877965E+02  0.00000000000E+00 0.  1.
</event>
<event>
 7    1  0.2387817E-009  0.4778727E+02  0.7816164E-02  0.1312668E+00
        -11   -1    0    0    0    0  0.00000000000E+00  0.00000000000E+00  0.45593999997E+02  0.45594000000E+02  0.51100000000E-03 0.  1.
         11   -1    0    0    0    0 -0.00000000000E+00 -0.00000000000E+00 -0.45593999997E+02  0.45594000000E+02  0.51100000000E-03 0. -1.
    9900012    2    1    2    0    0  0.22234259337E+02 -0.30919310329E+02  0.20814828807E+02  0.47787272613E+02  0.20000007151E+02 0.  0.
         12    1    1    2    0    0 -0.22234259337E+02  0.30919310329E+02 -0.20814828807E+02  0.43400727387E+02  0.00000000000E+00 0. -1.
         11    1    3    3    0    0  0.26227115690E+01 -0.62978625501E+00  0.14349315246E+01  0.30552046482E+01  0.51100000000E-03 0. -1.
        -11    1    3    3    0    0  0.22951556306E+02 -0.27589412943E+02  0.16130450501E+02  0.39346423942E+02  0.51100000000E-03 0.  1.
         12    1    3    3    0    0 -0.33400085379E+01 -0.27001111314E+01  0.32494467817E+01  0.53856440230E+01  0.00000000000E+00 0. -1.
</event>
<event>
 7    1  0.2387817E-009  0.4778727E+02  0.7816164E-02  0.1312668E+00
        -11   -1    0    0    0    0  0.00000000000E+00  0.00000000000E+00  0.45593999997E+02  0.45594000000E+02  0.51100000000E-03 0.  1.
         11   -1    0    0    0    0 -0.00000000000E+00 -0.00000000000E+00 -0.45593999997E+02  0.45594000000E+02  0.51100000000E-03 0. -1.
    9900012    2    1    2    0    0  0.20271367867E+02  0.38245845360E+02  0.31543996595E+01  0.47787270977E+02  0.19999999692E+02 0.  0.
         12    1    1    2    0    0 -0.20271367867E+02 -0.38245845360E+02 -0.31543996595E+01  0.43400729023E+02  0.00000000000E+00 0. -1.
         11    1    3    3    0    0 -0.21393368498E+01  0.15597124677E+01  0.33827033341E+01  0.42955962620E+01  0.51100000000E-03 0. -1.
        -11    1    3    3    0    0  0.78505730779E+01  0.99473472709E+01 -0.26616311545E+01  0.12948571197E+02  0.51100000000E-03 0.  1.
        -12    1    3    3    0    0  0.14560131639E+02  0.26738785622E+02  0.24333274799E+01  0.30543103518E+02  0.00000000000E+00 0.  1.
</event>
<event>
 7    1  0.2387817E-009  0.4778727E+02  0.7816164E-02  0.1312668E+00
        -11   -1    0    0    0    0  0.00000000000E+00  0.00000000000E+00  0.45593999997E+02  0.45594000000E+02  0.51100000000E-03 0.  1.
         11   -1    0    0    0    0 -0.00000000000E+00 -0.00000000000E+00 -0.45593999997E+02  0.45594000000E+02  0.51100000000E-03 0. -1.
    9900012    2    1    2    0    0  0.40204039598E+02  0.39347461401E+01  0.15867461782E+02  0.47787269930E+02  0.19999994920E+02 0.  0.
         12    1    1    2    0    0 -0.40204039598E+02 -0.39347461401E+01 -0.15867461782E+02  0.43400730070E+02  0.00000000000E+00 0. -1.
         11    1    3    3    0    0  0.28981506561E+02  0.16436450642E+01  0.94943050392E+01  0.30541301873E+02  0.51100000000E-03 0. -1.
        -11    1    3    3    0    0  0.13503040233E+02  0.14130048580E+01  0.52497187235E+01  0.14556380910E+02  0.51100000000E-03 0.  1.
         12    1    3    3    0    0 -0.22805071962E+01  0.87809621783E+00  0.11234380192E+01  0.26895871472E+01  0.00000000000E+00 0. -1.
</event>
<event>
 7    1  0.2387817E-009  0.4778728E+02  0.7816164E-02  0.1312668E+00
        -11   -1    0    0    0    0  0.00000000000E+00  0.00000000000E+00  0.45593999997E+02  0.45594000000E+02  0.51100000000E-03 0.  1.
         11   -1    0    0    0    0 -0.00000000000E+00 -0.00000000000E+00 -0.45593999997E+02  0.45594000000E+02  0.51100000000E-03 0. -1.
    9900012    2    1    2    0    0 -0.32729006200E+02 -0.20299600188E+02  0.20009017738E+02  0.47787281049E+02  0.20000045615E+02 0.  0.
         12    1    1    2    0    0  0.32729006200E+02  0.20299600188E+02 -0.20009017738E+02  0.43400718951E+02  0.00000000000E+00 0. -1.
         11    1    3    3    0    0  0.61266128711E-01  0.20499656443E+01  0.74538430286E+00  0.21821344371E+01  0.51100000000E-03 0. -1.
        -11    1    3    3    0    0 -0.78311800301E+01 -0.17850424488E+01  0.13791686817E+00  0.80332296451E+01  0.51100000000E-03 0.  1.
        -12    1    3    3    0    0 -0.24959092299E+02 -0.20564523384E+02  0.19125716567E+02  0.37571916967E+02  0.00000000000E+00 0.  1.
</event>
<event>
 7    1  0.2387817E-009  0.4778727E+02  0.7816164E-02  0.1312668E+00
        -11   -1    0    0    0    0  0.00000000000E+00  0.00000000000E+00  0.45593999997E+02  0.45594000000E+02  0.51100000000E-03 0.  1.
         11   -1    0    0    0    0 -0.00000000000E+00 -0.00000000000E+00 -0.45593999997E+02  0.45594000000E+02  0.51100000000E-03 0. -1.
    9900012    2    1    2    0    0 -0.31850344509E+00 -0.37241644425E+02  0.22284114679E+02  0.47787270848E+02  0.19999999103E+02 0.  0.
         12    1    1    2    0    0  0.31850344509E+00  0.37241644425E+02 -0.22284114679E+02  0.43400729152E+02  0.00000000000E+00 0. -1.
         11    1    3    3    0    0 -0.39559556849E+01  0.15485497994E+00  0.26261410515E+01  0.47508086184E+01  0.51100000000E-03 0. -1.
        -11    1    3    3    0    0 -0.61708683489E+00 -0.95314419711E+01  0.19518591014E+01  0.97487915365E+01  0.51100000000E-03 0.  1.
         12    1    3    3    0    0  0.42545390747E+01 -0.27865057434E+02  0.17706114526E+02  0.33287670693E+02  0.00000000000E+00 0. -1.
</event>
<event>
 7    1  0.2387817E-009  0.4778727E+02  0.7816164E-02  0.1312668E+00
        -11   -1    0    0    0    0  0.00000000000E+00  0.00000000000E+00  0.45593999997E+02  0.45594000000E+02  0.51100000000E-03 0.  1.
         11   -1    0    0    0    0 -0.00000000000E+00 -0.00000000000E+00 -0.45593999997E+02  0.45594000000E+02  0.51100000000E-03 0. -1.
    9900012    2    1    2    0    0 -0.55119343272E+01  0.31218301340E+02  0.29642194203E+02  0.47787269179E+02  0.19999991495E+02 0.  0.
         12    1    1    2    0    0  0.55119343272E+01 -0.31218301340E+02 -0.29642194203E+02  0.43400730821E+02  0.00000000000E+00 0. -1.
         11    1    3    3    0    0  0.41232635387E+01  0.37349335050E+01  0.83895664947E+01  0.10066571250E+02  0.51100000000E-03 0. -1.
        -11    1    3    3    0    0  0.12780185965E+01 -0.19809834914E+00  0.16177200426E+01  0.20711332372E+01  0.51100000000E-03 0.  1.
        -12    1    3    3    0    0 -0.10913216462E+02  0.27681466184E+02  0.19634907666E+02  0.35649564692E+02  0.00000000000E+00 0.  1.
</event>
<event>
 7    1  0.2387817E-009  0.4778727E+02  0.7816164E-02  0.1312668E+00
        -11   -1    0    0    0    0  0.00000000000E+00  0.00000000000E+00  0.45593999997E+02  0.45594000000E+02  0.51100000000E-03 0.  1.
         11   -1    0    0    0    0 -0.00000000000E+00 -0.00000000000E+00 -0.45593999997E+02  0.45594000000E+02  0.51100000000E-03 0. -1.
    9900012    2    1    2    0    0 -0.39950843087E+02 -0.13558241636E+01  0.16903105797E+02  0.47787272954E+02  0.20000008708E+02 0.  0.
         12    1    1    2    0    0  0.39950843087E+02  0.13558241636E+01 -0.16903105797E+02  0.43400727046E+02  0.00000000000E+00 0. -1.
         11    1    3    3    0    0 -0.25884625240E+02  0.32876917744E+01  0.11073582799E+02  0.28345140276E+02  0.51100000000E-03 0.  1.
        -11    1    3    3    0    0 -0.13389239783E+02 -0.27689450116E+01  0.85079401006E+01  0.16103535123E+02  0.51100000000E-03 0. -1.
         12    1    3    3    0    0 -0.67697806379E+00 -0.18745709264E+01 -0.26784171026E+01  0.33385975547E+01  0.00000000000E+00 0. -1.
</event>
<event>
 7    1  0.2387817E-009  0.4778727E+02  0.7816164E-02  0.1312668E+00
        -11   -1    0    0    0    0  0.00000000000E+00  0.00000000000E+00  0.45593999997E+02  0.45594000000E+02  0.51100000000E-03 0.  1.
         11   -1    0    0    0    0 -0.00000000000E+00 -0.00000000000E+00 -0.45593999997E+02  0.45594000000E+02  0.51100000000E-03 0. -1.
    9900012    2    1    2    0    0  0.23777828431E+02  0.78154608459E+00  0.36299133095E+02  0.47787274170E+02  0.20000014248E+02 0.  0.
         12    1    1    2    0    0 -0.23777828431E+02 -0.78154608459E+00 -0.36299133095E+02  0.43400725830E+02  0.00000000000E+00 0. -1.
         11    1    3    3    0    0  0.80881547809E+01  0.36316990900E+01  0.45698526473E+01  0.99745195132E+01  0.51100000000E-03 0. -1.
        -11    1    3    3    0    0  0.15059493606E+02 -0.45042268509E+01  0.17699210347E+02  0.23671469206E+02  0.51100000000E-03 0.  1.
        -12    1    3    3    0    0  0.63018004447E+00  0.16540738455E+01  0.14030070100E+02  0.14141285450E+02  0.00000000000E+00 0.  1.
</event>
<event>
 7    1  0.2387817E-009  0.4778727E+02  0.7816164E-02  0.1312668E+00
        -11   -1    0    0    0    0  0.00000000000E+00  0.00000000000E+00  0.45593999997E+02  0.45594000000E+02  0.51100000000E-03 0.  1.
         11   -1    0    0    0    0 -0.00000000000E+00 -0.00000000000E+00 -0.45593999997E+02  0.45594000000E+02  0.51100000000E-03 0. -1.
    9900012    2    1    2    0    0 -0.51638782095E+01 -0.20476276711E+02  0.37916746641E+02  0.47787271643E+02  0.20000002729E+02 0.  0.
         12    1    1    2    0    0  0.51638782095E+01  0.20476276711E+02 -0.37916746641E+02  0.43400728357E+02  0.00000000000E+00 0. -1.
         11    1    3    3    0    0  0.20491081837E+01 -0.29104689870E+01  0.19047703380E+01  0.40370563997E+01  0.51100000000E-03 0. -1.
        -11    1    3    3    0    0  0.98234326373E-02 -0.39313538860E+01 -0.63985167427E+00  0.39830955679E+01  0.51100000000E-03 0.  1.
        -12    1    3    3    0    0 -0.72228098258E+01 -0.13634453838E+02  0.36651827977E+02  0.39767119675E+02  0.00000000000E+00 0.  1.
</event>
<event>
 7    1  0.2387817E-009  0.4778727E+02  0.7816164E-02  0.1312668E+00
        -11   -1    0    0    0    0  0.00000000000E+00  0.00000000000E+00  0.45593999997E+02  0.45594000000E+02  0.51100000000E-03 0.  1.
         11   -1    0    0    0    0 -0.00000000000E+00 -0.00000000000E+00 -0.45593999997E+02  0.45594000000E+02  0.51100000000E-03 0. -1.
    9900012    2    1    2    0    0 -0.12395017722E+02  0.22416002521E+02  0.35035830065E+02  0.47787273950E+02  0.20000013249E+02 0.  0.
         12    1    1    2    0    0  0.12395017722E+02 -0.22416002521E+02 -0.35035830065E+02  0.43400726050E+02  0.00000000000E+00 0. -1.
         11    1    3    3    0    0  0.18745501105E+01  0.45455092809E+01  0.77606460235E+01  0.91871224931E+01  0.51100000000E-03 0.  1.
        -11    1    3    3    0    0 -0.52504944012E+01  0.15501151016E+02  0.10613336747E+02  0.19506314143E+02  0.51100000000E-03 0. -1.
        -12    1    3    3    0    0 -0.90190734310E+01  0.23693422240E+01  0.16661847294E+02  0.19093837314E+02  0.00000000000E+00 0.  1.
</event>
<event>
 7    1  0.2387817E-009  0.4778727E+02  0.7816164E-02  0.1312668E+00
        -11   -1    0    0    0    0  0.00000000000E+00  0.00000000000E+00  0.45593999997E+02  0.45594000000E+02  0.51100000000E-03 0.  1.
         11   -1    0    0    0    0 -0.00000000000E+00 -0.00000000000E+00 -0.45593999997E+02  0.45594000000E+02  0.51100000000E-03 0. -1.
    9900012    2    1    2    0    0 -0.59592384534E+01 -0.11675298268E+02  0.41373880725E+02  0.47787272831E+02  0.20000008146E+02 0.  0.
         12    1    1    2    0    0  0.59592384534E+01  0.11675298268E+02 -0.41373880725E+02  0.43400727169E+02  0.00000000000E+00 0. -1.
         11    1    3    3    0    0  0.53253309998E+01  0.24385050970E+00  0.41526818802E+01  0.67574684896E+01  0.51100000000E-03 0. -1.
        -11    1    3    3    0    0 -0.17115798643E+01 -0.16211725348E+01  0.11275377193E+02  0.11519194292E+02  0.51100000000E-03 0.  1.
         12    1    3    3    0    0 -0.95729895890E+01 -0.10297976242E+02  0.25945821651E+02  0.29510610050E+02  0.00000000000E+00 0. -1.
</event>
<event>
 7    1  0.2387817E-009  0.4778727E+02  0.7816164E-02  0.1312668E+00
        -11   -1    0    0    0    0  0.00000000000E+00  0.00000000000E+00  0.45593999997E+02  0.45594000000E+02  0.51100000000E-03 0.  1.
         11   -1    0    0    0    0 -0.00000000000E+00 -0.00000000000E+00 -0.45593999997E+02  0.45594000000E+02  0.51100000000E-03 0. -1.
    9900012    2    1    2    0    0 -0.23940459169E+02 -0.17798466773E+02  0.31522881508E+02  0.47787273471E+02  0.20000011062E+02 0.  0.
         12    1    1    2    0    0  0.23940459169E+02  0.17798466773E+02 -0.31522881508E+02  0.43400726529E+02  0.00000000000E+00 0. -1.
         11    1    3    3    0    0 -0.17563798169E+01  0.90315218666E+00 -0.64687586453E+00  0.20782210130E+01  0.51100000000E-03 0. -1.
        -11    1    3    3    0    0 -0.60721159585E+01  0.17085061310E+01  0.81829786694E+01  0.10332024273E+02  0.51100000000E-03 0.  1.
        -12    1    3    3    0    0 -0.16111963394E+02 -0.20410125091E+02  0.23986778703E+02  0.35377028185E+02  0.00000000000E+00 0.  1.
</event>
<event>
 7    1  0.2387817E-009  0.4778727E+02  0.7816164E-02  0.1312668E+00
        -11   -1    0    0    0    0  0.00000000000E+00  0.00000000000E+00  0.45593999997E+02  0.45594000000E+02  0.51100000000E-03 0.  1.
         11   -1    0    0    0    0 -0.00000000000E+00 -0.00000000000E+00 -0.45593999997E+02  0.45594000000E+02  0.51100000000E-03 0. -1.
    9900012    2    1    2    0    0 -0.27900989458E+02  0.26198613672E+02  0.20464375833E+02  0.47787271328E+02  0.20000001292E+02 0.  0.
         12    1    1    2    0    0  0.27900989458E+02 -0.26198613672E+02 -0.20464375833E+02  0.43400728672E+02  0.00000000000E+00 0. -1.
         11    1    3    3    0    0  0.21525166662E+01 -0.17205433669E+00  0.23569102812E+01  0.31965539300E+01  0.51100000000E-03 0. -1.
        -11    1    3    3    0    0 -0.40560274846E+01  0.72934212495E+01  0.21793633514E+01  0.86252523069E+01  0.51100000000E-03 0.  1.
         12    1    3    3    0    0 -0.25997478639E+02  0.19077246759E+02  0.15928102200E+02  0.35965465091E+02  0.00000000000E+00 0. -1.
</event>
<event>
 7    1  0.2387817E-009  0.4778724E+02  0.7816164E-02  0.1312668E+00
        -11   -1    0    0    0    0  0.00000000000E+00  0.00000000000E+00  0.45593999997E+02  0.45594000000E+02  0.51100000000E-03 0. -1.
         11   -1    0    0    0    0 -0.00000000000E+00 -0.00000000000E+00 -0.45593999997E+02  0.45594000000E+02  0.51100000000E-03 0.  1.
    9900012    2    1    2    0    0  0.11974552424E+02 -0.10353778119E+02 -0.40410828713E+02  0.47787243044E+02  0.19999872336E+02 0.  0.
         12    1    1    2    0    0 -0.11974552424E+02  0.10353778119E+02  0.40410828713E+02  0.43400756956E+02  0.00000000000E+00 0. -1.
         11    1    3    3    0    0  0.92759914100E+01 -0.23352329204E+01 -0.27963155856E+02  0.29553940771E+02  0.51100000000E-03 0. -1.
        -11    1    3    3    0    0  0.31083166231E+01  0.11663602175E+01 -0.64548518703E+01  0.72585908629E+01  0.51100000000E-03 0.  1.
        -12    1    3    3    0    0 -0.40975560938E+00 -0.91849054161E+01 -0.59928209868E+01  0.10974711410E+02  0.00000000000E+00 0.  1.
</event>
<event>
 7    1  0.2387817E-009  0.4778726E+02  0.7816164E-02  0.1312668E+00
        -11   -1    0    0    0    0  0.00000000000E+00  0.00000000000E+00  0.45593999997E+02  0.45594000000E+02  0.51100000000E-03 0.  1.
         11   -1    0    0    0    0 -0.00000000000E+00 -0.00000000000E+00 -0.45593999997E+02  0.45594000000E+02  0.51100000000E-03 0. -1.
    9900012    2    1    2    0    0 -0.91126245097E+01 -0.47505351220E+01  0.42166535586E+02  0.47787259998E+02  0.19999949635E+02 0.  0.
         12    1    1    2    0    0  0.91126245097E+01  0.47505351220E+01 -0.42166535586E+02  0.43400740002E+02  0.00000000000E+00 0. -1.
         11    1    3    3    0    0  0.30160390377E+01 -0.53659009637E+01  0.13031580983E+02  0.14412199270E+02  0.51100000000E-03 0. -1.
        -11    1    3    3    0    0 -0.21745923135E+01 -0.62377962535E+00 -0.29607412198E+00  0.22815812275E+01  0.51100000000E-03 0.  1.
        -12    1    3    3    0    0 -0.99540712339E+01  0.12391454670E+01  0.29431028725E+02  0.31093479500E+02  0.00000000000E+00 0.  1.
</event>
<event>
 7    1  0.2387817E-009  0.4778727E+02  0.7816164E-02  0.1312668E+00
        -11   -1    0    0    0    0  0.00000000000E+00  0.00000000000E+00  0.45593999997E+02  0.45594000000E+02  0.51100000000E-03 0. -1.
         11   -1    0    0    0    0 -0.00000000000E+00 -0.00000000000E+00 -0.45593999997E+02  0.45594000000E+02  0.51100000000E-03 0.  1.
    9900012    2    1    2    0    0 -0.31175465359E+02  0.23288488817E+02 -0.19218740822E+02  0.47787270161E+02  0.19999995973E+02 0.  0.
         12    1    1    2    0    0  0.31175465359E+02 -0.23288488817E+02  0.19218740822E+02  0.43400729839E+02  0.00000000000E+00 0. -1.
         11    1    3    3    0    0 -0.10975009150E+02  0.29092620466E+01 -0.12470754280E+02  0.16865181412E+02  0.51100000000E-03 0.  1.
        -11    1    3    3    0    0 -0.93863263502E+00 -0.75601208179E+00  0.67125614966E+00  0.13795544828E+01  0.51100000000E-03 0. -1.
        -12    1    3    3    0    0 -0.19261823574E+02  0.21135238852E+02 -0.74192426923E+01  0.29542534266E+02  0.00000000000E+00 0.  1.
</event>
<event>
 7    1  0.2387817E-009  0.4778727E+02  0.7816164E-02  0.1312668E+00
        -11   -1    0    0    0    0  0.00000000000E+00  0.00000000000E+00  0.45593999997E+02  0.45594000000E+02  0.51100000000E-03 0.  1.
         11   -1    0    0    0    0 -0.00000000000E+00 -0.00000000000E+00 -0.45593999997E+02  0.45594000000E+02  0.51100000000E-03 0. -1.
    9900012    2    1    2    0    0 -0.22588070502E+02  0.13498688703E+02  0.34513588758E+02  0.47787270344E+02  0.19999996805E+02 0.  0.
         12    1    1    2    0    0  0.22588070502E+02 -0.13498688703E+02 -0.34513588758E+02  0.43400729656E+02  0.00000000000E+00 0. -1.
         11    1    3    3    0    0 -0.81392315294E+01  0.49615158446E+01  0.12550527387E+02  0.15760059242E+02  0.51100000000E-03 0. -1.
        -11    1    3    3    0    0 -0.11361087816E+02  0.96517777904E+01  0.65751933677E+01  0.16293075185E+02  0.51100000000E-03 0.  1.
         12    1    3    3    0    0 -0.30877511562E+01 -0.11146049315E+01  0.15387868004E+02  0.15734135917E+02  0.00000000000E+00 0. -1.
</event>
<event>
 7    1  0.2387817E-009  0.4778727E+02  0.7816164E-02  0.1312668E+00
        -11   -1    0    0    0    0  0.00000000000E+00  0.00000000000E+00  0.45593999997E+02  0.45594000000E+02  0.51100000000E-03 0.  1.
         11   -1    0    0    0    0 -0.00000000000E+00 -0.00000000000E+00 -0.45593999997E+02  0.45594000000E+02  0.51100000000E-03 0. -1.
    9900012    2    1    2    0    0 -0.37288767736E+02  0.71944522436E+01  0.21009784447E+02  0.47787269765E+02  0.19999994168E+02 0.  0.
         12    1    1    2    0    0  0.37288767736E+02 -0.71944522436E+01 -0.21009784447E+02  0.43400730235E+02  0.00000000000E+00 0. -1.
         11    1    3    3    0    0 -0.79171541373E+01 -0.14069643773E+01  0.54706876130E+01  0.97257031424E+01  0.51100000000E-03 0. -1.
        -11    1    3    3    0    0 -0.27515668722E+02  0.11520101821E+02  0.98695601767E+01  0.31420263995E+02  0.51100000000E-03 0.  1.
        -12    1    3    3    0    0 -0.18559448765E+01 -0.29186851997E+01  0.56695366575E+01  0.66413026276E+01  0.00000000000E+00 0.  1.
</event>
<event>
 7    1  0.2387817E-009  0.4778726E+02  0.7816164E-02  0.1312668E+00
        -11   -1    0    0    0    0  0.00000000000E+00  0.00000000000E+00  0.45593999997E+02  0.45594000000E+02  0.51100000000E-03 0.  1.
         11   -1    0    0    0    0 -0.00000000000E+00 -0.00000000000E+00 -0.45593999997E+02  0.45594000000E+02  0.51100000000E-03 0. -1.
    9900012    2    1    2    0    0 -0.47538129890E+01  0.81008143287E+01  0.42372182968E+02  0.47787264751E+02  0.19999971305E+02 0.  0.
         12    1    1    2    0    0  0.47538129890E+01 -0.81008143287E+01 -0.42372182968E+02  0.43400735249E+02  0.00000000000E+00 0. -1.
         11    1    3    3    0    0 -0.25554127973E+01  0.17616500158E+01  0.84094831811E+01  0.89639808666E+01  0.51100000000E-03 0. -1.
        -11    1    3    3    0    0 -0.48437567117E+01 -0.47917181539E+01  0.17462721672E+02  0.18744844369E+02  0.51100000000E-03 0.  1.
         12    1    3    3    0    0  0.26453565200E+01  0.11130882467E+02  0.16499978114E+02  0.20078439516E+02  0.00000000000E+00 0. -1.
</event>
<event>
 7    1  0.2387817E-009  0.4778727E+02  0.7816164E-02  0.1312668E+00
        -11   -1    0    0    0    0  0.00000000000E+00  0.00000000000E+00  0.45593999997E+02  0.45594000000E+02  0.51100000000E-03 0.  1.
         11   -1    0    0    0    0 -0.00000000000E+00 -0.00000000000E+00 -0.45593999997E+02  0.45594000000E+02  0.51100000000E-03 0. -1.
    9900012    2    1    2    0    0  0.12305645072E+02 -0.37031038003E+02  0.18997274465E+02  0.47787272894E+02  0.20000008433E+02 0.  0.
         12    1    1    2    0    0 -0.12305645072E+02  0.37031038003E+02 -0.18997274465E+02  0.43400727106E+02  0.00000000000E+00 0. -1.
         11    1    3    3    0    0  0.61060108881E+01 -0.31473810127E+01  0.34576136029E+01  0.76905440830E+01  0.51100000000E-03 0. -1.
        -11    1    3    3    0    0  0.78226106689E+01 -0.14368034496E+02  0.24502735476E+01  0.16541991829E+02  0.51100000000E-03 0.  1.
        -12    1    3    3    0    0 -0.16229764850E+01 -0.19515622495E+02  0.13089387315E+02  0.23554736982E+02  0.00000000000E+00 0.  1.
</event>
<event>
 7    1  0.2387817E-009  0.4778727E+02  0.7816164E-02  0.1312668E+00
        -11   -1    0    0    0    0  0.00000000000E+00  0.00000000000E+00  0.45593999997E+02  0.45594000000E+02  0.51100000000E-03 0.  1.
         11   -1    0    0    0    0 -0.00000000000E+00 -0.00000000000E+00 -0.45593999997E+02  0.45594000000E+02  0.51100000000E-03 0. -1.
    9900012    2    1    2    0    0 -0.28849731938E+02 -0.32397966088E+02  0.12991952759E+01  0.47787272496E+02  0.20000006618E+02 0.  0.
         12    1    1    2    0    0  0.28849731938E+02  0.32397966088E+02 -0.12991952759E+01  0.43400727504E+02  0.00000000000E+00 0. -1.
         11    1    3    3    0    0 -0.15624263609E+02 -0.17240343601E+02 -0.39897037064E+01  0.23606456675E+02  0.51100000000E-03 0. -1.
        -11    1    3    3    0    0 -0.81829373961E+01 -0.15163894885E+02  0.51751228308E+00  0.17238677203E+02  0.51100000000E-03 0.  1.
         12    1    3    3    0    0 -0.50425309326E+01  0.62723981834E-02  0.47713866992E+01  0.69421386174E+01  0.00000000000E+00 0. -1.
</event>
<event>
 7    1  0.2387817E-009  0.4778728E+02  0.7816164E-02  0.1312668E+00
        -11   -1    0    0    0    0  0.00000000000E+00  0.00000000000E+00  0.45593999997E+02  0.45594000000E+02  0.51100000000E-03 0. -1.
         11   -1    0    0    0    0 -0.00000000000E+00 -0.00000000000E+00 -0.45593999997E+02  0.45594000000E+02  0.51100000000E-03 0.  1.
    9900012    2    1    2    0    0 -0.29124516230E+02 -0.30160074189E+02 -0.11214063379E+02  0.47787277216E+02  0.20000028137E+02 0.  0.
         12    1    1    2    0    0  0.29124516230E+02  0.30160074189E+02  0.11214063379E+02  0.43400722784E+02  0.00000000000E+00 0. -1.
         11    1    3    3    0    0 -0.10468288102E+02 -0.19819837834E+01 -0.35709611341E+01  0.11236773522E+02  0.51100000000E-03 0. -1.
        -11    1    3    3    0    0 -0.59108373525E+00 -0.55801774277E+01 -0.49702667317E+01  0.74960864291E+01  0.51100000000E-03 0.  1.
         12    1    3    3    0    0 -0.18065144393E+02 -0.22597912978E+02 -0.26728355133E+01  0.29054417264E+02  0.00000000000E+00 0. -1.
</event>
<event>
 7    1  0.2387817E-009  0.4778727E+02  0.7816164E-02  0.1312668E+00
        -11   -1    0    0    0    0  0.00000000000E+00  0.00000000000E+00  0.45593999997E+02  0.45594000000E+02  0.51100000000E-03 0. -1.
         11   -1    0    0    0    0 -0.00000000000E+00 -0.00000000000E+00 -0.45593999997E+02  0.45594000000E+02  0.51100000000E-03 0.  1.
    9900012    2    1    2    0    0  0.95230415285E+00  0.43144633902E+02  0.46105231078E+01  0.47787271422E+02  0.20000001724E+02 0.  0.
         12    1    1    2    0    0 -0.95230415285E+00 -0.43144633902E+02 -0.46105231078E+01  0.43400728578E+02  0.00000000000E+00 0. -1.
         11    1    3    3    0    0 -0.13727283135E+01  0.76252136793E+01  0.68504374770E+01  0.10341990165E+02  0.51100000000E-03 0. -1.
        -11    1    3    3    0    0 -0.42460166054E+01  0.20739389472E+02 -0.48136170088E+00  0.21175047628E+02  0.51100000000E-03 0.  1.
         12    1    3    3    0    0  0.65710490717E+01  0.14780030751E+02 -0.17585526684E+01  0.16270233630E+02  0.00000000000E+00 0. -1.
</event>
<event>
 7    1  0.2387817E-009  0.4778727E+02  0.7816164E-02  0.1312668E+00
        -11   -1    0    0    0    0  0.00000000000E+00  0.00000000000E+00  0.45593999997E+02  0.45594000000E+02  0.51100000000E-03 0.  1.
         11   -1    0    0    0    0 -0.00000000000E+00 -0.00000000000E+00 -0.45593999997E+02  0.45594000000E+02  0.51100000000E-03 0. -1.
    9900012    2    1    2    0    0 -0.17875408361E+02 -0.18063283754E+01  0.39507340202E+02  0.47787274475E+02  0.20000015641E+02 0.  0.
         12    1    1    2    0    0  0.17875408361E+02  0.18063283754E+01 -0.39507340202E+02  0.43400725525E+02  0.00000000000E+00 0. -1.
         11    1    3    3    0    0 -0.16118110936E+00 -0.41285158593E+01  0.91727379117E+01  0.10060305344E+02  0.51100000000E-03 0. -1.
        -11    1    3    3    0    0 -0.14063017762E+02 -0.30343575066E+01  0.26611256141E+02  0.30251194153E+02  0.51100000000E-03 0.  1.
         12    1    3    3    0    0 -0.36512094896E+01  0.53565449905E+01  0.37233461496E+01  0.74757749780E+01  0.00000000000E+00 0. -1.
</event>
<event>
 7    1  0.2387817E-009  0.4778727E+02  0.7816164E-02  0.1312668E+00
        -11   -1    0    0    0    0  0.00000000000E+00  0.00000000000E+00  0.45593999997E+02  0.45594000000E+02  0.51100000000E-03 0.  1.
         11   -1    0    0    0    0 -0.00000000000E+00 -0.00000000000E+00 -0.45593999997E+02  0.45594000000E+02  0.51100000000E-03 0. -1.
    9900012    2    1    2    0    0  0.24314163535E+02  0.21074957717E+02  0.29125434886E+02  0.47787270186E+02  0.19999996084E+02 0.  0.
         12    1    1    2    0    0 -0.24314163535E+02 -0.21074957717E+02 -0.29125434886E+02  0.43400729814E+02  0.00000000000E+00 0. -1.
         11    1    3    3    0    0  0.74719790829E+01  0.66817329803E+01  0.87331040481E+01  0.13294477561E+02  0.51100000000E-03 0.  1.
        -11    1    3    3    0    0  0.67323132847E+01 -0.32238824255E+01  0.46456353109E+01  0.87920070382E+01  0.51100000000E-03 0. -1.
         12    1    3    3    0    0  0.10109871167E+02  0.17617107162E+02  0.15746695527E+02  0.25700785587E+02  0.00000000000E+00 0. -1.
</event>
<event>
 7    1  0.2387817E-009  0.4778726E+02  0.7816164E-02  0.1312668E+00
        -11   -1    0    0    0    0  0.00000000000E+00  0.00000000000E+00  0.45593999997E+02  0.45594000000E+02  0.51100000000E-03 0.  1.
         11   -1    0    0    0    0 -0.00000000000E+00 -0.00000000000E+00 -0.45593999997E+02  0.45594000000E+02  0.51100000000E-03 0. -1.
    9900012    2    1    2    0    0  0.21531446986E+02  0.37452331977E+02  0.41645618904E+01  0.47787263191E+02  0.19999964195E+02 0.  0.
         12    1    1    2    0    0 -0.21531446986E+02 -0.37452331977E+02 -0.41645618904E+01  0.43400736809E+02  0.00000000000E+00 0. -1.
         11    1    3    3    0    0  0.60760862636E+01  0.21246836904E+01  0.32535814645E+01  0.72124127499E+01  0.51100000000E-03 0. -1.
        -11    1    3    3    0    0  0.11973441954E+02  0.19300468033E+02  0.58354631703E+01  0.23450458614E+02  0.51100000000E-03 0.  1.
         12    1    3    3    0    0  0.34819187682E+01  0.16027180253E+02 -0.49244827444E+01  0.17124391828E+02  0.00000000000E+00 0. -1.
</event>
<event>
 7    1  0.2387817E-009  0.4778728E+02  0.7816164E-02  0.1312668E+00
        -11   -1    0    0    0    0  0.00000000000E+00  0.00000000000E+00  0.45593999997E+02  0.45594000000E+02  0.51100000000E-03 0.  1.
         11   -1    0    0    0    0 -0.00000000000E+00 -0.00000000000E+00 -0.45593999997E+02  0.45594000000E+02  0.51100000000E-03 0. -1.
    9900012    2    1    2    0    0 -0.34635016257E+02  0.10651214891E+02  0.23887017987E+02  0.47787281595E+02  0.20000048103E+02 0.  0.
         12    1    1    2    0    0  0.34635016257E+02 -0.10651214891E+02 -0.23887017987E+02  0.43400718405E+02  0.00000000000E+00 0. -1.
         11    1    3    3    0    0 -0.15125689673E+01  0.95015586981E+00 -0.20448604782E+01  0.27151640271E+01  0.51100000000E-03 0. -1.
        -11    1    3    3    0    0 -0.21006499452E+02  0.71671947908E+01  0.86652591641E+01  0.23827052210E+02  0.51100000000E-03 0.  1.
         12    1    3    3    0    0 -0.12115947838E+02  0.25338642308E+01  0.17266619301E+02  0.21245065357E+02  0.00000000000E+00 0. -1.
</event>
<event>
 7    1  0.2387817E-009  0.4778727E+02  0.7816164E-02  0.1312668E+00
        -11   -1    0    0    0    0  0.00000000000E+00  0.00000000000E+00  0.45593999997E+02  0.45594000000E+02  0.51100000000E-03 0. -1.
         11   -1    0    0    0    0 -0.00000000000E+00 -0.00000000000E+00 -0.45593999997E+02  0.45594000000E+02  0.51100000000E-03 0.  1.
    9900012    2    1    2    0    0 -0.12596809268E+02  0.20497619620E+02 -0.36121896005E+02  0.47787269767E+02  0.19999994175E+02 0.  0.
         12    1    1    2    0    0  0.12596809268E+02 -0.20497619620E+02  0.36121896005E+02  0.43400730233E+02  0.00000000000E+00 0. -1.
         11    1    3    3    0    0 -0.13303024511E+01  0.10663557993E+02 -0.11420493280E+02  0.15681480820E+02  0.51100000000E-03 0.  1.
        -11    1    3    3    0    0  0.30074706547E+01  0.39168210678E+01 -0.45736850678E+01  0.67308961050E+01  0.51100000000E-03 0. -1.
        -12    1    3    3    0    0 -0.14273977471E+02  0.59172405588E+01 -0.20127717657E+02  0.25374892842E+02  0.00000000000E+00 0.  1.
</event>
<event>
 7    1  0.2387817E-009  0.4778726E+02  0.7816164E-02  0.1312668E+00
        -11   -1    0    0    0    0  0.00000000000E+00  0.00000000000E+00  0.45593999997E+02  0.45594000000E+02  0.51100000000E-03 0. -1.
         11   -1    0    0    0    0 -0.00000000000E+00 -0.00000000000E+00 -0.45593999997E+02  0.45594000000E+02  0.51100000000E-03 0.  1.
    9900012    2    1    2    0    0  0.12136783620E+02  0.25667021712E+02 -0.32825696188E+02  0.47787264402E+02  0.19999969716E+02 0.  0.
         12    1    1    2    0    0 -0.12136783620E+02 -0.25667021712E+02  0.32825696188E+02  0.43400735598E+02  0.00000000000E+00 0. -1.
         11    1    3    3    0    0 -0.19400051584E+01  0.33852221574E+01 -0.25861105429E+00  0.39102722422E+01  0.51100000000E-03 0. -1.
        -11    1    3    3    0    0  0.72950054905E+01  0.61325228608E+01 -0.39314493615E+01  0.10309279126E+02  0.51100000000E-03 0.  1.
         12    1    3    3    0    0  0.67817832876E+01  0.16149276694E+02 -0.28635635772E+02  0.33567713035E+02  0.00000000000E+00 0. -1.
</event>
<event>
 7    1  0.2387817E-009  0.4778727E+02  0.7816164E-02  0.1312668E+00
        -11   -1    0    0    0    0  0.00000000000E+00  0.00000000000E+00  0.45593999997E+02  0.45594000000E+02  0.51100000000E-03 0.  1.
         11   -1    0    0    0    0 -0.00000000000E+00 -0.00000000000E+00 -0.45593999997E+02  0.45594000000E+02  0.51100000000E-03 0. -1.
    9900012    2    1    2    0    0  0.23231605010E+02  0.33103943316E+02  0.15749447360E+02  0.47787266982E+02  0.19999981476E+02 0.  0.
         12    1    1    2    0    0 -0.23231605010E+02 -0.33103943316E+02 -0.15749447360E+02  0.43400733018E+02  0.00000000000E+00 0. -1.
         11    1    3    3    0    0  0.12132707626E+02  0.28004554644E+02  0.11708892153E+02  0.32688772244E+02  0.51100000000E-03 0. -1.
        -11    1    3    3    0    0  0.49021288550E+01  0.49087855353E+01 -0.11260674337E+01  0.70281626951E+01  0.51100000000E-03 0.  1.
         12    1    3    3    0    0  0.61967685289E+01  0.19060313634E+00  0.51666226409E+01  0.80703320421E+01  0.00000000000E+00 0. -1.
</event>
<event>
 7    1  0.2387817E-009  0.4778727E+02  0.7816164E-02  0.1312668E+00
        -11   -1    0    0    0    0  0.00000000000E+00  0.00000000000E+00  0.45593999997E+02  0.45594000000E+02  0.51100000000E-03 0.  1.
         11   -1    0    0    0    0 -0.00000000000E+00 -0.00000000000E+00 -0.45593999997E+02  0.45594000000E+02  0.51100000000E-03 0. -1.
    9900012    2    1    2    0    0 -0.37800548012E+02 -0.65333257930E+01  0.20299198979E+02  0.47787271261E+02  0.20000000986E+02 0.  0.
         12    1    1    2    0    0  0.37800548012E+02  0.65333257930E+01 -0.20299198979E+02  0.43400728739E+02  0.00000000000E+00 0. -1.
         11    1    3    3    0    0 -0.47513014601E+01  0.26630665802E+01  0.58917099658E+01  0.80236547631E+01  0.51100000000E-03 0. -1.
        -11    1    3    3    0    0 -0.21101661999E+02 -0.19436897307E+01  0.14688906750E+02  0.25784143396E+02  0.51100000000E-03 0.  1.
        -12    1    3    3    0    0 -0.11947584552E+02 -0.72527026425E+01 -0.28141773661E+00  0.13979473102E+02  0.00000000000E+00 0.  1.
</event>
<event>
 7    1  0.2387817E-009  0.4778727E+02  0.7816164E-02  0.1312668E+00
        -11   -1    0    0    0    0  0.00000000000E+00  0.00000000000E+00  0.45593999997E+02  0.45594000000E+02  0.51100000000E-03 0. -1.
         11   -1    0    0    0    0 -0.00000000000E+00 -0.00000000000E+00 -0.45593999997E+02  0.45594000000E+02  0.51100000000E-03 0.  1.
    9900012    2    1    2    0    0  0.20807608702E+02  0.48861397369E+01 -0.37772905582E+02  0.47787270312E+02  0.19999996659E+02 0.  0.
         12    1    1    2    0    0 -0.20807608702E+02 -0.48861397369E+01  0.37772905582E+02  0.43400729688E+02  0.00000000000E+00 0. -1.
         11    1    3    3    0    0 -0.15927707127E-01 -0.35822935635E+01 -0.16308559354E+01  0.39360858997E+01  0.51100000000E-03 0. -1.
        -11    1    3    3    0    0  0.30114653404E+01  0.51812070534E+01 -0.14107219908E+02  0.15327344317E+02  0.51100000000E-03 0.  1.
        -12    1    3    3    0    0  0.17812071069E+02  0.32872262469E+01 -0.22034829738E+02  0.28523840094E+02  0.00000000000E+00 0.  1.
</event>
<event>
 7    1  0.2387817E-009  0.4778727E+02  0.7816164E-02  0.1312668E+00
        -11   -1    0    0    0    0  0.00000000000E+00  0.00000000000E+00  0.45593999997E+02  0.45594000000E+02  0.51100000000E-03 0.  1.
         11   -1    0    0    0    0 -0.00000000000E+00 -0.00000000000E+00 -0.45593999997E+02  0.45594000000E+02  0.51100000000E-03 0. -1.
    9900012    2    1    2    0    0  0.32559253362E+01  0.41939710379E+02  0.10680952885E+02  0.47787272920E+02  0.20000008553E+02 0.  0.
         12    1    1    2    0    0 -0.32559253362E+01 -0.41939710379E+02 -0.10680952885E+02  0.43400727080E+02  0.00000000000E+00 0. -1.
         11    1    3    3    0    0 -0.35031864466E+01  0.14602190249E+01 -0.10839405509E+00  0.37968808794E+01  0.51100000000E-03 0. -1.
        -11    1    3    3    0    0 -0.12893022127E+01  0.86561763653E+01 -0.16151920608E+01  0.88994682491E+01  0.51100000000E-03 0.  1.
        -12    1    3    3    0    0  0.80484139954E+01  0.31823314989E+02  0.12404539001E+02  0.35090923792E+02  0.00000000000E+00 0.  1.
</event>
<event>
 7    1  0.2387817E-009  0.4778727E+02  0.7816164E-02  0.1312668E+00
        -11   -1    0    0    0    0  0.00000000000E+00  0.00000000000E+00  0.45593999997E+02  0.45594000000E+02  0.51100000000E-03 0.  1.
         11   -1    0    0    0    0 -0.00000000000E+00 -0.00000000000E+00 -0.45593999997E+02  0.45594000000E+02  0.51100000000E-03 0. -1.
    9900012    2    1    2    0    0 -0.28350122329E+02  0.30044293995E+02  0.13312940120E+02  0.47787269449E+02  0.19999992725E+02 0.  0.
         12    1    1    2    0    0  0.28350122329E+02 -0.30044293995E+02 -0.13312940120E+02  0.43400730551E+02  0.00000000000E+00 0. -1.
         11    1    3    3    0    0 -0.28908505539E+01  0.43605416436E-01  0.99882114780E+00  0.30588498335E+01  0.51100000000E-03 0. -1.
        -11    1    3    3    0    0 -0.80617333155E+01  0.19312983077E+02  0.12369400267E+02  0.24310181460E+02  0.51100000000E-03 0.  1.
        -12    1    3    3    0    0 -0.17397538460E+02  0.10687705502E+02 -0.55281295006E-01  0.20418238156E+02  0.00000000000E+00 0.  1.
</event>
<event>
 7    1  0.2387817E-009  0.4778727E+02  0.7816164E-02  0.1312668E+00
        -11   -1    0    0    0    0  0.00000000000E+00  0.00000000000E+00  0.45593999997E+02  0.45594000000E+02  0.51100000000E-03 0.  1.
         11   -1    0    0    0    0 -0.00000000000E+00 -0.00000000000E+00 -0.45593999997E+02  0.45594000000E+02  0.51100000000E-03 0. -1.
    9900012    2    1    2    0    0  0.24668642087E+02 -0.68513534394E+01  0.35044829932E+02  0.47787273608E+02  0.20000011689E+02 0.  0.
         12    1    1    2    0    0 -0.24668642087E+02  0.68513534394E+01 -0.35044829932E+02  0.43400726392E+02  0.00000000000E+00 0. -1.
         11    1    3    3    0    0  0.53093480649E+01 -0.31957426961E+01  0.96196189534E+01  0.11442858792E+02  0.51100000000E-03 0. -1.
        -11    1    3    3    0    0  0.14545982896E+02 -0.85540962621E+01  0.23986748836E+02  0.29327841742E+02  0.51100000000E-03 0.  1.
         12    1    3    3    0    0  0.48133111263E+01  0.48984855188E+01  0.14384621427E+01  0.70165730747E+01  0.00000000000E+00 0. -1.
</event>
<event>
 7    1  0.2387817E-009  0.4778727E+02  0.7816164E-02  0.1312668E+00
        -11   -1    0    0    0    0  0.00000000000E+00  0.00000000000E+00  0.45593999997E+02  0.45594000000E+02  0.51100000000E-03 0.  1.
         11   -1    0    0    0    0 -0.00000000000E+00 -0.00000000000E+00 -0.45593999997E+02  0.45594000000E+02  0.51100000000E-03 0. -1.
    9900012    2    1    2    0    0 -0.27584129802E+02 -0.10978255362E+02  0.31657805602E+02  0.47787274623E+02  0.20000016318E+02 0.  0.
         12    1    1    2    0    0  0.27584129802E+02  0.10978255362E+02 -0.31657805602E+02  0.43400725377E+02  0.00000000000E+00 0. -1.
         11    1    3    3    0    0  0.10916364442E+01 -0.36710409154E+01  0.20307281669E+01  0.43349819697E+01  0.51100000000E-03 0. -1.
        -11    1    3    3    0    0 -0.13880190822E+02  0.10593931679E+01  0.84000673463E+01  0.16258632871E+02  0.51100000000E-03 0.  1.
        -12    1    3    3    0    0 -0.14795575424E+02 -0.83666076144E+01  0.21227010088E+02  0.27193659783E+02  0.00000000000E+00 0.  1.
</event>
<event>
 7    1  0.2387817E-009  0.4778729E+02  0.7816164E-02  0.1312668E+00
        -11   -1    0    0    0    0  0.00000000000E+00  0.00000000000E+00  0.45593999997E+02  0.45594000000E+02  0.51100000000E-03 0.  1.
         11   -1    0    0    0    0 -0.00000000000E+00 -0.00000000000E+00 -0.45593999997E+02  0.45594000000E+02  0.51100000000E-03 0. -1.
    9900012    2    1    2    0    0  0.32642716280E+02  0.10415051923E+01  0.28583037154E+02  0.47787289497E+02  0.20000084133E+02 0.  0.
         12    1    1    2    0    0 -0.32642716280E+02 -0.10415051923E+01 -0.28583037154E+02  0.43400710503E+02  0.00000000000E+00 0. -1.
         11    1    3    3    0    0  0.32353630078E+01  0.37174533484E+01  0.72796125088E+00  0.49816624769E+01  0.51100000000E-03 0. -1.
        -11    1    3    3    0    0  0.87530289293E+01  0.27570614428E+01  0.15825496992E+02  0.18293803829E+02  0.51100000000E-03 0.  1.
         12    1    3    3    0    0  0.20654324343E+02 -0.54330095989E+01  0.12029578911E+02  0.24511823191E+02  0.00000000000E+00 0. -1.
</event>
<event>
 7    1  0.2387817E-009  0.4778727E+02  0.7816164E-02  0.1312668E+00
        -11   -1    0    0    0    0  0.00000000000E+00  0.00000000000E+00  0.45593999997E+02  0.45594000000E+02  0.51100000000E-03 0. -1.
         11   -1    0    0    0    0 -0.00000000000E+00 -0.00000000000E+00 -0.45593999997E+02  0.45594000000E+02  0.51100000000E-03 0.  1.
    9900012    2    1    2    0    0 -0.23761729541E+02  0.30862949456E+02  0.19143716564E+02  0.47787270469E+02  0.19999997377E+02 0.  0.
         12    1    1    2    0    0  0.23761729541E+02 -0.30862949456E+02 -0.19143716564E+02  0.43400729531E+02  0.00000000000E+00 0. -1.
         11    1    3    3    0    0 -0.39765740605E+01  0.13312185640E+02  0.60940926787E+01  0.15171202774E+02  0.51100000000E-03 0. -1.
        -11    1    3    3    0    0 -0.11263377071E+02  0.11282714871E+02  0.14964449422E+02  0.21865453681E+02  0.51100000000E-03 0.  1.
         12    1    3    3    0    0 -0.85217784098E+01  0.62680489454E+01 -0.19148255371E+01  0.10750614014E+02  0.00000000000E+00 0. -1.
</event>
<event>
 7    1  0.2387817E-009  0.4778728E+02  0.7816164E-02  0.1312668E+00
        -11   -1    0    0    0    0  0.00000000000E+00  0.00000000000E+00  0.45593999997E+02  0.45594000000E+02  0.51100000000E-03 0. -1.
         11   -1    0    0    0    0 -0.00000000000E+00 -0.00000000000E+00 -0.45593999997E+02  0.45594000000E+02  0.51100000000E-03 0.  1.
    9900012    2    1    2    0    0 -0.29719247776E+02  0.10363326214E+02 -0.29882937982E+02  0.47787283404E+02  0.20000056352E+02 0.  0.
         12    1    1    2    0    0  0.29719247776E+02 -0.10363326214E+02  0.29882937982E+02  0.43400716596E+02  0.00000000000E+00 0. -1.
         11    1    3    3    0    0 -0.15470534519E+02  0.10220843846E+02 -0.21121945305E+02  0.28105865242E+02  0.51100000000E-03 0.  1.
        -11    1    3    3    0    0 -0.12670600588E+02  0.41281300221E+01 -0.69257948593E+01  0.15018395768E+02  0.51100000000E-03 0. -1.
         12    1    3    3    0    0 -0.15781126686E+01 -0.39856476543E+01 -0.18351978179E+01  0.46630223943E+01  0.00000000000E+00 0. -1.
</event>
<event>
 7    1  0.2387817E-009  0.4778723E+02  0.7816164E-02  0.1312668E+00
        -11   -1    0    0    0    0  0.00000000000E+00  0.00000000000E+00  0.45593999997E+02  0.45594000000E+02  0.51100000000E-03 0. -1.
         11   -1    0    0    0    0 -0.00000000000E+00 -0.00000000000E+00 -0.45593999997E+02  0.45594000000E+02  0.51100000000E-03 0.  1.
    9900012    2    1    2    0    0  0.37319960280E+02 -0.22491628311E+01 -0.22040611659E+02  0.47787231216E+02  0.19999818406E+02 0.  0.
         12    1    1    2    0    0 -0.37319960280E+02  0.22491628311E+01  0.22040611659E+02  0.43400768784E+02  0.00000000000E+00 0. -1.
         11    1    3    3    0    0 -0.87763956694E+00 -0.31434804173E+01 -0.64235524677E+00  0.33263103986E+01  0.51100000000E-03 0. -1.
        -11    1    3    3    0    0  0.28494477528E+01 -0.52620555510E+00  0.37342695834E+00  0.29215907887E+01  0.51100000000E-03 0.  1.
        -12    1    3    3    0    0  0.35348152094E+02  0.14205231414E+01 -0.21771683370E+02  0.41539330029E+02  0.00000000000E+00 0.  1.
</event>
<event>
 7    1  0.2387817E-009  0.4778730E+02  0.7816164E-02  0.1312668E+00
        -11   -1    0    0    0    0  0.00000000000E+00  0.00000000000E+00  0.45593999997E+02  0.45594000000E+02  0.51100000000E-03 0. -1.
         11   -1    0    0    0    0 -0.00000000000E+00 -0.00000000000E+00 -0.45593999997E+02  0.45594000000E+02  0.51100000000E-03 0.  1.
    9900012    2    1    2    0    0  0.73051651624E+01  0.20497765868E+02 -0.37551260358E+02  0.47787297262E+02  0.20000119537E+02 0.  0.
         12    1    1    2    0    0 -0.73051651624E+01 -0.20497765868E+02  0.37551260358E+02  0.43400702738E+02  0.00000000000E+00 0. -1.
         11    1    3    3    0    0 -0.33074382029E+01  0.30988999479E+01 -0.66637914566E+01  0.80590598206E+01  0.51100000000E-03 0.  1.
        -11    1    3    3    0    0  0.11411918129E+02  0.95704664950E+01 -0.27259818708E+02  0.31063216520E+02  0.51100000000E-03 0. -1.
         12    1    3    3    0    0 -0.79931476378E+00  0.78283994248E+01 -0.36276501941E+01  0.86650209219E+01  0.00000000000E+00 0. -1.
</event>
<event>
 7    1  0.2387817E-009  0.4778727E+02  0.7816164E-02  0.1312668E+00
        -11   -1    0    0    0    0  0.00000000000E+00  0.00000000000E+00  0.45593999997E+02  0.45594000000E+02  0.51100000000E-03 0. -1.
         11   -1    0    0    0    0 -0.00000000000E+00 -0.00000000000E+00 -0.45593999997E+02  0.45594000000E+02  0.51100000000E-03 0.  1.
    9900012    2    1    2    0    0  0.17267213242E+02 -0.39540846013E+02 -0.46891364394E+01  0.47787272389E+02  0.20000006132E+02 0.  0.
         12    1    1    2    0    0 -0.17267213242E+02  0.39540846013E+02  0.46891364394E+01  0.43400727611E+02  0.00000000000E+00 0. -1.
         11    1    3    3    0    0 -0.11481070893E+01 -0.15550584135E+01 -0.19229501866E+01  0.27265535460E+01  0.51100000000E-03 0. -1.
        -11    1    3    3    0    0  0.37503667998E+00 -0.82952692145E+01  0.46776323299E+01  0.95306027263E+01  0.51100000000E-03 0.  1.
        -12    1    3    3    0    0  0.18040283652E+02 -0.29690518385E+02 -0.74438185827E+01  0.35530116117E+02  0.00000000000E+00 0.  1.
</event>
<event>
 7    1  0.2387817E-009  0.4778727E+02  0.7816164E-02  0.1312668E+00
        -11   -1    0    0    0    0  0.00000000000E+00  0.00000000000E+00  0.45593999997E+02  0.45594000000E+02  0.51100000000E-03 0.  1.
         11   -1    0    0    0    0 -0.00000000000E+00 -0.00000000000E+00 -0.45593999997E+02  0.45594000000E+02  0.51100000000E-03 0. -1.
    9900012    2    1    2    0    0 -0.41396481568E+01  0.42353895747E+02  0.85225547562E+01  0.47787272917E+02  0.20000008536E+02 0.  0.
         12    1    1    2    0    0  0.41396481568E+01 -0.42353895747E+02 -0.85225547562E+01  0.43400727083E+02  0.00000000000E+00 0. -1.
         11    1    3    3    0    0 -0.29831812354E+01  0.31459651962E+02  0.42977782836E+01  0.31891691242E+02  0.51100000000E-03 0. -1.
        -11    1    3    3    0    0 -0.16392834628E+01  0.12578104665E+02  0.54000881680E+01  0.13786113292E+02  0.51100000000E-03 0.  1.
        -12    1    3    3    0    0  0.48281654140E+00 -0.16838608795E+01 -0.11753116954E+01  0.21094683822E+01  0.00000000000E+00 0.  1.
</event>
<event>
 7    1  0.2387817E-009  0.4778727E+02  0.7816164E-02  0.1312668E+00
        -11   -1    0    0    0    0  0.00000000000E+00  0.00000000000E+00  0.45593999997E+02  0.45594000000E+02  0.51100000000E-03 0.  1.
         11   -1    0    0    0    0 -0.00000000000E+00 -0.00000000000E+00 -0.45593999997E+02  0.45594000000E+02  0.51100000000E-03 0. -1.
    9900012    2    1    2    0    0  0.34390263874E+02 -0.88802717411E+01  0.24941413205E+02  0.47787267654E+02  0.19999984544E+02 0.  0.
         12    1    1    2    0    0 -0.34390263874E+02  0.88802717411E+01 -0.24941413205E+02  0.43400732346E+02  0.00000000000E+00 0. -1.
         11    1    3    3    0    0  0.18783923859E+01  0.79379097835E+00  0.82911619925E+01  0.85382568197E+01  0.51100000000E-03 0. -1.
        -11    1    3    3    0    0  0.18152228249E+02 -0.30367532246E+01  0.14189558923E+02  0.23239381301E+02  0.51100000000E-03 0.  1.
         12    1    3    3    0    0  0.14359643239E+02 -0.66373094948E+01  0.24606922890E+01  0.16009629534E+02  0.00000000000E+00 0. -1.
</event>
<event>
 7    1  0.2387817E-009  0.4778727E+02  0.7816164E-02  0.1312668E+00
        -11   -1    0    0    0    0  0.00000000000E+00  0.00000000000E+00  0.45593999997E+02  0.45594000000E+02  0.51100000000E-03 0. -1.
         11   -1    0    0    0    0 -0.00000000000E+00 -0.00000000000E+00 -0.45593999997E+02  0.45594000000E+02  0.51100000000E-03 0.  1.
    9900012    2    1    2    0    0  0.37446187099E+02  0.84698915373E+01 -0.20240237722E+02  0.47787271735E+02  0.20000003149E+02 0.  0.
         12    1    1    2    0    0 -0.37446187099E+02 -0.84698915373E+01  0.20240237722E+02  0.43400728265E+02  0.00000000000E+00 0. -1.
         11    1    3    3    0    0  0.76684733961E+01  0.15929724547E+01  0.11451778298E+01  0.79154581668E+01  0.51100000000E-03 0. -1.
        -11    1    3    3    0    0  0.16099297647E+01  0.51046831129E+01 -0.44209449211E+01  0.69422199466E+01  0.51100000000E-03 0.  1.
        -12    1    3    3    0    0  0.28167783938E+02  0.17722359698E+01 -0.16964470631E+02  0.32929593622E+02  0.00000000000E+00 0.  1.
</event>
<event>
 7    1  0.2387817E-009  0.4778728E+02  0.7816164E-02  0.1312668E+00
        -11   -1    0    0    0    0  0.00000000000E+00  0.00000000000E+00  0.45593999997E+02  0.45594000000E+02  0.51100000000E-03 0.  1.
         11   -1    0    0    0    0 -0.00000000000E+00 -0.00000000000E+00 -0.45593999997E+02  0.45594000000E+02  0.51100000000E-03 0. -1.
    9900012    2    1    2    0    0  0.92337587235E+01  0.37640578843E+02  0.19533224418E+02  0.47787281895E+02  0.20000049474E+02 0.  0.
         12    1    1    2    0    0 -0.92337587235E+01 -0.37640578843E+02 -0.19533224418E+02  0.43400718105E+02  0.00000000000E+00 0. -1.
         11    1    3    3    0    0 -0.23254541045E+01  0.22802145371E+01 -0.21620782539E+00  0.32640253082E+01  0.51100000000E-03 0. -1.
        -11    1    3    3    0    0  0.48842937851E+01  0.10372094060E+02  0.13877617702E+02  0.18000692606E+02  0.51100000000E-03 0.  1.
         12    1    3    3    0    0  0.66749190429E+01  0.24988270246E+02  0.58718145418E+01  0.26522563981E+02  0.00000000000E+00 0. -1.
</event>
<event>
 7    1  0.2387817E-009  0.4778727E+02  0.7816164E-02  0.1312668E+00
        -11   -1    0    0    0    0  0.00000000000E+00  0.00000000000E+00  0.45593999997E+02  0.45594000000E+02  0.51100000000E-03 0.  1.
         11   -1    0    0    0    0 -0.00000000000E+00 -0.00000000000E+00 -0.45593999997E+02  0.45594000000E+02  0.51100000000E-03 0. -1.
    9900012    2    1    2    0    0  0.13327810526E+02 -0.19621606290E+02  0.36345361394E+02  0.47787271185E+02  0.20000000643E+02 0.  0.
         12    1    1    2    0    0 -0.13327810526E+02  0.19621606290E+02 -0.36345361394E+02  0.43400728815E+02  0.00000000000E+00 0. -1.
         11    1    3    3    0    0  0.10673475257E+01 -0.17598867171E+01  0.90285336576E+01  0.92601756066E+01  0.51100000000E-03 0. -1.
        -11    1    3    3    0    0  0.12339477965E+01 -0.11014971826E+01  0.14774976692E+02  0.14867274791E+02  0.51100000000E-03 0.  1.
         12    1    3    3    0    0  0.11026515204E+02 -0.16760222390E+02  0.12541851045E+02  0.23659820788E+02  0.00000000000E+00 0. -1.
</event>
<event>
 7    1  0.2387817E-009  0.4778726E+02  0.7816164E-02  0.1312668E+00
        -11   -1    0    0    0    0  0.00000000000E+00  0.00000000000E+00  0.45593999997E+02  0.45594000000E+02  0.51100000000E-03 0.  1.
         11   -1    0    0    0    0 -0.00000000000E+00 -0.00000000000E+00 -0.45593999997E+02  0.45594000000E+02  0.51100000000E-03 0. -1.
    9900012    2    1    2    0    0  0.29020374148E+02  0.16800844445E+01  0.32227614146E+02  0.47787263682E+02  0.19999966433E+02 0.  0.
         12    1    1    2    0    0 -0.29020374148E+02 -0.16800844445E+01 -0.32227614146E+02  0.43400736318E+02  0.00000000000E+00 0. -1.
         11    1    3    3    0    0  0.49311180114E+01 -0.62622848906E+01  0.43602045612E+01  0.90853464970E+01  0.51100000000E-03 0. -1.
        -11    1    3    3    0    0  0.86926536186E+01 -0.12836151382E+01  0.10918138889E+02  0.14014836846E+02  0.51100000000E-03 0.  1.
        -12    1    3    3    0    0  0.15396602518E+02  0.92259844733E+01  0.16949270696E+02  0.24687080340E+02  0.00000000000E+00 0.  1.
</event>
<event>
 7    1  0.2387817E-009  0.4778727E+02  0.7816164E-02  0.1312668E+00
        -11   -1    0    0    0    0  0.00000000000E+00  0.00000000000E+00  0.45593999997E+02  0.45594000000E+02  0.51100000000E-03 0.  1.
         11   -1    0    0    0    0 -0.00000000000E+00 -0.00000000000E+00 -0.45593999997E+02  0.45594000000E+02  0.51100000000E-03 0. -1.
    9900012    2    1    2    0    0 -0.25454696414E+02 -0.30739123542E+02  0.17052522168E+02  0.47787265007E+02  0.19999972472E+02 0.  0.
         12    1    1    2    0    0  0.25454696414E+02  0.30739123542E+02 -0.17052522168E+02  0.43400734993E+02  0.00000000000E+00 0. -1.
         11    1    3    3    0    0  0.19633882407E+00 -0.66343274067E+01  0.45131175732E+01  0.80262743265E+01  0.51100000000E-03 0.  1.
        -11    1    3    3    0    0 -0.39844011669E+01 -0.80890444839E+00  0.60540047300E+01  0.72925134623E+01  0.51100000000E-03 0. -1.
        -12    1    3    3    0    0 -0.21666634071E+02 -0.23295891687E+02  0.64853998647E+01  0.32468477218E+02  0.00000000000E+00 0.  1.
</event>
<event>
 7    1  0.2387817E-009  0.4778727E+02  0.7816164E-02  0.1312668E+00
        -11   -1    0    0    0    0  0.00000000000E+00  0.00000000000E+00  0.45593999997E+02  0.45594000000E+02  0.51100000000E-03 0.  1.
         11   -1    0    0    0    0 -0.00000000000E+00 -0.00000000000E+00 -0.45593999997E+02  0.45594000000E+02  0.51100000000E-03 0. -1.
    9900012    2    1    2    0    0  0.26796936773E+02  0.34138180519E+02 -0.36303288330E+00  0.47787274402E+02  0.20000015308E+02 0.  0.
         12    1    1    2    0    0 -0.26796936773E+02 -0.34138180519E+02  0.36303288330E+00  0.43400725598E+02  0.00000000000E+00 0. -1.
         11    1    3    3    0    0  0.23492454556E+01 -0.97927703051E+00 -0.72699859174E+00  0.26469727854E+01  0.51100000000E-03 0. -1.
        -11    1    3    3    0    0  0.25681631729E+01 -0.10213245106E+01 -0.80330079232E+00  0.28781692554E+01  0.51100000000E-03 0.  1.
        -12    1    3    3    0    0  0.21879528145E+02  0.36138782060E+02  0.11672665008E+01  0.42262132361E+02  0.00000000000E+00 0.  1.
</event>
<event>
 7    1  0.2387817E-009  0.4778727E+02  0.7816164E-02  0.1312668E+00
        -11   -1    0    0    0    0  0.00000000000E+00  0.00000000000E+00  0.45593999997E+02  0.45594000000E+02  0.51100000000E-03 0. -1.
         11   -1    0    0    0    0 -0.00000000000E+00 -0.00000000000E+00 -0.45593999997E+02  0.45594000000E+02  0.51100000000E-03 0.  1.
    9900012    2    1    2    0    0 -0.25420634846E+02  0.34957893605E+02  0.39191891925E+01  0.47787273679E+02  0.20000012012E+02 0.  0.
         12    1    1    2    0    0  0.25420634846E+02 -0.34957893605E+02 -0.39191891925E+01  0.43400726321E+02  0.00000000000E+00 0. -1.
         11    1    3    3    0    0 -0.37143001442E+01  0.10097989691E+02  0.19645085566E+01  0.10937308420E+02  0.51100000000E-03 0. -1.
        -11    1    3    3    0    0 -0.43788099786E+01  0.11185650334E+02 -0.59486879171E+01  0.13404463377E+02  0.51100000000E-03 0.  1.
         12    1    3    3    0    0 -0.17327524723E+02  0.13674253580E+02  0.79033685530E+01  0.23445501882E+02  0.00000000000E+00 0. -1.
</event>
<event>
 7    1  0.2387817E-009  0.4778727E+02  0.7816164E-02  0.1312668E+00
        -11   -1    0    0    0    0  0.00000000000E+00  0.00000000000E+00  0.45593999997E+02  0.45594000000E+02  0.51100000000E-03 0.  1.
         11   -1    0    0    0    0 -0.00000000000E+00 -0.00000000000E+00 -0.45593999997E+02  0.45594000000E+02  0.51100000000E-03 0. -1.
    9900012    2    1    2    0    0  0.35548990673E+02 -0.11714551744E+02  0.21969573849E+02  0.47787266878E+02  0.19999981002E+02 0.  0.
         12    1    1    2    0    0 -0.35548990673E+02  0.11714551744E+02 -0.21969573849E+02  0.43400733122E+02  0.00000000000E+00 0. -1.
         11    1    3    3    0    0 -0.92047928917E-01 -0.33502256194E+00  0.28054570223E+00  0.44656364652E+00  0.51100000000E-03 0. -1.
        -11    1    3    3    0    0  0.36071352597E+02 -0.14509100577E+02  0.20593304122E+02  0.43997052772E+02  0.51100000000E-03 0.  1.
         12    1    3    3    0    0 -0.43031399465E+00  0.31295713954E+01  0.10957240253E+01  0.33436504591E+01  0.00000000000E+00 0. -1.
</event>
<event>
 7    1  0.2387817E-009  0.4778727E+02  0.7816164E-02  0.1312668E+00
        -11   -1    0    0    0    0  0.00000000000E+00  0.00000000000E+00  0.45593999997E+02  0.45594000000E+02  0.51100000000E-03 0.  1.
         11   -1    0    0    0    0 -0.00000000000E+00 -0.00000000000E+00 -0.45593999997E+02  0.45594000000E+02  0.51100000000E-03 0. -1.
    9900012    2    1    2    0    0  0.19903470454E+02  0.31691842672E+02  0.21979583706E+02  0.47787272725E+02  0.20000007664E+02 0.  0.
         12    1    1    2    0    0 -0.19903470454E+02 -0.31691842672E+02 -0.21979583706E+02  0.43400727275E+02  0.00000000000E+00 0. -1.
         11    1    3    3    0    0  0.17368023653E+02  0.16691521364E+02  0.12339692387E+02  0.27065164686E+02  0.51100000000E-03 0. -1.
        -11    1    3    3    0    0  0.52991926045E+01  0.14488939018E+02  0.73123267114E+01  0.17072812255E+02  0.51100000000E-03 0.  1.
         12    1    3    3    0    0 -0.27637458030E+01  0.51138229074E+00  0.23275646082E+01  0.36492957836E+01  0.00000000000E+00 0. -1.
</event>
<event>
 7    1  0.2387817E-009  0.4778727E+02  0.7816164E-02  0.1312668E+00
        -11   -1    0    0    0    0  0.00000000000E+00  0.00000000000E+00  0.45593999997E+02  0.45594000000E+02  0.51100000000E-03 0.  1.
         11   -1    0    0    0    0 -0.00000000000E+00 -0.00000000000E+00 -0.45593999997E+02  0.45594000000E+02  0.51100000000E-03 0. -1.
    9900012    2    1    2    0    0  0.42526825818E+02  0.74804267572E+01  0.43744453771E+01  0.47787268773E+02  0.19999989645E+02 0.  0.
         12    1    1    2    0    0 -0.42526825818E+02 -0.74804267572E+01 -0.43744453771E+01  0.43400731227E+02  0.00000000000E+00 0. -1.
         11    1    3    3    0    0  0.21304378752E+02  0.97874426655E+01  0.36328951458E+01  0.23724850165E+02  0.51100000000E-03 0. -1.
        -11    1    3    3    0    0  0.39506944261E+01 -0.34074541989E+01 -0.34507656936E+01  0.62551190796E+01  0.51100000000E-03 0.  1.
         12    1    3    3    0    0  0.17271752640E+02  0.11004382907E+01  0.41923159249E+01  0.17807299529E+02  0.00000000000E+00 0. -1.
</event>
<event>
 7    1  0.2387817E-009  0.4778727E+02  0.7816164E-02  0.1312668E+00
        -11   -1    0    0    0    0  0.00000000000E+00  0.00000000000E+00  0.45593999997E+02  0.45594000000E+02  0.51100000000E-03 0.  1.
         11   -1    0    0    0    0 -0.00000000000E+00 -0.00000000000E+00 -0.45593999997E+02  0.45594000000E+02  0.51100000000E-03 0. -1.
    9900012    2    1    2    0    0  0.86414247548E+01  0.12121837428E+02  0.40767760271E+02  0.47787269108E+02  0.19999991172E+02 0.  0.
         12    1    1    2    0    0 -0.86414247548E+01 -0.12121837428E+02 -0.40767760271E+02  0.43400730892E+02  0.00000000000E+00 0. -1.
         11    1    3    3    0    0  0.47155542852E+01  0.48643572582E+01  0.63959287566E+01  0.93169913960E+01  0.51100000000E-03 0. -1.
        -11    1    3    3    0    0  0.76141020805E+01  0.75003627426E+01  0.32720758964E+02  0.34422057742E+02  0.51100000000E-03 0.  1.
        -12    1    3    3    0    0 -0.36882316109E+01 -0.24288257265E+00  0.16510725505E+01  0.40482199701E+01  0.00000000000E+00 0.  1.
</event>
<event>
 7    1  0.2387817E-009  0.4778728E+02  0.7816164E-02  0.1312668E+00
        -11   -1    0    0    0    0  0.00000000000E+00  0.00000000000E+00  0.45593999997E+02  0.45594000000E+02  0.51100000000E-03 0.  1.
         11   -1    0    0    0    0 -0.00000000000E+00 -0.00000000000E+00 -0.45593999997E+02  0.45594000000E+02  0.51100000000E-03 0. -1.
    9900012    2    1    2    0    0  0.77305108093E+01  0.42150725626E+02  0.68686284169E+01  0.47787279677E+02  0.20000039361E+02 0.  0.
         12    1    1    2    0    0 -0.77305108093E+01 -0.42150725626E+02 -0.68686284169E+01  0.43400720323E+02  0.00000000000E+00 0. -1.
         11    1    3    3    0    0 -0.24298311944E+01  0.91594095420E+01 -0.12689282680E+01  0.95608076020E+01  0.51100000000E-03 0. -1.
        -11    1    3    3    0    0 -0.32428721644E+01  0.35027410848E+01  0.23547814374E+01  0.53226319486E+01  0.51100000000E-03 0.  1.
        -12    1    3    3    0    0  0.13403214168E+02  0.29488574999E+02  0.57827752476E+01  0.32903840127E+02  0.00000000000E+00 0.  1.
</event>
<event>
 7    1  0.2387817E-009  0.4778727E+02  0.7816164E-02  0.1312668E+00
        -11   -1    0    0    0    0  0.00000000000E+00  0.00000000000E+00  0.45593999997E+02  0.45594000000E+02  0.51100000000E-03 0.  1.
         11   -1    0    0    0    0 -0.00000000000E+00 -0.00000000000E+00 -0.45593999997E+02  0.45594000000E+02  0.51100000000E-03 0. -1.
    9900012    2    1    2    0    0  0.18727841775E+02 -0.33821962636E+01  0.39005797017E+02  0.47787268324E+02  0.19999987595E+02 0.  0.
         12    1    1    2    0    0 -0.18727841775E+02  0.33821962636E+01 -0.39005797017E+02  0.43400731676E+02  0.00000000000E+00 0. -1.
         11    1    3    3    0    0 -0.86534667575E+00 -0.40393760693E+01  0.32733802202E+01  0.52707117381E+01  0.51100000000E-03 0. -1.
        -11    1    3    3    0    0  0.67128212190E+01  0.60355534092E+01  0.12619335807E+02  0.15515718164E+02  0.51100000000E-03 0.  1.
        -12    1    3    3    0    0  0.12880367232E+02 -0.53783736035E+01  0.23113080989E+02  0.27000838421E+02  0.00000000000E+00 0.  1.
</event>
<event>
 7    1  0.2387817E-009  0.4778729E+02  0.7816164E-02  0.1312668E+00
        -11   -1    0    0    0    0  0.00000000000E+00  0.00000000000E+00  0.45593999997E+02  0.45594000000E+02  0.51100000000E-03 0.  1.
         11   -1    0    0    0    0 -0.00000000000E+00 -0.00000000000E+00 -0.45593999997E+02  0.45594000000E+02  0.51100000000E-03 0. -1.
    9900012    2    1    2    0    0 -0.32994659213E+02 -0.16978400063E+02  0.22510178117E+02  0.47787288898E+02  0.20000081402E+02 0.  0.
         12    1    1    2    0    0  0.32994659213E+02  0.16978400063E+02 -0.22510178117E+02  0.43400711102E+02  0.00000000000E+00 0. -1.
         11    1    3    3    0    0 -0.37050313151E+01 -0.53214732197E+01  0.47287570114E+01  0.80253646277E+01  0.51100000000E-03 0. -1.
        -11    1    3    3    0    0 -0.40841104133E+01  0.40526821376E+01  0.17650474458E+01  0.60182707752E+01  0.51100000000E-03 0.  1.
        -12    1    3    3    0    0 -0.25205517484E+02 -0.15709608981E+02  0.16016373660E+02  0.33743653495E+02  0.00000000000E+00 0.  1.
</event>
<event>
 7    1  0.2387817E-009  0.4778727E+02  0.7816164E-02  0.1312668E+00
        -11   -1    0    0    0    0  0.00000000000E+00  0.00000000000E+00  0.45593999997E+02  0.45594000000E+02  0.51100000000E-03 0.  1.
         11   -1    0    0    0    0 -0.00000000000E+00 -0.00000000000E+00 -0.45593999997E+02  0.45594000000E+02  0.51100000000E-03 0. -1.
    9900012    2    1    2    0    0  0.16507838728E+02  0.32069713017E+02  0.24138100671E+02  0.47787272627E+02  0.20000007217E+02 0.  0.
         12    1    1    2    0    0 -0.16507838728E+02 -0.32069713017E+02 -0.24138100671E+02  0.43400727373E+02  0.00000000000E+00 0. -1.
         11    1    3    3    0    0  0.95239472984E+01  0.11465278058E+02  0.54142912693E+01  0.15857891515E+02  0.51100000000E-03 0. -1.
        -11    1    3    3    0    0  0.91904967865E+01  0.78449209647E+01  0.13070547313E+02  0.17800202905E+02  0.51100000000E-03 0.  1.
        -12    1    3    3    0    0 -0.22066053569E+01  0.12759513995E+02  0.56532620886E+01  0.14129178208E+02  0.00000000000E+00 0.  1.
</event>
<event>
 7    1  0.2387817E-009  0.4778727E+02  0.7816164E-02  0.1312668E+00
        -11   -1    0    0    0    0  0.00000000000E+00  0.00000000000E+00  0.45593999997E+02  0.45594000000E+02  0.51100000000E-03 0.  1.
         11   -1    0    0    0    0 -0.00000000000E+00 -0.00000000000E+00 -0.45593999997E+02  0.45594000000E+02  0.51100000000E-03 0. -1.
    9900012    2    1    2    0    0 -0.26475046638E+02  0.19091285711E+02  0.28604514321E+02  0.47787268162E+02  0.19999986856E+02 0.  0.
         12    1    1    2    0    0  0.26475046638E+02 -0.19091285711E+02 -0.28604514321E+02  0.43400731838E+02  0.00000000000E+00 0. -1.
         11    1    3    3    0    0 -0.18162481476E+00  0.14581131172E+01 -0.96681258151E+00  0.17589224727E+01  0.51100000000E-03 0. -1.
        -11    1    3    3    0    0 -0.40122416625E+01  0.11024124731E+02  0.71701400336E+01  0.13749193344E+02  0.51100000000E-03 0.  1.
         12    1    3    3    0    0 -0.22281180160E+02  0.66090478627E+01  0.22401186869E+02  0.32279152345E+02  0.00000000000E+00 0. -1.
</event>
<event>
 7    1  0.2387817E-009  0.4778727E+02  0.7816164E-02  0.1312668E+00
        -11   -1    0    0    0    0  0.00000000000E+00  0.00000000000E+00  0.45593999997E+02  0.45594000000E+02  0.51100000000E-03 0.  1.
         11   -1    0    0    0    0 -0.00000000000E+00 -0.00000000000E+00 -0.45593999997E+02  0.45594000000E+02  0.51100000000E-03 0. -1.
    9900012    2    1    2    0    0  0.17950287869E+02  0.22040325694E+00  0.39514073017E+02  0.47787269838E+02  0.19999994500E+02 0.  0.
         12    1    1    2    0    0 -0.17950287869E+02 -0.22040325694E+00 -0.39514073017E+02  0.43400730162E+02  0.00000000000E+00 0. -1.
         11    1    3    3    0    0 -0.19854419326E+01 -0.19084832790E+01  0.15244355869E+01  0.31477281036E+01  0.51100000000E-03 0. -1.
        -11    1    3    3    0    0  0.15488868812E+01  0.18590268275E+01  0.15030645400E+02  0.15224169361E+02  0.51100000000E-03 0.  1.
        -12    1    3    3    0    0  0.18386842921E+02  0.26985970848E+00  0.22958992030E+02  0.29415372374E+02  0.00000000000E+00 0.  1.
</event>
<event>
 7    1  0.2387817E-009  0.4778727E+02  0.7816164E-02  0.1312668E+00
        -11   -1    0    0    0    0  0.00000000000E+00  0.00000000000E+00  0.45593999997E+02  0.45594000000E+02  0.51100000000E-03 0.  1.
         11   -1    0    0    0    0 -0.00000000000E+00 -0.00000000000E+00 -0.45593999997E+02  0.45594000000E+02  0.51100000000E-03 0. -1.
    9900012    2    1    2    0    0 -0.43026911410E+02  0.34887324056E+01 -0.44874463334E+01  0.47787268049E+02  0.19999986344E+02 0.  0.
         12    1    1    2    0    0  0.43026911410E+02 -0.34887324056E+01  0.44874463334E+01  0.43400731951E+02  0.00000000000E+00 0. -1.
         11    1    3    3    0    0 -0.20016527697E+02 -0.17757029274E+01 -0.49641370577E+01  0.20699206722E+02  0.51100000000E-03 0. -1.
        -11    1    3    3    0    0 -0.15588489620E+02 -0.10296010251E+01  0.49359216400E+01  0.16383662887E+02  0.51100000000E-03 0.  1.
        -12    1    3    3    0    0 -0.74218940921E+01  0.62940363581E+01 -0.44592309157E+01  0.10704398440E+02  0.00000000000E+00 0.  1.
</event>
<event>
 7    1  0.2387817E-009  0.4778727E+02  0.7816164E-02  0.1312668E+00
        -11   -1    0    0    0    0  0.00000000000E+00  0.00000000000E+00  0.45593999997E+02  0.45594000000E+02  0.51100000000E-03 0. -1.
         11   -1    0    0    0    0 -0.00000000000E+00 -0.00000000000E+00 -0.45593999997E+02  0.45594000000E+02  0.51100000000E-03 0.  1.
    9900012    2    1    2    0    0  0.23429772795E+02  0.36440286829E+02 -0.26027327319E+01  0.47787274486E+02  0.20000015694E+02 0.  0.
         12    1    1    2    0    0 -0.23429772795E+02 -0.36440286829E+02  0.26027327319E+01  0.43400725514E+02  0.00000000000E+00 0. -1.
         11    1    3    3    0    0  0.29558051161E+01  0.27761499016E+01 -0.49625418843E+01  0.64086359215E+01  0.51100000000E-03 0. -1.
        -11    1    3    3    0    0  0.16527071962E+02  0.15816221641E+02 -0.47726969452E+00  0.22880663479E+02  0.51100000000E-03 0.  1.
        -12    1    3    3    0    0  0.39468957169E+01  0.17847915287E+02  0.28370788469E+01  0.18497975086E+02  0.00000000000E+00 0.  1.
</event>
<event>
 7    1  0.2387817E-009  0.4778726E+02  0.7816164E-02  0.1312668E+00
        -11   -1    0    0    0    0  0.00000000000E+00  0.00000000000E+00  0.45593999997E+02  0.45594000000E+02  0.51100000000E-03 0.  1.
         11   -1    0    0    0    0 -0.00000000000E+00 -0.00000000000E+00 -0.45593999997E+02  0.45594000000E+02  0.51100000000E-03 0. -1.
    9900012    2    1    2    0    0 -0.37064005548E+02  0.22421758146E+02 -0.26736173469E+01  0.47787262963E+02  0.19999963155E+02 0.  0.
         12    1    1    2    0    0  0.37064005548E+02 -0.22421758146E+02  0.26736173469E+01  0.43400737037E+02  0.00000000000E+00 0. -1.
         11    1    3    3    0    0 -0.51541901479E+01  0.33073600461E+01 -0.40824730652E+01  0.73600878490E+01  0.51100000000E-03 0. -1.
        -11    1    3    3    0    0 -0.10241773760E+02 -0.15060886558E+01  0.18305556764E+01  0.10512524299E+02  0.51100000000E-03 0.  1.
         12    1    3    3    0    0 -0.21668041640E+02  0.20620486756E+02 -0.42169995803E+00  0.29914650816E+02  0.00000000000E+00 0. -1.
</event>
<event>
 7    1  0.2387817E-009  0.4778727E+02  0.7816164E-02  0.1312668E+00
        -11   -1    0    0    0    0  0.00000000000E+00  0.00000000000E+00  0.45593999997E+02  0.45594000000E+02  0.51100000000E-03 0. -1.
         11   -1    0    0    0    0 -0.00000000000E+00 -0.00000000000E+00 -0.45593999997E+02  0.45594000000E+02  0.51100000000E-03 0.  1.
    9900012    2    1    2    0    0 -0.35199848942E+02  0.25309020211E+02 -0.20118454011E+01  0.47787269689E+02  0.19999993821E+02 0.  0.
         12    1    1    2    0    0  0.35199848942E+02 -0.25309020211E+02  0.20118454011E+01  0.43400730311E+02  0.00000000000E+00 0. -1.
         11    1    3    3    0    0 -0.73320404996E+01  0.60173022155E-01 -0.36892693577E+01  0.82081147248E+01  0.51100000000E-03 0.  1.
        -11    1    3    3    0    0  0.11772621563E+01  0.26408882793E+00 -0.18850947585E+00  0.12211573106E+01  0.51100000000E-03 0. -1.
        -12    1    3    3    0    0 -0.29045070599E+02  0.24984758361E+02  0.18659334324E+01  0.38357997654E+02  0.00000000000E+00 0.  1.
</event>
<event>
 7    1  0.2387817E-009  0.4778727E+02  0.7816164E-02  0.1312668E+00
        -11   -1    0    0    0    0  0.00000000000E+00  0.00000000000E+00  0.45593999997E+02  0.45594000000E+02  0.51100000000E-03 0. -1.
         11   -1    0    0    0    0 -0.00000000000E+00 -0.00000000000E+00 -0.45593999997E+02  0.45594000000E+02  0.51100000000E-03 0.  1.
    9900012    2    1    2    0    0  0.16492531992E+02  0.31669720366E+02 -0.24670800828E+02  0.47787271745E+02  0.20000003194E+02 0.  0.
         12    1    1    2    0    0 -0.16492531992E+02 -0.31669720366E+02  0.24670800828E+02  0.43400728255E+02  0.00000000000E+00 0. -1.
         11    1    3    3    0    0  0.15132059751E+01  0.65144702592E+01 -0.48291209014E+01  0.82491529276E+01  0.51100000000E-03 0.  1.
        -11    1    3    3    0    0  0.95336054618E+01  0.12193319787E+02 -0.32080236921E+00  0.15481265935E+02  0.51100000000E-03 0. -1.
         12    1    3    3    0    0  0.54457205555E+01  0.12961930319E+02 -0.19520877558E+02  0.24056852882E+02  0.00000000000E+00 0. -1.
</event>
<event>
 7    1  0.2387817E-009  0.4778727E+02  0.7816164E-02  0.1312668E+00
        -11   -1    0    0    0    0  0.00000000000E+00  0.00000000000E+00  0.45593999997E+02  0.45594000000E+02  0.51100000000E-03 0.  1.
         11   -1    0    0    0    0 -0.00000000000E+00 -0.00000000000E+00 -0.45593999997E+02  0.45594000000E+02  0.51100000000E-03 0. -1.
    9900012    2    1    2    0    0 -0.35838224633E+02  0.23164188591E+02  0.79161364829E+01  0.47787271957E+02  0.20000004159E+02 0.  0.
         12    1    1    2    0    0  0.35838224633E+02 -0.23164188591E+02 -0.79161364829E+01  0.43400728043E+02  0.00000000000E+00 0. -1.
         11    1    3    3    0    0 -0.19580162882E+02  0.77444300182E+01  0.40669818092E+01  0.21445263256E+02  0.51100000000E-03 0. -1.
        -11    1    3    3    0    0 -0.15640887972E+02  0.15944541476E+02 -0.74668252436E-01  0.22335428248E+02  0.51100000000E-03 0.  1.
        -12    1    3    3    0    0 -0.61717377859E+00 -0.52478290344E+00  0.39238229262E+01  0.40065804528E+01  0.00000000000E+00 0.  1.
</event>
<event>
 7    1  0.2387817E-009  0.4778727E+02  0.7816164E-02  0.1312668E+00
        -11   -1    0    0    0    0  0.00000000000E+00  0.00000000000E+00  0.45593999997E+02  0.45594000000E+02  0.51100000000E-03 0.  1.
         11   -1    0    0    0    0 -0.00000000000E+00 -0.00000000000E+00 -0.45593999997E+02  0.45594000000E+02  0.51100000000E-03 0. -1.
    9900012    2    1    2    0    0 -0.15667220944E+02  0.39753527285E+02  0.76038715438E+01  0.47787267216E+02  0.19999982546E+02 0.  0.
         12    1    1    2    0    0  0.15667220944E+02 -0.39753527285E+02 -0.76038715438E+01  0.43400732784E+02  0.00000000000E+00 0. -1.
         11    1    3    3    0    0 -0.12957118813E+01  0.47920331201E+00 -0.25056872357E+01  0.28612888491E+01  0.51100000000E-03 0. -1.
        -11    1    3    3    0    0 -0.71084781005E+01  0.62907546225E+01 -0.55482732611E+00  0.95085166166E+01  0.51100000000E-03 0.  1.
        -12    1    3    3    0    0 -0.72630309623E+01  0.32983569350E+02  0.10664386106E+02  0.35417461751E+02  0.00000000000E+00 0.  1.
</event>
<event>
 7    1  0.2387817E-009  0.4778727E+02  0.7816164E-02  0.1312668E+00
        -11   -1    0    0    0    0  0.00000000000E+00  0.00000000000E+00  0.45593999997E+02  0.45594000000E+02  0.51100000000E-03 0. -1.
         11   -1    0    0    0    0 -0.00000000000E+00 -0.00000000000E+00 -0.45593999997E+02  0.45594000000E+02  0.51100000000E-03 0.  1.
    9900012    2    1    2    0    0  0.26980494108E+02 -0.18591384443E+02 -0.28461138139E+02  0.47787273947E+02  0.20000013232E+02 0.  0.
         12    1    1    2    0    0 -0.26980494108E+02  0.18591384443E+02  0.28461138139E+02  0.43400726053E+02  0.00000000000E+00 0. -1.
         11    1    3    3    0    0  0.32058815126E+01  0.90255078462E+00 -0.50875221583E+01  0.60807200366E+01  0.51100000000E-03 0. -1.
        -11    1    3    3    0    0  0.11407471623E+02 -0.56876662783E+00 -0.11342896470E+02  0.16097055783E+02  0.51100000000E-03 0.  1.
         12    1    3    3    0    0  0.12367140972E+02 -0.18925168599E+02 -0.12030719511E+02  0.25609498127E+02  0.00000000000E+00 0. -1.
</event>
<event>
 7    1  0.2387817E-009  0.4778727E+02  0.7816164E-02  0.1312668E+00
        -11   -1    0    0    0    0  0.00000000000E+00  0.00000000000E+00  0.45593999997E+02  0.45594000000E+02  0.51100000000E-03 0.  1.
         11   -1    0    0    0    0 -0.00000000000E+00 -0.00000000000E+00 -0.45593999997E+02  0.45594000000E+02  0.51100000000E-03 0. -1.
    9900012    2    1    2    0    0  0.14450026618E+02  0.16243796785E+02  0.37562736204E+02  0.47787270116E+02  0.19999995769E+02 0.  0.
         12    1    1    2    0    0 -0.14450026618E+02 -0.16243796785E+02 -0.37562736204E+02  0.43400729884E+02  0.00000000000E+00 0. -1.
         11    1    3    3    0    0  0.36035700950E+01  0.22122769490E+01  0.28596888204E+01  0.51046750278E+01  0.51100000000E-03 0. -1.
        -11    1    3    3    0    0 -0.13960895283E+01  0.12404068985E+02  0.18232169991E+02  0.22095746563E+02  0.51100000000E-03 0.  1.
        -12    1    3    3    0    0  0.12242546052E+02  0.16274508511E+01  0.16470877393E+02  0.20586848525E+02  0.00000000000E+00 0.  1.
</event>
<event>
 7    1  0.2387817E-009  0.4778727E+02  0.7816164E-02  0.1312668E+00
        -11   -1    0    0    0    0  0.00000000000E+00  0.00000000000E+00  0.45593999997E+02  0.45594000000E+02  0.51100000000E-03 0.  1.
         11   -1    0    0    0    0 -0.00000000000E+00 -0.00000000000E+00 -0.45593999997E+02  0.45594000000E+02  0.51100000000E-03 0. -1.
    9900012    2    1    2    0    0 -0.59542226448E+01 -0.12304574408E+02  0.41191840033E+02  0.47787274154E+02  0.20000014178E+02 0.  0.
         12    1    1    2    0    0  0.59542226448E+01  0.12304574408E+02 -0.41191840033E+02  0.43400725846E+02  0.00000000000E+00 0. -1.
         11    1    3    3    0    0 -0.52075850896E+01 -0.80730596205E+00  0.10678878079E+02  0.11908363559E+02  0.51100000000E-03 0. -1.
        -11    1    3    3    0    0 -0.73329122667E+01 -0.58399781209E+01  0.10570793116E+02  0.14128645162E+02  0.51100000000E-03 0.  1.
         12    1    3    3    0    0  0.65862747115E+01 -0.56572903247E+01  0.19942168839E+02  0.21750265432E+02  0.00000000000E+00 0. -1.
</event>
<event>
 7    1  0.2387817E-009  0.4778727E+02  0.7816164E-02  0.1312668E+00
        -11   -1    0    0    0    0  0.00000000000E+00  0.00000000000E+00  0.45593999997E+02  0.45594000000E+02  0.51100000000E-03 0.  1.
         11   -1    0    0    0    0 -0.00000000000E+00 -0.00000000000E+00 -0.45593999997E+02  0.45594000000E+02  0.51100000000E-03 0. -1.
    9900012    2    1    2    0    0 -0.31957980328E+02 -0.29337180893E+02 -0.12807614318E+01  0.47787273747E+02  0.20000012323E+02 0.  0.
         12    1    1    2    0    0  0.31957980328E+02  0.29337180893E+02  0.12807614318E+01  0.43400726253E+02  0.00000000000E+00 0. -1.
         11    1    3    3    0    0  0.90630225191E+00  0.12053519126E+00  0.64296497100E+00  0.11177283745E+01  0.51100000000E-03 0. -1.
        -11    1    3    3    0    0 -0.66293379017E+01 -0.15018614840E+02  0.17030838228E+01  0.16504769235E+02  0.51100000000E-03 0.  1.
         12    1    3    3    0    0 -0.26234944678E+02 -0.14439101245E+02 -0.36268102256E+01  0.30164776138E+02  0.00000000000E+00 0. -1.
</event>
<event>
 7    1  0.2387817E-009  0.4778728E+02  0.7816164E-02  0.1312668E+00
        -11   -1    0    0    0    0  0.00000000000E+00  0.00000000000E+00  0.45593999997E+02  0.45594000000E+02  0.51100000000E-03 0.  1.
         11   -1    0    0    0    0 -0.00000000000E+00 -0.00000000000E+00 -0.45593999997E+02  0.45594000000E+02  0.51100000000E-03 0. -1.
    9900012    2    1    2    0    0 -0.18305510111E+02 -0.11966842246E+02  0.37487673779E+02  0.47787277666E+02  0.20000030191E+02 0.  0.
         12    1    1    2    0    0  0.18305510111E+02  0.11966842246E+02 -0.37487673779E+02  0.43400722334E+02  0.00000000000E+00 0. -1.
         11    1    3    3    0    0 -0.31040261129E+01 -0.11404124660E+01  0.50959223087E+01  0.60748615737E+01  0.51100000000E-03 0. -1.
        -11    1    3    3    0    0 -0.13183270789E+02 -0.15163957455E+02  0.30592550421E+02  0.36601207302E+02  0.51100000000E-03 0.  1.
         12    1    3    3    0    0 -0.20182132091E+01  0.43375276752E+01  0.17992010487E+01  0.51112087909E+01  0.00000000000E+00 0. -1.
</event>
<event>
 7    1  0.2387817E-009  0.4778727E+02  0.7816164E-02  0.1312668E+00
        -11   -1    0    0    0    0  0.00000000000E+00  0.00000000000E+00  0.45593999997E+02  0.45594000000E+02  0.51100000000E-03 0. -1.
         11   -1    0    0    0    0 -0.00000000000E+00 -0.00000000000E+00 -0.45593999997E+02  0.45594000000E+02  0.51100000000E-03 0.  1.
    9900012    2    1    2    0    0  0.73364334874E+01 -0.84648001711E+01 -0.41930262640E+02  0.47787273931E+02  0.20000013163E+02 0.  0.
         12    1    1    2    0    0 -0.73364334874E+01  0.84648001711E+01  0.41930262640E+02  0.43400726069E+02  0.00000000000E+00 0. -1.
         11    1    3    3    0    0  0.19796737815E+01 -0.84622843244E+00 -0.19878120174E+01  0.29302914051E+01  0.51100000000E-03 0. -1.
        -11    1    3    3    0    0  0.96749701514E+01 -0.31643176661E+01 -0.99673112863E+01  0.14246587250E+02  0.51100000000E-03 0.  1.
         12    1    3    3    0    0 -0.43182104456E+01 -0.44542540726E+01 -0.29975139336E+02  0.30610395277E+02  0.00000000000E+00 0. -1.
</event>
<event>
 7    1  0.2387817E-009  0.4778727E+02  0.7816164E-02  0.1312668E+00
        -11   -1    0    0    0    0  0.00000000000E+00  0.00000000000E+00  0.45593999997E+02  0.45594000000E+02  0.51100000000E-03 0.  1.
         11   -1    0    0    0    0 -0.00000000000E+00 -0.00000000000E+00 -0.45593999997E+02  0.45594000000E+02  0.51100000000E-03 0. -1.
    9900012    2    1    2    0    0 -0.41839839263E+02 -0.55024309369E+01  0.10137763515E+02  0.47787272531E+02  0.20000006776E+02 0.  0.
         12    1    1    2    0    0  0.41839839263E+02  0.55024309369E+01 -0.10137763515E+02  0.43400727469E+02  0.00000000000E+00 0. -1.
         11    1    3    3    0    0 -0.22159985561E+01 -0.15448707322E+01 -0.26561091842E+01  0.37884286241E+01  0.51100000000E-03 0. -1.
        -11    1    3    3    0    0 -0.18805600524E+02  0.16080291000E+01 -0.12322277120E+00  0.18874627221E+02  0.51100000000E-03 0.  1.
        -12    1    3    3    0    0 -0.20818240184E+02 -0.55655893046E+01  0.12917095470E+02  0.25124216685E+02  0.00000000000E+00 0.  1.
</event>
<event>
 7    1  0.2387817E-009  0.4778727E+02  0.7816164E-02  0.1312668E+00
        -11   -1    0    0    0    0  0.00000000000E+00  0.00000000000E+00  0.45593999997E+02  0.45594000000E+02  0.51100000000E-03 0. -1.
         11   -1    0    0    0    0 -0.00000000000E+00 -0.00000000000E+00 -0.45593999997E+02  0.45594000000E+02  0.51100000000E-03 0.  1.
    9900012    2    1    2    0    0  0.16680279802E+01  0.15087418531E+02 -0.40659696911E+02  0.47787268806E+02  0.19999989794E+02 0.  0.
         12    1    1    2    0    0 -0.16680279802E+01 -0.15087418531E+02  0.40659696911E+02  0.43400731194E+02  0.00000000000E+00 0. -1.
         11    1    3    3    0    0 -0.11516429747E+01  0.37113542091E-01  0.52178251951E+00  0.12648779447E+01  0.51100000000E-03 0. -1.
        -11    1    3    3    0    0 -0.12892451039E+01  0.12421855261E+02 -0.13405400830E+02  0.18321283054E+02  0.51100000000E-03 0.  1.
         12    1    3    3    0    0  0.41089160589E+01  0.26284497276E+01 -0.27776078600E+02  0.28201107807E+02  0.00000000000E+00 0. -1.
</event>
<event>
 7    1  0.2387817E-009  0.4778727E+02  0.7816164E-02  0.1312668E+00
        -11   -1    0    0    0    0  0.00000000000E+00  0.00000000000E+00  0.45593999997E+02  0.45594000000E+02  0.51100000000E-03 0.  1.
         11   -1    0    0    0    0 -0.00000000000E+00 -0.00000000000E+00 -0.45593999997E+02  0.45594000000E+02  0.51100000000E-03 0. -1.
    9900012    2    1    2    0    0  0.45118148652E+01  0.40895714619E+02  0.13813300376E+02  0.47787271724E+02  0.20000003098E+02 0.  0.
         12    1    1    2    0    0 -0.45118148652E+01 -0.40895714619E+02 -0.13813300376E+02  0.43400728276E+02  0.00000000000E+00 0. -1.
         11    1    3    3    0    0  0.37562300404E+01  0.23649091305E+02  0.51377246754E+01  0.24490508341E+02  0.51100000000E-03 0. -1.
        -11    1    3    3    0    0 -0.17787398691E+01  0.18639306911E+02  0.76902344742E+01  0.20241723844E+02  0.51100000000E-03 0.  1.
         12    1    3    3    0    0  0.25343246939E+01 -0.13926835968E+01  0.98534122624E+00  0.30550395393E+01  0.00000000000E+00 0. -1.
</event>
<event>
 7    1  0.2387817E-009  0.4778727E+02  0.7816164E-02  0.1312668E+00
        -11   -1    0    0    0    0  0.00000000000E+00  0.00000000000E+00  0.45593999997E+02  0.45594000000E+02  0.51100000000E-03 0.  1.
         11   -1    0    0    0    0 -0.00000000000E+00 -0.00000000000E+00 -0.45593999997E+02  0.45594000000E+02  0.51100000000E-03 0. -1.
    9900012    2    1    2    0    0 -0.35958915959E+02 -0.20336345156E+02 -0.13304602631E+02  0.47787273941E+02  0.20000013208E+02 0.  0.
         12    1    1    2    0    0  0.35958915959E+02  0.20336345156E+02  0.13304602631E+02  0.43400726059E+02  0.00000000000E+00 0. -1.
         11    1    3    3    0    0 -0.14059369638E+02 -0.13445239522E+02 -0.32607264193E+01  0.19724925284E+02  0.51100000000E-03 0. -1.
        -11    1    3    3    0    0 -0.54033253913E+01 -0.80178890902E+01 -0.36757589701E+01  0.10343774699E+02  0.51100000000E-03 0.  1.
         12    1    3    3    0    0 -0.16496220930E+02  0.11267834564E+01 -0.63681172412E+01  0.17718573958E+02  0.00000000000E+00 0. -1.
</event>
<event>
 7    1  0.2387817E-009  0.4778727E+02  0.7816164E-02  0.1312668E+00
        -11   -1    0    0    0    0  0.00000000000E+00  0.00000000000E+00  0.45593999997E+02  0.45594000000E+02  0.51100000000E-03 0.  1.
         11   -1    0    0    0    0 -0.00000000000E+00 -0.00000000000E+00 -0.45593999997E+02  0.45594000000E+02  0.51100000000E-03 0. -1.
    9900012    2    1    2    0    0  0.25849978375E+01 -0.92466933327E+01  0.42325401017E+02  0.47787272786E+02  0.20000007941E+02 0.  0.
         12    1    1    2    0    0 -0.25849978375E+01  0.92466933327E+01 -0.42325401017E+02  0.43400727214E+02  0.00000000000E+00 0. -1.
         11    1    3    3    0    0 -0.49083038014E+00 -0.47113309719E+01  0.25518865964E+01  0.53804906330E+01  0.51100000000E-03 0. -1.
        -11    1    3    3    0    0 -0.11547564371E+01  0.47104805544E+00 -0.68356449945E+00  0.14221847227E+01  0.51100000000E-03 0.  1.
        -12    1    3    3    0    0  0.42305846547E+01 -0.50064104163E+01  0.40457078920E+02  0.40984597431E+02  0.00000000000E+00 0.  1.
</event>
<event>
 7    1  0.2387817E-009  0.4778727E+02  0.7816164E-02  0.1312668E+00
        -11   -1    0    0    0    0  0.00000000000E+00  0.00000000000E+00  0.45593999997E+02  0.45594000000E+02  0.51100000000E-03 0.  1.
         11   -1    0    0    0    0 -0.00000000000E+00 -0.00000000000E+00 -0.45593999997E+02  0.45594000000E+02  0.51100000000E-03 0. -1.
    9900012    2    1    2    0    0 -0.50047002854E+01  0.31503834884E+02  0.29429315465E+02  0.47787271365E+02  0.20000001460E+02 0.  0.
         12    1    1    2    0    0  0.50047002854E+01 -0.31503834884E+02 -0.29429315465E+02  0.43400728635E+02  0.00000000000E+00 0. -1.
         11    1    3    3    0    0 -0.70401594926E+01  0.12913322815E+02  0.10321191416E+02  0.17967880908E+02  0.51100000000E-03 0. -1.
        -11    1    3    3    0    0 -0.20893396549E+01 -0.93321857595E+00  0.46334341727E+01  0.51676831944E+01  0.51100000000E-03 0.  1.
        -12    1    3    3    0    0  0.41247988621E+01  0.19523730645E+02  0.14474689876E+02  0.24651707262E+02  0.00000000000E+00 0.  1.
</event>
<event>
 7    1  0.2387817E-009  0.4778727E+02  0.7816164E-02  0.1312668E+00
        -11   -1    0    0    0    0  0.00000000000E+00  0.00000000000E+00  0.45593999997E+02  0.45594000000E+02  0.51100000000E-03 0. -1.
         11   -1    0    0    0    0 -0.00000000000E+00 -0.00000000000E+00 -0.45593999997E+02  0.45594000000E+02  0.51100000000E-03 0.  1.
    9900012    2    1    2    0    0  0.28951402906E+02 -0.78017802028E+01 -0.31377893608E+02  0.47787265999E+02  0.19999976996E+02 0.  0.
         12    1    1    2    0    0 -0.28951402906E+02  0.78017802028E+01  0.31377893608E+02  0.43400734001E+02  0.00000000000E+00 0. -1.
         11    1    3    3    0    0  0.28675142904E+01 -0.26674423080E+01 -0.85977026230E+01  0.94476651785E+01  0.51100000000E-03 0. -1.
        -11    1    3    3    0    0  0.17468915324E+02 -0.37137434110E+00 -0.22505145742E+02  0.28491797182E+02  0.51100000000E-03 0.  1.
         12    1    3    3    0    0  0.86149732913E+01 -0.47629635537E+01 -0.27504524313E+00  0.98478036389E+01  0.00000000000E+00 0. -1.
</event>
<event>
 7    1  0.2387817E-009  0.4778727E+02  0.7816164E-02  0.1312668E+00
        -11   -1    0    0    0    0  0.00000000000E+00  0.00000000000E+00  0.45593999997E+02  0.45594000000E+02  0.51100000000E-03 0.  1.
         11   -1    0    0    0    0 -0.00000000000E+00 -0.00000000000E+00 -0.45593999997E+02  0.45594000000E+02  0.51100000000E-03 0. -1.
    9900012    2    1    2    0    0 -0.39328866688E+02  0.98295133912E+01  0.15499817997E+02  0.47787269057E+02  0.19999990938E+02 0.  0.
         12    1    1    2    0    0  0.39328866688E+02 -0.98295133912E+01 -0.15499817997E+02  0.43400730943E+02  0.00000000000E+00 0. -1.
         11    1    3    3    0    0 -0.15853186688E+02  0.83263421374E+01  0.10811178881E+02  0.20917291665E+02  0.51100000000E-03 0. -1.
        -11    1    3    3    0    0 -0.12847061509E+02  0.67053421667E+01  0.39154753596E+01  0.15011314084E+02  0.51100000000E-03 0.  1.
         12    1    3    3    0    0 -0.10628618492E+02 -0.52021709129E+01  0.77316375619E+00  0.11858663308E+02  0.00000000000E+00 0. -1.
</event>
<event>
 7    1  0.2387817E-009  0.4778727E+02  0.7816164E-02  0.1312668E+00
        -11   -1    0    0    0    0  0.00000000000E+00  0.00000000000E+00  0.45593999997E+02  0.45594000000E+02  0.51100000000E-03 0. -1.
         11   -1    0    0    0    0 -0.00000000000E+00 -0.00000000000E+00 -0.45593999997E+02  0.45594000000E+02  0.51100000000E-03 0.  1.
    9900012    2    1    2    0    0 -0.20185382705E+02  0.29814424048E+02 -0.24233731684E+02  0.47787270656E+02  0.19999998228E+02 0.  0.
         12    1    1    2    0    0  0.20185382705E+02 -0.29814424048E+02  0.24233731684E+02  0.43400729344E+02  0.00000000000E+00 0. -1.
         11    1    3    3    0    0 -0.35179800918E+01 -0.21029769649E+01 -0.23903112999E+01  0.47447112044E+01  0.51100000000E-03 0. -1.
        -11    1    3    3    0    0 -0.45137635897E+00  0.16282644488E+01 -0.39700949518E+01  0.43147004438E+01  0.51100000000E-03 0.  1.
        -12    1    3    3    0    0 -0.16216026254E+02  0.30289136564E+02 -0.17873325432E+02  0.38727859008E+02  0.00000000000E+00 0.  1.
</event>
<event>
 7    1  0.2387817E-009  0.4778727E+02  0.7816164E-02  0.1312668E+00
        -11   -1    0    0    0    0  0.00000000000E+00  0.00000000000E+00  0.45593999997E+02  0.45594000000E+02  0.51100000000E-03 0.  1.
         11   -1    0    0    0    0 -0.00000000000E+00 -0.00000000000E+00 -0.45593999997E+02  0.45594000000E+02  0.51100000000E-03 0. -1.
    9900012    2    1    2    0    0 -0.14701494262E+02 -0.32919363109E+01  0.40701994562E+02  0.47787272592E+02  0.20000007057E+02 0.  0.
         12    1    1    2    0    0  0.14701494262E+02  0.32919363109E+01 -0.40701994562E+02  0.43400727408E+02  0.00000000000E+00 0. -1.
         11    1    3    3    0    0 -0.20504477756E+01 -0.14051011049E+01  0.57429481451E+00  0.25511683579E+01  0.51100000000E-03 0. -1.
        -11    1    3    3    0    0 -0.48757646188E+01 -0.45838952242E+01  0.32284100253E+01  0.74301956634E+01  0.51100000000E-03 0.  1.
         12    1    3    3    0    0 -0.77752818678E+01  0.26970600182E+01  0.36899289722E+02  0.37805908571E+02  0.00000000000E+00 0. -1.
</event>
<event>
 7    1  0.2387817E-009  0.4778727E+02  0.7816164E-02  0.1312668E+00
        -11   -1    0    0    0    0  0.00000000000E+00  0.00000000000E+00  0.45593999997E+02  0.45594000000E+02  0.51100000000E-03 0.  1.
         11   -1    0    0    0    0 -0.00000000000E+00 -0.00000000000E+00 -0.45593999997E+02  0.45594000000E+02  0.51100000000E-03 0. -1.
    9900012    2    1    2    0    0  0.18641069952E+02 -0.38686665382E+01  0.39002145049E+02  0.47787269728E+02  0.19999993996E+02 0.  0.
         12    1    1    2    0    0 -0.18641069952E+02  0.38686665382E+01 -0.39002145049E+02  0.43400730272E+02  0.00000000000E+00 0. -1.
         11    1    3    3    0    0  0.98238235777E+01  0.56704504962E+01  0.21407033085E+02  0.24226485182E+02  0.51100000000E-03 0. -1.
        -11    1    3    3    0    0  0.99784053240E+00 -0.28935796699E+01  0.10867260720E+02  0.11290077274E+02  0.51100000000E-03 0.  1.
         12    1    3    3    0    0  0.78194058423E+01 -0.66455373645E+01  0.67278512443E+01  0.12270707272E+02  0.00000000000E+00 0. -1.
</event>
<event>
 7    1  0.3038325E-009  0.4778727E+02  0.7816164E-02  0.1312668E+00
        -11   -1    0    0    0    0  0.00000000000E+00  0.00000000000E+00  0.45593999997E+02  0.45594000000E+02  0.51100000000E-03 0. -1.
         11   -1    0    0    0    0 -0.00000000000E+00 -0.00000000000E+00 -0.45593999997E+02  0.45594000000E+02  0.51100000000E-03 0.  1.
    9900012    2    1    2    0    0  0.13278034073E+02 -0.75687358465E+01 -0.40620576107E+02  0.47787272420E+02  0.20000006273E+02 0.  0.
         12    1    1    2    0    0 -0.13278034073E+02  0.75687358465E+01  0.40620576107E+02  0.43400727580E+02  0.00000000000E+00 0. -1.
         11    1    3    3    0    0  0.18663738338E+01  0.32114016944E+01 -0.27590419667E+01  0.46269606618E+01  0.51100000000E-03 0. -1.
        -11    1    3    3    0    0  0.12166757299E+02 -0.51007230418E+01 -0.16955439855E+02  0.21483349358E+02  0.51100000000E-03 0.  1.
        -12    1    3    3    0    0 -0.75509705954E+00 -0.56794144992E+01 -0.20906094286E+02  0.21676962400E+02  0.00000000000E+00 0.  1.
</event>
<event>
 7    1  0.2387817E-009  0.4778727E+02  0.7816164E-02  0.1312668E+00
        -11   -1    0    0    0    0  0.00000000000E+00  0.00000000000E+00  0.45593999997E+02  0.45594000000E+02  0.51100000000E-03 0.  1.
         11   -1    0    0    0    0 -0.00000000000E+00 -0.00000000000E+00 -0.45593999997E+02  0.45594000000E+02  0.51100000000E-03 0. -1.
    9900012    2    1    2    0    0 -0.26388388696E+02 -0.34442557061E+02  0.99317214711E+00  0.47787272059E+02  0.20000004627E+02 0.  0.
         12    1    1    2    0    0  0.26388388696E+02  0.34442557061E+02 -0.99317214711E+00  0.43400727941E+02  0.00000000000E+00 0. -1.
         11    1    3    3    0    0 -0.51685913334E+00  0.49585897262E+00  0.87846948437E+00  0.11334585923E+01  0.51100000000E-03 0. -1.
        -11    1    3    3    0    0 -0.19111734263E+02 -0.23592593738E+02 -0.76795911181E+01  0.31318444818E+02  0.51100000000E-03 0.  1.
        -12    1    3    3    0    0 -0.67597952998E+01 -0.11345822296E+02  0.77942937808E+01  0.15335368649E+02  0.00000000000E+00 0.  1.
</event>
<event>
 7    1  0.2387817E-009  0.4778727E+02  0.7816164E-02  0.1312668E+00
        -11   -1    0    0    0    0  0.00000000000E+00  0.00000000000E+00  0.45593999997E+02  0.45594000000E+02  0.51100000000E-03 0.  1.
         11   -1    0    0    0    0 -0.00000000000E+00 -0.00000000000E+00 -0.45593999997E+02  0.45594000000E+02  0.51100000000E-03 0. -1.
    9900012    2    1    2    0    0 -0.38562289774E+02 -0.52991194798E+01  0.19196162035E+02  0.47787268477E+02  0.19999988292E+02 0.  0.
         12    1    1    2    0    0  0.38562289774E+02  0.52991194798E+01 -0.19196162035E+02  0.43400731523E+02  0.00000000000E+00 0. -1.
         11    1    3    3    0    0 -0.13184856043E+00 -0.15086174772E+01 -0.95283216058E+00  0.17891897951E+01  0.51100000000E-03 0. -1.
        -11    1    3    3    0    0 -0.11982405065E+02  0.41703750445E+01  0.17422161508E+01  0.12806458391E+02  0.51100000000E-03 0.  1.
        -12    1    3    3    0    0 -0.26448036149E+02 -0.79608770471E+01  0.18406778045E+02  0.33191620290E+02  0.00000000000E+00 0.  1.
</event>
<event>
 7    1  0.2387817E-009  0.4778727E+02  0.7816164E-02  0.1312668E+00
        -11   -1    0    0    0    0  0.00000000000E+00  0.00000000000E+00  0.45593999997E+02  0.45594000000E+02  0.51100000000E-03 0.  1.
         11   -1    0    0    0    0 -0.00000000000E+00 -0.00000000000E+00 -0.45593999997E+02  0.45594000000E+02  0.51100000000E-03 0. -1.
    9900012    2    1    2    0    0 -0.74729365893E+01 -0.37202158623E+02  0.21066032504E+02  0.47787272899E+02  0.20000008454E+02 0.  0.
         12    1    1    2    0    0  0.74729365893E+01  0.37202158623E+02 -0.21066032504E+02  0.43400727101E+02  0.00000000000E+00 0. -1.
         11    1    3    3    0    0 -0.17587153585E+01 -0.86726694974E+01  0.63007707218E+01  0.10863148157E+02  0.51100000000E-03 0. -1.
        -11    1    3    3    0    0 -0.10031123230E+02 -0.21512058426E+02  0.51982226132E+01  0.24298428130E+02  0.51100000000E-03 0.  1.
         12    1    3    3    0    0  0.43169019988E+01 -0.70174306994E+01  0.95670391687E+01  0.12625696612E+02  0.00000000000E+00 0. -1.
</event>
<event>
 7    1  0.2387817E-009  0.4778727E+02  0.7816164E-02  0.1312668E+00
        -11   -1    0    0    0    0  0.00000000000E+00  0.00000000000E+00  0.45593999997E+02  0.45594000000E+02  0.51100000000E-03 0.  1.
         11   -1    0    0    0    0 -0.00000000000E+00 -0.00000000000E+00 -0.45593999997E+02  0.45594000000E+02  0.51100000000E-03 0. -1.
    9900012    2    1    2    0    0  0.28261477775E+02 -0.14847831965E+02  0.29401600443E+02  0.47787270182E+02  0.19999996070E+02 0.  0.
         12    1    1    2    0    0 -0.28261477775E+02  0.14847831965E+02 -0.29401600443E+02  0.43400729818E+02  0.00000000000E+00 0. -1.
         11    1    3    3    0    0  0.60206931071E+01 -0.24870828668E+01  0.94401883794E+01  0.11469589512E+02  0.51100000000E-03 0. -1.
        -11    1    3    3    0    0  0.21696222306E+02 -0.15789271618E+02  0.17099128311E+02  0.31818349263E+02  0.51100000000E-03 0.  1.
         12    1    3    3    0    0  0.54456236241E+00  0.34285225196E+01  0.28622837522E+01  0.44993314072E+01  0.00000000000E+00 0. -1.
</event>
<event>
 7    1  0.2387817E-009  0.4778727E+02  0.7816164E-02  0.1312668E+00
        -11   -1    0    0    0    0  0.00000000000E+00  0.00000000000E+00  0.45593999997E+02  0.45594000000E+02  0.51100000000E-03 0.  1.
         11   -1    0    0    0    0 -0.00000000000E+00 -0.00000000000E+00 -0.45593999997E+02  0.45594000000E+02  0.51100000000E-03 0. -1.
    9900012    2    1    2    0    0 -0.11160070162E+02  0.18662549209E+02  0.37560422593E+02  0.47787271269E+02  0.20000001026E+02 0.  0.
         12    1    1    2    0    0  0.11160070162E+02 -0.18662549209E+02 -0.37560422593E+02  0.43400728731E+02  0.00000000000E+00 0. -1.
         11    1    3    3    0    0 -0.10202850448E+02  0.12908621692E+02  0.27148833222E+02  0.31745705486E+02  0.51100000000E-03 0.  1.
        -11    1    3    3    0    0 -0.22881007317E+01  0.81292443995E+01  0.10295890148E+02  0.13316357372E+02  0.51100000000E-03 0. -1.
         12    1    3    3    0    0  0.13308810177E+01 -0.23753168821E+01  0.11569922306E+00  0.27252084111E+01  0.00000000000E+00 0. -1.
</event>
<event>
 7    1  0.2387817E-009  0.4778726E+02  0.7816164E-02  0.1312668E+00
        -11   -1    0    0    0    0  0.00000000000E+00  0.00000000000E+00  0.45593999997E+02  0.45594000000E+02  0.51100000000E-03 0. -1.
         11   -1    0    0    0    0 -0.00000000000E+00 -0.00000000000E+00 -0.45593999997E+02  0.45594000000E+02  0.51100000000E-03 0.  1.
    9900012    2    1    2    0    0  0.17553224997E+01 -0.42310519332E+02  0.95059255355E+01  0.47787264712E+02  0.19999971129E+02 0.  0.
         12    1    1    2    0    0 -0.17553224997E+01  0.42310519332E+02 -0.95059255355E+01  0.43400735288E+02  0.00000000000E+00 0. -1.
         11    1    3    3    0    0  0.53569119536E+01 -0.18502779277E+02  0.46182631465E+01  0.19808525977E+02  0.51100000000E-03 0.  1.
        -11    1    3    3    0    0  0.35871527207E+01 -0.12902242940E+02  0.63769171358E+01  0.14832417535E+02  0.51100000000E-03 0. -1.
         12    1    3    3    0    0 -0.71887421746E+01 -0.10905497115E+02 -0.14892547468E+01  0.13146321200E+02  0.00000000000E+00 0. -1.
</event>
<event>
 7    1  0.2387817E-009  0.4778727E+02  0.7816164E-02  0.1312668E+00
        -11   -1    0    0    0    0  0.00000000000E+00  0.00000000000E+00  0.45593999997E+02  0.45594000000E+02  0.51100000000E-03 0. -1.
         11   -1    0    0    0    0 -0.00000000000E+00 -0.00000000000E+00 -0.45593999997E+02  0.45594000000E+02  0.51100000000E-03 0.  1.
    9900012    2    1    2    0    0 -0.87461347311E+01  0.34072673353E+02 -0.25420096706E+02  0.47787271219E+02  0.20000000796E+02 0.  0.
         12    1    1    2    0    0  0.87461347311E+01 -0.34072673353E+02  0.25420096706E+02  0.43400728781E+02  0.00000000000E+00 0. -1.
         11    1    3    3    0    0 -0.25982691025E+01  0.88942520386E+01 -0.12596826391E+02  0.15637735036E+02  0.51100000000E-03 0. -1.
        -11    1    3    3    0    0 -0.49525879622E+01  0.80909785429E+01 -0.11588117274E+02  0.14975864700E+02  0.51100000000E-03 0.  1.
        -12    1    3    3    0    0 -0.11952776664E+01  0.17087442772E+02 -0.12351530410E+01  0.17173671483E+02  0.00000000000E+00 0.  1.
</event>
<event>
 7    1  0.2387817E-009  0.4778727E+02  0.7816164E-02  0.1312668E+00
        -11   -1    0    0    0    0  0.00000000000E+00  0.00000000000E+00  0.45593999997E+02  0.45594000000E+02  0.51100000000E-03 0.  1.
         11   -1    0    0    0    0 -0.00000000000E+00 -0.00000000000E+00 -0.45593999997E+02  0.45594000000E+02  0.51100000000E-03 0. -1.
    9900012    2    1    2    0    0  0.92321090660E+01 -0.20456554660E+02  0.37147287215E+02  0.47787269432E+02  0.19999992649E+02 0.  0.
         12    1    1    2    0    0 -0.92321090660E+01  0.20456554660E+02 -0.37147287215E+02  0.43400730568E+02  0.00000000000E+00 0. -1.
         11    1    3    3    0    0  0.43636005440E+01 -0.37694975767E+01  0.19883520077E+01  0.60994807694E+01  0.51100000000E-03 0. -1.
        -11    1    3    3    0    0  0.90315652054E+01 -0.63637147282E+01  0.20426887347E+02  0.23223345198E+02  0.51100000000E-03 0.  1.
         12    1    3    3    0    0 -0.41630566834E+01 -0.10323342355E+02  0.14732047860E+02  0.18464443465E+02  0.00000000000E+00 0. -1.
</event>
<event>
 7    1  0.2387817E-009  0.4778727E+02  0.7816164E-02  0.1312668E+00
        -11   -1    0    0    0    0  0.00000000000E+00  0.00000000000E+00  0.45593999997E+02  0.45594000000E+02  0.51100000000E-03 0. -1.
         11   -1    0    0    0    0 -0.00000000000E+00 -0.00000000000E+00 -0.45593999997E+02  0.45594000000E+02  0.51100000000E-03 0.  1.
    9900012    2    1    2    0    0  0.30475945379E+01 -0.22293212183E+02 -0.37112644596E+02  0.47787268084E+02  0.19999986502E+02 0.  0.
         12    1    1    2    0    0 -0.30475945379E+01  0.22293212183E+02  0.37112644596E+02  0.43400731916E+02  0.00000000000E+00 0. -1.
         11    1    3    3    0    0  0.14289573925E+01 -0.60309861871E+01 -0.34236570602E+01  0.70806879289E+01  0.51100000000E-03 0. -1.
        -11    1    3    3    0    0  0.31306084539E+01 -0.17889860214E+02 -0.20738305730E+02  0.27566739608E+02  0.51100000000E-03 0.  1.
         12    1    3    3    0    0 -0.15119713086E+01  0.16276342178E+01 -0.12950681806E+02  0.13139840547E+02  0.00000000000E+00 0. -1.
</event>
<event>
 7    1  0.2387817E-009  0.4778727E+02  0.7816164E-02  0.1312668E+00
        -11   -1    0    0    0    0  0.00000000000E+00  0.00000000000E+00  0.45593999997E+02  0.45594000000E+02  0.51100000000E-03 0.  1.
         11   -1    0    0    0    0 -0.00000000000E+00 -0.00000000000E+00 -0.45593999997E+02  0.45594000000E+02  0.51100000000E-03 0. -1.
    9900012    2    1    2    0    0 -0.21966502166E+02  0.12633189599E+02  0.35234901240E+02  0.47787274634E+02  0.20000016368E+02 0.  0.
         12    1    1    2    0    0  0.21966502166E+02 -0.12633189599E+02 -0.35234901240E+02  0.43400725366E+02  0.00000000000E+00 0. -1.
         11    1    3    3    0    0  0.17843035374E+01  0.33375297802E+01  0.46506615949E+01  0.59959567775E+01  0.51100000000E-03 0. -1.
        -11    1    3    3    0    0 -0.29686439622E+00  0.26252972167E+01  0.84715051152E+01  0.88739344782E+01  0.51100000000E-03 0.  1.
         12    1    3    3    0    0 -0.23453941307E+02  0.66703626020E+01  0.22112734530E+02  0.32917383379E+02  0.00000000000E+00 0. -1.
</event>
<event>
 7    1  0.2387817E-009  0.4778727E+02  0.7816164E-02  0.1312668E+00
        -11   -1    0    0    0    0  0.00000000000E+00  0.00000000000E+00  0.45593999997E+02  0.45594000000E+02  0.51100000000E-03 0. -1.
         11   -1    0    0    0    0 -0.00000000000E+00 -0.00000000000E+00 -0.45593999997E+02  0.45594000000E+02  0.51100000000E-03 0.  1.
    9900012    2    1    2    0    0 -0.35872989805E+02  0.21080890667E+02  0.12342922803E+02  0.47787273138E+02  0.20000009544E+02 0.  0.
         12    1    1    2    0    0  0.35872989805E+02 -0.21080890667E+02 -0.12342922803E+02  0.43400726862E+02  0.00000000000E+00 0. -1.
         11    1    3    3    0    0 -0.76537516494E+01  0.78716675655E+00  0.44610156179E+00  0.77070456517E+01  0.51100000000E-03 0. -1.
        -11    1    3    3    0    0 -0.13837201072E+02  0.19445910037E+02  0.75009414224E+01  0.25017507333E+02  0.51100000000E-03 0.  1.
        -12    1    3    3    0    0 -0.14382037083E+02  0.84781387362E+00  0.43958798187E+01  0.15062720153E+02  0.00000000000E+00 0.  1.
</event>
<event>
 7    1  0.2387817E-009  0.4778727E+02  0.7816164E-02  0.1312668E+00
        -11   -1    0    0    0    0  0.00000000000E+00  0.00000000000E+00  0.45593999997E+02  0.45594000000E+02  0.51100000000E-03 0.  1.
         11   -1    0    0    0    0 -0.00000000000E+00 -0.00000000000E+00 -0.45593999997E+02  0.45594000000E+02  0.51100000000E-03 0. -1.
    9900012    2    1    2    0    0  0.53651633611E+01 -0.22933048708E+02  0.36454268376E+02  0.47787269779E+02  0.19999994229E+02 0.  0.
         12    1    1    2    0    0 -0.53651633611E+01  0.22933048708E+02 -0.36454268376E+02  0.43400730221E+02  0.00000000000E+00 0. -1.
         11    1    3    3    0    0 -0.27068970881E+01 -0.13426138013E+01 -0.29266232554E+00  0.30357132873E+01  0.51100000000E-03 0. -1.
        -11    1    3    3    0    0  0.30723747519E-01 -0.32167847777E+01  0.14266787465E+02  0.14624974294E+02  0.51100000000E-03 0.  1.
        -12    1    3    3    0    0  0.80413367017E+01 -0.18373650129E+02  0.22480143236E+02  0.30126582198E+02  0.00000000000E+00 0.  1.
</event>
<event>
 7    1  0.2387817E-009  0.4778727E+02  0.7816164E-02  0.1312668E+00
        -11   -1    0    0    0    0  0.00000000000E+00  0.00000000000E+00  0.45593999997E+02  0.45594000000E+02  0.51100000000E-03 0. -1.
         11   -1    0    0    0    0 -0.00000000000E+00 -0.00000000000E+00 -0.45593999997E+02  0.45594000000E+02  0.51100000000E-03 0.  1.
    9900012    2    1    2    0    0  0.27478369108E+02 -0.74326324196E+00 -0.33585857214E+02  0.47787274040E+02  0.20000013659E+02 0.  0.
         12    1    1    2    0    0 -0.27478369108E+02  0.74326324196E+00  0.33585857214E+02  0.43400725960E+02  0.00000000000E+00 0. -1.
         11    1    3    3    0    0 -0.24312110582E+01  0.19530978050E+01 -0.62398508827E+01  0.69757521132E+01  0.51100000000E-03 0. -1.
        -11    1    3    3    0    0  0.93406789286E+01 -0.11514736513E+01 -0.11115960744E+02  0.14564983966E+02  0.51100000000E-03 0.  1.
         12    1    3    3    0    0  0.20568901237E+02 -0.15448873956E+01 -0.16230045587E+02  0.26246537961E+02  0.00000000000E+00 0. -1.
</event>
<event>
 7    1  0.2387817E-009  0.4778726E+02  0.7816164E-02  0.1312668E+00
        -11   -1    0    0    0    0  0.00000000000E+00  0.00000000000E+00  0.45593999997E+02  0.45594000000E+02  0.51100000000E-03 0.  1.
         11   -1    0    0    0    0 -0.00000000000E+00 -0.00000000000E+00 -0.45593999997E+02  0.45594000000E+02  0.51100000000E-03 0. -1.
    9900012    2    1    2    0    0  0.22674445586E+02 -0.42621716903E+01  0.36760410974E+02  0.47787258012E+02  0.19999940579E+02 0.  0.
         12    1    1    2    0    0 -0.22674445586E+02  0.42621716903E+01 -0.36760410974E+02  0.43400741988E+02  0.00000000000E+00 0. -1.
         11    1    3    3    0    0  0.36959388364E+01 -0.61594933724E+01  0.70327038455E+01  0.10052773057E+02  0.51100000000E-03 0. -1.
        -11    1    3    3    0    0  0.18568433417E+01 -0.22114008178E+01  0.13446382507E+02  0.13752940179E+02  0.51100000000E-03 0.  1.
         12    1    3    3    0    0  0.17121663408E+02  0.41087224999E+01  0.16281324622E+02  0.23981544776E+02  0.00000000000E+00 0. -1.
</event>
<event>
 7    1  0.2387817E-009  0.4778727E+02  0.7816164E-02  0.1312668E+00
        -11   -1    0    0    0    0  0.00000000000E+00  0.00000000000E+00  0.45593999997E+02  0.45594000000E+02  0.51100000000E-03 0. -1.
         11   -1    0    0    0    0 -0.00000000000E+00 -0.00000000000E+00 -0.45593999997E+02  0.45594000000E+02  0.51100000000E-03 0.  1.
    9900012    2    1    2    0    0  0.15137557358E+01 -0.38128833523E+02 -0.20676649638E+02  0.47787271406E+02  0.20000001648E+02 0.  0.
         12    1    1    2    0    0 -0.15137557358E+01  0.38128833523E+02  0.20676649638E+02  0.43400728594E+02  0.00000000000E+00 0. -1.
         11    1    3    3    0    0 -0.15609721858E+01 -0.59785327484E+01  0.17483508748E+01  0.64215433527E+01  0.51100000000E-03 0. -1.
        -11    1    3    3    0    0  0.51561506903E+01 -0.73094144382E+01 -0.20661018539E+01  0.91805341077E+01  0.51100000000E-03 0.  1.
        -12    1    3    3    0    0 -0.20814227688E+01 -0.24840886337E+02 -0.20358898658E+02  0.32185193946E+02  0.00000000000E+00 0.  1.
</event>
<event>
 7    1  0.2387817E-009  0.4778726E+02  0.7816164E-02  0.1312668E+00
        -11   -1    0    0    0    0  0.00000000000E+00  0.00000000000E+00  0.45593999997E+02  0.45594000000E+02  0.51100000000E-03 0. -1.
         11   -1    0    0    0    0 -0.00000000000E+00 -0.00000000000E+00 -0.45593999997E+02  0.45594000000E+02  0.51100000000E-03 0.  1.
    9900012    2    1    2    0    0 -0.15480581331E+01 -0.27375809981E+02 -0.33642122711E+02  0.47787264100E+02  0.19999968338E+02 0.  0.
         12    1    1    2    0    0  0.15480581331E+01  0.27375809981E+02  0.33642122711E+02  0.43400735900E+02  0.00000000000E+00 0. -1.
         11    1    3    3    0    0  0.37497461512E+01 -0.15992501275E+02 -0.17207009446E+02  0.23788692010E+02  0.51100000000E-03 0. -1.
        -11    1    3    3    0    0  0.17458209165E+01 -0.10147300801E+02 -0.88938988046E+01  0.13605772320E+02  0.51100000000E-03 0.  1.
         12    1    3    3    0    0 -0.70436252008E+01 -0.12360079056E+01 -0.75412144610E+01  0.10392799770E+02  0.00000000000E+00 0. -1.
</event>
<event>
 7    1  0.2387817E-009  0.4778727E+02  0.7816164E-02  0.1312668E+00
        -11   -1    0    0    0    0  0.00000000000E+00  0.00000000000E+00  0.45593999997E+02  0.45594000000E+02  0.51100000000E-03 0. -1.
         11   -1    0    0    0    0 -0.00000000000E+00 -0.00000000000E+00 -0.45593999997E+02  0.45594000000E+02  0.51100000000E-03 0.  1.
    9900012    2    1    2    0    0 -0.17039030591E+02  0.39435868540E+02 -0.61730840681E+01  0.47787271228E+02  0.20000000839E+02 0.  0.
         12    1    1    2    0    0  0.17039030591E+02 -0.39435868540E+02  0.61730840681E+01  0.43400728772E+02  0.00000000000E+00 0. -1.
         11    1    3    3    0    0 -0.33893313489E+01  0.11710589295E+02 -0.52311243452E+01  0.13266127197E+02  0.51100000000E-03 0. -1.
        -11    1    3    3    0    0 -0.16744117803E+02  0.25138127913E+02  0.58100066067E+00  0.30209742105E+02  0.51100000000E-03 0.  1.
        -12    1    3    3    0    0  0.30944185613E+01  0.25871513320E+01 -0.15229603836E+01  0.43114019271E+01  0.00000000000E+00 0.  1.
</event>
<event>
 7    1  0.2387817E-009  0.4778727E+02  0.7816164E-02  0.1312668E+00
        -11   -1    0    0    0    0  0.00000000000E+00  0.00000000000E+00  0.45593999997E+02  0.45594000000E+02  0.51100000000E-03 0. -1.
         11   -1    0    0    0    0 -0.00000000000E+00 -0.00000000000E+00 -0.45593999997E+02  0.45594000000E+02  0.51100000000E-03 0.  1.
    9900012    2    1    2    0    0 -0.27115562455E+02  0.33879250996E+02  0.75215586109E+00  0.47787272889E+02  0.20000008411E+02 0.  0.
         12    1    1    2    0    0  0.27115562455E+02 -0.33879250996E+02 -0.75215586109E+00  0.43400727111E+02  0.00000000000E+00 0. -1.
         11    1    3    3    0    0 -0.43306935210E+01 -0.18450847130E+00  0.30650936304E+01  0.53088368757E+01  0.51100000000E-03 0. -1.
        -11    1    3    3    0    0  0.10195342878E+01  0.86515777189E+00  0.71345932447E+00  0.15155766569E+01  0.51100000000E-03 0.  1.
        -12    1    3    3    0    0 -0.23804403222E+02  0.33198601696E+02 -0.30263970938E+01  0.40962859356E+02  0.00000000000E+00 0.  1.
</event>
<event>
 7    1  0.2387817E-009  0.4778726E+02  0.7816164E-02  0.1312668E+00
        -11   -1    0    0    0    0  0.00000000000E+00  0.00000000000E+00  0.45593999997E+02  0.45594000000E+02  0.51100000000E-03 0. -1.
         11   -1    0    0    0    0 -0.00000000000E+00 -0.00000000000E+00 -0.45593999997E+02  0.45594000000E+02  0.51100000000E-03 0.  1.
    9900012    2    1    2    0    0  0.32746065234E+02  0.28356950828E+02 -0.26838725658E+01  0.47787255531E+02  0.19999929266E+02 0.  0.
         12    1    1    2    0    0 -0.32746065234E+02 -0.28356950828E+02  0.26838725658E+01  0.43400744469E+02  0.00000000000E+00 0. -1.
         11    1    3    3    0    0  0.38056750477E+01  0.10624747371E+02  0.25792278202E+01  0.11576736832E+02  0.51100000000E-03 0. -1.
        -11    1    3    3    0    0  0.84232576706E+01  0.91249796168E+01 -0.63238118499E+01  0.13935821446E+02  0.51100000000E-03 0.  1.
         12    1    3    3    0    0  0.20517132516E+02  0.86072238400E+01  0.10607114639E+01  0.22274697253E+02  0.00000000000E+00 0. -1.
</event>
<event>
 7    1  0.2387817E-009  0.4778727E+02  0.7816164E-02  0.1312668E+00
        -11   -1    0    0    0    0  0.00000000000E+00  0.00000000000E+00  0.45593999997E+02  0.45594000000E+02  0.51100000000E-03 0.  1.
         11   -1    0    0    0    0 -0.00000000000E+00 -0.00000000000E+00 -0.45593999997E+02  0.45594000000E+02  0.51100000000E-03 0. -1.
    9900012    2    1    2    0    0  0.15356802188E+02  0.12535479435E+02  0.38608983185E+02  0.47787271888E+02  0.20000003844E+02 0.  0.
         12    1    1    2    0    0 -0.15356802188E+02 -0.12535479435E+02 -0.38608983185E+02  0.43400728112E+02  0.00000000000E+00 0. -1.
         11    1    3    3    0    0  0.57830106371E+01  0.57872363338E+01  0.63948998740E+01  0.10384125436E+02  0.51100000000E-03 0. -1.
        -11    1    3    3    0    0  0.95525490624E+01  0.10434482826E+02  0.19022737157E+02  0.23706415896E+02  0.51100000000E-03 0.  1.
         12    1    3    3    0    0  0.21242488468E-01 -0.36862397249E+01  0.13191346154E+02  0.13696730555E+02  0.00000000000E+00 0. -1.
</event>
<event>
 7    1  0.2387817E-009  0.4778727E+02  0.7816164E-02  0.1312668E+00
        -11   -1    0    0    0    0  0.00000000000E+00  0.00000000000E+00  0.45593999997E+02  0.45594000000E+02  0.51100000000E-03 0.  1.
         11   -1    0    0    0    0 -0.00000000000E+00 -0.00000000000E+00 -0.45593999997E+02  0.45594000000E+02  0.51100000000E-03 0. -1.
    9900012    2    1    2    0    0  0.16387120068E+02  0.34258356649E+02  0.21010725466E+02  0.47787270871E+02  0.19999999207E+02 0.  0.
         12    1    1    2    0    0 -0.16387120068E+02 -0.34258356649E+02 -0.21010725466E+02  0.43400729129E+02  0.00000000000E+00 0. -1.
         11    1    3    3    0    0  0.12039681565E+02  0.17748887571E+02  0.58545867310E+01  0.22231804430E+02  0.51100000000E-03 0. -1.
        -11    1    3    3    0    0  0.80164932578E+01  0.12256089820E+02  0.12849973884E+02  0.19483267973E+02  0.51100000000E-03 0.  1.
         12    1    3    3    0    0 -0.36690547550E+01  0.42533792579E+01  0.23061648503E+01  0.60721984671E+01  0.00000000000E+00 0. -1.
</event>
<event>
 7    1  0.2387817E-009  0.4778727E+02  0.7816164E-02  0.1312668E+00
        -11   -1    0    0    0    0  0.00000000000E+00  0.00000000000E+00  0.45593999997E+02  0.45594000000E+02  0.51100000000E-03 0.  1.
         11   -1    0    0    0    0 -0.00000000000E+00 -0.00000000000E+00 -0.45593999997E+02  0.45594000000E+02  0.51100000000E-03 0. -1.
    9900012    2    1    2    0    0  0.17303130602E+02  0.17821376420E+02  0.35589651686E+02  0.47787273125E+02  0.20000009486E+02 0.  0.
         12    1    1    2    0    0 -0.17303130602E+02 -0.17821376420E+02 -0.35589651686E+02  0.43400726875E+02  0.00000000000E+00 0. -1.
         11    1    3    3    0    0  0.19774788991E+01  0.44928275818E+01  0.14689885043E+01  0.51238510872E+01  0.51100000000E-03 0. -1.
        -11    1    3    3    0    0  0.17286512210E+02  0.14832001426E+02  0.28213853780E+02  0.36260630387E+02  0.51100000000E-03 0.  1.
         12    1    3    3    0    0 -0.19608605068E+01 -0.15034525882E+01  0.59068094023E+01  0.64027916511E+01  0.00000000000E+00 0. -1.
</event>
<event>
 7    1  0.2387817E-009  0.4778727E+02  0.7816164E-02  0.1312668E+00
        -11   -1    0    0    0    0  0.00000000000E+00  0.00000000000E+00  0.45593999997E+02  0.45594000000E+02  0.51100000000E-03 0.  1.
         11   -1    0    0    0    0 -0.00000000000E+00 -0.00000000000E+00 -0.45593999997E+02  0.45594000000E+02  0.51100000000E-03 0. -1.
    9900012    2    1    2    0    0 -0.27215853460E+02 -0.31912738425E+02  0.11157857911E+02  0.47787270208E+02  0.19999996187E+02 0.  0.
         12    1    1    2    0    0  0.27215853460E+02  0.31912738425E+02 -0.11157857911E+02  0.43400729792E+02  0.00000000000E+00 0. -1.
         11    1    3    3    0    0 -0.21256581759E+01 -0.30757371660E+01  0.26509621727E+01  0.45832502110E+01  0.51100000000E-03 0.  1.
        -11    1    3    3    0    0 -0.24366973530E+01 -0.28304163266E+01 -0.49339311471E+01  0.61880875396E+01  0.51100000000E-03 0. -1.
         12    1    3    3    0    0 -0.22653497931E+02 -0.26006584932E+02  0.13440826886E+02  0.37015932458E+02  0.00000000000E+00 0. -1.
</event>
<event>
 7    1  0.2387817E-009  0.4778727E+02  0.7816164E-02  0.1312668E+00
        -11   -1    0    0    0    0  0.00000000000E+00  0.00000000000E+00  0.45593999997E+02  0.45594000000E+02  0.51100000000E-03 0.  1.
         11   -1    0    0    0    0 -0.00000000000E+00 -0.00000000000E+00 -0.45593999997E+02  0.45594000000E+02  0.51100000000E-03 0. -1.
    9900012    2    1    2    0    0  0.34253987984E+02  0.26407600001E+02  0.35953005069E+01  0.47787271707E+02  0.20000003021E+02 0.  0.
         12    1    1    2    0    0 -0.34253987984E+02 -0.26407600001E+02 -0.35953005069E+01  0.43400728293E+02  0.00000000000E+00 0. -1.
         11    1    3    3    0    0  0.34625153718E+01  0.11670987997E-01  0.24034258016E+01  0.42149264237E+01  0.51100000000E-03 0. -1.
        -11    1    3    3    0    0  0.29894260196E+02  0.17844869398E+02 -0.45378198056E+00  0.34818272140E+02  0.51100000000E-03 0.  1.
         12    1    3    3    0    0  0.89721241622E+00  0.85510596155E+01  0.16456566858E+01  0.87540731432E+01  0.00000000000E+00 0. -1.
</event>
<event>
 7    1  0.2387817E-009  0.4778727E+02  0.7816164E-02  0.1312668E+00
        -11   -1    0    0    0    0  0.00000000000E+00  0.00000000000E+00  0.45593999997E+02  0.45594000000E+02  0.51100000000E-03 0.  1.
         11   -1    0    0    0    0 -0.00000000000E+00 -0.00000000000E+00 -0.45593999997E+02  0.45594000000E+02  0.51100000000E-03 0. -1.
    9900012    2    1    2    0    0 -0.21022153422E+02  0.35441695799E+02  0.13622720569E+02  0.47787271304E+02  0.20000001184E+02 0.  0.
         12    1    1    2    0    0  0.21022153422E+02 -0.35441695799E+02 -0.13622720569E+02  0.43400728696E+02  0.00000000000E+00 0. -1.
         11    1    3    3    0    0 -0.43242978341E+01  0.16897712681E+02 -0.45439443348E+00  0.17448172402E+02  0.51100000000E-03 0. -1.
        -11    1    3    3    0    0 -0.37983173865E+00  0.40656556407E+01  0.56093069977E+01  0.69381664145E+01  0.51100000000E-03 0.  1.
         12    1    3    3    0    0 -0.16318023849E+02  0.14478327477E+02  0.84678080051E+01  0.23400932488E+02  0.00000000000E+00 0. -1.
</event>
<event>
 7    1  0.2387817E-009  0.4778727E+02  0.7816164E-02  0.1312668E+00
        -11   -1    0    0    0    0  0.00000000000E+00  0.00000000000E+00  0.45593999997E+02  0.45594000000E+02  0.51100000000E-03 0.  1.
         11   -1    0    0    0    0 -0.00000000000E+00 -0.00000000000E+00 -0.45593999997E+02  0.45594000000E+02  0.51100000000E-03 0. -1.
    9900012    2    1    2    0    0 -0.91154047195E+01  0.41056217244E+02  0.10720060259E+02  0.47787271094E+02  0.20000000228E+02 0.  0.
         12    1    1    2    0    0  0.91154047195E+01 -0.41056217244E+02 -0.10720060259E+02  0.43400728906E+02  0.00000000000E+00 0. -1.
         11    1    3    3    0    0 -0.70406535458E+01  0.51737668046E+01 -0.21761972874E+01  0.90041379485E+01  0.51100000000E-03 0.  1.
        -11    1    3    3    0    0  0.76498939453E+00  0.40999646519E+01  0.36997214799E+01  0.55752002843E+01  0.51100000000E-03 0. -1.
        -12    1    3    3    0    0 -0.28397405682E+01  0.31782485787E+02  0.91965360665E+01  0.33207932862E+02  0.00000000000E+00 0.  1.
</event>
<event>
 7    1  0.2387817E-009  0.4778727E+02  0.7816164E-02  0.1312668E+00
        -11   -1    0    0    0    0  0.00000000000E+00  0.00000000000E+00  0.45593999997E+02  0.45594000000E+02  0.51100000000E-03 0.  1.
         11   -1    0    0    0    0 -0.00000000000E+00 -0.00000000000E+00 -0.45593999997E+02  0.45594000000E+02  0.51100000000E-03 0. -1.
    9900012    2    1    2    0    0 -0.29181431736E+02 -0.31883149906E+02  0.39410763734E+01  0.47787270869E+02  0.19999999201E+02 0.  0.
         12    1    1    2    0    0  0.29181431736E+02  0.31883149906E+02 -0.39410763734E+01  0.43400729131E+02  0.00000000000E+00 0. -1.
         11    1    3    3    0    0 -0.39726198004E+01  0.14532814752E+01 -0.17507702839E+00  0.42337202732E+01  0.51100000000E-03 0. -1.
        -11    1    3    3    0    0 -0.12505872475E+02 -0.12725183411E+02 -0.34812765942E+01  0.18178185449E+02  0.51100000000E-03 0.  1.
        -12    1    3    3    0    0 -0.12702939461E+02 -0.20611247970E+02  0.75974299960E+01  0.25375365147E+02  0.00000000000E+00 0.  1.
</event>
<event>
 7    1  0.2387817E-009  0.4778727E+02  0.7816164E-02  0.1312668E+00
        -11   -1    0    0    0    0  0.00000000000E+00  0.00000000000E+00  0.45593999997E+02  0.45594000000E+02  0.51100000000E-03 0. -1.
         11   -1    0    0    0    0 -0.00000000000E+00 -0.00000000000E+00 -0.45593999997E+02  0.45594000000E+02  0.51100000000E-03 0.  1.
    9900012    2    1    2    0    0  0.97981774631E+01 -0.38409671863E+02 -0.17672469932E+02  0.47787269963E+02  0.19999995071E+02 0.  0.
         12    1    1    2    0    0 -0.97981774631E+01  0.38409671863E+02  0.17672469932E+02  0.43400730037E+02  0.00000000000E+00 0. -1.
         11    1    3    3    0    0  0.17423293023E+01 -0.12527975637E+02  0.15666777702E+01  0.12745209471E+02  0.51100000000E-03 0. -1.
        -11    1    3    3    0    0 -0.34978937904E+00 -0.62419668633E+01  0.60868582965E-01  0.62520563160E+01  0.51100000000E-03 0.  1.
        -12    1    3    3    0    0  0.84056375398E+01 -0.19639729363E+02 -0.19300016285E+02  0.28790004177E+02  0.00000000000E+00 0.  1.
</event>
<event>
 7    1  0.2387817E-009  0.4778727E+02  0.7816164E-02  0.1312668E+00
        -11   -1    0    0    0    0  0.00000000000E+00  0.00000000000E+00  0.45593999997E+02  0.45594000000E+02  0.51100000000E-03 0.  1.
         11   -1    0    0    0    0 -0.00000000000E+00 -0.00000000000E+00 -0.45593999997E+02  0.45594000000E+02  0.51100000000E-03 0. -1.
    9900012    2    1    2    0    0  0.38120071566E+02  0.50564746126E+01  0.20122515880E+02  0.47787269164E+02  0.19999991428E+02 0.  0.
         12    1    1    2    0    0 -0.38120071566E+02 -0.50564746126E+01 -0.20122515880E+02  0.43400730836E+02  0.00000000000E+00 0. -1.
         11    1    3    3    0    0  0.54228956487E+01 -0.22607914226E+01 -0.51678181288E-01  0.58755124005E+01  0.51100000000E-03 0. -1.
        -11    1    3    3    0    0  0.85451760430E+01 -0.20460731392E+01  0.11751626049E+02  0.14673348764E+02  0.51100000000E-03 0.  1.
        -12    1    3    3    0    0  0.24151999875E+02  0.93633391744E+01  0.84225680125E+01  0.27238408000E+02  0.00000000000E+00 0.  1.
</event>
<event>
 7    1  0.2387817E-009  0.4778727E+02  0.7816164E-02  0.1312668E+00
        -11   -1    0    0    0    0  0.00000000000E+00  0.00000000000E+00  0.45593999997E+02  0.45594000000E+02  0.51100000000E-03 0.  1.
         11   -1    0    0    0    0 -0.00000000000E+00 -0.00000000000E+00 -0.45593999997E+02  0.45594000000E+02  0.51100000000E-03 0. -1.
    9900012    2    1    2    0    0  0.28179134111E+02  0.95518263645E+00  0.32994660100E+02  0.47787267653E+02  0.19999984538E+02 0.  0.
         12    1    1    2    0    0 -0.28179134111E+02 -0.95518263645E+00 -0.32994660100E+02  0.43400732347E+02  0.00000000000E+00 0. -1.
         11    1    3    3    0    0  0.15179043276E+02 -0.34945520411E+01  0.21776388264E+02  0.26773612659E+02  0.51100000000E-03 0. -1.
        -11    1    3    3    0    0  0.59677464654E+01  0.11904290581E+01  0.11762755657E+02  0.13243622621E+02  0.51100000000E-03 0.  1.
         12    1    3    3    0    0  0.70323443694E+01  0.32593056195E+01 -0.54448382042E+00  0.77700323733E+01  0.00000000000E+00 0. -1.
</event>
<event>
 7    1  0.2387817E-009  0.4778727E+02  0.7816164E-02  0.1312668E+00
        -11   -1    0    0    0    0  0.00000000000E+00  0.00000000000E+00  0.45593999997E+02  0.45594000000E+02  0.51100000000E-03 0.  1.
         11   -1    0    0    0    0 -0.00000000000E+00 -0.00000000000E+00 -0.45593999997E+02  0.45594000000E+02  0.51100000000E-03 0. -1.
    9900012    2    1    2    0    0 -0.29771439674E+02 -0.30418513748E+02  0.84852117929E+01  0.47787269383E+02  0.19999992425E+02 0.  0.
         12    1    1    2    0    0  0.29771439674E+02  0.30418513748E+02 -0.84852117929E+01  0.43400730617E+02  0.00000000000E+00 0. -1.
         11    1    3    3    0    0 -0.36833896376E+01 -0.57886859634E+01  0.57780806897E+01  0.89700870187E+01  0.51100000000E-03 0. -1.
        -11    1    3    3    0    0 -0.15590976425E+02 -0.11917896197E+02  0.84409872112E+01  0.21362702568E+02  0.51100000000E-03 0.  1.
         12    1    3    3    0    0 -0.10497073612E+02 -0.12711931587E+02 -0.57338561080E+01  0.17454479797E+02  0.00000000000E+00 0. -1.
</event>
<event>
 7    1  0.2387817E-009  0.4778727E+02  0.7816164E-02  0.1312668E+00
        -11   -1    0    0    0    0  0.00000000000E+00  0.00000000000E+00  0.45593999997E+02  0.45594000000E+02  0.51100000000E-03 0.  1.
         11   -1    0    0    0    0 -0.00000000000E+00 -0.00000000000E+00 -0.45593999997E+02  0.45594000000E+02  0.51100000000E-03 0. -1.
    9900012    2    1    2    0    0 -0.10578709008E+01  0.43002500591E+02 -0.57696684724E+01  0.47787271640E+02  0.20000002716E+02 0.  0.
         12    1    1    2    0    0  0.10578709008E+01 -0.43002500591E+02  0.57696684724E+01  0.43400728360E+02  0.00000000000E+00 0. -1.
         11    1    3    3    0    0  0.29877761772E+00  0.14410355188E+02  0.17470802927E+01  0.14518949498E+02  0.51100000000E-03 0.  1.
        -11    1    3    3    0    0 -0.33087359469E+00  0.24422522856E+02  0.21332734158E+00  0.24425695666E+02  0.51100000000E-03 0. -1.
         12    1    3    3    0    0 -0.10257749238E+01  0.41696225469E+01 -0.77300761067E+01  0.88426264759E+01  0.00000000000E+00 0. -1.
</event>
<event>
 7    1  0.2387817E-009  0.4778727E+02  0.7816164E-02  0.1312668E+00
        -11   -1    0    0    0    0  0.00000000000E+00  0.00000000000E+00  0.45593999997E+02  0.45594000000E+02  0.51100000000E-03 0.  1.
         11   -1    0    0    0    0 -0.00000000000E+00 -0.00000000000E+00 -0.45593999997E+02  0.45594000000E+02  0.51100000000E-03 0. -1.
    9900012    2    1    2    0    0 -0.32117461238E+02 -0.18666470307E+02  0.22442251563E+02  0.47787273217E+02  0.20000009905E+02 0.  0.
         12    1    1    2    0    0  0.32117461238E+02  0.18666470307E+02 -0.22442251563E+02  0.43400726783E+02  0.00000000000E+00 0. -1.
         11    1    3    3    0    0 -0.22613212578E+02 -0.70320206108E+01  0.12841941601E+02  0.26939230897E+02  0.51100000000E-03 0. -1.
        -11    1    3    3    0    0 -0.97039584684E+01 -0.50416062778E+01  0.91118225501E+01  0.14234110940E+02  0.51100000000E-03 0.  1.
         12    1    3    3    0    0  0.19970980803E+00 -0.65928434185E+01  0.48848741114E+00  0.66139313800E+01  0.00000000000E+00 0. -1.
</event>
<event>
 7    1  0.2387817E-009  0.4778727E+02  0.7816164E-02  0.1312668E+00
        -11   -1    0    0    0    0  0.00000000000E+00  0.00000000000E+00  0.45593999997E+02  0.45594000000E+02  0.51100000000E-03 0. -1.
         11   -1    0    0    0    0 -0.00000000000E+00 -0.00000000000E+00 -0.45593999997E+02  0.45594000000E+02  0.51100000000E-03 0.  1.
    9900012    2    1    2    0    0  0.42986135549E+02  0.38528977706E+01 -0.45793406327E+01  0.47787273839E+02  0.20000012740E+02 0.  0.
         12    1    1    2    0    0 -0.42986135549E+02 -0.38528977706E+01  0.45793406327E+01  0.43400726161E+02  0.00000000000E+00 0. -1.
         11    1    3    3    0    0  0.10178454770E+02  0.48903044120E+00  0.40982670394E+01  0.10983436860E+02  0.51100000000E-03 0. -1.
        -11    1    3    3    0    0  0.11714959459E+02  0.53539255279E+01  0.20726120967E+01  0.13046091938E+02  0.51100000000E-03 0.  1.
        -12    1    3    3    0    0  0.21092721320E+02 -0.19900581984E+01 -0.10750219769E+02  0.23757745040E+02  0.00000000000E+00 0.  1.
</event>
<event>
 7    1  0.2387817E-009  0.4778728E+02  0.7816164E-02  0.1312668E+00
        -11   -1    0    0    0    0  0.00000000000E+00  0.00000000000E+00  0.45593999997E+02  0.45594000000E+02  0.51100000000E-03 0.  1.
         11   -1    0    0    0    0 -0.00000000000E+00 -0.00000000000E+00 -0.45593999997E+02  0.45594000000E+02  0.51100000000E-03 0. -1.
    9900012    2    1    2    0    0 -0.25632996385E+02  0.23497275169E+02  0.25970176389E+02  0.47787279894E+02  0.20000040348E+02 0.  0.
         12    1    1    2    0    0  0.25632996385E+02 -0.23497275169E+02 -0.25970176389E+02  0.43400720106E+02  0.00000000000E+00 0. -1.
         11    1    3    3    0    0 -0.14213380047E+02  0.11077468305E+02  0.19064656170E+02  0.26233406023E+02  0.51100000000E-03 0.  1.
        -11    1    3    3    0    0 -0.27693126813E+01  0.92002869057E+01  0.76674880488E+01  0.12292467007E+02  0.51100000000E-03 0. -1.
         12    1    3    3    0    0 -0.86503036575E+01  0.32195199590E+01 -0.76196783044E+00  0.92614068643E+01  0.00000000000E+00 0. -1.
</event>
<event>
 7    1  0.2387817E-009  0.4778727E+02  0.7816164E-02  0.1312668E+00
        -11   -1    0    0    0    0  0.00000000000E+00  0.00000000000E+00  0.45593999997E+02  0.45594000000E+02  0.51100000000E-03 0.  1.
         11   -1    0    0    0    0 -0.00000000000E+00 -0.00000000000E+00 -0.45593999997E+02  0.45594000000E+02  0.51100000000E-03 0. -1.
    9900012    2    1    2    0    0 -0.14105214473E+02 -0.27538135239E+01  0.40952204534E+02  0.47787267051E+02  0.19999981793E+02 0.  0.
         12    1    1    2    0    0  0.14105214473E+02  0.27538135239E+01 -0.40952204534E+02  0.43400732949E+02  0.00000000000E+00 0. -1.
         11    1    3    3    0    0  0.10767744015E+01 -0.80986583681E+00  0.46355965339E+01  0.48274300898E+01  0.51100000000E-03 0. -1.
        -11    1    3    3    0    0 -0.51544535313E+01 -0.25254172208E+01  0.50016451528E+00  0.57616220068E+01  0.51100000000E-03 0.  1.
        -12    1    3    3    0    0 -0.10027535343E+02  0.58146953363E+00  0.35816443485E+02  0.37198214955E+02  0.00000000000E+00 0.  1.
</event>
<event>
 7    1  0.2387817E-009  0.4778727E+02  0.7816164E-02  0.1312668E+00
        -11   -1    0    0    0    0  0.00000000000E+00  0.00000000000E+00  0.45593999997E+02  0.45594000000E+02  0.51100000000E-03 0.  1.
         11   -1    0    0    0    0 -0.00000000000E+00 -0.00000000000E+00 -0.45593999997E+02  0.45594000000E+02  0.51100000000E-03 0. -1.
    9900012    2    1    2    0    0  0.62967542614E+01  0.34552435384E+02  0.25497125011E+02  0.47787270869E+02  0.19999999202E+02 0.  0.
         12    1    1    2    0    0 -0.62967542614E+01 -0.34552435384E+02 -0.25497125011E+02  0.43400729131E+02  0.00000000000E+00 0. -1.
         11    1    3    3    0    0  0.12788789382E+01 -0.23011075288E+00  0.10301216392E+01  0.16582017820E+01  0.51100000000E-03 0. -1.
        -11    1    3    3    0    0 -0.27632258762E+01  0.20069172066E+02  0.57010372924E+01  0.21045401187E+02  0.51100000000E-03 0.  1.
        -12    1    3    3    0    0  0.77811011994E+01  0.14713374072E+02  0.18765966080E+02  0.25083667901E+02  0.00000000000E+00 0.  1.
</event>
<event>
 7    1  0.2387817E-009  0.4778733E+02  0.7816164E-02  0.1312667E+00
        -11   -1    0    0    0    0  0.00000000000E+00  0.00000000000E+00  0.45593999997E+02  0.45594000000E+02  0.51100000000E-03 0. -1.
         11   -1    0    0    0    0 -0.00000000000E+00 -0.00000000000E+00 -0.45593999997E+02  0.45594000000E+02  0.51100000000E-03 0.  1.
    9900012    2    1    2    0    0 -0.16122571637E+02  0.30323912498E+02 -0.26535652021E+02  0.47787333951E+02  0.20000286812E+02 0.  0.
         12    1    1    2    0    0  0.16122571637E+02 -0.30323912498E+02  0.26535652021E+02  0.43400666049E+02  0.00000000000E+00 0. -1.
         11    1    3    3    0    0 -0.52623736112E+01  0.58202195746E+01 -0.29396975934E+01  0.83791022264E+01  0.51100000000E-03 0. -1.
        -11    1    3    3    0    0 -0.12720333825E+02  0.12666832784E+02 -0.20050831215E+02  0.26912662040E+02  0.51100000000E-03 0.  1.
         12    1    3    3    0    0  0.18601357991E+01  0.11836860139E+02 -0.35451232125E+01  0.12495569684E+02  0.00000000000E+00 0. -1.
</event>
<event>
 7    1  0.2387817E-009  0.4778727E+02  0.7816164E-02  0.1312668E+00
        -11   -1    0    0    0    0  0.00000000000E+00  0.00000000000E+00  0.45593999997E+02  0.45594000000E+02  0.51100000000E-03 0.  1.
         11   -1    0    0    0    0 -0.00000000000E+00 -0.00000000000E+00 -0.45593999997E+02  0.45594000000E+02  0.51100000000E-03 0. -1.
    9900012    2    1    2    0    0  0.35783182847E+02 -0.23847145173E+02 -0.58737268703E+01  0.47787272184E+02  0.20000005198E+02 0.  0.
         12    1    1    2    0    0 -0.35783182847E+02  0.23847145173E+02  0.58737268703E+01  0.43400727816E+02  0.00000000000E+00 0. -1.
         11    1    3    3    0    0  0.14689379737E+02 -0.13898935720E+02 -0.10371789151E+01  0.20249297064E+02  0.51100000000E-03 0. -1.
        -11    1    3    3    0    0  0.20837069723E+02 -0.40826915310E+01 -0.35594869908E+01  0.21529556258E+02  0.51100000000E-03 0.  1.
         12    1    3    3    0    0  0.25673338730E+00 -0.58655179219E+01 -0.12770609644E+01  0.60084188628E+01  0.00000000000E+00 0. -1.
</event>
<event>
 7    1  0.2387817E-009  0.4778727E+02  0.7816164E-02  0.1312668E+00
        -11   -1    0    0    0    0  0.00000000000E+00  0.00000000000E+00  0.45593999997E+02  0.45594000000E+02  0.51100000000E-03 0. -1.
         11   -1    0    0    0    0 -0.00000000000E+00 -0.00000000000E+00 -0.45593999997E+02  0.45594000000E+02  0.51100000000E-03 0.  1.
    9900012    2    1    2    0    0  0.21289921229E+02  0.17996900184E+02 -0.33263704784E+02  0.47787271686E+02  0.20000002926E+02 0.  0.
         12    1    1    2    0    0 -0.21289921229E+02 -0.17996900184E+02  0.33263704784E+02  0.43400728314E+02  0.00000000000E+00 0. -1.
         11    1    3    3    0    0  0.14292609288E+02  0.20653847334E+01 -0.16445259437E+02  0.21885864218E+02  0.51100000000E-03 0.  1.
        -11    1    3    3    0    0  0.38809396073E+01  0.45295476131E+00 -0.34788788945E+01  0.52315828270E+01  0.51100000000E-03 0. -1.
        -12    1    3    3    0    0  0.31163723337E+01  0.15478560689E+02 -0.13339566453E+02  0.20669824641E+02  0.00000000000E+00 0.  1.
</event>
<event>
 7    1  0.2387817E-009  0.4778727E+02  0.7816164E-02  0.1312668E+00
        -11   -1    0    0    0    0  0.00000000000E+00  0.00000000000E+00  0.45593999997E+02  0.45594000000E+02  0.51100000000E-03 0.  1.
         11   -1    0    0    0    0 -0.00000000000E+00 -0.00000000000E+00 -0.45593999997E+02  0.45594000000E+02  0.51100000000E-03 0. -1.
    9900012    2    1    2    0    0  0.63845344969E+01  0.42469541428E+02 -0.62609042314E+01  0.47787272453E+02  0.20000006422E+02 0.  0.
         12    1    1    2    0    0 -0.63845344969E+01 -0.42469541428E+02  0.62609042314E+01  0.43400727547E+02  0.00000000000E+00 0. -1.
         11    1    3    3    0    0  0.45647531460E+01  0.19431755509E+01  0.11553950481E+01  0.50939022845E+01  0.51100000000E-03 0. -1.
        -11    1    3    3    0    0  0.43097246794E+00  0.72361596043E+01  0.29091907744E+01  0.78109624446E+01  0.51100000000E-03 0.  1.
         12    1    3    3    0    0  0.13888088830E+01  0.33290206272E+02 -0.10325490054E+02  0.34882407724E+02  0.00000000000E+00 0. -1.
</event>
<event>
 7    1  0.2387817E-009  0.4778727E+02  0.7816164E-02  0.1312668E+00
        -11   -1    0    0    0    0  0.00000000000E+00  0.00000000000E+00  0.45593999997E+02  0.45594000000E+02  0.51100000000E-03 0. -1.
         11   -1    0    0    0    0 -0.00000000000E+00 -0.00000000000E+00 -0.45593999997E+02  0.45594000000E+02  0.51100000000E-03 0.  1.
    9900012    2    1    2    0    0 -0.36860593888E+02  0.22487124323E+02 -0.43873777226E+01  0.47787271603E+02  0.20000002548E+02 0.  0.
         12    1    1    2    0    0  0.36860593888E+02 -0.22487124323E+02  0.43873777226E+01  0.43400728397E+02  0.00000000000E+00 0. -1.
         11    1    3    3    0    0 -0.69612510638E+01  0.11410394433E+02  0.20158806538E+00  0.13367750577E+02  0.51100000000E-03 0. -1.
        -11    1    3    3    0    0 -0.10406282300E+02  0.90194080726E+01  0.16016982128E+01  0.13863833190E+02  0.51100000000E-03 0.  1.
         12    1    3    3    0    0 -0.19493060524E+02  0.20573218177E+01 -0.61906640008E+01  0.20555687836E+02  0.00000000000E+00 0. -1.
</event>
<event>
 7    1  0.2387817E-009  0.4778727E+02  0.7816164E-02  0.1312668E+00
        -11   -1    0    0    0    0  0.00000000000E+00  0.00000000000E+00  0.45593999997E+02  0.45594000000E+02  0.51100000000E-03 0.  1.
         11   -1    0    0    0    0 -0.00000000000E+00 -0.00000000000E+00 -0.45593999997E+02  0.45594000000E+02  0.51100000000E-03 0. -1.
    9900012    2    1    2    0    0  0.32336595195E+02 -0.11900019245E+02  0.26388586231E+02  0.47787270397E+02  0.19999997048E+02 0.  0.
         12    1    1    2    0    0 -0.32336595195E+02  0.11900019245E+02 -0.26388586231E+02  0.43400729603E+02  0.00000000000E+00 0. -1.
         11    1    3    3    0    0  0.18663894100E+02 -0.33440486195E+01  0.85870122002E+01  0.20814907709E+02  0.51100000000E-03 0.  1.
        -11    1    3    3    0    0  0.97241237060E+01 -0.97191515899E+01  0.70310289233E+01  0.15442015978E+02  0.51100000000E-03 0. -1.
         12    1    3    3    0    0  0.39485773887E+01  0.11631809640E+01  0.10770545107E+02  0.11530346710E+02  0.00000000000E+00 0. -1.
</event>
<event>
 7    1  0.2387817E-009  0.4778727E+02  0.7816164E-02  0.1312668E+00
        -11   -1    0    0    0    0  0.00000000000E+00  0.00000000000E+00  0.45593999997E+02  0.45594000000E+02  0.51100000000E-03 0.  1.
         11   -1    0    0    0    0 -0.00000000000E+00 -0.00000000000E+00 -0.45593999997E+02  0.45594000000E+02  0.51100000000E-03 0. -1.
    9900012    2    1    2    0    0 -0.11556938997E+02  0.40560192383E+02  0.10243602705E+02  0.47787269113E+02  0.19999991194E+02 0.  0.
         12    1    1    2    0    0  0.11556938997E+02 -0.40560192383E+02 -0.10243602705E+02  0.43400730887E+02  0.00000000000E+00 0. -1.
         11    1    3    3    0    0  0.23510876955E+01  0.74908804409E+01  0.26823390178E+01  0.82967370695E+01  0.51100000000E-03 0. -1.
        -11    1    3    3    0    0  0.26507887334E+01  0.55590316685E+01 -0.10475827623E+01  0.62471548648E+01  0.51100000000E-03 0.  1.
        -12    1    3    3    0    0 -0.16558815426E+02  0.27510280274E+02  0.86088464497E+01  0.33243377179E+02  0.00000000000E+00 0.  1.
</event>
<event>
 7    1  0.2387817E-009  0.4778727E+02  0.7816164E-02  0.1312668E+00
        -11   -1    0    0    0    0  0.00000000000E+00  0.00000000000E+00  0.45593999997E+02  0.45594000000E+02  0.51100000000E-03 0.  1.
         11   -1    0    0    0    0 -0.00000000000E+00 -0.00000000000E+00 -0.45593999997E+02  0.45594000000E+02  0.51100000000E-03 0. -1.
    9900012    2    1    2    0    0  0.11693998835E+02 -0.29248112498E+01  0.41693155040E+02  0.47787270665E+02  0.19999998269E+02 0.  0.
         12    1    1    2    0    0 -0.11693998835E+02  0.29248112498E+01 -0.41693155040E+02  0.43400729335E+02  0.00000000000E+00 0. -1.
         11    1    3    3    0    0 -0.65567331585E+00 -0.16129715293E+01  0.23578150267E-01  0.17413043507E+01  0.51100000000E-03 0. -1.
        -11    1    3    3    0    0 -0.22783281994E+01 -0.89930428277E+00  0.18365934719E+02  0.18528547863E+02  0.51100000000E-03 0.  1.
        -12    1    3    3    0    0  0.14628000350E+02 -0.41253543770E+00  0.23303642171E+02  0.27517418451E+02  0.00000000000E+00 0.  1.
</event>
<event>
 7    1  0.2387817E-009  0.4778727E+02  0.7816164E-02  0.1312668E+00
        -11   -1    0    0    0    0  0.00000000000E+00  0.00000000000E+00  0.45593999997E+02  0.45594000000E+02  0.51100000000E-03 0.  1.
         11   -1    0    0    0    0 -0.00000000000E+00 -0.00000000000E+00 -0.45593999997E+02  0.45594000000E+02  0.51100000000E-03 0. -1.
    9900012    2    1    2    0    0 -0.35245281467E+02 -0.23778947871E+02 -0.87152119871E+01  0.47787272500E+02  0.20000006638E+02 0.  0.
         12    1    1    2    0    0  0.35245281467E+02  0.23778947871E+02  0.87152119871E+01  0.43400727500E+02  0.00000000000E+00 0. -1.
         11    1    3    3    0    0  0.63193237599E+00 -0.50532201848E+01  0.63883383678E+00  0.51324927370E+01  0.51100000000E-03 0. -1.
        -11    1    3    3    0    0 -0.85261317492E+01 -0.23992528138E+01 -0.58375116170E+01  0.10607915856E+02  0.51100000000E-03 0.  1.
        -12    1    3    3    0    0 -0.27351082094E+02 -0.16326474872E+02 -0.35165342069E+01  0.32046863907E+02  0.00000000000E+00 0.  1.
</event>
<event>
 7    1  0.2387817E-009  0.4778727E+02  0.7816164E-02  0.1312668E+00
        -11   -1    0    0    0    0  0.00000000000E+00  0.00000000000E+00  0.45593999997E+02  0.45594000000E+02  0.51100000000E-03 0. -1.
         11   -1    0    0    0    0 -0.00000000000E+00 -0.00000000000E+00 -0.45593999997E+02  0.45594000000E+02  0.51100000000E-03 0.  1.
    9900012    2    1    2    0    0  0.35522495505E+02 -0.24888369968E+02 -0.15312398615E+01  0.47787270259E+02  0.19999996417E+02 0.  0.
         12    1    1    2    0    0 -0.35522495505E+02  0.24888369968E+02  0.15312398615E+01  0.43400729741E+02  0.00000000000E+00 0. -1.
         11    1    3    3    0    0  0.33837459329E+01  0.22854580879E+01 -0.49546126819E+00  0.41132149639E+01  0.51100000000E-03 0. -1.
        -11    1    3    3    0    0  0.81482736802E+01 -0.37046728787E+01 -0.43458888446E+01  0.99501615674E+01  0.51100000000E-03 0.  1.
        -12    1    3    3    0    0  0.23990475892E+02 -0.23469155177E+02  0.33101102513E+01  0.33723893727E+02  0.00000000000E+00 0.  1.
</event>
<event>
 7    1  0.2387817E-009  0.4778727E+02  0.7816164E-02  0.1312668E+00
        -11   -1    0    0    0    0  0.00000000000E+00  0.00000000000E+00  0.45593999997E+02  0.45594000000E+02  0.51100000000E-03 0.  1.
         11   -1    0    0    0    0 -0.00000000000E+00 -0.00000000000E+00 -0.45593999997E+02  0.45594000000E+02  0.51100000000E-03 0. -1.
    9900012    2    1    2    0    0 -0.36874141028E+02 -0.54698339183E+01  0.22226155137E+02  0.47787270377E+02  0.19999996955E+02 0.  0.
         12    1    1    2    0    0  0.36874141028E+02  0.54698339183E+01 -0.22226155137E+02  0.43400729623E+02  0.00000000000E+00 0. -1.
         11    1    3    3    0    0 -0.44657986070E+01 -0.59265459023E+01  0.83253999305E+01  0.11152559697E+02  0.51100000000E-03 0. -1.
        -11    1    3    3    0    0 -0.40853279865E+01  0.35365838481E+01  0.23455747517E+01  0.58905900595E+01  0.51100000000E-03 0.  1.
        -12    1    3    3    0    0 -0.28323014435E+02 -0.30798718641E+01  0.11555180455E+02  0.30744120620E+02  0.00000000000E+00 0.  1.
</event>
<event>
 7    1  0.2387817E-009  0.4778727E+02  0.7816164E-02  0.1312668E+00
        -11   -1    0    0    0    0  0.00000000000E+00  0.00000000000E+00  0.45593999997E+02  0.45594000000E+02  0.51100000000E-03 0. -1.
         11   -1    0    0    0    0 -0.00000000000E+00 -0.00000000000E+00 -0.45593999997E+02  0.45594000000E+02  0.51100000000E-03 0.  1.
    9900012    2    1    2    0    0 -0.21546028742E+02 -0.10972331399E+02 -0.36041641891E+02  0.47787270040E+02  0.19999995420E+02 0.  0.
         12    1    1    2    0    0  0.21546028742E+02  0.10972331399E+02  0.36041641891E+02  0.43400729960E+02  0.00000000000E+00 0. -1.
         11    1    3    3    0    0 -0.15128123596E+01  0.21229083224E+01 -0.80930860032E+01  0.85025515168E+01  0.51100000000E-03 0. -1.
        -11    1    3    3    0    0  0.17661347648E+01  0.59705074671E+00 -0.19319121880E+01  0.26847693690E+01  0.51100000000E-03 0.  1.
        -12    1    3    3    0    0 -0.21799351147E+02 -0.13692290468E+02 -0.26016643700E+02  0.36599949154E+02  0.00000000000E+00 0.  1.
</event>
<event>
 7    1  0.2387817E-009  0.4778727E+02  0.7816164E-02  0.1312668E+00
        -11   -1    0    0    0    0  0.00000000000E+00  0.00000000000E+00  0.45593999997E+02  0.45594000000E+02  0.51100000000E-03 0.  1.
         11   -1    0    0    0    0 -0.00000000000E+00 -0.00000000000E+00 -0.45593999997E+02  0.45594000000E+02  0.51100000000E-03 0. -1.
    9900012    2    1    2    0    0 -0.19466606802E+02  0.12701382013E+01  0.38769332396E+02  0.47787272289E+02  0.20000005673E+02 0.  0.
         12    1    1    2    0    0  0.19466606802E+02 -0.12701382013E+01 -0.38769332396E+02  0.43400727711E+02  0.00000000000E+00 0. -1.
         11    1    3    3    0    0 -0.11989241299E+02  0.22790285468E+01  0.10177592612E+02  0.15890854907E+02  0.51100000000E-03 0. -1.
        -11    1    3    3    0    0  0.18379632936E+01  0.79780771413E+00  0.26313510826E+00  0.20208529297E+01  0.51100000000E-03 0.  1.
        -12    1    3    3    0    0 -0.93153287972E+01 -0.18066980597E+01  0.28328604675E+02  0.29875564452E+02  0.00000000000E+00 0.  1.
</event>
<event>
 7    1  0.2387817E-009  0.4778727E+02  0.7816164E-02  0.1312668E+00
        -11   -1    0    0    0    0  0.00000000000E+00  0.00000000000E+00  0.45593999997E+02  0.45594000000E+02  0.51100000000E-03 0.  1.
         11   -1    0    0    0    0 -0.00000000000E+00 -0.00000000000E+00 -0.45593999997E+02  0.45594000000E+02  0.51100000000E-03 0. -1.
    9900012    2    1    2    0    0  0.85756117588E+01  0.33647490599E+02  0.26037066066E+02  0.47787267864E+02  0.19999985498E+02 0.  0.
         12    1    1    2    0    0 -0.85756117588E+01 -0.33647490599E+02 -0.26037066066E+02  0.43400732136E+02  0.00000000000E+00 0. -1.
         11    1    3    3    0    0  0.16409789409E+01  0.10176212791E+02  0.72521200127E-01  0.10307927931E+02  0.51100000000E-03 0. -1.
        -11    1    3    3    0    0  0.87914368945E+01  0.11934594543E+02  0.10825863997E+02  0.18355468970E+02  0.51100000000E-03 0.  1.
        -12    1    3    3    0    0 -0.18568040766E+01  0.11536683265E+02  0.15138680869E+02  0.19123870963E+02  0.00000000000E+00 0.  1.
</event>
<event>
 7    1  0.2387817E-009  0.4778729E+02  0.7816164E-02  0.1312668E+00
        -11   -1    0    0    0    0  0.00000000000E+00  0.00000000000E+00  0.45593999997E+02  0.45594000000E+02  0.51100000000E-03 0.  1.
         11   -1    0    0    0    0 -0.00000000000E+00 -0.00000000000E+00 -0.45593999997E+02  0.45594000000E+02  0.51100000000E-03 0. -1.
    9900012    2    1    2    0    0 -0.15838603724E+02  0.24894675254E+02  0.31827904675E+02  0.47787288717E+02  0.20000080574E+02 0.  0.
         12    1    1    2    0    0  0.15838603724E+02 -0.24894675254E+02 -0.31827904675E+02  0.43400711283E+02  0.00000000000E+00 0. -1.
         11    1    3    3    0    0 -0.61886757766E+01  0.92520614092E+01  0.10263050915E+02  0.15140362034E+02  0.51100000000E-03 0. -1.
        -11    1    3    3    0    0 -0.45967398627E+01  0.17845850756E+02  0.13358014611E+02  0.22760513201E+02  0.51100000000E-03 0.  1.
         12    1    3    3    0    0 -0.50531880844E+01 -0.22032369111E+01  0.82068391492E+01  0.98864134813E+01  0.00000000000E+00 0. -1.
</event>
<event>
 7    1  0.2387817E-009  0.4778727E+02  0.7816164E-02  0.1312668E+00
        -11   -1    0    0    0    0  0.00000000000E+00  0.00000000000E+00  0.45593999997E+02  0.45594000000E+02  0.51100000000E-03 0.  1.
         11   -1    0    0    0    0 -0.00000000000E+00 -0.00000000000E+00 -0.45593999997E+02  0.45594000000E+02  0.51100000000E-03 0. -1.
    9900012    2    1    2    0    0  0.38317323230E+02 -0.17560627845E+02  0.10345552945E+02  0.47787269873E+02  0.19999994660E+02 0.  0.
         12    1    1    2    0    0 -0.38317323230E+02  0.17560627845E+02 -0.10345552945E+02  0.43400730127E+02  0.00000000000E+00 0. -1.
         11    1    3    3    0    0  0.35826250712E+01 -0.10010152778E+01 -0.35267916593E+01  0.51259627053E+01  0.51100000000E-03 0. -1.
        -11    1    3    3    0    0  0.19909239633E+02 -0.35955114058E+01  0.39676345016E+01  0.20616683750E+02  0.51100000000E-03 0.  1.
        -12    1    3    3    0    0  0.14825458525E+02 -0.12964101162E+02  0.99047101031E+01  0.22044623418E+02  0.00000000000E+00 0.  1.
</event>
<event>
 7    1  0.2387817E-009  0.4778727E+02  0.7816164E-02  0.1312668E+00
        -11   -1    0    0    0    0  0.00000000000E+00  0.00000000000E+00  0.45593999997E+02  0.45594000000E+02  0.51100000000E-03 0.  1.
         11   -1    0    0    0    0 -0.00000000000E+00 -0.00000000000E+00 -0.45593999997E+02  0.45594000000E+02  0.51100000000E-03 0. -1.
    9900012    2    1    2    0    0  0.19330438070E+02  0.17829060505E+02  0.34526545115E+02  0.47787267840E+02  0.19999985389E+02 0.  0.
         12    1    1    2    0    0 -0.19330438070E+02 -0.17829060505E+02 -0.34526545115E+02  0.43400732160E+02  0.00000000000E+00 0. -1.
         11    1    3    3    0    0  0.76528957680E+01  0.94433069323E+01  0.90802613237E+01  0.15172145709E+02  0.51100000000E-03 0. -1.
        -11    1    3    3    0    0  0.10203444205E+02  0.11637154696E+02  0.24400846960E+02  0.28895241402E+02  0.51100000000E-03 0.  1.
         12    1    3    3    0    0  0.14740980966E+01 -0.32514011235E+01  0.10454368311E+01  0.37198807282E+01  0.00000000000E+00 0. -1.
</event>
<event>
 7    1  0.2387817E-009  0.4778727E+02  0.7816164E-02  0.1312668E+00
        -11   -1    0    0    0    0  0.00000000000E+00  0.00000000000E+00  0.45593999997E+02  0.45594000000E+02  0.51100000000E-03 0.  1.
         11   -1    0    0    0    0 -0.00000000000E+00 -0.00000000000E+00 -0.45593999997E+02  0.45594000000E+02  0.51100000000E-03 0. -1.
    9900012    2    1    2    0    0  0.67869773306E+01  0.42850341365E+02  0.11867714176E+01  0.47787271402E+02  0.20000001632E+02 0.  0.
         12    1    1    2    0    0 -0.67869773306E+01 -0.42850341365E+02 -0.11867714176E+01  0.43400728598E+02  0.00000000000E+00 0. -1.
         11    1    3    3    0    0 -0.39142681339E+01  0.88185700820E+01  0.24805496210E+01  0.99620178678E+01  0.51100000000E-03 0. -1.
        -11    1    3    3    0    0 -0.14444507004E+00  0.19540095903E+02  0.10748578524E+01  0.19570169441E+02  0.51100000000E-03 0.  1.
         12    1    3    3    0    0  0.10845690535E+02  0.14491675380E+02 -0.23686360558E+01  0.18255084093E+02  0.00000000000E+00 0. -1.
</event>
<event>
 7    1  0.2387817E-009  0.4778727E+02  0.7816164E-02  0.1312668E+00
        -11   -1    0    0    0    0  0.00000000000E+00  0.00000000000E+00  0.45593999997E+02  0.45594000000E+02  0.51100000000E-03 0.  1.
         11   -1    0    0    0    0 -0.00000000000E+00 -0.00000000000E+00 -0.45593999997E+02  0.45594000000E+02  0.51100000000E-03 0. -1.
    9900012    2    1    2    0    0 -0.92926271971E+01  0.12160198208E+02  0.40612805956E+02  0.47787270187E+02  0.19999996090E+02 0.  0.
         12    1    1    2    0    0  0.92926271971E+01 -0.12160198208E+02 -0.40612805956E+02  0.43400729813E+02  0.00000000000E+00 0. -1.
         11    1    3    3    0    0  0.34498953394E+01 -0.89324816212E+00  0.19647667956E+01  0.40693954041E+01  0.51100000000E-03 0. -1.
        -11    1    3    3    0    0  0.10570913378E+01  0.30758153025E+01  0.44188790713E+01  0.54867635614E+01  0.51100000000E-03 0.  1.
        -12    1    3    3    0    0 -0.13799613874E+02  0.99776310682E+01  0.34229160089E+02  0.38231111221E+02  0.00000000000E+00 0.  1.
</event>
<event>
 7    1  0.2387817E-009  0.4778727E+02  0.7816164E-02  0.1312668E+00
        -11   -1    0    0    0    0  0.00000000000E+00  0.00000000000E+00  0.45593999997E+02  0.45594000000E+02  0.51100000000E-03 0. -1.
         11   -1    0    0    0    0 -0.00000000000E+00 -0.00000000000E+00 -0.45593999997E+02  0.45594000000E+02  0.51100000000E-03 0.  1.
    9900012    2    1    2    0    0 -0.93864671711E+01 -0.37541340080E+02 -0.19651092143E+02  0.47787269553E+02  0.19999993199E+02 0.  0.
         12    1    1    2    0    0  0.93864671711E+01  0.37541340080E+02  0.19651092143E+02  0.43400730447E+02  0.00000000000E+00 0. -1.
         11    1    3    3    0    0  0.65563309044E+00 -0.30324923675E+02 -0.11466152516E+02  0.32426894769E+02  0.51100000000E-03 0.  1.
        -11    1    3    3    0    0 -0.29986819189E+00 -0.19084794351E+00 -0.16472730327E+01  0.16851862139E+01  0.51100000000E-03 0. -1.
        -12    1    3    3    0    0 -0.97422320697E+01 -0.70255684619E+01 -0.65376665942E+01  0.13675188569E+02  0.00000000000E+00 0.  1.
</event>
<event>
 7    1  0.2387817E-009  0.4778727E+02  0.7816164E-02  0.1312668E+00
        -11   -1    0    0    0    0  0.00000000000E+00  0.00000000000E+00  0.45593999997E+02  0.45594000000E+02  0.51100000000E-03 0. -1.
         11   -1    0    0    0    0 -0.00000000000E+00 -0.00000000000E+00 -0.45593999997E+02  0.45594000000E+02  0.51100000000E-03 0.  1.
    9900012    2    1    2    0    0  0.47796455793E+01 -0.18473124898E+02 -0.38981050193E+02  0.47787266947E+02  0.19999981319E+02 0.  0.
         12    1    1    2    0    0 -0.47796455793E+01  0.18473124898E+02  0.38981050193E+02  0.43400733053E+02  0.00000000000E+00 0. -1.
         11    1    3    3    0    0 -0.26878646499E+01 -0.41805239069E+01 -0.12850337865E+02  0.13777974453E+02  0.51100000000E-03 0.  1.
        -11    1    3    3    0    0  0.13817743307E+01 -0.20592129404E+01 -0.17873121760E+02  0.18044338169E+02  0.51100000000E-03 0. -1.
         12    1    3    3    0    0  0.60857358985E+01 -0.12233388051E+02 -0.82575905677E+01  0.15964954326E+02  0.00000000000E+00 0. -1.
</event>
<event>
 7    1  0.2387817E-009  0.4778728E+02  0.7816164E-02  0.1312668E+00
        -11   -1    0    0    0    0  0.00000000000E+00  0.00000000000E+00  0.45593999997E+02  0.45594000000E+02  0.51100000000E-03 0. -1.
         11   -1    0    0    0    0 -0.00000000000E+00 -0.00000000000E+00 -0.45593999997E+02  0.45594000000E+02  0.51100000000E-03 0.  1.
    9900012    2    1    2    0    0 -0.15748108345E+02  0.25441353367E+01 -0.40362694145E+02  0.47787278581E+02  0.20000034363E+02 0.  0.
         12    1    1    2    0    0  0.15748108345E+02 -0.25441353367E+01  0.40362694145E+02  0.43400721419E+02  0.00000000000E+00 0. -1.
         11    1    3    3    0    0 -0.38461127861E+01 -0.15868698797E+01 -0.22399475586E+02  0.22782608418E+02  0.51100000000E-03 0. -1.
        -11    1    3    3    0    0 -0.50358745816E+01  0.37953896086E+01 -0.16913326292E+02  0.18050640476E+02  0.51100000000E-03 0.  1.
         12    1    3    3    0    0 -0.68661209771E+01  0.33561560778E+00 -0.10498922673E+01  0.69540296866E+01  0.00000000000E+00 0. -1.
</event>
<event>
 7    1  0.2387817E-009  0.4778727E+02  0.7816164E-02  0.1312668E+00
        -11   -1    0    0    0    0  0.00000000000E+00  0.00000000000E+00  0.45593999997E+02  0.45594000000E+02  0.51100000000E-03 0.  1.
         11   -1    0    0    0    0 -0.00000000000E+00 -0.00000000000E+00 -0.45593999997E+02  0.45594000000E+02  0.51100000000E-03 0. -1.
    9900012    2    1    2    0    0  0.15964215970E+02 -0.14702113766E+02  0.37584770063E+02  0.47787270958E+02  0.19999999605E+02 0.  0.
         12    1    1    2    0    0 -0.15964215970E+02  0.14702113766E+02 -0.37584770063E+02  0.43400729042E+02  0.00000000000E+00 0. -1.
         11    1    3    3    0    0 -0.88584215090E+00 -0.19918905683E+01 -0.66931519678E+00  0.22804226464E+01  0.51100000000E-03 0. -1.
        -11    1    3    3    0    0  0.53560152239E+00 -0.51315198905E+01  0.31042004120E+01  0.60212478637E+01  0.51100000000E-03 0.  1.
        -12    1    3    3    0    0  0.16314456598E+02 -0.75787033072E+01  0.35149884848E+02  0.39485600448E+02  0.00000000000E+00 0.  1.
</event>
<event>
 7    1  0.2387817E-009  0.4778732E+02  0.7816164E-02  0.1312668E+00
        -11   -1    0    0    0    0  0.00000000000E+00  0.00000000000E+00  0.45593999997E+02  0.45594000000E+02  0.51100000000E-03 0. -1.
         11   -1    0    0    0    0 -0.00000000000E+00 -0.00000000000E+00 -0.45593999997E+02  0.45594000000E+02  0.51100000000E-03 0.  1.
    9900012    2    1    2    0    0 -0.23682851345E+02  0.29029977533E+02 -0.21908939887E+02  0.47787323849E+02  0.20000240758E+02 0.  0.
         12    1    1    2    0    0  0.23682851345E+02 -0.29029977533E+02  0.21908939887E+02  0.43400676151E+02  0.00000000000E+00 0. -1.
         11    1    3    3    0    0 -0.43788180767E+01 -0.18525529265E+01  0.73493767477E+00  0.48110428954E+01  0.51100000000E-03 0. -1.
        -11    1    3    3    0    0 -0.11757779520E+02  0.16189314656E+02 -0.12533510372E+02  0.23609916789E+02  0.51100000000E-03 0.  1.
        -12    1    3    3    0    0 -0.75462537479E+01  0.14693215803E+02 -0.10110367189E+02  0.19366364165E+02  0.00000000000E+00 0.  1.
</event>
<event>
 7    1  0.2387817E-009  0.4778727E+02  0.7816164E-02  0.1312668E+00
        -11   -1    0    0    0    0  0.00000000000E+00  0.00000000000E+00  0.45593999997E+02  0.45594000000E+02  0.51100000000E-03 0. -1.
         11   -1    0    0    0    0 -0.00000000000E+00 -0.00000000000E+00 -0.45593999997E+02  0.45594000000E+02  0.51100000000E-03 0.  1.
    9900012    2    1    2    0    0 -0.19601976090E+02 -0.14604795390E+02 -0.35862035956E+02  0.47787272611E+02  0.20000007142E+02 0.  0.
         12    1    1    2    0    0  0.19601976090E+02  0.14604795390E+02  0.35862035956E+02  0.43400727389E+02  0.00000000000E+00 0. -1.
         11    1    3    3    0    0 -0.17390327058E+02 -0.40277206694E+01 -0.17952586266E+02  0.25316819762E+02  0.51100000000E-03 0. -1.
        -11    1    3    3    0    0 -0.39015536383E+01 -0.24738682464E+01 -0.10027637659E+02  0.11040636856E+02  0.51100000000E-03 0.  1.
        -12    1    3    3    0    0  0.16899046068E+01 -0.81032064739E+01 -0.78818120312E+01  0.11429815993E+02  0.00000000000E+00 0.  1.
</event>
<event>
 7    1  0.2977689E-009  0.4778726E+02  0.7816164E-02  0.1312668E+00
        -11   -1    0    0    0    0  0.00000000000E+00  0.00000000000E+00  0.45593999997E+02  0.45594000000E+02  0.51100000000E-03 0. -1.
         11   -1    0    0    0    0 -0.00000000000E+00 -0.00000000000E+00 -0.45593999997E+02  0.45594000000E+02  0.51100000000E-03 0.  1.
    9900012    2    1    2    0    0 -0.84003732946E+01  0.36575320590E+02 -0.21801456027E+02  0.47787264607E+02  0.19999970649E+02 0.  0.
         12    1    1    2    0    0  0.84003732946E+01 -0.36575320590E+02  0.21801456027E+02  0.43400735393E+02  0.00000000000E+00 0. -1.
         11    1    3    3    0    0  0.30629028095E+01  0.44181075560E+00 -0.23487938793E+01  0.38850229488E+01  0.51100000000E-03 0. -1.
        -11    1    3    3    0    0 -0.36690239530E+01  0.13571656008E+02 -0.13064498414E+02  0.19191995796E+02  0.51100000000E-03 0.  1.
         12    1    3    3    0    0 -0.77942521511E+01  0.22561853827E+02 -0.63881637340E+01  0.24710245863E+02  0.00000000000E+00 0. -1.
</event>
<event>
 7    1  0.2387817E-009  0.4778727E+02  0.7816164E-02  0.1312668E+00
        -11   -1    0    0    0    0  0.00000000000E+00  0.00000000000E+00  0.45593999997E+02  0.45594000000E+02  0.51100000000E-03 0.  1.
         11   -1    0    0    0    0 -0.00000000000E+00 -0.00000000000E+00 -0.45593999997E+02  0.45594000000E+02  0.51100000000E-03 0. -1.
    9900012    2    1    2    0    0  0.24855668067E+01 -0.15894102877E+02  0.40309088890E+02  0.47787271945E+02  0.20000004105E+02 0.  0.
         12    1    1    2    0    0 -0.24855668067E+01  0.15894102877E+02 -0.40309088890E+02  0.43400728055E+02  0.00000000000E+00 0. -1.
         11    1    3    3    0    0 -0.26074906255E+01  0.21648762010E+01  0.24083457029E+01  0.41576225915E+01  0.51100000000E-03 0. -1.
        -11    1    3    3    0    0 -0.30273971818E+01 -0.82911092168E+01  0.17444120055E+02  0.19550062673E+02  0.51100000000E-03 0.  1.
        -12    1    3    3    0    0  0.81204546140E+01 -0.97678698608E+01  0.20456623132E+02  0.24079586681E+02  0.00000000000E+00 0.  1.
</event>
<event>
 7    1  0.2387817E-009  0.4778727E+02  0.7816164E-02  0.1312668E+00
        -11   -1    0    0    0    0  0.00000000000E+00  0.00000000000E+00  0.45593999997E+02  0.45594000000E+02  0.51100000000E-03 0.  1.
         11   -1    0    0    0    0 -0.00000000000E+00 -0.00000000000E+00 -0.45593999997E+02  0.45594000000E+02  0.51100000000E-03 0. -1.
    9900012    2    1    2    0    0 -0.91966751611E+01 -0.41487433889E+02  0.88225360246E+01  0.47787272510E+02  0.20000006683E+02 0.  0.
         12    1    1    2    0    0  0.91966751611E+01  0.41487433889E+02 -0.88225360246E+01  0.43400727490E+02  0.00000000000E+00 0. -1.
         11    1    3    3    0    0 -0.17767319944E+01 -0.19754474433E+01  0.23294068836E+01  0.35334552313E+01  0.51100000000E-03 0. -1.
        -11    1    3    3    0    0  0.54597778406E+01 -0.16462025710E+02  0.33317697920E+01  0.17660921684E+02  0.51100000000E-03 0.  1.
         12    1    3    3    0    0 -0.12879721007E+02 -0.23049960736E+02  0.31613593489E+01  0.26592895595E+02  0.00000000000E+00 0. -1.
</event>
<event>
 7    1  0.2387817E-009  0.4778727E+02  0.7816164E-02  0.1312668E+00
        -11   -1    0    0    0    0  0.00000000000E+00  0.00000000000E+00  0.45593999997E+02  0.45594000000E+02  0.51100000000E-03 0.  1.
         11   -1    0    0    0    0 -0.00000000000E+00 -0.00000000000E+00 -0.45593999997E+02  0.45594000000E+02  0.51100000000E-03 0. -1.
    9900012    2    1    2    0    0  0.35417258790E+02  0.13564240443E+02 -0.21101004640E+02  0.47787271483E+02  0.20000001999E+02 0.  0.
         12    1    1    2    0    0 -0.35417258790E+02 -0.13564240443E+02  0.21101004640E+02  0.43400728517E+02  0.00000000000E+00 0. -1.
         11    1    3    3    0    0  0.48419234368E+01 -0.24285664736E+01 -0.25546683719E+01  0.59890306758E+01  0.51100000000E-03 0. -1.
        -11    1    3    3    0    0  0.26982375963E+02  0.74157349023E+01 -0.12121751851E+02  0.30495550577E+02  0.51100000000E-03 0.  1.
        -12    1    3    3    0    0  0.35929593899E+01  0.85770720145E+01 -0.64245844164E+01  0.11302690230E+02  0.00000000000E+00 0.  1.
</event>
<event>
 7    1  0.2387817E-009  0.4778727E+02  0.7816164E-02  0.1312668E+00
        -11   -1    0    0    0    0  0.00000000000E+00  0.00000000000E+00  0.45593999997E+02  0.45594000000E+02  0.51100000000E-03 0. -1.
         11   -1    0    0    0    0 -0.00000000000E+00 -0.00000000000E+00 -0.45593999997E+02  0.45594000000E+02  0.51100000000E-03 0.  1.
    9900012    2    1    2    0    0  0.26908652587E+02 -0.63484608673E-02 -0.34052131033E+02  0.47787271294E+02  0.20000001138E+02 0.  0.
         12    1    1    2    0    0 -0.26908652587E+02  0.63484608673E-02  0.34052131033E+02  0.43400728706E+02  0.00000000000E+00 0. -1.
         11    1    3    3    0    0  0.78547346381E+01 -0.22918832616E+01 -0.58071671541E+01  0.10033582398E+02  0.51100000000E-03 0. -1.
        -11    1    3    3    0    0  0.21652159771E+02  0.36073440796E+01 -0.23283691208E+02  0.31999362971E+02  0.51100000000E-03 0.  1.
         12    1    3    3    0    0 -0.25982418218E+01 -0.13218092789E+01 -0.49612726709E+01  0.57543259248E+01  0.00000000000E+00 0. -1.
</event>
<event>
 7    1  0.2387817E-009  0.4778732E+02  0.7816164E-02  0.1312668E+00
        -11   -1    0    0    0    0  0.00000000000E+00  0.00000000000E+00  0.45593999997E+02  0.45594000000E+02  0.51100000000E-03 0.  1.
         11   -1    0    0    0    0 -0.00000000000E+00 -0.00000000000E+00 -0.45593999997E+02  0.45594000000E+02  0.51100000000E-03 0. -1.
    9900012    2    1    2    0    0 -0.18579725211E+02  0.58992667295E+01  0.38776428102E+02  0.47787321281E+02  0.20000229049E+02 0.  0.
         12    1    1    2    0    0  0.18579725211E+02 -0.58992667295E+01 -0.38776428102E+02  0.43400678719E+02  0.00000000000E+00 0. -1.
         11    1    3    3    0    0 -0.79065521826E+00  0.13520599417E+01  0.24201621089E+01  0.28827741248E+01  0.51100000000E-03 0. -1.
        -11    1    3    3    0    0 -0.19329437227E+02  0.64181296548E+01  0.20620203874E+02  0.28982966374E+02  0.51100000000E-03 0.  1.
        -12    1    3    3    0    0  0.15403672340E+01 -0.18709228671E+01  0.15736062119E+02  0.15921580782E+02  0.00000000000E+00 0.  1.
</event>
<event>
 7    1  0.2387817E-009  0.4778727E+02  0.7816164E-02  0.1312668E+00
        -11   -1    0    0    0    0  0.00000000000E+00  0.00000000000E+00  0.45593999997E+02  0.45594000000E+02  0.51100000000E-03 0.  1.
         11   -1    0    0    0    0 -0.00000000000E+00 -0.00000000000E+00 -0.45593999997E+02  0.45594000000E+02  0.51100000000E-03 0. -1.
    9900012    2    1    2    0    0 -0.44724603723E+01 -0.61245507034E+01  0.42733013774E+02  0.47787268562E+02  0.19999988683E+02 0.  0.
         12    1    1    2    0    0  0.44724603723E+01  0.61245507034E+01 -0.42733013774E+02  0.43400731438E+02  0.00000000000E+00 0. -1.
         11    1    3    3    0    0 -0.18875821850E+01 -0.50957354515E+01  0.17587633058E+02  0.18407996174E+02  0.51100000000E-03 0. -1.
        -11    1    3    3    0    0  0.19297422193E+01  0.22918587298E+01  0.23280940771E+02  0.23472936010E+02  0.51100000000E-03 0.  1.
         12    1    3    3    0    0 -0.45146204065E+01 -0.33206739818E+01  0.18644399451E+01  0.59063363786E+01  0.00000000000E+00 0. -1.
</event>
<event>
 7    1  0.2387817E-009  0.4778727E+02  0.7816164E-02  0.1312668E+00
        -11   -1    0    0    0    0  0.00000000000E+00  0.00000000000E+00  0.45593999997E+02  0.45594000000E+02  0.51100000000E-03 0.  1.
         11   -1    0    0    0    0 -0.00000000000E+00 -0.00000000000E+00 -0.45593999997E+02  0.45594000000E+02  0.51100000000E-03 0. -1.
    9900012    2    1    2    0    0  0.34853705083E+02 -0.96353722854E+01  0.24000043629E+02  0.47787271305E+02  0.20000001186E+02 0.  0.
         12    1    1    2    0    0 -0.34853705083E+02  0.96353722854E+01 -0.24000043629E+02  0.43400728695E+02  0.00000000000E+00 0. -1.
         11    1    3    3    0    0  0.32796444784E+01 -0.30583114957E+01  0.34839889800E+01  0.56786896889E+01  0.51100000000E-03 0. -1.
        -11    1    3    3    0    0  0.33168701340E+02 -0.55563175984E+01  0.16063621304E+02  0.37270301092E+02  0.51100000000E-03 0.  1.
        -12    1    3    3    0    0 -0.15946407350E+01 -0.10207431913E+01  0.44524333445E+01  0.48382805234E+01  0.00000000000E+00 0.  1.
</event>
<event>
 7    1  0.2387817E-009  0.4778727E+02  0.7816164E-02  0.1312668E+00
        -11   -1    0    0    0    0  0.00000000000E+00  0.00000000000E+00  0.45593999997E+02  0.45594000000E+02  0.51100000000E-03 0. -1.
         11   -1    0    0    0    0 -0.00000000000E+00 -0.00000000000E+00 -0.45593999997E+02  0.45594000000E+02  0.51100000000E-03 0.  1.
    9900012    2    1    2    0    0 -0.38729195847E+02 -0.44872365232E+01 -0.19066662135E+02  0.47787268353E+02  0.19999987728E+02 0.  0.
         12    1    1    2    0    0  0.38729195847E+02  0.44872365232E+01  0.19066662135E+02  0.43400731647E+02  0.00000000000E+00 0. -1.
         11    1    3    3    0    0 -0.42717042808E+01  0.23195223676E+01  0.12193448222E+01  0.50114312859E+01  0.51100000000E-03 0. -1.
        -11    1    3    3    0    0 -0.33704187989E+01 -0.35170785518E+00 -0.80771734334E+01  0.87592323996E+01  0.51100000000E-03 0.  1.
        -12    1    3    3    0    0 -0.31087072767E+02 -0.64550510356E+01 -0.12208833524E+02  0.34016604667E+02  0.00000000000E+00 0.  1.
</event>
<event>
 7    1  0.2387817E-009  0.4778727E+02  0.7816164E-02  0.1312668E+00
        -11   -1    0    0    0    0  0.00000000000E+00  0.00000000000E+00  0.45593999997E+02  0.45594000000E+02  0.51100000000E-03 0.  1.
         11   -1    0    0    0    0 -0.00000000000E+00 -0.00000000000E+00 -0.45593999997E+02  0.45594000000E+02  0.51100000000E-03 0. -1.
    9900012    2    1    2    0    0 -0.44279753176E+01  0.85280115365E+01  0.42323624021E+02  0.47787273088E+02  0.20000009318E+02 0.  0.
         12    1    1    2    0    0  0.44279753176E+01 -0.85280115365E+01 -0.42323624021E+02  0.43400726912E+02  0.00000000000E+00 0. -1.
         11    1    3    3    0    0 -0.42382780634E+01  0.33816821718E+00  0.34156656481E+01  0.54538179990E+01  0.51100000000E-03 0. -1.
        -11    1    3    3    0    0 -0.61170627395E+01  0.24991122924E+01  0.81256251115E+01  0.10473289957E+02  0.51100000000E-03 0.  1.
         12    1    3    3    0    0  0.59273654853E+01  0.56907310269E+01  0.30782333262E+02  0.31860165132E+02  0.00000000000E+00 0. -1.
</event>
<event>
 7    1  0.2387817E-009  0.4778727E+02  0.7816164E-02  0.1312668E+00
        -11   -1    0    0    0    0  0.00000000000E+00  0.00000000000E+00  0.45593999997E+02  0.45594000000E+02  0.51100000000E-03 0. -1.
         11   -1    0    0    0    0 -0.00000000000E+00 -0.00000000000E+00 -0.45593999997E+02  0.45594000000E+02  0.51100000000E-03 0.  1.
    9900012    2    1    2    0    0  0.24445070704E+02 -0.19009428996E+02 -0.30408938079E+02  0.47787269734E+02  0.19999994027E+02 0.  0.
         12    1    1    2    0    0 -0.24445070704E+02  0.19009428996E+02  0.30408938079E+02  0.43400730266E+02  0.00000000000E+00 0. -1.
         11    1    3    3    0    0  0.48601329468E+00  0.18227815608E+00 -0.62834009816E+01  0.63048047079E+01  0.51100000000E-03 0. -1.
        -11    1    3    3    0    0  0.18794591913E+02 -0.91058892517E+01 -0.21244755944E+02  0.29790830127E+02  0.51100000000E-03 0.  1.
         12    1    3    3    0    0  0.51644654962E+01 -0.10085817900E+02 -0.28807811534E+01  0.11691634900E+02  0.00000000000E+00 0. -1.
</event>
<event>
 7    1  0.2387817E-009  0.4778726E+02  0.7816164E-02  0.1312668E+00
        -11   -1    0    0    0    0  0.00000000000E+00  0.00000000000E+00  0.45593999997E+02  0.45594000000E+02  0.51100000000E-03 0.  1.
         11   -1    0    0    0    0 -0.00000000000E+00 -0.00000000000E+00 -0.45593999997E+02  0.45594000000E+02  0.51100000000E-03 0. -1.
    9900012    2    1    2    0    0  0.36940491517E+02  0.16320513255E+02  0.15895441480E+02  0.47787261224E+02  0.19999955227E+02 0.  0.
         12    1    1    2    0    0 -0.36940491517E+02 -0.16320513255E+02 -0.15895441480E+02  0.43400738776E+02  0.00000000000E+00 0. -1.
         11    1    3    3    0    0  0.14193064269E-01 -0.18680127745E+00  0.31583181557E+00  0.36721404818E+00  0.51100000000E-03 0. -1.
        -11    1    3    3    0    0  0.30933698314E+02  0.14497943600E+02  0.20111367543E+02  0.39642794613E+02  0.51100000000E-03 0.  1.
        -12    1    3    3    0    0  0.59926001390E+01  0.20093709317E+01 -0.45317578784E+01  0.77772525634E+01  0.00000000000E+00 0.  1.
</event>
<event>
 7    1  0.2387817E-009  0.4778728E+02  0.7816164E-02  0.1312668E+00
        -11   -1    0    0    0    0  0.00000000000E+00  0.00000000000E+00  0.45593999997E+02  0.45594000000E+02  0.51100000000E-03 0.  1.
         11   -1    0    0    0    0 -0.00000000000E+00 -0.00000000000E+00 -0.45593999997E+02  0.45594000000E+02  0.51100000000E-03 0. -1.
    9900012    2    1    2    0    0  0.40965782975E+02 -0.13045275017E+01 -0.14273243758E+02  0.47787278184E+02  0.20000032553E+02 0.  0.
         12    1    1    2    0    0 -0.40965782975E+02  0.13045275017E+01  0.14273243758E+02  0.43400721816E+02  0.00000000000E+00 0. -1.
         11    1    3    3    0    0  0.24500967936E+02  0.70454487435E+01 -0.95963223525E+01  0.27240139147E+02  0.51100000000E-03 0. -1.
        -11    1    3    3    0    0  0.82305440346E+01 -0.13617475026E+01  0.90254008084E+00  0.83911137654E+01  0.51100000000E-03 0.  1.
        -12    1    3    3    0    0  0.82342710045E+01 -0.69882287427E+01 -0.55794614860E+01  0.12156025272E+02  0.00000000000E+00 0.  1.
</event>
<event>
 7    1  0.2387817E-009  0.4778727E+02  0.7816164E-02  0.1312668E+00
        -11   -1    0    0    0    0  0.00000000000E+00  0.00000000000E+00  0.45593999997E+02  0.45594000000E+02  0.51100000000E-03 0.  1.
         11   -1    0    0    0    0 -0.00000000000E+00 -0.00000000000E+00 -0.45593999997E+02  0.45594000000E+02  0.51100000000E-03 0. -1.
    9900012    2    1    2    0    0 -0.28541363778E+02  0.10367223305E+02  0.31008621280E+02  0.47787270063E+02  0.19999995524E+02 0.  0.
         12    1    1    2    0    0  0.28541363778E+02 -0.10367223305E+02 -0.31008621280E+02  0.43400729937E+02  0.00000000000E+00 0. -1.
         11    1    3    3    0    0 -0.14266995181E+02  0.65213645095E+01  0.21199563235E+02  0.26372273853E+02  0.51100000000E-03 0. -1.
        -11    1    3    3    0    0 -0.11353751728E+02  0.69623498388E+01  0.10660840995E+02  0.17059763320E+02  0.51100000000E-03 0.  1.
         12    1    3    3    0    0 -0.29206168694E+01 -0.31164910437E+01 -0.85178294974E+00  0.43552328889E+01  0.00000000000E+00 0. -1.
</event>
<event>
 7    1  0.2387817E-009  0.4778727E+02  0.7816164E-02  0.1312668E+00
        -11   -1    0    0    0    0  0.00000000000E+00  0.00000000000E+00  0.45593999997E+02  0.45594000000E+02  0.51100000000E-03 0.  1.
         11   -1    0    0    0    0 -0.00000000000E+00 -0.00000000000E+00 -0.45593999997E+02  0.45594000000E+02  0.51100000000E-03 0. -1.
    9900012    2    1    2    0    0 -0.16251871217E+02 -0.16924530240E+02  0.36511099298E+02  0.47787269432E+02  0.19999992648E+02 0.  0.
         12    1    1    2    0    0  0.16251871217E+02  0.16924530240E+02 -0.36511099298E+02  0.43400730568E+02  0.00000000000E+00 0. -1.
         11    1    3    3    0    0 -0.55434969012E+01 -0.65797428415E-01  0.55062106999E+01  0.78136447148E+01  0.51100000000E-03 0. -1.
        -11    1    3    3    0    0 -0.11080903949E+02 -0.16250606371E+02  0.17136573473E+02  0.26086985077E+02  0.51100000000E-03 0.  1.
        -12    1    3    3    0    0  0.37252963334E+00 -0.60812644093E+00  0.13868315125E+02  0.13886639640E+02  0.00000000000E+00 0.  1.
</event>
<event>
 7    1  0.2387817E-009  0.4778727E+02  0.7816164E-02  0.1312668E+00
        -11   -1    0    0    0    0  0.00000000000E+00  0.00000000000E+00  0.45593999997E+02  0.45594000000E+02  0.51100000000E-03 0.  1.
         11   -1    0    0    0    0 -0.00000000000E+00 -0.00000000000E+00 -0.45593999997E+02  0.45594000000E+02  0.51100000000E-03 0. -1.
    9900012    2    1    2    0    0  0.29337673100E+02  0.22925955819E+01  0.31900919166E+02  0.47787266123E+02  0.19999977563E+02 0.  0.
         12    1    1    2    0    0 -0.29337673100E+02 -0.22925955819E+01 -0.31900919166E+02  0.43400733877E+02  0.00000000000E+00 0. -1.
         11    1    3    3    0    0  0.27590926493E+01 -0.47072986349E+01  0.18254469999E+01  0.57535649554E+01  0.51100000000E-03 0. -1.
        -11    1    3    3    0    0  0.74965568249E+01  0.48151715392E+00  0.25927532864E+01  0.79468605665E+01  0.51100000000E-03 0.  1.
        -12    1    3    3    0    0  0.19082023626E+02  0.65183770629E+01  0.27482718879E+02  0.34086840601E+02  0.00000000000E+00 0.  1.
</event>
<event>
 7    1  0.2387817E-009  0.4778727E+02  0.7816164E-02  0.1312668E+00
        -11   -1    0    0    0    0  0.00000000000E+00  0.00000000000E+00  0.45593999997E+02  0.45594000000E+02  0.51100000000E-03 0.  1.
         11   -1    0    0    0    0 -0.00000000000E+00 -0.00000000000E+00 -0.45593999997E+02  0.45594000000E+02  0.51100000000E-03 0. -1.
    9900012    2    1    2    0    0  0.35266884595E+02  0.13154019666E+02 -0.21606527081E+02  0.47787269650E+02  0.19999993642E+02 0.  0.
         12    1    1    2    0    0 -0.35266884595E+02 -0.13154019666E+02  0.21606527081E+02  0.43400730350E+02  0.00000000000E+00 0. -1.
         11    1    3    3    0    0  0.10140581203E+02  0.27867483976E+01  0.13536499626E+01  0.10603288275E+02  0.51100000000E-03 0. -1.
        -11    1    3    3    0    0  0.44248125149E+01  0.58439304036E+01 -0.25442041419E+01  0.77590890787E+01  0.51100000000E-03 0.  1.
         12    1    3    3    0    0  0.20701490877E+02  0.45233408649E+01 -0.20415972902E+02  0.29424892296E+02  0.00000000000E+00 0. -1.
</event>
<event>
 7    1  0.2387817E-009  0.4778727E+02  0.7816164E-02  0.1312668E+00
        -11   -1    0    0    0    0  0.00000000000E+00  0.00000000000E+00  0.45593999997E+02  0.45594000000E+02  0.51100000000E-03 0.  1.
         11   -1    0    0    0    0 -0.00000000000E+00 -0.00000000000E+00 -0.45593999997E+02  0.45594000000E+02  0.51100000000E-03 0. -1.
    9900012    2    1    2    0    0  0.16850475148E+01  0.38445442188E+02 -0.20068173362E+02  0.47787274289E+02  0.20000014795E+02 0.  0.
         12    1    1    2    0    0 -0.16850475148E+01 -0.38445442188E+02  0.20068173362E+02  0.43400725711E+02  0.00000000000E+00 0. -1.
         11    1    3    3    0    0  0.20226492100E+01  0.24039659137E+02 -0.12331418851E+02  0.27093545586E+02  0.51100000000E-03 0. -1.
        -11    1    3    3    0    0 -0.28605264465E+01  0.13364342869E+02 -0.13321971984E+01  0.13731825134E+02  0.51100000000E-03 0.  1.
         12    1    3    3    0    0  0.25229247513E+01  0.10414401815E+01 -0.64045573125E+01  0.69619035702E+01  0.00000000000E+00 0. -1.
</event>
<event>
 7    1  0.2387817E-009  0.4778727E+02  0.7816164E-02  0.1312668E+00
        -11   -1    0    0    0    0  0.00000000000E+00  0.00000000000E+00  0.45593999997E+02  0.45594000000E+02  0.51100000000E-03 0.  1.
         11   -1    0    0    0    0 -0.00000000000E+00 -0.00000000000E+00 -0.45593999997E+02  0.45594000000E+02  0.51100000000E-03 0. -1.
    9900012    2    1    2    0    0  0.21973400225E+02  0.39290381567E+00  0.37425108584E+02  0.47787269092E+02  0.19999991096E+02 0.  0.
         12    1    1    2    0    0 -0.21973400225E+02 -0.39290381567E+00 -0.37425108584E+02  0.43400730908E+02  0.00000000000E+00 0. -1.
         11    1    3    3    0    0  0.96544040984E+00 -0.29529421900E+01 -0.84381968392E+00  0.32193127656E+01  0.51100000000E-03 0. -1.
        -11    1    3    3    0    0  0.88817981490E+01  0.16664299498E+01  0.86096731663E+01  0.12481578403E+02  0.51100000000E-03 0.  1.
         12    1    3    3    0    0  0.12126161666E+02  0.16794160559E+01  0.29659255102E+02  0.32086377923E+02  0.00000000000E+00 0. -1.
</event>
<event>
 7    1  0.2387817E-009  0.4778726E+02  0.7816164E-02  0.1312668E+00
        -11   -1    0    0    0    0  0.00000000000E+00  0.00000000000E+00  0.45593999997E+02  0.45594000000E+02  0.51100000000E-03 0. -1.
         11   -1    0    0    0    0 -0.00000000000E+00 -0.00000000000E+00 -0.45593999997E+02  0.45594000000E+02  0.51100000000E-03 0.  1.
    9900012    2    1    2    0    0  0.25155067611E+02 -0.33780139684E+02  0.10476093598E+02  0.47787264976E+02  0.19999972330E+02 0.  0.
         12    1    1    2    0    0 -0.25155067611E+02  0.33780139684E+02 -0.10476093598E+02  0.43400735024E+02  0.00000000000E+00 0. -1.
         11    1    3    3    0    0  0.17744762073E+00 -0.88112128766E+00 -0.56598122554E+00  0.10621663667E+01  0.51100000000E-03 0. -1.
        -11    1    3    3    0    0  0.23431733971E+02 -0.34866418393E+02  0.12500569401E+02  0.43828957597E+02  0.51100000000E-03 0.  1.
        -12    1    3    3    0    0  0.15458860188E+01  0.19673999959E+01 -0.14584945780E+01  0.28961410119E+01  0.00000000000E+00 0.  1.
</event>
<event>
 7    1  0.2387817E-009  0.4778728E+02  0.7816164E-02  0.1312668E+00
        -11   -1    0    0    0    0  0.00000000000E+00  0.00000000000E+00  0.45593999997E+02  0.45594000000E+02  0.51100000000E-03 0. -1.
         11   -1    0    0    0    0 -0.00000000000E+00 -0.00000000000E+00 -0.45593999997E+02  0.45594000000E+02  0.51100000000E-03 0.  1.
    9900012    2    1    2    0    0 -0.20580960219E+02  0.11303081546E+02 -0.36500506820E+02  0.47787279106E+02  0.20000036756E+02 0.  0.
         12    1    1    2    0    0  0.20580960219E+02 -0.11303081546E+02  0.36500506820E+02  0.43400720894E+02  0.00000000000E+00 0. -1.
         11    1    3    3    0    0  0.10151804376E+00  0.13527331493E+01  0.62481195175E+00  0.14935136835E+01  0.51100000000E-03 0. -1.
        -11    1    3    3    0    0 -0.15579350046E+02  0.73875377995E+01 -0.13250528228E+02  0.21745536581E+02  0.51100000000E-03 0.  1.
        -12    1    3    3    0    0 -0.51031282168E+01  0.25628105968E+01 -0.23874790544E+02  0.24548228842E+02  0.00000000000E+00 0.  1.
</event>
<event>
 7    1  0.2387817E-009  0.4778727E+02  0.7816164E-02  0.1312668E+00
        -11   -1    0    0    0    0  0.00000000000E+00  0.00000000000E+00  0.45593999997E+02  0.45594000000E+02  0.51100000000E-03 0. -1.
         11   -1    0    0    0    0 -0.00000000000E+00 -0.00000000000E+00 -0.45593999997E+02  0.45594000000E+02  0.51100000000E-03 0.  1.
    9900012    2    1    2    0    0 -0.35856032814E+01  0.42405543681E+01 -0.43043980491E+02  0.47787272947E+02  0.20000008673E+02 0.  0.
         12    1    1    2    0    0  0.35856032814E+01 -0.42405543681E+01  0.43043980491E+02  0.43400727053E+02  0.00000000000E+00 0. -1.
         11    1    3    3    0    0 -0.52806296963E+01  0.65259694600E+01 -0.13850533984E+02  0.16196006276E+02  0.51100000000E-03 0.  1.
        -11    1    3    3    0    0 -0.32566847663E+01 -0.32260081419E+01 -0.46275088650E+01  0.65135982955E+01  0.51100000000E-03 0. -1.
         12    1    3    3    0    0  0.49517111813E+01  0.94059304997E+00 -0.24565937642E+02  0.25077668375E+02  0.00000000000E+00 0. -1.
</event>
<event>
 7    1  0.2387817E-009  0.4778727E+02  0.7816164E-02  0.1312668E+00
        -11   -1    0    0    0    0  0.00000000000E+00  0.00000000000E+00  0.45593999997E+02  0.45594000000E+02  0.51100000000E-03 0. -1.
         11   -1    0    0    0    0 -0.00000000000E+00 -0.00000000000E+00 -0.45593999997E+02  0.45594000000E+02  0.51100000000E-03 0.  1.
    9900012    2    1    2    0    0  0.16145512413E+02  0.39694105985E+02 -0.68792348440E+01  0.47787268519E+02  0.19999988484E+02 0.  0.
         12    1    1    2    0    0 -0.16145512413E+02 -0.39694105985E+02  0.68792348440E+01  0.43400731481E+02  0.00000000000E+00 0. -1.
         11    1    3    3    0    0  0.24190050617E+01  0.88858705177E+01 -0.61663745153E+01  0.11083070661E+02  0.51100000000E-03 0. -1.
        -11    1    3    3    0    0  0.38363940394E+01  0.22559161892E+02 -0.44125506639E+01  0.23304598432E+02  0.51100000000E-03 0.  1.
        -12    1    3    3    0    0  0.98901133121E+01  0.82490735762E+01  0.36996903352E+01  0.13399599426E+02  0.00000000000E+00 0.  1.
</event>
<event>
 7    1  0.2387817E-009  0.4778726E+02  0.7816164E-02  0.1312668E+00
        -11   -1    0    0    0    0  0.00000000000E+00  0.00000000000E+00  0.45593999997E+02  0.45594000000E+02  0.51100000000E-03 0.  1.
         11   -1    0    0    0    0 -0.00000000000E+00 -0.00000000000E+00 -0.45593999997E+02  0.45594000000E+02  0.51100000000E-03 0. -1.
    9900012    2    1    2    0    0  0.86565039415E+01 -0.24417484942E+02  0.34820619558E+02  0.47787260631E+02  0.19999952521E+02 0.  0.
         12    1    1    2    0    0 -0.86565039415E+01  0.24417484942E+02 -0.34820619558E+02  0.43400739369E+02  0.00000000000E+00 0. -1.
         11    1    3    3    0    0  0.77406352004E+01 -0.56087141662E+01  0.85410097660E+01  0.12818890591E+02  0.51100000000E-03 0. -1.
        -11    1    3    3    0    0  0.11663939529E+01  0.93340669974E+00 -0.60582856544E+00  0.16120643388E+01  0.51100000000E-03 0.  1.
         12    1    3    3    0    0 -0.25052521182E+00 -0.19742177476E+02  0.26885438357E+02  0.33356305701E+02  0.00000000000E+00 0. -1.
</event>
<event>
 7    1  0.2387817E-009  0.4778727E+02  0.7816164E-02  0.1312668E+00
        -11   -1    0    0    0    0  0.00000000000E+00  0.00000000000E+00  0.45593999997E+02  0.45594000000E+02  0.51100000000E-03 0.  1.
         11   -1    0    0    0    0 -0.00000000000E+00 -0.00000000000E+00 -0.45593999997E+02  0.45594000000E+02  0.51100000000E-03 0. -1.
    9900012    2    1    2    0    0  0.23146902629E+02  0.18945983106E+02  0.31446681014E+02  0.47787272772E+02  0.20000007877E+02 0.  0.
         12    1    1    2    0    0 -0.23146902629E+02 -0.18945983106E+02 -0.31446681014E+02  0.43400727228E+02  0.00000000000E+00 0. -1.
         11    1    3    3    0    0  0.12036500596E+02  0.82819367169E+01  0.12438776240E+02  0.19188303129E+02  0.51100000000E-03 0. -1.
        -11    1    3    3    0    0  0.95076729346E+01  0.15215639989E+01  0.16297671448E+02  0.18929476921E+02  0.51100000000E-03 0.  1.
         12    1    3    3    0    0  0.16027290980E+01  0.91424823898E+01  0.27102333262E+01  0.96694927215E+01  0.00000000000E+00 0. -1.
</event>
<event>
 7    1  0.2387817E-009  0.4778726E+02  0.7816164E-02  0.1312668E+00
        -11   -1    0    0    0    0  0.00000000000E+00  0.00000000000E+00  0.45593999997E+02  0.45594000000E+02  0.51100000000E-03 0.  1.
         11   -1    0    0    0    0 -0.00000000000E+00 -0.00000000000E+00 -0.45593999997E+02  0.45594000000E+02  0.51100000000E-03 0. -1.
    9900012    2    1    2    0    0 -0.19428438934E+02 -0.26329460118E+02  0.28511739577E+02  0.47787262642E+02  0.19999961690E+02 0.  0.
         12    1    1    2    0    0  0.19428438934E+02  0.26329460118E+02 -0.28511739577E+02  0.43400737358E+02  0.00000000000E+00 0. -1.
         11    1    3    3    0    0 -0.13942449017E+02 -0.91640646001E+01  0.17241637672E+02  0.23992624585E+02  0.51100000000E-03 0. -1.
        -11    1    3    3    0    0 -0.77959987086E+01 -0.11068649404E+02  0.10688124265E+02  0.17249017249E+02  0.51100000000E-03 0.  1.
         12    1    3    3    0    0  0.23100087920E+01 -0.60967461133E+01  0.58197764059E+00  0.65456208080E+01  0.00000000000E+00 0. -1.
</event>
<event>
 7    1  0.2387817E-009  0.4778727E+02  0.7816164E-02  0.1312668E+00
        -11   -1    0    0    0    0  0.00000000000E+00  0.00000000000E+00  0.45593999997E+02  0.45594000000E+02  0.51100000000E-03 0.  1.
         11   -1    0    0    0    0 -0.00000000000E+00 -0.00000000000E+00 -0.45593999997E+02  0.45594000000E+02  0.51100000000E-03 0. -1.
    9900012    2    1    2    0    0 -0.11801124384E+02  0.51426152952E+01  0.41447678102E+02  0.47787273637E+02  0.20000011822E+02 0.  0.
         12    1    1    2    0    0  0.11801124384E+02 -0.51426152952E+01 -0.41447678102E+02  0.43400726363E+02  0.00000000000E+00 0. -1.
         11    1    3    3    0    0 -0.18858888356E+01 -0.32624144789E+01  0.42445627282E+01  0.56759349844E+01  0.51100000000E-03 0.  1.
        -11    1    3    3    0    0 -0.36689645799E+01 -0.18925343503E+01  0.14360919166E+01  0.43709664388E+01  0.51100000000E-03 0. -1.
        -12    1    3    3    0    0 -0.62462709683E+01  0.10297564124E+02  0.35767023457E+02  0.37740372214E+02  0.00000000000E+00 0.  1.
</event>
<event>
 7    1  0.2387817E-009  0.4778727E+02  0.7816164E-02  0.1312668E+00
        -11   -1    0    0    0    0  0.00000000000E+00  0.00000000000E+00  0.45593999997E+02  0.45594000000E+02  0.51100000000E-03 0. -1.
         11   -1    0    0    0    0 -0.00000000000E+00 -0.00000000000E+00 -0.45593999997E+02  0.45594000000E+02  0.51100000000E-03 0.  1.
    9900012    2    1    2    0    0 -0.39158941523E+02 -0.10080139571E+02 -0.15766771307E+02  0.47787274287E+02  0.20000014785E+02 0.  0.
         12    1    1    2    0    0  0.39158941523E+02  0.10080139571E+02  0.15766771307E+02  0.43400725713E+02  0.00000000000E+00 0. -1.
         11    1    3    3    0    0 -0.13056253922E+02 -0.89233087773E+01 -0.50830225598E+01  0.16611090410E+02  0.51100000000E-03 0. -1.
        -11    1    3    3    0    0 -0.11107361269E+02 -0.31505159870E+01 -0.11137751896E+02  0.16042092847E+02  0.51100000000E-03 0.  1.
         12    1    3    3    0    0 -0.14995326332E+02  0.19936851937E+01  0.45400314862E+00  0.15134091030E+02  0.00000000000E+00 0. -1.
</event>
<event>
 7    1  0.2387817E-009  0.4778727E+02  0.7816164E-02  0.1312668E+00
        -11   -1    0    0    0    0  0.00000000000E+00  0.00000000000E+00  0.45593999997E+02  0.45594000000E+02  0.51100000000E-03 0. -1.
         11   -1    0    0    0    0 -0.00000000000E+00 -0.00000000000E+00 -0.45593999997E+02  0.45594000000E+02  0.51100000000E-03 0.  1.
    9900012    2    1    2    0    0  0.29845156969E+02  0.22534097676E+02  0.22025077599E+02  0.47787274247E+02  0.20000014604E+02 0.  0.
         12    1    1    2    0    0 -0.29845156969E+02 -0.22534097676E+02 -0.22025077599E+02  0.43400725753E+02  0.00000000000E+00 0. -1.
         11    1    3    3    0    0  0.10875384337E+01 -0.78205798994E+00  0.30491645814E+00  0.13738008778E+01  0.51100000000E-03 0. -1.
        -11    1    3    3    0    0  0.20947886219E+02  0.15560659631E+02  0.52715021677E+01  0.26622111121E+02  0.51100000000E-03 0.  1.
         12    1    3    3    0    0  0.78097323163E+01  0.77554960353E+01  0.16448658974E+02  0.19791362248E+02  0.00000000000E+00 0. -1.
</event>
<event>
 7    1  0.2387817E-009  0.4778727E+02  0.7816164E-02  0.1312668E+00
        -11   -1    0    0    0    0  0.00000000000E+00  0.00000000000E+00  0.45593999997E+02  0.45594000000E+02  0.51100000000E-03 0. -1.
         11   -1    0    0    0    0 -0.00000000000E+00 -0.00000000000E+00 -0.45593999997E+02  0.45594000000E+02  0.51100000000E-03 0.  1.
    9900012    2    1    2    0    0  0.33470624900E+02  0.13452933788E+02  0.24132127441E+02  0.47787265748E+02  0.19999975853E+02 0.  0.
         12    1    1    2    0    0 -0.33470624900E+02 -0.13452933788E+02 -0.24132127441E+02  0.43400734252E+02  0.00000000000E+00 0. -1.
         11    1    3    3    0    0  0.99097111155E+01  0.89227214416E+01  0.35304292593E+01  0.13794247473E+02  0.51100000000E-03 0. -1.
        -11    1    3    3    0    0  0.20387649284E+02  0.59981842661E+01  0.11328438884E+02  0.24082524486E+02  0.51100000000E-03 0.  1.
         12    1    3    3    0    0  0.31732645012E+01 -0.14679719196E+01  0.92732592982E+01  0.99104937901E+01  0.00000000000E+00 0. -1.
</event>
<event>
 7    1  0.2387817E-009  0.4778727E+02  0.7816164E-02  0.1312668E+00
        -11   -1    0    0    0    0  0.00000000000E+00  0.00000000000E+00  0.45593999997E+02  0.45594000000E+02  0.51100000000E-03 0. -1.
         11   -1    0    0    0    0 -0.00000000000E+00 -0.00000000000E+00 -0.45593999997E+02  0.45594000000E+02  0.51100000000E-03 0.  1.
    9900012    2    1    2    0    0 -0.10064382137E+01 -0.42096770425E+02 -0.10510570906E+02  0.47787273060E+02  0.20000009191E+02 0.  0.
         12    1    1    2    0    0  0.10064382137E+01  0.42096770425E+02  0.10510570906E+02  0.43400726940E+02  0.00000000000E+00 0. -1.
         11    1    3    3    0    0  0.80234438802E+00  0.52963640881E+00 -0.50994019287E+00  0.10882603107E+01  0.51100000000E-03 0. -1.
        -11    1    3    3    0    0  0.57689407782E+01 -0.32052817413E+02 -0.62678917866E+01  0.33165497879E+02  0.51100000000E-03 0.  1.
         12    1    3    3    0    0 -0.75777233799E+01 -0.10573589421E+02 -0.37327389269E+01  0.13533514871E+02  0.00000000000E+00 0. -1.
</event>
<event>
 7    1  0.2387817E-009  0.4778727E+02  0.7816164E-02  0.1312668E+00
        -11   -1    0    0    0    0  0.00000000000E+00  0.00000000000E+00  0.45593999997E+02  0.45594000000E+02  0.51100000000E-03 0.  1.
         11   -1    0    0    0    0 -0.00000000000E+00 -0.00000000000E+00 -0.45593999997E+02  0.45594000000E+02  0.51100000000E-03 0. -1.
    9900012    2    1    2    0    0  0.35766523553E+02 -0.21755053784E+02  0.11449762222E+02  0.47787266974E+02  0.19999981441E+02 0.  0.
         12    1    1    2    0    0 -0.35766523553E+02  0.21755053784E+02 -0.11449762222E+02  0.43400733026E+02  0.00000000000E+00 0. -1.
         11    1    3    3    0    0  0.15145940928E+02 -0.82749928736E+01 -0.19674719828E+01  0.17370837053E+02  0.51100000000E-03 0. -1.
        -11    1    3    3    0    0  0.18585229431E+01 -0.71750408349E+01  0.47892665802E+01  0.88245335939E+01  0.51100000000E-03 0.  1.
        -12    1    3    3    0    0  0.18762059682E+02 -0.63050200759E+01  0.86279676246E+01  0.21591896327E+02  0.00000000000E+00 0.  1.
</event>
<event>
 7    1  0.2387817E-009  0.4778728E+02  0.7816164E-02  0.1312668E+00
        -11   -1    0    0    0    0  0.00000000000E+00  0.00000000000E+00  0.45593999997E+02  0.45594000000E+02  0.51100000000E-03 0.  1.
         11   -1    0    0    0    0 -0.00000000000E+00 -0.00000000000E+00 -0.45593999997E+02  0.45594000000E+02  0.51100000000E-03 0. -1.
    9900012    2    1    2    0    0 -0.19112286303E+02 -0.19008150961E+02  0.34015195244E+02  0.47787276525E+02  0.20000024988E+02 0.  0.
         12    1    1    2    0    0  0.19112286303E+02  0.19008150961E+02 -0.34015195244E+02  0.43400723475E+02  0.00000000000E+00 0. -1.
         11    1    3    3    0    0 -0.18367122555E+02 -0.55896397076E+01  0.20632703149E+02  0.28183394092E+02  0.51100000000E-03 0. -1.
        -11    1    3    3    0    0 -0.20398140196E+01 -0.53843806747E+01  0.32626734993E+01  0.66179630634E+01  0.51100000000E-03 0.  1.
        -12    1    3    3    0    0  0.12946502718E+01 -0.80341305789E+01  0.10119818595E+02  0.12985919370E+02  0.00000000000E+00 0.  1.
</event>
<event>
 7    1  0.2387817E-009  0.4778727E+02  0.7816164E-02  0.1312668E+00
        -11   -1    0    0    0    0  0.00000000000E+00  0.00000000000E+00  0.45593999997E+02  0.45594000000E+02  0.51100000000E-03 0. -1.
         11   -1    0    0    0    0 -0.00000000000E+00 -0.00000000000E+00 -0.45593999997E+02  0.45594000000E+02  0.51100000000E-03 0.  1.
    9900012    2    1    2    0    0  0.21451812672E+02 -0.37425949598E+02 -0.47687699069E+01  0.47787272626E+02  0.20000007209E+02 0.  0.
         12    1    1    2    0    0 -0.21451812672E+02  0.37425949598E+02  0.47687699069E+01  0.43400727374E+02  0.00000000000E+00 0. -1.
         11    1    3    3    0    0 -0.77702124427E+00 -0.15816530703E+01  0.35554757159E+01  0.39682233148E+01  0.51100000000E-03 0. -1.
        -11    1    3    3    0    0 -0.73581776289E+00 -0.91443380942E+00 -0.56357299152E+00  0.13020106566E+01  0.51100000000E-03 0.  1.
        -12    1    3    3    0    0  0.22964651679E+02 -0.34929862718E+02 -0.77606726313E+01  0.42517038654E+02  0.00000000000E+00 0.  1.
</event>
<event>
 7    1  0.2387817E-009  0.4778727E+02  0.7816164E-02  0.1312668E+00
        -11   -1    0    0    0    0  0.00000000000E+00  0.00000000000E+00  0.45593999997E+02  0.45594000000E+02  0.51100000000E-03 0.  1.
         11   -1    0    0    0    0 -0.00000000000E+00 -0.00000000000E+00 -0.45593999997E+02  0.45594000000E+02  0.51100000000E-03 0. -1.
    9900012    2    1    2    0    0 -0.41136888239E+02 -0.38161017392E+01 -0.13297253371E+02  0.47787272429E+02  0.20000006312E+02 0.  0.
         12    1    1    2    0    0  0.41136888239E+02  0.38161017392E+01  0.13297253371E+02  0.43400727571E+02  0.00000000000E+00 0. -1.
         11    1    3    3    0    0 -0.57883516118E+01 -0.72256126068E+01 -0.11290258750E+01  0.93267996447E+01  0.51100000000E-03 0. -1.
        -11    1    3    3    0    0 -0.17979318617E+00  0.12219760008E+01 -0.60209431044E+00  0.13740701423E+01  0.51100000000E-03 0.  1.
        -12    1    3    3    0    0 -0.35168743441E+02  0.21875348669E+01 -0.11566133186E+02  0.37086402642E+02  0.00000000000E+00 0.  1.
</event>
<event>
 7    1  0.2387817E-009  0.4778728E+02  0.7816164E-02  0.1312668E+00
        -11   -1    0    0    0    0  0.00000000000E+00  0.00000000000E+00  0.45593999997E+02  0.45594000000E+02  0.51100000000E-03 0. -1.
         11   -1    0    0    0    0 -0.00000000000E+00 -0.00000000000E+00 -0.45593999997E+02  0.45594000000E+02  0.51100000000E-03 0.  1.
    9900012    2    1    2    0    0  0.14040217957E+02 -0.18522771561E+02 -0.36652444259E+02  0.47787280458E+02  0.20000042922E+02 0.  0.
         12    1    1    2    0    0 -0.14040217957E+02  0.18522771561E+02  0.36652444259E+02  0.43400719542E+02  0.00000000000E+00 0. -1.
         11    1    3    3    0    0  0.12381517662E+02 -0.15341442130E+02 -0.19583282483E+02  0.27787889076E+02  0.51100000000E-03 0. -1.
        -11    1    3    3    0    0  0.54292985613E+01 -0.19775830745E+01 -0.13439503261E+02  0.14629024774E+02  0.51100000000E-03 0.  1.
         12    1    3    3    0    0 -0.37705982657E+01 -0.12037463570E+01 -0.36296585148E+01  0.53703666083E+01  0.00000000000E+00 0. -1.
</event>
<event>
 7    1  0.2387817E-009  0.4778727E+02  0.7816164E-02  0.1312668E+00
        -11   -1    0    0    0    0  0.00000000000E+00  0.00000000000E+00  0.45593999997E+02  0.45594000000E+02  0.51100000000E-03 0.  1.
         11   -1    0    0    0    0 -0.00000000000E+00 -0.00000000000E+00 -0.45593999997E+02  0.45594000000E+02  0.51100000000E-03 0. -1.
    9900012    2    1    2    0    0 -0.45594771399E+00  0.27585800258E+02  0.33502820962E+02  0.47787271013E+02  0.19999999856E+02 0.  0.
         12    1    1    2    0    0  0.45594771399E+00 -0.27585800258E+02 -0.33502820962E+02  0.43400728987E+02  0.00000000000E+00 0. -1.
         11    1    3    3    0    0 -0.23903016849E+00  0.65091231890E+01  0.60313739354E+01  0.88771218264E+01  0.51100000000E-03 0.  1.
        -11    1    3    3    0    0  0.57402050935E+01  0.49427615907E+01  0.17405533734E+02  0.18982451145E+02  0.51100000000E-03 0. -1.
         12    1    3    3    0    0 -0.59571226389E+01  0.16133915478E+02  0.10065913293E+02  0.19927698041E+02  0.00000000000E+00 0. -1.
</event>
<event>
 7    1  0.2387817E-009  0.4778727E+02  0.7816164E-02  0.1312668E+00
        -11   -1    0    0    0    0  0.00000000000E+00  0.00000000000E+00  0.45593999997E+02  0.45594000000E+02  0.51100000000E-03 0.  1.
         11   -1    0    0    0    0 -0.00000000000E+00 -0.00000000000E+00 -0.45593999997E+02  0.45594000000E+02  0.51100000000E-03 0. -1.
    9900012    2    1    2    0    0  0.31203983902E+02  0.16149892075E+02  0.25477748722E+02  0.47787270683E+02  0.19999998350E+02 0.  0.
         12    1    1    2    0    0 -0.31203983902E+02 -0.16149892075E+02 -0.25477748722E+02  0.43400729317E+02  0.00000000000E+00 0. -1.
         11    1    3    3    0    0  0.84251510346E+01  0.90452085368E+01  0.14227709450E+02  0.18847458287E+02  0.51100000000E-03 0. -1.
        -11    1    3    3    0    0  0.48286807035E+01 -0.93832025269E+00  0.74172881112E+01  0.89001553592E+01  0.51100000000E-03 0.  1.
        -12    1    3    3    0    0  0.17950152163E+02  0.80430037904E+01  0.38327511604E+01  0.20039657036E+02  0.00000000000E+00 0.  1.
</event>
<event>
 7    1  0.2387817E-009  0.4778727E+02  0.7816164E-02  0.1312668E+00
        -11   -1    0    0    0    0  0.00000000000E+00  0.00000000000E+00  0.45593999997E+02  0.45594000000E+02  0.51100000000E-03 0. -1.
         11   -1    0    0    0    0 -0.00000000000E+00 -0.00000000000E+00 -0.45593999997E+02  0.45594000000E+02  0.51100000000E-03 0.  1.
    9900012    2    1    2    0    0 -0.35383756995E+02 -0.24224427015E+02 -0.66925627813E+01  0.47787268211E+02  0.19999987079E+02 0.  0.
         12    1    1    2    0    0  0.35383756995E+02  0.24224427015E+02  0.66925627813E+01  0.43400731789E+02  0.00000000000E+00 0. -1.
         11    1    3    3    0    0 -0.48874026566E+01 -0.77494735342E+01  0.49839825087E+01  0.10429819111E+02  0.51100000000E-03 0. -1.
        -11    1    3    3    0    0 -0.14596331714E+02 -0.11536154400E+02 -0.40304909511E+01  0.19036297313E+02  0.51100000000E-03 0.  1.
         12    1    3    3    0    0 -0.15900022624E+02 -0.49387990815E+01 -0.76460543388E+01  0.18321151786E+02  0.00000000000E+00 0. -1.
</event>
<event>
 7    1  0.2387817E-009  0.4778727E+02  0.7816164E-02  0.1312668E+00
        -11   -1    0    0    0    0  0.00000000000E+00  0.00000000000E+00  0.45593999997E+02  0.45594000000E+02  0.51100000000E-03 0. -1.
         11   -1    0    0    0    0 -0.00000000000E+00 -0.00000000000E+00 -0.45593999997E+02  0.45594000000E+02  0.51100000000E-03 0.  1.
    9900012    2    1    2    0    0  0.25338366566E+02 -0.14572212980E+02 -0.32081787378E+02  0.47787270827E+02  0.19999999009E+02 0.  0.
         12    1    1    2    0    0 -0.25338366566E+02  0.14572212980E+02  0.32081787378E+02  0.43400729173E+02  0.00000000000E+00 0. -1.
         11    1    3    3    0    0  0.95035532920E+01 -0.17305072537E+01 -0.21283022885E+02  0.23372617396E+02  0.51100000000E-03 0.  1.
        -11    1    3    3    0    0 -0.93948794169E+00 -0.80229285716E+00 -0.41692633969E+00  0.13038938818E+01  0.51100000000E-03 0. -1.
        -12    1    3    3    0    0  0.16774301216E+02 -0.12039412869E+02 -0.10381838153E+02  0.23110759549E+02  0.00000000000E+00 0.  1.
</event>
<event>
 7    1  0.2387817E-009  0.4778727E+02  0.7816164E-02  0.1312668E+00
        -11   -1    0    0    0    0  0.00000000000E+00  0.00000000000E+00  0.45593999997E+02  0.45594000000E+02  0.51100000000E-03 0.  1.
         11   -1    0    0    0    0 -0.00000000000E+00 -0.00000000000E+00 -0.45593999997E+02  0.45594000000E+02  0.51100000000E-03 0. -1.
    9900012    2    1    2    0    0  0.22628042697E+02 -0.64555840047E+01  0.36468070062E+02  0.47787274025E+02  0.20000013587E+02 0.  0.
         12    1    1    2    0    0 -0.22628042697E+02  0.64555840047E+01 -0.36468070062E+02  0.43400725975E+02  0.00000000000E+00 0. -1.
         11    1    3    3    0    0  0.21476842422E+01  0.15649902667E+01  0.15431524708E+02  0.15658662051E+02  0.51100000000E-03 0. -1.
        -11    1    3    3    0    0  0.22595490204E+01  0.20896629090E+01  0.10411882405E+01  0.32490500246E+01  0.51100000000E-03 0.  1.
        -12    1    3    3    0    0  0.18220809434E+02 -0.10110237180E+02  0.19995357114E+02  0.28879561949E+02  0.00000000000E+00 0.  1.
</event>
<event>
 7    1  0.2387817E-009  0.4778727E+02  0.7816164E-02  0.1312668E+00
        -11   -1    0    0    0    0  0.00000000000E+00  0.00000000000E+00  0.45593999997E+02  0.45594000000E+02  0.51100000000E-03 0. -1.
         11   -1    0    0    0    0 -0.00000000000E+00 -0.00000000000E+00 -0.45593999997E+02  0.45594000000E+02  0.51100000000E-03 0.  1.
    9900012    2    1    2    0    0  0.23427201122E+02 -0.25712551823E+02 -0.25954847741E+02  0.47787271954E+02  0.20000004148E+02 0.  0.
         12    1    1    2    0    0 -0.23427201122E+02  0.25712551823E+02  0.25954847741E+02  0.43400728046E+02  0.00000000000E+00 0. -1.
         11    1    3    3    0    0  0.11595751789E+02 -0.97631236370E+01 -0.11489309775E+02  0.19020627804E+02  0.51100000000E-03 0.  1.
        -11    1    3    3    0    0  0.72291976899E+01 -0.96824086439E+01 -0.16758223457E+02  0.20660309535E+02  0.51100000000E-03 0. -1.
         12    1    3    3    0    0  0.46022516429E+01 -0.62670195420E+01  0.22926854914E+01  0.81063346147E+01  0.00000000000E+00 0. -1.
</event>
<event>
 7    1  0.2387817E-009  0.4778727E+02  0.7816164E-02  0.1312668E+00
        -11   -1    0    0    0    0  0.00000000000E+00  0.00000000000E+00  0.45593999997E+02  0.45594000000E+02  0.51100000000E-03 0. -1.
         11   -1    0    0    0    0 -0.00000000000E+00 -0.00000000000E+00 -0.45593999997E+02  0.45594000000E+02  0.51100000000E-03 0.  1.
    9900012    2    1    2    0    0  0.30796066073E+02 -0.27958770332E+02  0.12390835770E+02  0.47787270338E+02  0.19999996781E+02 0.  0.
         12    1    1    2    0    0 -0.30796066073E+02  0.27958770332E+02 -0.12390835770E+02  0.43400729662E+02  0.00000000000E+00 0. -1.
         11    1    3    3    0    0  0.87936671042E+01 -0.85781028774E+01  0.21251973673E+01  0.12467112506E+02  0.51100000000E-03 0. -1.
        -11    1    3    3    0    0  0.69033647398E+01 -0.46053977135E+01 -0.46002351620E+01  0.94883242270E+01  0.51100000000E-03 0.  1.
         12    1    3    3    0    0  0.15099034229E+02 -0.14775269742E+02  0.14865873565E+02  0.25831833606E+02  0.00000000000E+00 0. -1.
</event>
<event>
 7    1  0.2387817E-009  0.4778728E+02  0.7816164E-02  0.1312668E+00
        -11   -1    0    0    0    0  0.00000000000E+00  0.00000000000E+00  0.45593999997E+02  0.45594000000E+02  0.51100000000E-03 0.  1.
         11   -1    0    0    0    0 -0.00000000000E+00 -0.00000000000E+00 -0.45593999997E+02  0.45594000000E+02  0.51100000000E-03 0. -1.
    9900012    2    1    2    0    0  0.28317577303E+02 -0.32865991143E+02 -0.12506897779E+01  0.47787276699E+02  0.20000025782E+02 0.  0.
         12    1    1    2    0    0 -0.28317577303E+02  0.32865991143E+02  0.12506897779E+01  0.43400723301E+02  0.00000000000E+00 0. -1.
         11    1    3    3    0    0  0.16413134493E+01 -0.41123713243E+01  0.25455843471E+01  0.51073973486E+01  0.51100000000E-03 0. -1.
        -11    1    3    3    0    0  0.16227290930E+02 -0.69793409174E+01  0.21835543473E+01  0.17798990994E+02  0.51100000000E-03 0.  1.
         12    1    3    3    0    0  0.10448972923E+02 -0.21774278902E+02 -0.59798284723E+01  0.24880888356E+02  0.00000000000E+00 0. -1.
</event>
<event>
 7    1  0.2387817E-009  0.4778726E+02  0.7816164E-02  0.1312668E+00
        -11   -1    0    0    0    0  0.00000000000E+00  0.00000000000E+00  0.45593999997E+02  0.45594000000E+02  0.51100000000E-03 0. -1.
         11   -1    0    0    0    0 -0.00000000000E+00 -0.00000000000E+00 -0.45593999997E+02  0.45594000000E+02  0.51100000000E-03 0.  1.
    9900012    2    1    2    0    0  0.72468863327E+01  0.40595724697E+02 -0.13531208899E+02  0.47787264529E+02  0.19999970294E+02 0.  0.
         12    1    1    2    0    0 -0.72468863327E+01 -0.40595724697E+02  0.13531208899E+02  0.43400735471E+02  0.00000000000E+00 0. -1.
         11    1    3    3    0    0 -0.23725385353E+01  0.19644914760E+01  0.90851255819E+00  0.32114733675E+01  0.51100000000E-03 0. -1.
        -11    1    3    3    0    0  0.70852147102E+01  0.38626128101E+02 -0.14896014864E+02  0.42000824975E+02  0.51100000000E-03 0.  1.
         12    1    3    3    0    0  0.25342101579E+01  0.51051199923E-02  0.45629340661E+00  0.25749661861E+01  0.00000000000E+00 0. -1.
</event>
<event>
 7    1  0.2387817E-009  0.4778727E+02  0.7816164E-02  0.1312668E+00
        -11   -1    0    0    0    0  0.00000000000E+00  0.00000000000E+00  0.45593999997E+02  0.45594000000E+02  0.51100000000E-03 0. -1.
         11   -1    0    0    0    0 -0.00000000000E+00 -0.00000000000E+00 -0.45593999997E+02  0.45594000000E+02  0.51100000000E-03 0.  1.
    9900012    2    1    2    0    0 -0.25774323582E+02 -0.34143191274E+02 -0.73177852449E+01  0.47787271349E+02  0.20000001391E+02 0.  0.
         12    1    1    2    0    0  0.25774323582E+02  0.34143191274E+02  0.73177852449E+01  0.43400728651E+02  0.00000000000E+00 0. -1.
         11    1    3    3    0    0 -0.13827226693E+02 -0.18596006102E+02 -0.48748754861E+01  0.23680541637E+02  0.51100000000E-03 0. -1.
        -11    1    3    3    0    0 -0.37907440679E+01 -0.15059471473E+02  0.16371646854E+00  0.15530107050E+02  0.51100000000E-03 0.  1.
         12    1    3    3    0    0 -0.81563528213E+01 -0.48771369879E+00 -0.26066262274E+01  0.85766226621E+01  0.00000000000E+00 0. -1.
</event>
<event>
 7    1  0.2387817E-009  0.4778727E+02  0.7816164E-02  0.1312668E+00
        -11   -1    0    0    0    0  0.00000000000E+00  0.00000000000E+00  0.45593999997E+02  0.45594000000E+02  0.51100000000E-03 0. -1.
         11   -1    0    0    0    0 -0.00000000000E+00 -0.00000000000E+00 -0.45593999997E+02  0.45594000000E+02  0.51100000000E-03 0.  1.
    9900012    2    1    2    0    0 -0.12438486936E+02  0.41408022939E+02 -0.37792852452E+01  0.47787270536E+02  0.19999997683E+02 0.  0.
         12    1    1    2    0    0  0.12438486936E+02 -0.41408022939E+02  0.37792852452E+01  0.43400729464E+02  0.00000000000E+00 0. -1.
         11    1    3    3    0    0  0.43214663790E+00  0.40057763027E+01  0.38907348084E+01  0.56009652841E+01  0.51100000000E-03 0.  1.
        -11    1    3    3    0    0 -0.32822974846E+01  0.10856711910E+01  0.10754612902E+01  0.36206043639E+01  0.51100000000E-03 0. -1.
        -12    1    3    3    0    0 -0.95883360898E+01  0.36316575446E+02 -0.87454813437E+01  0.38565700888E+02  0.00000000000E+00 0.  1.
</event>
<event>
 7    1  0.2387817E-009  0.4778727E+02  0.7816164E-02  0.1312668E+00
        -11   -1    0    0    0    0  0.00000000000E+00  0.00000000000E+00  0.45593999997E+02  0.45594000000E+02  0.51100000000E-03 0. -1.
         11   -1    0    0    0    0 -0.00000000000E+00 -0.00000000000E+00 -0.45593999997E+02  0.45594000000E+02  0.51100000000E-03 0.  1.
    9900012    2    1    2    0    0 -0.19622643015E+02 -0.23799515907E+02 -0.30531268091E+02  0.47787269504E+02  0.19999992976E+02 0.  0.
         12    1    1    2    0    0  0.19622643015E+02  0.23799515907E+02  0.30531268091E+02  0.43400730496E+02  0.00000000000E+00 0. -1.
         11    1    3    3    0    0 -0.36988383822E+01 -0.12154853837E+02 -0.38346753137E+01  0.13271270180E+02  0.51100000000E-03 0. -1.
        -11    1    3    3    0    0 -0.37614259309E+01 -0.10733982591E+01 -0.76556958585E+00  0.39858005354E+01  0.51100000000E-03 0.  1.
        -12    1    3    3    0    0 -0.12162378702E+02 -0.10571263811E+02 -0.25931023192E+02  0.30530198788E+02  0.00000000000E+00 0.  1.
</event>
<event>
 7    1  0.2387817E-009  0.4778727E+02  0.7816164E-02  0.1312668E+00
        -11   -1    0    0    0    0  0.00000000000E+00  0.00000000000E+00  0.45593999997E+02  0.45594000000E+02  0.51100000000E-03 0.  1.
         11   -1    0    0    0    0 -0.00000000000E+00 -0.00000000000E+00 -0.45593999997E+02  0.45594000000E+02  0.51100000000E-03 0. -1.
    9900012    2    1    2    0    0 -0.23326790854E+02  0.12584374020E+02  0.34367391040E+02  0.47787271804E+02  0.20000003464E+02 0.  0.
         12    1    1    2    0    0  0.23326790854E+02 -0.12584374020E+02 -0.34367391040E+02  0.43400728196E+02  0.00000000000E+00 0. -1.
         11    1    3    3    0    0 -0.51018782704E+01  0.53865792151E+01  0.23745374743E+01  0.77899182284E+01  0.51100000000E-03 0. -1.
        -11    1    3    3    0    0  0.85783975636E+00  0.83537388652E+00  0.10468316978E+02  0.10536574358E+02  0.51100000000E-03 0.  1.
        -12    1    3    3    0    0 -0.19082752340E+02  0.63624209180E+01  0.21524536588E+02  0.29460779218E+02  0.00000000000E+00 0.  1.
</event>
<event>
 7    1  0.2387817E-009  0.4778727E+02  0.7816164E-02  0.1312668E+00
        -11   -1    0    0    0    0  0.00000000000E+00  0.00000000000E+00  0.45593999997E+02  0.45594000000E+02  0.51100000000E-03 0.  1.
         11   -1    0    0    0    0 -0.00000000000E+00 -0.00000000000E+00 -0.45593999997E+02  0.45594000000E+02  0.51100000000E-03 0. -1.
    9900012    2    1    2    0    0  0.14157364318E+02 -0.95305787522E+01  0.39904393371E+02  0.47787268369E+02  0.19999987801E+02 0.  0.
         12    1    1    2    0    0 -0.14157364318E+02  0.95305787522E+01 -0.39904393371E+02  0.43400731631E+02  0.00000000000E+00 0. -1.
         11    1    3    3    0    0 -0.19649784215E+01 -0.28587024975E+01  0.73221305795E+01  0.81022784851E+01  0.51100000000E-03 0. -1.
        -11    1    3    3    0    0  0.57082564260E+01  0.33431952708E+01  0.17911545380E+02  0.19094098675E+02  0.51100000000E-03 0.  1.
        -12    1    3    3    0    0  0.10414086313E+02 -0.10015071526E+02  0.14670717411E+02  0.20590891209E+02  0.00000000000E+00 0.  1.
</event>
<event>
 7    1  0.2387817E-009  0.4778732E+02  0.7816164E-02  0.1312668E+00
        -11   -1    0    0    0    0  0.00000000000E+00  0.00000000000E+00  0.45593999997E+02  0.45594000000E+02  0.51100000000E-03 0.  1.
         11   -1    0    0    0    0 -0.00000000000E+00 -0.00000000000E+00 -0.45593999997E+02  0.45594000000E+02  0.51100000000E-03 0. -1.
    9900012    2    1    2    0    0 -0.37833668743E+01 -0.28038650253E+02  0.32911084203E+02  0.47787317559E+02  0.20000212077E+02 0.  0.
         12    1    1    2    0    0  0.37833668743E+01  0.28038650253E+02 -0.32911084203E+02  0.43400682441E+02  0.00000000000E+00 0. -1.
         11    1    3    3    0    0  0.25822937674E+00  0.30594385725E+00 -0.52022720779E+00  0.65644547652E+00  0.51100000000E-03 0. -1.
        -11    1    3    3    0    0  0.45195195360E+01 -0.20342527450E+02  0.25721642461E+02  0.33103585471E+02  0.51100000000E-03 0.  1.
        -12    1    3    3    0    0 -0.85611157871E+01 -0.80020666606E+01  0.77096689506E+01  0.14027286612E+02  0.00000000000E+00 0.  1.
</event>
<event>
 7    1  0.2387817E-009  0.4778727E+02  0.7816164E-02  0.1312668E+00
        -11   -1    0    0    0    0  0.00000000000E+00  0.00000000000E+00  0.45593999997E+02  0.45594000000E+02  0.51100000000E-03 0. -1.
         11   -1    0    0    0    0 -0.00000000000E+00 -0.00000000000E+00 -0.45593999997E+02  0.45594000000E+02  0.51100000000E-03 0.  1.
    9900012    2    1    2    0    0 -0.20949038060E+02 -0.36636052807E+02  0.10127228840E+02  0.47787270457E+02  0.19999997323E+02 0.  0.
         12    1    1    2    0    0  0.20949038060E+02  0.36636052807E+02 -0.10127228840E+02  0.43400729543E+02  0.00000000000E+00 0. -1.
         11    1    3    3    0    0 -0.31805449403E+01 -0.23127869073E+01  0.23780951299E+01  0.45956703650E+01  0.51100000000E-03 0. -1.
        -11    1    3    3    0    0 -0.20221864623E+02 -0.25895950138E+02  0.24692746248E+01  0.32948768715E+02  0.51100000000E-03 0.  1.
         12    1    3    3    0    0  0.24533715034E+01 -0.84273157610E+01  0.52798590849E+01  0.10242831377E+02  0.00000000000E+00 0. -1.
</event>
<event>
 7    1  0.2387817E-009  0.4778727E+02  0.7816164E-02  0.1312668E+00
        -11   -1    0    0    0    0  0.00000000000E+00  0.00000000000E+00  0.45593999997E+02  0.45594000000E+02  0.51100000000E-03 0.  1.
         11   -1    0    0    0    0 -0.00000000000E+00 -0.00000000000E+00 -0.45593999997E+02  0.45594000000E+02  0.51100000000E-03 0. -1.
    9900012    2    1    2    0    0 -0.15997800080E+02  0.14993157839E+02  0.37455293413E+02  0.47787269660E+02  0.19999993687E+02 0.  0.
         12    1    1    2    0    0  0.15997800080E+02 -0.14993157839E+02 -0.37455293413E+02  0.43400730340E+02  0.00000000000E+00 0. -1.
         11    1    3    3    0    0 -0.99155003441E+01  0.91446740147E+01  0.12810574182E+02  0.18602500398E+02  0.51100000000E-03 0. -1.
        -11    1    3    3    0    0 -0.83283227288E+00  0.55680000420E+01  0.20579134583E+01  0.59942674386E+01  0.51100000000E-03 0.  1.
        -12    1    3    3    0    0 -0.52494674630E+01  0.28048378183E+00  0.22586805773E+02  0.23190501823E+02  0.00000000000E+00 0.  1.
</event>
<event>
 7    1  0.2387817E-009  0.4778727E+02  0.7816164E-02  0.1312668E+00
        -11   -1    0    0    0    0  0.00000000000E+00  0.00000000000E+00  0.45593999997E+02  0.45594000000E+02  0.51100000000E-03 0.  1.
         11   -1    0    0    0    0 -0.00000000000E+00 -0.00000000000E+00 -0.45593999997E+02  0.45594000000E+02  0.51100000000E-03 0. -1.
    9900012    2    1    2    0    0  0.29147218499E+02  0.26499341904E+02  0.18216700445E+02  0.47787266796E+02  0.19999980628E+02 0.  0.
         12    1    1    2    0    0 -0.29147218499E+02 -0.26499341904E+02 -0.18216700445E+02  0.43400733204E+02  0.00000000000E+00 0. -1.
         11    1    3    3    0    0 -0.32498464227E+00 -0.13732256787E+00 -0.31718778368E+00  0.47442687170E+00  0.51100000000E-03 0. -1.
        -11    1    3    3    0    0  0.26512174767E+02  0.28775635905E+02  0.14150117238E+02  0.41607192295E+02  0.51100000000E-03 0.  1.
        -12    1    3    3    0    0  0.29600283744E+01 -0.21389714325E+01  0.43837709905E+01  0.57056476287E+01  0.00000000000E+00 0.  1.
</event>
<event>
 7    1  0.2387817E-009  0.4778730E+02  0.7816164E-02  0.1312668E+00
        -11   -1    0    0    0    0  0.00000000000E+00  0.00000000000E+00  0.45593999997E+02  0.45594000000E+02  0.51100000000E-03 0. -1.
         11   -1    0    0    0    0 -0.00000000000E+00 -0.00000000000E+00 -0.45593999997E+02  0.45594000000E+02  0.51100000000E-03 0.  1.
    9900012    2    1    2    0    0 -0.17307992074E+02 -0.27018792957E+02 -0.29223952836E+02  0.47787295146E+02  0.20000109887E+02 0.  0.
         12    1    1    2    0    0  0.17307992074E+02  0.27018792957E+02  0.29223952836E+02  0.43400704854E+02  0.00000000000E+00 0. -1.
         11    1    3    3    0    0 -0.10320550947E+02 -0.65941210970E+01 -0.44562122947E+01  0.13032806036E+02  0.51100000000E-03 0. -1.
        -11    1    3    3    0    0 -0.49970906369E+01 -0.10211864637E+02 -0.50088773553E+01  0.12423443437E+02  0.51100000000E-03 0.  1.
        -12    1    3    3    0    0 -0.19903504901E+01 -0.10212807223E+02 -0.19758863186E+02  0.22331045673E+02  0.00000000000E+00 0.  1.
</event>
<event>
 7    1  0.2387817E-009  0.4778727E+02  0.7816164E-02  0.1312668E+00
        -11   -1    0    0    0    0  0.00000000000E+00  0.00000000000E+00  0.45593999997E+02  0.45594000000E+02  0.51100000000E-03 0. -1.
         11   -1    0    0    0    0 -0.00000000000E+00 -0.00000000000E+00 -0.45593999997E+02  0.45594000000E+02  0.51100000000E-03 0.  1.
    9900012    2    1    2    0    0 -0.32666209181E+02 -0.28233562480E+02 -0.44054440218E+01  0.47787271785E+02  0.20000003376E+02 0.  0.
         12    1    1    2    0    0  0.32666209181E+02  0.28233562480E+02  0.44054440218E+01  0.43400728215E+02  0.00000000000E+00 0. -1.
         11    1    3    3    0    0 -0.20121771503E+02 -0.12728658759E+02  0.22517448353E+01  0.23915994591E+02  0.51100000000E-03 0. -1.
        -11    1    3    3    0    0 -0.11850731852E+02 -0.60898832338E+01 -0.25021700921E+01  0.13556820374E+02  0.51100000000E-03 0.  1.
        -12    1    3    3    0    0 -0.69370582676E+00 -0.94150204873E+01 -0.41550187650E+01  0.10314456820E+02  0.00000000000E+00 0.  1.
</event>
<event>
 7    1  0.2387817E-009  0.4778727E+02  0.7816164E-02  0.1312668E+00
        -11   -1    0    0    0    0  0.00000000000E+00  0.00000000000E+00  0.45593999997E+02  0.45594000000E+02  0.51100000000E-03 0.  1.
         11   -1    0    0    0    0 -0.00000000000E+00 -0.00000000000E+00 -0.45593999997E+02  0.45594000000E+02  0.51100000000E-03 0. -1.
    9900012    2    1    2    0    0  0.52242921346E+01 -0.39333439183E+02  0.17584398440E+02  0.47787265734E+02  0.19999975789E+02 0.  0.
         12    1    1    2    0    0 -0.52242921346E+01  0.39333439183E+02 -0.17584398440E+02  0.43400734266E+02  0.00000000000E+00 0. -1.
         11    1    3    3    0    0  0.14422837409E+01 -0.54024227250E+00  0.13844324830E+01  0.20709171068E+01  0.51100000000E-03 0. -1.
        -11    1    3    3    0    0  0.41489280278E+01 -0.16361794500E+02  0.16034293845E+02  0.23281333776E+02  0.51100000000E-03 0.  1.
         12    1    3    3    0    0 -0.36691963413E+00 -0.22431402411E+02  0.16567211271E+00  0.22435014851E+02  0.00000000000E+00 0. -1.
</event>
<event>
 7    1  0.2387817E-009  0.4778728E+02  0.7816164E-02  0.1312668E+00
        -11   -1    0    0    0    0  0.00000000000E+00  0.00000000000E+00  0.45593999997E+02  0.45594000000E+02  0.51100000000E-03 0.  1.
         11   -1    0    0    0    0 -0.00000000000E+00 -0.00000000000E+00 -0.45593999997E+02  0.45594000000E+02  0.51100000000E-03 0. -1.
    9900012    2    1    2    0    0  0.29123661742E+02 -0.15873078705E+02  0.27990714298E+02  0.47787281253E+02  0.20000046545E+02 0.  0.
         12    1    1    2    0    0 -0.29123661742E+02  0.15873078705E+02 -0.27990714298E+02  0.43400718747E+02  0.00000000000E+00 0. -1.
         11    1    3    3    0    0  0.13886061166E+02 -0.39677173734E+01  0.10710533184E+02  0.17980016607E+02  0.51100000000E-03 0. -1.
        -11    1    3    3    0    0  0.13795342890E+02 -0.14203324235E+02  0.10301268404E+02  0.22319543807E+02  0.51100000000E-03 0.  1.
         12    1    3    3    0    0  0.14422576856E+01  0.22979629030E+01  0.69789127101E+01  0.74877208382E+01  0.00000000000E+00 0. -1.
</event>
<event>
 7    1  0.2387817E-009  0.4778727E+02  0.7816164E-02  0.1312668E+00
        -11   -1    0    0    0    0  0.00000000000E+00  0.00000000000E+00  0.45593999997E+02  0.45594000000E+02  0.51100000000E-03 0.  1.
         11   -1    0    0    0    0 -0.00000000000E+00 -0.00000000000E+00 -0.45593999997E+02  0.45594000000E+02  0.51100000000E-03 0. -1.
    9900012    2    1    2    0    0  0.18687921528E+02 -0.46989268682E+01  0.38888369852E+02  0.47787266890E+02  0.19999981057E+02 0.  0.
         12    1    1    2    0    0 -0.18687921528E+02  0.46989268682E+01 -0.38888369852E+02  0.43400733110E+02  0.00000000000E+00 0. -1.
         11    1    3    3    0    0  0.57310079557E+01 -0.82648010680E+01  0.13430911560E+02  0.16779176812E+02  0.51100000000E-03 0. -1.
        -11    1    3    3    0    0  0.11638189959E+02 -0.21519247669E+01  0.16935616541E+02  0.20661397668E+02  0.51100000000E-03 0.  1.
         12    1    3    3    0    0  0.13187236132E+01  0.57177989666E+01  0.85218417512E+01  0.10346692410E+02  0.00000000000E+00 0. -1.
</event>
<event>
 7    1  0.2387817E-009  0.4778727E+02  0.7816164E-02  0.1312668E+00
        -11   -1    0    0    0    0  0.00000000000E+00  0.00000000000E+00  0.45593999997E+02  0.45594000000E+02  0.51100000000E-03 0. -1.
         11   -1    0    0    0    0 -0.00000000000E+00 -0.00000000000E+00 -0.45593999997E+02  0.45594000000E+02  0.51100000000E-03 0.  1.
    9900012    2    1    2    0    0  0.10148763598E+02 -0.19234048247E+02 -0.37558989960E+02  0.47787265659E+02  0.19999975446E+02 0.  0.
         12    1    1    2    0    0 -0.10148763598E+02  0.19234048247E+02  0.37558989960E+02  0.43400734341E+02  0.00000000000E+00 0. -1.
         11    1    3    3    0    0  0.17680687463E+01  0.81149414320E+00 -0.86378935562E+00  0.21285493060E+01  0.51100000000E-03 0. -1.
        -11    1    3    3    0    0 -0.44779777320E+01 -0.89675546226E+01 -0.16174985429E+02  0.19028911539E+02  0.51100000000E-03 0.  1.
        -12    1    3    3    0    0  0.12858672583E+02 -0.11077987767E+02 -0.20520215176E+02  0.26629804814E+02  0.00000000000E+00 0.  1.
</event>
<event>
 7    1  0.2387817E-009  0.4778727E+02  0.7816164E-02  0.1312668E+00
        -11   -1    0    0    0    0  0.00000000000E+00  0.00000000000E+00  0.45593999997E+02  0.45594000000E+02  0.51100000000E-03 0.  1.
         11   -1    0    0    0    0 -0.00000000000E+00 -0.00000000000E+00 -0.45593999997E+02  0.45594000000E+02  0.51100000000E-03 0. -1.
    9900012    2    1    2    0    0 -0.95286054042E+01  0.37488114934E+02  0.19684257695E+02  0.47787273241E+02  0.20000010013E+02 0.  0.
         12    1    1    2    0    0  0.95286054042E+01 -0.37488114934E+02 -0.19684257695E+02  0.43400726759E+02  0.00000000000E+00 0. -1.
         11    1    3    3    0    0  0.88569124285E+00  0.38742291874E+00  0.20279508627E+01  0.22465819501E+01  0.51100000000E-03 0. -1.
        -11    1    3    3    0    0  0.19926898515E+00  0.86201838331E+01 -0.26110552802E+01  0.90091557531E+01  0.51100000000E-03 0.  1.
         12    1    3    3    0    0 -0.10613565632E+02  0.28480508182E+02  0.20267362112E+02  0.36531535537E+02  0.00000000000E+00 0. -1.
</event>
<event>
 7    1  0.2387817E-009  0.4778727E+02  0.7816164E-02  0.1312668E+00
        -11   -1    0    0    0    0  0.00000000000E+00  0.00000000000E+00  0.45593999997E+02  0.45594000000E+02  0.51100000000E-03 0. -1.
         11   -1    0    0    0    0 -0.00000000000E+00 -0.00000000000E+00 -0.45593999997E+02  0.45594000000E+02  0.51100000000E-03 0.  1.
    9900012    2    1    2    0    0 -0.27808382693E+01  0.34019686573E+02 -0.26805806952E+02  0.47787269334E+02  0.19999992202E+02 0.  0.
         12    1    1    2    0    0  0.27808382693E+01 -0.34019686573E+02  0.26805806952E+02  0.43400730666E+02  0.00000000000E+00 0. -1.
         11    1    3    3    0    0 -0.89441320771E+01  0.22196344034E+02 -0.13566737229E+02  0.27508753996E+02  0.51100000000E-03 0. -1.
        -11    1    3    3    0    0 -0.13290142574E+01  0.40734187609E+01 -0.56708224265E+01  0.71075485614E+01  0.51100000000E-03 0.  1.
        -12    1    3    3    0    0  0.74923080653E+01  0.77499237774E+01 -0.75682472960E+01  0.13170966777E+02  0.00000000000E+00 0.  1.
</event>
<event>
 7    1  0.2387817E-009  0.4778727E+02  0.7816164E-02  0.1312668E+00
        -11   -1    0    0    0    0  0.00000000000E+00  0.00000000000E+00  0.45593999997E+02  0.45594000000E+02  0.51100000000E-03 0.  1.
         11   -1    0    0    0    0 -0.00000000000E+00 -0.00000000000E+00 -0.45593999997E+02  0.45594000000E+02  0.51100000000E-03 0. -1.
    9900012    2    1    2    0    0  0.22989310044E+02 -0.11362127069E+02  0.35014527503E+02  0.47787269084E+02  0.19999991060E+02 0.  0.
         12    1    1    2    0    0 -0.22989310044E+02  0.11362127069E+02 -0.35014527503E+02  0.43400730916E+02  0.00000000000E+00 0. -1.
         11    1    3    3    0    0  0.41502960590E+01  0.20944207152E+01  0.11407675268E+02  0.12318547430E+02  0.51100000000E-03 0. -1.
        -11    1    3    3    0    0  0.41011063962E+01 -0.60209928076E+01  0.15394841220E+02  0.17031516800E+02  0.51100000000E-03 0.  1.
        -12    1    3    3    0    0  0.14737907589E+02 -0.74355549764E+01  0.82120110148E+01  0.18437204853E+02  0.00000000000E+00 0.  1.
</event>
<event>
 7    1  0.2387817E-009  0.4778727E+02  0.7816164E-02  0.1312668E+00
        -11   -1    0    0    0    0  0.00000000000E+00  0.00000000000E+00  0.45593999997E+02  0.45594000000E+02  0.51100000000E-03 0.  1.
         11   -1    0    0    0    0 -0.00000000000E+00 -0.00000000000E+00 -0.45593999997E+02  0.45594000000E+02  0.51100000000E-03 0. -1.
    9900012    2    1    2    0    0  0.22785462607E+02  0.30554279164E+02  0.20757697776E+02  0.47787270762E+02  0.19999998710E+02 0.  0.
         12    1    1    2    0    0 -0.22785462607E+02 -0.30554279164E+02 -0.20757697776E+02  0.43400729238E+02  0.00000000000E+00 0. -1.
         11    1    3    3    0    0  0.12850289723E+02  0.27733837570E+02  0.11837355607E+02  0.32778326382E+02  0.51100000000E-03 0. -1.
        -11    1    3    3    0    0  0.42113354878E+01  0.40306343842E+01  0.63465969525E+01  0.86174621130E+01  0.51100000000E-03 0.  1.
         12    1    3    3    0    0  0.57238373961E+01 -0.12101927907E+01  0.25737452170E+01  0.63914822670E+01  0.00000000000E+00 0. -1.
</event>
<event>
 7    1  0.2387817E-009  0.4778727E+02  0.7816164E-02  0.1312668E+00
        -11   -1    0    0    0    0  0.00000000000E+00  0.00000000000E+00  0.45593999997E+02  0.45594000000E+02  0.51100000000E-03 0.  1.
         11   -1    0    0    0    0 -0.00000000000E+00 -0.00000000000E+00 -0.45593999997E+02  0.45594000000E+02  0.51100000000E-03 0. -1.
    9900012    2    1    2    0    0  0.40281500088E+02  0.14469970850E+02  0.71864054131E+01  0.47787265807E+02  0.19999976120E+02 0.  0.
         12    1    1    2    0    0 -0.40281500088E+02 -0.14469970850E+02 -0.71864054131E+01  0.43400734193E+02  0.00000000000E+00 0. -1.
         11    1    3    3    0    0  0.47422600096E+01  0.33769961835E+01  0.56108188727E+01  0.80854450654E+01  0.51100000000E-03 0.  1.
        -11    1    3    3    0    0  0.70029179009E+01 -0.32436748919E+01  0.77561514683E+00  0.77565369236E+01  0.51100000000E-03 0. -1.
        -12    1    3    3    0    0  0.28536322177E+02  0.14336649559E+02  0.79997139358E+00  0.31945283818E+02  0.00000000000E+00 0.  1.
</event>
<event>
 7    1  0.2387817E-009  0.4778728E+02  0.7816164E-02  0.1312668E+00
        -11   -1    0    0    0    0  0.00000000000E+00  0.00000000000E+00  0.45593999997E+02  0.45594000000E+02  0.51100000000E-03 0.  1.
         11   -1    0    0    0    0 -0.00000000000E+00 -0.00000000000E+00 -0.45593999997E+02  0.45594000000E+02  0.51100000000E-03 0. -1.
    9900012    2    1    2    0    0  0.43305569251E+02 -0.28605579464E+01  0.26037159295E+00  0.47787275199E+02  0.20000018942E+02 0.  0.
         12    1    1    2    0    0 -0.43305569251E+02  0.28605579464E+01 -0.26037159295E+00  0.43400724801E+02  0.00000000000E+00 0. -1.
         11    1    3    3    0    0  0.11933778838E+02 -0.21704671819E+01 -0.82316602421E+01  0.14658998457E+02  0.51100000000E-03 0. -1.
        -11    1    3    3    0    0  0.37769732709E+01 -0.15731592510E+01  0.27464840282E+01  0.49278323730E+01  0.51100000000E-03 0.  1.
        -12    1    3    3    0    0  0.27594817142E+02  0.88306848644E+00  0.57455478068E+01  0.28200444369E+02  0.00000000000E+00 0.  1.
</event>
<event>
 7    1  0.2387817E-009  0.4778727E+02  0.7816164E-02  0.1312668E+00
        -11   -1    0    0    0    0  0.00000000000E+00  0.00000000000E+00  0.45593999997E+02  0.45594000000E+02  0.51100000000E-03 0. -1.
         11   -1    0    0    0    0 -0.00000000000E+00 -0.00000000000E+00 -0.45593999997E+02  0.45594000000E+02  0.51100000000E-03 0.  1.
    9900012    2    1    2    0    0  0.32639412573E+01 -0.99165412430E+00 -0.43266461140E+02  0.47787270167E+02  0.19999996000E+02 0.  0.
         12    1    1    2    0    0 -0.32639412573E+01  0.99165412430E+00  0.43266461140E+02  0.43400729833E+02  0.00000000000E+00 0. -1.
         11    1    3    3    0    0  0.15126188727E+01  0.32677776243E-01 -0.13880973261E+01  0.20532652384E+01  0.51100000000E-03 0. -1.
        -11    1    3    3    0    0 -0.26887275343E+01  0.75027764204E+01 -0.25775750307E+02  0.26979811228E+02  0.51100000000E-03 0.  1.
         12    1    3    3    0    0  0.44400499189E+01 -0.85271083210E+01 -0.16102613507E+02  0.18754193701E+02  0.00000000000E+00 0. -1.
</event>
<event>
 7    1  0.2387817E-009  0.4778727E+02  0.7816164E-02  0.1312668E+00
        -11   -1    0    0    0    0  0.00000000000E+00  0.00000000000E+00  0.45593999997E+02  0.45594000000E+02  0.51100000000E-03 0.  1.
         11   -1    0    0    0    0 -0.00000000000E+00 -0.00000000000E+00 -0.45593999997E+02  0.45594000000E+02  0.51100000000E-03 0. -1.
    9900012    2    1    2    0    0  0.20559148909E+02  0.32694947497E+02  0.19798625226E+02  0.47787265484E+02  0.19999974647E+02 0.  0.
         12    1    1    2    0    0 -0.20559148909E+02 -0.32694947497E+02 -0.19798625226E+02  0.43400734516E+02  0.00000000000E+00 0. -1.
         11    1    3    3    0    0  0.42512613246E+01 -0.14897468242E+01  0.42837355538E+01  0.62163461138E+01  0.51100000000E-03 0. -1.
        -11    1    3    3    0    0 -0.99056573171E-01  0.30535377009E+01 -0.13441012892E+00  0.30580992527E+01  0.51100000000E-03 0.  1.
         12    1    3    3    0    0  0.16406944158E+02  0.31131156620E+02  0.15649299801E+02  0.38512820117E+02  0.00000000000E+00 0. -1.
</event>
<event>
 7    1  0.2387817E-009  0.4778728E+02  0.7816164E-02  0.1312668E+00
        -11   -1    0    0    0    0  0.00000000000E+00  0.00000000000E+00  0.45593999997E+02  0.45594000000E+02  0.51100000000E-03 0.  1.
         11   -1    0    0    0    0 -0.00000000000E+00 -0.00000000000E+00 -0.45593999997E+02  0.45594000000E+02  0.51100000000E-03 0. -1.
    9900012    2    1    2    0    0 -0.41585663179E+02  0.12143454095E+02 -0.26061511535E+01  0.47787275545E+02  0.20000020518E+02 0.  0.
         12    1    1    2    0    0  0.41585663179E+02 -0.12143454095E+02  0.26061511535E+01  0.43400724455E+02  0.00000000000E+00 0. -1.
         11    1    3    3    0    0 -0.10580428901E+02  0.92166769882E+01  0.20980314564E+01  0.14187823889E+02  0.51100000000E-03 0. -1.
        -11    1    3    3    0    0 -0.80153252016E+00 -0.21104066478E+01 -0.17110436757E+01  0.28326562307E+01  0.51100000000E-03 0.  1.
         12    1    3    3    0    0 -0.30203701758E+02  0.50371837546E+01 -0.29931389342E+01  0.30766795425E+02  0.00000000000E+00 0. -1.
</event>
<event>
 7    1  0.2387817E-009  0.4778728E+02  0.7816164E-02  0.1312668E+00
        -11   -1    0    0    0    0  0.00000000000E+00  0.00000000000E+00  0.45593999997E+02  0.45594000000E+02  0.51100000000E-03 0.  1.
         11   -1    0    0    0    0 -0.00000000000E+00 -0.00000000000E+00 -0.45593999997E+02  0.45594000000E+02  0.51100000000E-03 0. -1.
    9900012    2    1    2    0    0 -0.22653703488E+02  0.24427840598E+02  0.27815693979E+02  0.47787279850E+02  0.20000040146E+02 0.  0.
         12    1    1    2    0    0  0.22653703488E+02 -0.24427840598E+02 -0.27815693979E+02  0.43400720150E+02  0.00000000000E+00 0. -1.
         11    1    3    3    0    0 -0.80658742643E+01  0.12331443033E+02  0.10937339422E+02  0.18350700500E+02  0.51100000000E-03 0. -1.
        -11    1    3    3    0    0 -0.15278714356E+02  0.10120768308E+02  0.74573330403E+01  0.19785875767E+02  0.51100000000E-03 0.  1.
         12    1    3    3    0    0  0.69088513236E+00  0.19756292568E+01  0.94210215167E+01  0.96507035828E+01  0.00000000000E+00 0. -1.
</event>
<event>
 7    1  0.2387817E-009  0.4778727E+02  0.7816164E-02  0.1312668E+00
        -11   -1    0    0    0    0  0.00000000000E+00  0.00000000000E+00  0.45593999997E+02  0.45594000000E+02  0.51100000000E-03 0.  1.
         11   -1    0    0    0    0 -0.00000000000E+00 -0.00000000000E+00 -0.45593999997E+02  0.45594000000E+02  0.51100000000E-03 0. -1.
    9900012    2    1    2    0    0  0.32582203078E+02 -0.14701610043E+02  0.24614755347E+02  0.47787268715E+02  0.19999989378E+02 0.  0.
         12    1    1    2    0    0 -0.32582203078E+02  0.14701610043E+02 -0.24614755347E+02  0.43400731285E+02  0.00000000000E+00 0. -1.
         11    1    3    3    0    0  0.14013846704E+02 -0.47910463402E+01  0.99165079505E+01  0.17823556174E+02  0.51100000000E-03 0. -1.
        -11    1    3    3    0    0  0.18900126868E+02 -0.29414408900E+01  0.11060886658E+02  0.22095476552E+02  0.51100000000E-03 0.  1.
         12    1    3    3    0    0 -0.33177049384E+00 -0.69691228124E+01  0.36373607389E+01  0.78682359891E+01  0.00000000000E+00 0. -1.
</event>
<event>
 7    1  0.2387817E-009  0.4778727E+02  0.7816164E-02  0.1312668E+00
        -11   -1    0    0    0    0  0.00000000000E+00  0.00000000000E+00  0.45593999997E+02  0.45594000000E+02  0.51100000000E-03 0.  1.
         11   -1    0    0    0    0 -0.00000000000E+00 -0.00000000000E+00 -0.45593999997E+02  0.45594000000E+02  0.51100000000E-03 0. -1.
    9900012    2    1    2    0    0  0.11260504429E+02  0.39801589218E+02  0.13139931115E+02  0.47787271273E+02  0.20000001044E+02 0.  0.
         12    1    1    2    0    0 -0.11260504429E+02 -0.39801589218E+02 -0.13139931115E+02  0.43400728727E+02  0.00000000000E+00 0. -1.
         11    1    3    3    0    0  0.57705263296E+01  0.16010912973E+02  0.21022117003E+01  0.17148399420E+02  0.51100000000E-03 0. -1.
        -11    1    3    3    0    0  0.44427616363E+01  0.24578395532E+02  0.63497551739E+01  0.25771205810E+02  0.51100000000E-03 0.  1.
         12    1    3    3    0    0  0.10472164627E+01 -0.78771928673E+00  0.46879642405E+01  0.48676660439E+01  0.00000000000E+00 0. -1.
</event>
<event>
 7    1  0.2387817E-009  0.4778726E+02  0.7816164E-02  0.1312668E+00
        -11   -1    0    0    0    0  0.00000000000E+00  0.00000000000E+00  0.45593999997E+02  0.45594000000E+02  0.51100000000E-03 0. -1.
         11   -1    0    0    0    0 -0.00000000000E+00 -0.00000000000E+00 -0.45593999997E+02  0.45594000000E+02  0.51100000000E-03 0.  1.
    9900012    2    1    2    0    0  0.13425622858E+02 -0.27733836477E+02 -0.30564861960E+02  0.47787264736E+02  0.19999971237E+02 0.  0.
         12    1    1    2    0    0 -0.13425622858E+02  0.27733836477E+02  0.30564861960E+02  0.43400735264E+02  0.00000000000E+00 0. -1.
         11    1    3    3    0    0  0.25582892158E+01 -0.15711480418E+02 -0.65187132299E+01  0.17201426774E+02  0.51100000000E-03 0. -1.
        -11    1    3    3    0    0  0.75148860262E+01 -0.57011608436E+01 -0.60161645620E+01  0.11187983878E+02  0.51100000000E-03 0.  1.
         12    1    3    3    0    0  0.33524476159E+01 -0.63211952154E+01 -0.18029984168E+02  0.19397854084E+02  0.00000000000E+00 0. -1.
</event>
<event>
 7    1  0.2387817E-009  0.4778730E+02  0.7816164E-02  0.1312668E+00
        -11   -1    0    0    0    0  0.00000000000E+00  0.00000000000E+00  0.45593999997E+02  0.45594000000E+02  0.51100000000E-03 0.  1.
         11   -1    0    0    0    0 -0.00000000000E+00 -0.00000000000E+00 -0.45593999997E+02  0.45594000000E+02  0.51100000000E-03 0. -1.
    9900012    2    1    2    0    0 -0.20920485179E+00 -0.41080427500E+02  0.13999136721E+02  0.47787295867E+02  0.20000113177E+02 0.  0.
         12    1    1    2    0    0  0.20920485179E+00  0.41080427500E+02 -0.13999136721E+02  0.43400704133E+02  0.00000000000E+00 0. -1.
         11    1    3    3    0    0 -0.32250453490E+01 -0.42041225319E+00 -0.78558865647E+00  0.33458651742E+01  0.51100000000E-03 0. -1.
        -11    1    3    3    0    0  0.67894257353E+00 -0.80927158002E+01 -0.98671282141E+00  0.81808688105E+01  0.51100000000E-03 0.  1.
        -12    1    3    3    0    0  0.23368979236E+01 -0.32567299447E+02  0.15771438199E+02  0.36260561883E+02  0.00000000000E+00 0.  1.
</event>
<event>
 7    1  0.2387817E-009  0.4778726E+02  0.7816164E-02  0.1312668E+00
        -11   -1    0    0    0    0  0.00000000000E+00  0.00000000000E+00  0.45593999997E+02  0.45594000000E+02  0.51100000000E-03 0. -1.
         11   -1    0    0    0    0 -0.00000000000E+00 -0.00000000000E+00 -0.45593999997E+02  0.45594000000E+02  0.51100000000E-03 0.  1.
    9900012    2    1    2    0    0  0.36585662321E+02 -0.75729345720E+01 -0.22085376687E+02  0.47787263959E+02  0.19999967694E+02 0.  0.
         12    1    1    2    0    0 -0.36585662321E+02  0.75729345720E+01  0.22085376687E+02  0.43400736041E+02  0.00000000000E+00 0. -1.
         11    1    3    3    0    0 -0.23036725923E-01 -0.19477581490E+01 -0.22773010715E+01  0.29967303731E+01  0.51100000000E-03 0. -1.
        -11    1    3    3    0    0  0.15230978595E+02  0.52452603162E+01 -0.65737695235E+01  0.17398560594E+02  0.51100000000E-03 0.  1.
         12    1    3    3    0    0  0.21377720453E+02 -0.10870436739E+02 -0.13234306092E+02  0.27391972992E+02  0.00000000000E+00 0. -1.
</event>
<event>
 7    1  0.2387817E-009  0.4778728E+02  0.7816164E-02  0.1312668E+00
        -11   -1    0    0    0    0  0.00000000000E+00  0.00000000000E+00  0.45593999997E+02  0.45594000000E+02  0.51100000000E-03 0. -1.
         11   -1    0    0    0    0 -0.00000000000E+00 -0.00000000000E+00 -0.45593999997E+02  0.45594000000E+02  0.51100000000E-03 0.  1.
    9900012    2    1    2    0    0  0.27813917926E+02 -0.11425508902E+02 -0.31296427029E+02  0.47787278475E+02  0.20000033880E+02 0.  0.
         12    1    1    2    0    0 -0.27813917926E+02  0.11425508902E+02  0.31296427029E+02  0.43400721525E+02  0.00000000000E+00 0. -1.
         11    1    3    3    0    0  0.12390381675E+02 -0.59456946600E+01 -0.22509394188E+01  0.13926218854E+02  0.51100000000E-03 0. -1.
        -11    1    3    3    0    0  0.24386562382E+01 -0.34593445374E+01 -0.62311904542E+01  0.75327182089E+01  0.51100000000E-03 0.  1.
         12    1    3    3    0    0  0.12984880013E+02 -0.20204697041E+01 -0.22814297156E+02  0.26328341412E+02  0.00000000000E+00 0. -1.
</event>
<event>
 7    1  0.2387817E-009  0.4778727E+02  0.7816164E-02  0.1312668E+00
        -11   -1    0    0    0    0  0.00000000000E+00  0.00000000000E+00  0.45593999997E+02  0.45594000000E+02  0.51100000000E-03 0. -1.
         11   -1    0    0    0    0 -0.00000000000E+00 -0.00000000000E+00 -0.45593999997E+02  0.45594000000E+02  0.51100000000E-03 0.  1.
    9900012    2    1    2    0    0 -0.12902679832E+02 -0.41343938802E+02 -0.27970032156E+01  0.47787266718E+02  0.19999980272E+02 0.  0.
         12    1    1    2    0    0  0.12902679832E+02  0.41343938802E+02  0.27970032156E+01  0.43400733282E+02  0.00000000000E+00 0. -1.
         11    1    3    3    0    0 -0.60813621740E+00 -0.41459827882E+01  0.37229815028E+01  0.56053184094E+01  0.51100000000E-03 0. -1.
        -11    1    3    3    0    0 -0.12009925486E+02 -0.13892892694E+02 -0.31569983957E+01  0.18633770867E+02  0.51100000000E-03 0.  1.
        -12    1    3    3    0    0 -0.28461812834E+00 -0.23305063319E+02 -0.33629863227E+01  0.23548177441E+02  0.00000000000E+00 0.  1.
</event>
<event>
 7    1  0.2387817E-009  0.4778728E+02  0.7816164E-02  0.1312668E+00
        -11   -1    0    0    0    0  0.00000000000E+00  0.00000000000E+00  0.45593999997E+02  0.45594000000E+02  0.51100000000E-03 0. -1.
         11   -1    0    0    0    0 -0.00000000000E+00 -0.00000000000E+00 -0.45593999997E+02  0.45594000000E+02  0.51100000000E-03 0.  1.
    9900012    2    1    2    0    0  0.99031157590E+01 -0.24372273026E+02 -0.34518741278E+02  0.47787275426E+02  0.20000019976E+02 0.  0.
         12    1    1    2    0    0 -0.99031157590E+01  0.24372273026E+02  0.34518741278E+02  0.43400724574E+02  0.00000000000E+00 0. -1.
         11    1    3    3    0    0 -0.27555268352E+01  0.40095896698E+00 -0.11098700196E+01  0.29975836859E+01  0.51100000000E-03 0. -1.
        -11    1    3    3    0    0  0.78716621425E+01 -0.46419381445E+01 -0.10422716454E+02  0.13861589850E+02  0.51100000000E-03 0.  1.
         12    1    3    3    0    0  0.47869804517E+01 -0.20131293848E+02 -0.22986154804E+02  0.30928101890E+02  0.00000000000E+00 0. -1.
</event>
<event>
 7    1  0.2387817E-009  0.4778727E+02  0.7816164E-02  0.1312668E+00
        -11   -1    0    0    0    0  0.00000000000E+00  0.00000000000E+00  0.45593999997E+02  0.45594000000E+02  0.51100000000E-03 0.  1.
         11   -1    0    0    0    0 -0.00000000000E+00 -0.00000000000E+00 -0.45593999997E+02  0.45594000000E+02  0.51100000000E-03 0. -1.
    9900012    2    1    2    0    0  0.12654701104E+02  0.29157705887E+02  0.29551822528E+02  0.47787268585E+02  0.19999988787E+02 0.  0.
         12    1    1    2    0    0 -0.12654701104E+02 -0.29157705887E+02 -0.29551822528E+02  0.43400731415E+02  0.00000000000E+00 0. -1.
         11    1    3    3    0    0  0.36932180157E+01  0.10928336510E+01  0.82081126433E+01  0.90668218317E+01  0.51100000000E-03 0. -1.
        -11    1    3    3    0    0  0.45726125640E-01  0.12303261182E+02  0.15293071240E+02  0.19627795465E+02  0.51100000000E-03 0.  1.
         12    1    3    3    0    0  0.89157569627E+01  0.15761611054E+02  0.60506386446E+01  0.19092651289E+02  0.00000000000E+00 0. -1.
</event>
<event>
 7    1  0.2387817E-009  0.4778727E+02  0.7816164E-02  0.1312668E+00
        -11   -1    0    0    0    0  0.00000000000E+00  0.00000000000E+00  0.45593999997E+02  0.45594000000E+02  0.51100000000E-03 0.  1.
         11   -1    0    0    0    0 -0.00000000000E+00 -0.00000000000E+00 -0.45593999997E+02  0.45594000000E+02  0.51100000000E-03 0. -1.
    9900012    2    1    2    0    0  0.15666985017E+02 -0.38180816371E+02 -0.13431086506E+02  0.47787271401E+02  0.20000001624E+02 0.  0.
         12    1    1    2    0    0 -0.15666985017E+02  0.38180816371E+02  0.13431086506E+02  0.43400728599E+02  0.00000000000E+00 0. -1.
         11    1    3    3    0    0  0.11280786686E+02 -0.24367219402E+02 -0.12696143932E+02  0.29702013411E+02  0.51100000000E-03 0. -1.
        -11    1    3    3    0    0  0.70889563995E+01 -0.13478410558E+02  0.12433446479E+00  0.15229455451E+02  0.51100000000E-03 0.  1.
         12    1    3    3    0    0 -0.27027580694E+01 -0.33518640991E+00 -0.85927703797E+00  0.28558025385E+01  0.00000000000E+00 0. -1.
</event>
<event>
 7    1  0.2387817E-009  0.4778726E+02  0.7816164E-02  0.1312668E+00
        -11   -1    0    0    0    0  0.00000000000E+00  0.00000000000E+00  0.45593999997E+02  0.45594000000E+02  0.51100000000E-03 0.  1.
         11   -1    0    0    0    0 -0.00000000000E+00 -0.00000000000E+00 -0.45593999997E+02  0.45594000000E+02  0.51100000000E-03 0. -1.
    9900012    2    1    2    0    0  0.55098254828E+01 -0.29188144372E+02  0.31643608887E+02  0.47787263461E+02  0.19999965424E+02 0.  0.
         12    1    1    2    0    0 -0.55098254828E+01  0.29188144372E+02 -0.31643608887E+02  0.43400736539E+02  0.00000000000E+00 0. -1.
         11    1    3    3    0    0  0.30340551917E+01 -0.17623160853E+01  0.10472658319E+02  0.11044809705E+02  0.51100000000E-03 0. -1.
        -11    1    3    3    0    0 -0.23456938087E+01 -0.13598171463E+02  0.16193838869E+02  0.21275642509E+02  0.51100000000E-03 0.  1.
        -12    1    3    3    0    0  0.48214640998E+01 -0.13827656823E+02  0.49771116990E+01  0.15466811247E+02  0.00000000000E+00 0.  1.
</event>
<event>
 7    1  0.2387817E-009  0.4778724E+02  0.7816164E-02  0.1312668E+00
        -11   -1    0    0    0    0  0.00000000000E+00  0.00000000000E+00  0.45593999997E+02  0.45594000000E+02  0.51100000000E-03 0.  1.
         11   -1    0    0    0    0 -0.00000000000E+00 -0.00000000000E+00 -0.45593999997E+02  0.45594000000E+02  0.51100000000E-03 0. -1.
    9900012    2    1    2    0    0  0.24618568143E+02 -0.62267031758E+01  0.35196315764E+02  0.47787235338E+02  0.19999837201E+02 0.  0.
         12    1    1    2    0    0 -0.24618568143E+02  0.62267031758E+01 -0.35196315764E+02  0.43400764662E+02  0.00000000000E+00 0. -1.
         11    1    3    3    0    0 -0.90524146453E+00  0.11865088064E+01  0.36096347979E+00  0.15354348412E+01  0.51100000000E-03 0. -1.
        -11    1    3    3    0    0  0.58529674635E+01  0.31448071346E+01  0.14928371645E+02  0.16340236237E+02  0.51100000000E-03 0.  1.
        -12    1    3    3    0    0  0.19670842144E+02 -0.10558019117E+02  0.19906980639E+02  0.29911564260E+02  0.00000000000E+00 0.  1.
</event>
<event>
 7    1  0.2387817E-009  0.4778726E+02  0.7816164E-02  0.1312668E+00
        -11   -1    0    0    0    0  0.00000000000E+00  0.00000000000E+00  0.45593999997E+02  0.45594000000E+02  0.51100000000E-03 0.  1.
         11   -1    0    0    0    0 -0.00000000000E+00 -0.00000000000E+00 -0.45593999997E+02  0.45594000000E+02  0.51100000000E-03 0. -1.
    9900012    2    1    2    0    0  0.14733999609E+01  0.13219888038E+02  0.41312076190E+02  0.47787262837E+02  0.19999962578E+02 0.  0.
         12    1    1    2    0    0 -0.14733999609E+01 -0.13219888038E+02 -0.41312076190E+02  0.43400737163E+02  0.00000000000E+00 0. -1.
         11    1    3    3    0    0 -0.11612088421E+01  0.99178817797E+00  0.12779137923E+02  0.12870058900E+02  0.51100000000E-03 0. -1.
        -11    1    3    3    0    0 -0.49479244536E+01  0.10937951044E+02  0.13752043025E+02  0.18254846400E+02  0.51100000000E-03 0.  1.
         12    1    3    3    0    0  0.75825332567E+01  0.12901488153E+01  0.14780895242E+02  0.16662357538E+02  0.00000000000E+00 0. -1.
</event>
<event>
 7    1  0.2387817E-009  0.4778727E+02  0.7816164E-02  0.1312668E+00
        -11   -1    0    0    0    0  0.00000000000E+00  0.00000000000E+00  0.45593999997E+02  0.45594000000E+02  0.51100000000E-03 0.  1.
         11   -1    0    0    0    0 -0.00000000000E+00 -0.00000000000E+00 -0.45593999997E+02  0.45594000000E+02  0.51100000000E-03 0. -1.
    9900012    2    1    2    0    0 -0.37133994341E+02  0.10583623150E+00  0.22465051712E+02  0.47787270911E+02  0.19999999391E+02 0.  0.
         12    1    1    2    0    0  0.37133994341E+02 -0.10583623150E+00 -0.22465051712E+02  0.43400729089E+02  0.00000000000E+00 0. -1.
         11    1    3    3    0    0 -0.82227207630E+01  0.48074987588E+01  0.93965214240E+01  0.13379827958E+02  0.51100000000E-03 0. -1.
        -11    1    3    3    0    0 -0.33676019953E+01  0.13448539590E+01  0.63488297543E+01  0.73114304264E+01  0.51100000000E-03 0.  1.
        -12    1    3    3    0    0 -0.25543671583E+02 -0.60465164863E+01  0.67197005335E+01  0.27096012526E+02  0.00000000000E+00 0.  1.
</event>
<event>
 7    1  0.2387817E-009  0.4778726E+02  0.7816164E-02  0.1312668E+00
        -11   -1    0    0    0    0  0.00000000000E+00  0.00000000000E+00  0.45593999997E+02  0.45594000000E+02  0.51100000000E-03 0. -1.
         11   -1    0    0    0    0 -0.00000000000E+00 -0.00000000000E+00 -0.45593999997E+02  0.45594000000E+02  0.51100000000E-03 0.  1.
    9900012    2    1    2    0    0 -0.27292693499E+02 -0.24490249508E+02 -0.23215532998E+02  0.47787257936E+02  0.19999940232E+02 0.  0.
         12    1    1    2    0    0  0.27292693499E+02  0.24490249508E+02  0.23215532998E+02  0.43400742064E+02  0.00000000000E+00 0. -1.
         11    1    3    3    0    0 -0.15852110529E+01 -0.33094870691E+01 -0.22223497349E+01  0.42900393178E+01  0.51100000000E-03 0. -1.
        -11    1    3    3    0    0 -0.12454167148E+02 -0.20268744838E+02 -0.85035830957E+01  0.25263396889E+02  0.51100000000E-03 0.  1.
         12    1    3    3    0    0 -0.13253315298E+02 -0.91201760013E+00 -0.12489600167E+02  0.18233821728E+02  0.00000000000E+00 0. -1.
</event>
<event>
 7    1  0.2387817E-009  0.4778727E+02  0.7816164E-02  0.1312668E+00
        -11   -1    0    0    0    0  0.00000000000E+00  0.00000000000E+00  0.45593999997E+02  0.45594000000E+02  0.51100000000E-03 0.  1.
         11   -1    0    0    0    0 -0.00000000000E+00 -0.00000000000E+00 -0.45593999997E+02  0.45594000000E+02  0.51100000000E-03 0. -1.
    9900012    2    1    2    0    0 -0.35844416524E+02  0.24467850508E+02 -0.35443662236E+00  0.47787268096E+02  0.19999986559E+02 0.  0.
         12    1    1    2    0    0  0.35844416524E+02 -0.24467850508E+02  0.35443662236E+00  0.43400731904E+02  0.00000000000E+00 0. -1.
         11    1    3    3    0    0 -0.69213047756E+01  0.99604958622E+01 -0.56087948031E+01  0.13363177654E+02  0.51100000000E-03 0.  1.
        -11    1    3    3    0    0 -0.85020927599E+01  0.99531330417E+01  0.23844488537E+01  0.13305488914E+02  0.51100000000E-03 0. -1.
        -12    1    3    3    0    0 -0.20421018989E+02  0.45542216044E+01  0.28699093270E+01  0.21118601528E+02  0.00000000000E+00 0.  1.
</event>
<event>
 7    1  0.2387817E-009  0.4778727E+02  0.7816164E-02  0.1312668E+00
        -11   -1    0    0    0    0  0.00000000000E+00  0.00000000000E+00  0.45593999997E+02  0.45594000000E+02  0.51100000000E-03 0.  1.
         11   -1    0    0    0    0 -0.00000000000E+00 -0.00000000000E+00 -0.45593999997E+02  0.45594000000E+02  0.51100000000E-03 0. -1.
    9900012    2    1    2    0    0  0.88898366355E+01 -0.14579694193E+02  0.39900208319E+02  0.47787270720E+02  0.19999998520E+02 0.  0.
         12    1    1    2    0    0 -0.88898366355E+01  0.14579694193E+02 -0.39900208319E+02  0.43400729280E+02  0.00000000000E+00 0. -1.
         11    1    3    3    0    0  0.78446221829E+00 -0.10558775404E+02  0.12017225621E+02  0.16016142822E+02  0.51100000000E-03 0. -1.
        -11    1    3    3    0    0  0.47817700705E+01 -0.82059924322E+01  0.14219329275E+02  0.17099501808E+02  0.51100000000E-03 0.  1.
        -12    1    3    3    0    0  0.33236043467E+01  0.41850736432E+01  0.13663653423E+02  0.14671626090E+02  0.00000000000E+00 0.  1.
</event>
<event>
 7    1  0.2387817E-009  0.4778727E+02  0.7816164E-02  0.1312668E+00
        -11   -1    0    0    0    0  0.00000000000E+00  0.00000000000E+00  0.45593999997E+02  0.45594000000E+02  0.51100000000E-03 0. -1.
         11   -1    0    0    0    0 -0.00000000000E+00 -0.00000000000E+00 -0.45593999997E+02  0.45594000000E+02  0.51100000000E-03 0.  1.
    9900012    2    1    2    0    0  0.43121204780E+02 -0.39985779667E+01 -0.28629501794E+01  0.47787269463E+02  0.19999992791E+02 0.  0.
         12    1    1    2    0    0 -0.43121204780E+02  0.39985779667E+01  0.28629501794E+01  0.43400730537E+02  0.00000000000E+00 0. -1.
         11    1    3    3    0    0  0.18691763300E+02  0.41294198455E+01  0.28059955813E+01  0.19347034268E+02  0.51100000000E-03 0. -1.
        -11    1    3    3    0    0  0.19855878056E+02 -0.32260973130E+01 -0.75933422196E+00  0.20130578381E+02  0.51100000000E-03 0.  1.
         12    1    3    3    0    0  0.45735634237E+01 -0.49019004993E+01 -0.49096115388E+01  0.83096568134E+01  0.00000000000E+00 0. -1.
</event>
<event>
 7    1  0.2387817E-009  0.4778726E+02  0.7816164E-02  0.1312668E+00
        -11   -1    0    0    0    0  0.00000000000E+00  0.00000000000E+00  0.45593999997E+02  0.45594000000E+02  0.51100000000E-03 0.  1.
         11   -1    0    0    0    0 -0.00000000000E+00 -0.00000000000E+00 -0.45593999997E+02  0.45594000000E+02  0.51100000000E-03 0. -1.
    9900012    2    1    2    0    0  0.14643691654E+02 -0.48233551418E+01  0.40569957408E+02  0.47787263783E+02  0.19999966893E+02 0.  0.
         12    1    1    2    0    0 -0.14643691654E+02  0.48233551418E+01 -0.40569957408E+02  0.43400736217E+02  0.00000000000E+00 0. -1.
         11    1    3    3    0    0 -0.16628148494E+01  0.45637807452E+01  0.49474940906E+01  0.69333069996E+01  0.51100000000E-03 0. -1.
        -11    1    3    3    0    0  0.61730260008E+01 -0.32712420961E+00  0.84338873560E+01  0.10456754585E+02  0.51100000000E-03 0.  1.
         12    1    3    3    0    0  0.10133480502E+02 -0.90600116774E+01  0.27188575962E+02  0.30397202199E+02  0.00000000000E+00 0. -1.
</event>
<event>
 7    1  0.2387817E-009  0.4778727E+02  0.7816164E-02  0.1312668E+00
        -11   -1    0    0    0    0  0.00000000000E+00  0.00000000000E+00  0.45593999997E+02  0.45594000000E+02  0.51100000000E-03 0.  1.
         11   -1    0    0    0    0 -0.00000000000E+00 -0.00000000000E+00 -0.45593999997E+02  0.45594000000E+02  0.51100000000E-03 0. -1.
    9900012    2    1    2    0    0  0.18015103576E+02 -0.32830980547E+02  0.21936411948E+02  0.47787269480E+02  0.19999992865E+02 0.  0.
         12    1    1    2    0    0 -0.18015103576E+02  0.32830980547E+02 -0.21936411948E+02  0.43400730520E+02  0.00000000000E+00 0. -1.
         11    1    3    3    0    0  0.46190413816E+01 -0.52325394478E+01  0.54560782636E+01  0.88591084562E+01  0.51100000000E-03 0. -1.
        -11    1    3    3    0    0  0.41068051859E+01 -0.17408203357E+02  0.59900571600E+00  0.17896094576E+02  0.51100000000E-03 0.  1.
        -12    1    3    3    0    0  0.92892570083E+01 -0.10190237742E+02  0.15881327968E+02  0.21032066447E+02  0.00000000000E+00 0.  1.
</event>
<event>
 7    1  0.2387817E-009  0.4778727E+02  0.7816164E-02  0.1312668E+00
        -11   -1    0    0    0    0  0.00000000000E+00  0.00000000000E+00  0.45593999997E+02  0.45594000000E+02  0.51100000000E-03 0.  1.
         11   -1    0    0    0    0 -0.00000000000E+00 -0.00000000000E+00 -0.45593999997E+02  0.45594000000E+02  0.51100000000E-03 0. -1.
    9900012    2    1    2    0    0 -0.12749514315E+02 -0.18194572122E+02  0.37283115946E+02  0.47787270690E+02  0.19999998385E+02 0.  0.
         12    1    1    2    0    0  0.12749514315E+02  0.18194572122E+02 -0.37283115946E+02  0.43400729310E+02  0.00000000000E+00 0. -1.
         11    1    3    3    0    0  0.31811016013E+01 -0.38582830858E+00  0.26111313695E+01  0.41335551491E+01  0.51100000000E-03 0. -1.
        -11    1    3    3    0    0 -0.43041968431E+01 -0.36984492706E+01  0.18131586863E+02  0.18998923125E+02  0.51100000000E-03 0.  1.
        -12    1    3    3    0    0 -0.11626419073E+02 -0.14110294543E+02  0.16540397713E+02  0.24654792416E+02  0.00000000000E+00 0.  1.
</event>
<event>
 7    1  0.2387817E-009  0.4778727E+02  0.7816164E-02  0.1312668E+00
        -11   -1    0    0    0    0  0.00000000000E+00  0.00000000000E+00  0.45593999997E+02  0.45594000000E+02  0.51100000000E-03 0.  1.
         11   -1    0    0    0    0 -0.00000000000E+00 -0.00000000000E+00 -0.45593999997E+02  0.45594000000E+02  0.51100000000E-03 0. -1.
    9900012    2    1    2    0    0  0.27974571934E+02  0.33174490286E+02 -0.70727960830E+00  0.47787265846E+02  0.19999976299E+02 0.  0.
         12    1    1    2    0    0 -0.27974571934E+02 -0.33174490286E+02  0.70727960830E+00  0.43400734154E+02  0.00000000000E+00 0. -1.
         11    1    3    3    0    0  0.15373351469E+02  0.20984301768E+02 -0.48554484608E+01  0.26462355074E+02  0.51100000000E-03 0.  1.
        -11    1    3    3    0    0  0.76258459790E+01  0.10703660783E+02 -0.19820630213E+01  0.13290991503E+02  0.51100000000E-03 0. -1.
         12    1    3    3    0    0  0.49753744865E+01  0.14865277351E+01  0.61302318738E+01  0.80339192686E+01  0.00000000000E+00 0. -1.
</event>
<event>
 7    1  0.2387817E-009  0.4778727E+02  0.7816164E-02  0.1312668E+00
        -11   -1    0    0    0    0  0.00000000000E+00  0.00000000000E+00  0.45593999997E+02  0.45594000000E+02  0.51100000000E-03 0. -1.
         11   -1    0    0    0    0 -0.00000000000E+00 -0.00000000000E+00 -0.45593999997E+02  0.45594000000E+02  0.51100000000E-03 0.  1.
    9900012    2    1    2    0    0 -0.14580427036E+02  0.27393204800E+02 -0.30342162267E+02  0.47787270365E+02  0.19999996903E+02 0.  0.
         12    1    1    2    0    0  0.14580427036E+02 -0.27393204800E+02  0.30342162267E+02  0.43400729635E+02  0.00000000000E+00 0. -1.
         11    1    3    3    0    0  0.17322581327E+01 -0.85935815517E+00 -0.35601537557E+00  0.19662049451E+01  0.51100000000E-03 0. -1.
        -11    1    3    3    0    0 -0.47791598181E+01  0.31482699846E+01 -0.10680448779E+02  0.12117093663E+02  0.51100000000E-03 0.  1.
        -12    1    3    3    0    0 -0.11533525351E+02  0.25104292971E+02 -0.19305698113E+02  0.33703971757E+02  0.00000000000E+00 0.  1.
</event>
<event>
 7    1  0.2387817E-009  0.4778727E+02  0.7816164E-02  0.1312668E+00
        -11   -1    0    0    0    0  0.00000000000E+00  0.00000000000E+00  0.45593999997E+02  0.45594000000E+02  0.51100000000E-03 0.  1.
         11   -1    0    0    0    0 -0.00000000000E+00 -0.00000000000E+00 -0.45593999997E+02  0.45594000000E+02  0.51100000000E-03 0. -1.
    9900012    2    1    2    0    0 -0.25039858342E+02 -0.35357118087E+02 -0.25501555488E+01  0.47787267304E+02  0.19999982946E+02 0.  0.
         12    1    1    2    0    0  0.25039858342E+02  0.35357118087E+02  0.25501555488E+01  0.43400732696E+02  0.00000000000E+00 0. -1.
         11    1    3    3    0    0 -0.61702050008E+01 -0.87694662670E+00 -0.47534258835E+01  0.78380815911E+01  0.51100000000E-03 0. -1.
        -11    1    3    3    0    0 -0.16545611905E+01 -0.86255597605E+01 -0.29106977827E+00  0.87876376685E+01  0.51100000000E-03 0.  1.
         12    1    3    3    0    0 -0.17215092151E+02 -0.25854611700E+02  0.24943401130E+01  0.31161548044E+02  0.00000000000E+00 0. -1.
</event>
<event>
 7    1  0.2387817E-009  0.4778727E+02  0.7816164E-02  0.1312668E+00
        -11   -1    0    0    0    0  0.00000000000E+00  0.00000000000E+00  0.45593999997E+02  0.45594000000E+02  0.51100000000E-03 0. -1.
         11   -1    0    0    0    0 -0.00000000000E+00 -0.00000000000E+00 -0.45593999997E+02  0.45594000000E+02  0.51100000000E-03 0.  1.
    9900012    2    1    2    0    0  0.48713328734E+01 -0.40612917659E+02  0.14508075542E+02  0.47787271657E+02  0.20000002795E+02 0.  0.
         12    1    1    2    0    0 -0.48713328734E+01  0.40612917659E+02 -0.14508075542E+02  0.43400728343E+02  0.00000000000E+00 0. -1.
         11    1    3    3    0    0  0.45346548536E+01 -0.32196941785E+02  0.14614511353E+02  0.35648142972E+02  0.51100000000E-03 0.  1.
        -11    1    3    3    0    0  0.43517591236E+01 -0.60421743039E+01  0.33683868022E+00  0.74538002620E+01  0.51100000000E-03 0. -1.
        -12    1    3    3    0    0 -0.40150811038E+01 -0.23738015696E+01 -0.44327449171E+00  0.46853284236E+01  0.00000000000E+00 0.  1.
</event>
<event>
 7    1  0.2387817E-009  0.4778727E+02  0.7816164E-02  0.1312668E+00
        -11   -1    0    0    0    0  0.00000000000E+00  0.00000000000E+00  0.45593999997E+02  0.45594000000E+02  0.51100000000E-03 0. -1.
         11   -1    0    0    0    0 -0.00000000000E+00 -0.00000000000E+00 -0.45593999997E+02  0.45594000000E+02  0.51100000000E-03 0.  1.
    9900012    2    1    2    0    0  0.24348057083E+02  0.33407880782E+02 -0.13217736275E+02  0.47787274957E+02  0.20000017837E+02 0.  0.
         12    1    1    2    0    0 -0.24348057083E+02 -0.33407880782E+02  0.13217736275E+02  0.43400725043E+02  0.00000000000E+00 0. -1.
         11    1    3    3    0    0  0.22508057075E+02  0.20455727676E+02 -0.10853720071E+02  0.32293229441E+02  0.51100000000E-03 0. -1.
        -11    1    3    3    0    0  0.12766946704E+01  0.99465164045E+00 -0.31038398968E+01  0.35004433338E+01  0.51100000000E-03 0.  1.
        -12    1    3    3    0    0  0.56330533715E+00  0.11957501466E+02  0.73982369326E+00  0.11993602182E+02  0.00000000000E+00 0.  1.
</event>
<event>
 7    1  0.2387817E-009  0.4778727E+02  0.7816164E-02  0.1312668E+00
        -11   -1    0    0    0    0  0.00000000000E+00  0.00000000000E+00  0.45593999997E+02  0.45594000000E+02  0.51100000000E-03 0.  1.
         11   -1    0    0    0    0 -0.00000000000E+00 -0.00000000000E+00 -0.45593999997E+02  0.45594000000E+02  0.51100000000E-03 0. -1.
    9900012    2    1    2    0    0  0.23475725460E+00  0.13622257034E+02  0.41206821580E+02  0.47787272559E+02  0.20000006904E+02 0.  0.
         12    1    1    2    0    0 -0.23475725460E+00 -0.13622257034E+02 -0.41206821580E+02  0.43400727441E+02  0.00000000000E+00 0. -1.
         11    1    3    3    0    0 -0.54544144971E+01  0.74726693025E+01  0.34477358863E+02  0.35697054478E+02  0.51100000000E-03 0. -1.
        -11    1    3    3    0    0  0.42487278399E+00 -0.10203925107E+01  0.11232902030E+01  0.15759120850E+01  0.51100000000E-03 0.  1.
         12    1    3    3    0    0  0.52642989677E+01  0.71699802426E+01  0.56061725147E+01  0.10514305995E+02  0.00000000000E+00 0. -1.
</event>
<event>
 7    1  0.2387817E-009  0.4778727E+02  0.7816164E-02  0.1312668E+00
        -11   -1    0    0    0    0  0.00000000000E+00  0.00000000000E+00  0.45593999997E+02  0.45594000000E+02  0.51100000000E-03 0.  1.
         11   -1    0    0    0    0 -0.00000000000E+00 -0.00000000000E+00 -0.45593999997E+02  0.45594000000E+02  0.51100000000E-03 0. -1.
    9900012    2    1    2    0    0 -0.62270937855E+01  0.21256319817E+01  0.42899046412E+02  0.47787271995E+02  0.20000004333E+02 0.  0.
         12    1    1    2    0    0  0.62270937855E+01 -0.21256319817E+01 -0.42899046412E+02  0.43400728005E+02  0.00000000000E+00 0. -1.
         11    1    3    3    0    0 -0.19858560855E+01 -0.39723803174E+01  0.31461626454E+01  0.54425884863E+01  0.51100000000E-03 0. -1.
        -11    1    3    3    0    0  0.36697200164E+01 -0.77661258340E+00  0.68088828227E+01  0.77737286844E+01  0.51100000000E-03 0.  1.
        -12    1    3    3    0    0 -0.79109577164E+01  0.68746248825E+01  0.32944000944E+02  0.34570954824E+02  0.00000000000E+00 0.  1.
</event>
<event>
 7    1  0.2387817E-009  0.4778727E+02  0.7816164E-02  0.1312668E+00
        -11   -1    0    0    0    0  0.00000000000E+00  0.00000000000E+00  0.45593999997E+02  0.45594000000E+02  0.51100000000E-03 0.  1.
         11   -1    0    0    0    0 -0.00000000000E+00 -0.00000000000E+00 -0.45593999997E+02  0.45594000000E+02  0.51100000000E-03 0. -1.
    9900012    2    1    2    0    0 -0.84424772331E+01  0.32747328557E+02  0.27202218921E+02  0.47787266554E+02  0.19999979526E+02 0.  0.
         12    1    1    2    0    0  0.84424772331E+01 -0.32747328557E+02 -0.27202218921E+02  0.43400733446E+02  0.00000000000E+00 0. -1.
         11    1    3    3    0    0  0.41034153229E+00  0.14943846265E+02  0.15125589780E+02  0.21266649661E+02  0.51100000000E-03 0. -1.
        -11    1    3    3    0    0 -0.58750632212E+01  0.15261220180E+02  0.14550464913E+02  0.21889203701E+02  0.51100000000E-03 0.  1.
         12    1    3    3    0    0 -0.29777555442E+01  0.25422621122E+01 -0.24738357716E+01  0.46314131918E+01  0.00000000000E+00 0. -1.
</event>
<event>
 7    1  0.2387817E-009  0.4778727E+02  0.7816164E-02  0.1312668E+00
        -11   -1    0    0    0    0  0.00000000000E+00  0.00000000000E+00  0.45593999997E+02  0.45594000000E+02  0.51100000000E-03 0.  1.
         11   -1    0    0    0    0 -0.00000000000E+00 -0.00000000000E+00 -0.45593999997E+02  0.45594000000E+02  0.51100000000E-03 0. -1.
    9900012    2    1    2    0    0  0.40720857358E+02  0.39029803756E+01 -0.14498331019E+02  0.47787273253E+02  0.20000010071E+02 0.  0.
         12    1    1    2    0    0 -0.40720857358E+02 -0.39029803756E+01  0.14498331019E+02  0.43400726747E+02  0.00000000000E+00 0. -1.
         11    1    3    3    0    0  0.13369547918E+02  0.24891663302E+01 -0.20265872104E+01  0.13749466045E+02  0.51100000000E-03 0. -1.
        -11    1    3    3    0    0  0.21993528983E+02  0.77694053278E+01 -0.98676899921E+01  0.25326868782E+02  0.51100000000E-03 0.  1.
         12    1    3    3    0    0  0.53577804572E+01 -0.63555912824E+01 -0.26040538163E+01  0.87109384256E+01  0.00000000000E+00 0. -1.
</event>
<event>
 7    1  0.2387817E-009  0.4778728E+02  0.7816164E-02  0.1312668E+00
        -11   -1    0    0    0    0  0.00000000000E+00  0.00000000000E+00  0.45593999997E+02  0.45594000000E+02  0.51100000000E-03 0.  1.
         11   -1    0    0    0    0 -0.00000000000E+00 -0.00000000000E+00 -0.45593999997E+02  0.45594000000E+02  0.51100000000E-03 0. -1.
    9900012    2    1    2    0    0  0.16070984413E+02 -0.28556373973E+02  0.28458383878E+02  0.47787278261E+02  0.20000032902E+02 0.  0.
         12    1    1    2    0    0 -0.16070984413E+02  0.28556373973E+02 -0.28458383878E+02  0.43400721739E+02  0.00000000000E+00 0. -1.
         11    1    3    3    0    0 -0.10684117785E+01 -0.34550375675E+01  0.39954059959E+01  0.53890683476E+01  0.51100000000E-03 0. -1.
        -11    1    3    3    0    0  0.94440144887E+00  0.14438608436E+01  0.59810541111E+01  0.62249206239E+01  0.51100000000E-03 0.  1.
         12    1    3    3    0    0  0.16194994743E+02 -0.26545197249E+02  0.18481923771E+02  0.36173289289E+02  0.00000000000E+00 0. -1.
</event>
<event>
 7    1  0.2387817E-009  0.4778727E+02  0.7816164E-02  0.1312668E+00
        -11   -1    0    0    0    0  0.00000000000E+00  0.00000000000E+00  0.45593999997E+02  0.45594000000E+02  0.51100000000E-03 0. -1.
         11   -1    0    0    0    0 -0.00000000000E+00 -0.00000000000E+00 -0.45593999997E+02  0.45594000000E+02  0.51100000000E-03 0.  1.
    9900012    2    1    2    0    0 -0.34759621809E+02 -0.13507761823E+02  0.22202080317E+02  0.47787270649E+02  0.19999998197E+02 0.  0.
         12    1    1    2    0    0  0.34759621809E+02  0.13507761823E+02 -0.22202080317E+02  0.43400729351E+02  0.00000000000E+00 0. -1.
         11    1    3    3    0    0 -0.61017531120E+01 -0.22189222740E+01  0.11025766926E+02  0.12795411039E+02  0.51100000000E-03 0. -1.
        -11    1    3    3    0    0  0.70995088754E-02 -0.30987779554E+01  0.23858174135E+01  0.39108311408E+01  0.51100000000E-03 0.  1.
        -12    1    3    3    0    0 -0.28664968206E+02 -0.81900615940E+01  0.87904959774E+01  0.31081028469E+02  0.00000000000E+00 0.  1.
</event>
<event>
 7    1  0.2387817E-009  0.4778727E+02  0.7816164E-02  0.1312668E+00
        -11   -1    0    0    0    0  0.00000000000E+00  0.00000000000E+00  0.45593999997E+02  0.45594000000E+02  0.51100000000E-03 0. -1.
         11   -1    0    0    0    0 -0.00000000000E+00 -0.00000000000E+00 -0.45593999997E+02  0.45594000000E+02  0.51100000000E-03 0.  1.
    9900012    2    1    2    0    0 -0.54020465490E+01  0.14540305988E+02 -0.40534189485E+02  0.47787272790E+02  0.20000007960E+02 0.  0.
         12    1    1    2    0    0  0.54020465490E+01 -0.14540305988E+02  0.40534189485E+02  0.43400727210E+02  0.00000000000E+00 0. -1.
         11    1    3    3    0    0  0.15534294936E+01  0.10716983006E+02 -0.82430028168E+01  0.13609333695E+02  0.51100000000E-03 0. -1.
        -11    1    3    3    0    0 -0.61331267175E+00 -0.14432867762E+01 -0.10994815721E+01  0.19152256108E+01  0.51100000000E-03 0.  1.
        -12    1    3    3    0    0 -0.63421633709E+01  0.52666097587E+01 -0.31191705096E+02  0.32262713484E+02  0.00000000000E+00 0.  1.
</event>
<event>
 7    1  0.2387817E-009  0.4778727E+02  0.7816164E-02  0.1312668E+00
        -11   -1    0    0    0    0  0.00000000000E+00  0.00000000000E+00  0.45593999997E+02  0.45594000000E+02  0.51100000000E-03 0. -1.
         11   -1    0    0    0    0 -0.00000000000E+00 -0.00000000000E+00 -0.45593999997E+02  0.45594000000E+02  0.51100000000E-03 0.  1.
    9900012    2    1    2    0    0 -0.21366594059E+02  0.36702316622E+02 -0.89460645052E+01  0.47787268932E+02  0.19999990369E+02 0.  0.
         12    1    1    2    0    0  0.21366594059E+02 -0.36702316622E+02  0.89460645052E+01  0.43400731068E+02  0.00000000000E+00 0. -1.
         11    1    3    3    0    0 -0.82744914899E+00  0.19247390192E+01  0.20809353551E+01  0.29528942750E+01  0.51100000000E-03 0. -1.
        -11    1    3    3    0    0 -0.99737107034E+01  0.90465936403E+01  0.28279649070E+01  0.13759111434E+02  0.51100000000E-03 0.  1.
        -12    1    3    3    0    0 -0.10565434206E+02  0.25730983963E+02 -0.13854964767E+02  0.31075263223E+02  0.00000000000E+00 0.  1.
</event>
<event>
 7    1  0.2387817E-009  0.4778729E+02  0.7816164E-02  0.1312668E+00
        -11   -1    0    0    0    0  0.00000000000E+00  0.00000000000E+00  0.45593999997E+02  0.45594000000E+02  0.51100000000E-03 0.  1.
         11   -1    0    0    0    0 -0.00000000000E+00 -0.00000000000E+00 -0.45593999997E+02  0.45594000000E+02  0.51100000000E-03 0. -1.
    9900012    2    1    2    0    0 -0.15830856050E+02  0.30996180034E+02  0.25927634860E+02  0.47787292294E+02  0.20000096886E+02 0.  0.
         12    1    1    2    0    0  0.15830856050E+02 -0.30996180034E+02 -0.25927634860E+02  0.43400707706E+02  0.00000000000E+00 0. -1.
         11    1    3    3    0    0 -0.20426230850E+01 -0.19767814634E+00  0.48578628206E+00  0.21088798661E+01  0.51100000000E-03 0. -1.
        -11    1    3    3    0    0 -0.50422652542E+01 -0.49183488747E+00  0.33260640234E+01  0.60604490427E+01  0.51100000000E-03 0.  1.
        -12    1    3    3    0    0 -0.87459677107E+01  0.31685693067E+02  0.22115784554E+02  0.39617963385E+02  0.00000000000E+00 0.  1.
</event>
<event>
 7    1  0.2387817E-009  0.4778727E+02  0.7816164E-02  0.1312668E+00
        -11   -1    0    0    0    0  0.00000000000E+00  0.00000000000E+00  0.45593999997E+02  0.45594000000E+02  0.51100000000E-03 0.  1.
         11   -1    0    0    0    0 -0.00000000000E+00 -0.00000000000E+00 -0.45593999997E+02  0.45594000000E+02  0.51100000000E-03 0. -1.
    9900012    2    1    2    0    0  0.19322445725E+01 -0.35318628002E+02  0.25149232326E+02  0.47787274895E+02  0.20000017556E+02 0.  0.
         12    1    1    2    0    0 -0.19322445725E+01  0.35318628002E+02 -0.25149232326E+02  0.43400725105E+02  0.00000000000E+00 0. -1.
         11    1    3    3    0    0 -0.48372226877E+01 -0.33434450427E+01  0.31210903600E+01  0.66572181413E+01  0.51100000000E-03 0. -1.
        -11    1    3    3    0    0 -0.17163486215E+01 -0.18174476947E+02  0.14250887019E+02  0.23159128782E+02  0.51100000000E-03 0.  1.
        -12    1    3    3    0    0  0.84858158817E+01 -0.13800706013E+02  0.77772549477E+01  0.17970927971E+02  0.00000000000E+00 0.  1.
</event>
<event>
 7    1  0.2387817E-009  0.4778727E+02  0.7816164E-02  0.1312668E+00
        -11   -1    0    0    0    0  0.00000000000E+00  0.00000000000E+00  0.45593999997E+02  0.45594000000E+02  0.51100000000E-03 0.  1.
         11   -1    0    0    0    0 -0.00000000000E+00 -0.00000000000E+00 -0.45593999997E+02  0.45594000000E+02  0.51100000000E-03 0. -1.
    9900012    2    1    2    0    0 -0.19381717427E+02  0.37186338883E+02  0.11186984996E+02  0.47787269554E+02  0.19999993204E+02 0.  0.
         12    1    1    2    0    0  0.19381717427E+02 -0.37186338883E+02 -0.11186984996E+02  0.43400730446E+02  0.00000000000E+00 0. -1.
         11    1    3    3    0    0 -0.30769692290E+01  0.52319852544E+01  0.48591467203E+01  0.77751344972E+01  0.51100000000E-03 0. -1.
        -11    1    3    3    0    0 -0.56931059009E+01  0.27201168460E+02  0.32204012643E+01  0.27976525963E+02  0.51100000000E-03 0.  1.
        -12    1    3    3    0    0 -0.10611642297E+02  0.47531851694E+01  0.31074370112E+01  0.12035609094E+02  0.00000000000E+00 0.  1.
</event>
<event>
 7    1  0.2387817E-009  0.4778726E+02  0.7816164E-02  0.1312668E+00
        -11   -1    0    0    0    0  0.00000000000E+00  0.00000000000E+00  0.45593999997E+02  0.45594000000E+02  0.51100000000E-03 0.  1.
         11   -1    0    0    0    0 -0.00000000000E+00 -0.00000000000E+00 -0.45593999997E+02  0.45594000000E+02  0.51100000000E-03 0. -1.
    9900012    2    1    2    0    0  0.43752878219E+01 -0.33753230377E+02  0.26929544416E+02  0.47787261909E+02  0.19999958346E+02 0.  0.
         12    1    1    2    0    0 -0.43752878219E+01  0.33753230377E+02 -0.26929544416E+02  0.43400738091E+02  0.00000000000E+00 0. -1.
         11    1    3    3    0    0 -0.39772254095E+01 -0.90451712838E+01  0.27528288804E+01  0.10257266333E+02  0.51100000000E-03 0. -1.
        -11    1    3    3    0    0  0.24574933928E+01 -0.22085856415E+02  0.17992671297E+02  0.28593015721E+02  0.51100000000E-03 0.  1.
        -12    1    3    3    0    0  0.58950198386E+01 -0.26222026787E+01  0.61840442387E+01  0.89369798551E+01  0.00000000000E+00 0.  1.
</event>
<event>
 7    1  0.2387817E-009  0.4778727E+02  0.7816164E-02  0.1312668E+00
        -11   -1    0    0    0    0  0.00000000000E+00  0.00000000000E+00  0.45593999997E+02  0.45594000000E+02  0.51100000000E-03 0. -1.
         11   -1    0    0    0    0 -0.00000000000E+00 -0.00000000000E+00 -0.45593999997E+02  0.45594000000E+02  0.51100000000E-03 0.  1.
    9900012    2    1    2    0    0 -0.33624292205E+01  0.21067841609E+02 -0.37795024668E+02  0.47787265329E+02  0.19999973941E+02 0.  0.
         12    1    1    2    0    0  0.33624292205E+01 -0.21067841609E+02  0.37795024668E+02  0.43400734671E+02  0.00000000000E+00 0. -1.
         11    1    3    3    0    0 -0.26292503200E+01  0.15092113027E+02 -0.21195486772E+02  0.26152122144E+02  0.51100000000E-03 0. -1.
        -11    1    3    3    0    0 -0.65487085293E+01  0.41379313566E+01 -0.85748408800E+01  0.11555775859E+02  0.51100000000E-03 0.  1.
         12    1    3    3    0    0  0.58155296288E+01  0.18377972260E+01 -0.80246970157E+01  0.10079367326E+02  0.00000000000E+00 0. -1.
</event>
<event>
 7    1  0.2387817E-009  0.4778727E+02  0.7816164E-02  0.1312668E+00
        -11   -1    0    0    0    0  0.00000000000E+00  0.00000000000E+00  0.45593999997E+02  0.45594000000E+02  0.51100000000E-03 0.  1.
         11   -1    0    0    0    0 -0.00000000000E+00 -0.00000000000E+00 -0.45593999997E+02  0.45594000000E+02  0.51100000000E-03 0. -1.
    9900012    2    1    2    0    0  0.93438705403E+01  0.67332091419E+01  0.41844708776E+02  0.47787266428E+02  0.19999978953E+02 0.  0.
         12    1    1    2    0    0 -0.93438705403E+01 -0.67332091419E+01 -0.41844708776E+02  0.43400733572E+02  0.00000000000E+00 0. -1.
         11    1    3    3    0    0  0.13281651787E+01 -0.15357073192E+01  0.53659080918E+01  0.57371935319E+01  0.51100000000E-03 0. -1.
        -11    1    3    3    0    0  0.62656603956E+01  0.81479910395E+01  0.38220263784E+02  0.39578236723E+02  0.51100000000E-03 0.  1.
         12    1    3    3    0    0  0.17500449659E+01  0.12092542161E+00 -0.17414630995E+01  0.24718361732E+01  0.00000000000E+00 0. -1.
</event>
<event>
 7    1  0.2387817E-009  0.4778727E+02  0.7816164E-02  0.1312668E+00
        -11   -1    0    0    0    0  0.00000000000E+00  0.00000000000E+00  0.45593999997E+02  0.45594000000E+02  0.51100000000E-03 0.  1.
         11   -1    0    0    0    0 -0.00000000000E+00 -0.00000000000E+00 -0.45593999997E+02  0.45594000000E+02  0.51100000000E-03 0. -1.
    9900012    2    1    2    0    0  0.12414867453E+02 -0.25316810660E+02  0.32993230543E+02  0.47787273076E+02  0.20000009264E+02 0.  0.
         12    1    1    2    0    0 -0.12414867453E+02  0.25316810660E+02 -0.32993230543E+02  0.43400726924E+02  0.00000000000E+00 0. -1.
         11    1    3    3    0    0  0.34221383826E+01  0.94952779760E+00  0.27661855870E+01  0.45016016162E+01  0.51100000000E-03 0. -1.
        -11    1    3    3    0    0 -0.10167149667E+01 -0.10592143005E+02  0.45301287395E+01  0.11565001921E+02  0.51100000000E-03 0.  1.
        -12    1    3    3    0    0  0.10009444037E+02 -0.15674195452E+02  0.25696916216E+02  0.31720669539E+02  0.00000000000E+00 0.  1.
</event>
<event>
 7    1  0.2387817E-009  0.4778728E+02  0.7816164E-02  0.1312668E+00
        -11   -1    0    0    0    0  0.00000000000E+00  0.00000000000E+00  0.45593999997E+02  0.45594000000E+02  0.51100000000E-03 0.  1.
         11   -1    0    0    0    0 -0.00000000000E+00 -0.00000000000E+00 -0.45593999997E+02  0.45594000000E+02  0.51100000000E-03 0. -1.
    9900012    2    1    2    0    0  0.36756437253E+02 -0.11909056530E+02 -0.19767675190E+02  0.47787282387E+02  0.20000051714E+02 0.  0.
         12    1    1    2    0    0 -0.36756437253E+02  0.11909056530E+02  0.19767675190E+02  0.43400717613E+02  0.00000000000E+00 0. -1.
         11    1    3    3    0    0  0.15015363987E+02 -0.62755492176E+00 -0.27526030575E+01  0.15278475209E+02  0.51100000000E-03 0. -1.
        -11    1    3    3    0    0  0.10960928618E+02 -0.88763025294E+01 -0.25890000243E+01  0.14339931107E+02  0.51100000000E-03 0.  1.
         12    1    3    3    0    0  0.10780144647E+02 -0.24051990790E+01 -0.14426072108E+02  0.18168876071E+02  0.00000000000E+00 0. -1.
</event>
<event>
 7    1  0.2387817E-009  0.4778727E+02  0.7816164E-02  0.1312668E+00
        -11   -1    0    0    0    0  0.00000000000E+00  0.00000000000E+00  0.45593999997E+02  0.45594000000E+02  0.51100000000E-03 0. -1.
         11   -1    0    0    0    0 -0.00000000000E+00 -0.00000000000E+00 -0.45593999997E+02  0.45594000000E+02  0.51100000000E-03 0.  1.
    9900012    2    1    2    0    0  0.32171469848E+02  0.28969879362E+02 -0.30603922283E+01  0.47787269787E+02  0.19999994267E+02 0.  0.
         12    1    1    2    0    0 -0.32171469848E+02 -0.28969879362E+02  0.30603922283E+01  0.43400730213E+02  0.00000000000E+00 0. -1.
         11    1    3    3    0    0  0.15012787535E+02  0.24085030189E+02 -0.69536914564E+00  0.28389364334E+02  0.51100000000E-03 0. -1.
        -11    1    3    3    0    0  0.43868947038E+01  0.15182581077E+01  0.25602789924E+01  0.53014131704E+01  0.51100000000E-03 0.  1.
        -12    1    3    3    0    0  0.12771787609E+02  0.33665910649E+01 -0.49253020751E+01  0.14096492282E+02  0.00000000000E+00 0.  1.
</event>
<event>
 7    1  0.2387817E-009  0.4778727E+02  0.7816164E-02  0.1312668E+00
        -11   -1    0    0    0    0  0.00000000000E+00  0.00000000000E+00  0.45593999997E+02  0.45594000000E+02  0.51100000000E-03 0.  1.
         11   -1    0    0    0    0 -0.00000000000E+00 -0.00000000000E+00 -0.45593999997E+02  0.45594000000E+02  0.51100000000E-03 0. -1.
    9900012    2    1    2    0    0  0.27595410732E+02 -0.28789947532E+02  0.17124704755E+02  0.47787270913E+02  0.19999999400E+02 0.  0.
         12    1    1    2    0    0 -0.27595410732E+02  0.28789947532E+02 -0.17124704755E+02  0.43400729087E+02  0.00000000000E+00 0. -1.
         11    1    3    3    0    0  0.13962962904E+02 -0.99722946925E+01  0.42443867474E+01  0.17675571097E+02  0.51100000000E-03 0.  1.
        -11    1    3    3    0    0  0.15443300495E+02 -0.18319623204E+02  0.86340284092E+01  0.25468619345E+02  0.51100000000E-03 0. -1.
         12    1    3    3    0    0 -0.18108526673E+01 -0.49802963585E+00  0.42462895984E+01  0.46430804704E+01  0.00000000000E+00 0. -1.
</event>
<event>
 7    1  0.2387817E-009  0.4778727E+02  0.7816164E-02  0.1312668E+00
        -11   -1    0    0    0    0  0.00000000000E+00  0.00000000000E+00  0.45593999997E+02  0.45594000000E+02  0.51100000000E-03 0.  1.
         11   -1    0    0    0    0 -0.00000000000E+00 -0.00000000000E+00 -0.45593999997E+02  0.45594000000E+02  0.51100000000E-03 0. -1.
    9900012    2    1    2    0    0 -0.18727410375E+02 -0.12946143356E+02  0.36950031832E+02  0.47787269827E+02  0.19999994450E+02 0.  0.
         12    1    1    2    0    0  0.18727410375E+02  0.12946143356E+02 -0.36950031832E+02  0.43400730173E+02  0.00000000000E+00 0. -1.
         11    1    3    3    0    0 -0.17848516162E+01  0.23920124041E+01  0.31297479151E+01  0.43246665659E+01  0.51100000000E-03 0. -1.
        -11    1    3    3    0    0 -0.96262541557E+00  0.25906988744E+01  0.66377056849E+01  0.71900977301E+01  0.51100000000E-03 0.  1.
         12    1    3    3    0    0 -0.15979933343E+02 -0.17928854635E+02  0.27182578232E+02  0.36272505531E+02  0.00000000000E+00 0. -1.
</event>
<event>
 7    1  0.2387817E-009  0.4778727E+02  0.7816164E-02  0.1312668E+00
        -11   -1    0    0    0    0  0.00000000000E+00  0.00000000000E+00  0.45593999997E+02  0.45594000000E+02  0.51100000000E-03 0.  1.
         11   -1    0    0    0    0 -0.00000000000E+00 -0.00000000000E+00 -0.45593999997E+02  0.45594000000E+02  0.51100000000E-03 0. -1.
    9900012    2    1    2    0    0  0.93784847627E+01 -0.41423841558E+02  0.89293175975E+01  0.47787270298E+02  0.19999996598E+02 0.  0.
         12    1    1    2    0    0 -0.93784847627E+01  0.41423841558E+02 -0.89293175975E+01  0.43400729702E+02  0.00000000000E+00 0. -1.
         11    1    3    3    0    0  0.23173884495E+01 -0.97161875648E+00  0.38223137761E+01  0.45743212718E+01  0.51100000000E-03 0. -1.
        -11    1    3    3    0    0  0.22100668050E+01 -0.22600914435E+00  0.11525631662E+01  0.25027739669E+01  0.51100000000E-03 0.  1.
         12    1    3    3    0    0  0.48510295082E+01 -0.40226213657E+02  0.39544406552E+01  0.40710175060E+02  0.00000000000E+00 0. -1.
</event>
<event>
 7    1  0.2387817E-009  0.4778727E+02  0.7816164E-02  0.1312668E+00
        -11   -1    0    0    0    0  0.00000000000E+00  0.00000000000E+00  0.45593999997E+02  0.45594000000E+02  0.51100000000E-03 0.  1.
         11   -1    0    0    0    0 -0.00000000000E+00 -0.00000000000E+00 -0.45593999997E+02  0.45594000000E+02  0.51100000000E-03 0. -1.
    9900012    2    1    2    0    0 -0.36130512351E+02 -0.10123729116E+02  0.21810995376E+02  0.47787270360E+02  0.19999996880E+02 0.  0.
         12    1    1    2    0    0  0.36130512351E+02  0.10123729116E+02 -0.21810995376E+02  0.43400729640E+02  0.00000000000E+00 0. -1.
         11    1    3    3    0    0 -0.53078225098E+01  0.52323849698E+00 -0.16279845764E+01  0.55764766979E+01  0.51100000000E-03 0. -1.
        -11    1    3    3    0    0 -0.16262904755E+02  0.12013535970E+01  0.11712552863E+02  0.20077579943E+02  0.51100000000E-03 0.  1.
        -12    1    3    3    0    0 -0.14559785087E+02 -0.11848321210E+02  0.11726427089E+02  0.22133213719E+02  0.00000000000E+00 0.  1.
</event>
<event>
 7    1  0.2387817E-009  0.4778727E+02  0.7816164E-02  0.1312668E+00
        -11   -1    0    0    0    0  0.00000000000E+00  0.00000000000E+00  0.45593999997E+02  0.45594000000E+02  0.51100000000E-03 0. -1.
         11   -1    0    0    0    0 -0.00000000000E+00 -0.00000000000E+00 -0.45593999997E+02  0.45594000000E+02  0.51100000000E-03 0.  1.
    9900012    2    1    2    0    0 -0.21930223001E+01 -0.39591576373E+02 -0.17644299215E+02  0.47787267733E+02  0.19999984903E+02 0.  0.
         12    1    1    2    0    0  0.21930223001E+01  0.39591576373E+02  0.17644299215E+02  0.43400732267E+02  0.00000000000E+00 0. -1.
         11    1    3    3    0    0 -0.44603894650E+01 -0.19959780233E+02 -0.95830528858E+01  0.22585898344E+02  0.51100000000E-03 0. -1.
        -11    1    3    3    0    0 -0.54565064823E+01 -0.10670950785E+02 -0.31496911416E+01  0.12392062306E+02  0.51100000000E-03 0.  1.
         12    1    3    3    0    0  0.77238736472E+01 -0.89608453551E+01 -0.49115551878E+01  0.12809307083E+02  0.00000000000E+00 0. -1.
</event>
<event>
 7    1  0.2387817E-009  0.4778728E+02  0.7816164E-02  0.1312668E+00
        -11   -1    0    0    0    0  0.00000000000E+00  0.00000000000E+00  0.45593999997E+02  0.45594000000E+02  0.51100000000E-03 0. -1.
         11   -1    0    0    0    0 -0.00000000000E+00 -0.00000000000E+00 -0.45593999997E+02  0.45594000000E+02  0.51100000000E-03 0.  1.
    9900012    2    1    2    0    0  0.34512905241E+02 -0.20829127622E+02  0.16081963456E+02  0.47787277261E+02  0.20000028343E+02 0.  0.
         12    1    1    2    0    0 -0.34512905241E+02  0.20829127622E+02 -0.16081963456E+02  0.43400722739E+02  0.00000000000E+00 0. -1.
         11    1    3    3    0    0  0.29071603851E+02 -0.11635545392E+02  0.59977795050E+01  0.31882870422E+02  0.51100000000E-03 0. -1.
        -11    1    3    3    0    0  0.19374438066E+01 -0.44786913750E-01  0.37990724862E+01  0.42648149301E+01  0.51100000000E-03 0.  1.
         12    1    3    3    0    0  0.35038575836E+01 -0.91487953157E+01  0.62851114643E+01  0.11639591909E+02  0.00000000000E+00 0. -1.
</event>
<event>
 7    1  0.2387817E-009  0.4778727E+02  0.7816164E-02  0.1312668E+00
        -11   -1    0    0    0    0  0.00000000000E+00  0.00000000000E+00  0.45593999997E+02  0.45594000000E+02  0.51100000000E-03 0.  1.
         11   -1    0    0    0    0 -0.00000000000E+00 -0.00000000000E+00 -0.45593999997E+02  0.45594000000E+02  0.51100000000E-03 0. -1.
    9900012    2    1    2    0    0  0.34311762219E+02 -0.13549878903E+02  0.22863224380E+02  0.47787271044E+02  0.20000000000E+02 0.  0.
         12    1    1    2    0    0 -0.34311762219E+02  0.13549878903E+02 -0.22863224380E+02  0.43400728956E+02  0.00000000000E+00 0. -1.
         11    1    3    3    0    0  0.17177222610E+02 -0.44899733909E+01  0.10090667029E+02  0.20421518038E+02  0.51100000000E-03 0. -1.
        -11    1    3    3    0    0  0.38682527069E+01 -0.11248404200E+01  0.11110565884E+02  0.11818346733E+02  0.51100000000E-03 0.  1.
         12    1    3    3    0    0  0.13266286902E+02 -0.79350650924E+01  0.16619914666E+01  0.15547406273E+02  0.00000000000E+00 0. -1.
</event>
<event>
 7    1  0.2387817E-009  0.4778728E+02  0.7816164E-02  0.1312668E+00
        -11   -1    0    0    0    0  0.00000000000E+00  0.00000000000E+00  0.45593999997E+02  0.45594000000E+02  0.51100000000E-03 0.  1.
         11   -1    0    0    0    0 -0.00000000000E+00 -0.00000000000E+00 -0.45593999997E+02  0.45594000000E+02  0.51100000000E-03 0. -1.
    9900012    2    1    2    0    0  0.43092289859E+00  0.86700332898E+00  0.43389920875E+02  0.47787278544E+02  0.20000034194E+02 0.  0.
         12    1    1    2    0    0 -0.43092289859E+00 -0.86700332898E+00 -0.43389920875E+02  0.43400721456E+02  0.00000000000E+00 0. -1.
         11    1    3    3    0    0  0.17737165068E+00 -0.36159859043E+01  0.40757882623E+01  0.54515011678E+01  0.51100000000E-03 0. -1.
        -11    1    3    3    0    0  0.47353486923E+01 -0.33882632872E+00  0.34402991252E+01  0.58629334680E+01  0.51100000000E-03 0.  1.
        -12    1    3    3    0    0 -0.44817974444E+01  0.48218155620E+01  0.35873833488E+02  0.36472843908E+02  0.00000000000E+00 0.  1.
</event>
<event>
 7    1  0.2387817E-009  0.4778728E+02  0.7816164E-02  0.1312668E+00
        -11   -1    0    0    0    0  0.00000000000E+00  0.00000000000E+00  0.45593999997E+02  0.45594000000E+02  0.51100000000E-03 0.  1.
         11   -1    0    0    0    0 -0.00000000000E+00 -0.00000000000E+00 -0.45593999997E+02  0.45594000000E+02  0.51100000000E-03 0. -1.
    9900012    2    1    2    0    0  0.31984938855E+02  0.10892142568E+02  0.27238717828E+02  0.47787276133E+02  0.20000023201E+02 0.  0.
         12    1    1    2    0    0 -0.31984938855E+02 -0.10892142568E+02 -0.27238717828E+02  0.43400723867E+02  0.00000000000E+00 0. -1.
         11    1    3    3    0    0  0.63903686126E+01 -0.37475820394E+01  0.10183646411E+02  0.12593166267E+02  0.51100000000E-03 0.  1.
        -11    1    3    3    0    0  0.10762086165E+01 -0.11709125051E+01  0.11814960323E+01  0.19812102908E+01  0.51100000000E-03 0. -1.
        -12    1    3    3    0    0  0.24518361626E+02  0.15810637112E+02  0.15873575385E+02  0.33212899575E+02  0.00000000000E+00 0.  1.
</event>
<event>
 7    1  0.2387817E-009  0.4778727E+02  0.7816164E-02  0.1312668E+00
        -11   -1    0    0    0    0  0.00000000000E+00  0.00000000000E+00  0.45593999997E+02  0.45594000000E+02  0.51100000000E-03 0.  1.
         11   -1    0    0    0    0 -0.00000000000E+00 -0.00000000000E+00 -0.45593999997E+02  0.45594000000E+02  0.51100000000E-03 0. -1.
    9900012    2    1    2    0    0 -0.13603068301E+02 -0.10483953356E+02  0.39858078552E+02  0.47787272229E+02  0.20000005401E+02 0.  0.
         12    1    1    2    0    0  0.13603068301E+02  0.10483953356E+02 -0.39858078552E+02  0.43400727771E+02  0.00000000000E+00 0. -1.
         11    1    3    3    0    0  0.16332824625E+00 -0.71438878341E+00 -0.17766317426E+01  0.19218345558E+01  0.51100000000E-03 0. -1.
        -11    1    3    3    0    0 -0.14533361068E+00 -0.43290577739E+01  0.12829073049E+02  0.13540567884E+02  0.51100000000E-03 0.  1.
         12    1    3    3    0    0 -0.13621062937E+02 -0.54405067990E+01  0.28805637245E+02  0.32324869789E+02  0.00000000000E+00 0. -1.
</event>
<event>
 7    1  0.2387817E-009  0.4778727E+02  0.7816164E-02  0.1312668E+00
        -11   -1    0    0    0    0  0.00000000000E+00  0.00000000000E+00  0.45593999997E+02  0.45594000000E+02  0.51100000000E-03 0.  1.
         11   -1    0    0    0    0 -0.00000000000E+00 -0.00000000000E+00 -0.45593999997E+02  0.45594000000E+02  0.51100000000E-03 0. -1.
    9900012    2    1    2    0    0 -0.16492000848E+02 -0.56950780321E+01  0.39739188288E+02  0.47787273145E+02  0.20000009576E+02 0.  0.
         12    1    1    2    0    0  0.16492000848E+02  0.56950780321E+01 -0.39739188288E+02  0.43400726855E+02  0.00000000000E+00 0. -1.
         11    1    3    3    0    0 -0.19634660859E+01 -0.48886166871E+01  0.51314933593E+01  0.73543182241E+01  0.51100000000E-03 0. -1.
        -11    1    3    3    0    0 -0.63594468624E+01 -0.57628088585E+01  0.26651234808E+02  0.27998943684E+02  0.51100000000E-03 0.  1.
        -12    1    3    3    0    0 -0.81690878993E+01  0.49563475135E+01  0.79564601208E+01  0.12434011237E+02  0.00000000000E+00 0.  1.
</event>
<event>
 7    1  0.2387817E-009  0.4778727E+02  0.7816164E-02  0.1312668E+00
        -11   -1    0    0    0    0  0.00000000000E+00  0.00000000000E+00  0.45593999997E+02  0.45594000000E+02  0.51100000000E-03 0. -1.
         11   -1    0    0    0    0 -0.00000000000E+00 -0.00000000000E+00 -0.45593999997E+02  0.45594000000E+02  0.51100000000E-03 0.  1.
    9900012    2    1    2    0    0 -0.40501083584E+02 -0.58800246237E+01  0.14446827540E+02  0.47787270892E+02  0.19999999307E+02 0.  0.
         12    1    1    2    0    0  0.40501083584E+02  0.58800246237E+01 -0.14446827540E+02  0.43400729108E+02  0.00000000000E+00 0. -1.
         11    1    3    3    0    0  0.57917603447E+00  0.55426697658E+00  0.10148540381E+01  0.12932848642E+01  0.51100000000E-03 0. -1.
        -11    1    3    3    0    0 -0.10276512227E+02 -0.73080880885E+01 -0.61976867341E+00  0.12625330433E+02  0.51100000000E-03 0.  1.
        -12    1    3    3    0    0 -0.30803747392E+02  0.87379648824E+00  0.14051742176E+02  0.33868655596E+02  0.00000000000E+00 0.  1.
</event>
<event>
 7    1  0.2387817E-009  0.4778727E+02  0.7816164E-02  0.1312668E+00
        -11   -1    0    0    0    0  0.00000000000E+00  0.00000000000E+00  0.45593999997E+02  0.45594000000E+02  0.51100000000E-03 0.  1.
         11   -1    0    0    0    0 -0.00000000000E+00 -0.00000000000E+00 -0.45593999997E+02  0.45594000000E+02  0.51100000000E-03 0. -1.
    9900012    2    1    2    0    0 -0.39636753396E+02 -0.74095621790E+01  0.16051462903E+02  0.47787270827E+02  0.19999999006E+02 0.  0.
         12    1    1    2    0    0  0.39636753396E+02  0.74095621790E+01 -0.16051462903E+02  0.43400729173E+02  0.00000000000E+00 0. -1.
         11    1    3    3    0    0 -0.85096217782E+01 -0.96701364865E+00 -0.53414678590E+00  0.85810308970E+01  0.51100000000E-03 0. -1.
        -11    1    3    3    0    0 -0.50278264153E+01 -0.79093985242E+01  0.48407313082E+01  0.10548473981E+02  0.51100000000E-03 0.  1.
        -12    1    3    3    0    0 -0.26099305202E+02  0.14668499939E+01  0.11744878381E+02  0.28657765948E+02  0.00000000000E+00 0.  1.
</event>
<event>
 7    1  0.2387817E-009  0.4778725E+02  0.7816164E-02  0.1312668E+00
        -11   -1    0    0    0    0  0.00000000000E+00  0.00000000000E+00  0.45593999997E+02  0.45594000000E+02  0.51100000000E-03 0.  1.
         11   -1    0    0    0    0 -0.00000000000E+00 -0.00000000000E+00 -0.45593999997E+02  0.45594000000E+02  0.51100000000E-03 0. -1.
    9900012    2    1    2    0    0 -0.70647327700E+01 -0.37047290671E+01  0.42661339006E+02  0.47787247560E+02  0.19999892924E+02 0.  0.
         12    1    1    2    0    0  0.70647327700E+01  0.37047290671E+01 -0.42661339006E+02  0.43400752440E+02  0.00000000000E+00 0. -1.
         11    1    3    3    0    0 -0.17242398076E+01 -0.95930653832E+01  0.25559632030E+02  0.27354975711E+02  0.51100000000E-03 0. -1.
        -11    1    3    3    0    0 -0.48241598065E-01  0.12619182694E+01  0.11151213959E+02  0.11222492504E+02  0.51100000000E-03 0.  1.
         12    1    3    3    0    0 -0.52922513644E+01  0.46264180466E+01  0.59504930166E+01  0.92097793452E+01  0.00000000000E+00 0. -1.
</event>
<event>
 7    1  0.2387817E-009  0.4778727E+02  0.7816164E-02  0.1312668E+00
        -11   -1    0    0    0    0  0.00000000000E+00  0.00000000000E+00  0.45593999997E+02  0.45594000000E+02  0.51100000000E-03 0.  1.
         11   -1    0    0    0    0 -0.00000000000E+00 -0.00000000000E+00 -0.45593999997E+02  0.45594000000E+02  0.51100000000E-03 0. -1.
    9900012    2    1    2    0    0  0.11994523121E+02  0.39970227978E+02  0.11922057946E+02  0.47787272181E+02  0.20000005183E+02 0.  0.
         12    1    1    2    0    0 -0.11994523121E+02 -0.39970227978E+02 -0.11922057946E+02  0.43400727819E+02  0.00000000000E+00 0. -1.
         11    1    3    3    0    0  0.62180269957E+01  0.24312828068E+01  0.13869102130E+01  0.68189820359E+01  0.51100000000E-03 0. -1.
        -11    1    3    3    0    0  0.74094103737E+01  0.17889845864E+02  0.84989788671E+01  0.21146597579E+02  0.51100000000E-03 0.  1.
         12    1    3    3    0    0 -0.16329142484E+01  0.19649099308E+02  0.20361688661E+01  0.19821692566E+02  0.00000000000E+00 0. -1.
</event>
<event>
 7    1  0.2708632E-009  0.4778726E+02  0.7816164E-02  0.1312668E+00
        -11   -1    0    0    0    0  0.00000000000E+00  0.00000000000E+00  0.45593999997E+02  0.45594000000E+02  0.51100000000E-03 0. -1.
         11   -1    0    0    0    0 -0.00000000000E+00 -0.00000000000E+00 -0.45593999997E+02  0.45594000000E+02  0.51100000000E-03 0.  1.
    9900012    2    1    2    0    0 -0.73274626799E+01 -0.32002299904E+02 -0.28386361119E+02  0.47787258001E+02  0.19999940530E+02 0.  0.
         12    1    1    2    0    0  0.73274626799E+01  0.32002299904E+02  0.28386361119E+02  0.43400741999E+02  0.00000000000E+00 0. -1.
         11    1    3    3    0    0 -0.44477740540E+01 -0.17209430436E+02 -0.63545651539E+01  0.18876643995E+02  0.51100000000E-03 0. -1.
        -11    1    3    3    0    0 -0.99592023374E+00 -0.12636924096E+02 -0.89452303976E+01  0.15514536888E+02  0.51100000000E-03 0.  1.
         12    1    3    3    0    0 -0.18837683921E+01 -0.21559453724E+01 -0.13086565568E+02  0.13396077118E+02  0.00000000000E+00 0. -1.
</event>
<event>
 7    1  0.2387817E-009  0.4778727E+02  0.7816164E-02  0.1312668E+00
        -11   -1    0    0    0    0  0.00000000000E+00  0.00000000000E+00  0.45593999997E+02  0.45594000000E+02  0.51100000000E-03 0. -1.
         11   -1    0    0    0    0 -0.00000000000E+00 -0.00000000000E+00 -0.45593999997E+02  0.45594000000E+02  0.51100000000E-03 0.  1.
    9900012    2    1    2    0    0 -0.38617181589E+02  0.19063221840E+02 -0.53786752211E+01  0.47787270883E+02  0.19999999262E+02 0.  0.
         12    1    1    2    0    0  0.38617181589E+02 -0.19063221840E+02  0.53786752211E+01  0.43400729117E+02  0.00000000000E+00 0. -1.
         11    1    3    3    0    0 -0.11639147819E+02  0.28596959350E+01  0.16508408693E+01  0.12098466788E+02  0.51100000000E-03 0. -1.
        -11    1    3    3    0    0 -0.22594509529E+02  0.88358947509E+01 -0.10505760964E+02  0.26437774313E+02  0.51100000000E-03 0.  1.
         12    1    3    3    0    0 -0.43835242407E+01  0.73676311540E+01  0.34762448739E+01  0.92510297813E+01  0.00000000000E+00 0. -1.
</event>
<event>
 7    1  0.2387817E-009  0.4778728E+02  0.7816164E-02  0.1312668E+00
        -11   -1    0    0    0    0  0.00000000000E+00  0.00000000000E+00  0.45593999997E+02  0.45594000000E+02  0.51100000000E-03 0.  1.
         11   -1    0    0    0    0 -0.00000000000E+00 -0.00000000000E+00 -0.45593999997E+02  0.45594000000E+02  0.51100000000E-03 0. -1.
    9900012    2    1    2    0    0  0.22218295700E+01  0.43054622100E+02  0.49985558767E+01  0.47787279134E+02  0.20000036885E+02 0.  0.
         12    1    1    2    0    0 -0.22218295700E+01 -0.43054622100E+02 -0.49985558767E+01  0.43400720866E+02  0.00000000000E+00 0. -1.
         11    1    3    3    0    0  0.39489923100E+01  0.85655231067E+00 -0.11949973325E+01  0.42138154932E+01  0.51100000000E-03 0. -1.
        -11    1    3    3    0    0  0.27178776924E+01  0.13870282090E+02  0.45644756402E+01  0.14852811940E+02  0.51100000000E-03 0.  1.
         12    1    3    3    0    0 -0.44450404324E+01  0.28327787700E+02  0.16290775690E+01  0.28720651701E+02  0.00000000000E+00 0. -1.
</event>
<event>
 7    1  0.2387817E-009  0.4778728E+02  0.7816164E-02  0.1312668E+00
        -11   -1    0    0    0    0  0.00000000000E+00  0.00000000000E+00  0.45593999997E+02  0.45594000000E+02  0.51100000000E-03 0.  1.
         11   -1    0    0    0    0 -0.00000000000E+00 -0.00000000000E+00 -0.45593999997E+02  0.45594000000E+02  0.51100000000E-03 0. -1.
    9900012    2    1    2    0    0 -0.20075735096E+02 -0.19704255274E+02  0.33050417458E+02  0.47787275240E+02  0.20000019131E+02 0.  0.
         12    1    1    2    0    0  0.20075735096E+02  0.19704255274E+02 -0.33050417458E+02  0.43400724760E+02  0.00000000000E+00 0. -1.
         11    1    3    3    0    0 -0.36932014815E+00 -0.78371583377E+01  0.50069897917E+01  0.93073839083E+01  0.51100000000E-03 0. -1.
        -11    1    3    3    0    0 -0.20678045166E+01 -0.37355014363E+01  0.13658502640E+02  0.14310292839E+02  0.51100000000E-03 0.  1.
        -12    1    3    3    0    0 -0.17638610431E+02 -0.81315954995E+01  0.14384925026E+02  0.24169598493E+02  0.00000000000E+00 0.  1.
</event>
<event>
 7    1  0.2387817E-009  0.4778727E+02  0.7816164E-02  0.1312668E+00
        -11   -1    0    0    0    0  0.00000000000E+00  0.00000000000E+00  0.45593999997E+02  0.45594000000E+02  0.51100000000E-03 0.  1.
         11   -1    0    0    0    0 -0.00000000000E+00 -0.00000000000E+00 -0.45593999997E+02  0.45594000000E+02  0.51100000000E-03 0. -1.
    9900012    2    1    2    0    0  0.20952625499E+01 -0.32301177642E+00  0.43348919188E+02  0.47787271245E+02  0.20000000913E+02 0.  0.
         12    1    1    2    0    0 -0.20952625499E+01  0.32301177642E+00 -0.43348919188E+02  0.43400728755E+02  0.00000000000E+00 0. -1.
         11    1    3    3    0    0 -0.35192686438E+01 -0.31163016461E+01  0.25316148082E+02  0.25748862921E+02  0.51100000000E-03 0.  1.
        -11    1    3    3    0    0 -0.12370255006E+01  0.19718067194E+01  0.13686696411E+02  0.13883224148E+02  0.51100000000E-03 0. -1.
         12    1    3    3    0    0  0.68515566943E+01  0.82148315024E+00  0.43460746946E+01  0.81551841765E+01  0.00000000000E+00 0. -1.
</event>
<event>
 7    1  0.2387817E-009  0.4778727E+02  0.7816164E-02  0.1312668E+00
        -11   -1    0    0    0    0  0.00000000000E+00  0.00000000000E+00  0.45593999997E+02  0.45594000000E+02  0.51100000000E-03 0. -1.
         11   -1    0    0    0    0 -0.00000000000E+00 -0.00000000000E+00 -0.45593999997E+02  0.45594000000E+02  0.51100000000E-03 0.  1.
    9900012    2    1    2    0    0 -0.17028540417E+02 -0.62386710575E+01 -0.39430081613E+02  0.47787267964E+02  0.19999985954E+02 0.  0.
         12    1    1    2    0    0  0.17028540417E+02  0.62386710575E+01  0.39430081613E+02  0.43400732036E+02  0.00000000000E+00 0. -1.
         11    1    3    3    0    0  0.92774353120E+00 -0.59049176650E+01 -0.20551987475E+02  0.21403573303E+02  0.51100000000E-03 0. -1.
        -11    1    3    3    0    0 -0.53582331074E+01  0.67600698016E+00 -0.83009723403E+01  0.99032211692E+01  0.51100000000E-03 0.  1.
         12    1    3    3    0    0 -0.12598050841E+02 -0.10097603727E+01 -0.10577121797E+02  0.16480473491E+02  0.00000000000E+00 0. -1.
</event>
<event>
 7    1  0.2387817E-009  0.4778724E+02  0.7816164E-02  0.1312668E+00
        -11   -1    0    0    0    0  0.00000000000E+00  0.00000000000E+00  0.45593999997E+02  0.45594000000E+02  0.51100000000E-03 0.  1.
         11   -1    0    0    0    0 -0.00000000000E+00 -0.00000000000E+00 -0.45593999997E+02  0.45594000000E+02  0.51100000000E-03 0. -1.
    9900012    2    1    2    0    0 -0.80943627314E+01 -0.36425300021E+02  0.22165396821E+02  0.47787239570E+02  0.19999856495E+02 0.  0.
         12    1    1    2    0    0  0.80943627314E+01  0.36425300021E+02 -0.22165396821E+02  0.43400760430E+02  0.00000000000E+00 0. -1.
         11    1    3    3    0    0  0.19298550745E+01 -0.18000052817E+01  0.45132624639E+01  0.52281830450E+01  0.51100000000E-03 0. -1.
        -11    1    3    3    0    0 -0.41368132046E+01 -0.15849921470E+02  0.15860164861E+02  0.22800834717E+02  0.51100000000E-03 0.  1.
        -12    1    3    3    0    0 -0.58874046013E+01 -0.18775373270E+02  0.17919694963E+01  0.19758221808E+02  0.00000000000E+00 0.  1.
</event>
<event>
 7    1  0.2387817E-009  0.4778727E+02  0.7816164E-02  0.1312668E+00
        -11   -1    0    0    0    0  0.00000000000E+00  0.00000000000E+00  0.45593999997E+02  0.45594000000E+02  0.51100000000E-03 0.  1.
         11   -1    0    0    0    0 -0.00000000000E+00 -0.00000000000E+00 -0.45593999997E+02  0.45594000000E+02  0.51100000000E-03 0. -1.
    9900012    2    1    2    0    0  0.42498492901E+02 -0.59796091237E+01  0.64610912915E+01  0.47787270457E+02  0.19999997323E+02 0.  0.
         12    1    1    2    0    0 -0.42498492901E+02  0.59796091237E+01 -0.64610912915E+01  0.43400729543E+02  0.00000000000E+00 0. -1.
         11    1    3    3    0    0  0.92455414903E+01 -0.82730977494E+01  0.37368565002E+01  0.12957171010E+02  0.51100000000E-03 0. -1.
        -11    1    3    3    0    0  0.22360035652E+02 -0.17172914560E+01 -0.15037416972E+01  0.22476243540E+02  0.51100000000E-03 0.  1.
         12    1    3    3    0    0  0.10892915759E+02  0.40107800817E+01  0.42279764885E+01  0.12353855907E+02  0.00000000000E+00 0. -1.
</event>
<event>
 7    1  0.2387817E-009  0.4778727E+02  0.7816164E-02  0.1312668E+00
        -11   -1    0    0    0    0  0.00000000000E+00  0.00000000000E+00  0.45593999997E+02  0.45594000000E+02  0.51100000000E-03 0.  1.
         11   -1    0    0    0    0 -0.00000000000E+00 -0.00000000000E+00 -0.45593999997E+02  0.45594000000E+02  0.51100000000E-03 0. -1.
    9900012    2    1    2    0    0  0.34073552083E+02 -0.21224783767E+02  0.16496207675E+02  0.47787271145E+02  0.20000000458E+02 0.  0.
         12    1    1    2    0    0 -0.34073552083E+02  0.21224783767E+02 -0.16496207675E+02  0.43400728855E+02  0.00000000000E+00 0. -1.
         11    1    3    3    0    0  0.31651697103E+02 -0.13167536857E+02  0.18354736302E+02  0.38885862487E+02  0.51100000000E-03 0. -1.
        -11    1    3    3    0    0  0.11330627079E+01 -0.31081108126E+01  0.35806585596E+00  0.33275209003E+01  0.51100000000E-03 0.  1.
         12    1    3    3    0    0  0.12887922723E+01 -0.49491360973E+01 -0.22165944836E+01  0.55738877577E+01  0.00000000000E+00 0. -1.
</event>
<event>
 7    1  0.2387817E-009  0.4778726E+02  0.7816164E-02  0.1312668E+00
        -11   -1    0    0    0    0  0.00000000000E+00  0.00000000000E+00  0.45593999997E+02  0.45594000000E+02  0.51100000000E-03 0.  1.
         11   -1    0    0    0    0 -0.00000000000E+00 -0.00000000000E+00 -0.45593999997E+02  0.45594000000E+02  0.51100000000E-03 0. -1.
    9900012    2    1    2    0    0  0.18669591576E+02 -0.98979974915E+01  0.37909100153E+02  0.47787264080E+02  0.19999968248E+02 0.  0.
         12    1    1    2    0    0 -0.18669591576E+02  0.98979974915E+01 -0.37909100153E+02  0.43400735920E+02  0.00000000000E+00 0. -1.
         11    1    3    3    0    0  0.33223401735E+00 -0.11251983065E+01  0.68960750319E+01  0.69951627413E+01  0.51100000000E-03 0.  1.
        -11    1    3    3    0    0  0.48434635628E+01 -0.33293912306E+01 -0.68189778947E+00  0.59168378469E+01  0.51100000000E-03 0. -1.
        -12    1    3    3    0    0  0.13493893996E+02 -0.54434079544E+01  0.31694922911E+02  0.34875263492E+02  0.00000000000E+00 0.  1.
</event>
<event>
 7    1  0.2387817E-009  0.4778727E+02  0.7816164E-02  0.1312668E+00
        -11   -1    0    0    0    0  0.00000000000E+00  0.00000000000E+00  0.45593999997E+02  0.45594000000E+02  0.51100000000E-03 0.  1.
         11   -1    0    0    0    0 -0.00000000000E+00 -0.00000000000E+00 -0.45593999997E+02  0.45594000000E+02  0.51100000000E-03 0. -1.
    9900012    2    1    2    0    0 -0.33320262358E+02  0.10495578223E+02  0.25753180282E+02  0.47787270277E+02  0.19999996501E+02 0.  0.
         12    1    1    2    0    0  0.33320262358E+02 -0.10495578223E+02 -0.25753180282E+02  0.43400729723E+02  0.00000000000E+00 0. -1.
         11    1    3    3    0    0 -0.39552123370E+01  0.72952432275E+01  0.24186105184E+01  0.86437234731E+01  0.51100000000E-03 0. -1.
        -11    1    3    3    0    0 -0.27817681742E+01  0.19513733347E+01  0.73550531761E+01  0.81020305819E+01  0.51100000000E-03 0.  1.
         12    1    3    3    0    0 -0.26583281847E+02  0.12489616605E+01  0.15979516587E+02  0.31041516222E+02  0.00000000000E+00 0. -1.
</event>
<event>
 7    1  0.2387817E-009  0.4778727E+02  0.7816164E-02  0.1312668E+00
        -11   -1    0    0    0    0  0.00000000000E+00  0.00000000000E+00  0.45593999997E+02  0.45594000000E+02  0.51100000000E-03 0.  1.
         11   -1    0    0    0    0 -0.00000000000E+00 -0.00000000000E+00 -0.45593999997E+02  0.45594000000E+02  0.51100000000E-03 0. -1.
    9900012    2    1    2    0    0  0.33629180845E+02 -0.23309045860E+02  0.14470306757E+02  0.47787271886E+02  0.20000003838E+02 0.  0.
         12    1    1    2    0    0 -0.33629180845E+02  0.23309045860E+02 -0.14470306757E+02  0.43400728114E+02  0.00000000000E+00 0. -1.
         11    1    3    3    0    0  0.11454912422E+02 -0.71309648533E+01 -0.12931905054E+01  0.13554999826E+02  0.51100000000E-03 0. -1.
        -11    1    3    3    0    0  0.20783859759E+01  0.18679490289E+01 -0.29453151783E+00  0.28099236495E+01  0.51100000000E-03 0.  1.
        -12    1    3    3    0    0  0.20095882446E+02 -0.18046030035E+02  0.16058028780E+02  0.31422348411E+02  0.00000000000E+00 0.  1.
</event>
<event>
 7    1  0.2387817E-009  0.4778727E+02  0.7816164E-02  0.1312668E+00
        -11   -1    0    0    0    0  0.00000000000E+00  0.00000000000E+00  0.45593999997E+02  0.45594000000E+02  0.51100000000E-03 0.  1.
         11   -1    0    0    0    0 -0.00000000000E+00 -0.00000000000E+00 -0.45593999997E+02  0.45594000000E+02  0.51100000000E-03 0. -1.
    9900012    2    1    2    0    0  0.29662800932E+02 -0.13337444575E+01  0.31653790897E+02  0.47787272914E+02  0.20000008524E+02 0.  0.
         12    1    1    2    0    0 -0.29662800932E+02  0.13337444575E+01 -0.31653790897E+02  0.43400727086E+02  0.00000000000E+00 0. -1.
         11    1    3    3    0    0  0.16092856694E+01  0.38348155685E+01 -0.22188793534E+00  0.41647143152E+01  0.51100000000E-03 0. -1.
        -11    1    3    3    0    0  0.14776736632E+01  0.17758758427E+01  0.26071493649E+01  0.34834584160E+01  0.51100000000E-03 0.  1.
        -12    1    3    3    0    0  0.26575841600E+02 -0.69444358687E+01  0.29268529468E+02  0.40139100183E+02  0.00000000000E+00 0.  1.
</event>
<event>
 7    1  0.2387817E-009  0.4778727E+02  0.7816164E-02  0.1312668E+00
        -11   -1    0    0    0    0  0.00000000000E+00  0.00000000000E+00  0.45593999997E+02  0.45594000000E+02  0.51100000000E-03 0.  1.
         11   -1    0    0    0    0 -0.00000000000E+00 -0.00000000000E+00 -0.45593999997E+02  0.45594000000E+02  0.51100000000E-03 0. -1.
    9900012    2    1    2    0    0 -0.51146191451E+01 -0.14456390761E+02  0.40601437149E+02  0.47787271188E+02  0.20000000655E+02 0.  0.
         12    1    1    2    0    0  0.51146191451E+01  0.14456390761E+02 -0.40601437149E+02  0.43400728812E+02  0.00000000000E+00 0. -1.
         11    1    3    3    0    0 -0.78893956285E+01 -0.95087081621E+01  0.18487195008E+02  0.22235882573E+02  0.51100000000E-03 0.  1.
        -11    1    3    3    0    0 -0.27702863290E+01  0.23495198476E+01  0.64980049325E+01  0.74443803115E+01  0.51100000000E-03 0. -1.
        -12    1    3    3    0    0  0.55450628124E+01 -0.72972024468E+01  0.15616237209E+02  0.18107008303E+02  0.00000000000E+00 0.  1.
</event>
<event>
 7    1  0.2387817E-009  0.4778726E+02  0.7816164E-02  0.1312668E+00
        -11   -1    0    0    0    0  0.00000000000E+00  0.00000000000E+00  0.45593999997E+02  0.45594000000E+02  0.51100000000E-03 0. -1.
         11   -1    0    0    0    0 -0.00000000000E+00 -0.00000000000E+00 -0.45593999997E+02  0.45594000000E+02  0.51100000000E-03 0.  1.
    9900012    2    1    2    0    0 -0.38101178358E+02 -0.20308303287E+02 -0.44156086376E+01  0.47787256063E+02  0.19999931693E+02 0.  0.
         12    1    1    2    0    0  0.38101178358E+02  0.20308303287E+02  0.44156086376E+01  0.43400743937E+02  0.00000000000E+00 0. -1.
         11    1    3    3    0    0 -0.21556391792E+02 -0.83063040918E+01  0.15546803238E+01  0.23153611941E+02  0.51100000000E-03 0.  1.
        -11    1    3    3    0    0 -0.11313915990E+02 -0.57346681394E+00 -0.29901918502E+01  0.11716433194E+02  0.51100000000E-03 0. -1.
         12    1    3    3    0    0 -0.52308705756E+01 -0.11428532381E+02 -0.29800971113E+01  0.12917210928E+02  0.00000000000E+00 0. -1.
</event>
<event>
 7    1  0.2387817E-009  0.4778727E+02  0.7816164E-02  0.1312668E+00
        -11   -1    0    0    0    0  0.00000000000E+00  0.00000000000E+00  0.45593999997E+02  0.45594000000E+02  0.51100000000E-03 0. -1.
         11   -1    0    0    0    0 -0.00000000000E+00 -0.00000000000E+00 -0.45593999997E+02  0.45594000000E+02  0.51100000000E-03 0.  1.
    9900012    2    1    2    0    0 -0.76810714224E+00 -0.31668711105E+02 -0.29666918955E+02  0.47787270376E+02  0.19999996951E+02 0.  0.
         12    1    1    2    0    0  0.76810714224E+00  0.31668711105E+02  0.29666918955E+02  0.43400729624E+02  0.00000000000E+00 0. -1.
         11    1    3    3    0    0 -0.22329917160E+01 -0.20634490784E+01 -0.54590074661E+01  0.62485867906E+01  0.51100000000E-03 0. -1.
        -11    1    3    3    0    0  0.77646316044E+01 -0.10734991918E+02 -0.59020589672E+01  0.14503925529E+02  0.51100000000E-03 0.  1.
        -12    1    3    3    0    0 -0.62997470306E+01 -0.18870270109E+02 -0.18305852521E+02  0.27034758057E+02  0.00000000000E+00 0.  1.
</event>
<event>
 7    1  0.2387817E-009  0.4778728E+02  0.7816164E-02  0.1312668E+00
        -11   -1    0    0    0    0  0.00000000000E+00  0.00000000000E+00  0.45593999997E+02  0.45594000000E+02  0.51100000000E-03 0.  1.
         11   -1    0    0    0    0 -0.00000000000E+00 -0.00000000000E+00 -0.45593999997E+02  0.45594000000E+02  0.51100000000E-03 0. -1.
    9900012    2    1    2    0    0 -0.11192768841E+02  0.32131284356E+02  0.26942999725E+02  0.47787277162E+02  0.20000027892E+02 0.  0.
         12    1    1    2    0    0  0.11192768841E+02 -0.32131284356E+02 -0.26942999725E+02  0.43400722838E+02  0.00000000000E+00 0. -1.
         11    1    3    3    0    0 -0.84352349095E+01  0.12194002539E+02  0.18351774884E+02  0.23593103390E+02  0.51100000000E-03 0. -1.
        -11    1    3    3    0    0 -0.15271187143E+01  0.12857827173E+02  0.10599353671E+02  0.16733263569E+02  0.51100000000E-03 0.  1.
        -12    1    3    3    0    0 -0.12304152172E+01  0.70794546432E+01 -0.20081288300E+01  0.74609102025E+01  0.00000000000E+00 0.  1.
</event>
<event>
 7    1  0.2907060E-009  0.4778727E+02  0.7816164E-02  0.1312668E+00
        -11   -1    0    0    0    0  0.00000000000E+00  0.00000000000E+00  0.45593999997E+02  0.45594000000E+02  0.51100000000E-03 0. -1.
         11   -1    0    0    0    0 -0.00000000000E+00 -0.00000000000E+00 -0.45593999997E+02  0.45594000000E+02  0.51100000000E-03 0.  1.
    9900012    2    1    2    0    0  0.69691986476E+01 -0.27840702025E+02 -0.32556854205E+02  0.47787272186E+02  0.20000005206E+02 0.  0.
         12    1    1    2    0    0 -0.69691986476E+01  0.27840702025E+02  0.32556854205E+02  0.43400727814E+02  0.00000000000E+00 0. -1.
         11    1    3    3    0    0  0.50848689511E+01 -0.56255091565E+01 -0.13293871507E+02  0.15304550481E+02  0.51100000000E-03 0. -1.
        -11    1    3    3    0    0  0.64612863416E+01 -0.16991058197E+02 -0.17682381901E+02  0.25359631500E+02  0.51100000000E-03 0.  1.
         12    1    3    3    0    0 -0.45769566450E+01 -0.52241346714E+01 -0.15806007969E+01  0.71230902054E+01  0.00000000000E+00 0. -1.
</event>
<event>
 7    1  0.2387817E-009  0.4778726E+02  0.7816164E-02  0.1312668E+00
        -11   -1    0    0    0    0  0.00000000000E+00  0.00000000000E+00  0.45593999997E+02  0.45594000000E+02  0.51100000000E-03 0.  1.
         11   -1    0    0    0    0 -0.00000000000E+00 -0.00000000000E+00 -0.45593999997E+02  0.45594000000E+02  0.51100000000E-03 0. -1.
    9900012    2    1    2    0    0 -0.17619076885E+02 -0.28655260780E+02  0.27423857611E+02  0.47787264904E+02  0.19999972003E+02 0.  0.
         12    1    1    2    0    0  0.17619076885E+02  0.28655260780E+02 -0.27423857611E+02  0.43400735096E+02  0.00000000000E+00 0. -1.
         11    1    3    3    0    0 -0.11664072045E+02 -0.24585088315E+02  0.12138014330E+02  0.29796116128E+02  0.51100000000E-03 0.  1.
        -11    1    3    3    0    0 -0.43300987312E+01 -0.51598600878E+01  0.80551590086E+01  0.10500452279E+02  0.51100000000E-03 0. -1.
         12    1    3    3    0    0 -0.16249061082E+01  0.10896876232E+01  0.72306842718E+01  0.74906964973E+01  0.00000000000E+00 0. -1.
</event>
<event>
 7    1  0.2387817E-009  0.4778728E+02  0.7816164E-02  0.1312668E+00
        -11   -1    0    0    0    0  0.00000000000E+00  0.00000000000E+00  0.45593999997E+02  0.45594000000E+02  0.51100000000E-03 0. -1.
         11   -1    0    0    0    0 -0.00000000000E+00 -0.00000000000E+00 -0.45593999997E+02  0.45594000000E+02  0.51100000000E-03 0.  1.
    9900012    2    1    2    0    0  0.13399025350E+01 -0.34099824693E+02 -0.26814714730E+02  0.47787282161E+02  0.20000050684E+02 0.  0.
         12    1    1    2    0    0 -0.13399025350E+01  0.34099824693E+02  0.26814714730E+02  0.43400717839E+02  0.00000000000E+00 0. -1.
         11    1    3    3    0    0 -0.13984424282E+01 -0.30049247568E+02 -0.28364231002E+02  0.41345405080E+02  0.51100000000E-03 0. -1.
        -11    1    3    3    0    0  0.22850928248E+00 -0.27217616277E+01 -0.69927990857E+00  0.28194317693E+01  0.51100000000E-03 0.  1.
         12    1    3    3    0    0  0.25098356807E+01 -0.13288154981E+01  0.22487961812E+01  0.36224453118E+01  0.00000000000E+00 0. -1.
</event>
<event>
 7    1  0.2387817E-009  0.4778727E+02  0.7816164E-02  0.1312668E+00
        -11   -1    0    0    0    0  0.00000000000E+00  0.00000000000E+00  0.45593999997E+02  0.45594000000E+02  0.51100000000E-03 0.  1.
         11   -1    0    0    0    0 -0.00000000000E+00 -0.00000000000E+00 -0.45593999997E+02  0.45594000000E+02  0.51100000000E-03 0. -1.
    9900012    2    1    2    0    0 -0.26630133637E+02  0.28430293428E+02  0.19135764499E+02  0.47787273221E+02  0.20000009925E+02 0.  0.
         12    1    1    2    0    0  0.26630133637E+02 -0.28430293428E+02 -0.19135764499E+02  0.43400726779E+02  0.00000000000E+00 0. -1.
         11    1    3    3    0    0 -0.12177981911E+02  0.10227608406E+02  0.29571535521E+01  0.16175659941E+02  0.51100000000E-03 0. -1.
        -11    1    3    3    0    0  0.13021929138E+01  0.34440885408E+01 -0.12271950961E+01  0.38811673922E+01  0.51100000000E-03 0.  1.
        -12    1    3    3    0    0 -0.15754344640E+02  0.14758596482E+02  0.17405806043E+02  0.27730445888E+02  0.00000000000E+00 0.  1.
</event>
<event>
 7    1  0.2387817E-009  0.4778727E+02  0.7816164E-02  0.1312668E+00
        -11   -1    0    0    0    0  0.00000000000E+00  0.00000000000E+00  0.45593999997E+02  0.45594000000E+02  0.51100000000E-03 0.  1.
         11   -1    0    0    0    0 -0.00000000000E+00 -0.00000000000E+00 -0.45593999997E+02  0.45594000000E+02  0.51100000000E-03 0. -1.
    9900012    2    1    2    0    0 -0.18164960412E+02 -0.57593670098E+01  0.38993424370E+02  0.47787271444E+02  0.20000001822E+02 0.  0.
         12    1    1    2    0    0  0.18164960412E+02  0.57593670098E+01 -0.38993424370E+02  0.43400728556E+02  0.00000000000E+00 0. -1.
         11    1    3    3    0    0 -0.12746056468E+01 -0.46699244402E+00  0.85052960009E+01  0.86129415313E+01  0.51100000000E-03 0. -1.
        -11    1    3    3    0    0 -0.52101863373E+01 -0.81175281968E+01  0.23186874488E+02  0.25113172927E+02  0.51100000000E-03 0.  1.
         12    1    3    3    0    0 -0.11680168428E+02  0.28251536310E+01  0.73012538812E+01  0.14061156986E+02  0.00000000000E+00 0. -1.
</event>
<event>
 7    1  0.2387817E-009  0.4778727E+02  0.7816164E-02  0.1312668E+00
        -11   -1    0    0    0    0  0.00000000000E+00  0.00000000000E+00  0.45593999997E+02  0.45594000000E+02  0.51100000000E-03 0.  1.
         11   -1    0    0    0    0 -0.00000000000E+00 -0.00000000000E+00 -0.45593999997E+02  0.45594000000E+02  0.51100000000E-03 0. -1.
    9900012    2    1    2    0    0  0.38939246340E+02 -0.17702876740E+02  0.73461847581E+01  0.47787272115E+02  0.20000004883E+02 0.  0.
         12    1    1    2    0    0 -0.38939246340E+02  0.17702876740E+02 -0.73461847581E+01  0.43400727885E+02  0.00000000000E+00 0. -1.
         11    1    3    3    0    0  0.89777061979E+01 -0.73027992090E+01  0.38643559983E+01  0.12200956209E+02  0.51100000000E-03 0. -1.
        -11    1    3    3    0    0  0.40480092399E+01 -0.79462520207E+01 -0.16138584984E+01  0.90627721750E+01  0.51100000000E-03 0.  1.
         12    1    3    3    0    0  0.25913530902E+02 -0.24538255105E+01  0.50956872582E+01  0.26523543732E+02  0.00000000000E+00 0. -1.
</event>
<event>
 7    1  0.2387817E-009  0.4778730E+02  0.7816164E-02  0.1312668E+00
        -11   -1    0    0    0    0  0.00000000000E+00  0.00000000000E+00  0.45593999997E+02  0.45594000000E+02  0.51100000000E-03 0.  1.
         11   -1    0    0    0    0 -0.00000000000E+00 -0.00000000000E+00 -0.45593999997E+02  0.45594000000E+02  0.51100000000E-03 0. -1.
    9900012    2    1    2    0    0 -0.26499770869E+02 -0.33727957068E+02  0.66187499391E+01  0.47787299604E+02  0.20000130215E+02 0.  0.
         12    1    1    2    0    0  0.26499770869E+02  0.33727957068E+02 -0.66187499391E+01  0.43400700396E+02  0.00000000000E+00 0. -1.
         11    1    3    3    0    0 -0.12327421380E+02 -0.12188531686E+02  0.88582263707E+01  0.19467763026E+02  0.51100000000E-03 0.  1.
        -11    1    3    3    0    0 -0.12067774836E+02 -0.79449949108E+01 -0.53800372169E+00  0.14458339527E+02  0.51100000000E-03 0. -1.
         12    1    3    3    0    0 -0.21045746534E+01 -0.13594430471E+02 -0.17014727100E+01  0.13861197051E+02  0.00000000000E+00 0. -1.
</event>
<event>
 7    1  0.2387817E-009  0.4778728E+02  0.7816164E-02  0.1312668E+00
        -11   -1    0    0    0    0  0.00000000000E+00  0.00000000000E+00  0.45593999997E+02  0.45594000000E+02  0.51100000000E-03 0.  1.
         11   -1    0    0    0    0 -0.00000000000E+00 -0.00000000000E+00 -0.45593999997E+02  0.45594000000E+02  0.51100000000E-03 0. -1.
    9900012    2    1    2    0    0 -0.23222874704E+02  0.29846962423E+02  0.21295048560E+02  0.47787283778E+02  0.20000058060E+02 0.  0.
         12    1    1    2    0    0  0.23222874704E+02 -0.29846962423E+02 -0.21295048560E+02  0.43400716222E+02  0.00000000000E+00 0. -1.
         11    1    3    3    0    0 -0.11328176344E+02  0.85393852220E+01  0.33620362471E+01  0.14579162090E+02  0.51100000000E-03 0.  1.
        -11    1    3    3    0    0  0.88416810502E-01  0.66168314379E+00 -0.20001559117E+01  0.21086170936E+01  0.51100000000E-03 0. -1.
        -12    1    3    3    0    0 -0.11983115170E+02  0.20645894057E+02  0.19933168225E+02  0.31099504595E+02  0.00000000000E+00 0.  1.
</event>
<event>
 7    1  0.2387817E-009  0.4778727E+02  0.7816164E-02  0.1312668E+00
        -11   -1    0    0    0    0  0.00000000000E+00  0.00000000000E+00  0.45593999997E+02  0.45594000000E+02  0.51100000000E-03 0.  1.
         11   -1    0    0    0    0 -0.00000000000E+00 -0.00000000000E+00 -0.45593999997E+02  0.45594000000E+02  0.51100000000E-03 0. -1.
    9900012    2    1    2    0    0 -0.12542674247E+02 -0.41531571220E+02  0.11971850867E+01  0.47787270313E+02  0.19999996663E+02 0.  0.
         12    1    1    2    0    0  0.12542674247E+02  0.41531571220E+02 -0.11971850867E+01  0.43400729687E+02  0.00000000000E+00 0. -1.
         11    1    3    3    0    0 -0.68176174886E+01 -0.27866470215E+02  0.29308532710E+00  0.28689823453E+02  0.51100000000E-03 0. -1.
        -11    1    3    3    0    0 -0.50559600618E+01 -0.15851219765E+02  0.15813970097E+01  0.16713010409E+02  0.51100000000E-03 0.  1.
         12    1    3    3    0    0 -0.66909669637E+00  0.21861187599E+01 -0.67729725004E+00  0.23844364505E+01  0.00000000000E+00 0. -1.
</event>
<event>
 7    1  0.2387817E-009  0.4778727E+02  0.7816164E-02  0.1312668E+00
        -11   -1    0    0    0    0  0.00000000000E+00  0.00000000000E+00  0.45593999997E+02  0.45594000000E+02  0.51100000000E-03 0.  1.
         11   -1    0    0    0    0 -0.00000000000E+00 -0.00000000000E+00 -0.45593999997E+02  0.45594000000E+02  0.51100000000E-03 0. -1.
    9900012    2    1    2    0    0  0.93954202008E+01  0.39483266134E+02  0.15375993109E+02  0.47787269713E+02  0.19999993929E+02 0.  0.
         12    1    1    2    0    0 -0.93954202008E+01 -0.39483266134E+02 -0.15375993109E+02  0.43400730287E+02  0.00000000000E+00 0. -1.
         11    1    3    3    0    0  0.69026495570E+01  0.15095652841E+02  0.10126744900E+02  0.19444183401E+02  0.51100000000E-03 0. -1.
        -11    1    3    3    0    0  0.72941022528E+01  0.17993966836E+02  0.59744539296E+01  0.20314548240E+02  0.51100000000E-03 0.  1.
        -12    1    3    3    0    0 -0.48013316089E+01  0.63936464570E+01 -0.72520572073E+00  0.80285380720E+01  0.00000000000E+00 0.  1.
</event>
<event>
 7    1  0.2387817E-009  0.4778727E+02  0.7816164E-02  0.1312668E+00
        -11   -1    0    0    0    0  0.00000000000E+00  0.00000000000E+00  0.45593999997E+02  0.45594000000E+02  0.51100000000E-03 0. -1.
         11   -1    0    0    0    0 -0.00000000000E+00 -0.00000000000E+00 -0.45593999997E+02  0.45594000000E+02  0.51100000000E-03 0.  1.
    9900012    2    1    2    0    0 -0.33669679137E+02  0.14921758786E+02 -0.22963382093E+02  0.47787273098E+02  0.20000009361E+02 0.  0.
         12    1    1    2    0    0  0.33669679137E+02 -0.14921758786E+02  0.22963382093E+02  0.43400726902E+02  0.00000000000E+00 0. -1.
         11    1    3    3    0    0 -0.11428882003E+02 -0.11130620707E+01 -0.37084280719E+01  0.12066925459E+02  0.51100000000E-03 0. -1.
        -11    1    3    3    0    0  0.12701032889E+01 -0.20053076734E+00 -0.36449592662E-01  0.12863529014E+01  0.51100000000E-03 0.  1.
        -12    1    3    3    0    0 -0.23510900423E+02  0.16235351624E+02 -0.19218504429E+02  0.34433994737E+02  0.00000000000E+00 0.  1.
</event>
<event>
 7    1  0.2387817E-009  0.4778728E+02  0.7816164E-02  0.1312668E+00
        -11   -1    0    0    0    0  0.00000000000E+00  0.00000000000E+00  0.45593999997E+02  0.45594000000E+02  0.51100000000E-03 0.  1.
         11   -1    0    0    0    0 -0.00000000000E+00 -0.00000000000E+00 -0.45593999997E+02  0.45594000000E+02  0.51100000000E-03 0. -1.
    9900012    2    1    2    0    0  0.11487243131E+02  0.41483386666E+02  0.55492977216E+01  0.47787276167E+02  0.20000023355E+02 0.  0.
         12    1    1    2    0    0 -0.11487243131E+02 -0.41483386666E+02 -0.55492977216E+01  0.43400723833E+02  0.00000000000E+00 0. -1.
         11    1    3    3    0    0  0.53467370542E+01  0.34336317822E+02  0.36011533975E+01  0.34936207934E+02  0.51100000000E-03 0. -1.
        -11    1    3    3    0    0 -0.10227406906E+01  0.38636372484E+01 -0.14743783830E+01  0.42599862893E+01  0.51100000000E-03 0.  1.
        -12    1    3    3    0    0  0.71632467670E+01  0.32834315955E+01  0.34225227071E+01  0.85910819440E+01  0.00000000000E+00 0.  1.
</event>
<event>
 7    1  0.2387817E-009  0.4778727E+02  0.7816164E-02  0.1312668E+00
        -11   -1    0    0    0    0  0.00000000000E+00  0.00000000000E+00  0.45593999997E+02  0.45594000000E+02  0.51100000000E-03 0.  1.
         11   -1    0    0    0    0 -0.00000000000E+00 -0.00000000000E+00 -0.45593999997E+02  0.45594000000E+02  0.51100000000E-03 0. -1.
    9900012    2    1    2    0    0  0.22695343659E+02  0.84939804999E+01 -0.36005511591E+02  0.47787271971E+02  0.20000004225E+02 0.  0.
         12    1    1    2    0    0 -0.22695343659E+02 -0.84939804999E+01  0.36005511591E+02  0.43400728029E+02  0.00000000000E+00 0. -1.
         11    1    3    3    0    0  0.22064935722E+01  0.77182066359E+00 -0.15829921652E+02  0.16001585571E+02  0.51100000000E-03 0. -1.
        -11    1    3    3    0    0  0.21237769327E+01 -0.19822271129E+01 -0.11293763765E+00  0.29073025226E+01  0.51100000000E-03 0.  1.
        -12    1    3    3    0    0  0.18365073154E+02  0.97043869492E+01 -0.20062652301E+02  0.28878383877E+02  0.00000000000E+00 0.  1.
</event>
<event>
 7    1  0.2387817E-009  0.4778727E+02  0.7816164E-02  0.1312668E+00
        -11   -1    0    0    0    0  0.00000000000E+00  0.00000000000E+00  0.45593999997E+02  0.45594000000E+02  0.51100000000E-03 0.  1.
         11   -1    0    0    0    0 -0.00000000000E+00 -0.00000000000E+00 -0.45593999997E+02  0.45594000000E+02  0.51100000000E-03 0. -1.
    9900012    2    1    2    0    0  0.41034676335E+01  0.28022471067E+02  0.32886561831E+02  0.47787270969E+02  0.19999999656E+02 0.  0.
         12    1    1    2    0    0 -0.41034676335E+01 -0.28022471067E+02 -0.32886561831E+02  0.43400729031E+02  0.00000000000E+00 0. -1.
         11    1    3    3    0    0  0.20607688851E+01  0.56734330048E+00  0.57142577569E+01  0.61009334361E+01  0.51100000000E-03 0. -1.
        -11    1    3    3    0    0 -0.42440430569E+01  0.25471568480E+01  0.10719058627E+01  0.50644735083E+01  0.51100000000E-03 0.  1.
        -12    1    3    3    0    0  0.62867418053E+01  0.24907970919E+02  0.26100398212E+02  0.36621864025E+02  0.00000000000E+00 0.  1.
</event>
<event>
 7    1  0.2387817E-009  0.4778727E+02  0.7816164E-02  0.1312668E+00
        -11   -1    0    0    0    0  0.00000000000E+00  0.00000000000E+00  0.45593999997E+02  0.45594000000E+02  0.51100000000E-03 0.  1.
         11   -1    0    0    0    0 -0.00000000000E+00 -0.00000000000E+00 -0.45593999997E+02  0.45594000000E+02  0.51100000000E-03 0. -1.
    9900012    2    1    2    0    0 -0.28743447366E+02 -0.18418634346E+02  0.26799097636E+02  0.47787268534E+02  0.19999988555E+02 0.  0.
         12    1    1    2    0    0  0.28743447366E+02  0.18418634346E+02 -0.26799097636E+02  0.43400731466E+02  0.00000000000E+00 0. -1.
         11    1    3    3    0    0 -0.12378767667E+01 -0.32794476298E+01  0.12642583759E+01  0.37263205912E+01  0.51100000000E-03 0. -1.
        -11    1    3    3    0    0 -0.44147896904E+01 -0.86032265902E+01  0.96815100388E+00  0.97181887407E+01  0.51100000000E-03 0.  1.
         12    1    3    3    0    0 -0.23090780909E+02 -0.65359601259E+01  0.24566688256E+02  0.34342759202E+02  0.00000000000E+00 0. -1.
</event>
<event>
 7    1  0.2387817E-009  0.4778726E+02  0.7816164E-02  0.1312668E+00
        -11   -1    0    0    0    0  0.00000000000E+00  0.00000000000E+00  0.45593999997E+02  0.45594000000E+02  0.51100000000E-03 0.  1.
         11   -1    0    0    0    0 -0.00000000000E+00 -0.00000000000E+00 -0.45593999997E+02  0.45594000000E+02  0.51100000000E-03 0. -1.
    9900012    2    1    2    0    0  0.38572791517E+01  0.19581765646E+02  0.38539589286E+02  0.47787261635E+02  0.19999957100E+02 0.  0.
         12    1    1    2    0    0 -0.38572791517E+01 -0.19581765646E+02 -0.38539589286E+02  0.43400738365E+02  0.00000000000E+00 0. -1.
         11    1    3    3    0    0 -0.23870184756E+01  0.34926453849E+01  0.12453591265E+01  0.44099148067E+01  0.51100000000E-03 0. -1.
        -11    1    3    3    0    0  0.51906877235E+01 -0.77308267179E+00  0.93874937104E+01  0.10754809821E+02  0.51100000000E-03 0.  1.
        -12    1    3    3    0    0  0.10536099038E+01  0.16862202933E+02  0.27906736449E+02  0.32622537008E+02  0.00000000000E+00 0.  1.
</event>
<event>
 7    1  0.2387817E-009  0.4778727E+02  0.7816164E-02  0.1312668E+00
        -11   -1    0    0    0    0  0.00000000000E+00  0.00000000000E+00  0.45593999997E+02  0.45594000000E+02  0.51100000000E-03 0.  1.
         11   -1    0    0    0    0 -0.00000000000E+00 -0.00000000000E+00 -0.45593999997E+02  0.45594000000E+02  0.51100000000E-03 0. -1.
    9900012    2    1    2    0    0 -0.10889948076E+02  0.32737544620E+02  0.26330317551E+02  0.47787269370E+02  0.19999992367E+02 0.  0.
         12    1    1    2    0    0  0.10889948076E+02 -0.32737544620E+02 -0.26330317551E+02  0.43400730630E+02  0.00000000000E+00 0. -1.
         11    1    3    3    0    0 -0.26438645923E+01  0.67946342700E+01  0.32800136473E+01  0.79947210479E+01  0.51100000000E-03 0. -1.
        -11    1    3    3    0    0 -0.28939859303E+01  0.17134589132E+02  0.35503178489E+01  0.17736235688E+02  0.51100000000E-03 0.  1.
         12    1    3    3    0    0 -0.53520975538E+01  0.88083212183E+01  0.19499986055E+02  0.22056312635E+02  0.00000000000E+00 0. -1.
</event>
<event>
 7    1  0.2387817E-009  0.4778727E+02  0.7816164E-02  0.1312668E+00
        -11   -1    0    0    0    0  0.00000000000E+00  0.00000000000E+00  0.45593999997E+02  0.45594000000E+02  0.51100000000E-03 0. -1.
         11   -1    0    0    0    0 -0.00000000000E+00 -0.00000000000E+00 -0.45593999997E+02  0.45594000000E+02  0.51100000000E-03 0.  1.
    9900012    2    1    2    0    0  0.10769590395E+02  0.38859977344E+02 -0.16048097083E+02  0.47787270324E+02  0.19999996713E+02 0.  0.
         12    1    1    2    0    0 -0.10769590395E+02 -0.38859977344E+02  0.16048097083E+02  0.43400729676E+02  0.00000000000E+00 0. -1.
         11    1    3    3    0    0  0.11348613906E+02  0.13878778446E+02 -0.15075526793E+01  0.17991226864E+02  0.51100000000E-03 0. -1.
        -11    1    3    3    0    0 -0.15572260294E+01  0.22597711022E+01  0.10413069131E+00  0.27463360689E+01  0.51100000000E-03 0.  1.
        -12    1    3    3    0    0  0.97820251838E+00  0.22721427796E+02 -0.14644675095E+02  0.27049707390E+02  0.00000000000E+00 0.  1.
</event>
<event>
 7    1  0.2387817E-009  0.4778726E+02  0.7816164E-02  0.1312668E+00
        -11   -1    0    0    0    0  0.00000000000E+00  0.00000000000E+00  0.45593999997E+02  0.45594000000E+02  0.51100000000E-03 0.  1.
         11   -1    0    0    0    0 -0.00000000000E+00 -0.00000000000E+00 -0.45593999997E+02  0.45594000000E+02  0.51100000000E-03 0. -1.
    9900012    2    1    2    0    0 -0.37500706528E+01 -0.43145706001E+02  0.28300017977E+01  0.47787263988E+02  0.19999967827E+02 0.  0.
         12    1    1    2    0    0  0.37500706528E+01  0.43145706001E+02 -0.28300017977E+01  0.43400736012E+02  0.00000000000E+00 0. -1.
         11    1    3    3    0    0  0.29033669753E+01 -0.44660326612E+00 -0.10001134829E+01  0.31030986949E+01  0.51100000000E-03 0. -1.
        -11    1    3    3    0    0  0.14149208015E+01 -0.17066142620E+02  0.48298862344E+01  0.17792780168E+02  0.51100000000E-03 0.  1.
        -12    1    3    3    0    0 -0.80683584295E+01 -0.25632960115E+02 -0.99977095382E+00  0.26891385125E+02  0.00000000000E+00 0.  1.
</event>
<event>
 7    1  0.2387817E-009  0.4778727E+02  0.7816164E-02  0.1312668E+00
        -11   -1    0    0    0    0  0.00000000000E+00  0.00000000000E+00  0.45593999997E+02  0.45594000000E+02  0.51100000000E-03 0.  1.
         11   -1    0    0    0    0 -0.00000000000E+00 -0.00000000000E+00 -0.45593999997E+02  0.45594000000E+02  0.51100000000E-03 0. -1.
    9900012    2    1    2    0    0 -0.34320236757E+02 -0.15713098848E+02  0.21420622184E+02  0.47787272112E+02  0.20000004868E+02 0.  0.
         12    1    1    2    0    0  0.34320236757E+02  0.15713098848E+02 -0.21420622184E+02  0.43400727888E+02  0.00000000000E+00 0. -1.
         11    1    3    3    0    0 -0.13694204157E+02 -0.19568602796E+01  0.10283078676E+01  0.13871479624E+02  0.51100000000E-03 0. -1.
        -11    1    3    3    0    0 -0.17598356928E+02 -0.96324911429E+01  0.10187628820E+02  0.22500551847E+02  0.51100000000E-03 0.  1.
        -12    1    3    3    0    0 -0.30276756719E+01 -0.41237474256E+01  0.10204685497E+02  0.11415240641E+02  0.00000000000E+00 0.  1.
</event>
<event>
 7    1  0.2387817E-009  0.4778727E+02  0.7816164E-02  0.1312668E+00
        -11   -1    0    0    0    0  0.00000000000E+00  0.00000000000E+00  0.45593999997E+02  0.45594000000E+02  0.51100000000E-03 0.  1.
         11   -1    0    0    0    0 -0.00000000000E+00 -0.00000000000E+00 -0.45593999997E+02  0.45594000000E+02  0.51100000000E-03 0. -1.
    9900012    2    1    2    0    0 -0.55683304577E+01  0.37568857041E+02  0.21004712531E+02  0.47787271066E+02  0.20000000100E+02 0.  0.
         12    1    1    2    0    0  0.55683304577E+01 -0.37568857041E+02 -0.21004712531E+02  0.43400728934E+02  0.00000000000E+00 0. -1.
         11    1    3    3    0    0  0.19053479649E+00  0.16541597023E+01  0.19463195443E+01  0.25613878775E+01  0.51100000000E-03 0. -1.
        -11    1    3    3    0    0  0.11429170669E+01  0.18281131012E+02 -0.60052372836E-01  0.18316921604E+02  0.51100000000E-03 0.  1.
        -12    1    3    3    0    0 -0.69017823211E+01  0.17633566327E+02  0.19118445360E+02  0.26908961585E+02  0.00000000000E+00 0.  1.
</event>
<event>
 7    1  0.2387817E-009  0.4778727E+02  0.7816164E-02  0.1312668E+00
        -11   -1    0    0    0    0  0.00000000000E+00  0.00000000000E+00  0.45593999997E+02  0.45594000000E+02  0.51100000000E-03 0.  1.
         11   -1    0    0    0    0 -0.00000000000E+00 -0.00000000000E+00 -0.45593999997E+02  0.45594000000E+02  0.51100000000E-03 0. -1.
    9900012    2    1    2    0    0  0.53955106578E+01 -0.19952412947E+02  0.38162978454E+02  0.47787271410E+02  0.20000001665E+02 0.  0.
         12    1    1    2    0    0 -0.53955106578E+01  0.19952412947E+02 -0.38162978454E+02  0.43400728590E+02  0.00000000000E+00 0. -1.
         11    1    3    3    0    0  0.34510969222E+01 -0.25138917267E+01  0.85291589648E+01  0.95381483784E+01  0.51100000000E-03 0. -1.
        -11    1    3    3    0    0  0.47546746573E+01 -0.17999581203E+02  0.30053758678E+02  0.35352797139E+02  0.51100000000E-03 0.  1.
         12    1    3    3    0    0 -0.28102609217E+01  0.56105998218E+00 -0.41993918903E+00  0.28963258923E+01  0.00000000000E+00 0. -1.
</event>
<event>
 7    1  0.2387817E-009  0.4778727E+02  0.7816164E-02  0.1312668E+00
        -11   -1    0    0    0    0  0.00000000000E+00  0.00000000000E+00  0.45593999997E+02  0.45594000000E+02  0.51100000000E-03 0. -1.
         11   -1    0    0    0    0 -0.00000000000E+00 -0.00000000000E+00 -0.45593999997E+02  0.45594000000E+02  0.51100000000E-03 0.  1.
    9900012    2    1    2    0    0 -0.39535602674E+02  0.13346837455E+02 -0.11934045012E+02  0.47787269831E+02  0.19999994468E+02 0.  0.
         12    1    1    2    0    0  0.39535602674E+02 -0.13346837455E+02  0.11934045012E+02  0.43400730169E+02  0.00000000000E+00 0. -1.
         11    1    3    3    0    0  0.21563356384E+00  0.50275118634E+00  0.41059901117E+00  0.68399444319E+00  0.51100000000E-03 0. -1.
        -11    1    3    3    0    0 -0.25638731758E+02  0.43346819405E+01 -0.15574825933E+02  0.30310216706E+02  0.51100000000E-03 0.  1.
        -12    1    3    3    0    0 -0.14112504480E+02  0.85094043283E+01  0.32301819095E+01  0.16793058682E+02  0.00000000000E+00 0.  1.
</event>
<event>
 7    1  0.2387817E-009  0.4778726E+02  0.7816164E-02  0.1312668E+00
        -11   -1    0    0    0    0  0.00000000000E+00  0.00000000000E+00  0.45593999997E+02  0.45594000000E+02  0.51100000000E-03 0.  1.
         11   -1    0    0    0    0 -0.00000000000E+00 -0.00000000000E+00 -0.45593999997E+02  0.45594000000E+02  0.51100000000E-03 0. -1.
    9900012    2    1    2    0    0 -0.39425254979E+02  0.92627144030E+01  0.15603691616E+02  0.47787264979E+02  0.19999972347E+02 0.  0.
         12    1    1    2    0    0  0.39425254979E+02 -0.92627144030E+01 -0.15603691616E+02  0.43400735021E+02  0.00000000000E+00 0. -1.
         11    1    3    3    0    0 -0.70664449108E+01  0.31297916197E+01  0.87912490086E+01  0.11705396134E+02  0.51100000000E-03 0. -1.
        -11    1    3    3    0    0 -0.11069809809E+02  0.82137460494E+01  0.48036301774E+01  0.14597300316E+02  0.51100000000E-03 0.  1.
         12    1    3    3    0    0 -0.21289000260E+02 -0.20808232660E+01  0.20088124297E+01  0.21484568530E+02  0.00000000000E+00 0. -1.
</event>
<event>
 7    1  0.2387817E-009  0.4778727E+02  0.7816164E-02  0.1312668E+00
        -11   -1    0    0    0    0  0.00000000000E+00  0.00000000000E+00  0.45593999997E+02  0.45594000000E+02  0.51100000000E-03 0.  1.
         11   -1    0    0    0    0 -0.00000000000E+00 -0.00000000000E+00 -0.45593999997E+02  0.45594000000E+02  0.51100000000E-03 0. -1.
    9900012    2    1    2    0    0  0.45963084183E+01  0.18220838391E+01  0.43118177527E+02  0.47787271045E+02  0.20000000003E+02 0.  0.
         12    1    1    2    0    0 -0.45963084183E+01 -0.18220838391E+01 -0.43118177527E+02  0.43400728955E+02  0.00000000000E+00 0. -1.
         11    1    3    3    0    0 -0.38099030752E+00  0.26231592355E+01  0.28642213741E+02  0.28764605442E+02  0.51100000000E-03 0.  1.
        -11    1    3    3    0    0  0.58578049228E+01  0.36556011141E+01  0.12010696858E+02  0.13854029641E+02  0.51100000000E-03 0. -1.
        -12    1    3    3    0    0 -0.88050619695E+00 -0.44566765106E+01  0.24652669276E+01  0.51686359620E+01  0.00000000000E+00 0.  1.
</event>
<event>
 7    1  0.2387817E-009  0.4778727E+02  0.7816164E-02  0.1312668E+00
        -11   -1    0    0    0    0  0.00000000000E+00  0.00000000000E+00  0.45593999997E+02  0.45594000000E+02  0.51100000000E-03 0.  1.
         11   -1    0    0    0    0 -0.00000000000E+00 -0.00000000000E+00 -0.45593999997E+02  0.45594000000E+02  0.51100000000E-03 0. -1.
    9900012    2    1    2    0    0  0.24474930821E+02  0.12077542537E+02  0.33745138632E+02  0.47787266668E+02  0.19999980047E+02 0.  0.
         12    1    1    2    0    0 -0.24474930821E+02 -0.12077542537E+02 -0.33745138632E+02  0.43400733332E+02  0.00000000000E+00 0. -1.
         11    1    3    3    0    0 -0.20661861634E+01  0.15744067649E+01  0.21775128572E+01  0.33896082999E+01  0.51100000000E-03 0. -1.
        -11    1    3    3    0    0  0.86707700018E+01  0.33911062967E+01  0.19721503370E+02  0.21808703533E+02  0.51100000000E-03 0.  1.
         12    1    3    3    0    0  0.17870346982E+02  0.71120294756E+01  0.11846122405E+02  0.22588954836E+02  0.00000000000E+00 0. -1.
</event>
<event>
 7    1  0.2387817E-009  0.4778727E+02  0.7816164E-02  0.1312668E+00
        -11   -1    0    0    0    0  0.00000000000E+00  0.00000000000E+00  0.45593999997E+02  0.45594000000E+02  0.51100000000E-03 0.  1.
         11   -1    0    0    0    0 -0.00000000000E+00 -0.00000000000E+00 -0.45593999997E+02  0.45594000000E+02  0.51100000000E-03 0. -1.
    9900012    2    1    2    0    0 -0.18475199276E+02  0.24345116623E+02  0.30815671280E+02  0.47787270881E+02  0.19999999254E+02 0.  0.
         12    1    1    2    0    0  0.18475199276E+02 -0.24345116623E+02 -0.30815671280E+02  0.43400729119E+02  0.00000000000E+00 0. -1.
         11    1    3    3    0    0 -0.20457566965E+01  0.38055522491E+00  0.49215674790E+01  0.53433855795E+01  0.51100000000E-03 0. -1.
        -11    1    3    3    0    0 -0.10097870514E+02  0.68802693806E+01  0.19734358838E+02  0.23210989093E+02  0.51100000000E-03 0.  1.
         12    1    3    3    0    0 -0.63315720663E+01  0.17084292017E+02  0.61597449625E+01  0.19232896208E+02  0.00000000000E+00 0. -1.
</event>
<event>
 7    1  0.2387817E-009  0.4778727E+02  0.7816164E-02  0.1312668E+00
        -11   -1    0    0    0    0  0.00000000000E+00  0.00000000000E+00  0.45593999997E+02  0.45594000000E+02  0.51100000000E-03 0. -1.
         11   -1    0    0    0    0 -0.00000000000E+00 -0.00000000000E+00 -0.45593999997E+02  0.45594000000E+02  0.51100000000E-03 0.  1.
    9900012    2    1    2    0    0 -0.42658627598E+02  0.65699730212E+01 -0.45497512107E+01  0.47787270857E+02  0.19999999148E+02 0.  0.
         12    1    1    2    0    0  0.42658627598E+02 -0.65699730212E+01  0.45497512107E+01  0.43400729143E+02  0.00000000000E+00 0. -1.
         11    1    3    3    0    0 -0.14898784938E+02  0.70202604347E+01 -0.44293296598E+01  0.17055110984E+02  0.51100000000E-03 0. -1.
        -11    1    3    3    0    0 -0.25803672300E+02  0.29007975487E+01 -0.26486188124E+01  0.26100944666E+02  0.51100000000E-03 0.  1.
        -12    1    3    3    0    0 -0.19561703598E+01 -0.33510849622E+01  0.25281972615E+01  0.46312152070E+01  0.00000000000E+00 0.  1.
</event>
<event>
 7    1  0.2387817E-009  0.4778727E+02  0.7816164E-02  0.1312668E+00
        -11   -1    0    0    0    0  0.00000000000E+00  0.00000000000E+00  0.45593999997E+02  0.45594000000E+02  0.51100000000E-03 0. -1.
         11   -1    0    0    0    0 -0.00000000000E+00 -0.00000000000E+00 -0.45593999997E+02  0.45594000000E+02  0.51100000000E-03 0.  1.
    9900012    2    1    2    0    0  0.16304941055E+02 -0.18447678885E+01 -0.40179213639E+02  0.47787268669E+02  0.19999989171E+02 0.  0.
         12    1    1    2    0    0 -0.16304941055E+02  0.18447678885E+01  0.40179213639E+02  0.43400731331E+02  0.00000000000E+00 0. -1.
         11    1    3    3    0    0  0.29133242115E+01  0.12326613106E+01 -0.17186599125E+01  0.36000977798E+01  0.51100000000E-03 0. -1.
        -11    1    3    3    0    0  0.61158272137E+01  0.62001883578E+01 -0.93399949090E+01  0.12770324324E+02  0.51100000000E-03 0.  1.
        -12    1    3    3    0    0  0.72757896298E+01 -0.92776175569E+01 -0.29120558818E+02  0.31416846566E+02  0.00000000000E+00 0.  1.
</event>
<event>
 7    1  0.2387817E-009  0.4778727E+02  0.7816164E-02  0.1312668E+00
        -11   -1    0    0    0    0  0.00000000000E+00  0.00000000000E+00  0.45593999997E+02  0.45594000000E+02  0.51100000000E-03 0. -1.
         11   -1    0    0    0    0 -0.00000000000E+00 -0.00000000000E+00 -0.45593999997E+02  0.45594000000E+02  0.51100000000E-03 0.  1.
    9900012    2    1    2    0    0  0.29669540615E+02  0.26727408774E+01 -0.31562605284E+02  0.47787271476E+02  0.20000001968E+02 0.  0.
         12    1    1    2    0    0 -0.29669540615E+02 -0.26727408774E+01  0.31562605284E+02  0.43400728524E+02  0.00000000000E+00 0. -1.
         11    1    3    3    0    0  0.20238296340E+02 -0.51216210550E+00 -0.10973753333E+02  0.23027683584E+02  0.51100000000E-03 0. -1.
        -11    1    3    3    0    0  0.63267962764E+01 -0.21392148209E+01 -0.15082252661E+02  0.16494815451E+02  0.51100000000E-03 0.  1.
        -12    1    3    3    0    0  0.31044479986E+01  0.53241178038E+01 -0.55065992893E+01  0.82647724408E+01  0.00000000000E+00 0.  1.
</event>
<event>
 7    1  0.2387817E-009  0.4778727E+02  0.7816164E-02  0.1312668E+00
        -11   -1    0    0    0    0  0.00000000000E+00  0.00000000000E+00  0.45593999997E+02  0.45594000000E+02  0.51100000000E-03 0.  1.
         11   -1    0    0    0    0 -0.00000000000E+00 -0.00000000000E+00 -0.45593999997E+02  0.45594000000E+02  0.51100000000E-03 0. -1.
    9900012    2    1    2    0    0  0.34802629578E+02  0.25635191793E+02 -0.39034687146E+01  0.47787272451E+02  0.20000006413E+02 0.  0.
         12    1    1    2    0    0 -0.34802629578E+02 -0.25635191793E+02  0.39034687146E+01  0.43400727549E+02  0.00000000000E+00 0. -1.
         11    1    3    3    0    0  0.12211132707E+01 -0.43890802023E+00 -0.59366306062E+00  0.14269526834E+01  0.51100000000E-03 0. -1.
        -11    1    3    3    0    0  0.92399599905E+01  0.17098872545E+02 -0.58387778188E+01  0.20293832305E+02  0.51100000000E-03 0.  1.
         12    1    3    3    0    0  0.24341556317E+02  0.89752272678E+01  0.25289721649E+01  0.26066487463E+02  0.00000000000E+00 0. -1.
</event>
<event>
 7    1  0.2387817E-009  0.4778730E+02  0.7816164E-02  0.1312668E+00
        -11   -1    0    0    0    0  0.00000000000E+00  0.00000000000E+00  0.45593999997E+02  0.45594000000E+02  0.51100000000E-03 0. -1.
         11   -1    0    0    0    0 -0.00000000000E+00 -0.00000000000E+00 -0.45593999997E+02  0.45594000000E+02  0.51100000000E-03 0.  1.
    9900012    2    1    2    0    0  0.69679756647E+01  0.38004288141E+02 -0.19767207973E+02  0.47787295939E+02  0.20000113504E+02 0.  0.
         12    1    1    2    0    0 -0.69679756647E+01 -0.38004288141E+02  0.19767207973E+02  0.43400704061E+02  0.00000000000E+00 0. -1.
         11    1    3    3    0    0  0.18348222331E+01  0.17369819213E+01  0.34862288913E+01  0.43055163413E+01  0.51100000000E-03 0. -1.
        -11    1    3    3    0    0  0.21614053432E+00  0.20343391491E+01 -0.21473045274E+01  0.29658336937E+01  0.51100000000E-03 0.  1.
         12    1    3    3    0    0  0.49170128973E+01  0.34232967070E+02 -0.21106132337E+02  0.40515945904E+02  0.00000000000E+00 0. -1.
</event>
<event>
 7    1  0.2387817E-009  0.4778726E+02  0.7816164E-02  0.1312668E+00
        -11   -1    0    0    0    0  0.00000000000E+00  0.00000000000E+00  0.45593999997E+02  0.45594000000E+02  0.51100000000E-03 0. -1.
         11   -1    0    0    0    0 -0.00000000000E+00 -0.00000000000E+00 -0.45593999997E+02  0.45594000000E+02  0.51100000000E-03 0.  1.
    9900012    2    1    2    0    0  0.31887139627E+02  0.95779665519E+01  0.27840558725E+02  0.47787264672E+02  0.19999970948E+02 0.  0.
         12    1    1    2    0    0 -0.31887139627E+02 -0.95779665519E+01 -0.27840558725E+02  0.43400735328E+02  0.00000000000E+00 0. -1.
         11    1    3    3    0    0  0.73338534870E+01  0.28247837151E+01  0.13240098698E+02  0.15396916049E+02  0.51100000000E-03 0. -1.
        -11    1    3    3    0    0  0.20507166523E+01  0.42857254956E+01  0.70993937630E+01  0.85424981051E+01  0.51100000000E-03 0.  1.
        -12    1    3    3    0    0  0.22502569488E+02  0.24674573412E+01  0.75010662634E+01  0.23847850519E+02  0.00000000000E+00 0.  1.
</event>
<event>
 7    1  0.2387817E-009  0.4778727E+02  0.7816164E-02  0.1312668E+00
        -11   -1    0    0    0    0  0.00000000000E+00  0.00000000000E+00  0.45593999997E+02  0.45594000000E+02  0.51100000000E-03 0.  1.
         11   -1    0    0    0    0 -0.00000000000E+00 -0.00000000000E+00 -0.45593999997E+02  0.45594000000E+02  0.51100000000E-03 0. -1.
    9900012    2    1    2    0    0  0.29029267250E+02  0.10224702050E+02  0.30600334321E+02  0.47787270172E+02  0.19999996021E+02 0.  0.
         12    1    1    2    0    0 -0.29029267250E+02 -0.10224702050E+02 -0.30600334321E+02  0.43400729828E+02  0.00000000000E+00 0. -1.
         11    1    3    3    0    0 -0.13598254508E+01  0.33023313430E+00  0.35192995476E+00  0.14429255469E+01  0.51100000000E-03 0. -1.
        -11    1    3    3    0    0  0.14160858631E+02  0.10345104398E+02  0.93275430345E+01  0.19863387462E+02  0.51100000000E-03 0.  1.
        -12    1    3    3    0    0  0.16228234070E+02 -0.45063548236E+00  0.20920861332E+02  0.26480957162E+02  0.00000000000E+00 0.  1.
</event>
<event>
 7    1  0.2387817E-009  0.4778727E+02  0.7816164E-02  0.1312668E+00
        -11   -1    0    0    0    0  0.00000000000E+00  0.00000000000E+00  0.45593999997E+02  0.45594000000E+02  0.51100000000E-03 0. -1.
         11   -1    0    0    0    0 -0.00000000000E+00 -0.00000000000E+00 -0.45593999997E+02  0.45594000000E+02  0.51100000000E-03 0.  1.
    9900012    2    1    2    0    0  0.31532765391E+02 -0.12470516771E-01 -0.29821259402E+02  0.47787274649E+02  0.20000016433E+02 0.  0.
         12    1    1    2    0    0 -0.31532765391E+02  0.12470516771E-01  0.29821259402E+02  0.43400725351E+02  0.00000000000E+00 0. -1.
         11    1    3    3    0    0 -0.12373354475E+01  0.18953837667E+01  0.70682222159E+00  0.23713027109E+01  0.51100000000E-03 0. -1.
        -11    1    3    3    0    0  0.98180992730E+01 -0.29983545881E+01 -0.64011899136E+01  0.12097951733E+02  0.51100000000E-03 0.  1.
        -12    1    3    3    0    0  0.22952001565E+02  0.10905003046E+01 -0.24126891710E+02  0.33318020204E+02  0.00000000000E+00 0.  1.
</event>
<event>
 7    1  0.2387817E-009  0.4778732E+02  0.7816164E-02  0.1312668E+00
        -11   -1    0    0    0    0  0.00000000000E+00  0.00000000000E+00  0.45593999997E+02  0.45594000000E+02  0.51100000000E-03 0. -1.
         11   -1    0    0    0    0 -0.00000000000E+00 -0.00000000000E+00 -0.45593999997E+02  0.45594000000E+02  0.51100000000E-03 0.  1.
    9900012    2    1    2    0    0  0.15936787867E+02 -0.36546657481E+02  0.17145826427E+02  0.47787323227E+02  0.20000237918E+02 0.  0.
         12    1    1    2    0    0 -0.15936787867E+02  0.36546657481E+02 -0.17145826427E+02  0.43400676773E+02  0.00000000000E+00 0. -1.
         11    1    3    3    0    0  0.51811796698E+01 -0.57766973805E+01  0.98444430970E+01  0.12535067433E+02  0.51100000000E-03 0. -1.
        -11    1    3    3    0    0 -0.13511070001E+00 -0.45607333775E+01  0.50125741086E+01  0.67782330513E+01  0.51100000000E-03 0.  1.
        -12    1    3    3    0    0  0.10890718897E+02 -0.26209226723E+02  0.22888092217E+01  0.28474022742E+02  0.00000000000E+00 0.  1.
</event>
<event>
 7    1  0.2387817E-009  0.4778721E+02  0.7816164E-02  0.1312668E+00
        -11   -1    0    0    0    0  0.00000000000E+00  0.00000000000E+00  0.45593999997E+02  0.45594000000E+02  0.51100000000E-03 0.  1.
         11   -1    0    0    0    0 -0.00000000000E+00 -0.00000000000E+00 -0.45593999997E+02  0.45594000000E+02  0.51100000000E-03 0. -1.
    9900012    2    1    2    0    0 -0.31536731033E+02 -0.29169433679E+02 -0.61812288332E+01  0.47787206744E+02  0.19999706825E+02 0.  0.
         12    1    1    2    0    0  0.31536731033E+02  0.29169433679E+02  0.61812288332E+01  0.43400793256E+02  0.00000000000E+00 0. -1.
         11    1    3    3    0    0 -0.70016782415E+01 -0.59461381339E+01 -0.70772481157E+00  0.92130848023E+01  0.51100000000E-03 0.  1.
        -11    1    3    3    0    0  0.10459101695E+00 -0.10398259963E+02 -0.11520729091E+01  0.10462409942E+02  0.51100000000E-03 0. -1.
         12    1    3    3    0    0 -0.24639643809E+02 -0.12825035582E+02 -0.43214311125E+01  0.28111712000E+02  0.00000000000E+00 0. -1.
</event>
<event>
 7    1  0.2387817E-009  0.4778727E+02  0.7816164E-02  0.1312668E+00
        -11   -1    0    0    0    0  0.00000000000E+00  0.00000000000E+00  0.45593999997E+02  0.45594000000E+02  0.51100000000E-03 0.  1.
         11   -1    0    0    0    0 -0.00000000000E+00 -0.00000000000E+00 -0.45593999997E+02  0.45594000000E+02  0.51100000000E-03 0. -1.
    9900012    2    1    2    0    0 -0.27575720280E+00  0.32723727530E+01  0.43276307520E+02  0.47787271227E+02  0.20000000832E+02 0.  0.
         12    1    1    2    0    0  0.27575720280E+00 -0.32723727530E+01 -0.43276307520E+02  0.43400728773E+02  0.00000000000E+00 0. -1.
         11    1    3    3    0    0 -0.11415163898E+01 -0.22308795344E+01  0.53573019071E+01  0.59144371795E+01  0.51100000000E-03 0.  1.
        -11    1    3    3    0    0 -0.45099886287E+01  0.53280717544E+01  0.35124809320E+02  0.35811737965E+02  0.51100000000E-03 0. -1.
         12    1    3    3    0    0  0.53757478157E+01  0.17518053298E+00  0.27941962927E+01  0.60610960823E+01  0.00000000000E+00 0. -1.
</event>
<event>
 7    1  0.2387817E-009  0.4778727E+02  0.7816164E-02  0.1312668E+00
        -11   -1    0    0    0    0  0.00000000000E+00  0.00000000000E+00  0.45593999997E+02  0.45594000000E+02  0.51100000000E-03 0.  1.
         11   -1    0    0    0    0 -0.00000000000E+00 -0.00000000000E+00 -0.45593999997E+02  0.45594000000E+02  0.51100000000E-03 0. -1.
    9900012    2    1    2    0    0 -0.79385386872E+01 -0.31365608521E+02  0.28927522986E+02  0.47787269817E+02  0.19999994403E+02 0.  0.
         12    1    1    2    0    0  0.79385386872E+01  0.31365608521E+02 -0.28927522986E+02  0.43400730183E+02  0.00000000000E+00 0. -1.
         11    1    3    3    0    0 -0.30277457634E+01 -0.38652787727E+01  0.61186401259E+01  0.78450864654E+01  0.51100000000E-03 0. -1.
        -11    1    3    3    0    0  0.12289103045E+01 -0.23337052345E+02  0.22616883623E+02  0.32521556816E+02  0.51100000000E-03 0.  1.
         12    1    3    3    0    0 -0.61397032283E+01 -0.41632774034E+01  0.19199923657E+00  0.74206265353E+01  0.00000000000E+00 0. -1.
</event>
<event>
 7    1  0.2387817E-009  0.4778728E+02  0.7816164E-02  0.1312668E+00
        -11   -1    0    0    0    0  0.00000000000E+00  0.00000000000E+00  0.45593999997E+02  0.45594000000E+02  0.51100000000E-03 0.  1.
         11   -1    0    0    0    0 -0.00000000000E+00 -0.00000000000E+00 -0.45593999997E+02  0.45594000000E+02  0.51100000000E-03 0. -1.
    9900012    2    1    2    0    0 -0.14796437508E+02  0.30047031081E+02  0.27601888325E+02  0.47787275596E+02  0.20000020750E+02 0.  0.
         12    1    1    2    0    0  0.14796437508E+02 -0.30047031081E+02 -0.27601888325E+02  0.43400724404E+02  0.00000000000E+00 0. -1.
         11    1    3    3    0    0 -0.28753692815E+01  0.11859866837E+02  0.44649238689E+01  0.12994604085E+02  0.51100000000E-03 0. -1.
        -11    1    3    3    0    0 -0.11849479714E+02  0.20438348525E+02  0.21943647015E+02  0.32243757606E+02  0.51100000000E-03 0.  1.
         12    1    3    3    0    0 -0.71588512357E-01 -0.22511842810E+01  0.11933174405E+01  0.25489139052E+01  0.00000000000E+00 0. -1.
</event>
<event>
 7    1  0.2387817E-009  0.4778728E+02  0.7816164E-02  0.1312668E+00
        -11   -1    0    0    0    0  0.00000000000E+00  0.00000000000E+00  0.45593999997E+02  0.45594000000E+02  0.51100000000E-03 0.  1.
         11   -1    0    0    0    0 -0.00000000000E+00 -0.00000000000E+00 -0.45593999997E+02  0.45594000000E+02  0.51100000000E-03 0. -1.
    9900012    2    1    2    0    0  0.96061298505E+01 -0.20053940549E+02  0.37271766660E+02  0.47787275903E+02  0.20000022150E+02 0.  0.
         12    1    1    2    0    0 -0.96061298505E+01  0.20053940549E+02 -0.37271766660E+02  0.43400724097E+02  0.00000000000E+00 0. -1.
         11    1    3    3    0    0 -0.45835372351E+00  0.13642727309E+01  0.51092683868E+01  0.53081024792E+01  0.51100000000E-03 0. -1.
        -11    1    3    3    0    0  0.12599349375E+02 -0.16657717238E+02  0.18923351294E+02  0.28183618872E+02  0.51100000000E-03 0.  1.
         12    1    3    3    0    0 -0.25348658014E+01 -0.47604960410E+01  0.13239146979E+02  0.14295554551E+02  0.00000000000E+00 0. -1.
</event>
<event>
 7    1  0.2387817E-009  0.4778729E+02  0.7816164E-02  0.1312668E+00
        -11   -1    0    0    0    0  0.00000000000E+00  0.00000000000E+00  0.45593999997E+02  0.45594000000E+02  0.51100000000E-03 0. -1.
         11   -1    0    0    0    0 -0.00000000000E+00 -0.00000000000E+00 -0.45593999997E+02  0.45594000000E+02  0.51100000000E-03 0.  1.
    9900012    2    1    2    0    0 -0.18948440372E+02 -0.29278430688E+02  0.25833158789E+02  0.47787285845E+02  0.20000067483E+02 0.  0.
         12    1    1    2    0    0  0.18948440372E+02  0.29278430688E+02 -0.25833158789E+02  0.43400714155E+02  0.00000000000E+00 0. -1.
         11    1    3    3    0    0 -0.28772420382E+01 -0.67459740647E+01  0.62096721860E+00  0.73601826320E+01  0.51100000000E-03 0.  1.
        -11    1    3    3    0    0  0.10519186733E+01 -0.10666629813E+02  0.96670410097E+01  0.14433821622E+02  0.51100000000E-03 0. -1.
         12    1    3    3    0    0 -0.17123117007E+02 -0.11865826811E+02  0.15545150561E+02  0.25993281592E+02  0.00000000000E+00 0. -1.
</event>
<event>
 7    1  0.2552849E-009  0.4778727E+02  0.7816164E-02  0.1312668E+00
        -11   -1    0    0    0    0  0.00000000000E+00  0.00000000000E+00  0.45593999997E+02  0.45594000000E+02  0.51100000000E-03 0. -1.
         11   -1    0    0    0    0 -0.00000000000E+00 -0.00000000000E+00 -0.45593999997E+02  0.45594000000E+02  0.51100000000E-03 0.  1.
    9900012    2    1    2    0    0  0.31104518312E+02 -0.13543832883E+02 -0.27068372911E+02  0.47787270966E+02  0.19999999644E+02 0.  0.
         12    1    1    2    0    0 -0.31104518312E+02  0.13543832883E+02  0.27068372911E+02  0.43400729034E+02  0.00000000000E+00 0. -1.
         11    1    3    3    0    0  0.17945056025E+02 -0.46592754707E+01 -0.14141837450E+02  0.23317921228E+02  0.51100000000E-03 0. -1.
        -11    1    3    3    0    0  0.15524906070E+02 -0.87991033837E+01 -0.13036654228E+02  0.22099802772E+02  0.51100000000E-03 0.  1.
         12    1    3    3    0    0 -0.23654437832E+01 -0.85454028603E-01  0.11011876715E+00  0.23695469663E+01  0.00000000000E+00 0. -1.
</event>
<event>
 7    1  0.2387817E-009  0.4778728E+02  0.7816164E-02  0.1312668E+00
        -11   -1    0    0    0    0  0.00000000000E+00  0.00000000000E+00  0.45593999997E+02  0.45594000000E+02  0.51100000000E-03 0.  1.
         11   -1    0    0    0    0 -0.00000000000E+00 -0.00000000000E+00 -0.45593999997E+02  0.45594000000E+02  0.51100000000E-03 0. -1.
    9900012    2    1    2    0    0  0.45902735615E+01  0.39472508800E+02  0.17449162206E+02  0.47787276227E+02  0.20000023627E+02 0.  0.
         12    1    1    2    0    0 -0.45902735615E+01 -0.39472508800E+02 -0.17449162206E+02  0.43400723773E+02  0.00000000000E+00 0. -1.
         11    1    3    3    0    0  0.34592224699E+01  0.44049435278E+01  0.36948150479E+00  0.56130441316E+01  0.51100000000E-03 0. -1.
        -11    1    3    3    0    0 -0.26291690620E+01  0.11175085597E+02  0.13504687904E+02  0.17724888256E+02  0.51100000000E-03 0.  1.
         12    1    3    3    0    0  0.37602201536E+01  0.23892479675E+02  0.35749927977E+01  0.24449343839E+02  0.00000000000E+00 0. -1.
</event>
<event>
 7    1  0.2387817E-009  0.4778728E+02  0.7816164E-02  0.1312668E+00
        -11   -1    0    0    0    0  0.00000000000E+00  0.00000000000E+00  0.45593999997E+02  0.45594000000E+02  0.51100000000E-03 0.  1.
         11   -1    0    0    0    0 -0.00000000000E+00 -0.00000000000E+00 -0.45593999997E+02  0.45594000000E+02  0.51100000000E-03 0. -1.
    9900012    2    1    2    0    0 -0.25302591135E+02  0.35255209629E+02  0.68701370971E+00  0.47787275214E+02  0.20000019012E+02 0.  0.
         12    1    1    2    0    0  0.25302591135E+02 -0.35255209629E+02 -0.68701370971E+00  0.43400724786E+02  0.00000000000E+00 0. -1.
         11    1    3    3    0    0 -0.10510664346E+01  0.51300674513E+00 -0.26581843257E+01  0.29041110070E+01  0.51100000000E-03 0. -1.
        -11    1    3    3    0    0 -0.88781971814E+01  0.75796916615E+01 -0.48073250087E+01  0.12624756824E+02  0.51100000000E-03 0.  1.
         12    1    3    3    0    0 -0.15373327519E+02  0.27162511222E+02  0.81525230441E+01  0.32258407383E+02  0.00000000000E+00 0. -1.
</event>
<event>
 7    1  0.2387817E-009  0.4778727E+02  0.7816164E-02  0.1312668E+00
        -11   -1    0    0    0    0  0.00000000000E+00  0.00000000000E+00  0.45593999997E+02  0.45594000000E+02  0.51100000000E-03 0. -1.
         11   -1    0    0    0    0 -0.00000000000E+00 -0.00000000000E+00 -0.45593999997E+02  0.45594000000E+02  0.51100000000E-03 0.  1.
    9900012    2    1    2    0    0  0.52739119866E+01  0.43042393207E+02 -0.17781193475E+01  0.47787268796E+02  0.19999989747E+02 0.  0.
         12    1    1    2    0    0 -0.52739119866E+01 -0.43042393207E+02  0.17781193475E+01  0.43400731204E+02  0.00000000000E+00 0. -1.
         11    1    3    3    0    0  0.37776129179E+01  0.84337309004E+01 -0.51419995185E+01  0.10575364560E+02  0.51100000000E-03 0. -1.
        -11    1    3    3    0    0  0.16700698197E+01  0.32403146654E+01 -0.35520078312E+01  0.50897477568E+01  0.51100000000E-03 0.  1.
         12    1    3    3    0    0 -0.17377075094E+00  0.31368347641E+02  0.69158880023E+01  0.32122156479E+02  0.00000000000E+00 0. -1.
</event>
<event>
 7    1  0.2387817E-009  0.4778727E+02  0.7816164E-02  0.1312668E+00
        -11   -1    0    0    0    0  0.00000000000E+00  0.00000000000E+00  0.45593999997E+02  0.45594000000E+02  0.51100000000E-03 0. -1.
         11   -1    0    0    0    0 -0.00000000000E+00 -0.00000000000E+00 -0.45593999997E+02  0.45594000000E+02  0.51100000000E-03 0.  1.
    9900012    2    1    2    0    0 -0.29067960610E+02 -0.48397745982E+01  0.31863044347E+02  0.47787270199E+02  0.19999996144E+02 0.  0.
         12    1    1    2    0    0  0.29067960610E+02  0.48397745982E+01 -0.31863044347E+02  0.43400729801E+02  0.00000000000E+00 0. -1.
         11    1    3    3    0    0 -0.24287686946E+01  0.50003791518E+00  0.55940309913E+01  0.61189981436E+01  0.51100000000E-03 0. -1.
        -11    1    3    3    0    0 -0.10607072745E+02  0.51806755989E+01  0.44378206614E+01  0.12611250706E+02  0.51100000000E-03 0.  1.
        -12    1    3    3    0    0 -0.16032119170E+02 -0.10520488112E+02  0.21831192695E+02  0.29057021349E+02  0.00000000000E+00 0.  1.
</event>
<event>
 7    1  0.2387817E-009  0.4778728E+02  0.7816164E-02  0.1312668E+00
        -11   -1    0    0    0    0  0.00000000000E+00  0.00000000000E+00  0.45593999997E+02  0.45594000000E+02  0.51100000000E-03 0.  1.
         11   -1    0    0    0    0 -0.00000000000E+00 -0.00000000000E+00 -0.45593999997E+02  0.45594000000E+02  0.51100000000E-03 0. -1.
    9900012    2    1    2    0    0  0.19269570697E+02  0.13042249271E+01  0.38866508039E+02  0.47787276451E+02  0.20000024649E+02 0.  0.
         12    1    1    2    0    0 -0.19269570697E+02 -0.13042249271E+01 -0.38866508039E+02  0.43400723549E+02  0.00000000000E+00 0. -1.
         11    1    3    3    0    0  0.10647600250E+02  0.21163549569E+01  0.29452708386E+02  0.31389685900E+02  0.51100000000E-03 0. -1.
        -11    1    3    3    0    0  0.80971412375E+01 -0.26919382444E+01  0.10972501239E+02  0.13899856526E+02  0.51100000000E-03 0.  1.
         12    1    3    3    0    0  0.52482920906E+00  0.18798082146E+01 -0.15587015864E+01  0.24977340246E+01  0.00000000000E+00 0. -1.
</event>
<event>
 7    1  0.2387817E-009  0.4778727E+02  0.7816164E-02  0.1312668E+00
        -11   -1    0    0    0    0  0.00000000000E+00  0.00000000000E+00  0.45593999997E+02  0.45594000000E+02  0.51100000000E-03 0. -1.
         11   -1    0    0    0    0 -0.00000000000E+00 -0.00000000000E+00 -0.45593999997E+02  0.45594000000E+02  0.51100000000E-03 0.  1.
    9900012    2    1    2    0    0  0.30955330466E+01  0.20616254509E+02 -0.38065876729E+02  0.47787271366E+02  0.20000001467E+02 0.  0.
         12    1    1    2    0    0 -0.30955330466E+01 -0.20616254509E+02  0.38065876729E+02  0.43400728634E+02  0.00000000000E+00 0. -1.
         11    1    3    3    0    0 -0.31599796907E+01  0.14944193297E+02 -0.13664686511E+02  0.20494829656E+02  0.51100000000E-03 0. -1.
        -11    1    3    3    0    0 -0.15822191287E+01 -0.80019005933E+00 -0.61630909077E+01  0.64130656709E+01  0.51100000000E-03 0.  1.
        -12    1    3    3    0    0  0.78377318661E+01  0.64722512715E+01 -0.18238099310E+02  0.20879376039E+02  0.00000000000E+00 0.  1.
</event>
<event>
 7    1  0.2387817E-009  0.4778728E+02  0.7816164E-02  0.1312668E+00
        -11   -1    0    0    0    0  0.00000000000E+00  0.00000000000E+00  0.45593999997E+02  0.45594000000E+02  0.51100000000E-03 0.  1.
         11   -1    0    0    0    0 -0.00000000000E+00 -0.00000000000E+00 -0.45593999997E+02  0.45594000000E+02  0.51100000000E-03 0. -1.
    9900012    2    1    2    0    0 -0.16863912110E+02 -0.62441816359E+01  0.39499892073E+02  0.47787276391E+02  0.20000024379E+02 0.  0.
         12    1    1    2    0    0  0.16863912110E+02  0.62441816359E+01 -0.39499892073E+02  0.43400723609E+02  0.00000000000E+00 0. -1.
         11    1    3    3    0    0  0.16668340550E+01  0.28133492306E+01  0.73990467290E+01  0.80894475966E+01  0.51100000000E-03 0. -1.
        -11    1    3    3    0    0 -0.90907682485E+01  0.12098102063E+01  0.10042614441E+02  0.13599993131E+02  0.51100000000E-03 0.  1.
        -12    1    3    3    0    0 -0.94399779167E+01 -0.10267341073E+02  0.22058230903E+02  0.26097835664E+02  0.00000000000E+00 0.  1.
</event>
<event>
 7    1  0.2387817E-009  0.4778726E+02  0.7816164E-02  0.1312668E+00
        -11   -1    0    0    0    0  0.00000000000E+00  0.00000000000E+00  0.45593999997E+02  0.45594000000E+02  0.51100000000E-03 0.  1.
         11   -1    0    0    0    0 -0.00000000000E+00 -0.00000000000E+00 -0.45593999997E+02  0.45594000000E+02  0.51100000000E-03 0. -1.
    9900012    2    1    2    0    0  0.60738561804E+01  0.27661239295E+02  0.32887504060E+02  0.47787264850E+02  0.19999971759E+02 0.  0.
         12    1    1    2    0    0 -0.60738561804E+01 -0.27661239295E+02 -0.32887504060E+02  0.43400735150E+02  0.00000000000E+00 0. -1.
         11    1    3    3    0    0  0.54566791382E+01  0.15242470367E+02  0.13203314885E+02  0.20891045314E+02  0.51100000000E-03 0. -1.
        -11    1    3    3    0    0 -0.47056453853E+00  0.11986807640E+02  0.21567319620E+02  0.24679024783E+02  0.51100000000E-03 0.  1.
         12    1    3    3    0    0  0.10877415807E+01  0.43196128798E+00 -0.18831304452E+01  0.22171947533E+01  0.00000000000E+00 0. -1.
</event>
<event>
 7    1  0.2387817E-009  0.4778729E+02  0.7816164E-02  0.1312668E+00
        -11   -1    0    0    0    0  0.00000000000E+00  0.00000000000E+00  0.45593999997E+02  0.45594000000E+02  0.51100000000E-03 0.  1.
         11   -1    0    0    0    0 -0.00000000000E+00 -0.00000000000E+00 -0.45593999997E+02  0.45594000000E+02  0.51100000000E-03 0. -1.
    9900012    2    1    2    0    0 -0.15142525942E+02 -0.32151708898E+02  0.24911709556E+02  0.47787288601E+02  0.20000080048E+02 0.  0.
         12    1    1    2    0    0  0.15142525942E+02  0.32151708898E+02 -0.24911709556E+02  0.43400711399E+02  0.00000000000E+00 0. -1.
         11    1    3    3    0    0 -0.82559541667E+01 -0.98087236747E+01  0.12285162892E+02  0.17756606288E+02  0.51100000000E-03 0. -1.
        -11    1    3    3    0    0 -0.92262291599E+01 -0.68496808720E+01  0.41611737425E+01  0.12221161963E+02  0.51100000000E-03 0.  1.
        -12    1    3    3    0    0  0.23396573849E+01 -0.15493304351E+02  0.84653729213E+01  0.17809520350E+02  0.00000000000E+00 0.  1.
</event>
<event>
 7    1  0.2387817E-009  0.4778726E+02  0.7816164E-02  0.1312668E+00
        -11   -1    0    0    0    0  0.00000000000E+00  0.00000000000E+00  0.45593999997E+02  0.45594000000E+02  0.51100000000E-03 0. -1.
         11   -1    0    0    0    0 -0.00000000000E+00 -0.00000000000E+00 -0.45593999997E+02  0.45594000000E+02  0.51100000000E-03 0.  1.
    9900012    2    1    2    0    0  0.39208666791E+02 -0.13705073399E+02 -0.12588693988E+02  0.47787264929E+02  0.19999972118E+02 0.  0.
         12    1    1    2    0    0 -0.39208666791E+02  0.13705073399E+02  0.12588693988E+02  0.43400735071E+02  0.00000000000E+00 0. -1.
         11    1    3    3    0    0  0.10375480598E+02 -0.22733765952E+01  0.14089534400E+00  0.10622555744E+02  0.51100000000E-03 0. -1.
        -11    1    3    3    0    0  0.26526671512E+02 -0.41407631562E+01 -0.74177530151E+01  0.27853783964E+02  0.51100000000E-03 0.  1.
         12    1    3    3    0    0  0.23065146806E+01 -0.72909336472E+01 -0.53118363165E+01  0.93109252211E+01  0.00000000000E+00 0. -1.
</event>
<event>
 7    1  0.2387817E-009  0.4778727E+02  0.7816164E-02  0.1312668E+00
        -11   -1    0    0    0    0  0.00000000000E+00  0.00000000000E+00  0.45593999997E+02  0.45594000000E+02  0.51100000000E-03 0.  1.
         11   -1    0    0    0    0 -0.00000000000E+00 -0.00000000000E+00 -0.45593999997E+02  0.45594000000E+02  0.51100000000E-03 0. -1.
    9900012    2    1    2    0    0 -0.31759732099E+02 -0.16006333951E+02  0.24874481104E+02  0.47787272820E+02  0.20000008096E+02 0.  0.
         12    1    1    2    0    0  0.31759732099E+02  0.16006333951E+02 -0.24874481104E+02  0.43400727180E+02  0.00000000000E+00 0. -1.
         11    1    3    3    0    0 -0.12749134172E+02 -0.28619324310E+01  0.15399106410E+02  0.20195632148E+02  0.51100000000E-03 0. -1.
        -11    1    3    3    0    0 -0.91986472517E+01 -0.81098240200E+01  0.10981079606E+02  0.16461119842E+02  0.51100000000E-03 0.  1.
         12    1    3    3    0    0 -0.98119506755E+01 -0.50345774995E+01 -0.15057049119E+01  0.11130520830E+02  0.00000000000E+00 0. -1.
</event>
<event>
 7    1  0.2387817E-009  0.4778727E+02  0.7816164E-02  0.1312668E+00
        -11   -1    0    0    0    0  0.00000000000E+00  0.00000000000E+00  0.45593999997E+02  0.45594000000E+02  0.51100000000E-03 0.  1.
         11   -1    0    0    0    0 -0.00000000000E+00 -0.00000000000E+00 -0.45593999997E+02  0.45594000000E+02  0.51100000000E-03 0. -1.
    9900012    2    1    2    0    0  0.11476483120E+02  0.20047001571E+02  0.36742774549E+02  0.47787269379E+02  0.19999992409E+02 0.  0.
         12    1    1    2    0    0 -0.11476483120E+02 -0.20047001571E+02 -0.36742774549E+02  0.43400730621E+02  0.00000000000E+00 0. -1.
         11    1    3    3    0    0  0.41616741907E+01  0.86032295734E+01  0.12276893251E+02  0.15558187534E+02  0.51100000000E-03 0. -1.
        -11    1    3    3    0    0 -0.13209243397E+01  0.10731591178E+02  0.74398052014E+01  0.13124884457E+02  0.51100000000E-03 0.  1.
         12    1    3    3    0    0  0.86357332688E+01  0.71218081993E+00  0.17026076097E+02  0.19104197388E+02  0.00000000000E+00 0. -1.
</event>
<event>
 7    1  0.2387817E-009  0.4778728E+02  0.7816164E-02  0.1312668E+00
        -11   -1    0    0    0    0  0.00000000000E+00  0.00000000000E+00  0.45593999997E+02  0.45594000000E+02  0.51100000000E-03 0. -1.
         11   -1    0    0    0    0 -0.00000000000E+00 -0.00000000000E+00 -0.45593999997E+02  0.45594000000E+02  0.51100000000E-03 0.  1.
    9900012    2    1    2    0    0 -0.40693535037E+02  0.59704992868E+01  0.13856841743E+02  0.47787277442E+02  0.20000029167E+02 0.  0.
         12    1    1    2    0    0  0.40693535037E+02 -0.59704992868E+01 -0.13856841743E+02  0.43400722558E+02  0.00000000000E+00 0. -1.
         11    1    3    3    0    0 -0.13385013586E+02  0.16618473591E+01  0.40609335678E+01  0.14085861957E+02  0.51100000000E-03 0. -1.
        -11    1    3    3    0    0 -0.27863216510E+02  0.59692385366E+00  0.63007050463E+01  0.28572959887E+02  0.51100000000E-03 0.  1.
         12    1    3    3    0    0  0.55469506010E+00  0.37117280740E+01  0.34952031287E+01  0.51284555975E+01  0.00000000000E+00 0. -1.
</event>
<event>
 7    1  0.2387817E-009  0.4778728E+02  0.7816164E-02  0.1312668E+00
        -11   -1    0    0    0    0  0.00000000000E+00  0.00000000000E+00  0.45593999997E+02  0.45594000000E+02  0.51100000000E-03 0.  1.
         11   -1    0    0    0    0 -0.00000000000E+00 -0.00000000000E+00 -0.45593999997E+02  0.45594000000E+02  0.51100000000E-03 0. -1.
    9900012    2    1    2    0    0 -0.22526345008E+02 -0.15702747398E+02  0.33609673662E+02  0.47787278129E+02  0.20000032300E+02 0.  0.
         12    1    1    2    0    0  0.22526345008E+02  0.15702747398E+02 -0.33609673662E+02  0.43400721871E+02  0.00000000000E+00 0. -1.
         11    1    3    3    0    0 -0.33560665036E+01 -0.11522708802E+01 -0.18577186206E+01  0.40052502160E+01  0.51100000000E-03 0. -1.
        -11    1    3    3    0    0  0.24145338224E+00 -0.31412287604E+01  0.41448127622E+01  0.52062549838E+01  0.51100000000E-03 0.  1.
        -12    1    3    3    0    0 -0.19411731886E+02 -0.11409247758E+02  0.31322579521E+02  0.38575772929E+02  0.00000000000E+00 0.  1.
</event>
<event>
 7    1  0.2387817E-009  0.4778726E+02  0.7816164E-02  0.1312668E+00
        -11   -1    0    0    0    0  0.00000000000E+00  0.00000000000E+00  0.45593999997E+02  0.45594000000E+02  0.51100000000E-03 0.  1.
         11   -1    0    0    0    0 -0.00000000000E+00 -0.00000000000E+00 -0.45593999997E+02  0.45594000000E+02  0.51100000000E-03 0. -1.
    9900012    2    1    2    0    0  0.34355790087E+02  0.25396962243E+02  0.76353074552E+01  0.47787263559E+02  0.19999965870E+02 0.  0.
         12    1    1    2    0    0 -0.34355790087E+02 -0.25396962243E+02 -0.76353074552E+01  0.43400736441E+02  0.00000000000E+00 0. -1.
         11    1    3    3    0    0 -0.16193125042E+01 -0.18713943644E+00  0.35974374338E+00  0.16693142236E+01  0.51100000000E-03 0. -1.
        -11    1    3    3    0    0  0.42295498599E+01  0.24500606715E+01  0.46552722380E+01  0.67500703094E+01  0.51100000000E-03 0.  1.
        -12    1    3    3    0    0  0.31745552731E+02  0.23134041008E+02  0.26202914738E+01  0.39367879026E+02  0.00000000000E+00 0.  1.
</event>
<event>
 7    1  0.2387817E-009  0.4778727E+02  0.7816164E-02  0.1312668E+00
        -11   -1    0    0    0    0  0.00000000000E+00  0.00000000000E+00  0.45593999997E+02  0.45594000000E+02  0.51100000000E-03 0. -1.
         11   -1    0    0    0    0 -0.00000000000E+00 -0.00000000000E+00 -0.45593999997E+02  0.45594000000E+02  0.51100000000E-03 0.  1.
    9900012    2    1    2    0    0 -0.75552077264E+01  0.42122151952E+02 -0.72295620233E+01  0.47787269408E+02  0.19999992540E+02 0.  0.
         12    1    1    2    0    0  0.75552077264E+01 -0.42122151952E+02  0.72295620233E+01  0.43400730592E+02  0.00000000000E+00 0. -1.
         11    1    3    3    0    0 -0.24319237877E+01  0.21797597965E+02  0.19432056782E+01  0.22018755163E+02  0.51100000000E-03 0. -1.
        -11    1    3    3    0    0  0.12175470626E+01  0.16764158797E+02 -0.63461357135E+01  0.17966437593E+02  0.51100000000E-03 0.  1.
         12    1    3    3    0    0 -0.63408310013E+01  0.35603951896E+01 -0.28266319879E+01  0.78020766523E+01  0.00000000000E+00 0. -1.
</event>
<event>
 7    1  0.2387817E-009  0.4778727E+02  0.7816164E-02  0.1312668E+00
        -11   -1    0    0    0    0  0.00000000000E+00  0.00000000000E+00  0.45593999997E+02  0.45594000000E+02  0.51100000000E-03 0.  1.
         11   -1    0    0    0    0 -0.00000000000E+00 -0.00000000000E+00 -0.45593999997E+02  0.45594000000E+02  0.51100000000E-03 0. -1.
    9900012    2    1    2    0    0  0.30223967217E+02 -0.24148289090E+02  0.19672195049E+02  0.47787270532E+02  0.19999997663E+02 0.  0.
         12    1    1    2    0    0 -0.30223967217E+02  0.24148289090E+02 -0.19672195049E+02  0.43400729468E+02  0.00000000000E+00 0. -1.
         11    1    3    3    0    0  0.71584488305E+00  0.12587456293E+01  0.37150652823E+00  0.14949554567E+01  0.51100000000E-03 0. -1.
        -11    1    3    3    0    0  0.24105281702E+02 -0.15653143684E+02  0.20162794022E+02  0.35108742161E+02  0.51100000000E-03 0.  1.
        -12    1    3    3    0    0  0.54028406324E+01 -0.97538910355E+01 -0.86210550093E+00  0.11183572914E+02  0.00000000000E+00 0.  1.
</event>
<event>
 7    1  0.2387817E-009  0.4778727E+02  0.7816164E-02  0.1312668E+00
        -11   -1    0    0    0    0  0.00000000000E+00  0.00000000000E+00  0.45593999997E+02  0.45594000000E+02  0.51100000000E-03 0. -1.
         11   -1    0    0    0    0 -0.00000000000E+00 -0.00000000000E+00 -0.45593999997E+02  0.45594000000E+02  0.51100000000E-03 0.  1.
    9900012    2    1    2    0    0  0.49691698622E+01 -0.36488062107E+02 -0.22968491863E+02  0.47787274846E+02  0.20000017334E+02 0.  0.
         12    1    1    2    0    0 -0.49691698622E+01  0.36488062107E+02  0.22968491863E+02  0.43400725154E+02  0.00000000000E+00 0. -1.
         11    1    3    3    0    0  0.24652502109E+01 -0.11196217680E+01 -0.17543861481E+01  0.32262799822E+01  0.51100000000E-03 0. -1.
        -11    1    3    3    0    0  0.77358832985E+01 -0.26426246834E+02 -0.20202111146E+02  0.34151364646E+02  0.51100000000E-03 0.  1.
         12    1    3    3    0    0 -0.52319636472E+01 -0.89421935040E+01 -0.10119945686E+01  0.10409630218E+02  0.00000000000E+00 0. -1.
</event>
<event>
 7    1  0.2387817E-009  0.4778727E+02  0.7816164E-02  0.1312668E+00
        -11   -1    0    0    0    0  0.00000000000E+00  0.00000000000E+00  0.45593999997E+02  0.45594000000E+02  0.51100000000E-03 0.  1.
         11   -1    0    0    0    0 -0.00000000000E+00 -0.00000000000E+00 -0.45593999997E+02  0.45594000000E+02  0.51100000000E-03 0. -1.
    9900012    2    1    2    0    0 -0.12772391168E+02  0.30553296852E+02  0.28053258327E+02  0.47787271580E+02  0.20000002441E+02 0.  0.
         12    1    1    2    0    0  0.12772391168E+02 -0.30553296852E+02 -0.28053258327E+02  0.43400728420E+02  0.00000000000E+00 0. -1.
         11    1    3    3    0    0 -0.81340125079E+01  0.95778037148E+01  0.66436438393E+01  0.14213883607E+02  0.51100000000E-03 0. -1.
        -11    1    3    3    0    0 -0.29770520445E+01  0.18126672095E+02  0.84846633169E+01  0.20234341897E+02  0.51100000000E-03 0.  1.
         12    1    3    3    0    0 -0.16613266157E+01  0.28488210415E+01  0.12924951171E+02  0.13339046076E+02  0.00000000000E+00 0. -1.
</event>
<event>
 7    1  0.2387817E-009  0.4778728E+02  0.7816164E-02  0.1312668E+00
        -11   -1    0    0    0    0  0.00000000000E+00  0.00000000000E+00  0.45593999997E+02  0.45594000000E+02  0.51100000000E-03 0. -1.
         11   -1    0    0    0    0 -0.00000000000E+00 -0.00000000000E+00 -0.45593999997E+02  0.45594000000E+02  0.51100000000E-03 0.  1.
    9900012    2    1    2    0    0 -0.13572498403E+02  0.41170096972E+02  0.21053828453E+01  0.47787283018E+02  0.20000054594E+02 0.  0.
         12    1    1    2    0    0  0.13572498403E+02 -0.41170096972E+02 -0.21053828453E+01  0.43400716982E+02  0.00000000000E+00 0. -1.
         11    1    3    3    0    0 -0.14428279043E+01  0.61884612220E+00 -0.95859399598E+00  0.18394633985E+01  0.51100000000E-03 0. -1.
        -11    1    3    3    0    0 -0.41132771340E+01  0.34438460994E+02 -0.18506012221E+01  0.34732569291E+02  0.51100000000E-03 0.  1.
        -12    1    3    3    0    0 -0.80163933645E+01  0.61127898564E+01  0.49145780634E+01  0.11215250329E+02  0.00000000000E+00 0.  1.
</event>
<event>
 7    1  0.2387817E-009  0.4778728E+02  0.7816164E-02  0.1312668E+00
        -11   -1    0    0    0    0  0.00000000000E+00  0.00000000000E+00  0.45593999997E+02  0.45594000000E+02  0.51100000000E-03 0.  1.
         11   -1    0    0    0    0 -0.00000000000E+00 -0.00000000000E+00 -0.45593999997E+02  0.45594000000E+02  0.51100000000E-03 0. -1.
    9900012    2    1    2    0    0 -0.27731818653E+01 -0.10453614769E+02  0.42031585932E+02  0.47787276326E+02  0.20000024083E+02 0.  0.
         12    1    1    2    0    0  0.27731818653E+01  0.10453614769E+02 -0.42031585932E+02  0.43400723674E+02  0.00000000000E+00 0. -1.
         11    1    3    3    0    0  0.31411733282E+01 -0.74466721801E+01  0.49218258619E+01  0.94627832328E+01  0.51100000000E-03 0. -1.
        -11    1    3    3    0    0  0.80095839646E+00 -0.27101893474E+01  0.12275587752E+02  0.12596694629E+02  0.51100000000E-03 0.  1.
        -12    1    3    3    0    0 -0.67153135900E+01 -0.29675324123E+00  0.24834172319E+02  0.25727798465E+02  0.00000000000E+00 0.  1.
</event>
<event>
 7    1  0.2387817E-009  0.4778727E+02  0.7816164E-02  0.1312668E+00
        -11   -1    0    0    0    0  0.00000000000E+00  0.00000000000E+00  0.45593999997E+02  0.45594000000E+02  0.51100000000E-03 0. -1.
         11   -1    0    0    0    0 -0.00000000000E+00 -0.00000000000E+00 -0.45593999997E+02  0.45594000000E+02  0.51100000000E-03 0.  1.
    9900012    2    1    2    0    0  0.83594034379E+01  0.41479064162E+02  0.96556007461E+01  0.47787274023E+02  0.20000013580E+02 0.  0.
         12    1    1    2    0    0 -0.83594034379E+01 -0.41479064162E+02 -0.96556007461E+01  0.43400725977E+02  0.00000000000E+00 0. -1.
         11    1    3    3    0    0  0.43442085059E-01  0.51137795018E+00  0.36243855583E+01  0.36605417029E+01  0.51100000000E-03 0. -1.
        -11    1    3    3    0    0  0.40782520243E+01  0.24728796848E+01  0.20634663175E+01  0.51966495951E+01  0.51100000000E-03 0.  1.
        -12    1    3    3    0    0  0.42377093285E+01  0.38494806527E+02  0.39677488703E+01  0.38930082725E+02  0.00000000000E+00 0.  1.
</event>
<event>
 7    1  0.2387817E-009  0.4778727E+02  0.7816164E-02  0.1312668E+00
        -11   -1    0    0    0    0  0.00000000000E+00  0.00000000000E+00  0.45593999997E+02  0.45594000000E+02  0.51100000000E-03 0.  1.
         11   -1    0    0    0    0 -0.00000000000E+00 -0.00000000000E+00 -0.45593999997E+02  0.45594000000E+02  0.51100000000E-03 0. -1.
    9900012    2    1    2    0    0  0.44344792043E+01 -0.39233472748E+01  0.42994949558E+02  0.47787274809E+02  0.20000017162E+02 0.  0.
         12    1    1    2    0    0 -0.44344792043E+01  0.39233472748E+01 -0.42994949558E+02  0.43400725191E+02  0.00000000000E+00 0. -1.
         11    1    3    3    0    0 -0.47021845669E+01 -0.40237634274E+00  0.96937968247E+01  0.10781564987E+02  0.51100000000E-03 0. -1.
        -11    1    3    3    0    0 -0.19153971435E+01 -0.68862982679E+00  0.26216232587E+00  0.20522394114E+01  0.51100000000E-03 0.  1.
        -12    1    3    3    0    0  0.11052060915E+02 -0.28323411053E+01  0.33038990407E+02  0.34953470410E+02  0.00000000000E+00 0.  1.
</event>
<event>
 7    1  0.2387817E-009  0.4778727E+02  0.7816164E-02  0.1312668E+00
        -11   -1    0    0    0    0  0.00000000000E+00  0.00000000000E+00  0.45593999997E+02  0.45594000000E+02  0.51100000000E-03 0.  1.
         11   -1    0    0    0    0 -0.00000000000E+00 -0.00000000000E+00 -0.45593999997E+02  0.45594000000E+02  0.51100000000E-03 0. -1.
    9900012    2    1    2    0    0  0.22758371849E+02  0.36695092066E+02 -0.43760680862E+01  0.47787271402E+02  0.20000001632E+02 0.  0.
         12    1    1    2    0    0 -0.22758371849E+02 -0.36695092066E+02  0.43760680862E+01  0.43400728598E+02  0.00000000000E+00 0. -1.
         11    1    3    3    0    0  0.60510752576E+01  0.88129991241E+01  0.36496760312E+01  0.11296220639E+02  0.51100000000E-03 0. -1.
        -11    1    3    3    0    0  0.75658479808E+01  0.18988217284E+01  0.24577835094E-02  0.78004862622E+01  0.51100000000E-03 0.  1.
        -12    1    3    3    0    0  0.91414486103E+01  0.25983271213E+02 -0.80282019009E+01  0.28690564501E+02  0.00000000000E+00 0.  1.
</event>
<event>
 7    1  0.2387817E-009  0.4778728E+02  0.7816164E-02  0.1312668E+00
        -11   -1    0    0    0    0  0.00000000000E+00  0.00000000000E+00  0.45593999997E+02  0.45594000000E+02  0.51100000000E-03 0.  1.
         11   -1    0    0    0    0 -0.00000000000E+00 -0.00000000000E+00 -0.45593999997E+02  0.45594000000E+02  0.51100000000E-03 0. -1.
    9900012    2    1    2    0    0  0.10111871702E+02  0.38036635542E+02  0.18291724168E+02  0.47787276898E+02  0.20000026691E+02 0.  0.
         12    1    1    2    0    0 -0.10111871702E+02 -0.38036635542E+02 -0.18291724168E+02  0.43400723102E+02  0.00000000000E+00 0. -1.
         11    1    3    3    0    0  0.14795607841E+01 -0.24874025969E+00 -0.20301875763E+01  0.25244075912E+01  0.51100000000E-03 0. -1.
        -11    1    3    3    0    0  0.77177791355E+01  0.13201124291E+02  0.65885172397E+01  0.16650596296E+02  0.51100000000E-03 0.  1.
         12    1    3    3    0    0  0.91453178244E+00  0.25084251511E+02  0.13733394505E+02  0.28612273011E+02  0.00000000000E+00 0. -1.
</event>
<event>
 7    1  0.2387817E-009  0.4778727E+02  0.7816164E-02  0.1312668E+00
        -11   -1    0    0    0    0  0.00000000000E+00  0.00000000000E+00  0.45593999997E+02  0.45594000000E+02  0.51100000000E-03 0. -1.
         11   -1    0    0    0    0 -0.00000000000E+00 -0.00000000000E+00 -0.45593999997E+02  0.45594000000E+02  0.51100000000E-03 0.  1.
    9900012    2    1    2    0    0  0.29512036718E+02  0.31822359528E+02 -0.19816007203E-01  0.47787271091E+02  0.20000000213E+02 0.  0.
         12    1    1    2    0    0 -0.29512036718E+02 -0.31822359528E+02  0.19816007203E-01  0.43400728909E+02  0.00000000000E+00 0. -1.
         11    1    3    3    0    0  0.15446406327E+02  0.26404039010E+02 -0.49066908222E+01  0.30981290476E+02  0.51100000000E-03 0. -1.
        -11    1    3    3    0    0  0.89998278855E+00 -0.98815485015E+00 -0.95170534697E-01  0.13399539990E+01  0.51100000000E-03 0.  1.
        -12    1    3    3    0    0  0.13165647602E+02  0.64064753675E+01  0.49820453497E+01  0.15466026616E+02  0.00000000000E+00 0.  1.
</event>
<event>
 7    1  0.2387817E-009  0.4778728E+02  0.7816164E-02  0.1312668E+00
        -11   -1    0    0    0    0  0.00000000000E+00  0.00000000000E+00  0.45593999997E+02  0.45594000000E+02  0.51100000000E-03 0.  1.
         11   -1    0    0    0    0 -0.00000000000E+00 -0.00000000000E+00 -0.45593999997E+02  0.45594000000E+02  0.51100000000E-03 0. -1.
    9900012    2    1    2    0    0 -0.15787825611E+02  0.13797481607E+02  0.37999957489E+02  0.47787277594E+02  0.20000029861E+02 0.  0.
         12    1    1    2    0    0  0.15787825611E+02 -0.13797481607E+02 -0.37999957489E+02  0.43400722406E+02  0.00000000000E+00 0. -1.
         11    1    3    3    0    0 -0.86276132417E+01  0.43660869812E+01  0.62589900410E+01  0.11518393220E+02  0.51100000000E-03 0. -1.
        -11    1    3    3    0    0 -0.29513137391E+01 -0.29496275772E+01  0.50831281670E+01  0.65763780194E+01  0.51100000000E-03 0.  1.
         12    1    3    3    0    0 -0.42088986306E+01  0.12381022203E+02  0.26657839281E+02  0.29692506354E+02  0.00000000000E+00 0. -1.
</event>
<event>
 7    1  0.2387817E-009  0.4778727E+02  0.7816164E-02  0.1312668E+00
        -11   -1    0    0    0    0  0.00000000000E+00  0.00000000000E+00  0.45593999997E+02  0.45594000000E+02  0.51100000000E-03 0.  1.
         11   -1    0    0    0    0 -0.00000000000E+00 -0.00000000000E+00 -0.45593999997E+02  0.45594000000E+02  0.51100000000E-03 0. -1.
    9900012    2    1    2    0    0  0.20159128465E+02 -0.17759459647E+02  0.34085694752E+02  0.47787268967E+02  0.19999990530E+02 0.  0.
         12    1    1    2    0    0 -0.20159128465E+02  0.17759459647E+02 -0.34085694752E+02  0.43400731033E+02  0.00000000000E+00 0. -1.
         11    1    3    3    0    0 -0.30236277441E+01 -0.20995378141E+01  0.97896332519E+00  0.38090357338E+01  0.51100000000E-03 0. -1.
        -11    1    3    3    0    0  0.58882099862E+01 -0.10142299104E+01  0.97407768358E+01  0.11427266199E+02  0.51100000000E-03 0.  1.
         12    1    3    3    0    0  0.17294546223E+02 -0.14645691922E+02  0.23365954591E+02  0.32550967035E+02  0.00000000000E+00 0. -1.
</event>
<event>
 7    1  0.2387817E-009  0.4778727E+02  0.7816164E-02  0.1312668E+00
        -11   -1    0    0    0    0  0.00000000000E+00  0.00000000000E+00  0.45593999997E+02  0.45594000000E+02  0.51100000000E-03 0. -1.
         11   -1    0    0    0    0 -0.00000000000E+00 -0.00000000000E+00 -0.45593999997E+02  0.45594000000E+02  0.51100000000E-03 0.  1.
    9900012    2    1    2    0    0 -0.97186701649E+01 -0.13763645980E+02 -0.39996658378E+02  0.47787272105E+02  0.20000004836E+02 0.  0.
         12    1    1    2    0    0  0.97186701649E+01  0.13763645980E+02  0.39996658378E+02  0.43400727895E+02  0.00000000000E+00 0. -1.
         11    1    3    3    0    0 -0.37034202083E+01  0.12840262175E+00 -0.68194886218E+01  0.77612649612E+01  0.51100000000E-03 0. -1.
        -11    1    3    3    0    0 -0.54603823668E+01 -0.15813910125E+02 -0.17458115918E+02  0.24180184877E+02  0.51100000000E-03 0.  1.
         12    1    3    3    0    0 -0.55486758978E+00  0.19218615231E+01 -0.15719053838E+02  0.15845822267E+02  0.00000000000E+00 0. -1.
</event>
<event>
 7    1  0.2387817E-009  0.4778727E+02  0.7816164E-02  0.1312668E+00
        -11   -1    0    0    0    0  0.00000000000E+00  0.00000000000E+00  0.45593999997E+02  0.45594000000E+02  0.51100000000E-03 0.  1.
         11   -1    0    0    0    0 -0.00000000000E+00 -0.00000000000E+00 -0.45593999997E+02  0.45594000000E+02  0.51100000000E-03 0. -1.
    9900012    2    1    2    0    0  0.45748650251E+01  0.23805201619E+02  0.36000086829E+02  0.47787271137E+02  0.20000000422E+02 0.  0.
         12    1    1    2    0    0 -0.45748650251E+01 -0.23805201619E+02 -0.36000086829E+02  0.43400728863E+02  0.00000000000E+00 0. -1.
         11    1    3    3    0    0  0.75680246263E+00  0.22782813667E+02  0.18568578313E+02  0.29401045040E+02  0.51100000000E-03 0. -1.
        -11    1    3    3    0    0 -0.88208801954E+00 -0.27174368456E-01  0.45302394288E+01  0.46153967613E+01  0.51100000000E-03 0.  1.
         12    1    3    3    0    0  0.47001505820E+01  0.10495623205E+01  0.12901269087E+02  0.13770829336E+02  0.00000000000E+00 0. -1.
</event>
<event>
 7    1  0.2387817E-009  0.4778728E+02  0.7816164E-02  0.1312668E+00
        -11   -1    0    0    0    0  0.00000000000E+00  0.00000000000E+00  0.45593999997E+02  0.45594000000E+02  0.51100000000E-03 0.  1.
         11   -1    0    0    0    0 -0.00000000000E+00 -0.00000000000E+00 -0.45593999997E+02  0.45594000000E+02  0.51100000000E-03 0. -1.
    9900012    2    1    2    0    0 -0.37449911122E+00  0.42732908424E+02  0.75749984695E+01  0.47787282105E+02  0.20000050432E+02 0.  0.
         12    1    1    2    0    0  0.37449911122E+00 -0.42732908424E+02 -0.75749984695E+01  0.43400717895E+02  0.00000000000E+00 0. -1.
         11    1    3    3    0    0  0.50330703252E+01  0.66688196928E+01 -0.23118419461E+01  0.86688849593E+01  0.51100000000E-03 0. -1.
        -11    1    3    3    0    0 -0.20208796328E+01  0.14458953178E+01 -0.98875999211E+00  0.26743624181E+01  0.51100000000E-03 0.  1.
        -12    1    3    3    0    0 -0.33866898036E+01  0.34618193413E+02  0.10875600408E+02  0.36444034728E+02  0.00000000000E+00 0.  1.
</event>
<event>
 7    1  0.2387817E-009  0.4778725E+02  0.7816164E-02  0.1312668E+00
        -11   -1    0    0    0    0  0.00000000000E+00  0.00000000000E+00  0.45593999997E+02  0.45594000000E+02  0.51100000000E-03 0. -1.
         11   -1    0    0    0    0 -0.00000000000E+00 -0.00000000000E+00 -0.45593999997E+02  0.45594000000E+02  0.51100000000E-03 0.  1.
    9900012    2    1    2    0    0 -0.14448013939E+02  0.11503515069E+02 -0.39275296926E+02  0.47787252145E+02  0.19999913832E+02 0.  0.
         12    1    1    2    0    0  0.14448013939E+02 -0.11503515069E+02  0.39275296926E+02  0.43400747855E+02  0.00000000000E+00 0. -1.
         11    1    3    3    0    0  0.20616848152E+00 -0.20335557104E+01 -0.11538962201E+01  0.23471964165E+01  0.51100000000E-03 0. -1.
        -11    1    3    3    0    0 -0.10752609039E+02  0.15772545718E+02 -0.24273142033E+02  0.30880045725E+02  0.51100000000E-03 0.  1.
         12    1    3    3    0    0 -0.39015733820E+01 -0.22354749380E+01 -0.13848258672E+02  0.14560010004E+02  0.00000000000E+00 0. -1.
</event>
<event>
 7    1  0.2387817E-009  0.4778727E+02  0.7816164E-02  0.1312668E+00
        -11   -1    0    0    0    0  0.00000000000E+00  0.00000000000E+00  0.45593999997E+02  0.45594000000E+02  0.51100000000E-03 0. -1.
         11   -1    0    0    0    0 -0.00000000000E+00 -0.00000000000E+00 -0.45593999997E+02  0.45594000000E+02  0.51100000000E-03 0.  1.
    9900012    2    1    2    0    0 -0.41584501785E+02 -0.13370169559E+01 -0.12351735385E+02  0.47787265328E+02  0.19999973934E+02 0.  0.
         12    1    1    2    0    0  0.41584501785E+02  0.13370169559E+01  0.12351735385E+02  0.43400734672E+02  0.00000000000E+00 0. -1.
         11    1    3    3    0    0 -0.82502073194E+00 -0.23951846500E+01 -0.12830880454E+01  0.28396978552E+01  0.51100000000E-03 0.  1.
        -11    1    3    3    0    0 -0.12006245596E+02 -0.65164698665E+01 -0.16648944759E+01  0.13761765392E+02  0.51100000000E-03 0. -1.
        -12    1    3    3    0    0 -0.28753235457E+02  0.75746375606E+01 -0.94037528642E+01  0.31185802080E+02  0.00000000000E+00 0.  1.
</event>
<event>
 7    1  0.2387817E-009  0.4778726E+02  0.7816164E-02  0.1312668E+00
        -11   -1    0    0    0    0  0.00000000000E+00  0.00000000000E+00  0.45593999997E+02  0.45594000000E+02  0.51100000000E-03 0. -1.
         11   -1    0    0    0    0 -0.00000000000E+00 -0.00000000000E+00 -0.45593999997E+02  0.45594000000E+02  0.51100000000E-03 0.  1.
    9900012    2    1    2    0    0 -0.23432244515E+02 -0.15957023121E+02 -0.32862249922E+02  0.47787261068E+02  0.19999954515E+02 0.  0.
         12    1    1    2    0    0  0.23432244515E+02  0.15957023121E+02  0.32862249922E+02  0.43400738932E+02  0.00000000000E+00 0. -1.
         11    1    3    3    0    0 -0.17646212878E+01 -0.35394329032E+01 -0.30556220386E+01  0.49978295158E+01  0.51100000000E-03 0.  1.
        -11    1    3    3    0    0 -0.11130444872E+01 -0.44056328785E+01 -0.16301608949E+02  0.16923088480E+02  0.51100000000E-03 0. -1.
         12    1    3    3    0    0 -0.20554578739E+02 -0.80119573394E+01 -0.13505018934E+02  0.25866343073E+02  0.00000000000E+00 0. -1.
</event>
<event>
 7    1  0.2387817E-009  0.4778727E+02  0.7816164E-02  0.1312668E+00
        -11   -1    0    0    0    0  0.00000000000E+00  0.00000000000E+00  0.45593999997E+02  0.45594000000E+02  0.51100000000E-03 0. -1.
         11   -1    0    0    0    0 -0.00000000000E+00 -0.00000000000E+00 -0.45593999997E+02  0.45594000000E+02  0.51100000000E-03 0.  1.
    9900012    2    1    2    0    0 -0.22838911046E+00  0.15296681914E+02 -0.40615051815E+02  0.47787273357E+02  0.20000010545E+02 0.  0.
         12    1    1    2    0    0  0.22838911046E+00 -0.15296681914E+02  0.40615051815E+02  0.43400726643E+02  0.00000000000E+00 0. -1.
         11    1    3    3    0    0 -0.18020818221E+01  0.45256981265E+01 -0.81407374771E+01  0.94868882863E+01  0.51100000000E-03 0.  1.
        -11    1    3    3    0    0  0.67499786491E+00 -0.47086773531E+01 -0.87244178239E+01  0.99369377154E+01  0.51100000000E-03 0. -1.
         12    1    3    3    0    0  0.89869484669E+00  0.15479661141E+02 -0.23749896514E+02  0.28363447356E+02  0.00000000000E+00 0. -1.
</event>
<event>
 7    1  0.2387817E-009  0.4778728E+02  0.7816164E-02  0.1312668E+00
        -11   -1    0    0    0    0  0.00000000000E+00  0.00000000000E+00  0.45593999997E+02  0.45594000000E+02  0.51100000000E-03 0.  1.
         11   -1    0    0    0    0 -0.00000000000E+00 -0.00000000000E+00 -0.45593999997E+02  0.45594000000E+02  0.51100000000E-03 0. -1.
    9900012    2    1    2    0    0  0.28010357524E+02 -0.31535519937E+02  0.10225119636E+02  0.47787283210E+02  0.20000055467E+02 0.  0.
         12    1    1    2    0    0 -0.28010357524E+02  0.31535519937E+02 -0.10225119636E+02  0.43400716790E+02  0.00000000000E+00 0. -1.
         11    1    3    3    0    0  0.11218555494E+02 -0.15319464360E+02  0.87068562720E+01  0.20889023961E+02  0.51100000000E-03 0. -1.
        -11    1    3    3    0    0  0.17215199308E+01  0.10492697217E+01  0.33478127861E+01  0.39079980211E+01  0.51100000000E-03 0.  1.
        -12    1    3    3    0    0  0.15070282099E+02 -0.17265325299E+02 -0.18295494220E+01  0.22990261228E+02  0.00000000000E+00 0.  1.
</event>
<event>
 7    1  0.2387817E-009  0.4778727E+02  0.7816164E-02  0.1312668E+00
        -11   -1    0    0    0    0  0.00000000000E+00  0.00000000000E+00  0.45593999997E+02  0.45594000000E+02  0.51100000000E-03 0. -1.
         11   -1    0    0    0    0 -0.00000000000E+00 -0.00000000000E+00 -0.45593999997E+02  0.45594000000E+02  0.51100000000E-03 0.  1.
    9900012    2    1    2    0    0  0.31038176726E+02  0.29124185935E+02 -0.84874375715E+01  0.47787271695E+02  0.20000002968E+02 0.  0.
         12    1    1    2    0    0 -0.31038176726E+02 -0.29124185935E+02  0.84874375715E+01  0.43400728305E+02  0.00000000000E+00 0. -1.
         11    1    3    3    0    0  0.17895740757E+01  0.39298464079E+01 -0.60369882802E+01  0.74223645773E+01  0.51100000000E-03 0. -1.
        -11    1    3    3    0    0  0.65511134254E+01  0.15611373494E+01 -0.34815628768E+01  0.75812609283E+01  0.51100000000E-03 0.  1.
        -12    1    3    3    0    0  0.22697489225E+02  0.23633202178E+02  0.10311135855E+01  0.32783646190E+02  0.00000000000E+00 0.  1.
</event>
<event>
 7    1  0.2387817E-009  0.4778727E+02  0.7816164E-02  0.1312668E+00
        -11   -1    0    0    0    0  0.00000000000E+00  0.00000000000E+00  0.45593999997E+02  0.45594000000E+02  0.51100000000E-03 0.  1.
         11   -1    0    0    0    0 -0.00000000000E+00 -0.00000000000E+00 -0.45593999997E+02  0.45594000000E+02  0.51100000000E-03 0. -1.
    9900012    2    1    2    0    0  0.26343463857E+02  0.21564057725E+02  0.26919073853E+02  0.47787271773E+02  0.20000003322E+02 0.  0.
         12    1    1    2    0    0 -0.26343463857E+02 -0.21564057725E+02 -0.26919073853E+02  0.43400728227E+02  0.00000000000E+00 0. -1.
         11    1    3    3    0    0  0.10179406489E+02  0.53125783991E+01  0.25406720772E+01  0.11760051896E+02  0.51100000000E-03 0. -1.
        -11    1    3    3    0    0  0.17522066080E+02  0.14720938078E+02  0.24995941439E+02  0.33889908620E+02  0.51100000000E-03 0.  1.
         12    1    3    3    0    0 -0.13580087121E+01  0.15305412476E+01 -0.61753966371E+00  0.21373112569E+01  0.00000000000E+00 0. -1.
</event>
<event>
 7    1  0.2387817E-009  0.4778728E+02  0.7816164E-02  0.1312668E+00
        -11   -1    0    0    0    0  0.00000000000E+00  0.00000000000E+00  0.45593999997E+02  0.45594000000E+02  0.51100000000E-03 0.  1.
         11   -1    0    0    0    0 -0.00000000000E+00 -0.00000000000E+00 -0.45593999997E+02  0.45594000000E+02  0.51100000000E-03 0. -1.
    9900012    2    1    2    0    0  0.34953650152E+02 -0.24860683417E+02  0.66189970047E+01  0.47787281570E+02  0.20000047989E+02 0.  0.
         12    1    1    2    0    0 -0.34953650152E+02  0.24860683417E+02 -0.66189970047E+01  0.43400718430E+02  0.00000000000E+00 0. -1.
         11    1    3    3    0    0  0.28773832164E+02 -0.15733448111E+02  0.38797076364E+01  0.33023127327E+02  0.51100000000E-03 0. -1.
        -11    1    3    3    0    0  0.83727523154E+01 -0.60059851400E+01  0.44704236561E+00  0.10313810449E+02  0.51100000000E-03 0.  1.
         12    1    3    3    0    0 -0.21929343273E+01 -0.31212501659E+01  0.22922470027E+01  0.44503437939E+01  0.00000000000E+00 0. -1.
</event>
<event>
 7    1  0.2387817E-009  0.4778727E+02  0.7816164E-02  0.1312668E+00
        -11   -1    0    0    0    0  0.00000000000E+00  0.00000000000E+00  0.45593999997E+02  0.45594000000E+02  0.51100000000E-03 0.  1.
         11   -1    0    0    0    0 -0.00000000000E+00 -0.00000000000E+00 -0.45593999997E+02  0.45594000000E+02  0.51100000000E-03 0. -1.
    9900012    2    1    2    0    0  0.43065443582E+02  0.46853540865E+01 -0.26530498892E+01  0.47787266740E+02  0.19999980374E+02 0.  0.
         12    1    1    2    0    0 -0.43065443582E+02 -0.46853540865E+01  0.26530498892E+01  0.43400733260E+02  0.00000000000E+00 0. -1.
         11    1    3    3    0    0  0.15494878604E+02 -0.46102530490E+01 -0.40624678305E+01  0.16668813433E+02  0.51100000000E-03 0. -1.
        -11    1    3    3    0    0  0.10759880181E+02  0.21351721574E+01  0.56813084594E+01  0.12353592502E+02  0.51100000000E-03 0.  1.
         12    1    3    3    0    0  0.16810684797E+02  0.71604349781E+01 -0.42718905181E+01  0.18764860805E+02  0.00000000000E+00 0. -1.
</event>
<event>
 7    1  0.2387817E-009  0.4778727E+02  0.7816164E-02  0.1312668E+00
        -11   -1    0    0    0    0  0.00000000000E+00  0.00000000000E+00  0.45593999997E+02  0.45594000000E+02  0.51100000000E-03 0. -1.
         11   -1    0    0    0    0 -0.00000000000E+00 -0.00000000000E+00 -0.45593999997E+02  0.45594000000E+02  0.51100000000E-03 0.  1.
    9900012    2    1    2    0    0  0.26139182274E+02  0.27327956207E+02 -0.21296696266E+02  0.47787270602E+02  0.19999997985E+02 0.  0.
         12    1    1    2    0    0 -0.26139182274E+02 -0.27327956207E+02  0.21296696266E+02  0.43400729398E+02  0.00000000000E+00 0. -1.
         11    1    3    3    0    0  0.79712162749E+01  0.18451923892E+02 -0.93655579420E+01  0.22174928636E+02  0.51100000000E-03 0. -1.
        -11    1    3    3    0    0  0.15885676213E+02  0.97091993245E+01 -0.13246655429E+02  0.22849445082E+02  0.51100000000E-03 0.  1.
         12    1    3    3    0    0  0.22822897865E+01 -0.83316700923E+00  0.13155171052E+01  0.27628968836E+01  0.00000000000E+00 0. -1.
</event>
<event>
 7    1  0.2387817E-009  0.4778728E+02  0.7816164E-02  0.1312668E+00
        -11   -1    0    0    0    0  0.00000000000E+00  0.00000000000E+00  0.45593999997E+02  0.45594000000E+02  0.51100000000E-03 0.  1.
         11   -1    0    0    0    0 -0.00000000000E+00 -0.00000000000E+00 -0.45593999997E+02  0.45594000000E+02  0.51100000000E-03 0. -1.
    9900012    2    1    2    0    0 -0.11172189687E+02 -0.28532187358E+02  0.30736276688E+02  0.47787282927E+02  0.20000054177E+02 0.  0.
         12    1    1    2    0    0  0.11172189687E+02  0.28532187358E+02 -0.30736276688E+02  0.43400717073E+02  0.00000000000E+00 0. -1.
         11    1    3    3    0    0 -0.70637210541E+01 -0.13445635423E+02  0.74460928993E+01  0.16915246578E+02  0.51100000000E-03 0. -1.
        -11    1    3    3    0    0 -0.68984887608E+01 -0.24567272215E+01  0.80237300825E+01  0.10863006054E+02  0.51100000000E-03 0.  1.
        -12    1    3    3    0    0  0.27900201282E+01 -0.12629824713E+02  0.15266453706E+02  0.20009030295E+02  0.00000000000E+00 0.  1.
</event>
<event>
 7    1  0.2387817E-009  0.4778727E+02  0.7816164E-02  0.1312668E+00
        -11   -1    0    0    0    0  0.00000000000E+00  0.00000000000E+00  0.45593999997E+02  0.45594000000E+02  0.51100000000E-03 0.  1.
         11   -1    0    0    0    0 -0.00000000000E+00 -0.00000000000E+00 -0.45593999997E+02  0.45594000000E+02  0.51100000000E-03 0. -1.
    9900012    2    1    2    0    0  0.20254237245E+02 -0.17047266141E+02  0.34391573370E+02  0.47787265811E+02  0.19999976139E+02 0.  0.
         12    1    1    2    0    0 -0.20254237245E+02  0.17047266141E+02 -0.34391573370E+02  0.43400734189E+02  0.00000000000E+00 0. -1.
         11    1    3    3    0    0 -0.17799508268E+01  0.22526892373E+00  0.49522095807E+01  0.52671957459E+01  0.51100000000E-03 0. -1.
        -11    1    3    3    0    0  0.28926023111E+01 -0.26756941063E+01 -0.64242302501E+00  0.39923921006E+01  0.51100000000E-03 0.  1.
        -12    1    3    3    0    0  0.19141585761E+02 -0.14596840959E+02  0.30081786814E+02  0.38527677965E+02  0.00000000000E+00 0.  1.
</event>
<event>
 7    1  0.2387817E-009  0.4778727E+02  0.7816164E-02  0.1312668E+00
        -11   -1    0    0    0    0  0.00000000000E+00  0.00000000000E+00  0.45593999997E+02  0.45594000000E+02  0.51100000000E-03 0. -1.
         11   -1    0    0    0    0 -0.00000000000E+00 -0.00000000000E+00 -0.45593999997E+02  0.45594000000E+02  0.51100000000E-03 0.  1.
    9900012    2    1    2    0    0  0.35880342135E+02 -0.19799465134E+02  0.14290054571E+02  0.47787269235E+02  0.19999991749E+02 0.  0.
         12    1    1    2    0    0 -0.35880342135E+02  0.19799465134E+02 -0.14290054571E+02  0.43400730765E+02  0.00000000000E+00 0. -1.
         11    1    3    3    0    0  0.13637981873E+01  0.11663422590E+01 -0.25423057965E+01  0.31118513436E+01  0.51100000000E-03 0. -1.
        -11    1    3    3    0    0  0.14407660407E+01 -0.36033448775E+01  0.27366469614E+01  0.47485932594E+01  0.51100000000E-03 0.  1.
        -12    1    3    3    0    0  0.33075777907E+02 -0.17362462516E+02  0.14095713406E+02  0.39926824632E+02  0.00000000000E+00 0.  1.
</event>
<event>
 7    1  0.2387817E-009  0.4778726E+02  0.7816164E-02  0.1312668E+00
        -11   -1    0    0    0    0  0.00000000000E+00  0.00000000000E+00  0.45593999997E+02  0.45594000000E+02  0.51100000000E-03 0.  1.
         11   -1    0    0    0    0 -0.00000000000E+00 -0.00000000000E+00 -0.45593999997E+02  0.45594000000E+02  0.51100000000E-03 0. -1.
    9900012    2    1    2    0    0  0.27464871355E+02  0.31327061553E+02  0.12162238864E+02  0.47787262699E+02  0.19999961948E+02 0.  0.
         12    1    1    2    0    0 -0.27464871355E+02 -0.31327061553E+02 -0.12162238864E+02  0.43400737301E+02  0.00000000000E+00 0. -1.
         11    1    3    3    0    0  0.43681534467E+01 -0.19751417741E+00  0.64348497003E+01  0.77799143512E+01  0.51100000000E-03 0. -1.
        -11    1    3    3    0    0  0.60205837763E+01  0.87061384972E+01  0.44378256533E+01  0.11477742519E+02  0.51100000000E-03 0.  1.
         12    1    3    3    0    0  0.17076134132E+02  0.22818437233E+02  0.12895635105E+01  0.28529605828E+02  0.00000000000E+00 0. -1.
</event>
<event>
 7    1  0.2387817E-009  0.4778727E+02  0.7816164E-02  0.1312668E+00
        -11   -1    0    0    0    0  0.00000000000E+00  0.00000000000E+00  0.45593999997E+02  0.45594000000E+02  0.51100000000E-03 0. -1.
         11   -1    0    0    0    0 -0.00000000000E+00 -0.00000000000E+00 -0.45593999997E+02  0.45594000000E+02  0.51100000000E-03 0.  1.
    9900012    2    1    2    0    0  0.16331399572E+02  0.36239813528E+02 -0.17423682130E+02  0.47787269644E+02  0.19999993613E+02 0.  0.
         12    1    1    2    0    0 -0.16331399572E+02 -0.36239813528E+02  0.17423682130E+02  0.43400730356E+02  0.00000000000E+00 0. -1.
         11    1    3    3    0    0 -0.38056398725E+01  0.53774431905E+01 -0.24986614352E+01  0.70457859274E+01  0.51100000000E-03 0. -1.
        -11    1    3    3    0    0  0.65623847783E+01  0.80756645431E+01 -0.85364302297E+01  0.13459267927E+02  0.51100000000E-03 0.  1.
        -12    1    3    3    0    0  0.13574654666E+02  0.22786705794E+02 -0.63885904649E+01  0.27282215790E+02  0.00000000000E+00 0.  1.
</event>
<event>
 7    1  0.2387817E-009  0.4778723E+02  0.7816164E-02  0.1312668E+00
        -11   -1    0    0    0    0  0.00000000000E+00  0.00000000000E+00  0.45593999997E+02  0.45594000000E+02  0.51100000000E-03 0.  1.
         11   -1    0    0    0    0 -0.00000000000E+00 -0.00000000000E+00 -0.45593999997E+02  0.45594000000E+02  0.51100000000E-03 0. -1.
    9900012    2    1    2    0    0 -0.35209390371E+01 -0.38361204454E+02  0.19991200882E+02  0.47787226602E+02  0.19999797367E+02 0.  0.
         12    1    1    2    0    0  0.35209390371E+01  0.38361204454E+02 -0.19991200882E+02  0.43400773398E+02  0.00000000000E+00 0. -1.
         11    1    3    3    0    0 -0.22206579608E+01 -0.96926417519E+01  0.14538958458E+02  0.17614197093E+02  0.51100000000E-03 0. -1.
        -11    1    3    3    0    0 -0.27022767114E+01 -0.32852933053E+01  0.84301173845E+00  0.43366024235E+01  0.51100000000E-03 0.  1.
        -12    1    3    3    0    0  0.14019956351E+01 -0.25383269397E+02  0.46092306853E+01  0.25836427085E+02  0.00000000000E+00 0.  1.
</event>
<event>
 7    1  0.2387817E-009  0.4778726E+02  0.7816164E-02  0.1312668E+00
        -11   -1    0    0    0    0  0.00000000000E+00  0.00000000000E+00  0.45593999997E+02  0.45594000000E+02  0.51100000000E-03 0. -1.
         11   -1    0    0    0    0 -0.00000000000E+00 -0.00000000000E+00 -0.45593999997E+02  0.45594000000E+02  0.51100000000E-03 0.  1.
    9900012    2    1    2    0    0  0.34295937681E+02  0.24424459549E+02 -0.10528927219E+02  0.47787264130E+02  0.19999968475E+02 0.  0.
         12    1    1    2    0    0 -0.34295937681E+02 -0.24424459549E+02  0.10528927219E+02  0.43400735870E+02  0.00000000000E+00 0. -1.
         11    1    3    3    0    0  0.68032024924E+01  0.22968405870E+01 -0.34411326043E+01  0.79624389916E+01  0.51100000000E-03 0. -1.
        -11    1    3    3    0    0  0.29881996846E+02  0.21050911041E+02 -0.68958621130E+01  0.37197143784E+02  0.51100000000E-03 0.  1.
         12    1    3    3    0    0 -0.23892616576E+01  0.10767079202E+01 -0.19193250209E+00  0.26276813542E+01  0.00000000000E+00 0. -1.
</event>
<event>
 7    1  0.2387817E-009  0.4778727E+02  0.7816164E-02  0.1312668E+00
        -11   -1    0    0    0    0  0.00000000000E+00  0.00000000000E+00  0.45593999997E+02  0.45594000000E+02  0.51100000000E-03 0. -1.
         11   -1    0    0    0    0 -0.00000000000E+00 -0.00000000000E+00 -0.45593999997E+02  0.45594000000E+02  0.51100000000E-03 0.  1.
    9900012    2    1    2    0    0 -0.21896640130E+02 -0.84601299143E+01 -0.36504608522E+02  0.47787273158E+02  0.20000009634E+02 0.  0.
         12    1    1    2    0    0  0.21896640130E+02  0.84601299143E+01  0.36504608522E+02  0.43400726842E+02  0.00000000000E+00 0. -1.
         11    1    3    3    0    0 -0.39791106885E+01  0.41968870140E+01 -0.36915625308E+01  0.68611089963E+01  0.51100000000E-03 0. -1.
        -11    1    3    3    0    0  0.91465500699E+00 -0.24141262995E+01 -0.64475543976E+01  0.69451823261E+01  0.51100000000E-03 0.  1.
         12    1    3    3    0    0 -0.18832184448E+02 -0.10242890629E+02 -0.26365491593E+02  0.33980981835E+02  0.00000000000E+00 0. -1.
</event>
<event>
 7    1  0.2387817E-009  0.4778727E+02  0.7816164E-02  0.1312668E+00
        -11   -1    0    0    0    0  0.00000000000E+00  0.00000000000E+00  0.45593999997E+02  0.45594000000E+02  0.51100000000E-03 0.  1.
         11   -1    0    0    0    0 -0.00000000000E+00 -0.00000000000E+00 -0.45593999997E+02  0.45594000000E+02  0.51100000000E-03 0. -1.
    9900012    2    1    2    0    0 -0.43105304300E+02  0.50335167243E+01 -0.46885676277E+00  0.47787269867E+02  0.19999994630E+02 0.  0.
         12    1    1    2    0    0  0.43105304300E+02 -0.50335167243E+01  0.46885676277E+00  0.43400730133E+02  0.00000000000E+00 0. -1.
         11    1    3    3    0    0 -0.10814520717E+02 -0.48404821990E+00 -0.58402741255E+01  0.12300283052E+02  0.51100000000E-03 0. -1.
        -11    1    3    3    0    0 -0.14888647547E+02 -0.18593306872E+01 -0.21240343204E+01  0.15153892518E+02  0.51100000000E-03 0.  1.
        -12    1    3    3    0    0 -0.17402136036E+02  0.73768956314E+01  0.74954516832E+01  0.20333094297E+02  0.00000000000E+00 0.  1.
</event>
<event>
 7    1  0.2387817E-009  0.4778727E+02  0.7816164E-02  0.1312668E+00
        -11   -1    0    0    0    0  0.00000000000E+00  0.00000000000E+00  0.45593999997E+02  0.45594000000E+02  0.51100000000E-03 0.  1.
         11   -1    0    0    0    0 -0.00000000000E+00 -0.00000000000E+00 -0.45593999997E+02  0.45594000000E+02  0.51100000000E-03 0. -1.
    9900012    2    1    2    0    0 -0.18188955188E+02 -0.93853669506E+01  0.38271397427E+02  0.47787273455E+02  0.20000010990E+02 0.  0.
         12    1    1    2    0    0  0.18188955188E+02  0.93853669506E+01 -0.38271397427E+02  0.43400726545E+02  0.00000000000E+00 0. -1.
         11    1    3    3    0    0 -0.12296154979E+01  0.23934978725E+01  0.53444506969E+00  0.27434318165E+01  0.51100000000E-03 0. -1.
        -11    1    3    3    0    0  0.11461983427E+01 -0.49485074242E+01  0.10103736781E+02  0.11308713170E+02  0.51100000000E-03 0.  1.
        -12    1    3    3    0    0 -0.18105538033E+02 -0.68303573989E+01  0.27633215577E+02  0.33735128468E+02  0.00000000000E+00 0.  1.
</event>
<event>
 7    1  0.2387817E-009  0.4778727E+02  0.7816164E-02  0.1312668E+00
        -11   -1    0    0    0    0  0.00000000000E+00  0.00000000000E+00  0.45593999997E+02  0.45594000000E+02  0.51100000000E-03 0.  1.
         11   -1    0    0    0    0 -0.00000000000E+00 -0.00000000000E+00 -0.45593999997E+02  0.45594000000E+02  0.51100000000E-03 0. -1.
    9900012    2    1    2    0    0 -0.13906073050E+02 -0.38239917752E+02  0.15098122794E+02  0.47787268563E+02  0.19999988687E+02 0.  0.
         12    1    1    2    0    0  0.13906073050E+02  0.38239917752E+02 -0.15098122794E+02  0.43400731437E+02  0.00000000000E+00 0. -1.
         11    1    3    3    0    0  0.26573164698E+01 -0.11341306941E+02  0.62832715962E+01  0.13235032155E+02  0.51100000000E-03 0. -1.
        -11    1    3    3    0    0  0.11192110808E+01 -0.42432807757E+01  0.27539102624E+01  0.51809349715E+01  0.51100000000E-03 0.  1.
         12    1    3    3    0    0 -0.17682600601E+02 -0.22655330035E+02  0.60609409358E+01  0.29371301436E+02  0.00000000000E+00 0. -1.
</event>
<event>
 7    1  0.2387817E-009  0.4778727E+02  0.7816164E-02  0.1312668E+00
        -11   -1    0    0    0    0  0.00000000000E+00  0.00000000000E+00  0.45593999997E+02  0.45594000000E+02  0.51100000000E-03 0. -1.
         11   -1    0    0    0    0 -0.00000000000E+00 -0.00000000000E+00 -0.45593999997E+02  0.45594000000E+02  0.51100000000E-03 0.  1.
    9900012    2    1    2    0    0 -0.93624915580E+01  0.38465128007E+02 -0.17787662263E+02  0.47787271325E+02  0.20000001279E+02 0.  0.
         12    1    1    2    0    0  0.93624915580E+01 -0.38465128007E+02  0.17787662263E+02  0.43400728675E+02  0.00000000000E+00 0. -1.
         11    1    3    3    0    0 -0.29176778668E+01  0.78334572542E+01  0.11675378933E+01  0.84403223683E+01  0.51100000000E-03 0. -1.
        -11    1    3    3    0    0  0.33465207399E+01  0.77911699698E+01 -0.69332885568E+00  0.85077750161E+01  0.51100000000E-03 0.  1.
         12    1    3    3    0    0 -0.97913344311E+01  0.22840500782E+02 -0.18261871301E+02  0.30839173941E+02  0.00000000000E+00 0. -1.
</event>
<event>
 7    1  0.2387817E-009  0.4778727E+02  0.7816164E-02  0.1312668E+00
        -11   -1    0    0    0    0  0.00000000000E+00  0.00000000000E+00  0.45593999997E+02  0.45594000000E+02  0.51100000000E-03 0.  1.
         11   -1    0    0    0    0 -0.00000000000E+00 -0.00000000000E+00 -0.45593999997E+02  0.45594000000E+02  0.51100000000E-03 0. -1.
    9900012    2    1    2    0    0  0.25832418997E+02  0.15415860701E+02  0.31283559571E+02  0.47787265768E+02  0.19999975944E+02 0.  0.
         12    1    1    2    0    0 -0.25832418997E+02 -0.15415860701E+02 -0.31283559571E+02  0.43400734232E+02  0.00000000000E+00 0. -1.
         11    1    3    3    0    0  0.75444574017E+01  0.38509463267E+01  0.91025661900E+00  0.85192248750E+01  0.51100000000E-03 0. -1.
        -11    1    3    3    0    0 -0.10427558567E+01 -0.53630652804E-01 -0.39720861840E+00  0.11171351624E+01  0.51100000000E-03 0.  1.
        -12    1    3    3    0    0  0.19330717452E+02  0.11618545027E+02  0.30770511571E+02  0.38150905731E+02  0.00000000000E+00 0.  1.
</event>
<event>
 7    1  0.2387817E-009  0.4778727E+02  0.7816164E-02  0.1312668E+00
        -11   -1    0    0    0    0  0.00000000000E+00  0.00000000000E+00  0.45593999997E+02  0.45594000000E+02  0.51100000000E-03 0.  1.
         11   -1    0    0    0    0 -0.00000000000E+00 -0.00000000000E+00 -0.45593999997E+02  0.45594000000E+02  0.51100000000E-03 0. -1.
    9900012    2    1    2    0    0 -0.19399447320E+02 -0.51378974220E+01  0.38482290170E+02  0.47787271861E+02  0.20000003724E+02 0.  0.
         12    1    1    2    0    0  0.19399447320E+02  0.51378974220E+01 -0.38482290170E+02  0.43400728139E+02  0.00000000000E+00 0. -1.
         11    1    3    3    0    0  0.13274195304E+01 -0.20509157162E+01  0.90473953691E+00  0.26051586852E+01  0.51100000000E-03 0. -1.
        -11    1    3    3    0    0 -0.91884007025E+01 -0.60849632131E+01  0.90380167339E+01  0.14252692080E+02  0.51100000000E-03 0.  1.
        -12    1    3    3    0    0 -0.11538466148E+02  0.29979815072E+01  0.28539533899E+02  0.30929421096E+02  0.00000000000E+00 0.  1.
</event>
<event>
 7    1  0.2387817E-009  0.4778727E+02  0.7816164E-02  0.1312668E+00
        -11   -1    0    0    0    0  0.00000000000E+00  0.00000000000E+00  0.45593999997E+02  0.45594000000E+02  0.51100000000E-03 0.  1.
         11   -1    0    0    0    0 -0.00000000000E+00 -0.00000000000E+00 -0.45593999997E+02  0.45594000000E+02  0.51100000000E-03 0. -1.
    9900012    2    1    2    0    0 -0.27025476839E+02  0.14710574392E+01  0.33927610037E+02  0.47787272689E+02  0.20000007497E+02 0.  0.
         12    1    1    2    0    0  0.27025476839E+02 -0.14710574392E+01 -0.33927610037E+02  0.43400727311E+02  0.00000000000E+00 0. -1.
         11    1    3    3    0    0 -0.85342623323E+01  0.40767617121E+01  0.54031884868E+01  0.10892569288E+02  0.51100000000E-03 0. -1.
        -11    1    3    3    0    0 -0.41116020997E+01  0.55174221192E+01  0.80794831136E+01  0.10612505185E+02  0.51100000000E-03 0.  1.
         12    1    3    3    0    0 -0.14379612407E+02 -0.81231263921E+01  0.20444938436E+02  0.26282198215E+02  0.00000000000E+00 0. -1.
</event>
<event>
 7    1  0.2387817E-009  0.4778727E+02  0.7816164E-02  0.1312668E+00
        -11   -1    0    0    0    0  0.00000000000E+00  0.00000000000E+00  0.45593999997E+02  0.45594000000E+02  0.51100000000E-03 0.  1.
         11   -1    0    0    0    0 -0.00000000000E+00 -0.00000000000E+00 -0.45593999997E+02  0.45594000000E+02  0.51100000000E-03 0. -1.
    9900012    2    1    2    0    0 -0.38360209425E+02  0.26905306343E+01  0.20121600125E+02  0.47787269432E+02  0.19999992647E+02 0.  0.
         12    1    1    2    0    0  0.38360209425E+02 -0.26905306343E+01 -0.20121600125E+02  0.43400730568E+02  0.00000000000E+00 0. -1.
         11    1    3    3    0    0 -0.90124352387E+01  0.11983251022E+01  0.33801808984E+01  0.96997729432E+01  0.51100000000E-03 0. -1.
        -11    1    3    3    0    0 -0.71734160261E+01 -0.72047901474E+01  0.30529302724E+01  0.10615426608E+02  0.51100000000E-03 0.  1.
        -12    1    3    3    0    0 -0.22174358161E+02  0.86969956795E+01  0.13688488955E+02  0.27472069881E+02  0.00000000000E+00 0.  1.
</event>
<event>
 7    1  0.2387817E-009  0.4778727E+02  0.7816164E-02  0.1312668E+00
        -11   -1    0    0    0    0  0.00000000000E+00  0.00000000000E+00  0.45593999997E+02  0.45594000000E+02  0.51100000000E-03 0. -1.
         11   -1    0    0    0    0 -0.00000000000E+00 -0.00000000000E+00 -0.45593999997E+02  0.45594000000E+02  0.51100000000E-03 0.  1.
    9900012    2    1    2    0    0  0.33180453914E+02 -0.12904778795E+02 -0.24822320261E+02  0.47787269351E+02  0.19999992280E+02 0.  0.
         12    1    1    2    0    0 -0.33180453914E+02  0.12904778795E+02  0.24822320261E+02  0.43400730649E+02  0.00000000000E+00 0. -1.
         11    1    3    3    0    0  0.26525724559E+01 -0.96098749697E+00 -0.62537378685E+01  0.68606760011E+01  0.51100000000E-03 0. -1.
        -11    1    3    3    0    0  0.15159990188E+02 -0.78434915659E+01 -0.18291789293E+02  0.25018697373E+02  0.51100000000E-03 0.  1.
         12    1    3    3    0    0  0.15367891271E+02 -0.41002997321E+01 -0.27679309935E+00  0.15907895977E+02  0.00000000000E+00 0. -1.
</event>
<event>
 7    1  0.2387817E-009  0.4778727E+02  0.7816164E-02  0.1312668E+00
        -11   -1    0    0    0    0  0.00000000000E+00  0.00000000000E+00  0.45593999997E+02  0.45594000000E+02  0.51100000000E-03 0.  1.
         11   -1    0    0    0    0 -0.00000000000E+00 -0.00000000000E+00 -0.45593999997E+02  0.45594000000E+02  0.51100000000E-03 0. -1.
    9900012    2    1    2    0    0 -0.16359779649E+02  0.39979865834E+02  0.41941782611E+01  0.47787271969E+02  0.20000004217E+02 0.  0.
         12    1    1    2    0    0  0.16359779649E+02 -0.39979865834E+02 -0.41941782611E+01  0.43400728031E+02  0.00000000000E+00 0. -1.
         11    1    3    3    0    0 -0.11080130376E+02  0.91244773614E+01  0.27476138385E+01  0.14614197150E+02  0.51100000000E-03 0. -1.
        -11    1    3    3    0    0 -0.39058385915E+01  0.25794716848E+01 -0.90090283301E+00  0.47666419471E+01  0.51100000000E-03 0.  1.
        -12    1    3    3    0    0 -0.13738106811E+01  0.28275916788E+02  0.23474672557E+01  0.28406432872E+02  0.00000000000E+00 0.  1.
</event>
<event>
 7    1  0.2387817E-009  0.4778724E+02  0.7816164E-02  0.1312668E+00
        -11   -1    0    0    0    0  0.00000000000E+00  0.00000000000E+00  0.45593999997E+02  0.45594000000E+02  0.51100000000E-03 0.  1.
         11   -1    0    0    0    0 -0.00000000000E+00 -0.00000000000E+00 -0.45593999997E+02  0.45594000000E+02  0.51100000000E-03 0. -1.
    9900012    2    1    2    0    0  0.15008732491E+02  0.13512065994E+02  0.38415987689E+02  0.47787238618E+02  0.19999852153E+02 0.  0.
         12    1    1    2    0    0 -0.15008732491E+02 -0.13512065994E+02 -0.38415987689E+02  0.43400761382E+02  0.00000000000E+00 0. -1.
         11    1    3    3    0    0  0.46695489324E+01  0.77156542240E+00  0.61103383575E+01  0.77289220166E+01  0.51100000000E-03 0. -1.
        -11    1    3    3    0    0  0.78494247393E+01  0.13971007882E+02  0.33421891647E+02  0.37065150364E+02  0.51100000000E-03 0.  1.
         12    1    3    3    0    0  0.24897588197E+01 -0.12305073098E+01 -0.11162423151E+01  0.29931662375E+01  0.00000000000E+00 0. -1.
</event>
<event>
 7    1  0.2387817E-009  0.4778727E+02  0.7816164E-02  0.1312668E+00
        -11   -1    0    0    0    0  0.00000000000E+00  0.00000000000E+00  0.45593999997E+02  0.45594000000E+02  0.51100000000E-03 0.  1.
         11   -1    0    0    0    0 -0.00000000000E+00 -0.00000000000E+00 -0.45593999997E+02  0.45594000000E+02  0.51100000000E-03 0. -1.
    9900012    2    1    2    0    0  0.10484212169E+02  0.80527467253E+01  0.41338336205E+02  0.47787268730E+02  0.19999989446E+02 0.  0.
         12    1    1    2    0    0 -0.10484212169E+02 -0.80527467253E+01 -0.41338336205E+02  0.43400731270E+02  0.00000000000E+00 0. -1.
         11    1    3    3    0    0  0.36661782368E+01  0.38816103407E+00  0.89267844185E+01  0.96581060342E+01  0.51100000000E-03 0. -1.
        -11    1    3    3    0    0  0.44188845498E+01  0.12176565060E+02  0.14228906297E+02  0.19242064650E+02  0.51100000000E-03 0.  1.
        -12    1    3    3    0    0  0.23991493824E+01 -0.45119793692E+01  0.18182645489E+02  0.18887098045E+02  0.00000000000E+00 0.  1.
</event>
<event>
 7    1  0.2387817E-009  0.4778727E+02  0.7816164E-02  0.1312668E+00
        -11   -1    0    0    0    0  0.00000000000E+00  0.00000000000E+00  0.45593999997E+02  0.45594000000E+02  0.51100000000E-03 0.  1.
         11   -1    0    0    0    0 -0.00000000000E+00 -0.00000000000E+00 -0.45593999997E+02  0.45594000000E+02  0.51100000000E-03 0. -1.
    9900012    2    1    2    0    0 -0.26506186333E+01  0.42124400665E+02 -0.10106053657E+02  0.47787271538E+02  0.20000002252E+02 0.  0.
         12    1    1    2    0    0  0.26506186333E+01 -0.42124400665E+02  0.10106053657E+02  0.43400728462E+02  0.00000000000E+00 0. -1.
         11    1    3    3    0    0 -0.61522668476E+01  0.18393253468E+02 -0.11290047043E+02  0.22441642609E+02  0.51100000000E-03 0. -1.
        -11    1    3    3    0    0  0.32214582155E+01  0.61994075188E+01 -0.25157065722E+01  0.74255791988E+01  0.51100000000E-03 0.  1.
         12    1    3    3    0    0  0.28018999879E+00  0.17531739678E+02  0.36996999579E+01  0.17920049731E+02  0.00000000000E+00 0. -1.
</event>
<event>
 7    1  0.2387817E-009  0.4778727E+02  0.7816164E-02  0.1312668E+00
        -11   -1    0    0    0    0  0.00000000000E+00  0.00000000000E+00  0.45593999997E+02  0.45594000000E+02  0.51100000000E-03 0.  1.
         11   -1    0    0    0    0 -0.00000000000E+00 -0.00000000000E+00 -0.45593999997E+02  0.45594000000E+02  0.51100000000E-03 0. -1.
    9900012    2    1    2    0    0 -0.22887827959E+02  0.34333812019E+02  0.13452132172E+02  0.47787272167E+02  0.20000005119E+02 0.  0.
         12    1    1    2    0    0  0.22887827959E+02 -0.34333812019E+02 -0.13452132172E+02  0.43400727833E+02  0.00000000000E+00 0. -1.
         11    1    3    3    0    0  0.89381478360E+00  0.38062329622E+00  0.18740306316E+01  0.21108694962E+01  0.51100000000E-03 0. -1.
        -11    1    3    3    0    0  0.65522910893E+00  0.94765462150E+01  0.37631181872E+01  0.10217402415E+02  0.51100000000E-03 0.  1.
         12    1    3    3    0    0 -0.24436871852E+02  0.24476642508E+02  0.78149833537E+01  0.35459000256E+02  0.00000000000E+00 0. -1.
</event>
<event>
 7    1  0.2387817E-009  0.4778727E+02  0.7816164E-02  0.1312668E+00
        -11   -1    0    0    0    0  0.00000000000E+00  0.00000000000E+00  0.45593999997E+02  0.45594000000E+02  0.51100000000E-03 0.  1.
         11   -1    0    0    0    0 -0.00000000000E+00 -0.00000000000E+00 -0.45593999997E+02  0.45594000000E+02  0.51100000000E-03 0. -1.
    9900012    2    1    2    0    0 -0.22138725329E+02  0.39132849014E+01  0.37123936432E+02  0.47787267125E+02  0.19999982128E+02 0.  0.
         12    1    1    2    0    0  0.22138725329E+02 -0.39132849014E+01 -0.37123936432E+02  0.43400732875E+02  0.00000000000E+00 0. -1.
         11    1    3    3    0    0 -0.14183486296E+02  0.90159266123E+00  0.13729827303E+02  0.19760878291E+02  0.51100000000E-03 0.  1.
        -11    1    3    3    0    0 -0.27432541636E+00  0.61399344641E+00 -0.16178231819E+01  0.17520258261E+01  0.51100000000E-03 0. -1.
        -12    1    3    3    0    0 -0.76809136171E+01  0.23976987938E+01  0.25011932311E+02  0.26274363007E+02  0.00000000000E+00 0.  1.
</event>
<event>
 7    1  0.2387817E-009  0.4778727E+02  0.7816164E-02  0.1312668E+00
        -11   -1    0    0    0    0  0.00000000000E+00  0.00000000000E+00  0.45593999997E+02  0.45594000000E+02  0.51100000000E-03 0.  1.
         11   -1    0    0    0    0 -0.00000000000E+00 -0.00000000000E+00 -0.45593999997E+02  0.45594000000E+02  0.51100000000E-03 0. -1.
    9900012    2    1    2    0    0 -0.72405758149E+01 -0.36502093107E+02  0.22333703468E+02  0.47787273625E+02  0.20000011764E+02 0.  0.
         12    1    1    2    0    0  0.72405758149E+01  0.36502093107E+02 -0.22333703468E+02  0.43400726375E+02  0.00000000000E+00 0. -1.
         11    1    3    3    0    0  0.85833337055E+00 -0.54398594227E+00  0.63945417860E+01  0.64747835326E+01  0.51100000000E-03 0. -1.
        -11    1    3    3    0    0  0.12604811346E+01 -0.14640677382E+02  0.78881817395E+01  0.16678179107E+02  0.51100000000E-03 0.  1.
         12    1    3    3    0    0 -0.93593903201E+01 -0.21317429782E+02  0.80509799427E+01  0.24634310985E+02  0.00000000000E+00 0. -1.
</event>
<event>
 7    1  0.2387817E-009  0.4778727E+02  0.7816164E-02  0.1312668E+00
        -11   -1    0    0    0    0  0.00000000000E+00  0.00000000000E+00  0.45593999997E+02  0.45594000000E+02  0.51100000000E-03 0.  1.
         11   -1    0    0    0    0 -0.00000000000E+00 -0.00000000000E+00 -0.45593999997E+02  0.45594000000E+02  0.51100000000E-03 0. -1.
    9900012    2    1    2    0    0  0.34464926721E+02 -0.66893297094E+01  0.25515581978E+02  0.47787271555E+02  0.20000002330E+02 0.  0.
         12    1    1    2    0    0 -0.34464926721E+02  0.66893297094E+01 -0.25515581978E+02  0.43400728445E+02  0.00000000000E+00 0. -1.
         11    1    3    3    0    0  0.15809251043E+02  0.59471251202E+00  0.15580356060E+02  0.22204359859E+02  0.51100000000E-03 0. -1.
        -11    1    3    3    0    0  0.16876442640E+02 -0.18668849662E+01  0.10317364482E+02  0.19868255730E+02  0.51100000000E-03 0.  1.
         12    1    3    3    0    0  0.17792330381E+01 -0.54171572552E+01 -0.38213856388E+00  0.57146559663E+01  0.00000000000E+00 0. -1.
</event>
<event>
 7    1  0.2387817E-009  0.4778727E+02  0.7816164E-02  0.1312668E+00
        -11   -1    0    0    0    0  0.00000000000E+00  0.00000000000E+00  0.45593999997E+02  0.45594000000E+02  0.51100000000E-03 0. -1.
         11   -1    0    0    0    0 -0.00000000000E+00 -0.00000000000E+00 -0.45593999997E+02  0.45594000000E+02  0.51100000000E-03 0.  1.
    9900012    2    1    2    0    0 -0.15515974568E+02  0.40271435236E+02 -0.45923201533E+01  0.47787269970E+02  0.19999995101E+02 0.  0.
         12    1    1    2    0    0  0.15515974568E+02 -0.40271435236E+02  0.45923201533E+01  0.43400730030E+02  0.00000000000E+00 0. -1.
         11    1    3    3    0    0 -0.22735326379E+01 -0.74992788183E+00  0.72735364236E-01  0.23951269648E+01  0.51100000000E-03 0. -1.
        -11    1    3    3    0    0 -0.11112661368E+02  0.13650061933E+02 -0.37973626151E+00  0.17605670489E+02  0.51100000000E-03 0.  1.
        -12    1    3    3    0    0 -0.21297805620E+01  0.27371301184E+02 -0.42853192560E+01  0.27786472516E+02  0.00000000000E+00 0.  1.
</event>
<event>
 7    1  0.2387817E-009  0.4778727E+02  0.7816164E-02  0.1312668E+00
        -11   -1    0    0    0    0  0.00000000000E+00  0.00000000000E+00  0.45593999997E+02  0.45594000000E+02  0.51100000000E-03 0. -1.
         11   -1    0    0    0    0 -0.00000000000E+00 -0.00000000000E+00 -0.45593999997E+02  0.45594000000E+02  0.51100000000E-03 0.  1.
    9900012    2    1    2    0    0 -0.27987386718E+02  0.26855011857E+02 -0.19471459971E+02  0.47787271543E+02  0.20000002275E+02 0.  0.
         12    1    1    2    0    0  0.27987386718E+02 -0.26855011857E+02  0.19471459971E+02  0.43400728457E+02  0.00000000000E+00 0. -1.
         11    1    3    3    0    0 -0.44267758670E+01  0.14161555363E+02 -0.27892386578E+01  0.15097213234E+02  0.51100000000E-03 0. -1.
        -11    1    3    3    0    0 -0.10410552053E+01  0.30497211214E+01 -0.38971870182E+01  0.50569419390E+01  0.51100000000E-03 0.  1.
        -12    1    3    3    0    0 -0.22519555646E+02  0.96437353726E+01 -0.12785034295E+02  0.27633116370E+02  0.00000000000E+00 0.  1.
</event>
<event>
 7    1  0.2387817E-009  0.4778727E+02  0.7816164E-02  0.1312668E+00
        -11   -1    0    0    0    0  0.00000000000E+00  0.00000000000E+00  0.45593999997E+02  0.45594000000E+02  0.51100000000E-03 0.  1.
         11   -1    0    0    0    0 -0.00000000000E+00 -0.00000000000E+00 -0.45593999997E+02  0.45594000000E+02  0.51100000000E-03 0. -1.
    9900012    2    1    2    0    0 -0.73011814938E+01  0.42715347753E+02 -0.23905917542E+01  0.47787272888E+02  0.20000008406E+02 0.  0.
         12    1    1    2    0    0  0.73011814938E+01 -0.42715347753E+02  0.23905917542E+01  0.43400727112E+02  0.00000000000E+00 0. -1.
         11    1    3    3    0    0  0.44182511254E+01  0.51474046944E+01  0.99490261964E+00  0.68561322609E+01  0.51100000000E-03 0. -1.
        -11    1    3    3    0    0 -0.16910890605E+01  0.20735416302E+02 -0.45760885265E+01  0.21301592849E+02  0.51100000000E-03 0.  1.
        -12    1    3    3    0    0 -0.10028343559E+02  0.16832526757E+02  0.11905941526E+01  0.19629547778E+02  0.00000000000E+00 0.  1.
</event>
<event>
 7    1  0.2387817E-009  0.4778727E+02  0.7816164E-02  0.1312668E+00
        -11   -1    0    0    0    0  0.00000000000E+00  0.00000000000E+00  0.45593999997E+02  0.45594000000E+02  0.51100000000E-03 0.  1.
         11   -1    0    0    0    0 -0.00000000000E+00 -0.00000000000E+00 -0.45593999997E+02  0.45594000000E+02  0.51100000000E-03 0. -1.
    9900012    2    1    2    0    0  0.16554067445E+01 -0.36270247279E+02  0.23777128767E+02  0.47787273490E+02  0.20000011152E+02 0.  0.
         12    1    1    2    0    0 -0.16554067445E+01  0.36270247279E+02 -0.23777128767E+02  0.43400726510E+02  0.00000000000E+00 0. -1.
         11    1    3    3    0    0  0.53792589584E+01 -0.75823071789E+01  0.52584089901E+00  0.93115153444E+01  0.51100000000E-03 0. -1.
        -11    1    3    3    0    0  0.30315994453E+01 -0.15407298443E+02  0.13057298275E+02  0.20422254504E+02  0.51100000000E-03 0.  1.
         12    1    3    3    0    0 -0.67554516592E+01 -0.13280641657E+02  0.10193989593E+02  0.18053503642E+02  0.00000000000E+00 0. -1.
</event>
<event>
 7    1  0.2387817E-009  0.4778728E+02  0.7816164E-02  0.1312668E+00
        -11   -1    0    0    0    0  0.00000000000E+00  0.00000000000E+00  0.45593999997E+02  0.45594000000E+02  0.51100000000E-03 0.  1.
         11   -1    0    0    0    0 -0.00000000000E+00 -0.00000000000E+00 -0.45593999997E+02  0.45594000000E+02  0.51100000000E-03 0. -1.
    9900012    2    1    2    0    0 -0.32614372282E+02 -0.25341432763E+02  0.13331790650E+02  0.47787284156E+02  0.20000059781E+02 0.  0.
         12    1    1    2    0    0  0.32614372282E+02  0.25341432763E+02 -0.13331790650E+02  0.43400715844E+02  0.00000000000E+00 0. -1.
         11    1    3    3    0    0 -0.36927319599E+01 -0.12240589122E+01 -0.24901531195E+01  0.46190315400E+01  0.51100000000E-03 0. -1.
        -11    1    3    3    0    0  0.12972960400E+01 -0.71217608409E+00  0.20745700232E+01  0.25483353061E+01  0.51100000000E-03 0.  1.
        -12    1    3    3    0    0 -0.30218936362E+02 -0.23405197767E+02  0.13747373746E+02  0.40619917310E+02  0.00000000000E+00 0.  1.
</event>
<event>
 7    1  0.2387817E-009  0.4778727E+02  0.7816164E-02  0.1312668E+00
        -11   -1    0    0    0    0  0.00000000000E+00  0.00000000000E+00  0.45593999997E+02  0.45594000000E+02  0.51100000000E-03 0.  1.
         11   -1    0    0    0    0 -0.00000000000E+00 -0.00000000000E+00 -0.45593999997E+02  0.45594000000E+02  0.51100000000E-03 0. -1.
    9900012    2    1    2    0    0  0.66749147515E+01 -0.20824401736E+02  0.37488842099E+02  0.47787268710E+02  0.19999989357E+02 0.  0.
         12    1    1    2    0    0 -0.66749147515E+01  0.20824401736E+02 -0.37488842099E+02  0.43400731290E+02  0.00000000000E+00 0. -1.
         11    1    3    3    0    0 -0.24121107975E+01 -0.27656589674E+01  0.19061406030E+02  0.19411448893E+02  0.51100000000E-03 0. -1.
        -11    1    3    3    0    0 -0.12016836179E+01 -0.38499368262E+01  0.36071734241E+01  0.54108924824E+01  0.51100000000E-03 0.  1.
        -12    1    3    3    0    0  0.10288709167E+02 -0.14208805942E+02  0.14820262644E+02  0.22964927334E+02  0.00000000000E+00 0.  1.
</event>
<event>
 7    1  0.2387817E-009  0.4778727E+02  0.7816164E-02  0.1312668E+00
        -11   -1    0    0    0    0  0.00000000000E+00  0.00000000000E+00  0.45593999997E+02  0.45594000000E+02  0.51100000000E-03 0.  1.
         11   -1    0    0    0    0 -0.00000000000E+00 -0.00000000000E+00 -0.45593999997E+02  0.45594000000E+02  0.51100000000E-03 0. -1.
    9900012    2    1    2    0    0 -0.28761100831E+02 -0.32403154230E+02  0.25412391867E+01  0.47787271645E+02  0.20000002740E+02 0.  0.
         12    1    1    2    0    0  0.28761100831E+02  0.32403154230E+02 -0.25412391867E+01  0.43400728355E+02  0.00000000000E+00 0. -1.
         11    1    3    3    0    0 -0.86946204340E+00  0.82252567096E+00  0.88230945603E+00  0.14869374438E+01  0.51100000000E-03 0. -1.
        -11    1    3    3    0    0 -0.13157739218E+02 -0.17659545704E+02  0.87899065134E+01  0.23711771604E+02  0.51100000000E-03 0.  1.
         12    1    3    3    0    0 -0.14733899569E+02 -0.15566134197E+02 -0.71309767827E+01  0.22588562598E+02  0.00000000000E+00 0. -1.
</event>
<event>
 7    1  0.2387817E-009  0.4778727E+02  0.7816164E-02  0.1312668E+00
        -11   -1    0    0    0    0  0.00000000000E+00  0.00000000000E+00  0.45593999997E+02  0.45594000000E+02  0.51100000000E-03 0. -1.
         11   -1    0    0    0    0 -0.00000000000E+00 -0.00000000000E+00 -0.45593999997E+02  0.45594000000E+02  0.51100000000E-03 0.  1.
    9900012    2    1    2    0    0  0.72818743837E+01 -0.42307880747E+02  0.63750044284E+01  0.47787272480E+02  0.20000006545E+02 0.  0.
         12    1    1    2    0    0 -0.72818743837E+01  0.42307880747E+02 -0.63750044284E+01  0.43400727520E+02  0.00000000000E+00 0. -1.
         11    1    3    3    0    0  0.81686559952E+00 -0.19854780294E+02  0.20908293707E+01  0.19981269671E+02  0.51100000000E-03 0. -1.
        -11    1    3    3    0    0  0.89251719308E+01 -0.23227763973E+02  0.36480693220E+01  0.25149475605E+02  0.51100000000E-03 0.  1.
         12    1    3    3    0    0 -0.24601631467E+01  0.77466352039E+00  0.63610573567E+00  0.26565272039E+01  0.00000000000E+00 0. -1.
</event>
<event>
 7    1  0.2387817E-009  0.4778727E+02  0.7816164E-02  0.1312668E+00
        -11   -1    0    0    0    0  0.00000000000E+00  0.00000000000E+00  0.45593999997E+02  0.45594000000E+02  0.51100000000E-03 0.  1.
         11   -1    0    0    0    0 -0.00000000000E+00 -0.00000000000E+00 -0.45593999997E+02  0.45594000000E+02  0.51100000000E-03 0. -1.
    9900012    2    1    2    0    0 -0.11226019583E+02 -0.33104346250E+02  0.25723568659E+02  0.47787271425E+02  0.20000001734E+02 0.  0.
         12    1    1    2    0    0  0.11226019583E+02  0.33104346250E+02 -0.25723568659E+02  0.43400728575E+02  0.00000000000E+00 0. -1.
         11    1    3    3    0    0 -0.71372242545E+00 -0.42828652329E+01  0.11081070143E+02  0.11901363371E+02  0.51100000000E-03 0. -1.
        -11    1    3    3    0    0 -0.76038331478E+01 -0.11256638477E+02  0.11517691533E+02  0.17809755946E+02  0.51100000000E-03 0.  1.
         12    1    3    3    0    0 -0.29084640100E+01 -0.17564842540E+02  0.31248069825E+01  0.18076152108E+02  0.00000000000E+00 0. -1.
</event>
<event>
 7    1  0.2387817E-009  0.4778727E+02  0.7816164E-02  0.1312668E+00
        -11   -1    0    0    0    0  0.00000000000E+00  0.00000000000E+00  0.45593999997E+02  0.45594000000E+02  0.51100000000E-03 0. -1.
         11   -1    0    0    0    0 -0.00000000000E+00 -0.00000000000E+00 -0.45593999997E+02  0.45594000000E+02  0.51100000000E-03 0.  1.
    9900012    2    1    2    0    0 -0.32354672732E+01  0.38805573302E+02 -0.19164624451E+02  0.47787267308E+02  0.19999982966E+02 0.  0.
         12    1    1    2    0    0  0.32354672732E+01 -0.38805573302E+02  0.19164624451E+02  0.43400732692E+02  0.00000000000E+00 0. -1.
         11    1    3    3    0    0 -0.27563396258E+01  0.15924619586E+02  0.19525131928E+01  0.16278919654E+02  0.51100000000E-03 0. -1.
        -11    1    3    3    0    0 -0.77510008593E+00  0.21815174797E+01 -0.66729653746E+00  0.24093741070E+01  0.51100000000E-03 0.  1.
        -12    1    3    3    0    0  0.29597243852E+00  0.20699436237E+02 -0.20449841107E+02  0.29098973547E+02  0.00000000000E+00 0.  1.
</event>
<event>
 7    1  0.2387817E-009  0.4778727E+02  0.7816164E-02  0.1312668E+00
        -11   -1    0    0    0    0  0.00000000000E+00  0.00000000000E+00  0.45593999997E+02  0.45594000000E+02  0.51100000000E-03 0. -1.
         11   -1    0    0    0    0 -0.00000000000E+00 -0.00000000000E+00 -0.45593999997E+02  0.45594000000E+02  0.51100000000E-03 0.  1.
    9900012    2    1    2    0    0 -0.11943588082E+02  0.39888134761E+02 -0.12243800891E+02  0.47787271306E+02  0.20000001190E+02 0.  0.
         12    1    1    2    0    0  0.11943588082E+02 -0.39888134761E+02  0.12243800891E+02  0.43400728694E+02  0.00000000000E+00 0. -1.
         11    1    3    3    0    0 -0.14252895381E+02  0.30827343954E+02 -0.49428386132E+01  0.34320574235E+02  0.51100000000E-03 0.  1.
        -11    1    3    3    0    0  0.15545413787E+01 -0.56396834826E+00 -0.89409332647E+00  0.18799101929E+01  0.51100000000E-03 0. -1.
        -12    1    3    3    0    0  0.75476592086E+00  0.96247591550E+01 -0.64068689514E+01  0.11586786878E+02  0.00000000000E+00 0.  1.
</event>
<event>
 7    1  0.2387817E-009  0.4778727E+02  0.7816164E-02  0.1312668E+00
        -11   -1    0    0    0    0  0.00000000000E+00  0.00000000000E+00  0.45593999997E+02  0.45594000000E+02  0.51100000000E-03 0. -1.
         11   -1    0    0    0    0 -0.00000000000E+00 -0.00000000000E+00 -0.45593999997E+02  0.45594000000E+02  0.51100000000E-03 0.  1.
    9900012    2    1    2    0    0  0.94821003864E+01 -0.33937965680E+02 -0.25336287858E+02  0.47787271611E+02  0.20000002585E+02 0.  0.
         12    1    1    2    0    0 -0.94821003864E+01  0.33937965680E+02  0.25336287858E+02  0.43400728389E+02  0.00000000000E+00 0. -1.
         11    1    3    3    0    0  0.66728332170E+01 -0.10579216109E+02 -0.10030586073E+02  0.16033065017E+02  0.51100000000E-03 0. -1.
        -11    1    3    3    0    0  0.83202174988E+01 -0.92646113899E+01 -0.48655012819E+01  0.13369074254E+02  0.51100000000E-03 0.  1.
         12    1    3    3    0    0 -0.55109503294E+01 -0.14094138181E+02 -0.10440200503E+02  0.18385132340E+02  0.00000000000E+00 0. -1.
</event>
<event>
 7    1  0.2387817E-009  0.4778726E+02  0.7816164E-02  0.1312668E+00
        -11   -1    0    0    0    0  0.00000000000E+00  0.00000000000E+00  0.45593999997E+02  0.45594000000E+02  0.51100000000E-03 0. -1.
         11   -1    0    0    0    0 -0.00000000000E+00 -0.00000000000E+00 -0.45593999997E+02  0.45594000000E+02  0.51100000000E-03 0.  1.
    9900012    2    1    2    0    0  0.21112190152E+02  0.18344702701E+02 -0.33186911777E+02  0.47787264943E+02  0.19999972180E+02 0.  0.
         12    1    1    2    0    0 -0.21112190152E+02 -0.18344702701E+02  0.33186911777E+02  0.43400735057E+02  0.00000000000E+00 0. -1.
         11    1    3    3    0    0  0.14572206425E+02  0.62360379182E+01 -0.12239405023E+02  0.20025993223E+02  0.51100000000E-03 0.  1.
        -11    1    3    3    0    0  0.36378216981E-01  0.13317934106E+01  0.15118984487E+01  0.20151511714E+01  0.51100000000E-03 0. -1.
        -12    1    3    3    0    0  0.65036055104E+01  0.10776871372E+02 -0.22459405203E+02  0.25746120548E+02  0.00000000000E+00 0.  1.
</event>
<event>
 7    1  0.2387817E-009  0.4778727E+02  0.7816164E-02  0.1312668E+00
        -11   -1    0    0    0    0  0.00000000000E+00  0.00000000000E+00  0.45593999997E+02  0.45594000000E+02  0.51100000000E-03 0. -1.
         11   -1    0    0    0    0 -0.00000000000E+00 -0.00000000000E+00 -0.45593999997E+02  0.45594000000E+02  0.51100000000E-03 0.  1.
    9900012    2    1    2    0    0  0.47105635254E+00  0.12170770089E+01 -0.43381102657E+02  0.47787271455E+02  0.20000001872E+02 0.  0.
         12    1    1    2    0    0 -0.47105635254E+00 -0.12170770089E+01  0.43381102657E+02  0.43400728545E+02  0.00000000000E+00 0. -1.
         11    1    3    3    0    0  0.21273733679E+01 -0.71572853282E+00 -0.77425367487E+01  0.80613187721E+01  0.51100000000E-03 0. -1.
        -11    1    3    3    0    0 -0.34147956703E+01  0.91230511699E+01 -0.15919797300E+02  0.18663623401E+02  0.51100000000E-03 0.  1.
        -12    1    3    3    0    0  0.17584786550E+01 -0.71902456282E+01 -0.19718768608E+02  0.21062329282E+02  0.00000000000E+00 0.  1.
</event>
<event>
 7    1 -0.2816074E-009  0.4778727E+02  0.7816164E-02  0.1312668E+00
        -11   -1    0    0    0    0  0.00000000000E+00  0.00000000000E+00  0.45593999997E+02  0.45594000000E+02  0.51100000000E-03 0.  1.
         11   -1    0    0    0    0 -0.00000000000E+00 -0.00000000000E+00 -0.45593999997E+02  0.45594000000E+02  0.51100000000E-03 0. -1.
    9900012    2    1    2    0    0 -0.27683227035E+02 -0.19807940472E+02  0.26924106809E+02  0.47787273136E+02  0.20000009538E+02 0.  0.
         12    1    1    2    0    0  0.27683227035E+02  0.19807940472E+02 -0.26924106809E+02  0.43400726864E+02  0.00000000000E+00 0. -1.
         11    1    3    3    0    0 -0.15610976047E+02 -0.10173061334E+02  0.46833895064E+01  0.19212701204E+02  0.51100000000E-03 0. -1.
        -11    1    3    3    0    0 -0.92917490640E+01 -0.20613205950E+01  0.91828164754E+01  0.13225345438E+02  0.51100000000E-03 0.  1.
         12    1    3    3    0    0 -0.27805019242E+01 -0.75735585436E+01  0.13057900827E+02  0.15349226494E+02  0.00000000000E+00 0. -1.
</event>
<event>
 7    1  0.2387817E-009  0.4778727E+02  0.7816164E-02  0.1312668E+00
        -11   -1    0    0    0    0  0.00000000000E+00  0.00000000000E+00  0.45593999997E+02  0.45594000000E+02  0.51100000000E-03 0. -1.
         11   -1    0    0    0    0 -0.00000000000E+00 -0.00000000000E+00 -0.45593999997E+02  0.45594000000E+02  0.51100000000E-03 0.  1.
    9900012    2    1    2    0    0 -0.29821373383E+02 -0.21436660940E+02 -0.23125280312E+02  0.47787270372E+02  0.19999996935E+02 0.  0.
         12    1    1    2    0    0  0.29821373383E+02  0.21436660940E+02  0.23125280312E+02  0.43400729628E+02  0.00000000000E+00 0. -1.
         11    1    3    3    0    0 -0.53394429624E+01 -0.67610739875E+01 -0.10715017441E+02  0.13748940746E+02  0.51100000000E-03 0. -1.
        -11    1    3    3    0    0 -0.84861514283E+01 -0.13026992626E+02 -0.49905786150E+01  0.16328600004E+02  0.51100000000E-03 0.  1.
        -12    1    3    3    0    0 -0.15995778992E+02 -0.16485943274E+01 -0.74196842562E+01  0.17709729622E+02  0.00000000000E+00 0.  1.
</event>
<event>
 7    1  0.2387817E-009  0.4778727E+02  0.7816164E-02  0.1312668E+00
        -11   -1    0    0    0    0  0.00000000000E+00  0.00000000000E+00  0.45593999997E+02  0.45594000000E+02  0.51100000000E-03 0.  1.
         11   -1    0    0    0    0 -0.00000000000E+00 -0.00000000000E+00 -0.45593999997E+02  0.45594000000E+02  0.51100000000E-03 0. -1.
    9900012    2    1    2    0    0 -0.11686617541E+02 -0.13989588506E+02  0.39387025919E+02  0.47787269282E+02  0.19999991965E+02 0.  0.
         12    1    1    2    0    0  0.11686617541E+02  0.13989588506E+02 -0.39387025919E+02  0.43400730718E+02  0.00000000000E+00 0. -1.
         11    1    3    3    0    0 -0.50553998386E+01 -0.95265235847E+01  0.11543110693E+02  0.15797313818E+02  0.51100000000E-03 0. -1.
        -11    1    3    3    0    0  0.94430333973E+00 -0.58457430460E+01  0.20539535538E+02  0.21376083386E+02  0.51100000000E-03 0.  1.
        -12    1    3    3    0    0 -0.75755210424E+01  0.13826781249E+01  0.73043796874E+01  0.10613872078E+02  0.00000000000E+00 0.  1.
</event>
<event>
 7    1  0.2387817E-009  0.4778727E+02  0.7816164E-02  0.1312668E+00
        -11   -1    0    0    0    0  0.00000000000E+00  0.00000000000E+00  0.45593999997E+02  0.45594000000E+02  0.51100000000E-03 0.  1.
         11   -1    0    0    0    0 -0.00000000000E+00 -0.00000000000E+00 -0.45593999997E+02  0.45594000000E+02  0.51100000000E-03 0. -1.
    9900012    2    1    2    0    0 -0.41038026088E+02  0.61028752051E+01  0.12738072273E+02  0.47787272400E+02  0.20000006180E+02 0.  0.
         12    1    1    2    0    0  0.41038026088E+02 -0.61028752051E+01 -0.12738072273E+02  0.43400727600E+02  0.00000000000E+00 0. -1.
         11    1    3    3    0    0 -0.75848948955E+01  0.11332395723E+01  0.89042268402E+01  0.11751600673E+02  0.51100000000E-03 0. -1.
        -11    1    3    3    0    0 -0.12796464480E+02 -0.34408118698E+01  0.35997026086E+01  0.13731225315E+02  0.51100000000E-03 0.  1.
         12    1    3    3    0    0 -0.20656666712E+02  0.84104475026E+01  0.23414282464E+00  0.22304446411E+02  0.00000000000E+00 0. -1.
</event>
<event>
 7    1  0.2387817E-009  0.4778727E+02  0.7816164E-02  0.1312668E+00
        -11   -1    0    0    0    0  0.00000000000E+00  0.00000000000E+00  0.45593999997E+02  0.45594000000E+02  0.51100000000E-03 0.  1.
         11   -1    0    0    0    0 -0.00000000000E+00 -0.00000000000E+00 -0.45593999997E+02  0.45594000000E+02  0.51100000000E-03 0. -1.
    9900012    2    1    2    0    0 -0.12185076673E+02  0.18889589392E+02  0.37125877586E+02  0.47787268814E+02  0.19999989833E+02 0.  0.
         12    1    1    2    0    0  0.12185076673E+02 -0.18889589392E+02 -0.37125877586E+02  0.43400731186E+02  0.00000000000E+00 0. -1.
         11    1    3    3    0    0 -0.82761244897E+01  0.14449395116E+02  0.18530552874E+02  0.24913061752E+02  0.51100000000E-03 0. -1.
        -11    1    3    3    0    0 -0.56505226063E+01  0.46244173254E+01  0.19557472866E+02  0.20876024202E+02  0.51100000000E-03 0.  1.
         12    1    3    3    0    0  0.17415704233E+01 -0.18422304966E+00 -0.96214815425E+00  0.19981828600E+01  0.00000000000E+00 0. -1.
</event>
<event>
 7    1  0.2387817E-009  0.4778727E+02  0.7816164E-02  0.1312668E+00
        -11   -1    0    0    0    0  0.00000000000E+00  0.00000000000E+00  0.45593999997E+02  0.45594000000E+02  0.51100000000E-03 0.  1.
         11   -1    0    0    0    0 -0.00000000000E+00 -0.00000000000E+00 -0.45593999997E+02  0.45594000000E+02  0.51100000000E-03 0. -1.
    9900012    2    1    2    0    0  0.81877215812E+01  0.42227262950E+02  0.57829678871E+01  0.47787271452E+02  0.20000001856E+02 0.  0.
         12    1    1    2    0    0 -0.81877215812E+01 -0.42227262950E+02 -0.57829678871E+01  0.43400728548E+02  0.00000000000E+00 0. -1.
         11    1    3    3    0    0 -0.30948497601E+00  0.22148847236E+01 -0.29185666816E+01  0.36768909455E+01  0.51100000000E-03 0. -1.
        -11    1    3    3    0    0  0.76645301807E+01  0.76122678475E+01  0.14620264700E+01  0.10900879154E+02  0.51100000000E-03 0.  1.
        -12    1    3    3    0    0  0.83267637654E+00  0.32400110379E+02  0.72395080987E+01  0.33209501352E+02  0.00000000000E+00 0.  1.
</event>
<event>
 7    1  0.2387817E-009  0.4778727E+02  0.7816164E-02  0.1312668E+00
        -11   -1    0    0    0    0  0.00000000000E+00  0.00000000000E+00  0.45593999997E+02  0.45594000000E+02  0.51100000000E-03 0.  1.
         11   -1    0    0    0    0 -0.00000000000E+00 -0.00000000000E+00 -0.45593999997E+02  0.45594000000E+02  0.51100000000E-03 0. -1.
    9900012    2    1    2    0    0 -0.17912288769E+02  0.15718114430E+02  0.36272771969E+02  0.47787271936E+02  0.20000004063E+02 0.  0.
         12    1    1    2    0    0  0.17912288769E+02 -0.15718114430E+02 -0.36272771969E+02  0.43400728064E+02  0.00000000000E+00 0. -1.
         11    1    3    3    0    0 -0.38478301232E+01  0.18558794792E+01  0.10170764946E+02  0.11031525060E+02  0.51100000000E-03 0. -1.
        -11    1    3    3    0    0 -0.11770994396E+02  0.17777036659E+02  0.22058536260E+02  0.30678304445E+02  0.51100000000E-03 0.  1.
         12    1    3    3    0    0 -0.22934642499E+01 -0.39148017083E+01  0.40434707634E+01  0.60774424305E+01  0.00000000000E+00 0. -1.
</event>
<event>
 7    1  0.2387817E-009  0.4778727E+02  0.7816164E-02  0.1312668E+00
        -11   -1    0    0    0    0  0.00000000000E+00  0.00000000000E+00  0.45593999997E+02  0.45594000000E+02  0.51100000000E-03 0.  1.
         11   -1    0    0    0    0 -0.00000000000E+00 -0.00000000000E+00 -0.45593999997E+02  0.45594000000E+02  0.51100000000E-03 0. -1.
    9900012    2    1    2    0    0 -0.27432064033E+01  0.35901284169E+02  0.24232120807E+02  0.47787273449E+02  0.20000010963E+02 0.  0.
         12    1    1    2    0    0  0.27432064033E+01 -0.35901284169E+02 -0.24232120807E+02  0.43400726551E+02  0.00000000000E+00 0. -1.
         11    1    3    3    0    0 -0.37837658638E+01  0.20899945947E+01  0.60711875255E+01  0.74528034825E+01  0.51100000000E-03 0. -1.
        -11    1    3    3    0    0 -0.84946318158E+00  0.50512295609E+01 -0.16259207795E+01  0.53740232988E+01  0.51100000000E-03 0.  1.
        -12    1    3    3    0    0  0.18900226421E+01  0.28760060014E+02  0.19786854061E+02  0.34960446668E+02  0.00000000000E+00 0.  1.
</event>
<event>
 7    1  0.2387817E-009  0.4778727E+02  0.7816164E-02  0.1312668E+00
        -11   -1    0    0    0    0  0.00000000000E+00  0.00000000000E+00  0.45593999997E+02  0.45594000000E+02  0.51100000000E-03 0.  1.
         11   -1    0    0    0    0 -0.00000000000E+00 -0.00000000000E+00 -0.45593999997E+02  0.45594000000E+02  0.51100000000E-03 0. -1.
    9900012    2    1    2    0    0  0.35041017381E+02  0.94604013446E+01  0.23796032646E+02  0.47787271176E+02  0.20000000601E+02 0.  0.
         12    1    1    2    0    0 -0.35041017381E+02 -0.94604013446E+01 -0.23796032646E+02  0.43400728824E+02  0.00000000000E+00 0. -1.
         11    1    3    3    0    0  0.95228097498E+01 -0.41222714442E+01  0.32059588364E+01  0.10860718195E+02  0.51100000000E-03 0. -1.
        -11    1    3    3    0    0  0.10617197425E+02  0.58323820519E+01  0.27459036697E+01  0.12421012390E+02  0.51100000000E-03 0.  1.
        -12    1    3    3    0    0  0.14901010207E+02  0.77502907370E+01  0.17844170140E+02  0.24505540592E+02  0.00000000000E+00 0.  1.
</event>
<event>
 7    1  0.2387817E-009  0.4778727E+02  0.7816164E-02  0.1312668E+00
        -11   -1    0    0    0    0  0.00000000000E+00  0.00000000000E+00  0.45593999997E+02  0.45594000000E+02  0.51100000000E-03 0.  1.
         11   -1    0    0    0    0 -0.00000000000E+00 -0.00000000000E+00 -0.45593999997E+02  0.45594000000E+02  0.51100000000E-03 0. -1.
    9900012    2    1    2    0    0 -0.43911658563E+01  0.13664398751E+01  0.43156388537E+02  0.47787269971E+02  0.19999995105E+02 0.  0.
         12    1    1    2    0    0  0.43911658563E+01 -0.13664398751E+01 -0.43156388537E+02  0.43400730029E+02  0.00000000000E+00 0. -1.
         11    1    3    3    0    0 -0.11586386249E+01 -0.33978318140E+01  0.26036609921E+01  0.44347215608E+01  0.51100000000E-03 0. -1.
        -11    1    3    3    0    0 -0.43295507830E+00 -0.38690037973E+01  0.36031452179E+01  0.53046485469E+01  0.51100000000E-03 0.  1.
        -12    1    3    3    0    0 -0.27995721531E+01  0.86332754864E+01  0.36949582327E+02  0.38047899863E+02  0.00000000000E+00 0.  1.
</event>
<event>
 7    1  0.2387817E-009  0.4778728E+02  0.7816164E-02  0.1312668E+00
        -11   -1    0    0    0    0  0.00000000000E+00  0.00000000000E+00  0.45593999997E+02  0.45594000000E+02  0.51100000000E-03 0.  1.
         11   -1    0    0    0    0 -0.00000000000E+00 -0.00000000000E+00 -0.45593999997E+02  0.45594000000E+02  0.51100000000E-03 0. -1.
    9900012    2    1    2    0    0 -0.41356960577E+02  0.11960143698E+02  0.54935982020E+01  0.47787275966E+02  0.20000022441E+02 0.  0.
         12    1    1    2    0    0  0.41356960577E+02 -0.11960143698E+02 -0.54935982020E+01  0.43400724034E+02  0.00000000000E+00 0. -1.
         11    1    3    3    0    0 -0.86992288113E+01 -0.15459938295E+01  0.55306549573E+01  0.10423762437E+02  0.51100000000E-03 0. -1.
        -11    1    3    3    0    0 -0.52050655445E+01 -0.21481361984E+01  0.11149081002E+01  0.57402279382E+01  0.51100000000E-03 0.  1.
         12    1    3    3    0    0 -0.27452666221E+02  0.15654273726E+02 -0.11519648555E+01  0.31623285591E+02  0.00000000000E+00 0. -1.
</event>
<event>
 7    1  0.2387817E-009  0.4778727E+02  0.7816164E-02  0.1312668E+00
        -11   -1    0    0    0    0  0.00000000000E+00  0.00000000000E+00  0.45593999997E+02  0.45594000000E+02  0.51100000000E-03 0.  1.
         11   -1    0    0    0    0 -0.00000000000E+00 -0.00000000000E+00 -0.45593999997E+02  0.45594000000E+02  0.51100000000E-03 0. -1.
    9900012    2    1    2    0    0 -0.34436083968E+01 -0.26713522398E+02  0.34031638480E+02  0.47787272641E+02  0.20000007278E+02 0.  0.
         12    1    1    2    0    0  0.34436083968E+01  0.26713522398E+02 -0.34031638480E+02  0.43400727359E+02  0.00000000000E+00 0. -1.
         11    1    3    3    0    0  0.33508906972E+01 -0.61420120118E+01  0.29549945833E+01  0.75950492603E+01  0.51100000000E-03 0.  1.
        -11    1    3    3    0    0  0.40749895126E+01 -0.43386583298E+01  0.73257366238E+01  0.94390631406E+01  0.51100000000E-03 0. -1.
        -12    1    3    3    0    0 -0.10869488607E+02 -0.16232852057E+02  0.23750907272E+02  0.30753160240E+02  0.00000000000E+00 0.  1.
</event>
<event>
 7    1  0.2387817E-009  0.4778727E+02  0.7816164E-02  0.1312668E+00
        -11   -1    0    0    0    0  0.00000000000E+00  0.00000000000E+00  0.45593999997E+02  0.45594000000E+02  0.51100000000E-03 0.  1.
         11   -1    0    0    0    0 -0.00000000000E+00 -0.00000000000E+00 -0.45593999997E+02  0.45594000000E+02  0.51100000000E-03 0. -1.
    9900012    2    1    2    0    0  0.28448919152E+02  0.23261543707E+02  0.23090753272E+02  0.47787270706E+02  0.19999998458E+02 0.  0.
         12    1    1    2    0    0 -0.28448919152E+02 -0.23261543707E+02 -0.23090753272E+02  0.43400729294E+02  0.00000000000E+00 0. -1.
         11    1    3    3    0    0  0.91824505346E+01  0.30345785848E+01  0.32753779701E+01  0.10210492942E+02  0.51100000000E-03 0. -1.
        -11    1    3    3    0    0  0.16607539271E+02  0.63476405497E+01  0.10439121637E+02  0.20617423748E+02  0.51100000000E-03 0.  1.
        -12    1    3    3    0    0  0.26589293463E+01  0.13879324572E+02  0.93762536657E+01  0.16959354016E+02  0.00000000000E+00 0.  1.
</event>
<event>
 7    1  0.2387817E-009  0.4778727E+02  0.7816164E-02  0.1312668E+00
        -11   -1    0    0    0    0  0.00000000000E+00  0.00000000000E+00  0.45593999997E+02  0.45594000000E+02  0.51100000000E-03 0. -1.
         11   -1    0    0    0    0 -0.00000000000E+00 -0.00000000000E+00 -0.45593999997E+02  0.45594000000E+02  0.51100000000E-03 0.  1.
    9900012    2    1    2    0    0 -0.29456833048E+02  0.27574791538E+02 -0.15985910608E+02  0.47787268675E+02  0.19999989197E+02 0.  0.
         12    1    1    2    0    0  0.29456833048E+02 -0.27574791538E+02  0.15985910608E+02  0.43400731325E+02  0.00000000000E+00 0. -1.
         11    1    3    3    0    0 -0.26822231329E+01 -0.18544224731E+01  0.12606202116E+01  0.34960502317E+01  0.51100000000E-03 0. -1.
        -11    1    3    3    0    0 -0.35684934695E+01  0.85249437006E+01 -0.16775269662E+01  0.93927050270E+01  0.51100000000E-03 0.  1.
        -12    1    3    3    0    0 -0.23206116445E+02  0.20904270310E+02 -0.15569003854E+02  0.34898513416E+02  0.00000000000E+00 0.  1.
</event>
<event>
 7    1  0.2387817E-009  0.4778727E+02  0.7816164E-02  0.1312668E+00
        -11   -1    0    0    0    0  0.00000000000E+00  0.00000000000E+00  0.45593999997E+02  0.45594000000E+02  0.51100000000E-03 0.  1.
         11   -1    0    0    0    0 -0.00000000000E+00 -0.00000000000E+00 -0.45593999997E+02  0.45594000000E+02  0.51100000000E-03 0. -1.
    9900012    2    1    2    0    0 -0.15189605487E+02 -0.33060987541E+02  0.23661573117E+02  0.47787273572E+02  0.20000011526E+02 0.  0.
         12    1    1    2    0    0  0.15189605487E+02  0.33060987541E+02 -0.23661573117E+02  0.43400726428E+02  0.00000000000E+00 0. -1.
         11    1    3    3    0    0 -0.16299829397E+02 -0.22437767412E+02  0.11904102777E+02  0.30180217163E+02  0.51100000000E-03 0. -1.
        -11    1    3    3    0    0 -0.22082018429E+01 -0.84331583175E+01  0.99818715309E+01  0.13252625178E+02  0.51100000000E-03 0.  1.
         12    1    3    3    0    0  0.33184257532E+01 -0.21900618117E+01  0.17755988097E+01  0.43544312317E+01  0.00000000000E+00 0. -1.
</event>
<event>
 7    1  0.2387817E-009  0.4778728E+02  0.7816164E-02  0.1312668E+00
        -11   -1    0    0    0    0  0.00000000000E+00  0.00000000000E+00  0.45593999997E+02  0.45594000000E+02  0.51100000000E-03 0.  1.
         11   -1    0    0    0    0 -0.00000000000E+00 -0.00000000000E+00 -0.45593999997E+02  0.45594000000E+02  0.51100000000E-03 0. -1.
    9900012    2    1    2    0    0  0.21941876017E+02  0.32972535100E+02  0.17747917503E+02  0.47787279156E+02  0.20000036986E+02 0.  0.
         12    1    1    2    0    0 -0.21941876017E+02 -0.32972535100E+02 -0.17747917503E+02  0.43400720844E+02  0.00000000000E+00 0. -1.
         11    1    3    3    0    0 -0.60974338422E+00  0.50459754346E+00 -0.17830171289E+00  0.81129368136E+00  0.51100000000E-03 0. -1.
        -11    1    3    3    0    0  0.17361503411E+01  0.17875864335E+02  0.84228746826E+01  0.19836974616E+02  0.51100000000E-03 0.  1.
         12    1    3    3    0    0  0.20815469060E+02  0.14592073221E+02  0.95033445333E+01  0.27139010859E+02  0.00000000000E+00 0. -1.
</event>
<event>
 7    1  0.2387817E-009  0.4778727E+02  0.7816164E-02  0.1312668E+00
        -11   -1    0    0    0    0  0.00000000000E+00  0.00000000000E+00  0.45593999997E+02  0.45594000000E+02  0.51100000000E-03 0.  1.
         11   -1    0    0    0    0 -0.00000000000E+00 -0.00000000000E+00 -0.45593999997E+02  0.45594000000E+02  0.51100000000E-03 0. -1.
    9900012    2    1    2    0    0 -0.32730982364E+02 -0.59961234972E+01  0.27863102470E+02  0.47787272094E+02  0.20000004786E+02 0.  0.
         12    1    1    2    0    0  0.32730982364E+02  0.59961234972E+01 -0.27863102470E+02  0.43400727906E+02  0.00000000000E+00 0. -1.
         11    1    3    3    0    0 -0.40097211556E+00  0.10292608928E+01  0.11760475237E+01  0.16134573629E+01  0.51100000000E-03 0. -1.
        -11    1    3    3    0    0 -0.21622379464E+02  0.43499779284E+01  0.15896686623E+02  0.27187391333E+02  0.51100000000E-03 0.  1.
         12    1    3    3    0    0 -0.10707630785E+02 -0.11375362318E+02  0.10790368323E+02  0.18986423398E+02  0.00000000000E+00 0. -1.
</event>
<event>
 7    1  0.2387817E-009  0.4778724E+02  0.7816164E-02  0.1312668E+00
        -11   -1    0    0    0    0  0.00000000000E+00  0.00000000000E+00  0.45593999997E+02  0.45594000000E+02  0.51100000000E-03 0.  1.
         11   -1    0    0    0    0 -0.00000000000E+00 -0.00000000000E+00 -0.45593999997E+02  0.45594000000E+02  0.51100000000E-03 0. -1.
    9900012    2    1    2    0    0 -0.19299685765E+01 -0.41268114595E+02  0.13298253252E+02  0.47787244241E+02  0.19999877792E+02 0.  0.
         12    1    1    2    0    0  0.19299685765E+01  0.41268114595E+02 -0.13298253252E+02  0.43400755759E+02  0.00000000000E+00 0. -1.
         11    1    3    3    0    0 -0.62752246112E+01 -0.21720605904E+02  0.12094698772E+01  0.22641245160E+02  0.51100000000E-03 0. -1.
        -11    1    3    3    0    0  0.37094031879E+01 -0.49896003401E+01  0.75775919459E-02  0.62173821858E+01  0.51100000000E-03 0.  1.
        -12    1    3    3    0    0  0.63585284675E+00 -0.14557908351E+02  0.12081205783E+02  0.18928616895E+02  0.00000000000E+00 0.  1.
</event>
<event>
 7    1  0.2387817E-009  0.4778727E+02  0.7816164E-02  0.1312668E+00
        -11   -1    0    0    0    0  0.00000000000E+00  0.00000000000E+00  0.45593999997E+02  0.45594000000E+02  0.51100000000E-03 0. -1.
         11   -1    0    0    0    0 -0.00000000000E+00 -0.00000000000E+00 -0.45593999997E+02  0.45594000000E+02  0.51100000000E-03 0.  1.
    9900012    2    1    2    0    0 -0.39683413070E+02  0.14833012081E+02 -0.94250592169E+01  0.47787271186E+02  0.20000000647E+02 0.  0.
         12    1    1    2    0    0  0.39683413070E+02 -0.14833012081E+02  0.94250592169E+01  0.43400728814E+02  0.00000000000E+00 0. -1.
         11    1    3    3    0    0 -0.90259648797E+01 -0.19588717065E+01  0.56704540292E+00  0.92534729222E+01  0.51100000000E-03 0. -1.
        -11    1    3    3    0    0 -0.12072879236E+02  0.53537364777E+01  0.24227793077E+01  0.13427090793E+02  0.51100000000E-03 0.  1.
        -12    1    3    3    0    0 -0.18584568954E+02  0.11438147310E+02 -0.12414883928E+02  0.25106707471E+02  0.00000000000E+00 0.  1.
</event>
<event>
 7    1  0.2387817E-009  0.4778727E+02  0.7816164E-02  0.1312668E+00
        -11   -1    0    0    0    0  0.00000000000E+00  0.00000000000E+00  0.45593999997E+02  0.45594000000E+02  0.51100000000E-03 0.  1.
         11   -1    0    0    0    0 -0.00000000000E+00 -0.00000000000E+00 -0.45593999997E+02  0.45594000000E+02  0.51100000000E-03 0. -1.
    9900012    2    1    2    0    0 -0.11119518868E+02 -0.38282299727E+02  0.17159402317E+02  0.47787271203E+02  0.20000000722E+02 0.  0.
         12    1    1    2    0    0  0.11119518868E+02  0.38282299727E+02 -0.17159402317E+02  0.43400728797E+02  0.00000000000E+00 0. -1.
         11    1    3    3    0    0  0.20365210696E+01 -0.59388288506E+01  0.22805403417E+01  0.66796684570E+01  0.51100000000E-03 0. -1.
        -11    1    3    3    0    0  0.17438995290E+01 -0.33509025313E+01  0.63902526868E+01  0.74232784539E+01  0.51100000000E-03 0.  1.
         12    1    3    3    0    0 -0.14899939466E+02 -0.28992568345E+02  0.84886092889E+01  0.33684324292E+02  0.00000000000E+00 0. -1.
</event>
<event>
 7    1  0.2387817E-009  0.4778727E+02  0.7816164E-02  0.1312668E+00
        -11   -1    0    0    0    0  0.00000000000E+00  0.00000000000E+00  0.45593999997E+02  0.45594000000E+02  0.51100000000E-03 0. -1.
         11   -1    0    0    0    0 -0.00000000000E+00 -0.00000000000E+00 -0.45593999997E+02  0.45594000000E+02  0.51100000000E-03 0.  1.
    9900012    2    1    2    0    0 -0.36430394233E+02 -0.21326450608E+02 -0.10081270017E+02  0.47787272764E+02  0.20000007838E+02 0.  0.
         12    1    1    2    0    0  0.36430394233E+02  0.21326450608E+02  0.10081270017E+02  0.43400727236E+02  0.00000000000E+00 0. -1.
         11    1    3    3    0    0 -0.18595886387E+01 -0.12389217028E+01 -0.49112382123E+01  0.53956702948E+01  0.51100000000E-03 0. -1.
        -11    1    3    3    0    0 -0.11097107469E+02 -0.38658974483E+01 -0.72076194199E+01  0.13785526294E+02  0.51100000000E-03 0.  1.
         12    1    3    3    0    0 -0.23473698126E+02 -0.16221631456E+02  0.20375876147E+01  0.28606076174E+02  0.00000000000E+00 0. -1.
</event>
<event>
 7    1  0.2387817E-009  0.4778724E+02  0.7816164E-02  0.1312668E+00
        -11   -1    0    0    0    0  0.00000000000E+00  0.00000000000E+00  0.45593999997E+02  0.45594000000E+02  0.51100000000E-03 0.  1.
         11   -1    0    0    0    0 -0.00000000000E+00 -0.00000000000E+00 -0.45593999997E+02  0.45594000000E+02  0.51100000000E-03 0. -1.
    9900012    2    1    2    0    0  0.16014860192E+02 -0.38304157632E+02  0.12646797627E+02  0.47787242759E+02  0.19999871034E+02 0.  0.
         12    1    1    2    0    0 -0.16014860192E+02  0.38304157632E+02 -0.12646797627E+02  0.43400757241E+02  0.00000000000E+00 0. -1.
         11    1    3    3    0    0  0.12929306465E+02 -0.15197074907E+02 -0.38302733931E-02  0.19952896189E+02  0.51100000000E-03 0. -1.
        -11    1    3    3    0    0 -0.45426120104E+00 -0.52061459516E+01 -0.63257377613E+00  0.52640724493E+01  0.51100000000E-03 0.  1.
        -12    1    3    3    0    0  0.35398149281E+01 -0.17900936774E+02  0.13283201676E+02  0.22570274121E+02  0.00000000000E+00 0.  1.
</event>
<event>
 7    1  0.2387817E-009  0.4778727E+02  0.7816164E-02  0.1312668E+00
        -11   -1    0    0    0    0  0.00000000000E+00  0.00000000000E+00  0.45593999997E+02  0.45594000000E+02  0.51100000000E-03 0. -1.
         11   -1    0    0    0    0 -0.00000000000E+00 -0.00000000000E+00 -0.45593999997E+02  0.45594000000E+02  0.51100000000E-03 0.  1.
    9900012    2    1    2    0    0 -0.37374090366E+01  0.17045272462E+02 -0.39738063391E+02  0.47787271645E+02  0.20000002740E+02 0.  0.
         12    1    1    2    0    0  0.37374090366E+01 -0.17045272462E+02  0.39738063391E+02  0.43400728355E+02  0.00000000000E+00 0. -1.
         11    1    3    3    0    0 -0.32815215629E+01  0.37088244094E+01 -0.18861973637E+02  0.19501225910E+02  0.51100000000E-03 0. -1.
        -11    1    3    3    0    0 -0.57804403576E+01  0.18957018531E+01 -0.95874127408E+01  0.11354543565E+02  0.51100000000E-03 0.  1.
        -12    1    3    3    0    0  0.53245528839E+01  0.11440746200E+02 -0.11288677014E+02  0.16931502170E+02  0.00000000000E+00 0.  1.
</event>
<event>
 7    1  0.2387817E-009  0.4778727E+02  0.7816164E-02  0.1312668E+00
        -11   -1    0    0    0    0  0.00000000000E+00  0.00000000000E+00  0.45593999997E+02  0.45594000000E+02  0.51100000000E-03 0. -1.
         11   -1    0    0    0    0 -0.00000000000E+00 -0.00000000000E+00 -0.45593999997E+02  0.45594000000E+02  0.51100000000E-03 0.  1.
    9900012    2    1    2    0    0 -0.22325248566E+02  0.37218319114E+02 -0.59752125917E-01  0.47787267616E+02  0.19999984366E+02 0.  0.
         12    1    1    2    0    0  0.22325248566E+02 -0.37218319114E+02  0.59752125917E-01  0.43400732384E+02  0.00000000000E+00 0. -1.
         11    1    3    3    0    0 -0.52074248183E+01  0.20207696694E+02  0.20263409545E+00  0.20868860528E+02  0.51100000000E-03 0. -1.
        -11    1    3    3    0    0 -0.15428564928E+02  0.18510345540E+02 -0.18335178347E+01  0.24166822209E+02  0.51100000000E-03 0.  1.
        -12    1    3    3    0    0 -0.16892588200E+01 -0.14997231204E+01  0.15711316133E+01  0.27515848788E+01  0.00000000000E+00 0.  1.
</event>
<event>
 7    1  0.2387817E-009  0.4778727E+02  0.7816164E-02  0.1312668E+00
        -11   -1    0    0    0    0  0.00000000000E+00  0.00000000000E+00  0.45593999997E+02  0.45594000000E+02  0.51100000000E-03 0.  1.
         11   -1    0    0    0    0 -0.00000000000E+00 -0.00000000000E+00 -0.45593999997E+02  0.45594000000E+02  0.51100000000E-03 0. -1.
    9900012    2    1    2    0    0  0.83293625596E+01 -0.13049398644E+02  0.40545755561E+02  0.47787269826E+02  0.19999994446E+02 0.  0.
         12    1    1    2    0    0 -0.83293625596E+01  0.13049398644E+02 -0.40545755561E+02  0.43400730174E+02  0.00000000000E+00 0. -1.
         11    1    3    3    0    0  0.65333095791E+01 -0.80431701507E+01  0.11528562449E+02  0.15501111977E+02  0.51100000000E-03 0.  1.
        -11    1    3    3    0    0  0.67420794224E+01 -0.10350859708E+01  0.20898022055E+02  0.21983047195E+02  0.51100000000E-03 0. -1.
         12    1    3    3    0    0 -0.49460264419E+01 -0.39711425222E+01  0.81191710563E+01  0.10303110653E+02  0.00000000000E+00 0. -1.
</event>
<event>
 7    1  0.2387817E-009  0.4778727E+02  0.7816164E-02  0.1312668E+00
        -11   -1    0    0    0    0  0.00000000000E+00  0.00000000000E+00  0.45593999997E+02  0.45594000000E+02  0.51100000000E-03 0. -1.
         11   -1    0    0    0    0 -0.00000000000E+00 -0.00000000000E+00 -0.45593999997E+02  0.45594000000E+02  0.51100000000E-03 0.  1.
    9900012    2    1    2    0    0 -0.42797075959E+02 -0.26295145033E+01  0.67170748105E+01  0.47787272458E+02  0.20000006443E+02 0.  0.
         12    1    1    2    0    0  0.42797075959E+02  0.26295145033E+01 -0.67170748105E+01  0.43400727542E+02  0.00000000000E+00 0. -1.
         11    1    3    3    0    0 -0.15920206690E+01 -0.40898858762E+00 -0.34215842708E+01  0.37959242167E+01  0.51100000000E-03 0. -1.
        -11    1    3    3    0    0 -0.21188292439E+02  0.31896813680E+01  0.13465384269E+01  0.21469302963E+02  0.51100000000E-03 0.  1.
        -12    1    3    3    0    0 -0.20016762851E+02 -0.54102072838E+01  0.87921206545E+01  0.22522045278E+02  0.00000000000E+00 0.  1.
</event>
<event>
 7    1  0.2387817E-009  0.4778729E+02  0.7816164E-02  0.1312668E+00
        -11   -1    0    0    0    0  0.00000000000E+00  0.00000000000E+00  0.45593999997E+02  0.45594000000E+02  0.51100000000E-03 0.  1.
         11   -1    0    0    0    0 -0.00000000000E+00 -0.00000000000E+00 -0.45593999997E+02  0.45594000000E+02  0.51100000000E-03 0. -1.
    9900012    2    1    2    0    0  0.24289082183E+02 -0.17587672906E+02  0.31374133310E+02  0.47787285807E+02  0.20000067309E+02 0.  0.
         12    1    1    2    0    0 -0.24289082183E+02  0.17587672906E+02 -0.31374133310E+02  0.43400714193E+02  0.00000000000E+00 0. -1.
         11    1    3    3    0    0  0.17730492232E+02 -0.61221033310E+01  0.14574918730E+02  0.23754552411E+02  0.51100000000E-03 0.  1.
        -11    1    3    3    0    0  0.10059487843E+01 -0.98993456660E-01 -0.14865315180E+01  0.17976398071E+01  0.51100000000E-03 0. -1.
        -12    1    3    3    0    0  0.55526411662E+01 -0.11366576118E+02  0.18285746098E+02  0.22235093589E+02  0.00000000000E+00 0.  1.
</event>
<event>
 7    1  0.2387817E-009  0.4778728E+02  0.7816164E-02  0.1312668E+00
        -11   -1    0    0    0    0  0.00000000000E+00  0.00000000000E+00  0.45593999997E+02  0.45594000000E+02  0.51100000000E-03 0.  1.
         11   -1    0    0    0    0 -0.00000000000E+00 -0.00000000000E+00 -0.45593999997E+02  0.45594000000E+02  0.51100000000E-03 0. -1.
    9900012    2    1    2    0    0 -0.56559338494E+01  0.73762083085E+01  0.42393689276E+02  0.47787275039E+02  0.20000018213E+02 0.  0.
         12    1    1    2    0    0  0.56559338494E+01 -0.73762083085E+01 -0.42393689276E+02  0.43400724961E+02  0.00000000000E+00 0. -1.
         11    1    3    3    0    0 -0.59792198868E+00  0.23381059272E+01  0.13622457191E-01  0.24133868036E+01  0.51100000000E-03 0. -1.
        -11    1    3    3    0    0 -0.30982204701E+01 -0.49171041193E+01  0.11782061382E+02  0.13137497999E+02  0.51100000000E-03 0.  1.
        -12    1    3    3    0    0 -0.19597913907E+01  0.99552065006E+01  0.30598005437E+02  0.32236390237E+02  0.00000000000E+00 0.  1.
</event>
<event>
 7    1  0.2387817E-009  0.4778727E+02  0.7816164E-02  0.1312668E+00
        -11   -1    0    0    0    0  0.00000000000E+00  0.00000000000E+00  0.45593999997E+02  0.45594000000E+02  0.51100000000E-03 0.  1.
         11   -1    0    0    0    0 -0.00000000000E+00 -0.00000000000E+00 -0.45593999997E+02  0.45594000000E+02  0.51100000000E-03 0. -1.
    9900012    2    1    2    0    0 -0.36606491524E+02  0.92334200213E+00  0.23296685739E+02  0.47787270184E+02  0.19999996075E+02 0.  0.
         12    1    1    2    0    0  0.36606491524E+02 -0.92334200213E+00 -0.23296685739E+02  0.43400729816E+02  0.00000000000E+00 0. -1.
         11    1    3    3    0    0 -0.47744273119E+01 -0.20423684356E+01  0.62420126059E+01  0.81196765094E+01  0.51100000000E-03 0. -1.
        -11    1    3    3    0    0 -0.23521098331E+02 -0.24157387923E+01  0.18006878477E+02  0.29720792947E+02  0.51100000000E-03 0.  1.
         12    1    3    3    0    0 -0.83109658813E+01  0.53814492300E+01 -0.95220534424E+00  0.99468007275E+01  0.00000000000E+00 0. -1.
</event>
<event>
 7    1  0.2387817E-009  0.4778728E+02  0.7816164E-02  0.1312668E+00
        -11   -1    0    0    0    0  0.00000000000E+00  0.00000000000E+00  0.45593999997E+02  0.45594000000E+02  0.51100000000E-03 0. -1.
         11   -1    0    0    0    0 -0.00000000000E+00 -0.00000000000E+00 -0.45593999997E+02  0.45594000000E+02  0.51100000000E-03 0.  1.
    9900012    2    1    2    0    0 -0.25725017018E+02 -0.32314401110E+02 -0.13327633852E+02  0.47787276000E+02  0.20000022592E+02 0.  0.
         12    1    1    2    0    0  0.25725017018E+02  0.32314401110E+02  0.13327633852E+02  0.43400724000E+02  0.00000000000E+00 0. -1.
         11    1    3    3    0    0 -0.82442551844E+01 -0.41686744714E+01 -0.55315077502E+01  0.10767690962E+02  0.51100000000E-03 0.  1.
        -11    1    3    3    0    0  0.22006372404E+01 -0.31955696052E+01 -0.29492702872E+01  0.48736705729E+01  0.51100000000E-03 0. -1.
        -12    1    3    3    0    0 -0.19681399074E+02 -0.24950157033E+02 -0.48468558149E+01  0.32145914465E+02  0.00000000000E+00 0.  1.
</event>
<event>
 7    1  0.2387817E-009  0.4778727E+02  0.7816164E-02  0.1312668E+00
        -11   -1    0    0    0    0  0.00000000000E+00  0.00000000000E+00  0.45593999997E+02  0.45594000000E+02  0.51100000000E-03 0. -1.
         11   -1    0    0    0    0 -0.00000000000E+00 -0.00000000000E+00 -0.45593999997E+02  0.45594000000E+02  0.51100000000E-03 0.  1.
    9900012    2    1    2    0    0 -0.28559426087E+02 -0.11854821738E+02 -0.30453995356E+02  0.47787269015E+02  0.19999990748E+02 0.  0.
         12    1    1    2    0    0  0.28559426087E+02  0.11854821738E+02  0.30453995356E+02  0.43400730985E+02  0.00000000000E+00 0. -1.
         11    1    3    3    0    0 -0.61198209332E+00 -0.99448607156E+00 -0.57023289398E+01  0.58206597760E+01  0.51100000000E-03 0. -1.
        -11    1    3    3    0    0 -0.13595929970E+02 -0.10194984027E+02 -0.21194168839E+02  0.27165783701E+02  0.51100000000E-03 0.  1.
        -12    1    3    3    0    0 -0.14351514024E+02 -0.66535163950E+00 -0.35574975768E+01  0.14800825538E+02  0.00000000000E+00 0.  1.
</event>
<event>
 7    1  0.2387817E-009  0.4778728E+02  0.7816164E-02  0.1312668E+00
        -11   -1    0    0    0    0  0.00000000000E+00  0.00000000000E+00  0.45593999997E+02  0.45594000000E+02  0.51100000000E-03 0. -1.
         11   -1    0    0    0    0 -0.00000000000E+00 -0.00000000000E+00 -0.45593999997E+02  0.45594000000E+02  0.51100000000E-03 0.  1.
    9900012    2    1    2    0    0 -0.13361172716E+02  0.40966896409E+02  0.51783539201E+01  0.47787275501E+02  0.20000020317E+02 0.  0.
         12    1    1    2    0    0  0.13361172716E+02 -0.40966896409E+02 -0.51783539201E+01  0.43400724499E+02  0.00000000000E+00 0. -1.
         11    1    3    3    0    0 -0.92959274797E+01  0.19823020621E+02  0.67868851108E+01  0.22922221184E+02  0.51100000000E-03 0. -1.
        -11    1    3    3    0    0 -0.46247592257E+01  0.20682329296E+02  0.19039721858E+01  0.21278445746E+02  0.51100000000E-03 0.  1.
         12    1    3    3    0    0  0.55951398965E+00  0.46154649238E+00 -0.35125033765E+01  0.35866085707E+01  0.00000000000E+00 0. -1.
</event>
<event>
 7    1  0.2387817E-009  0.4778727E+02  0.7816164E-02  0.1312668E+00
        -11   -1    0    0    0    0  0.00000000000E+00  0.00000000000E+00  0.45593999997E+02  0.45594000000E+02  0.51100000000E-03 0.  1.
         11   -1    0    0    0    0 -0.00000000000E+00 -0.00000000000E+00 -0.45593999997E+02  0.45594000000E+02  0.51100000000E-03 0. -1.
    9900012    2    1    2    0    0 -0.58255801445E+01 -0.20469427640E+02  0.37824439436E+02  0.47787273386E+02  0.20000010678E+02 0.  0.
         12    1    1    2    0    0  0.58255801445E+01  0.20469427640E+02 -0.37824439436E+02  0.43400726614E+02  0.00000000000E+00 0. -1.
         11    1    3    3    0    0  0.26908565255E+01 -0.44021648572E+01  0.93204139559E+01  0.10653162950E+02  0.51100000000E-03 0. -1.
        -11    1    3    3    0    0  0.39989676821E+01 -0.51969028696E+01  0.44638188763E+01  0.79325419117E+01  0.51100000000E-03 0.  1.
        -12    1    3    3    0    0 -0.12515404352E+02 -0.10870359913E+02  0.24040206604E+02  0.29201568525E+02  0.00000000000E+00 0.  1.
</event>
<event>
 7    1  0.2387817E-009  0.4778729E+02  0.7816164E-02  0.1312668E+00
        -11   -1    0    0    0    0  0.00000000000E+00  0.00000000000E+00  0.45593999997E+02  0.45594000000E+02  0.51100000000E-03 0.  1.
         11   -1    0    0    0    0 -0.00000000000E+00 -0.00000000000E+00 -0.45593999997E+02  0.45594000000E+02  0.51100000000E-03 0. -1.
    9900012    2    1    2    0    0  0.74737067197E+01  0.17917691647E+02  0.38816516427E+02  0.47787286715E+02  0.20000071448E+02 0.  0.
         12    1    1    2    0    0 -0.74737067197E+01 -0.17917691647E+02 -0.38816516427E+02  0.43400713285E+02  0.00000000000E+00 0. -1.
         11    1    3    3    0    0  0.64653154673E+01  0.23441633142E+01  0.14747153745E+02  0.16271876031E+02  0.51100000000E-03 0. -1.
        -11    1    3    3    0    0  0.34156267385E+01  0.77092540848E+01  0.21182413281E+02  0.22798985443E+02  0.51100000000E-03 0.  1.
         12    1    3    3    0    0 -0.24072354861E+01  0.78642742478E+01  0.28869494012E+01  0.87164252407E+01  0.00000000000E+00 0. -1.
</event>
<event>
 7    1  0.2387817E-009  0.4778727E+02  0.7816164E-02  0.1312668E+00
        -11   -1    0    0    0    0  0.00000000000E+00  0.00000000000E+00  0.45593999997E+02  0.45594000000E+02  0.51100000000E-03 0.  1.
         11   -1    0    0    0    0 -0.00000000000E+00 -0.00000000000E+00 -0.45593999997E+02  0.45594000000E+02  0.51100000000E-03 0. -1.
    9900012    2    1    2    0    0  0.29734625676E+02 -0.31402968518E+02  0.36508610936E+01  0.47787272096E+02  0.20000004796E+02 0.  0.
         12    1    1    2    0    0 -0.29734625676E+02  0.31402968518E+02 -0.36508610936E+01  0.43400727904E+02  0.00000000000E+00 0. -1.
         11    1    3    3    0    0  0.99111832325E+01 -0.20126151228E+02  0.18321270770E+01  0.22508891714E+02  0.51100000000E-03 0. -1.
        -11    1    3    3    0    0  0.11191918209E+02 -0.95730707430E+01  0.55272632149E+01  0.15730650195E+02  0.51100000000E-03 0.  1.
         12    1    3    3    0    0  0.86315242350E+01 -0.17037465471E+01 -0.37085291982E+01  0.95477301873E+01  0.00000000000E+00 0. -1.
</event>
<event>
 7    1  0.2387817E-009  0.4778727E+02  0.7816164E-02  0.1312668E+00
        -11   -1    0    0    0    0  0.00000000000E+00  0.00000000000E+00  0.45593999997E+02  0.45594000000E+02  0.51100000000E-03 0. -1.
         11   -1    0    0    0    0 -0.00000000000E+00 -0.00000000000E+00 -0.45593999997E+02  0.45594000000E+02  0.51100000000E-03 0.  1.
    9900012    2    1    2    0    0  0.34866174605E+02  0.23084912801E+02 -0.11621522891E+02  0.47787272760E+02  0.20000007824E+02 0.  0.
         12    1    1    2    0    0 -0.34866174605E+02 -0.23084912801E+02  0.11621522891E+02  0.43400727240E+02  0.00000000000E+00 0. -1.
         11    1    3    3    0    0  0.76106714355E+01  0.19993296258E+01  0.28863498224E+01  0.83815663340E+01  0.51100000000E-03 0. -1.
        -11    1    3    3    0    0  0.87287594402E+01  0.12257508281E+02 -0.15332576557E+01  0.15125760474E+02  0.51100000000E-03 0.  1.
        -12    1    3    3    0    0  0.18526743729E+02  0.88280748943E+01 -0.12974615058E+02  0.24279945952E+02  0.00000000000E+00 0.  1.
</event>
<event>
 7    1  0.2387817E-009  0.4778727E+02  0.7816164E-02  0.1312668E+00
        -11   -1    0    0    0    0  0.00000000000E+00  0.00000000000E+00  0.45593999997E+02  0.45594000000E+02  0.51100000000E-03 0. -1.
         11   -1    0    0    0    0 -0.00000000000E+00 -0.00000000000E+00 -0.45593999997E+02  0.45594000000E+02  0.51100000000E-03 0.  1.
    9900012    2    1    2    0    0 -0.37055872022E+02  0.34588577673E+00 -0.22591277563E+02  0.47787272930E+02  0.20000008596E+02 0.  0.
         12    1    1    2    0    0  0.37055872022E+02 -0.34588577673E+00  0.22591277563E+02  0.43400727070E+02  0.00000000000E+00 0. -1.
         11    1    3    3    0    0 -0.77248336407E+01  0.39084965354E+00 -0.12775539533E+01  0.78395129054E+01  0.51100000000E-03 0. -1.
        -11    1    3    3    0    0 -0.24506282824E+02 -0.52937170779E+00 -0.24083417600E+02  0.34363485502E+02  0.51100000000E-03 0.  1.
         12    1    3    3    0    0 -0.48247555581E+01  0.48440783098E+00  0.27696939911E+01  0.55842745228E+01  0.00000000000E+00 0. -1.
</event>
<event>
 7    1  0.2387817E-009  0.4778727E+02  0.7816164E-02  0.1312668E+00
        -11   -1    0    0    0    0  0.00000000000E+00  0.00000000000E+00  0.45593999997E+02  0.45594000000E+02  0.51100000000E-03 0. -1.
         11   -1    0    0    0    0 -0.00000000000E+00 -0.00000000000E+00 -0.45593999997E+02  0.45594000000E+02  0.51100000000E-03 0.  1.
    9900012    2    1    2    0    0 -0.42332551132E+02  0.34288297428E+01 -0.89342924264E+01  0.47787270283E+02  0.19999996530E+02 0.  0.
         12    1    1    2    0    0  0.42332551132E+02 -0.34288297428E+01  0.89342924264E+01  0.43400729717E+02  0.00000000000E+00 0. -1.
         11    1    3    3    0    0 -0.13834108743E+02 -0.40030751747E+01 -0.39487257200E+01  0.14933171487E+02  0.51100000000E-03 0. -1.
        -11    1    3    3    0    0 -0.61120441536E+01 -0.21478628697E+01 -0.55006000186E+01  0.84986469198E+01  0.51100000000E-03 0.  1.
         12    1    3    3    0    0 -0.22386398235E+02  0.95797677872E+01  0.51503331214E+00  0.24355451877E+02  0.00000000000E+00 0. -1.
</event>
<event>
 7    1  0.2387817E-009  0.4778727E+02  0.7816164E-02  0.1312668E+00
        -11   -1    0    0    0    0  0.00000000000E+00  0.00000000000E+00  0.45593999997E+02  0.45594000000E+02  0.51100000000E-03 0.  1.
         11   -1    0    0    0    0 -0.00000000000E+00 -0.00000000000E+00 -0.45593999997E+02  0.45594000000E+02  0.51100000000E-03 0. -1.
    9900012    2    1    2    0    0  0.21742490922E+02  0.26044446867E+02  0.27066105047E+02  0.47787272281E+02  0.20000005640E+02 0.  0.
         12    1    1    2    0    0 -0.21742490922E+02 -0.26044446867E+02 -0.27066105047E+02  0.43400727719E+02  0.00000000000E+00 0. -1.
         11    1    3    3    0    0  0.27593177806E+01  0.17689819570E+00 -0.14705286860E+00  0.27688901014E+01  0.51100000000E-03 0. -1.
        -11    1    3    3    0    0  0.15405335092E+02  0.25718790771E+02  0.17609614554E+02  0.34768938336E+02  0.51100000000E-03 0.  1.
        -12    1    3    3    0    0  0.35778380500E+01  0.14875790048E+00  0.96035433614E+01  0.10249443844E+02  0.00000000000E+00 0.  1.
</event>
<event>
 7    1  0.2387817E-009  0.4778728E+02  0.7816164E-02  0.1312668E+00
        -11   -1    0    0    0    0  0.00000000000E+00  0.00000000000E+00  0.45593999997E+02  0.45594000000E+02  0.51100000000E-03 0.  1.
         11   -1    0    0    0    0 -0.00000000000E+00 -0.00000000000E+00 -0.45593999997E+02  0.45594000000E+02  0.51100000000E-03 0. -1.
    9900012    2    1    2    0    0  0.40910936999E+02 -0.66776901927E+01 -0.12857933257E+02  0.47787276963E+02  0.20000026986E+02 0.  0.
         12    1    1    2    0    0 -0.40910936999E+02  0.66776901927E+01  0.12857933257E+02  0.43400723037E+02  0.00000000000E+00 0. -1.
         11    1    3    3    0    0  0.10224520599E+02  0.27153057148E+01 -0.56318419963E+01  0.11984629787E+02  0.51100000000E-03 0. -1.
        -11    1    3    3    0    0  0.21156059670E+02 -0.35810497967E+00 -0.77966077160E+00  0.21173449675E+02  0.51100000000E-03 0.  1.
        -12    1    3    3    0    0  0.95303567301E+01 -0.90348909277E+01 -0.64464304895E+01  0.14629197501E+02  0.00000000000E+00 0.  1.
</event>
<event>
 7    1  0.2387817E-009  0.4778726E+02  0.7816164E-02  0.1312668E+00
        -11   -1    0    0    0    0  0.00000000000E+00  0.00000000000E+00  0.45593999997E+02  0.45594000000E+02  0.51100000000E-03 0.  1.
         11   -1    0    0    0    0 -0.00000000000E+00 -0.00000000000E+00 -0.45593999997E+02  0.45594000000E+02  0.51100000000E-03 0. -1.
    9900012    2    1    2    0    0  0.23915155776E+02  0.19797220107E+02  0.30327536234E+02  0.47787262059E+02  0.19999959031E+02 0.  0.
         12    1    1    2    0    0 -0.23915155776E+02 -0.19797220107E+02 -0.30327536234E+02  0.43400737941E+02  0.00000000000E+00 0. -1.
         11    1    3    3    0    0  0.11786845930E+02  0.76924080795E+01  0.41396083881E+01  0.14671033941E+02  0.51100000000E-03 0. -1.
        -11    1    3    3    0    0  0.11520988290E+02  0.53774946911E+01  0.12385813338E+02  0.17749901201E+02  0.51100000000E-03 0.  1.
         12    1    3    3    0    0  0.60732155700E+00  0.67273173367E+01  0.13802114508E+02  0.15366326917E+02  0.00000000000E+00 0. -1.
</event>
<event>
 7    1  0.2387817E-009  0.4778727E+02  0.7816164E-02  0.1312668E+00
        -11   -1    0    0    0    0  0.00000000000E+00  0.00000000000E+00  0.45593999997E+02  0.45594000000E+02  0.51100000000E-03 0.  1.
         11   -1    0    0    0    0 -0.00000000000E+00 -0.00000000000E+00 -0.45593999997E+02  0.45594000000E+02  0.51100000000E-03 0. -1.
    9900012    2    1    2    0    0  0.69302540074E+01 -0.31926935369E+02  0.28570360206E+02  0.47787272991E+02  0.20000008874E+02 0.  0.
         12    1    1    2    0    0 -0.69302540074E+01  0.31926935369E+02 -0.28570360206E+02  0.43400727009E+02  0.00000000000E+00 0. -1.
         11    1    3    3    0    0  0.25020524106E+01 -0.10736672318E+02  0.25686199023E+01  0.11319638121E+02  0.51100000000E-03 0. -1.
        -11    1    3    3    0    0 -0.19479646866E+01 -0.18048326277E+02  0.21094104556E+02  0.27829802283E+02  0.51100000000E-03 0.  1.
         12    1    3    3    0    0  0.63761662834E+01 -0.31419367731E+01  0.49076357477E+01  0.86378325865E+01  0.00000000000E+00 0. -1.
</event>
<event>
 7    1  0.2387817E-009  0.4778726E+02  0.7816164E-02  0.1312668E+00
        -11   -1    0    0    0    0  0.00000000000E+00  0.00000000000E+00  0.45593999997E+02  0.45594000000E+02  0.51100000000E-03 0.  1.
         11   -1    0    0    0    0 -0.00000000000E+00 -0.00000000000E+00 -0.45593999997E+02  0.45594000000E+02  0.51100000000E-03 0. -1.
    9900012    2    1    2    0    0  0.19715400902E+02 -0.29281720131E+02  0.25248928351E+02  0.47787256349E+02  0.19999932999E+02 0.  0.
         12    1    1    2    0    0 -0.19715400902E+02  0.29281720131E+02 -0.25248928351E+02  0.43400743651E+02  0.00000000000E+00 0. -1.
         11    1    3    3    0    0  0.24623955777E+01 -0.70623408007E+01  0.37969164723E+01  0.83878855813E+01  0.51100000000E-03 0. -1.
        -11    1    3    3    0    0  0.18145726960E+02 -0.20092177931E+02  0.23843919402E+02  0.36076245836E+02  0.51100000000E-03 0.  1.
        -12    1    3    3    0    0 -0.89272163622E+00 -0.21272014001E+01 -0.23919075232E+01  0.33231249323E+01  0.00000000000E+00 0.  1.
</event>
<event>
 7    1  0.2387817E-009  0.4778727E+02  0.7816164E-02  0.1312668E+00
        -11   -1    0    0    0    0  0.00000000000E+00  0.00000000000E+00  0.45593999997E+02  0.45594000000E+02  0.51100000000E-03 0.  1.
         11   -1    0    0    0    0 -0.00000000000E+00 -0.00000000000E+00 -0.45593999997E+02  0.45594000000E+02  0.51100000000E-03 0. -1.
    9900012    2    1    2    0    0 -0.36685767125E+02 -0.23067308923E+02 -0.23826112816E+01  0.47787273197E+02  0.20000009814E+02 0.  0.
         12    1    1    2    0    0  0.36685767125E+02  0.23067308923E+02  0.23826112816E+01  0.43400726803E+02  0.00000000000E+00 0. -1.
         11    1    3    3    0    0 -0.99152900434E+01 -0.61276422564E+01 -0.91769444168E+01  0.14835002034E+02  0.51100000000E-03 0. -1.
        -11    1    3    3    0    0 -0.61302822861E+01 -0.55397766695E+01 -0.48024769659E+00  0.82764802040E+01  0.51100000000E-03 0.  1.
         12    1    3    3    0    0 -0.20640194796E+02 -0.11399889997E+02  0.72745808318E+01  0.24675790959E+02  0.00000000000E+00 0. -1.
</event>
<event>
 7    1  0.2387817E-009  0.4778727E+02  0.7816164E-02  0.1312668E+00
        -11   -1    0    0    0    0  0.00000000000E+00  0.00000000000E+00  0.45593999997E+02  0.45594000000E+02  0.51100000000E-03 0.  1.
         11   -1    0    0    0    0 -0.00000000000E+00 -0.00000000000E+00 -0.45593999997E+02  0.45594000000E+02  0.51100000000E-03 0. -1.
    9900012    2    1    2    0    0 -0.69330898168E+01 -0.26662195646E+02  0.33536291733E+02  0.47787271040E+02  0.19999999978E+02 0.  0.
         12    1    1    2    0    0  0.69330898168E+01  0.26662195646E+02 -0.33536291733E+02  0.43400728960E+02  0.00000000000E+00 0. -1.
         11    1    3    3    0    0 -0.20626640071E+01 -0.14916596859E+01  0.30919119761E+00  0.25642213014E+01  0.51100000000E-03 0. -1.
        -11    1    3    3    0    0 -0.80823088682E+01 -0.17350833758E+02  0.31079596872E+02  0.36500910820E+02  0.51100000000E-03 0.  1.
         12    1    3    3    0    0  0.32118830586E+01 -0.78197022027E+01  0.21475036634E+01  0.87221389180E+01  0.00000000000E+00 0. -1.
</event>
<event>
 7    1  0.2387817E-009  0.4778727E+02  0.7816164E-02  0.1312668E+00
        -11   -1    0    0    0    0  0.00000000000E+00  0.00000000000E+00  0.45593999997E+02  0.45594000000E+02  0.51100000000E-03 0. -1.
         11   -1    0    0    0    0 -0.00000000000E+00 -0.00000000000E+00 -0.45593999997E+02  0.45594000000E+02  0.51100000000E-03 0.  1.
    9900012    2    1    2    0    0  0.64438002537E+01  0.15942212432E+02 -0.39849043601E+02  0.47787274489E+02  0.20000015707E+02 0.  0.
         12    1    1    2    0    0 -0.64438002537E+01 -0.15942212432E+02  0.39849043601E+02  0.43400725511E+02  0.00000000000E+00 0. -1.
         11    1    3    3    0    0  0.72335354814E+01  0.57607004056E+01 -0.11607084952E+02  0.14840287264E+02  0.51100000000E-03 0. -1.
        -11    1    3    3    0    0  0.27376008344E+01  0.84697976848E+01 -0.69393020234E+01  0.11286533745E+02  0.51100000000E-03 0.  1.
         12    1    3    3    0    0 -0.35273360622E+01  0.17117143419E+01 -0.21302656625E+02  0.21660453480E+02  0.00000000000E+00 0. -1.
</event>
<event>
 7    1  0.2387817E-009  0.4778727E+02  0.7816164E-02  0.1312668E+00
        -11   -1    0    0    0    0  0.00000000000E+00  0.00000000000E+00  0.45593999997E+02  0.45594000000E+02  0.51100000000E-03 0.  1.
         11   -1    0    0    0    0 -0.00000000000E+00 -0.00000000000E+00 -0.45593999997E+02  0.45594000000E+02  0.51100000000E-03 0. -1.
    9900012    2    1    2    0    0  0.22457218675E+02 -0.17784965823E+02  0.32603550822E+02  0.47787271824E+02  0.20000003557E+02 0.  0.
         12    1    1    2    0    0 -0.22457218675E+02  0.17784965823E+02 -0.32603550822E+02  0.43400728176E+02  0.00000000000E+00 0. -1.
         11    1    3    3    0    0  0.78921803919E+01 -0.34571587347E+01  0.50505060619E+01  0.99872954096E+01  0.51100000000E-03 0. -1.
        -11    1    3    3    0    0  0.13904429271E+02 -0.32376948744E+01  0.11790799013E+02  0.18515905678E+02  0.51100000000E-03 0.  1.
         12    1    3    3    0    0  0.66060901216E+00 -0.11090112214E+02  0.15762245747E+02  0.19284070737E+02  0.00000000000E+00 0. -1.
</event>
<event>
 7    1  0.2387817E-009  0.4778727E+02  0.7816164E-02  0.1312668E+00
        -11   -1    0    0    0    0  0.00000000000E+00  0.00000000000E+00  0.45593999997E+02  0.45594000000E+02  0.51100000000E-03 0.  1.
         11   -1    0    0    0    0 -0.00000000000E+00 -0.00000000000E+00 -0.45593999997E+02  0.45594000000E+02  0.51100000000E-03 0. -1.
    9900012    2    1    2    0    0  0.41545295933E+02 -0.84896482047E+01  0.92486507451E+01  0.47787270958E+02  0.19999999604E+02 0.  0.
         12    1    1    2    0    0 -0.41545295933E+02  0.84896482047E+01 -0.92486507451E+01  0.43400729042E+02  0.00000000000E+00 0. -1.
         11    1    3    3    0    0  0.71459396033E+01 -0.33321473935E+01 -0.39264627686E+01  0.88082216820E+01  0.51100000000E-03 0. -1.
        -11    1    3    3    0    0  0.13089722909E+02  0.28402311403E+01  0.17396174330E+01  0.13506814126E+02  0.51100000000E-03 0.  1.
        -12    1    3    3    0    0  0.21309633421E+02 -0.79977319515E+01  0.11435496081E+02  0.25472235150E+02  0.00000000000E+00 0.  1.
</event>
<event>
 7    1  0.2387817E-009  0.4778727E+02  0.7816164E-02  0.1312668E+00
        -11   -1    0    0    0    0  0.00000000000E+00  0.00000000000E+00  0.45593999997E+02  0.45594000000E+02  0.51100000000E-03 0.  1.
         11   -1    0    0    0    0 -0.00000000000E+00 -0.00000000000E+00 -0.45593999997E+02  0.45594000000E+02  0.51100000000E-03 0. -1.
    9900012    2    1    2    0    0 -0.25854417935E+00  0.35649646112E+02  0.24751960231E+02  0.47787266731E+02  0.19999980335E+02 0.  0.
         12    1    1    2    0    0  0.25854417935E+00 -0.35649646112E+02 -0.24751960231E+02  0.43400733269E+02  0.00000000000E+00 0. -1.
         11    1    3    3    0    0  0.20958074270E+01  0.43288970806E+00 -0.12977916145E+01  0.25028115402E+01  0.51100000000E-03 0. -1.
        -11    1    3    3    0    0 -0.23252584244E+01  0.73365634970E+00  0.27086303997E+01  0.36444145322E+01  0.51100000000E-03 0.  1.
        -12    1    3    3    0    0 -0.29093181946E-01  0.34483100054E+02  0.23341121446E+02  0.41640040659E+02  0.00000000000E+00 0.  1.
</event>
<event>
 7    1  0.2387817E-009  0.4778725E+02  0.7816164E-02  0.1312668E+00
        -11   -1    0    0    0    0  0.00000000000E+00  0.00000000000E+00  0.45593999997E+02  0.45594000000E+02  0.51100000000E-03 0.  1.
         11   -1    0    0    0    0 -0.00000000000E+00 -0.00000000000E+00 -0.45593999997E+02  0.45594000000E+02  0.51100000000E-03 0. -1.
    9900012    2    1    2    0    0  0.17288321615E+02 -0.30057341233E+02  0.26101631050E+02  0.47787251507E+02  0.19999910920E+02 0.  0.
         12    1    1    2    0    0 -0.17288321615E+02  0.30057341233E+02 -0.26101631050E+02  0.43400748493E+02  0.00000000000E+00 0. -1.
         11    1    3    3    0    0  0.37815035401E+01 -0.82505223133E+01  0.10102808791E+01  0.91318976769E+01  0.51100000000E-03 0. -1.
        -11    1    3    3    0    0  0.38427979414E+01 -0.18919328347E+02  0.15925681916E+02  0.25026694266E+02  0.51100000000E-03 0.  1.
         12    1    3    3    0    0  0.96640201333E+01 -0.28874905733E+01  0.91656682555E+01  0.13628659564E+02  0.00000000000E+00 0. -1.
</event>
<event>
 7    1  0.2387817E-009  0.4778727E+02  0.7816164E-02  0.1312668E+00
        -11   -1    0    0    0    0  0.00000000000E+00  0.00000000000E+00  0.45593999997E+02  0.45594000000E+02  0.51100000000E-03 0.  1.
         11   -1    0    0    0    0 -0.00000000000E+00 -0.00000000000E+00 -0.45593999997E+02  0.45594000000E+02  0.51100000000E-03 0. -1.
    9900012    2    1    2    0    0 -0.32174778025E+02  0.28785943951E+02  0.44470598254E+01  0.47787271306E+02  0.20000001193E+02 0.  0.
         12    1    1    2    0    0  0.32174778025E+02 -0.28785943951E+02 -0.44470598254E+01  0.43400728694E+02  0.00000000000E+00 0. -1.
         11    1    3    3    0    0 -0.31168222593E+01  0.25138390439E+01  0.43860820030E+01  0.59389968288E+01  0.51100000000E-03 0. -1.
        -11    1    3    3    0    0 -0.11272269388E+02  0.39190003356E+01  0.48538281852E+01  0.12883410616E+02  0.51100000000E-03 0.  1.
         12    1    3    3    0    0 -0.17785686377E+02  0.22353104571E+02 -0.47928503628E+01  0.28964863861E+02  0.00000000000E+00 0. -1.
</event>
<event>
 7    1  0.2387817E-009  0.4778727E+02  0.7816164E-02  0.1312668E+00
        -11   -1    0    0    0    0  0.00000000000E+00  0.00000000000E+00  0.45593999997E+02  0.45594000000E+02  0.51100000000E-03 0. -1.
         11   -1    0    0    0    0 -0.00000000000E+00 -0.00000000000E+00 -0.45593999997E+02  0.45594000000E+02  0.51100000000E-03 0.  1.
    9900012    2    1    2    0    0  0.34060220984E+02 -0.21832915551E+02 -0.15711405817E+02  0.47787272728E+02  0.20000007678E+02 0.  0.
         12    1    1    2    0    0 -0.34060220984E+02  0.21832915551E+02  0.15711405817E+02  0.43400727272E+02  0.00000000000E+00 0. -1.
         11    1    3    3    0    0  0.15669504266E+02 -0.93758518748E+01 -0.54760741571E+01  0.19063770633E+02  0.51100000000E-03 0.  1.
        -11    1    3    3    0    0  0.17625490769E+02 -0.11857682835E+02 -0.30359375121E+01  0.21458785704E+02  0.51100000000E-03 0. -1.
         12    1    3    3    0    0  0.76522594923E+00 -0.59938084175E+00 -0.71993941480E+01  0.72647163912E+01  0.00000000000E+00 0. -1.
</event>
<event>
 7    1  0.2387817E-009  0.4778727E+02  0.7816164E-02  0.1312668E+00
        -11   -1    0    0    0    0  0.00000000000E+00  0.00000000000E+00  0.45593999997E+02  0.45594000000E+02  0.51100000000E-03 0.  1.
         11   -1    0    0    0    0 -0.00000000000E+00 -0.00000000000E+00 -0.45593999997E+02  0.45594000000E+02  0.51100000000E-03 0. -1.
    9900012    2    1    2    0    0 -0.26686952646E+02  0.33910047256E+02  0.46410001995E+01  0.47787266950E+02  0.19999981332E+02 0.  0.
         12    1    1    2    0    0  0.26686952646E+02 -0.33910047256E+02 -0.46410001995E+01  0.43400733050E+02  0.00000000000E+00 0. -1.
         11    1    3    3    0    0 -0.45881419978E+01  0.55423487974E+01  0.33204966118E+01  0.79242902013E+01  0.51100000000E-03 0. -1.
        -11    1    3    3    0    0  0.53021123888E+00  0.10717834875E+02 -0.21858509252E+01  0.10951303708E+02  0.51100000000E-03 0.  1.
        -12    1    3    3    0    0 -0.22629021887E+02  0.17649863583E+02  0.35063545129E+01  0.28911673041E+02  0.00000000000E+00 0.  1.
</event>
<event>
 7    1  0.2387817E-009  0.4778727E+02  0.7816164E-02  0.1312668E+00
        -11   -1    0    0    0    0  0.00000000000E+00  0.00000000000E+00  0.45593999997E+02  0.45594000000E+02  0.51100000000E-03 0.  1.
         11   -1    0    0    0    0 -0.00000000000E+00 -0.00000000000E+00 -0.45593999997E+02  0.45594000000E+02  0.51100000000E-03 0. -1.
    9900012    2    1    2    0    0  0.12783758326E+02  0.13719574696E+02  0.39140420336E+02  0.47787266010E+02  0.19999977045E+02 0.  0.
         12    1    1    2    0    0 -0.12783758326E+02 -0.13719574696E+02 -0.39140420336E+02  0.43400733990E+02  0.00000000000E+00 0. -1.
         11    1    3    3    0    0  0.12780852585E+02  0.73266370071E+01  0.21264945276E+02  0.25869435643E+02  0.51100000000E-03 0. -1.
        -11    1    3    3    0    0  0.48795761664E+01  0.37626698981E+01  0.13561390550E+02  0.14895612181E+02  0.51100000000E-03 0.  1.
        -12    1    3    3    0    0 -0.48766704254E+01  0.26302677912E+01  0.43140845099E+01  0.70222181859E+01  0.00000000000E+00 0.  1.
</event>
<event>
 7    1  0.2387817E-009  0.4778728E+02  0.7816164E-02  0.1312668E+00
        -11   -1    0    0    0    0  0.00000000000E+00  0.00000000000E+00  0.45593999997E+02  0.45594000000E+02  0.51100000000E-03 0. -1.
         11   -1    0    0    0    0 -0.00000000000E+00 -0.00000000000E+00 -0.45593999997E+02  0.45594000000E+02  0.51100000000E-03 0.  1.
    9900012    2    1    2    0    0  0.10660525841E+02 -0.36092152072E+02 -0.21617869229E+02  0.47787279702E+02  0.20000039474E+02 0.  0.
         12    1    1    2    0    0 -0.10660525841E+02  0.36092152072E+02  0.21617869229E+02  0.43400720298E+02  0.00000000000E+00 0. -1.
         11    1    3    3    0    0 -0.33154096926E+00 -0.18441055658E+02 -0.69570665308E+01  0.19712514507E+02  0.51100000000E-03 0. -1.
        -11    1    3    3    0    0  0.27335821528E+01 -0.95798793606E+01 -0.74263869917E+00  0.99898985204E+01  0.51100000000E-03 0.  1.
        -12    1    3    3    0    0  0.82584846575E+01 -0.80712170527E+01 -0.13918163999E+02  0.18084866675E+02  0.00000000000E+00 0.  1.
</event>
<event>
 7    1  0.2387817E-009  0.4778727E+02  0.7816164E-02  0.1312668E+00
        -11   -1    0    0    0    0  0.00000000000E+00  0.00000000000E+00  0.45593999997E+02  0.45594000000E+02  0.51100000000E-03 0.  1.
         11   -1    0    0    0    0 -0.00000000000E+00 -0.00000000000E+00 -0.45593999997E+02  0.45594000000E+02  0.51100000000E-03 0. -1.
    9900012    2    1    2    0    0  0.34349488297E+02 -0.18739697866E+02  0.18776572965E+02  0.47787270575E+02  0.19999997858E+02 0.  0.
         12    1    1    2    0    0 -0.34349488297E+02  0.18739697866E+02 -0.18776572965E+02  0.43400729425E+02  0.00000000000E+00 0. -1.
         11    1    3    3    0    0  0.28723773536E+02 -0.14739104913E+02  0.98621570465E+01  0.33757347669E+02  0.51100000000E-03 0. -1.
        -11    1    3    3    0    0  0.77669043766E+01 -0.23535871572E+01  0.70195601792E+01  0.10730256356E+02  0.51100000000E-03 0.  1.
        -12    1    3    3    0    0 -0.21411896162E+01 -0.16470057955E+01  0.18948557390E+01  0.32996665490E+01  0.00000000000E+00 0.  1.
</event>
<event>
 7    1  0.2387817E-009  0.4778728E+02  0.7816164E-02  0.1312668E+00
        -11   -1    0    0    0    0  0.00000000000E+00  0.00000000000E+00  0.45593999997E+02  0.45594000000E+02  0.51100000000E-03 0.  1.
         11   -1    0    0    0    0 -0.00000000000E+00 -0.00000000000E+00 -0.45593999997E+02  0.45594000000E+02  0.51100000000E-03 0. -1.
    9900012    2    1    2    0    0  0.35734070641E+02  0.32230112241E+01  0.24419486224E+02  0.47787275198E+02  0.20000018936E+02 0.  0.
         12    1    1    2    0    0 -0.35734070641E+02 -0.32230112241E+01 -0.24419486224E+02  0.43400724802E+02  0.00000000000E+00 0. -1.
         11    1    3    3    0    0  0.33995598970E+00 -0.11769422089E+01 -0.24134670651E+01  0.27065820833E+01  0.51100000000E-03 0. -1.
        -11    1    3    3    0    0  0.69123330756E+01  0.60505035071E+00  0.86013449300E+01  0.11051224789E+02  0.51100000000E-03 0.  1.
         12    1    3    3    0    0  0.28481781575E+02  0.37949030823E+01  0.18231608360E+02  0.34029468325E+02  0.00000000000E+00 0. -1.
</event>
<event>
 7    1  0.2387817E-009  0.4778727E+02  0.7816164E-02  0.1312668E+00
        -11   -1    0    0    0    0  0.00000000000E+00  0.00000000000E+00  0.45593999997E+02  0.45594000000E+02  0.51100000000E-03 0.  1.
         11   -1    0    0    0    0 -0.00000000000E+00 -0.00000000000E+00 -0.45593999997E+02  0.45594000000E+02  0.51100000000E-03 0. -1.
    9900012    2    1    2    0    0 -0.27411917072E+02 -0.15134903036E+02  0.30052370048E+02  0.47787269212E+02  0.19999991644E+02 0.  0.
         12    1    1    2    0    0  0.27411917072E+02  0.15134903036E+02 -0.30052370048E+02  0.43400730788E+02  0.00000000000E+00 0. -1.
         11    1    3    3    0    0 -0.60140461535E+01  0.62841047754E+00  0.35134849609E+00  0.60569874436E+01  0.51100000000E-03 0. -1.
        -11    1    3    3    0    0 -0.78262114895E+01  0.17713830838E+00  0.47374403095E+01  0.91500986446E+01  0.51100000000E-03 0.  1.
        -12    1    3    3    0    0 -0.13571659429E+02 -0.15940451822E+02  0.24963581242E+02  0.32580183124E+02  0.00000000000E+00 0.  1.
</event>
<event>
 7    1  0.2387817E-009  0.4778727E+02  0.7816164E-02  0.1312668E+00
        -11   -1    0    0    0    0  0.00000000000E+00  0.00000000000E+00  0.45593999997E+02  0.45594000000E+02  0.51100000000E-03 0. -1.
         11   -1    0    0    0    0 -0.00000000000E+00 -0.00000000000E+00 -0.45593999997E+02  0.45594000000E+02  0.51100000000E-03 0.  1.
    9900012    2    1    2    0    0 -0.84667982809E+01 -0.23009278388E+02 -0.35812142447E+02  0.47787272913E+02  0.20000008521E+02 0.  0.
         12    1    1    2    0    0  0.84667982809E+01  0.23009278388E+02  0.35812142447E+02  0.43400727087E+02  0.00000000000E+00 0. -1.
         11    1    3    3    0    0 -0.65428526779E+01 -0.18428184810E+02 -0.14320646122E+02  0.24238148077E+02  0.51100000000E-03 0. -1.
        -11    1    3    3    0    0 -0.29319100479E+01 -0.16770427316E+01 -0.22380927333E+01  0.40518672481E+01  0.51100000000E-03 0.  1.
        -12    1    3    3    0    0  0.10079644449E+01 -0.29040508459E+01 -0.19253403591E+02  0.19497257588E+02  0.00000000000E+00 0.  1.
</event>
<event>
 7    1  0.2387817E-009  0.4778727E+02  0.7816164E-02  0.1312668E+00
        -11   -1    0    0    0    0  0.00000000000E+00  0.00000000000E+00  0.45593999997E+02  0.45594000000E+02  0.51100000000E-03 0.  1.
         11   -1    0    0    0    0 -0.00000000000E+00 -0.00000000000E+00 -0.45593999997E+02  0.45594000000E+02  0.51100000000E-03 0. -1.
    9900012    2    1    2    0    0 -0.96702656585E+01 -0.35702277765E+02  0.22703667883E+02  0.47787271771E+02  0.20000003311E+02 0.  0.
         12    1    1    2    0    0  0.96702656585E+01  0.35702277765E+02 -0.22703667883E+02  0.43400728229E+02  0.00000000000E+00 0. -1.
         11    1    3    3    0    0 -0.19745820460E-01 -0.15148858816E+02  0.45863307464E+01  0.15827910263E+02  0.51100000000E-03 0. -1.
        -11    1    3    3    0    0 -0.70767694866E+01 -0.21587413815E+02  0.18311483883E+02  0.29178888667E+02  0.51100000000E-03 0.  1.
        -12    1    3    3    0    0 -0.25737503514E+01  0.10339948665E+01 -0.19414674634E+00  0.27804728401E+01  0.00000000000E+00 0.  1.
</event>
<event>
 7    1  0.2387817E-009  0.4778726E+02  0.7816164E-02  0.1312668E+00
        -11   -1    0    0    0    0  0.00000000000E+00  0.00000000000E+00  0.45593999997E+02  0.45594000000E+02  0.51100000000E-03 0.  1.
         11   -1    0    0    0    0 -0.00000000000E+00 -0.00000000000E+00 -0.45593999997E+02  0.45594000000E+02  0.51100000000E-03 0. -1.
    9900012    2    1    2    0    0 -0.34799236293E+02 -0.25083851452E+02  0.65907138714E+01  0.47787263145E+02  0.19999963984E+02 0.  0.
         12    1    1    2    0    0  0.34799236293E+02  0.25083851452E+02 -0.65907138714E+01  0.43400736855E+02  0.00000000000E+00 0. -1.
         11    1    3    3    0    0 -0.38974154335E+01 -0.70338330399E+01 -0.85720571885E+00  0.80869930259E+01  0.51100000000E-03 0. -1.
        -11    1    3    3    0    0  0.26834402610E+00 -0.16900161684E+01  0.39737992802E+01  0.43265741813E+01  0.51100000000E-03 0.  1.
         12    1    3    3    0    0 -0.31170164885E+02 -0.16360002243E+02  0.34741203100E+01  0.35373695938E+02  0.00000000000E+00 0. -1.
</event>
<event>
 7    1  0.2387817E-009  0.4778727E+02  0.7816164E-02  0.1312668E+00
        -11   -1    0    0    0    0  0.00000000000E+00  0.00000000000E+00  0.45593999997E+02  0.45594000000E+02  0.51100000000E-03 0.  1.
         11   -1    0    0    0    0 -0.00000000000E+00 -0.00000000000E+00 -0.45593999997E+02  0.45594000000E+02  0.51100000000E-03 0. -1.
    9900012    2    1    2    0    0  0.26212640643E+02 -0.34180824610E+02 -0.53096038410E+01  0.47787271971E+02  0.20000004223E+02 0.  0.
         12    1    1    2    0    0 -0.26212640643E+02  0.34180824610E+02  0.53096038410E+01  0.43400728029E+02  0.00000000000E+00 0. -1.
         11    1    3    3    0    0  0.36212767516E+01 -0.15012260839E+02  0.52055326567E+01  0.16296600606E+02  0.51100000000E-03 0. -1.
        -11    1    3    3    0    0  0.31828297691E+01 -0.31199366926E+01 -0.21906094999E+01  0.49662038366E+01  0.51100000000E-03 0.  1.
         12    1    3    3    0    0  0.19408534123E+02 -0.16048627078E+02 -0.83245269978E+01  0.26524467528E+02  0.00000000000E+00 0. -1.
</event>
<event>
 7    1  0.2387817E-009  0.4778727E+02  0.7816164E-02  0.1312668E+00
        -11   -1    0    0    0    0  0.00000000000E+00  0.00000000000E+00  0.45593999997E+02  0.45594000000E+02  0.51100000000E-03 0.  1.
         11   -1    0    0    0    0 -0.00000000000E+00 -0.00000000000E+00 -0.45593999997E+02  0.45594000000E+02  0.51100000000E-03 0. -1.
    9900012    2    1    2    0    0 -0.20470525199E+02 -0.59677274286E+01  0.37801679455E+02  0.47787272561E+02  0.20000006917E+02 0.  0.
         12    1    1    2    0    0  0.20470525199E+02  0.59677274286E+01 -0.37801679455E+02  0.43400727439E+02  0.00000000000E+00 0. -1.
         11    1    3    3    0    0 -0.32361322780E+01  0.20872983180E+01  0.11777257457E+02  0.12390849844E+02  0.51100000000E-03 0. -1.
        -11    1    3    3    0    0 -0.66109476984E+01 -0.45281460569E+00  0.19889347237E+02  0.20964155226E+02  0.51100000000E-03 0.  1.
        -12    1    3    3    0    0 -0.10623445223E+02 -0.76022111409E+01  0.61350747602E+01  0.14432267492E+02  0.00000000000E+00 0.  1.
</event>
<event>
 7    1  0.2387817E-009  0.4778728E+02  0.7816164E-02  0.1312668E+00
        -11   -1    0    0    0    0  0.00000000000E+00  0.00000000000E+00  0.45593999997E+02  0.45594000000E+02  0.51100000000E-03 0. -1.
         11   -1    0    0    0    0 -0.00000000000E+00 -0.00000000000E+00 -0.45593999997E+02  0.45594000000E+02  0.51100000000E-03 0.  1.
    9900012    2    1    2    0    0  0.14326321662E+02  0.27064545846E+02 -0.30755314030E+02  0.47787280245E+02  0.20000041947E+02 0.  0.
         12    1    1    2    0    0 -0.14326321662E+02 -0.27064545846E+02  0.30755314030E+02  0.43400719755E+02  0.00000000000E+00 0. -1.
         11    1    3    3    0    0  0.97925186842E+00  0.20313231362E+01  0.10570104088E+01  0.24904776994E+01  0.51100000000E-03 0. -1.
        -11    1    3    3    0    0  0.84433853473E+01  0.44660652904E+01 -0.39890221441E+01  0.10351270126E+02  0.51100000000E-03 0.  1.
        -12    1    3    3    0    0  0.49036844463E+01  0.20567157419E+02 -0.27823302295E+02  0.34945532419E+02  0.00000000000E+00 0.  1.
</event>
<event>
 7    1  0.2387817E-009  0.4778729E+02  0.7816164E-02  0.1312668E+00
        -11   -1    0    0    0    0  0.00000000000E+00  0.00000000000E+00  0.45593999997E+02  0.45594000000E+02  0.51100000000E-03 0.  1.
         11   -1    0    0    0    0 -0.00000000000E+00 -0.00000000000E+00 -0.45593999997E+02  0.45594000000E+02  0.51100000000E-03 0. -1.
    9900012    2    1    2    0    0  0.27583220331E+02 -0.14333720099E+02  0.30287493431E+02  0.47787287632E+02  0.20000075631E+02 0.  0.
         12    1    1    2    0    0 -0.27583220331E+02  0.14333720099E+02 -0.30287493431E+02  0.43400712368E+02  0.00000000000E+00 0. -1.
         11    1    3    3    0    0 -0.12234286564E+01 -0.10265128398E+01  0.24329042643E+01  0.29102456439E+01  0.51100000000E-03 0. -1.
        -11    1    3    3    0    0  0.35017449176E+01  0.26149936038E+01  0.58165785467E+00  0.44089380963E+01  0.51100000000E-03 0.  1.
        -12    1    3    3    0    0  0.25304904070E+02 -0.15922200863E+02  0.27272931312E+02  0.40468103892E+02  0.00000000000E+00 0.  1.
</event>
<event>
 7    1  0.2387817E-009  0.4778727E+02  0.7816164E-02  0.1312668E+00
        -11   -1    0    0    0    0  0.00000000000E+00  0.00000000000E+00  0.45593999997E+02  0.45594000000E+02  0.51100000000E-03 0.  1.
         11   -1    0    0    0    0 -0.00000000000E+00 -0.00000000000E+00 -0.45593999997E+02  0.45594000000E+02  0.51100000000E-03 0. -1.
    9900012    2    1    2    0    0  0.36688566202E+02  0.67076465822E+01  0.22194137028E+02  0.47787272690E+02  0.20000007502E+02 0.  0.
         12    1    1    2    0    0 -0.36688566202E+02 -0.67076465822E+01 -0.22194137028E+02  0.43400727310E+02  0.00000000000E+00 0. -1.
         11    1    3    3    0    0  0.38511263215E+01  0.25128596131E+01  0.29508994516E+01  0.54638306356E+01  0.51100000000E-03 0.  1.
        -11    1    3    3    0    0  0.29611283045E+02 -0.30013089399E+01  0.16055252798E+02  0.33817260114E+02  0.51100000000E-03 0. -1.
         12    1    3    3    0    0  0.32261568352E+01  0.71960959090E+01  0.31879847782E+01  0.85061819403E+01  0.00000000000E+00 0. -1.
</event>
<event>
 7    1  0.2387817E-009  0.4778727E+02  0.7816164E-02  0.1312668E+00
        -11   -1    0    0    0    0  0.00000000000E+00  0.00000000000E+00  0.45593999997E+02  0.45594000000E+02  0.51100000000E-03 0.  1.
         11   -1    0    0    0    0 -0.00000000000E+00 -0.00000000000E+00 -0.45593999997E+02  0.45594000000E+02  0.51100000000E-03 0. -1.
    9900012    2    1    2    0    0  0.15486936140E+02  0.40023553360E+02 -0.64725007487E+01  0.47787270968E+02  0.19999999651E+02 0.  0.
         12    1    1    2    0    0 -0.15486936140E+02 -0.40023553360E+02  0.64725007487E+01  0.43400729032E+02  0.00000000000E+00 0. -1.
         11    1    3    3    0    0  0.70505444911E+01  0.15767509518E+02 -0.11782329417E+02  0.20908080275E+02  0.51100000000E-03 0. -1.
        -11    1    3    3    0    0 -0.81545354918E+00  0.34626259586E+01  0.25968873159E+00  0.35668167207E+01  0.51100000000E-03 0.  1.
        -12    1    3    3    0    0  0.92518451977E+01  0.20793417884E+02  0.50501399369E+01  0.23312373973E+02  0.00000000000E+00 0.  1.
</event>
<event>
 7    1  0.2387817E-009  0.4778727E+02  0.7816164E-02  0.1312668E+00
        -11   -1    0    0    0    0  0.00000000000E+00  0.00000000000E+00  0.45593999997E+02  0.45594000000E+02  0.51100000000E-03 0.  1.
         11   -1    0    0    0    0 -0.00000000000E+00 -0.00000000000E+00 -0.45593999997E+02  0.45594000000E+02  0.51100000000E-03 0. -1.
    9900012    2    1    2    0    0  0.28113413656E+02 -0.30911147395E+02  0.11737133589E+02  0.47787269988E+02  0.19999995182E+02 0.  0.
         12    1    1    2    0    0 -0.28113413656E+02  0.30911147395E+02 -0.11737133589E+02  0.43400730012E+02  0.00000000000E+00 0. -1.
         11    1    3    3    0    0 -0.88437747587E+00 -0.18957588615E+01  0.53382140487E+00  0.21589327766E+01  0.51100000000E-03 0. -1.
        -11    1    3    3    0    0  0.12055218585E+01 -0.32120595372E+01 -0.35489748908E+01  0.49361758942E+01  0.51100000000E-03 0.  1.
        -12    1    3    3    0    0  0.27792269274E+02 -0.25803328997E+02  0.14752287075E+02  0.40692161317E+02  0.00000000000E+00 0.  1.
</event>
<event>
 7    1  0.2994910E-009  0.4778727E+02  0.7816164E-02  0.1312668E+00
        -11   -1    0    0    0    0  0.00000000000E+00  0.00000000000E+00  0.45593999997E+02  0.45594000000E+02  0.51100000000E-03 0.  1.
         11   -1    0    0    0    0 -0.00000000000E+00 -0.00000000000E+00 -0.45593999997E+02  0.45594000000E+02  0.51100000000E-03 0. -1.
    9900012    2    1    2    0    0 -0.95648027934E+01 -0.23925360379E+02  0.34924415887E+02  0.47787272508E+02  0.20000006674E+02 0.  0.
         12    1    1    2    0    0  0.95648027934E+01  0.23925360379E+02 -0.34924415887E+02  0.43400727492E+02  0.00000000000E+00 0. -1.
         11    1    3    3    0    0 -0.37628277935E+01 -0.14462237921E+02  0.11177859196E+02  0.18661718441E+02  0.51100000000E-03 0. -1.
        -11    1    3    3    0    0 -0.50053390442E+01 -0.12603965163E+02  0.20102657326E+02  0.24249333777E+02  0.51100000000E-03 0.  1.
         12    1    3    3    0    0 -0.79663595562E+00  0.31408427050E+01  0.36438993642E+01  0.48762202904E+01  0.00000000000E+00 0. -1.
</event>
<event>
 7    1  0.2387817E-009  0.4778728E+02  0.7816164E-02  0.1312668E+00
        -11   -1    0    0    0    0  0.00000000000E+00  0.00000000000E+00  0.45593999997E+02  0.45594000000E+02  0.51100000000E-03 0.  1.
         11   -1    0    0    0    0 -0.00000000000E+00 -0.00000000000E+00 -0.45593999997E+02  0.45594000000E+02  0.51100000000E-03 0. -1.
    9900012    2    1    2    0    0 -0.85681902962E+01  0.23350823899E+02 -0.35566106864E+02  0.47787276283E+02  0.20000023886E+02 0.  0.
         12    1    1    2    0    0  0.85681902962E+01 -0.23350823899E+02  0.35566106864E+02  0.43400723717E+02  0.00000000000E+00 0. -1.
         11    1    3    3    0    0 -0.22666694387E+01 -0.32884836427E+01 -0.41570193355E+01  0.57647831728E+01  0.51100000000E-03 0. -1.
        -11    1    3    3    0    0 -0.19068974798E+01  0.18632800495E+02 -0.19870772494E+02  0.27306869320E+02  0.51100000000E-03 0.  1.
         12    1    3    3    0    0 -0.43946233777E+01  0.80065070464E+01 -0.11538315035E+02  0.14715623791E+02  0.00000000000E+00 0. -1.
</event>
<event>
 7    1  0.2387817E-009  0.4778726E+02  0.7816164E-02  0.1312668E+00
        -11   -1    0    0    0    0  0.00000000000E+00  0.00000000000E+00  0.45593999997E+02  0.45594000000E+02  0.51100000000E-03 0. -1.
         11   -1    0    0    0    0 -0.00000000000E+00 -0.00000000000E+00 -0.45593999997E+02  0.45594000000E+02  0.51100000000E-03 0.  1.
    9900012    2    1    2    0    0 -0.18951079460E+02 -0.38232918597E+02 -0.79198939097E+01  0.47787260413E+02  0.19999951527E+02 0.  0.
         12    1    1    2    0    0  0.18951079460E+02  0.38232918597E+02  0.79198939097E+01  0.43400739587E+02  0.00000000000E+00 0. -1.
         11    1    3    3    0    0 -0.34262821949E+01 -0.65921913637E+01 -0.65704890359E+01  0.99180503673E+01  0.51100000000E-03 0. -1.
        -11    1    3    3    0    0 -0.54157629455E+01 -0.21778069585E+02 -0.55824645327E+01  0.23125282996E+02  0.51100000000E-03 0.  1.
        -12    1    3    3    0    0 -0.10109034320E+02 -0.98626576488E+01  0.42330596590E+01  0.14743927050E+02  0.00000000000E+00 0.  1.
</event>
<event>
 7    1  0.2387817E-009  0.4778726E+02  0.7816164E-02  0.1312668E+00
        -11   -1    0    0    0    0  0.00000000000E+00  0.00000000000E+00  0.45593999997E+02  0.45594000000E+02  0.51100000000E-03 0.  1.
         11   -1    0    0    0    0 -0.00000000000E+00 -0.00000000000E+00 -0.45593999997E+02  0.45594000000E+02  0.51100000000E-03 0. -1.
    9900012    2    1    2    0    0  0.42882699823E+02  0.13366379021E+00  0.66843605276E+01  0.47787257083E+02  0.19999936343E+02 0.  0.
         12    1    1    2    0    0 -0.42882699823E+02 -0.13366379021E+00 -0.66843605276E+01  0.43400742917E+02  0.00000000000E+00 0. -1.
         11    1    3    3    0    0  0.15621888858E+02 -0.59011684690E+01  0.30275213924E+01  0.16971537550E+02  0.51100000000E-03 0. -1.
        -11    1    3    3    0    0  0.88415285542E+01 -0.35704168259E+01 -0.80325199752E+00  0.95689977280E+01  0.51100000000E-03 0.  1.
         12    1    3    3    0    0  0.18419282411E+02  0.96052490851E+01  0.44600911328E+01  0.21246721804E+02  0.00000000000E+00 0. -1.
</event>
<event>
 7    1  0.2387817E-009  0.4778727E+02  0.7816164E-02  0.1312668E+00
        -11   -1    0    0    0    0  0.00000000000E+00  0.00000000000E+00  0.45593999997E+02  0.45594000000E+02  0.51100000000E-03 0.  1.
         11   -1    0    0    0    0 -0.00000000000E+00 -0.00000000000E+00 -0.45593999997E+02  0.45594000000E+02  0.51100000000E-03 0. -1.
    9900012    2    1    2    0    0 -0.40465345054E+02  0.15678869582E+02  0.59328577395E+00  0.47787273166E+02  0.20000009672E+02 0.  0.
         12    1    1    2    0    0  0.40465345054E+02 -0.15678869582E+02 -0.59328577395E+00  0.43400726834E+02  0.00000000000E+00 0. -1.
         11    1    3    3    0    0 -0.69270752241E+01  0.74337103981E+01  0.22262855467E+01  0.10401959865E+02  0.51100000000E-03 0. -1.
        -11    1    3    3    0    0 -0.91566532333E+01  0.56066398729E+01  0.51964094993E+01  0.11928175931E+02  0.51100000000E-03 0.  1.
        -12    1    3    3    0    0 -0.24381616597E+02  0.26385193107E+01 -0.68294092720E+01  0.25457137369E+02  0.00000000000E+00 0.  1.
</event>
<event>
 7    1  0.2387817E-009  0.4778727E+02  0.7816164E-02  0.1312668E+00
        -11   -1    0    0    0    0  0.00000000000E+00  0.00000000000E+00  0.45593999997E+02  0.45594000000E+02  0.51100000000E-03 0.  1.
         11   -1    0    0    0    0 -0.00000000000E+00 -0.00000000000E+00 -0.45593999997E+02  0.45594000000E+02  0.51100000000E-03 0. -1.
    9900012    2    1    2    0    0 -0.66508597070E+01  0.24735401324E+01  0.42816714989E+02  0.47787269383E+02  0.19999992427E+02 0.  0.
         12    1    1    2    0    0  0.66508597070E+01 -0.24735401324E+01 -0.42816714989E+02  0.43400730617E+02  0.00000000000E+00 0. -1.
         11    1    3    3    0    0 -0.32706503818E+01  0.33383193032E+01  0.36585942405E+01  0.59352204482E+01  0.51100000000E-03 0. -1.
        -11    1    3    3    0    0 -0.87777137019E+01 -0.36826241845E+00  0.29459095377E+02  0.30741212984E+02  0.51100000000E-03 0.  1.
         12    1    3    3    0    0  0.53975043767E+01 -0.49651675240E+00  0.96990253712E+01  0.11110835951E+02  0.00000000000E+00 0. -1.
</event>
<event>
 7    1  0.2387817E-009  0.4778727E+02  0.7816164E-02  0.1312668E+00
        -11   -1    0    0    0    0  0.00000000000E+00  0.00000000000E+00  0.45593999997E+02  0.45594000000E+02  0.51100000000E-03 0. -1.
         11   -1    0    0    0    0 -0.00000000000E+00 -0.00000000000E+00 -0.45593999997E+02  0.45594000000E+02  0.51100000000E-03 0.  1.
    9900012    2    1    2    0    0  0.18386731231E+02 -0.39299485231E+02 -0.10496862556E+01  0.47787271135E+02  0.20000000415E+02 0.  0.
         12    1    1    2    0    0 -0.18386731231E+02  0.39299485231E+02  0.10496862556E+01  0.43400728865E+02  0.00000000000E+00 0. -1.
         11    1    3    3    0    0  0.34876653624E-01 -0.44469634462E+01  0.34925583607E+00  0.44607936707E+01  0.51100000000E-03 0. -1.
        -11    1    3    3    0    0  0.20845453022E+02 -0.30091958323E+02  0.24922302018E+01  0.36691553238E+02  0.51100000000E-03 0.  1.
        -12    1    3    3    0    0 -0.24935984446E+01 -0.47605634616E+01 -0.38911722935E+01  0.66349242266E+01  0.00000000000E+00 0.  1.
</event>
<event>
 7    1  0.2387817E-009  0.4778728E+02  0.7816164E-02  0.1312668E+00
        -11   -1    0    0    0    0  0.00000000000E+00  0.00000000000E+00  0.45593999997E+02  0.45594000000E+02  0.51100000000E-03 0.  1.
         11   -1    0    0    0    0 -0.00000000000E+00 -0.00000000000E+00 -0.45593999997E+02  0.45594000000E+02  0.51100000000E-03 0. -1.
    9900012    2    1    2    0    0 -0.18045762034E+02  0.36434707341E+02  0.15181747524E+02  0.47787275533E+02  0.20000020464E+02 0.  0.
         12    1    1    2    0    0  0.18045762034E+02 -0.36434707341E+02 -0.15181747524E+02  0.43400724467E+02  0.00000000000E+00 0. -1.
         11    1    3    3    0    0 -0.13011360313E+01  0.60146352696E+01 -0.25481366115E+01  0.66604649124E+01  0.51100000000E-03 0. -1.
        -11    1    3    3    0    0 -0.12964844617E+02  0.22338583857E+02  0.62247496675E+01  0.26567781868E+02  0.51100000000E-03 0.  1.
         12    1    3    3    0    0 -0.37797813853E+01  0.80814882139E+01  0.11505134468E+02  0.14559028752E+02  0.00000000000E+00 0. -1.
</event>
<event>
 7    1  0.2387817E-009  0.4778728E+02  0.7816164E-02  0.1312668E+00
        -11   -1    0    0    0    0  0.00000000000E+00  0.00000000000E+00  0.45593999997E+02  0.45594000000E+02  0.51100000000E-03 0.  1.
         11   -1    0    0    0    0 -0.00000000000E+00 -0.00000000000E+00 -0.45593999997E+02  0.45594000000E+02  0.51100000000E-03 0. -1.
    9900012    2    1    2    0    0  0.15466658188E+02  0.32095664984E+02  0.24784543783E+02  0.47787276079E+02  0.20000022956E+02 0.  0.
         12    1    1    2    0    0 -0.15466658188E+02 -0.32095664984E+02 -0.24784543783E+02  0.43400723921E+02  0.00000000000E+00 0. -1.
         11    1    3    3    0    0 -0.37792683834E+00 -0.13488749309E+01  0.82593610731E+00  0.16261804908E+01  0.51100000000E-03 0. -1.
        -11    1    3    3    0    0 -0.11006101482E+01  0.12323795364E+02  0.71504091086E+01  0.14290403268E+02  0.51100000000E-03 0.  1.
        -12    1    3    3    0    0  0.16945195175E+02  0.21120744551E+02  0.16808198567E+02  0.31870692320E+02  0.00000000000E+00 0.  1.
</event>
<event>
 7    1  0.2387817E-009  0.4778727E+02  0.7816164E-02  0.1312668E+00
        -11   -1    0    0    0    0  0.00000000000E+00  0.00000000000E+00  0.45593999997E+02  0.45594000000E+02  0.51100000000E-03 0. -1.
         11   -1    0    0    0    0 -0.00000000000E+00 -0.00000000000E+00 -0.45593999997E+02  0.45594000000E+02  0.51100000000E-03 0.  1.
    9900012    2    1    2    0    0 -0.13481235640E+02  0.34793918399E+02 -0.22164449366E+02  0.47787270886E+02  0.19999999280E+02 0.  0.
         12    1    1    2    0    0  0.13481235640E+02 -0.34793918399E+02  0.22164449366E+02  0.43400729114E+02  0.00000000000E+00 0. -1.
         11    1    3    3    0    0 -0.57005249158E+01  0.43803566700E+01 -0.29554868452E+01  0.77729281243E+01  0.51100000000E-03 0. -1.
        -11    1    3    3    0    0 -0.68809142155E+01  0.49142215736E+01 -0.94907476010E+01  0.12711052057E+02  0.51100000000E-03 0.  1.
         12    1    3    3    0    0 -0.89979650859E+00  0.25499340155E+02 -0.97182149196E+01  0.27303290705E+02  0.00000000000E+00 0. -1.
</event>
<event>
 7    1  0.2387817E-009  0.4778727E+02  0.7816164E-02  0.1312668E+00
        -11   -1    0    0    0    0  0.00000000000E+00  0.00000000000E+00  0.45593999997E+02  0.45594000000E+02  0.51100000000E-03 0.  1.
         11   -1    0    0    0    0 -0.00000000000E+00 -0.00000000000E+00 -0.45593999997E+02  0.45594000000E+02  0.51100000000E-03 0. -1.
    9900012    2    1    2    0    0 -0.25841728738E+02  0.34302912503E+02  0.62560608709E+01  0.47787273647E+02  0.20000011864E+02 0.  0.
         12    1    1    2    0    0  0.25841728738E+02 -0.34302912503E+02 -0.62560608709E+01  0.43400726353E+02  0.00000000000E+00 0. -1.
         11    1    3    3    0    0 -0.25249962050E+01  0.13642841082E+02 -0.23621635311E+01  0.14074179743E+02  0.51100000000E-03 0. -1.
        -11    1    3    3    0    0 -0.55952761568E+00  0.96332476940E+00  0.28607044532E+01  0.30699667740E+01  0.51100000000E-03 0.  1.
         12    1    3    3    0    0 -0.22757204918E+02  0.19696746652E+02  0.57575199488E+01  0.30643127130E+02  0.00000000000E+00 0. -1.
</event>
<event>
 7    1  0.2387817E-009  0.4778727E+02  0.7816164E-02  0.1312668E+00
        -11   -1    0    0    0    0  0.00000000000E+00  0.00000000000E+00  0.45593999997E+02  0.45594000000E+02  0.51100000000E-03 0. -1.
         11   -1    0    0    0    0 -0.00000000000E+00 -0.00000000000E+00 -0.45593999997E+02  0.45594000000E+02  0.51100000000E-03 0.  1.
    9900012    2    1    2    0    0 -0.24255891744E+02 -0.38452460941E+01 -0.35783922104E+02  0.47787270940E+02  0.19999999523E+02 0.  0.
         12    1    1    2    0    0  0.24255891744E+02  0.38452460941E+01  0.35783922104E+02  0.43400729060E+02  0.00000000000E+00 0. -1.
         11    1    3    3    0    0 -0.48725530675E+01 -0.79529827474E+01 -0.90425161032E+01  0.12990719984E+02  0.51100000000E-03 0. -1.
        -11    1    3    3    0    0 -0.22197223850E+01 -0.92338160490E+00 -0.10045309661E+02  0.10328990633E+02  0.51100000000E-03 0.  1.
        -12    1    3    3    0    0 -0.17163616292E+02  0.50311182583E+01 -0.16696096340E+02  0.24467560322E+02  0.00000000000E+00 0.  1.
</event>
<event>
 7    1  0.2387817E-009  0.4778726E+02  0.7816164E-02  0.1312668E+00
        -11   -1    0    0    0    0  0.00000000000E+00  0.00000000000E+00  0.45593999997E+02  0.45594000000E+02  0.51100000000E-03 0. -1.
         11   -1    0    0    0    0 -0.00000000000E+00 -0.00000000000E+00 -0.45593999997E+02  0.45594000000E+02  0.51100000000E-03 0.  1.
    9900012    2    1    2    0    0 -0.40460205249E+02 -0.14740060326E+02 -0.54153711339E+01  0.47787264618E+02  0.19999970698E+02 0.  0.
         12    1    1    2    0    0  0.40460205249E+02  0.14740060326E+02  0.54153711339E+01  0.43400735382E+02  0.00000000000E+00 0. -1.
         11    1    3    3    0    0 -0.22581229755E+02 -0.66658641119E+01 -0.24099310391E+01  0.23667561122E+02  0.51100000000E-03 0. -1.
        -11    1    3    3    0    0 -0.18473768761E+02 -0.97835645389E+01 -0.35161520806E+00  0.20907460411E+02  0.51100000000E-03 0.  1.
         12    1    3    3    0    0  0.59479326694E+00  0.17093683253E+01 -0.26538248868E+01  0.32122430841E+01  0.00000000000E+00 0. -1.
</event>
<event>
 7    1  0.2387817E-009  0.4778726E+02  0.7816164E-02  0.1312668E+00
        -11   -1    0    0    0    0  0.00000000000E+00  0.00000000000E+00  0.45593999997E+02  0.45594000000E+02  0.51100000000E-03 0.  1.
         11   -1    0    0    0    0 -0.00000000000E+00 -0.00000000000E+00 -0.45593999997E+02  0.45594000000E+02  0.51100000000E-03 0. -1.
    9900012    2    1    2    0    0  0.32925244596E+02  0.21426212281E+02  0.18451818587E+02  0.47787263674E+02  0.19999966395E+02 0.  0.
         12    1    1    2    0    0 -0.32925244596E+02 -0.21426212281E+02 -0.18451818587E+02  0.43400736326E+02  0.00000000000E+00 0. -1.
         11    1    3    3    0    0  0.12091585392E+02  0.99008512938E+01  0.19068469553E+01  0.15743867352E+02  0.51100000000E-03 0. -1.
        -11    1    3    3    0    0  0.14074973613E+02  0.15058334753E+01  0.41955964914E+01  0.14763991562E+02  0.51100000000E-03 0.  1.
        -12    1    3    3    0    0  0.67586855917E+01  0.10019527512E+02  0.12349375141E+02  0.17279404760E+02  0.00000000000E+00 0.  1.
</event>
<event>
 7    1  0.2387817E-009  0.4778727E+02  0.7816164E-02  0.1312668E+00
        -11   -1    0    0    0    0  0.00000000000E+00  0.00000000000E+00  0.45593999997E+02  0.45594000000E+02  0.51100000000E-03 0. -1.
         11   -1    0    0    0    0 -0.00000000000E+00 -0.00000000000E+00 -0.45593999997E+02  0.45594000000E+02  0.51100000000E-03 0.  1.
    9900012    2    1    2    0    0  0.25247141196E+02 -0.29752194349E+02 -0.19000327976E+02  0.47787266477E+02  0.19999979175E+02 0.  0.
         12    1    1    2    0    0 -0.25247141196E+02  0.29752194349E+02  0.19000327976E+02  0.43400733523E+02  0.00000000000E+00 0. -1.
         11    1    3    3    0    0  0.30287183435E+01 -0.87697021365E+01  0.29724053110E+01  0.97424844860E+01  0.51100000000E-03 0. -1.
        -11    1    3    3    0    0 -0.29804133072E+00 -0.38195005391E+00 -0.92455509043E-01  0.49321674827E+00  0.51100000000E-03 0.  1.
        -12    1    3    3    0    0  0.22516464183E+02 -0.20600542159E+02 -0.21880277778E+02  0.37551565243E+02  0.00000000000E+00 0.  1.
</event>
<event>
 7    1  0.2387817E-009  0.4778727E+02  0.7816164E-02  0.1312668E+00
        -11   -1    0    0    0    0  0.00000000000E+00  0.00000000000E+00  0.45593999997E+02  0.45594000000E+02  0.51100000000E-03 0.  1.
         11   -1    0    0    0    0 -0.00000000000E+00 -0.00000000000E+00 -0.45593999997E+02  0.45594000000E+02  0.51100000000E-03 0. -1.
    9900012    2    1    2    0    0 -0.85542346911E+00 -0.41009077721E+02  0.14182632577E+02  0.47787271070E+02  0.20000000115E+02 0.  0.
         12    1    1    2    0    0  0.85542346911E+00  0.41009077721E+02 -0.14182632577E+02  0.43400728930E+02  0.00000000000E+00 0. -1.
         11    1    3    3    0    0  0.91415093779E+00 -0.40029389399E+01 -0.32457201316E+00  0.41188031449E+01  0.51100000000E-03 0. -1.
        -11    1    3    3    0    0 -0.19642364055E+01 -0.37737334423E+02  0.99876771860E+01  0.39086037531E+02  0.51100000000E-03 0.  1.
         12    1    3    3    0    0  0.19466199860E+00  0.73119564175E+00  0.45195274041E+01  0.45824303940E+01  0.00000000000E+00 0. -1.
</event>
<event>
 7    1  0.2387817E-009  0.4778727E+02  0.7816164E-02  0.1312668E+00
        -11   -1    0    0    0    0  0.00000000000E+00  0.00000000000E+00  0.45593999997E+02  0.45594000000E+02  0.51100000000E-03 0.  1.
         11   -1    0    0    0    0 -0.00000000000E+00 -0.00000000000E+00 -0.45593999997E+02  0.45594000000E+02  0.51100000000E-03 0. -1.
    9900012    2    1    2    0    0 -0.16596051314E+01 -0.29515717708E+02  0.31775643480E+02  0.47787269596E+02  0.19999993398E+02 0.  0.
         12    1    1    2    0    0  0.16596051314E+01  0.29515717708E+02 -0.31775643480E+02  0.43400730404E+02  0.00000000000E+00 0. -1.
         11    1    3    3    0    0  0.37346611672E+01 -0.63002723903E+01  0.34710831235E+01  0.81049086693E+01  0.51100000000E-03 0. -1.
        -11    1    3    3    0    0  0.23941851429E+01 -0.16691346445E+02  0.22024226079E+02  0.27738055146E+02  0.51100000000E-03 0.  1.
        -12    1    3    3    0    0 -0.77884514415E+01 -0.65240988727E+01  0.62803342767E+01  0.11944305781E+02  0.00000000000E+00 0.  1.
</event>
<event>
 7    1  0.2387817E-009  0.4778727E+02  0.7816164E-02  0.1312668E+00
        -11   -1    0    0    0    0  0.00000000000E+00  0.00000000000E+00  0.45593999997E+02  0.45594000000E+02  0.51100000000E-03 0.  1.
         11   -1    0    0    0    0 -0.00000000000E+00 -0.00000000000E+00 -0.45593999997E+02  0.45594000000E+02  0.51100000000E-03 0. -1.
    9900012    2    1    2    0    0 -0.80073723751E+00  0.19084364802E+02  0.38971384581E+02  0.47787274474E+02  0.20000015639E+02 0.  0.
         12    1    1    2    0    0  0.80073723751E+00 -0.19084364802E+02 -0.38971384581E+02  0.43400725526E+02  0.00000000000E+00 0. -1.
         11    1    3    3    0    0  0.14985682730E+00  0.52199152907E+01  0.92557623608E+01  0.10627281395E+02  0.51100000000E-03 0. -1.
        -11    1    3    3    0    0  0.82057607193E+01  0.68764486535E+01  0.15967642680E+02  0.19224611000E+02  0.51100000000E-03 0.  1.
         12    1    3    3    0    0 -0.91563547841E+01  0.69880008573E+01  0.13747979540E+02  0.17935382080E+02  0.00000000000E+00 0. -1.
</event>
<event>
 7    1  0.2387817E-009  0.4778727E+02  0.7816164E-02  0.1312668E+00
        -11   -1    0    0    0    0  0.00000000000E+00  0.00000000000E+00  0.45593999997E+02  0.45594000000E+02  0.51100000000E-03 0. -1.
         11   -1    0    0    0    0 -0.00000000000E+00 -0.00000000000E+00 -0.45593999997E+02  0.45594000000E+02  0.51100000000E-03 0.  1.
    9900012    2    1    2    0    0  0.10441052608E+02 -0.41543664565E+02 -0.69808001373E+01  0.47787271716E+02  0.20000003062E+02 0.  0.
         12    1    1    2    0    0 -0.10441052608E+02  0.41543664565E+02  0.69808001373E+01  0.43400728284E+02  0.00000000000E+00 0. -1.
         11    1    3    3    0    0  0.78442820519E+00 -0.10873099294E+02 -0.75301157042E+01  0.13249236154E+02  0.51100000000E-03 0. -1.
        -11    1    3    3    0    0 -0.27955592605E+01 -0.32178958179E+01 -0.90728156917E+00  0.43581148654E+01  0.51100000000E-03 0.  1.
        -12    1    3    3    0    0  0.12452183663E+02 -0.27452669452E+02  0.14565971360E+01  0.30179920697E+02  0.00000000000E+00 0.  1.
</event>
<event>
 7    1  0.2387817E-009  0.4778727E+02  0.7816164E-02  0.1312668E+00
        -11   -1    0    0    0    0  0.00000000000E+00  0.00000000000E+00  0.45593999997E+02  0.45594000000E+02  0.51100000000E-03 0. -1.
         11   -1    0    0    0    0 -0.00000000000E+00 -0.00000000000E+00 -0.45593999997E+02  0.45594000000E+02  0.51100000000E-03 0.  1.
    9900012    2    1    2    0    0 -0.21507414818E+02 -0.30401716511E+02 -0.22288788120E+02  0.47787270342E+02  0.19999996798E+02 0.  0.
         12    1    1    2    0    0  0.21507414818E+02  0.30401716511E+02  0.22288788120E+02  0.43400729658E+02  0.00000000000E+00 0. -1.
         11    1    3    3    0    0 -0.71562773737E+01 -0.64458020667E+00 -0.18622791627E+01  0.74226594582E+01  0.51100000000E-03 0. -1.
        -11    1    3    3    0    0 -0.79898582070E+01 -0.92828471811E+01 -0.26909746766E+01  0.12539953386E+02  0.51100000000E-03 0.  1.
         12    1    3    3    0    0 -0.63612792369E+01 -0.20474289123E+02 -0.17735534281E+02  0.27824657498E+02  0.00000000000E+00 0. -1.
</event>
<event>
 7    1  0.2387817E-009  0.4778727E+02  0.7816164E-02  0.1312668E+00
        -11   -1    0    0    0    0  0.00000000000E+00  0.00000000000E+00  0.45593999997E+02  0.45594000000E+02  0.51100000000E-03 0. -1.
         11   -1    0    0    0    0 -0.00000000000E+00 -0.00000000000E+00 -0.45593999997E+02  0.45594000000E+02  0.51100000000E-03 0.  1.
    9900012    2    1    2    0    0 -0.38700500901E+02  0.19406959496E+02 -0.30437559354E+01  0.47787270777E+02  0.19999998782E+02 0.  0.
         12    1    1    2    0    0  0.38700500901E+02 -0.19406959496E+02  0.30437559354E+01  0.43400729223E+02  0.00000000000E+00 0. -1.
         11    1    3    3    0    0 -0.14399536085E+01 -0.14541184385E+01 -0.12665377396E+01  0.24066667685E+01  0.51100000000E-03 0. -1.
        -11    1    3    3    0    0 -0.11716748387E+02 -0.19105008507E+00  0.25657028237E+01  0.11995896137E+02  0.51100000000E-03 0.  1.
         12    1    3    3    0    0 -0.25543798906E+02  0.21052128020E+02 -0.43429210195E+01  0.33384707872E+02  0.00000000000E+00 0. -1.
</event>
<event>
 7    1  0.2387817E-009  0.4778727E+02  0.7816164E-02  0.1312668E+00
        -11   -1    0    0    0    0  0.00000000000E+00  0.00000000000E+00  0.45593999997E+02  0.45594000000E+02  0.51100000000E-03 0.  1.
         11   -1    0    0    0    0 -0.00000000000E+00 -0.00000000000E+00 -0.45593999997E+02  0.45594000000E+02  0.51100000000E-03 0. -1.
    9900012    2    1    2    0    0 -0.37636744510E+02 -0.18229764433E+02  0.11609247967E+02  0.47787268590E+02  0.19999988810E+02 0.  0.
         12    1    1    2    0    0  0.37636744510E+02  0.18229764433E+02 -0.11609247967E+02  0.43400731410E+02  0.00000000000E+00 0. -1.
         11    1    3    3    0    0 -0.37981697618E+01 -0.44109887715E+01 -0.50638496121E+00  0.58428881105E+01  0.51100000000E-03 0. -1.
        -11    1    3    3    0    0 -0.88759358287E+01  0.15800423633E+01  0.85027580301E+01  0.12392564911E+02  0.51100000000E-03 0.  1.
        -12    1    3    3    0    0 -0.24962638919E+02 -0.15398818024E+02  0.36128748983E+01  0.29551815568E+02  0.00000000000E+00 0.  1.
</event>
<event>
 7    1  0.2387817E-009  0.4778725E+02  0.7816164E-02  0.1312668E+00
        -11   -1    0    0    0    0  0.00000000000E+00  0.00000000000E+00  0.45593999997E+02  0.45594000000E+02  0.51100000000E-03 0. -1.
         11   -1    0    0    0    0 -0.00000000000E+00 -0.00000000000E+00 -0.45593999997E+02  0.45594000000E+02  0.51100000000E-03 0.  1.
    9900012    2    1    2    0    0 -0.31828767065E+01 -0.19315959381E+02 -0.38734841714E+02  0.47787251694E+02  0.19999911773E+02 0.  0.
         12    1    1    2    0    0  0.31828767065E+01  0.19315959381E+02  0.38734841714E+02  0.43400748306E+02  0.00000000000E+00 0. -1.
         11    1    3    3    0    0 -0.32166105252E+00 -0.11728872012E+02 -0.17832703667E+02  0.21346550654E+02  0.51100000000E-03 0.  1.
        -11    1    3    3    0    0 -0.77767021542E+01 -0.74268980754E+01 -0.10991667591E+02  0.15377017530E+02  0.51100000000E-03 0. -1.
         12    1    3    3    0    0  0.49154865003E+01 -0.16018929300E+00 -0.99104704561E+01  0.11063683510E+02  0.00000000000E+00 0. -1.
</event>
<event>
 7    1  0.2387817E-009  0.4778727E+02  0.7816164E-02  0.1312668E+00
        -11   -1    0    0    0    0  0.00000000000E+00  0.00000000000E+00  0.45593999997E+02  0.45594000000E+02  0.51100000000E-03 0.  1.
         11   -1    0    0    0    0 -0.00000000000E+00 -0.00000000000E+00 -0.45593999997E+02  0.45594000000E+02  0.51100000000E-03 0. -1.
    9900012    2    1    2    0    0 -0.32572306291E+01 -0.19588825075E+02  0.38591339535E+02  0.47787272975E+02  0.20000008803E+02 0.  0.
         12    1    1    2    0    0  0.32572306291E+01  0.19588825075E+02 -0.38591339535E+02  0.43400727025E+02  0.00000000000E+00 0. -1.
         11    1    3    3    0    0 -0.11868735677E+01 -0.60476510373E+01  0.31404087745E+01  0.69170022023E+01  0.51100000000E-03 0. -1.
        -11    1    3    3    0    0 -0.39727559354E+00 -0.16702596887E+02  0.30268200960E+02  0.34573090117E+02  0.51100000000E-03 0.  1.
        -12    1    3    3    0    0 -0.16730814679E+01  0.31614228485E+01  0.51827298003E+01  0.62971806555E+01  0.00000000000E+00 0.  1.
</event>
<event>
 7    1  0.2387817E-009  0.4778727E+02  0.7816164E-02  0.1312668E+00
        -11   -1    0    0    0    0  0.00000000000E+00  0.00000000000E+00  0.45593999997E+02  0.45594000000E+02  0.51100000000E-03 0.  1.
         11   -1    0    0    0    0 -0.00000000000E+00 -0.00000000000E+00 -0.45593999997E+02  0.45594000000E+02  0.51100000000E-03 0. -1.
    9900012    2    1    2    0    0  0.16779310664E+02  0.39958659657E+02  0.23202682133E+01  0.47787269677E+02  0.19999993767E+02 0.  0.
         12    1    1    2    0    0 -0.16779310664E+02 -0.39958659657E+02 -0.23202682133E+01  0.43400730323E+02  0.00000000000E+00 0. -1.
         11    1    3    3    0    0  0.81878528562E+01  0.53341906587E+01 -0.10435932137E+01  0.98276961407E+01  0.51100000000E-03 0.  1.
        -11    1    3    3    0    0  0.54876102895E+01  0.98332596402E+01  0.61315962924E+01  0.12821986398E+02  0.51100000000E-03 0. -1.
        -12    1    3    3    0    0  0.31038475184E+01  0.24791209358E+02 -0.27677348655E+01  0.25137587139E+02  0.00000000000E+00 0.  1.
</event>
<event>
 7    1  0.2387817E-009  0.4778728E+02  0.7816164E-02  0.1312668E+00
        -11   -1    0    0    0    0  0.00000000000E+00  0.00000000000E+00  0.45593999997E+02  0.45594000000E+02  0.51100000000E-03 0.  1.
         11   -1    0    0    0    0 -0.00000000000E+00 -0.00000000000E+00 -0.45593999997E+02  0.45594000000E+02  0.51100000000E-03 0. -1.
    9900012    2    1    2    0    0  0.39085621988E+00 -0.11453890816E+00  0.43398812097E+02  0.47787276744E+02  0.20000025986E+02 0.  0.
         12    1    1    2    0    0 -0.39085621988E+00  0.11453890816E+00 -0.43398812097E+02  0.43400723256E+02  0.00000000000E+00 0. -1.
         11    1    3    3    0    0  0.47080364031E+01  0.50215115738E+01  0.27004185947E+02  0.27867673820E+02  0.51100000000E-03 0. -1.
        -11    1    3    3    0    0  0.11977365988E+01  0.12345533016E+01  0.73895896074E+01  0.75871423897E+01  0.51100000000E-03 0.  1.
        -12    1    3    3    0    0 -0.55149167820E+01 -0.63706037836E+01  0.90050365426E+01  0.12332460534E+02  0.00000000000E+00 0.  1.
</event>
<event>
 7    1  0.2387817E-009  0.4778727E+02  0.7816164E-02  0.1312668E+00
        -11   -1    0    0    0    0  0.00000000000E+00  0.00000000000E+00  0.45593999997E+02  0.45594000000E+02  0.51100000000E-03 0. -1.
         11   -1    0    0    0    0 -0.00000000000E+00 -0.00000000000E+00 -0.45593999997E+02  0.45594000000E+02  0.51100000000E-03 0.  1.
    9900012    2    1    2    0    0 -0.36293905214E+02  0.13725137755E+02 -0.19442122887E+02  0.47787272996E+02  0.20000008899E+02 0.  0.
         12    1    1    2    0    0  0.36293905214E+02 -0.13725137755E+02  0.19442122887E+02  0.43400727004E+02  0.00000000000E+00 0. -1.
         11    1    3    3    0    0 -0.73479850214E+01  0.94185121244E+00 -0.17125311542E+01  0.76034683399E+01  0.51100000000E-03 0. -1.
        -11    1    3    3    0    0 -0.17626359741E+02 -0.15312022877E+01 -0.10359224972E+02  0.20502357924E+02  0.51100000000E-03 0.  1.
         12    1    3    3    0    0 -0.11319560452E+02  0.14314488830E+02 -0.73703667614E+01  0.19681446732E+02  0.00000000000E+00 0. -1.
</event>
<event>
 7    1  0.2387817E-009  0.4778727E+02  0.7816164E-02  0.1312668E+00
        -11   -1    0    0    0    0  0.00000000000E+00  0.00000000000E+00  0.45593999997E+02  0.45594000000E+02  0.51100000000E-03 0. -1.
         11   -1    0    0    0    0 -0.00000000000E+00 -0.00000000000E+00 -0.45593999997E+02  0.45594000000E+02  0.51100000000E-03 0.  1.
    9900012    2    1    2    0    0 -0.15742000612E+02  0.30240373370E+02 -0.26857628108E+02  0.47787274748E+02  0.20000016886E+02 0.  0.
         12    1    1    2    0    0  0.15742000612E+02 -0.30240373370E+02  0.26857628108E+02  0.43400725252E+02  0.00000000000E+00 0. -1.
         11    1    3    3    0    0 -0.77550154591E+01  0.26161176756E+01 -0.59529641465E+01  0.10120381359E+02  0.51100000000E-03 0. -1.
        -11    1    3    3    0    0  0.96021480545E+00  0.12416398469E+02 -0.36249082772E+01  0.12970309314E+02  0.51100000000E-03 0.  1.
         12    1    3    3    0    0 -0.89471999579E+01  0.15207857226E+02 -0.17279755684E+02  0.24696584075E+02  0.00000000000E+00 0. -1.
</event>
<event>
 7    1  0.2387817E-009  0.4778726E+02  0.7816164E-02  0.1312668E+00
        -11   -1    0    0    0    0  0.00000000000E+00  0.00000000000E+00  0.45593999997E+02  0.45594000000E+02  0.51100000000E-03 0.  1.
         11   -1    0    0    0    0 -0.00000000000E+00 -0.00000000000E+00 -0.45593999997E+02  0.45594000000E+02  0.51100000000E-03 0. -1.
    9900012    2    1    2    0    0 -0.25026490756E+02 -0.15963656236E+01  0.35422459185E+02  0.47787259943E+02  0.19999949385E+02 0.  0.
         12    1    1    2    0    0  0.25026490756E+02  0.15963656236E+01 -0.35422459185E+02  0.43400740057E+02  0.00000000000E+00 0. -1.
         11    1    3    3    0    0 -0.72108707513E+01 -0.11457249814E+01  0.17724117692E+02  0.19169081641E+02  0.51100000000E-03 0. -1.
        -11    1    3    3    0    0 -0.24047780902E+01 -0.33413910715E+01  0.10667620343E+02  0.11434420668E+02  0.51100000000E-03 0.  1.
         12    1    3    3    0    0 -0.15410841915E+02  0.28907504292E+01  0.70307211496E+01  0.17183757635E+02  0.00000000000E+00 0. -1.
</event>
<event>
 7    1  0.2387817E-009  0.4778727E+02  0.7816164E-02  0.1312668E+00
        -11   -1    0    0    0    0  0.00000000000E+00  0.00000000000E+00  0.45593999997E+02  0.45594000000E+02  0.51100000000E-03 0.  1.
         11   -1    0    0    0    0 -0.00000000000E+00 -0.00000000000E+00 -0.45593999997E+02  0.45594000000E+02  0.51100000000E-03 0. -1.
    9900012    2    1    2    0    0  0.24406426781E+02  0.35735477950E+02  0.33053253997E+01  0.47787271567E+02  0.20000002381E+02 0.  0.
         12    1    1    2    0    0 -0.24406426781E+02 -0.35735477950E+02 -0.33053253997E+01  0.43400728433E+02  0.00000000000E+00 0. -1.
         11    1    3    3    0    0  0.70414024473E+01  0.25177160057E+02  0.72288053664E+00  0.26153265446E+02  0.51100000000E-03 0. -1.
        -11    1    3    3    0    0 -0.48057706182E-01 -0.16100499583E+00  0.11213905739E+01  0.11339088289E+01  0.51100000000E-03 0.  1.
        -12    1    3    3    0    0  0.17413082040E+02  0.10719322889E+02  0.14610542891E+01  0.20500097292E+02  0.00000000000E+00 0.  1.
</event>
<event>
 7    1  0.2387817E-009  0.4778727E+02  0.7816164E-02  0.1312668E+00
        -11   -1    0    0    0    0  0.00000000000E+00  0.00000000000E+00  0.45593999997E+02  0.45594000000E+02  0.51100000000E-03 0.  1.
         11   -1    0    0    0    0 -0.00000000000E+00 -0.00000000000E+00 -0.45593999997E+02  0.45594000000E+02  0.51100000000E-03 0. -1.
    9900012    2    1    2    0    0  0.14937214765E+02  0.48043770269E+01  0.40465054960E+02  0.47787273089E+02  0.20000009321E+02 0.  0.
         12    1    1    2    0    0 -0.14937214765E+02 -0.48043770269E+01 -0.40465054960E+02  0.43400726911E+02  0.00000000000E+00 0. -1.
         11    1    3    3    0    0  0.85862287657E+01 -0.15609754434E+01  0.11741378137E+02  0.14629420001E+02  0.51100000000E-03 0. -1.
        -11    1    3    3    0    0  0.85159274109E+01  0.11867274451E+01  0.24961070958E+02  0.26400462218E+02  0.51100000000E-03 0.  1.
         12    1    3    3    0    0 -0.21649414119E+01  0.51786250252E+01  0.37626058640E+01  0.67573908690E+01  0.00000000000E+00 0. -1.
</event>
<event>
 7    1  0.2387817E-009  0.4778727E+02  0.7816164E-02  0.1312668E+00
        -11   -1    0    0    0    0  0.00000000000E+00  0.00000000000E+00  0.45593999997E+02  0.45594000000E+02  0.51100000000E-03 0.  1.
         11   -1    0    0    0    0 -0.00000000000E+00 -0.00000000000E+00 -0.45593999997E+02  0.45594000000E+02  0.51100000000E-03 0. -1.
    9900012    2    1    2    0    0 -0.41730098666E+01  0.40910353167E+02  0.13876319378E+02  0.47787271353E+02  0.20000001406E+02 0.  0.
         12    1    1    2    0    0  0.41730098666E+01 -0.40910353167E+02 -0.13876319378E+02  0.43400728647E+02  0.00000000000E+00 0. -1.
         11    1    3    3    0    0  0.43097260999E+01  0.92899859313E+01  0.73918903404E+00  0.10267617949E+02  0.51100000000E-03 0. -1.
        -11    1    3    3    0    0 -0.21038232784E+01  0.94877805397E+01 -0.20471837578E+01  0.99315161761E+01  0.51100000000E-03 0.  1.
         12    1    3    3    0    0 -0.63789126880E+01  0.22132586696E+02  0.15184314102E+02  0.27588137228E+02  0.00000000000E+00 0. -1.
</event>
<event>
 7    1  0.2387817E-009  0.4778727E+02  0.7816164E-02  0.1312668E+00
        -11   -1    0    0    0    0  0.00000000000E+00  0.00000000000E+00  0.45593999997E+02  0.45594000000E+02  0.51100000000E-03 0. -1.
         11   -1    0    0    0    0 -0.00000000000E+00 -0.00000000000E+00 -0.45593999997E+02  0.45594000000E+02  0.51100000000E-03 0.  1.
    9900012    2    1    2    0    0  0.15955885074E+02 -0.11917398301E+02 -0.38561749196E+02  0.47787272451E+02  0.20000006414E+02 0.  0.
         12    1    1    2    0    0 -0.15955885074E+02  0.11917398301E+02  0.38561749196E+02  0.43400727549E+02  0.00000000000E+00 0. -1.
         11    1    3    3    0    0  0.51269098237E+01 -0.91107850919E+01 -0.24378253671E+02  0.26525287212E+02  0.51100000000E-03 0. -1.
        -11    1    3    3    0    0  0.11199998760E+02 -0.53174665650E+01 -0.14024301566E+02  0.18718879709E+02  0.51100000000E-03 0.  1.
         12    1    3    3    0    0 -0.37102350981E+00  0.25108533564E+01 -0.15919395835E+00  0.25431055303E+01  0.00000000000E+00 0. -1.
</event>
<event>
 7    1  0.2387817E-009  0.4778727E+02  0.7816164E-02  0.1312668E+00
        -11   -1    0    0    0    0  0.00000000000E+00  0.00000000000E+00  0.45593999997E+02  0.45594000000E+02  0.51100000000E-03 0.  1.
         11   -1    0    0    0    0 -0.00000000000E+00 -0.00000000000E+00 -0.45593999997E+02  0.45594000000E+02  0.51100000000E-03 0. -1.
    9900012    2    1    2    0    0 -0.23508124595E+02 -0.36240706985E+02 -0.41955154339E+01  0.47787272880E+02  0.20000008369E+02 0.  0.
         12    1    1    2    0    0  0.23508124595E+02  0.36240706985E+02  0.41955154339E+01  0.43400727120E+02  0.00000000000E+00 0. -1.
         11    1    3    3    0    0  0.14667816631E+01 -0.18751501634E+01  0.13174480054E+01  0.27209017054E+01  0.51100000000E-03 0. -1.
        -11    1    3    3    0    0 -0.14038672730E+02 -0.11085677002E+02  0.26462066585E+01  0.18082560011E+02  0.51100000000E-03 0.  1.
         12    1    3    3    0    0 -0.10936233528E+02 -0.23279879820E+02 -0.81591700977E+01  0.26983811163E+02  0.00000000000E+00 0. -1.
</event>
<event>
 7    1  0.2387817E-009  0.4778727E+02  0.7816164E-02  0.1312668E+00
        -11   -1    0    0    0    0  0.00000000000E+00  0.00000000000E+00  0.45593999997E+02  0.45594000000E+02  0.51100000000E-03 0. -1.
         11   -1    0    0    0    0 -0.00000000000E+00 -0.00000000000E+00 -0.45593999997E+02  0.45594000000E+02  0.51100000000E-03 0.  1.
    9900012    2    1    2    0    0  0.45889627121E+00 -0.34507202020E+02 -0.26318547762E+02  0.47787268055E+02  0.19999986370E+02 0.  0.
         12    1    1    2    0    0 -0.45889627121E+00  0.34507202020E+02  0.26318547762E+02  0.43400731945E+02  0.00000000000E+00 0. -1.
         11    1    3    3    0    0  0.15580381471E+01 -0.14422331605E+01 -0.39307881557E-01  0.21234558455E+01  0.51100000000E-03 0.  1.
        -11    1    3    3    0    0 -0.21818134958E+01 -0.86225469543E+01  0.10810159521E+01  0.89597556808E+01  0.51100000000E-03 0. -1.
         12    1    3    3    0    0  0.10826716199E+01 -0.24442421905E+02 -0.27360255833E+02  0.36704056529E+02  0.00000000000E+00 0. -1.
</event>
<event>
 7    1  0.2387817E-009  0.4778727E+02  0.7816164E-02  0.1312668E+00
        -11   -1    0    0    0    0  0.00000000000E+00  0.00000000000E+00  0.45593999997E+02  0.45594000000E+02  0.51100000000E-03 0.  1.
         11   -1    0    0    0    0 -0.00000000000E+00 -0.00000000000E+00 -0.45593999997E+02  0.45594000000E+02  0.51100000000E-03 0. -1.
    9900012    2    1    2    0    0 -0.83949012089E+01 -0.40470564146E+02  0.13239424693E+02  0.47787270803E+02  0.19999998901E+02 0.  0.
         12    1    1    2    0    0  0.83949012089E+01  0.40470564146E+02 -0.13239424693E+02  0.43400729197E+02  0.00000000000E+00 0. -1.
         11    1    3    3    0    0 -0.11044991047E+01 -0.24373800807E+02  0.19564322703E+00  0.24399597550E+02  0.51100000000E-03 0. -1.
        -11    1    3    3    0    0 -0.25740468189E+01 -0.77544899204E+01  0.13706609773E+01  0.82847174199E+01  0.51100000000E-03 0.  1.
         12    1    3    3    0    0 -0.47163552853E+01 -0.83422734179E+01  0.11673120489E+02  0.15102955834E+02  0.00000000000E+00 0. -1.
</event>
<event>
 7    1  0.2387817E-009  0.4778727E+02  0.7816164E-02  0.1312668E+00
        -11   -1    0    0    0    0  0.00000000000E+00  0.00000000000E+00  0.45593999997E+02  0.45594000000E+02  0.51100000000E-03 0.  1.
         11   -1    0    0    0    0 -0.00000000000E+00 -0.00000000000E+00 -0.45593999997E+02  0.45594000000E+02  0.51100000000E-03 0. -1.
    9900012    2    1    2    0    0 -0.19048644980E+02 -0.57482036419E+01  0.38571110502E+02  0.47787270904E+02  0.19999999359E+02 0.  0.
         12    1    1    2    0    0  0.19048644980E+02  0.57482036419E+01 -0.38571110502E+02  0.43400729096E+02  0.00000000000E+00 0. -1.
         11    1    3    3    0    0 -0.11922659836E+01  0.10019662290E+01  0.18203170890E+01  0.23956187229E+01  0.51100000000E-03 0. -1.
        -11    1    3    3    0    0 -0.17315129551E+01 -0.10034031929E+02  0.13689702011E+02  0.17061297585E+02  0.51100000000E-03 0.  1.
        -12    1    3    3    0    0 -0.16124866042E+02  0.32838620581E+01  0.23061091402E+02  0.28330354596E+02  0.00000000000E+00 0.  1.
</event>
<event>
 7    1  0.2387817E-009  0.4778727E+02  0.7816164E-02  0.1312668E+00
        -11   -1    0    0    0    0  0.00000000000E+00  0.00000000000E+00  0.45593999997E+02  0.45594000000E+02  0.51100000000E-03 0.  1.
         11   -1    0    0    0    0 -0.00000000000E+00 -0.00000000000E+00 -0.45593999997E+02  0.45594000000E+02  0.51100000000E-03 0. -1.
    9900012    2    1    2    0    0  0.18641653408E+02 -0.26266971858E+02  0.29088796302E+02  0.47787272786E+02  0.20000007942E+02 0.  0.
         12    1    1    2    0    0 -0.18641653408E+02  0.26266971858E+02 -0.29088796302E+02  0.43400727214E+02  0.00000000000E+00 0. -1.
         11    1    3    3    0    0  0.70501378280E+01 -0.37238023261E+01  0.15073546789E+02  0.17052359374E+02  0.51100000000E-03 0. -1.
        -11    1    3    3    0    0  0.59194796931E+01 -0.14381302959E+02  0.13802317900E+02  0.20793414686E+02  0.51100000000E-03 0.  1.
        -12    1    3    3    0    0  0.56720358870E+01 -0.81618665725E+01  0.21293161349E+00  0.99414987262E+01  0.00000000000E+00 0.  1.
</event>
<event>
 7    1  0.2387817E-009  0.4778727E+02  0.7816164E-02  0.1312668E+00
        -11   -1    0    0    0    0  0.00000000000E+00  0.00000000000E+00  0.45593999997E+02  0.45594000000E+02  0.51100000000E-03 0. -1.
         11   -1    0    0    0    0 -0.00000000000E+00 -0.00000000000E+00 -0.45593999997E+02  0.45594000000E+02  0.51100000000E-03 0.  1.
    9900012    2    1    2    0    0  0.27629765211E+02 -0.45298412299E+01 -0.33161720785E+02  0.47787272902E+02  0.20000008468E+02 0.  0.
         12    1    1    2    0    0 -0.27629765211E+02  0.45298412299E+01  0.33161720785E+02  0.43400727098E+02  0.00000000000E+00 0. -1.
         11    1    3    3    0    0  0.78275759535E+01 -0.15398930243E+00 -0.19528088681E+02  0.21039032911E+02  0.51100000000E-03 0. -1.
        -11    1    3    3    0    0  0.79326287140E+01  0.29533115975E+01 -0.81766325371E+01  0.11768855833E+02  0.51100000000E-03 0.  1.
         12    1    3    3    0    0  0.11869560544E+02 -0.73291635249E+01 -0.54569995671E+01  0.14979384158E+02  0.00000000000E+00 0. -1.
</event>
<event>
 7    1  0.2387817E-009  0.4778727E+02  0.7816164E-02  0.1312668E+00
        -11   -1    0    0    0    0  0.00000000000E+00  0.00000000000E+00  0.45593999997E+02  0.45594000000E+02  0.51100000000E-03 0.  1.
         11   -1    0    0    0    0 -0.00000000000E+00 -0.00000000000E+00 -0.45593999997E+02  0.45594000000E+02  0.51100000000E-03 0. -1.
    9900012    2    1    2    0    0  0.14434937084E+02  0.40112396791E+02  0.81395046788E+01  0.47787270497E+02  0.19999997506E+02 0.  0.
         12    1    1    2    0    0 -0.14434937084E+02 -0.40112396791E+02 -0.81395046788E+01  0.43400729503E+02  0.00000000000E+00 0. -1.
         11    1    3    3    0    0  0.92409035604E+01  0.10501410769E+02  0.46358478730E+01  0.14736519688E+02  0.51100000000E-03 0. -1.
        -11    1    3    3    0    0  0.30646868540E+01  0.22588017791E+02  0.83276903365E+01  0.24268524468E+02  0.51100000000E-03 0.  1.
        -12    1    3    3    0    0  0.21293466700E+01  0.70229682300E+01 -0.48240335307E+01  0.87822263411E+01  0.00000000000E+00 0.  1.
</event>
<event>
 7    1  0.2387817E-009  0.4778727E+02  0.7816164E-02  0.1312668E+00
        -11   -1    0    0    0    0  0.00000000000E+00  0.00000000000E+00  0.45593999997E+02  0.45594000000E+02  0.51100000000E-03 0. -1.
         11   -1    0    0    0    0 -0.00000000000E+00 -0.00000000000E+00 -0.45593999997E+02  0.45594000000E+02  0.51100000000E-03 0.  1.
    9900012    2    1    2    0    0  0.96547985050E+01 -0.40413768105E+02 -0.12535371403E+02  0.47787270481E+02  0.19999997430E+02 0.  0.
         12    1    1    2    0    0 -0.96547985050E+01  0.40413768105E+02  0.12535371403E+02  0.43400729519E+02  0.00000000000E+00 0. -1.
         11    1    3    3    0    0  0.48362136873E+01 -0.37439625149E+02 -0.73954250079E+01  0.38468257115E+02  0.51100000000E-03 0. -1.
        -11    1    3    3    0    0  0.55988612599E+00 -0.26807344548E+01 -0.40913642681E+01  0.49233191575E+01  0.51100000000E-03 0.  1.
         12    1    3    3    0    0  0.42586986918E+01 -0.29340850054E+00 -0.10485821267E+01  0.43956942082E+01  0.00000000000E+00 0. -1.
</event>
<event>
 7    1  0.2387817E-009  0.4778726E+02  0.7816164E-02  0.1312668E+00
        -11   -1    0    0    0    0  0.00000000000E+00  0.00000000000E+00  0.45593999997E+02  0.45594000000E+02  0.51100000000E-03 0.  1.
         11   -1    0    0    0    0 -0.00000000000E+00 -0.00000000000E+00 -0.45593999997E+02  0.45594000000E+02  0.51100000000E-03 0. -1.
    9900012    2    1    2    0    0 -0.20971817618E+02 -0.24929168218E+02  0.28676540871E+02  0.47787256244E+02  0.19999932521E+02 0.  0.
         12    1    1    2    0    0  0.20971817618E+02  0.24929168218E+02 -0.28676540871E+02  0.43400743756E+02  0.00000000000E+00 0. -1.
         11    1    3    3    0    0 -0.29817450314E+01 -0.10819125845E+01  0.51451521018E+01  0.60443302925E+01  0.51100000000E-03 0. -1.
        -11    1    3    3    0    0 -0.42868180527E+01 -0.17258619261E+02  0.65545939064E+01  0.18952557858E+02  0.51100000000E-03 0.  1.
        -12    1    3    3    0    0 -0.13703254534E+02 -0.65886363725E+01  0.16976794862E+02  0.22790368094E+02  0.00000000000E+00 0.  1.
</event>
<event>
 7    1  0.2387817E-009  0.4778728E+02  0.7816164E-02  0.1312668E+00
        -11   -1    0    0    0    0  0.00000000000E+00  0.00000000000E+00  0.45593999997E+02  0.45594000000E+02  0.51100000000E-03 0.  1.
         11   -1    0    0    0    0 -0.00000000000E+00 -0.00000000000E+00 -0.45593999997E+02  0.45594000000E+02  0.51100000000E-03 0. -1.
    9900012    2    1    2    0    0 -0.28674132216E+02  0.26140038893E+02  0.19445190174E+02  0.47787275207E+02  0.20000018978E+02 0.  0.
         12    1    1    2    0    0  0.28674132216E+02 -0.26140038893E+02 -0.19445190174E+02  0.43400724793E+02  0.00000000000E+00 0. -1.
         11    1    3    3    0    0 -0.40570695479E+01 -0.81292165009E+00  0.75702502915E+01  0.86272443261E+01  0.51100000000E-03 0. -1.
        -11    1    3    3    0    0 -0.53916695450E+00  0.40650650789E+00  0.18135268427E+01  0.19351559152E+01  0.51100000000E-03 0.  1.
        -12    1    3    3    0    0 -0.24077895714E+02  0.26546454035E+02  0.10061413040E+02  0.37224874965E+02  0.00000000000E+00 0.  1.
</event>
<event>
 7    1  0.2387817E-009  0.4778727E+02  0.7816164E-02  0.1312668E+00
        -11   -1    0    0    0    0  0.00000000000E+00  0.00000000000E+00  0.45593999997E+02  0.45594000000E+02  0.51100000000E-03 0.  1.
         11   -1    0    0    0    0 -0.00000000000E+00 -0.00000000000E+00 -0.45593999997E+02  0.45594000000E+02  0.51100000000E-03 0. -1.
    9900012    2    1    2    0    0  0.61855912204E+01  0.28762312800E+02  0.31907536533E+02  0.47787273463E+02  0.20000011026E+02 0.  0.
         12    1    1    2    0    0 -0.61855912204E+01 -0.28762312800E+02 -0.31907536533E+02  0.43400726537E+02  0.00000000000E+00 0. -1.
         11    1    3    3    0    0 -0.17051712008E+01  0.45330844605E+01  0.53801568792E+01  0.72389606889E+01  0.51100000000E-03 0. -1.
        -11    1    3    3    0    0  0.31265745943E+01  0.11476351996E+02  0.14088035329E+01  0.11977764879E+02  0.51100000000E-03 0.  1.
        -12    1    3    3    0    0  0.47641878269E+01  0.12752876344E+02  0.25118576121E+02  0.28570547895E+02  0.00000000000E+00 0.  1.
</event>
<event>
 7    1  0.2387817E-009  0.4778727E+02  0.7816164E-02  0.1312668E+00
        -11   -1    0    0    0    0  0.00000000000E+00  0.00000000000E+00  0.45593999997E+02  0.45594000000E+02  0.51100000000E-03 0. -1.
         11   -1    0    0    0    0 -0.00000000000E+00 -0.00000000000E+00 -0.45593999997E+02  0.45594000000E+02  0.51100000000E-03 0.  1.
    9900012    2    1    2    0    0 -0.11563779878E+00  0.39492445027E+02 -0.17998803330E+02  0.47787268351E+02  0.19999987721E+02 0.  0.
         12    1    1    2    0    0  0.11563779878E+00 -0.39492445027E+02  0.17998803330E+02  0.43400731649E+02  0.00000000000E+00 0. -1.
         11    1    3    3    0    0 -0.66475229025E+01  0.11711493878E+02 -0.50645981555E+01  0.14387453017E+02  0.51100000000E-03 0. -1.
        -11    1    3    3    0    0  0.14320493799E+01  0.37781095934E+01  0.21689428830E+01  0.45857595900E+01  0.51100000000E-03 0.  1.
        -12    1    3    3    0    0  0.50998357238E+01  0.24002841556E+02 -0.15103148057E+02  0.28814055744E+02  0.00000000000E+00 0.  1.
</event>
<event>
 7    1  0.2387817E-009  0.4778726E+02  0.7816164E-02  0.1312668E+00
        -11   -1    0    0    0    0  0.00000000000E+00  0.00000000000E+00  0.45593999997E+02  0.45594000000E+02  0.51100000000E-03 0.  1.
         11   -1    0    0    0    0 -0.00000000000E+00 -0.00000000000E+00 -0.45593999997E+02  0.45594000000E+02  0.51100000000E-03 0. -1.
    9900012    2    1    2    0    0 -0.22716838600E+02  0.30457484123E+01  0.36855031218E+02  0.47787255013E+02  0.19999926904E+02 0.  0.
         12    1    1    2    0    0  0.22716838600E+02 -0.30457484123E+01 -0.36855031218E+02  0.43400744987E+02  0.00000000000E+00 0. -1.
         11    1    3    3    0    0 -0.18265868600E+02  0.15613968244E+01  0.24162066207E+02  0.30329611923E+02  0.51100000000E-03 0. -1.
        -11    1    3    3    0    0 -0.78767250639E+01  0.24301317664E+01  0.73703061484E+01  0.11057565334E+02  0.51100000000E-03 0.  1.
         12    1    3    3    0    0  0.34257550641E+01 -0.94578017850E+00  0.53226588629E+01  0.64000777555E+01  0.00000000000E+00 0. -1.
</event>
<event>
 7    1  0.2387817E-009  0.4778727E+02  0.7816164E-02  0.1312668E+00
        -11   -1    0    0    0    0  0.00000000000E+00  0.00000000000E+00  0.45593999997E+02  0.45594000000E+02  0.51100000000E-03 0.  1.
         11   -1    0    0    0    0 -0.00000000000E+00 -0.00000000000E+00 -0.45593999997E+02  0.45594000000E+02  0.51100000000E-03 0. -1.
    9900012    2    1    2    0    0  0.20976218549E+02  0.77368599778E+01  0.37198958607E+02  0.47787271108E+02  0.20000000288E+02 0.  0.
         12    1    1    2    0    0 -0.20976218549E+02 -0.77368599778E+01 -0.37198958607E+02  0.43400728892E+02  0.00000000000E+00 0. -1.
         11    1    3    3    0    0  0.33856167069E+01 -0.16869042327E+01  0.20074298156E+02  0.20427566989E+02  0.51100000000E-03 0. -1.
        -11    1    3    3    0    0 -0.19074400280E+00 -0.64761591517E+00 -0.33801779463E-01  0.67596780219E+00  0.51100000000E-03 0.  1.
        -12    1    3    3    0    0  0.17781345844E+02  0.10071380126E+02  0.17158462231E+02  0.26683736317E+02  0.00000000000E+00 0.  1.
</event>
<event>
 7    1  0.2387817E-009  0.4778728E+02  0.7816164E-02  0.1312668E+00
        -11   -1    0    0    0    0  0.00000000000E+00  0.00000000000E+00  0.45593999997E+02  0.45594000000E+02  0.51100000000E-03 0.  1.
         11   -1    0    0    0    0 -0.00000000000E+00 -0.00000000000E+00 -0.45593999997E+02  0.45594000000E+02  0.51100000000E-03 0. -1.
    9900012    2    1    2    0    0  0.14537096315E+02 -0.39819081885E+02 -0.93132398160E+01  0.47787275498E+02  0.20000020305E+02 0.  0.
         12    1    1    2    0    0 -0.14537096315E+02  0.39819081885E+02  0.93132398160E+01  0.43400724502E+02  0.00000000000E+00 0. -1.
         11    1    3    3    0    0  0.86985413239E+01 -0.21483008698E+02 -0.62854901819E+01  0.24014405489E+02  0.51100000000E-03 0. -1.
        -11    1    3    3    0    0  0.47402487167E+01  0.44617344707E+00 -0.44175184321E+00  0.47816496728E+01  0.51100000000E-03 0.  1.
         12    1    3    3    0    0  0.10983062741E+01 -0.18782246634E+02 -0.25859977909E+01  0.18991220337E+02  0.00000000000E+00 0. -1.
</event>
<event>
 7    1  0.2387817E-009  0.4778723E+02  0.7816164E-02  0.1312668E+00
        -11   -1    0    0    0    0  0.00000000000E+00  0.00000000000E+00  0.45593999997E+02  0.45594000000E+02  0.51100000000E-03 0.  1.
         11   -1    0    0    0    0 -0.00000000000E+00 -0.00000000000E+00 -0.45593999997E+02  0.45594000000E+02  0.51100000000E-03 0. -1.
    9900012    2    1    2    0    0 -0.98684957788E+01 -0.65164760451E+01  0.41758529590E+02  0.47787234310E+02  0.19999832512E+02 0.  0.
         12    1    1    2    0    0  0.98684957788E+01  0.65164760451E+01 -0.41758529590E+02  0.43400765690E+02  0.00000000000E+00 0. -1.
         11    1    3    3    0    0 -0.29077230541E+01  0.15330773006E+01  0.10455477727E+01  0.34493984656E+01  0.51100000000E-03 0. -1.
        -11    1    3    3    0    0 -0.99708199694E+01 -0.13685032222E+01  0.20492517616E+02  0.22830535045E+02  0.51100000000E-03 0.  1.
         12    1    3    3    0    0  0.30100472447E+01 -0.66810501236E+01  0.20220464201E+02  0.21507300799E+02  0.00000000000E+00 0. -1.
</event>
<event>
 7    1  0.2387817E-009  0.4778727E+02  0.7816164E-02  0.1312668E+00
        -11   -1    0    0    0    0  0.00000000000E+00  0.00000000000E+00  0.45593999997E+02  0.45594000000E+02  0.51100000000E-03 0.  1.
         11   -1    0    0    0    0 -0.00000000000E+00 -0.00000000000E+00 -0.45593999997E+02  0.45594000000E+02  0.51100000000E-03 0. -1.
    9900012    2    1    2    0    0 -0.72977516179E+01 -0.35173780976E+02  0.24355110066E+02  0.47787269209E+02  0.19999991633E+02 0.  0.
         12    1    1    2    0    0  0.72977516179E+01  0.35173780976E+02 -0.24355110066E+02  0.43400730791E+02  0.00000000000E+00 0. -1.
         11    1    3    3    0    0 -0.18964693975E+01  0.40373548128E+00  0.15038402363E+01  0.24537999576E+01  0.51100000000E-03 0. -1.
        -11    1    3    3    0    0 -0.59930012588E+01 -0.11918457736E+02  0.15716567078E+02  0.20614950397E+02  0.51100000000E-03 0.  1.
         12    1    3    3    0    0  0.59171903834E+00 -0.23659058721E+02  0.71347027510E+01  0.24718518854E+02  0.00000000000E+00 0. -1.
</event>
<event>
 7    1  0.2387817E-009  0.4778727E+02  0.7816164E-02  0.1312668E+00
        -11   -1    0    0    0    0  0.00000000000E+00  0.00000000000E+00  0.45593999997E+02  0.45594000000E+02  0.51100000000E-03 0.  1.
         11   -1    0    0    0    0 -0.00000000000E+00 -0.00000000000E+00 -0.45593999997E+02  0.45594000000E+02  0.51100000000E-03 0. -1.
    9900012    2    1    2    0    0  0.99365227254E+01  0.20978787684E+01  0.42195825956E+02  0.47787270659E+02  0.19999998242E+02 0.  0.
         12    1    1    2    0    0 -0.99365227254E+01 -0.20978787684E+01 -0.42195825956E+02  0.43400729341E+02  0.00000000000E+00 0. -1.
         11    1    3    3    0    0 -0.23742768640E+01  0.11097018399E+01  0.15141595142E+02  0.15366734608E+02  0.51100000000E-03 0. -1.
        -11    1    3    3    0    0  0.72923300524E+01  0.29300231583E+01  0.25695670620E+02  0.26870627126E+02  0.51100000000E-03 0.  1.
         12    1    3    3    0    0  0.50184695370E+01 -0.19418462298E+01  0.13585601951E+01  0.55499089252E+01  0.00000000000E+00 0. -1.
</event>
<event>
 7    1  0.2387817E-009  0.4778727E+02  0.7816164E-02  0.1312668E+00
        -11   -1    0    0    0    0  0.00000000000E+00  0.00000000000E+00  0.45593999997E+02  0.45594000000E+02  0.51100000000E-03 0.  1.
         11   -1    0    0    0    0 -0.00000000000E+00 -0.00000000000E+00 -0.45593999997E+02  0.45594000000E+02  0.51100000000E-03 0. -1.
    9900012    2    1    2    0    0 -0.69431437547E+01 -0.14858236081E+02  0.40182692463E+02  0.47787271916E+02  0.20000003973E+02 0.  0.
         12    1    1    2    0    0  0.69431437547E+01  0.14858236081E+02 -0.40182692463E+02  0.43400728084E+02  0.00000000000E+00 0. -1.
         11    1    3    3    0    0  0.30476654609E+01 -0.78413057321E+01  0.46212051744E+01  0.95984310109E+01  0.51100000000E-03 0. -1.
        -11    1    3    3    0    0 -0.13483501338E+01 -0.48136316265E+01  0.13104759998E+02  0.14025827333E+02  0.51100000000E-03 0.  1.
         12    1    3    3    0    0 -0.86424590818E+01 -0.22032987225E+01  0.22456727291E+02  0.24163013572E+02  0.00000000000E+00 0. -1.
</event>
<event>
 7    1  0.2387817E-009  0.4778727E+02  0.7816164E-02  0.1312668E+00
        -11   -1    0    0    0    0  0.00000000000E+00  0.00000000000E+00  0.45593999997E+02  0.45594000000E+02  0.51100000000E-03 0.  1.
         11   -1    0    0    0    0 -0.00000000000E+00 -0.00000000000E+00 -0.45593999997E+02  0.45594000000E+02  0.51100000000E-03 0. -1.
    9900012    2    1    2    0    0  0.39990781128E+02 -0.87680962276E+01  0.14404219655E+02  0.47787266936E+02  0.19999981266E+02 0.  0.
         12    1    1    2    0    0 -0.39990781128E+02  0.87680962276E+01 -0.14404219655E+02  0.43400733064E+02  0.00000000000E+00 0. -1.
         11    1    3    3    0    0  0.19806931746E+02  0.15696307792E+00  0.10581268645E+02  0.22456678940E+02  0.51100000000E-03 0. -1.
        -11    1    3    3    0    0  0.72198175229E+01 -0.41900609656E+01  0.73092680689E+01  0.11095394356E+02  0.51100000000E-03 0.  1.
         12    1    3    3    0    0  0.12964031859E+02 -0.47349983399E+01 -0.34863170594E+01  0.14235193639E+02  0.00000000000E+00 0. -1.
</event>
<event>
 7    1  0.2387817E-009  0.4778727E+02  0.7816164E-02  0.1312668E+00
        -11   -1    0    0    0    0  0.00000000000E+00  0.00000000000E+00  0.45593999997E+02  0.45594000000E+02  0.51100000000E-03 0.  1.
         11   -1    0    0    0    0 -0.00000000000E+00 -0.00000000000E+00 -0.45593999997E+02  0.45594000000E+02  0.51100000000E-03 0. -1.
    9900012    2    1    2    0    0 -0.15204033079E+02  0.38339476544E+02  0.13510924965E+02  0.47787272161E+02  0.20000005091E+02 0.  0.
         12    1    1    2    0    0  0.15204033079E+02 -0.38339476544E+02 -0.13510924965E+02  0.43400727839E+02  0.00000000000E+00 0. -1.
         11    1    3    3    0    0 -0.67440797484E+01  0.27154336256E+01  0.65786978282E+01  0.98048690356E+01  0.51100000000E-03 0. -1.
        -11    1    3    3    0    0 -0.52558215062E+01  0.91496788514E+01  0.57426628090E+00  0.10567405775E+02  0.51100000000E-03 0.  1.
        -12    1    3    3    0    0 -0.32041318249E+01  0.26474364067E+02  0.63579608563E+01  0.27414997351E+02  0.00000000000E+00 0.  1.
</event>
<event>
 7    1  0.2387817E-009  0.4778730E+02  0.7816164E-02  0.1312668E+00
        -11   -1    0    0    0    0  0.00000000000E+00  0.00000000000E+00  0.45593999997E+02  0.45594000000E+02  0.51100000000E-03 0.  1.
         11   -1    0    0    0    0 -0.00000000000E+00 -0.00000000000E+00 -0.45593999997E+02  0.45594000000E+02  0.51100000000E-03 0. -1.
    9900012    2    1    2    0    0  0.34377700161E+02  0.68350200602E+01  0.25594479615E+02  0.47787295463E+02  0.20000111334E+02 0.  0.
         12    1    1    2    0    0 -0.34377700161E+02 -0.68350200602E+01 -0.25594479615E+02  0.43400704537E+02  0.00000000000E+00 0. -1.
         11    1    3    3    0    0  0.70203578061E+01 -0.32930997859E+01  0.36470860768E+01  0.85691987396E+01  0.51100000000E-03 0. -1.
        -11    1    3    3    0    0 -0.39513085341E+00  0.36058072357E+01  0.77984365382E+00  0.37102736554E+01  0.51100000000E-03 0.  1.
        -12    1    3    3    0    0  0.27752473208E+02  0.65223126104E+01  0.21167549884E+02  0.35507823068E+02  0.00000000000E+00 0.  1.
</event>
<event>
 7    1  0.2387817E-009  0.4778727E+02  0.7816164E-02  0.1312668E+00
        -11   -1    0    0    0    0  0.00000000000E+00  0.00000000000E+00  0.45593999997E+02  0.45594000000E+02  0.51100000000E-03 0.  1.
         11   -1    0    0    0    0 -0.00000000000E+00 -0.00000000000E+00 -0.45593999997E+02  0.45594000000E+02  0.51100000000E-03 0. -1.
    9900012    2    1    2    0    0 -0.71690680845E-01 -0.31273320094E+01  0.43287852745E+02  0.47787267975E+02  0.19999986006E+02 0.  0.
         12    1    1    2    0    0  0.71690680845E-01  0.31273320094E+01 -0.43287852745E+02  0.43400732025E+02  0.00000000000E+00 0. -1.
         11    1    3    3    0    0 -0.59777264740E+01 -0.29788014967E+01  0.22046469011E+02  0.23035912577E+02  0.51100000000E-03 0. -1.
        -11    1    3    3    0    0 -0.67865883821E-01  0.34226298552E+01  0.15055400720E+02  0.15439692095E+02  0.51100000000E-03 0.  1.
        -12    1    3    3    0    0  0.59739016769E+01 -0.35711603678E+01  0.61859830142E+01  0.93116633031E+01  0.00000000000E+00 0.  1.
</event>
<event>
 7    1  0.2387817E-009  0.4778727E+02  0.7816164E-02  0.1312668E+00
        -11   -1    0    0    0    0  0.00000000000E+00  0.00000000000E+00  0.45593999997E+02  0.45594000000E+02  0.51100000000E-03 0. -1.
         11   -1    0    0    0    0 -0.00000000000E+00 -0.00000000000E+00 -0.45593999997E+02  0.45594000000E+02  0.51100000000E-03 0.  1.
    9900012    2    1    2    0    0 -0.89506238578E+01 -0.46071431525E+01 -0.42217103248E+02  0.47787271410E+02  0.20000001668E+02 0.  0.
         12    1    1    2    0    0  0.89506238578E+01  0.46071431525E+01  0.42217103248E+02  0.43400728590E+02  0.00000000000E+00 0. -1.
         11    1    3    3    0    0 -0.26072546662E+00  0.34000927504E+01 -0.33499627435E+01  0.47802572237E+01  0.51100000000E-03 0. -1.
        -11    1    3    3    0    0  0.29402583979E+01 -0.56134711186E+01 -0.16664778232E+02  0.17828937467E+02  0.51100000000E-03 0.  1.
        -12    1    3    3    0    0 -0.11630156789E+02 -0.23937647843E+01 -0.22202362273E+02  0.25178076719E+02  0.00000000000E+00 0.  1.
</event>
<event>
 7    1  0.2387817E-009  0.4778727E+02  0.7816164E-02  0.1312668E+00
        -11   -1    0    0    0    0  0.00000000000E+00  0.00000000000E+00  0.45593999997E+02  0.45594000000E+02  0.51100000000E-03 0.  1.
         11   -1    0    0    0    0 -0.00000000000E+00 -0.00000000000E+00 -0.45593999997E+02  0.45594000000E+02  0.51100000000E-03 0. -1.
    9900012    2    1    2    0    0  0.15761496088E+01 -0.25171973009E+02  0.35320115755E+02  0.47787273627E+02  0.20000011774E+02 0.  0.
         12    1    1    2    0    0 -0.15761496088E+01  0.25171973009E+02 -0.35320115755E+02  0.43400726373E+02  0.00000000000E+00 0. -1.
         11    1    3    3    0    0 -0.73740626205E+01 -0.78632770316E+01  0.88712635257E+01  0.13960918380E+02  0.51100000000E-03 0. -1.
        -11    1    3    3    0    0  0.30544725524E+01 -0.18358783784E+01  0.14637284286E+01  0.38526293836E+01  0.51100000000E-03 0.  1.
        -12    1    3    3    0    0  0.58957396770E+01 -0.15472817599E+02  0.24985123801E+02  0.29973725863E+02  0.00000000000E+00 0.  1.
</event>
<event>
 7    1  0.2387817E-009  0.4778727E+02  0.7816164E-02  0.1312668E+00
        -11   -1    0    0    0    0  0.00000000000E+00  0.00000000000E+00  0.45593999997E+02  0.45594000000E+02  0.51100000000E-03 0. -1.
         11   -1    0    0    0    0 -0.00000000000E+00 -0.00000000000E+00 -0.45593999997E+02  0.45594000000E+02  0.51100000000E-03 0.  1.
    9900012    2    1    2    0    0  0.32899090824E+02 -0.12592406808E+02 -0.25351612971E+02  0.47787272281E+02  0.20000005639E+02 0.  0.
         12    1    1    2    0    0 -0.32899090824E+02  0.12592406808E+02  0.25351612971E+02  0.43400727719E+02  0.00000000000E+00 0. -1.
         11    1    3    3    0    0  0.15622805713E+02 -0.71877285754E+01 -0.54320440572E+01  0.18034483727E+02  0.51100000000E-03 0. -1.
        -11    1    3    3    0    0  0.15723596134E+02 -0.72518924203E+01 -0.11003189883E+02  0.20515642981E+02  0.51100000000E-03 0.  1.
         12    1    3    3    0    0  0.15526889779E+01  0.18472141877E+01 -0.89163790311E+01  0.92371455734E+01  0.00000000000E+00 0. -1.
</event>
<event>
 7    1  0.2387817E-009  0.4778726E+02  0.7816164E-02  0.1312668E+00
        -11   -1    0    0    0    0  0.00000000000E+00  0.00000000000E+00  0.45593999997E+02  0.45594000000E+02  0.51100000000E-03 0.  1.
         11   -1    0    0    0    0 -0.00000000000E+00 -0.00000000000E+00 -0.45593999997E+02  0.45594000000E+02  0.51100000000E-03 0. -1.
    9900012    2    1    2    0    0 -0.19992210891E+01  0.10338548834E+02  0.42103936703E+02  0.47787263107E+02  0.19999963810E+02 0.  0.
         12    1    1    2    0    0  0.19992210891E+01 -0.10338548834E+02 -0.42103936703E+02  0.43400736893E+02  0.00000000000E+00 0. -1.
         11    1    3    3    0    0  0.22288826078E+01 -0.32713840934E+01  0.54329455334E+01  0.67221104570E+01  0.51100000000E-03 0. -1.
        -11    1    3    3    0    0  0.12241691630E+01 -0.17762618876E+01  0.44266109534E+01  0.49242848442E+01  0.51100000000E-03 0.  1.
         12    1    3    3    0    0 -0.54522728600E+01  0.15386194815E+02  0.32244380216E+02  0.36140867806E+02  0.00000000000E+00 0. -1.
</event>
<event>
 7    1  0.2387817E-009  0.4778727E+02  0.7816164E-02  0.1312668E+00
        -11   -1    0    0    0    0  0.00000000000E+00  0.00000000000E+00  0.45593999997E+02  0.45594000000E+02  0.51100000000E-03 0. -1.
         11   -1    0    0    0    0 -0.00000000000E+00 -0.00000000000E+00 -0.45593999997E+02  0.45594000000E+02  0.51100000000E-03 0.  1.
    9900012    2    1    2    0    0  0.41550266519E+02 -0.10733784981E+02  0.64795399800E+01  0.47787271594E+02  0.20000002505E+02 0.  0.
         12    1    1    2    0    0 -0.41550266519E+02  0.10733784981E+02 -0.64795399800E+01  0.43400728406E+02  0.00000000000E+00 0. -1.
         11    1    3    3    0    0  0.40465982292E-01  0.18780212392E+01 -0.38176488093E+00  0.19168583558E+01  0.51100000000E-03 0. -1.
        -11    1    3    3    0    0  0.18293024053E+02  0.42839953914E+00 -0.28355117120E+00  0.18300236520E+02  0.51100000000E-03 0.  1.
         12    1    3    3    0    0  0.23216776484E+02 -0.13040205759E+02  0.71448560321E+01  0.27570176718E+02  0.00000000000E+00 0. -1.
</event>
<event>
 7    1  0.2387817E-009  0.4778730E+02  0.7816164E-02  0.1312668E+00
        -11   -1    0    0    0    0  0.00000000000E+00  0.00000000000E+00  0.45593999997E+02  0.45594000000E+02  0.51100000000E-03 0.  1.
         11   -1    0    0    0    0 -0.00000000000E+00 -0.00000000000E+00 -0.45593999997E+02  0.45594000000E+02  0.51100000000E-03 0. -1.
    9900012    2    1    2    0    0  0.14106325978E+02 -0.20451887025E+02  0.35585853646E+02  0.47787296144E+02  0.20000114440E+02 0.  0.
         12    1    1    2    0    0 -0.14106325978E+02  0.20451887025E+02 -0.35585853646E+02  0.43400703856E+02  0.00000000000E+00 0. -1.
         11    1    3    3    0    0  0.42091181851E+01  0.31399090380E+00  0.76559828143E+01  0.87423875056E+01  0.51100000000E-03 0.  1.
        -11    1    3    3    0    0  0.30189179833E+01 -0.44458651003E+01 -0.65969548375E+00  0.54143125761E+01  0.51100000000E-03 0. -1.
         12    1    3    3    0    0  0.68782898096E+01 -0.16320012828E+02  0.28589566315E+02  0.33630596062E+02  0.00000000000E+00 0. -1.
</event>
<event>
 7    1  0.2387817E-009  0.4778727E+02  0.7816164E-02  0.1312668E+00
        -11   -1    0    0    0    0  0.00000000000E+00  0.00000000000E+00  0.45593999997E+02  0.45594000000E+02  0.51100000000E-03 0.  1.
         11   -1    0    0    0    0 -0.00000000000E+00 -0.00000000000E+00 -0.45593999997E+02  0.45594000000E+02  0.51100000000E-03 0. -1.
    9900012    2    1    2    0    0 -0.19275512307E+01  0.38610851381E+02 -0.19725872089E+02  0.47787270424E+02  0.19999997170E+02 0.  0.
         12    1    1    2    0    0  0.19275512307E+01 -0.38610851381E+02  0.19725872089E+02  0.43400729576E+02  0.00000000000E+00 0. -1.
         11    1    3    3    0    0 -0.39214570679E+01  0.17013043402E+01 -0.22031504960E+01  0.48089639593E+01  0.51100000000E-03 0. -1.
        -11    1    3    3    0    0 -0.25915879451E+01  0.11368789481E+02  0.11581219492E-01  0.11660438959E+02  0.51100000000E-03 0.  1.
        -12    1    3    3    0    0  0.45854937823E+01  0.25540757560E+02 -0.17534302813E+02  0.31317867505E+02  0.00000000000E+00 0.  1.
</event>
<event>
 7    1  0.2387817E-009  0.4778727E+02  0.7816164E-02  0.1312668E+00
        -11   -1    0    0    0    0  0.00000000000E+00  0.00000000000E+00  0.45593999997E+02  0.45594000000E+02  0.51100000000E-03 0. -1.
         11   -1    0    0    0    0 -0.00000000000E+00 -0.00000000000E+00 -0.45593999997E+02  0.45594000000E+02  0.51100000000E-03 0.  1.
    9900012    2    1    2    0    0 -0.30187179851E+02  0.19651229009E+02  0.24211296826E+02  0.47787268176E+02  0.19999986920E+02 0.  0.
         12    1    1    2    0    0  0.30187179851E+02 -0.19651229009E+02 -0.24211296826E+02  0.43400731824E+02  0.00000000000E+00 0. -1.
         11    1    3    3    0    0 -0.19173281152E+02  0.39368674432E+01  0.15954623225E+02  0.25252002651E+02  0.51100000000E-03 0. -1.
        -11    1    3    3    0    0 -0.45477111902E+01  0.50349693829E+01  0.73728999394E+01  0.10019593182E+02  0.51100000000E-03 0.  1.
        -12    1    3    3    0    0 -0.64661875090E+01  0.10679392183E+02  0.88377366143E+00  0.12515672342E+02  0.00000000000E+00 0.  1.
</event>
<event>
 7    1  0.2898772E-009  0.4778727E+02  0.7816164E-02  0.1312668E+00
        -11   -1    0    0    0    0  0.00000000000E+00  0.00000000000E+00  0.45593999997E+02  0.45594000000E+02  0.51100000000E-03 0.  1.
         11   -1    0    0    0    0 -0.00000000000E+00 -0.00000000000E+00 -0.45593999997E+02  0.45594000000E+02  0.51100000000E-03 0. -1.
    9900012    2    1    2    0    0  0.24130472144E+02 -0.33834034077E+02  0.12514064113E+02  0.47787270186E+02  0.19999996084E+02 0.  0.
         12    1    1    2    0    0 -0.24130472144E+02  0.33834034077E+02 -0.12514064113E+02  0.43400729814E+02  0.00000000000E+00 0. -1.
         11    1    3    3    0    0  0.12145539245E+02 -0.17028859650E+02  0.93244891966E+01  0.22900704871E+02  0.51100000000E-03 0.  1.
        -11    1    3    3    0    0  0.62190372698E+01 -0.17272875091E+02  0.46132989179E+01  0.18929108950E+02  0.51100000000E-03 0. -1.
         12    1    3    3    0    0  0.57658956284E+01  0.46770066398E+00 -0.14237240012E+01  0.59574563650E+01  0.00000000000E+00 0. -1.
</event>
<event>
 7    1  0.2387817E-009  0.4778727E+02  0.7816164E-02  0.1312668E+00
        -11   -1    0    0    0    0  0.00000000000E+00  0.00000000000E+00  0.45593999997E+02  0.45594000000E+02  0.51100000000E-03 0.  1.
         11   -1    0    0    0    0 -0.00000000000E+00 -0.00000000000E+00 -0.45593999997E+02  0.45594000000E+02  0.51100000000E-03 0. -1.
    9900012    2    1    2    0    0  0.13691519443E+02  0.39450783544E+02  0.11823756198E+02  0.47787271463E+02  0.20000001908E+02 0.  0.
         12    1    1    2    0    0 -0.13691519443E+02 -0.39450783544E+02 -0.11823756198E+02  0.43400728537E+02  0.00000000000E+00 0. -1.
         11    1    3    3    0    0  0.10326839892E+02  0.14232690783E+02  0.87431591824E+01  0.19638124702E+02  0.51100000000E-03 0. -1.
        -11    1    3    3    0    0  0.11781915662E+01  0.17171027587E+02  0.74271193179E+01  0.18745517474E+02  0.51100000000E-03 0.  1.
        -12    1    3    3    0    0  0.21864879851E+01  0.80470651750E+01 -0.43465223023E+01  0.94036292868E+01  0.00000000000E+00 0.  1.
</event>
<event>
 7    1  0.2387817E-009  0.4778727E+02  0.7816164E-02  0.1312668E+00
        -11   -1    0    0    0    0  0.00000000000E+00  0.00000000000E+00  0.45593999997E+02  0.45594000000E+02  0.51100000000E-03 0.  1.
         11   -1    0    0    0    0 -0.00000000000E+00 -0.00000000000E+00 -0.45593999997E+02  0.45594000000E+02  0.51100000000E-03 0. -1.
    9900012    2    1    2    0    0 -0.23078707812E+02  0.36541644679E+02  0.39629138626E+01  0.47787271476E+02  0.20000001968E+02 0.  0.
         12    1    1    2    0    0  0.23078707812E+02 -0.36541644679E+02 -0.39629138626E+01  0.43400728524E+02  0.00000000000E+00 0. -1.
         11    1    3    3    0    0 -0.79449131917E+01  0.60369743899E+01 -0.19857226769E+01  0.10173976618E+02  0.51100000000E-03 0. -1.
        -11    1    3    3    0    0 -0.16801668449E+02  0.28700499327E+02  0.24618542753E+01  0.33347795295E+02  0.51100000000E-03 0.  1.
         12    1    3    3    0    0  0.16678738287E+01  0.18041709621E+01  0.34867822642E+01  0.42654995636E+01  0.00000000000E+00 0. -1.
</event>
<event>
 7    1  0.2387817E-009  0.4778728E+02  0.7816164E-02  0.1312668E+00
        -11   -1    0    0    0    0  0.00000000000E+00  0.00000000000E+00  0.45593999997E+02  0.45594000000E+02  0.51100000000E-03 0.  1.
         11   -1    0    0    0    0 -0.00000000000E+00 -0.00000000000E+00 -0.45593999997E+02  0.45594000000E+02  0.51100000000E-03 0. -1.
    9900012    2    1    2    0    0  0.32273964604E+02 -0.19583115707E+02 -0.21412973257E+02  0.47787278396E+02  0.20000033517E+02 0.  0.
         12    1    1    2    0    0 -0.32273964604E+02  0.19583115707E+02  0.21412973257E+02  0.43400721604E+02  0.00000000000E+00 0. -1.
         11    1    3    3    0    0  0.23300501534E+02 -0.37222376316E+01 -0.15378385784E+02  0.28164928090E+02  0.51100000000E-03 0. -1.
        -11    1    3    3    0    0  0.23098882244E+01 -0.35631196475E+01  0.32217527579E+00  0.42585446342E+01  0.51100000000E-03 0.  1.
         12    1    3    3    0    0  0.66635748461E+01 -0.12297758427E+02 -0.63567627491E+01  0.15363805672E+02  0.00000000000E+00 0. -1.
</event>
<event>
 7    1  0.2387817E-009  0.4778727E+02  0.7816164E-02  0.1312668E+00
        -11   -1    0    0    0    0  0.00000000000E+00  0.00000000000E+00  0.45593999997E+02  0.45594000000E+02  0.51100000000E-03 0.  1.
         11   -1    0    0    0    0 -0.00000000000E+00 -0.00000000000E+00 -0.45593999997E+02  0.45594000000E+02  0.51100000000E-03 0. -1.
    9900012    2    1    2    0    0  0.19144558279E+02 -0.31155114474E+02  0.23376661039E+02  0.47787267853E+02  0.19999985449E+02 0.  0.
         12    1    1    2    0    0 -0.19144558279E+02  0.31155114474E+02 -0.23376661039E+02  0.43400732147E+02  0.00000000000E+00 0. -1.
         11    1    3    3    0    0  0.94931777108E+01 -0.15862640278E+02  0.17063790937E+02  0.25157836573E+02  0.51100000000E-03 0. -1.
        -11    1    3    3    0    0  0.53433380112E+00 -0.10705411692E+02  0.62809207153E+01  0.12423418105E+02  0.51100000000E-03 0.  1.
         12    1    3    3    0    0  0.91170467674E+01 -0.45870625031E+01  0.31949386472E-01  0.10206013175E+02  0.00000000000E+00 0. -1.
</event>
<event>
 7    1  0.2387817E-009  0.4778727E+02  0.7816164E-02  0.1312668E+00
        -11   -1    0    0    0    0  0.00000000000E+00  0.00000000000E+00  0.45593999997E+02  0.45594000000E+02  0.51100000000E-03 0.  1.
         11   -1    0    0    0    0 -0.00000000000E+00 -0.00000000000E+00 -0.45593999997E+02  0.45594000000E+02  0.51100000000E-03 0. -1.
    9900012    2    1    2    0    0 -0.22792125049E+02 -0.24171408598E+02  0.27926421769E+02  0.47787274307E+02  0.20000014874E+02 0.  0.
         12    1    1    2    0    0  0.22792125049E+02  0.24171408598E+02 -0.27926421769E+02  0.43400725693E+02  0.00000000000E+00 0. -1.
         11    1    3    3    0    0 -0.63234156968E+01 -0.14799818859E+01  0.10791276422E+02  0.12594744123E+02  0.51100000000E-03 0. -1.
        -11    1    3    3    0    0 -0.45500029298E-01 -0.86600683492E+01  0.78209734117E+01  0.11669039353E+02  0.51100000000E-03 0.  1.
         12    1    3    3    0    0 -0.16423209323E+02 -0.14031358363E+02  0.93141719357E+01  0.23523490830E+02  0.00000000000E+00 0. -1.
</event>
<event>
 7    1  0.2387817E-009  0.4778726E+02  0.7816164E-02  0.1312668E+00
        -11   -1    0    0    0    0  0.00000000000E+00  0.00000000000E+00  0.45593999997E+02  0.45594000000E+02  0.51100000000E-03 0. -1.
         11   -1    0    0    0    0 -0.00000000000E+00 -0.00000000000E+00 -0.45593999997E+02  0.45594000000E+02  0.51100000000E-03 0.  1.
    9900012    2    1    2    0    0 -0.33280005689E+02 -0.26810030814E+02  0.75688625000E+01  0.47787260254E+02  0.19999950804E+02 0.  0.
         12    1    1    2    0    0  0.33280005689E+02  0.26810030814E+02 -0.75688625000E+01  0.43400739746E+02  0.00000000000E+00 0. -1.
         11    1    3    3    0    0 -0.25690812536E+01  0.64780571847E+00  0.34418704980E+01  0.43435358319E+01  0.51100000000E-03 0. -1.
        -11    1    3    3    0    0 -0.19402451308E+02 -0.11105337638E+02  0.68373301091E+01  0.23378039355E+02  0.51100000000E-03 0.  1.
        -12    1    3    3    0    0 -0.11308473128E+02 -0.16352498894E+02 -0.27103381071E+01  0.20065685068E+02  0.00000000000E+00 0.  1.
</event>
<event>
 7    1  0.4002435E-009  0.4778727E+02  0.7816164E-02  0.1312668E+00
        -11   -1    0    0    0    0  0.00000000000E+00  0.00000000000E+00  0.45593999997E+02  0.45594000000E+02  0.51100000000E-03 0. -1.
         11   -1    0    0    0    0 -0.00000000000E+00 -0.00000000000E+00 -0.45593999997E+02  0.45594000000E+02  0.51100000000E-03 0.  1.
    9900012    2    1    2    0    0  0.17372903234E+02 -0.14663567831E+02 -0.36970058237E+02  0.47787271960E+02  0.20000004176E+02 0.  0.
         12    1    1    2    0    0 -0.17372903234E+02  0.14663567831E+02  0.36970058237E+02  0.43400728040E+02  0.00000000000E+00 0. -1.
         11    1    3    3    0    0  0.54137032268E+01  0.51502126023E+00 -0.71699459387E+01  0.89989751945E+01  0.51100000000E-03 0. -1.
        -11    1    3    3    0    0  0.10694613640E+02 -0.14243224912E+02 -0.31675991563E+02  0.36340234707E+02  0.51100000000E-03 0.  1.
         12    1    3    3    0    0  0.12645863671E+01 -0.93536417954E+00  0.18758792646E+01  0.24480620588E+01  0.00000000000E+00 0. -1.
</event>
<event>
 7    1  0.2387817E-009  0.4778727E+02  0.7816164E-02  0.1312668E+00
        -11   -1    0    0    0    0  0.00000000000E+00  0.00000000000E+00  0.45593999997E+02  0.45594000000E+02  0.51100000000E-03 0.  1.
         11   -1    0    0    0    0 -0.00000000000E+00 -0.00000000000E+00 -0.45593999997E+02  0.45594000000E+02  0.51100000000E-03 0. -1.
    9900012    2    1    2    0    0 -0.34727804318E+02 -0.85969067330E+01  0.24570227396E+02  0.47787271061E+02  0.20000000076E+02 0.  0.
         12    1    1    2    0    0  0.34727804318E+02  0.85969067330E+01 -0.24570227396E+02  0.43400728939E+02  0.00000000000E+00 0. -1.
         11    1    3    3    0    0 -0.22044322618E+01 -0.73880156254E+01  0.66663913906E+01  0.10192304495E+02  0.51100000000E-03 0.  1.
        -11    1    3    3    0    0 -0.16592628978E+02 -0.24303725416E+01  0.65933534735E+01  0.18019277383E+02  0.51100000000E-03 0. -1.
        -12    1    3    3    0    0 -0.15930743078E+02  0.12214814340E+01  0.11310482532E+02  0.19575689184E+02  0.00000000000E+00 0.  1.
</event>
<event>
 7    1  0.2387817E-009  0.4778727E+02  0.7816164E-02  0.1312668E+00
        -11   -1    0    0    0    0  0.00000000000E+00  0.00000000000E+00  0.45593999997E+02  0.45594000000E+02  0.51100000000E-03 0. -1.
         11   -1    0    0    0    0 -0.00000000000E+00 -0.00000000000E+00 -0.45593999997E+02  0.45594000000E+02  0.51100000000E-03 0.  1.
    9900012    2    1    2    0    0  0.42974501836E+02  0.47969027944E+01  0.37155493780E+01  0.47787269687E+02  0.19999993813E+02 0.  0.
         12    1    1    2    0    0 -0.42974501836E+02 -0.47969027944E+01 -0.37155493780E+01  0.43400730313E+02  0.00000000000E+00 0. -1.
         11    1    3    3    0    0 -0.67210835917E+00  0.13859521163E+01 -0.27676309116E+01  0.31673923090E+01  0.51100000000E-03 0. -1.
        -11    1    3    3    0    0  0.14314762926E+02  0.28743789171E+01  0.12013101384E+00  0.14600990498E+02  0.51100000000E-03 0.  1.
         12    1    3    3    0    0  0.29331847269E+02  0.53657176103E+00  0.63630492757E+01  0.30018886881E+02  0.00000000000E+00 0. -1.
</event>
<event>
 7    1  0.2387817E-009  0.4778727E+02  0.7816164E-02  0.1312668E+00
        -11   -1    0    0    0    0  0.00000000000E+00  0.00000000000E+00  0.45593999997E+02  0.45594000000E+02  0.51100000000E-03 0.  1.
         11   -1    0    0    0    0 -0.00000000000E+00 -0.00000000000E+00 -0.45593999997E+02  0.45594000000E+02  0.51100000000E-03 0. -1.
    9900012    2    1    2    0    0  0.11531759648E+02  0.38967083225E+02  0.15238390382E+02  0.47787267321E+02  0.19999983025E+02 0.  0.
         12    1    1    2    0    0 -0.11531759648E+02 -0.38967083225E+02 -0.15238390382E+02  0.43400732679E+02  0.00000000000E+00 0. -1.
         11    1    3    3    0    0  0.57854635119E+01  0.36879964077E+01  0.32086806906E+01  0.75742021089E+01  0.51100000000E-03 0. -1.
        -11    1    3    3    0    0  0.65081163358E+01  0.57432347075E+01  0.12859165083E+01  0.87746170670E+01  0.51100000000E-03 0.  1.
         12    1    3    3    0    0 -0.76182019962E+00  0.29535852109E+02  0.10743793183E+02  0.31438448146E+02  0.00000000000E+00 0. -1.
</event>
<event>
 7    1  0.2387817E-009  0.4778727E+02  0.7816164E-02  0.1312668E+00
        -11   -1    0    0    0    0  0.00000000000E+00  0.00000000000E+00  0.45593999997E+02  0.45594000000E+02  0.51100000000E-03 0.  1.
         11   -1    0    0    0    0 -0.00000000000E+00 -0.00000000000E+00 -0.45593999997E+02  0.45594000000E+02  0.51100000000E-03 0. -1.
    9900012    2    1    2    0    0 -0.78770793168E+01  0.35542486121E+02  0.23628513103E+02  0.47787270402E+02  0.19999997070E+02 0.  0.
         12    1    1    2    0    0  0.78770793168E+01 -0.35542486121E+02 -0.23628513103E+02  0.43400729598E+02  0.00000000000E+00 0. -1.
         11    1    3    3    0    0 -0.29154092910E+01  0.40360519732E+00  0.22333750126E+00  0.29516755225E+01  0.51100000000E-03 0. -1.
        -11    1    3    3    0    0  0.22532745219E+01  0.42400022536E+01  0.85372810126E+01  0.97948982910E+01  0.51100000000E-03 0.  1.
        -12    1    3    3    0    0 -0.72149445477E+01  0.30898878670E+02  0.14867894589E+02  0.35040696588E+02  0.00000000000E+00 0.  1.
</event>
<event>
 7    1  0.2387817E-009  0.4778727E+02  0.7816164E-02  0.1312668E+00
        -11   -1    0    0    0    0  0.00000000000E+00  0.00000000000E+00  0.45593999997E+02  0.45594000000E+02  0.51100000000E-03 0.  1.
         11   -1    0    0    0    0 -0.00000000000E+00 -0.00000000000E+00 -0.45593999997E+02  0.45594000000E+02  0.51100000000E-03 0. -1.
    9900012    2    1    2    0    0 -0.12472416351E+01  0.43687325877E+00  0.43380602517E+02  0.47787272533E+02  0.20000006785E+02 0.  0.
         12    1    1    2    0    0  0.12472416351E+01 -0.43687325877E+00 -0.43380602517E+02  0.43400727467E+02  0.00000000000E+00 0. -1.
         11    1    3    3    0    0 -0.32193522323E+01 -0.35525970852E+01  0.24859849695E+01  0.54004903829E+01  0.51100000000E-03 0. -1.
        -11    1    3    3    0    0 -0.37699576405E+01  0.25347201033E+00  0.89326828560E+01  0.96989510741E+01  0.51100000000E-03 0.  1.
        -12    1    3    3    0    0  0.57420682377E+01  0.37359983337E+01  0.31961934692E+02  0.32687831076E+02  0.00000000000E+00 0.  1.
</event>
<event>
 7    1  0.2387817E-009  0.4778727E+02  0.7816164E-02  0.1312668E+00
        -11   -1    0    0    0    0  0.00000000000E+00  0.00000000000E+00  0.45593999997E+02  0.45594000000E+02  0.51100000000E-03 0.  1.
         11   -1    0    0    0    0 -0.00000000000E+00 -0.00000000000E+00 -0.45593999997E+02  0.45594000000E+02  0.51100000000E-03 0. -1.
    9900012    2    1    2    0    0 -0.23068052780E+02  0.33361233844E+02  0.15443968958E+02  0.47787272358E+02  0.20000005989E+02 0.  0.
         12    1    1    2    0    0  0.23068052780E+02 -0.33361233844E+02 -0.15443968958E+02  0.43400727642E+02  0.00000000000E+00 0. -1.
         11    1    3    3    0    0  0.35336770968E+01  0.30411240516E+01  0.29262247774E+01  0.55043710840E+01  0.51100000000E-03 0. -1.
        -11    1    3    3    0    0 -0.64287060148E+01  0.70405743702E+01  0.20777552220E+01  0.97578181736E+01  0.51100000000E-03 0.  1.
         12    1    3    3    0    0 -0.20173023862E+02  0.23279535422E+02  0.10439988959E+02  0.32525083100E+02  0.00000000000E+00 0. -1.
</event>
<event>
 7    1  0.2387817E-009  0.4778727E+02  0.7816164E-02  0.1312668E+00
        -11   -1    0    0    0    0  0.00000000000E+00  0.00000000000E+00  0.45593999997E+02  0.45594000000E+02  0.51100000000E-03 0.  1.
         11   -1    0    0    0    0 -0.00000000000E+00 -0.00000000000E+00 -0.45593999997E+02  0.45594000000E+02  0.51100000000E-03 0. -1.
    9900012    2    1    2    0    0 -0.33001384658E+02  0.87185039727E+00  0.28173954330E+02  0.47787271722E+02  0.20000003090E+02 0.  0.
         12    1    1    2    0    0  0.33001384658E+02 -0.87185039727E+00 -0.28173954330E+02  0.43400728278E+02  0.00000000000E+00 0. -1.
         11    1    3    3    0    0 -0.91991770510E+01 -0.41587492912E+01  0.16860065024E+01  0.10235363807E+02  0.51100000000E-03 0. -1.
        -11    1    3    3    0    0 -0.10294099888E+02 -0.25027262297E+01  0.71119155463E+01  0.12759759954E+02  0.51100000000E-03 0.  1.
         12    1    3    3    0    0 -0.13508107718E+02  0.75333259181E+01  0.19376032282E+02  0.24792147961E+02  0.00000000000E+00 0. -1.
</event>
<event>
 7    1  0.2387817E-009  0.4778727E+02  0.7816164E-02  0.1312668E+00
        -11   -1    0    0    0    0  0.00000000000E+00  0.00000000000E+00  0.45593999997E+02  0.45594000000E+02  0.51100000000E-03 0.  1.
         11   -1    0    0    0    0 -0.00000000000E+00 -0.00000000000E+00 -0.45593999997E+02  0.45594000000E+02  0.51100000000E-03 0. -1.
    9900012    2    1    2    0    0  0.32546404589E+02  0.15959370082E+02  0.23867411164E+02  0.47787271196E+02  0.20000000691E+02 0.  0.
         12    1    1    2    0    0 -0.32546404589E+02 -0.15959370082E+02 -0.23867411164E+02  0.43400728804E+02  0.00000000000E+00 0. -1.
         11    1    3    3    0    0  0.12515617599E+02  0.31176707340E+00  0.14762600682E+02  0.19356452716E+02  0.51100000000E-03 0. -1.
        -11    1    3    3    0    0 -0.61424094529E+00 -0.43878154991E+00  0.15517154310E+00  0.77064885409E+00  0.51100000000E-03 0.  1.
        -12    1    3    3    0    0  0.20645027936E+02  0.16086384558E+02  0.89496389380E+01  0.27660169626E+02  0.00000000000E+00 0.  1.
</event>
<event>
 7    1  0.2387817E-009  0.4778728E+02  0.7816164E-02  0.1312668E+00
        -11   -1    0    0    0    0  0.00000000000E+00  0.00000000000E+00  0.45593999997E+02  0.45594000000E+02  0.51100000000E-03 0. -1.
         11   -1    0    0    0    0 -0.00000000000E+00 -0.00000000000E+00 -0.45593999997E+02  0.45594000000E+02  0.51100000000E-03 0.  1.
    9900012    2    1    2    0    0  0.37143702414E+02  0.19455490732E+02 -0.11200521389E+02  0.47787280789E+02  0.20000044429E+02 0.  0.
         12    1    1    2    0    0 -0.37143702414E+02 -0.19455490732E+02  0.11200521389E+02  0.43400719211E+02  0.00000000000E+00 0. -1.
         11    1    3    3    0    0  0.69262422233E+00  0.11576800650E+01 -0.37265975161E+01  0.39632664248E+01  0.51100000000E-03 0. -1.
        -11    1    3    3    0    0  0.75333717762E+01  0.10794367382E+02 -0.39410436962E+01  0.13740519756E+02  0.51100000000E-03 0.  1.
         12    1    3    3    0    0  0.28917706416E+02  0.75034432851E+01 -0.35328801769E+01  0.30083494608E+02  0.00000000000E+00 0. -1.
</event>
<event>
 7    1  0.2387817E-009  0.4778727E+02  0.7816164E-02  0.1312668E+00
        -11   -1    0    0    0    0  0.00000000000E+00  0.00000000000E+00  0.45593999997E+02  0.45594000000E+02  0.51100000000E-03 0.  1.
         11   -1    0    0    0    0 -0.00000000000E+00 -0.00000000000E+00 -0.45593999997E+02  0.45594000000E+02  0.51100000000E-03 0. -1.
    9900012    2    1    2    0    0 -0.12066701372E+02 -0.30717485165E+02 -0.28186063157E+02  0.47787270362E+02  0.19999996887E+02 0.  0.
         12    1    1    2    0    0  0.12066701372E+02  0.30717485165E+02  0.28186063157E+02  0.43400729638E+02  0.00000000000E+00 0. -1.
         11    1    3    3    0    0 -0.53928172362E+01 -0.16623673523E+02 -0.18286023062E+02  0.25294419124E+02  0.51100000000E-03 0. -1.
        -11    1    3    3    0    0 -0.13616887996E+01 -0.47040746374E+01 -0.10605475553E+02  0.11681550691E+02  0.51100000000E-03 0.  1.
        -12    1    3    3    0    0 -0.53121953360E+01 -0.93897370052E+01  0.70543545891E+00  0.10811300546E+02  0.00000000000E+00 0.  1.
</event>
<event>
 7    1  0.2387817E-009  0.4778727E+02  0.7816164E-02  0.1312668E+00
        -11   -1    0    0    0    0  0.00000000000E+00  0.00000000000E+00  0.45593999997E+02  0.45594000000E+02  0.51100000000E-03 0. -1.
         11   -1    0    0    0    0 -0.00000000000E+00 -0.00000000000E+00 -0.45593999997E+02  0.45594000000E+02  0.51100000000E-03 0.  1.
    9900012    2    1    2    0    0 -0.23180683884E+02  0.36681593845E+02  0.86018906524E+00  0.47787270081E+02  0.19999995605E+02 0.  0.
         12    1    1    2    0    0  0.23180683884E+02 -0.36681593845E+02 -0.86018906524E+00  0.43400729919E+02  0.00000000000E+00 0. -1.
         11    1    3    3    0    0 -0.47891449357E+01  0.25206542438E+02  0.26919871162E+01  0.25798303933E+02  0.51100000000E-03 0. -1.
        -11    1    3    3    0    0 -0.39094341689E+01  0.37427341948E+01 -0.12857886967E+01  0.55628219105E+01  0.51100000000E-03 0.  1.
         12    1    3    3    0    0 -0.14482104779E+02  0.77323172120E+01 -0.54600935429E+00  0.16426144238E+02  0.00000000000E+00 0. -1.
</event>
<event>
 7    1  0.2387817E-009  0.4778727E+02  0.7816164E-02  0.1312668E+00
        -11   -1    0    0    0    0  0.00000000000E+00  0.00000000000E+00  0.45593999997E+02  0.45594000000E+02  0.51100000000E-03 0. -1.
         11   -1    0    0    0    0 -0.00000000000E+00 -0.00000000000E+00 -0.45593999997E+02  0.45594000000E+02  0.51100000000E-03 0.  1.
    9900012    2    1    2    0    0 -0.11144621637E+02  0.40071109214E+02  0.12398667445E+02  0.47787270289E+02  0.19999996555E+02 0.  0.
         12    1    1    2    0    0  0.11144621637E+02 -0.40071109214E+02 -0.12398667445E+02  0.43400729711E+02  0.00000000000E+00 0. -1.
         11    1    3    3    0    0 -0.11047391592E+01  0.48975493507E+01 -0.31858147863E+01  0.59460789068E+01  0.51100000000E-03 0. -1.
        -11    1    3    3    0    0  0.23336856069E+01  0.14798767278E+02  0.55275348618E+01  0.15968820976E+02  0.51100000000E-03 0.  1.
         12    1    3    3    0    0 -0.12373568085E+02  0.20374792585E+02  0.10056947369E+02  0.25872370406E+02  0.00000000000E+00 0. -1.
</event>
<event>
 7    1  0.2387817E-009  0.4778722E+02  0.7816164E-02  0.1312668E+00
        -11   -1    0    0    0    0  0.00000000000E+00  0.00000000000E+00  0.45593999997E+02  0.45594000000E+02  0.51100000000E-03 0.  1.
         11   -1    0    0    0    0 -0.00000000000E+00 -0.00000000000E+00 -0.45593999997E+02  0.45594000000E+02  0.51100000000E-03 0. -1.
    9900012    2    1    2    0    0 -0.21610134700E+02 -0.24774081417E+02  0.28335045551E+02  0.47787218461E+02  0.19999760251E+02 0.  0.
         12    1    1    2    0    0  0.21610134700E+02  0.24774081417E+02 -0.28335045551E+02  0.43400781539E+02  0.00000000000E+00 0. -1.
         11    1    3    3    0    0 -0.22071895361E+01 -0.51125470723E+00 -0.26329808725E+00  0.22808755266E+01  0.51100000000E-03 0. -1.
        -11    1    3    3    0    0  0.64970705181E+00 -0.11352727553E+02  0.71582888042E+01  0.13436801741E+02  0.51100000000E-03 0.  1.
        -12    1    3    3    0    0 -0.20052652216E+02 -0.12910099156E+02  0.21440054834E+02  0.32069541194E+02  0.00000000000E+00 0.  1.
</event>
<event>
 7    1  0.2387817E-009  0.4778729E+02  0.7816164E-02  0.1312668E+00
        -11   -1    0    0    0    0  0.00000000000E+00  0.00000000000E+00  0.45593999997E+02  0.45594000000E+02  0.51100000000E-03 0.  1.
         11   -1    0    0    0    0 -0.00000000000E+00 -0.00000000000E+00 -0.45593999997E+02  0.45594000000E+02  0.51100000000E-03 0. -1.
    9900012    2    1    2    0    0  0.18521980790E+01 -0.36827718308E+02  0.22889075067E+02  0.47787294581E+02  0.20000107311E+02 0.  0.
         12    1    1    2    0    0 -0.18521980790E+01  0.36827718308E+02 -0.22889075067E+02  0.43400705419E+02  0.00000000000E+00 0. -1.
         11    1    3    3    0    0 -0.62368494907E+00  0.12062348329E+01  0.61842933247E+00  0.14921261636E+01  0.51100000000E-03 0. -1.
        -11    1    3    3    0    0  0.61392562120E+01 -0.16882059402E+02  0.47368810803E+01  0.18577740421E+02  0.51100000000E-03 0.  1.
        -12    1    3    3    0    0 -0.36633731839E+01 -0.21151893738E+02  0.17533764654E+02  0.27717427997E+02  0.00000000000E+00 0.  1.
</event>
<event>
 7    1  0.2387817E-009  0.4778727E+02  0.7816164E-02  0.1312668E+00
        -11   -1    0    0    0    0  0.00000000000E+00  0.00000000000E+00  0.45593999997E+02  0.45594000000E+02  0.51100000000E-03 0. -1.
         11   -1    0    0    0    0 -0.00000000000E+00 -0.00000000000E+00 -0.45593999997E+02  0.45594000000E+02  0.51100000000E-03 0.  1.
    9900012    2    1    2    0    0 -0.96811971642E+01 -0.39763684913E+02  0.14448078199E+02  0.47787272125E+02  0.20000004929E+02 0.  0.
         12    1    1    2    0    0  0.96811971642E+01  0.39763684913E+02 -0.14448078199E+02  0.43400727875E+02  0.00000000000E+00 0. -1.
         11    1    3    3    0    0  0.22179134531E+01 -0.11599663306E+02  0.16148294821E+01  0.11919689736E+02  0.51100000000E-03 0. -1.
        -11    1    3    3    0    0  0.16430689956E+01 -0.71522975517E+01  0.71208492420E+01  0.10225533247E+02  0.51100000000E-03 0.  1.
        -12    1    3    3    0    0 -0.13542179613E+02 -0.21011724056E+02  0.57123994746E+01  0.25642049142E+02  0.00000000000E+00 0.  1.
</event>
<event>
 7    1  0.2387817E-009  0.4778727E+02  0.7816164E-02  0.1312668E+00
        -11   -1    0    0    0    0  0.00000000000E+00  0.00000000000E+00  0.45593999997E+02  0.45594000000E+02  0.51100000000E-03 0. -1.
         11   -1    0    0    0    0 -0.00000000000E+00 -0.00000000000E+00 -0.45593999997E+02  0.45594000000E+02  0.51100000000E-03 0.  1.
    9900012    2    1    2    0    0  0.23653253891E+02  0.16272871201E+02 -0.32547513042E+02  0.47787270030E+02  0.19999995373E+02 0.  0.
         12    1    1    2    0    0 -0.23653253891E+02 -0.16272871201E+02  0.32547513042E+02  0.43400729970E+02  0.00000000000E+00 0. -1.
         11    1    3    3    0    0 -0.11363660893E+01  0.15720516841E+00 -0.35660133811E+00  0.12013351445E+01  0.51100000000E-03 0. -1.
        -11    1    3    3    0    0  0.18558667685E+01  0.13505953821E+01 -0.13083766582E+02  0.13283572471E+02  0.51100000000E-03 0.  1.
         12    1    3    3    0    0  0.22933753211E+02  0.14765070650E+02 -0.19107145122E+02  0.33302362414E+02  0.00000000000E+00 0. -1.
</event>
<event>
 7    1  0.2387817E-009  0.4778727E+02  0.7816164E-02  0.1312668E+00
        -11   -1    0    0    0    0  0.00000000000E+00  0.00000000000E+00  0.45593999997E+02  0.45594000000E+02  0.51100000000E-03 0. -1.
         11   -1    0    0    0    0 -0.00000000000E+00 -0.00000000000E+00 -0.45593999997E+02  0.45594000000E+02  0.51100000000E-03 0.  1.
    9900012    2    1    2    0    0  0.39638727089E+02 -0.26136146341E+01 -0.17480375794E+02  0.47787271842E+02  0.20000003636E+02 0.  0.
         12    1    1    2    0    0 -0.39638727089E+02  0.26136146341E+01  0.17480375794E+02  0.43400728158E+02  0.00000000000E+00 0. -1.
         11    1    3    3    0    0  0.78848559160E+01 -0.17888836326E+01 -0.15522117950E+01  0.82328864431E+01  0.51100000000E-03 0.  1.
        -11    1    3    3    0    0  0.31760130303E+02 -0.86774386292E+00 -0.95502014205E+01  0.33176274711E+02  0.51100000000E-03 0. -1.
         12    1    3    3    0    0 -0.62591297852E-02  0.43012861402E-01 -0.63779625790E+01  0.63781106875E+01  0.00000000000E+00 0. -1.
</event>
<event>
 7    1  0.2387817E-009  0.4778727E+02  0.7816164E-02  0.1312668E+00
        -11   -1    0    0    0    0  0.00000000000E+00  0.00000000000E+00  0.45593999997E+02  0.45594000000E+02  0.51100000000E-03 0. -1.
         11   -1    0    0    0    0 -0.00000000000E+00 -0.00000000000E+00 -0.45593999997E+02  0.45594000000E+02  0.51100000000E-03 0.  1.
    9900012    2    1    2    0    0  0.28697323655E+02 -0.31712837450E+02 -0.73744771675E+01  0.47787270081E+02  0.19999995605E+02 0.  0.
         12    1    1    2    0    0 -0.28697323655E+02  0.31712837450E+02  0.73744771675E+01  0.43400729919E+02  0.00000000000E+00 0. -1.
         11    1    3    3    0    0  0.96478099806E+01 -0.62866321904E+01  0.21720308744E+01  0.11718348864E+02  0.51100000000E-03 0. -1.
        -11    1    3    3    0    0  0.15832517667E+02 -0.24091263650E+02 -0.34315304718E+01  0.29031586274E+02  0.51100000000E-03 0.  1.
         12    1    3    3    0    0  0.32169960069E+01 -0.13349416088E+01 -0.61149775701E+01  0.70373349423E+01  0.00000000000E+00 0. -1.
</event>
<event>
 7    1  0.2387817E-009  0.4778727E+02  0.7816164E-02  0.1312668E+00
        -11   -1    0    0    0    0  0.00000000000E+00  0.00000000000E+00  0.45593999997E+02  0.45594000000E+02  0.51100000000E-03 0.  1.
         11   -1    0    0    0    0 -0.00000000000E+00 -0.00000000000E+00 -0.45593999997E+02  0.45594000000E+02  0.51100000000E-03 0. -1.
    9900012    2    1    2    0    0 -0.39810253211E+02 -0.16944852656E+02 -0.34115775610E+01  0.47787272429E+02  0.20000006311E+02 0.  0.
         12    1    1    2    0    0  0.39810253211E+02  0.16944852656E+02  0.34115775610E+01  0.43400727571E+02  0.00000000000E+00 0. -1.
         11    1    3    3    0    0 -0.16469725842E+02 -0.64598714512E+01 -0.69550921547E+01  0.19009342850E+02  0.51100000000E-03 0. -1.
        -11    1    3    3    0    0 -0.12887655393E+02 -0.11224103599E+02 -0.14857431735E+01  0.17154579452E+02  0.51100000000E-03 0.  1.
         12    1    3    3    0    0 -0.10452871977E+02  0.73912239417E+00  0.50292577672E+01  0.11623350127E+02  0.00000000000E+00 0. -1.
</event>
<event>
 7    1  0.2387817E-009  0.4778727E+02  0.7816164E-02  0.1312668E+00
        -11   -1    0    0    0    0  0.00000000000E+00  0.00000000000E+00  0.45593999997E+02  0.45594000000E+02  0.51100000000E-03 0.  1.
         11   -1    0    0    0    0 -0.00000000000E+00 -0.00000000000E+00 -0.45593999997E+02  0.45594000000E+02  0.51100000000E-03 0. -1.
    9900012    2    1    2    0    0  0.40007754747E+02 -0.11003972612E+02  0.12724602807E+02  0.47787269940E+02  0.19999994966E+02 0.  0.
         12    1    1    2    0    0 -0.40007754747E+02  0.11003972612E+02 -0.12724602807E+02  0.43400730060E+02  0.00000000000E+00 0. -1.
         11    1    3    3    0    0  0.98757130005E+01  0.91944858709E+00 -0.35951488395E+01  0.10549890445E+02  0.51100000000E-03 0.  1.
        -11    1    3    3    0    0  0.18788357692E+01  0.15880875220E+00  0.34321950914E+01  0.39160193404E+01  0.51100000000E-03 0. -1.
        -12    1    3    3    0    0  0.28253205977E+02 -0.12082229951E+02  0.12887556555E+02  0.33321360154E+02  0.00000000000E+00 0.  1.
</event>
<event>
 7    1  0.2387817E-009  0.4778727E+02  0.7816164E-02  0.1312668E+00
        -11   -1    0    0    0    0  0.00000000000E+00  0.00000000000E+00  0.45593999997E+02  0.45594000000E+02  0.51100000000E-03 0.  1.
         11   -1    0    0    0    0 -0.00000000000E+00 -0.00000000000E+00 -0.45593999997E+02  0.45594000000E+02  0.51100000000E-03 0. -1.
    9900012    2    1    2    0    0  0.31901284072E+02 -0.26357705374E+02  0.13084447546E+02  0.47787270449E+02  0.19999997284E+02 0.  0.
         12    1    1    2    0    0 -0.31901284072E+02  0.26357705374E+02 -0.13084447546E+02  0.43400729551E+02  0.00000000000E+00 0. -1.
         11    1    3    3    0    0  0.15437787337E+02 -0.13514030684E+02  0.93742400040E+01  0.22557275525E+02  0.51100000000E-03 0. -1.
        -11    1    3    3    0    0  0.13134141406E+02 -0.90820010861E+01  0.86703555532E+01  0.18170401203E+02  0.51100000000E-03 0.  1.
         12    1    3    3    0    0  0.33293553294E+01 -0.37616736040E+01 -0.49601480116E+01  0.70595937213E+01  0.00000000000E+00 0. -1.
</event>
<event>
 7    1  0.2387817E-009  0.4778727E+02  0.7816164E-02  0.1312668E+00
        -11   -1    0    0    0    0  0.00000000000E+00  0.00000000000E+00  0.45593999997E+02  0.45594000000E+02  0.51100000000E-03 0. -1.
         11   -1    0    0    0    0 -0.00000000000E+00 -0.00000000000E+00 -0.45593999997E+02  0.45594000000E+02  0.51100000000E-03 0.  1.
    9900012    2    1    2    0    0 -0.41739783759E+02  0.36857421890E+01  0.11306151807E+02  0.47787270601E+02  0.19999997977E+02 0.  0.
         12    1    1    2    0    0  0.41739783759E+02 -0.36857421890E+01 -0.11306151807E+02  0.43400729399E+02  0.00000000000E+00 0. -1.
         11    1    3    3    0    0 -0.21742204121E+02 -0.19453766686E+01  0.72260781101E+01  0.22994002164E+02  0.51100000000E-03 0. -1.
        -11    1    3    3    0    0 -0.12548809413E+02 -0.28975962479E+01  0.39422841600E+01  0.13468863588E+02  0.51100000000E-03 0.  1.
         12    1    3    3    0    0 -0.74487702248E+01  0.85287151056E+01  0.13778953699E+00  0.11324404848E+02  0.00000000000E+00 0. -1.
</event>
<event>
 7    1  0.2387817E-009  0.4778726E+02  0.7816164E-02  0.1312668E+00
        -11   -1    0    0    0    0  0.00000000000E+00  0.00000000000E+00  0.45593999997E+02  0.45594000000E+02  0.51100000000E-03 0.  1.
         11   -1    0    0    0    0 -0.00000000000E+00 -0.00000000000E+00 -0.45593999997E+02  0.45594000000E+02  0.51100000000E-03 0. -1.
    9900012    2    1    2    0    0 -0.53653226929E+01 -0.25917795509E+02  0.34396295101E+02  0.47787263504E+02  0.19999965621E+02 0.  0.
         12    1    1    2    0    0  0.53653226929E+01  0.25917795509E+02 -0.34396295101E+02  0.43400736496E+02  0.00000000000E+00 0. -1.
         11    1    3    3    0    0  0.57635833530E+00 -0.17587062967E+01  0.76498835078E+01  0.78705752466E+01  0.51100000000E-03 0. -1.
        -11    1    3    3    0    0  0.20950939749E+01 -0.19433112312E+02  0.22088049946E+02  0.29494359182E+02  0.51100000000E-03 0.  1.
         12    1    3    3    0    0 -0.80367750031E+01 -0.47259769008E+01  0.46583616478E+01  0.10422329076E+02  0.00000000000E+00 0. -1.
</event>
<event>
 7    1  0.2387817E-009  0.4778727E+02  0.7816164E-02  0.1312668E+00
        -11   -1    0    0    0    0  0.00000000000E+00  0.00000000000E+00  0.45593999997E+02  0.45594000000E+02  0.51100000000E-03 0.  1.
         11   -1    0    0    0    0 -0.00000000000E+00 -0.00000000000E+00 -0.45593999997E+02  0.45594000000E+02  0.51100000000E-03 0. -1.
    9900012    2    1    2    0    0  0.88555081691E+01 -0.41830364865E+02  0.74447150569E+01  0.47787271528E+02  0.20000002203E+02 0.  0.
         12    1    1    2    0    0 -0.88555081691E+01  0.41830364865E+02 -0.74447150569E+01  0.43400728472E+02  0.00000000000E+00 0. -1.
         11    1    3    3    0    0 -0.39897012382E+00 -0.17906449849E+02  0.89035245594E+01  0.20001821747E+02  0.51100000000E-03 0. -1.
        -11    1    3    3    0    0  0.43913435525E+01 -0.40626806426E+01  0.32415985570E+01  0.68042070563E+01  0.51100000000E-03 0.  1.
         12    1    3    3    0    0  0.48631347405E+01 -0.19861234373E+02 -0.47004080596E+01  0.20981242724E+02  0.00000000000E+00 0. -1.
</event>
<event>
 7    1  0.2387817E-009  0.4778724E+02  0.7816164E-02  0.1312668E+00
        -11   -1    0    0    0    0  0.00000000000E+00  0.00000000000E+00  0.45593999997E+02  0.45594000000E+02  0.51100000000E-03 0. -1.
         11   -1    0    0    0    0 -0.00000000000E+00 -0.00000000000E+00 -0.45593999997E+02  0.45594000000E+02  0.51100000000E-03 0.  1.
    9900012    2    1    2    0    0  0.22794878904E+02 -0.18243551729E+01 -0.36887549158E+02  0.47787238959E+02  0.19999853709E+02 0.  0.
         12    1    1    2    0    0 -0.22794878904E+02  0.18243551729E+01  0.36887549158E+02  0.43400761041E+02  0.00000000000E+00 0. -1.
         11    1    3    3    0    0  0.99699589798E+00 -0.14885458573E+01  0.49519885407E+00  0.18587608120E+01  0.51100000000E-03 0. -1.
        -11    1    3    3    0    0 -0.43962674213E+00 -0.36865835652E+01 -0.26909816282E+01  0.45853628471E+01  0.51100000000E-03 0.  1.
        -12    1    3    3    0    0  0.22237509748E+02  0.33507742496E+01 -0.34691766384E+02  0.41343115300E+02  0.00000000000E+00 0.  1.
</event>
<event>
 7    1  0.2387817E-009  0.4778727E+02  0.7816164E-02  0.1312668E+00
        -11   -1    0    0    0    0  0.00000000000E+00  0.00000000000E+00  0.45593999997E+02  0.45594000000E+02  0.51100000000E-03 0.  1.
         11   -1    0    0    0    0 -0.00000000000E+00 -0.00000000000E+00 -0.45593999997E+02  0.45594000000E+02  0.51100000000E-03 0. -1.
    9900012    2    1    2    0    0  0.50343047997E+01 -0.38345116354E+02  0.19695968491E+02  0.47787270193E+02  0.19999996116E+02 0.  0.
         12    1    1    2    0    0 -0.50343047997E+01  0.38345116354E+02 -0.19695968491E+02  0.43400729807E+02  0.00000000000E+00 0. -1.
         11    1    3    3    0    0 -0.34920753252E+00 -0.24218761384E+01 -0.17119802675E+01  0.29863533997E+01  0.51100000000E-03 0. -1.
        -11    1    3    3    0    0  0.47636073551E+01 -0.54108460141E+01  0.97627852698E+01  0.12135946033E+02  0.51100000000E-03 0.  1.
         12    1    3    3    0    0  0.61990497718E+00 -0.30512394201E+02  0.11645163489E+02  0.32664970760E+02  0.00000000000E+00 0. -1.
</event>
<event>
 7    1  0.2387817E-009  0.4778728E+02  0.7816164E-02  0.1312668E+00
        -11   -1    0    0    0    0  0.00000000000E+00  0.00000000000E+00  0.45593999997E+02  0.45594000000E+02  0.51100000000E-03 0.  1.
         11   -1    0    0    0    0 -0.00000000000E+00 -0.00000000000E+00 -0.45593999997E+02  0.45594000000E+02  0.51100000000E-03 0. -1.
    9900012    2    1    2    0    0 -0.37771861068E+02 -0.16682934490E+02 -0.13363703542E+02  0.47787281525E+02  0.20000047787E+02 0.  0.
         12    1    1    2    0    0  0.37771861068E+02  0.16682934490E+02  0.13363703542E+02  0.43400718475E+02  0.00000000000E+00 0. -1.
         11    1    3    3    0    0 -0.37570195675E+01 -0.83377414390E+01 -0.60401874890E+01  0.10959789847E+02  0.51100000000E-03 0. -1.
        -11    1    3    3    0    0 -0.13010515367E+02 -0.75612035215E+01 -0.23817104155E+01  0.15235414453E+02  0.51100000000E-03 0.  1.
        -12    1    3    3    0    0 -0.21004326134E+02 -0.78398952965E+00 -0.49418056379E+01  0.21592077225E+02  0.00000000000E+00 0.  1.
</event>
<event>
 7    1  0.2387817E-009  0.4778728E+02  0.7816164E-02  0.1312668E+00
        -11   -1    0    0    0    0  0.00000000000E+00  0.00000000000E+00  0.45593999997E+02  0.45594000000E+02  0.51100000000E-03 0. -1.
         11   -1    0    0    0    0 -0.00000000000E+00 -0.00000000000E+00 -0.45593999997E+02  0.45594000000E+02  0.51100000000E-03 0.  1.
    9900012    2    1    2    0    0 -0.16430353343E+02  0.36515412808E+02 -0.16741882205E+02  0.47787279922E+02  0.20000040478E+02 0.  0.
         12    1    1    2    0    0  0.16430353343E+02 -0.36515412808E+02  0.16741882205E+02  0.43400720078E+02  0.00000000000E+00 0. -1.
         11    1    3    3    0    0  0.18184160259E+01  0.52863160857E+00 -0.31737815956E+01  0.36958054735E+01  0.51100000000E-03 0. -1.
        -11    1    3    3    0    0 -0.35360837000E+01  0.16068819731E+02 -0.14339730547E+01  0.16515663307E+02  0.51100000000E-03 0.  1.
         12    1    3    3    0    0 -0.14712685669E+02  0.19917961468E+02 -0.12134127555E+02  0.27575811142E+02  0.00000000000E+00 0. -1.
</event>
<event>
 7    1  0.2387817E-009  0.4778727E+02  0.7816164E-02  0.1312668E+00
        -11   -1    0    0    0    0  0.00000000000E+00  0.00000000000E+00  0.45593999997E+02  0.45594000000E+02  0.51100000000E-03 0.  1.
         11   -1    0    0    0    0 -0.00000000000E+00 -0.00000000000E+00 -0.45593999997E+02  0.45594000000E+02  0.51100000000E-03 0. -1.
    9900012    2    1    2    0    0 -0.17930133978E+02 -0.28065730821E+02  0.27828910711E+02  0.47787271638E+02  0.20000002704E+02 0.  0.
         12    1    1    2    0    0  0.17930133978E+02  0.28065730821E+02 -0.27828910711E+02  0.43400728362E+02  0.00000000000E+00 0. -1.
         11    1    3    3    0    0 -0.88163243772E+01 -0.16867259695E+02  0.82252854216E+01  0.20733724839E+02  0.51100000000E-03 0. -1.
        -11    1    3    3    0    0 -0.11188148756E+02 -0.94134153309E+01  0.11815995516E+02  0.18799064101E+02  0.51100000000E-03 0.  1.
         12    1    3    3    0    0  0.20743391550E+01 -0.17850557950E+01  0.77876297734E+01  0.82544826979E+01  0.00000000000E+00 0. -1.
</event>
<event>
 7    1  0.2387817E-009  0.4778727E+02  0.7816164E-02  0.1312668E+00
        -11   -1    0    0    0    0  0.00000000000E+00  0.00000000000E+00  0.45593999997E+02  0.45594000000E+02  0.51100000000E-03 0.  1.
         11   -1    0    0    0    0 -0.00000000000E+00 -0.00000000000E+00 -0.45593999997E+02  0.45594000000E+02  0.51100000000E-03 0. -1.
    9900012    2    1    2    0    0  0.33383264585E+01  0.86530403580E+01  0.42398155489E+02  0.47787272819E+02  0.20000008090E+02 0.  0.
         12    1    1    2    0    0 -0.33383264585E+01 -0.86530403580E+01 -0.42398155489E+02  0.43400727181E+02  0.00000000000E+00 0. -1.
         11    1    3    3    0    0 -0.90109059924E+00  0.91609808960E+00  0.80095477612E+01  0.81119698950E+01  0.51100000000E-03 0. -1.
        -11    1    3    3    0    0 -0.72274758054E+00 -0.55501689457E+01  0.10218765783E+02  0.11651176497E+02  0.51100000000E-03 0.  1.
         12    1    3    3    0    0  0.49621646383E+01  0.13287111214E+02  0.24169841945E+02  0.28024126426E+02  0.00000000000E+00 0. -1.
</event>
<event>
 7    1  0.2387817E-009  0.4778727E+02  0.7816164E-02  0.1312668E+00
        -11   -1    0    0    0    0  0.00000000000E+00  0.00000000000E+00  0.45593999997E+02  0.45594000000E+02  0.51100000000E-03 0.  1.
         11   -1    0    0    0    0 -0.00000000000E+00 -0.00000000000E+00 -0.45593999997E+02  0.45594000000E+02  0.51100000000E-03 0. -1.
    9900012    2    1    2    0    0 -0.21983124933E+02  0.26911819236E+02  0.26002300004E+02  0.47787269570E+02  0.19999993277E+02 0.  0.
         12    1    1    2    0    0  0.21983124933E+02 -0.26911819236E+02 -0.26002300004E+02  0.43400730430E+02  0.00000000000E+00 0. -1.
         11    1    3    3    0    0 -0.12465674166E+02  0.17186018004E+02  0.80500122975E+01  0.22705835054E+02  0.51100000000E-03 0. -1.
        -11    1    3    3    0    0 -0.74786051044E+01  0.92988984917E+01  0.67965547695E+01  0.13732887696E+02  0.51100000000E-03 0.  1.
        -12    1    3    3    0    0 -0.20388456618E+01  0.42690274058E+00  0.11155732937E+02  0.11348546820E+02  0.00000000000E+00 0.  1.
</event>
<event>
 7    1  0.2387817E-009  0.4778733E+02  0.7816164E-02  0.1312668E+00
        -11   -1    0    0    0    0  0.00000000000E+00  0.00000000000E+00  0.45593999997E+02  0.45594000000E+02  0.51100000000E-03 0.  1.
         11   -1    0    0    0    0 -0.00000000000E+00 -0.00000000000E+00 -0.45593999997E+02  0.45594000000E+02  0.51100000000E-03 0. -1.
    9900012    2    1    2    0    0 -0.25204184597E+02  0.21055000371E+02  0.28373479836E+02  0.47787328118E+02  0.20000260220E+02 0.  0.
         12    1    1    2    0    0  0.25204184597E+02 -0.21055000371E+02 -0.28373479836E+02  0.43400671882E+02  0.00000000000E+00 0. -1.
         11    1    3    3    0    0 -0.16555683369E+02  0.22537536799E+01  0.12550938848E+02  0.20897275509E+02  0.51100000000E-03 0. -1.
        -11    1    3    3    0    0 -0.58579829814E+01  0.56128794758E+01  0.74935313100E+01  0.11044156481E+02  0.51100000000E-03 0.  1.
         12    1    3    3    0    0 -0.27905182459E+01  0.13188367215E+02  0.83290096778E+01  0.15845896128E+02  0.00000000000E+00 0. -1.
</event>
<event>
 7    1  0.2387817E-009  0.4778727E+02  0.7816164E-02  0.1312668E+00
        -11   -1    0    0    0    0  0.00000000000E+00  0.00000000000E+00  0.45593999997E+02  0.45594000000E+02  0.51100000000E-03 0.  1.
         11   -1    0    0    0    0 -0.00000000000E+00 -0.00000000000E+00 -0.45593999997E+02  0.45594000000E+02  0.51100000000E-03 0. -1.
    9900012    2    1    2    0    0 -0.22937793058E+02  0.33971917954E+02 -0.14261484561E+02  0.47787268420E+02  0.19999988032E+02 0.  0.
         12    1    1    2    0    0  0.22937793058E+02 -0.33971917954E+02  0.14261484561E+02  0.43400731580E+02  0.00000000000E+00 0. -1.
         11    1    3    3    0    0 -0.51525755264E+01  0.28517620606E+01 -0.50489008339E+01  0.77571245508E+01  0.51100000000E-03 0. -1.
        -11    1    3    3    0    0 -0.27783154274E+01  0.66657817388E+01 -0.87358416128E+01  0.11334311260E+02  0.51100000000E-03 0.  1.
        -12    1    3    3    0    0 -0.15006902104E+02  0.24454374155E+02 -0.47674211448E+00  0.28695832608E+02  0.00000000000E+00 0.  1.
</event>
<event>
 7    1  0.2387817E-009  0.4778727E+02  0.7816164E-02  0.1312668E+00
        -11   -1    0    0    0    0  0.00000000000E+00  0.00000000000E+00  0.45593999997E+02  0.45594000000E+02  0.51100000000E-03 0. -1.
         11   -1    0    0    0    0 -0.00000000000E+00 -0.00000000000E+00 -0.45593999997E+02  0.45594000000E+02  0.51100000000E-03 0.  1.
    9900012    2    1    2    0    0 -0.10232637608E+02 -0.25195294006E+02 -0.33824749461E+02  0.47787269723E+02  0.19999993977E+02 0.  0.
         12    1    1    2    0    0  0.10232637608E+02  0.25195294006E+02  0.33824749461E+02  0.43400730277E+02  0.00000000000E+00 0. -1.
         11    1    3    3    0    0 -0.38679862833E+01 -0.15053625616E+02 -0.16536342601E+02  0.22694131156E+02  0.51100000000E-03 0. -1.
        -11    1    3    3    0    0 -0.12852444032E+01 -0.11068819821E+02 -0.16439924230E+02  0.19860557252E+02  0.51100000000E-03 0.  1.
         12    1    3    3    0    0 -0.50794069216E+01  0.92715143018E+00 -0.84848262949E+00  0.52325813154E+01  0.00000000000E+00 0. -1.
</event>
<event>
 7    1  0.2387817E-009  0.4778727E+02  0.7816164E-02  0.1312668E+00
        -11   -1    0    0    0    0  0.00000000000E+00  0.00000000000E+00  0.45593999997E+02  0.45594000000E+02  0.51100000000E-03 0.  1.
         11   -1    0    0    0    0 -0.00000000000E+00 -0.00000000000E+00 -0.45593999997E+02  0.45594000000E+02  0.51100000000E-03 0. -1.
    9900012    2    1    2    0    0 -0.28038403358E+02 -0.10248721245E+02  0.31502933866E+02  0.47787271986E+02  0.20000004293E+02 0.  0.
         12    1    1    2    0    0  0.28038403358E+02  0.10248721245E+02 -0.31502933866E+02  0.43400728014E+02  0.00000000000E+00 0. -1.
         11    1    3    3    0    0 -0.12784959049E+01 -0.84774305394E+00 -0.89000092651E+00  0.17735055610E+01  0.51100000000E-03 0. -1.
        -11    1    3    3    0    0 -0.15482761692E+02  0.36010390039E+00  0.24898132335E+02  0.29321708314E+02  0.51100000000E-03 0.  1.
        -12    1    3    3    0    0 -0.11277145760E+02 -0.97610820917E+01  0.74948024576E+01  0.16692058111E+02  0.00000000000E+00 0.  1.
</event>
<event>
 7    1  0.2387817E-009  0.4778727E+02  0.7816164E-02  0.1312668E+00
        -11   -1    0    0    0    0  0.00000000000E+00  0.00000000000E+00  0.45593999997E+02  0.45594000000E+02  0.51100000000E-03 0. -1.
         11   -1    0    0    0    0 -0.00000000000E+00 -0.00000000000E+00 -0.45593999997E+02  0.45594000000E+02  0.51100000000E-03 0.  1.
    9900012    2    1    2    0    0  0.43071890240E+02  0.27670242560E+01  0.45584220623E+01  0.47787270009E+02  0.19999995279E+02 0.  0.
         12    1    1    2    0    0 -0.43071890240E+02 -0.27670242560E+01 -0.45584220623E+01  0.43400729991E+02  0.00000000000E+00 0. -1.
         11    1    3    3    0    0  0.14645051831E+02  0.94483076123E+01  0.46751712284E+01  0.18044536185E+02  0.51100000000E-03 0. -1.
        -11    1    3    3    0    0  0.13511957023E+02 -0.41568243479E+01  0.25991227213E+01  0.14373851621E+02  0.51100000000E-03 0.  1.
        -12    1    3    3    0    0  0.14914881386E+02 -0.25244590083E+01 -0.27158718875E+01  0.15368882202E+02  0.00000000000E+00 0.  1.
</event>
<event>
 7    1  0.2387817E-009  0.4778727E+02  0.7816164E-02  0.1312668E+00
        -11   -1    0    0    0    0  0.00000000000E+00  0.00000000000E+00  0.45593999997E+02  0.45594000000E+02  0.51100000000E-03 0.  1.
         11   -1    0    0    0    0 -0.00000000000E+00 -0.00000000000E+00 -0.45593999997E+02  0.45594000000E+02  0.51100000000E-03 0. -1.
    9900012    2    1    2    0    0 -0.20667469308E+02  0.33274615990E+02  0.18688997839E+02  0.47787274232E+02  0.20000014534E+02 0.  0.
         12    1    1    2    0    0  0.20667469308E+02 -0.33274615990E+02 -0.18688997839E+02  0.43400725768E+02  0.00000000000E+00 0. -1.
         11    1    3    3    0    0 -0.14524229032E+02  0.12417793904E+02  0.50187259002E+01  0.19757085927E+02  0.51100000000E-03 0. -1.
        -11    1    3    3    0    0 -0.31402294150E+01  0.11777385960E+02  0.11037972834E+01  0.12238718459E+02  0.51100000000E-03 0.  1.
        -12    1    3    3    0    0 -0.30030108618E+01  0.90794361269E+01  0.12566474656E+02  0.15791469846E+02  0.00000000000E+00 0.  1.
</event>
<event>
 7    1  0.2387817E-009  0.4778728E+02  0.7816164E-02  0.1312668E+00
        -11   -1    0    0    0    0  0.00000000000E+00  0.00000000000E+00  0.45593999997E+02  0.45594000000E+02  0.51100000000E-03 0.  1.
         11   -1    0    0    0    0 -0.00000000000E+00 -0.00000000000E+00 -0.45593999997E+02  0.45594000000E+02  0.51100000000E-03 0. -1.
    9900012    2    1    2    0    0  0.16209096901E+02  0.22170812264E+02  0.33605698430E+02  0.47787277590E+02  0.20000029842E+02 0.  0.
         12    1    1    2    0    0 -0.16209096901E+02 -0.22170812264E+02 -0.33605698430E+02  0.43400722410E+02  0.00000000000E+00 0. -1.
         11    1    3    3    0    0  0.17208901463E+01  0.16172036497E+02  0.10121806720E+02  0.19155865913E+02  0.51100000000E-03 0. -1.
        -11    1    3    3    0    0  0.14860291581E+01 -0.71011034366E+00  0.34577501886E+01  0.38299577004E+01  0.51100000000E-03 0.  1.
         12    1    3    3    0    0  0.13002177596E+02  0.67088861111E+01  0.20026141521E+02  0.24801453976E+02  0.00000000000E+00 0. -1.
</event>
<event>
 7    1  0.2387817E-009  0.4778725E+02  0.7816164E-02  0.1312668E+00
        -11   -1    0    0    0    0  0.00000000000E+00  0.00000000000E+00  0.45593999997E+02  0.45594000000E+02  0.51100000000E-03 0.  1.
         11   -1    0    0    0    0 -0.00000000000E+00 -0.00000000000E+00 -0.45593999997E+02  0.45594000000E+02  0.51100000000E-03 0. -1.
    9900012    2    1    2    0    0 -0.39958426456E+02  0.13069606652E+02  0.10776597921E+02  0.47787245103E+02  0.19999881722E+02 0.  0.
         12    1    1    2    0    0  0.39958426456E+02 -0.13069606652E+02 -0.10776597921E+02  0.43400754897E+02  0.00000000000E+00 0. -1.
         11    1    3    3    0    0 -0.20939308536E+02  0.64201789876E+01  0.53902816841E+01  0.22555010022E+02  0.51100000000E-03 0. -1.
        -11    1    3    3    0    0 -0.20003136624E+02  0.88525676003E+01  0.34637140678E+01  0.22147025609E+02  0.51100000000E-03 0.  1.
         12    1    3    3    0    0  0.98401870339E+00 -0.22031399365E+01  0.19226021686E+01  0.30852094722E+01  0.00000000000E+00 0. -1.
</event>
<event>
 7    1  0.2387817E-009  0.4778727E+02  0.7816164E-02  0.1312668E+00
        -11   -1    0    0    0    0  0.00000000000E+00  0.00000000000E+00  0.45593999997E+02  0.45594000000E+02  0.51100000000E-03 0.  1.
         11   -1    0    0    0    0 -0.00000000000E+00 -0.00000000000E+00 -0.45593999997E+02  0.45594000000E+02  0.51100000000E-03 0. -1.
    9900012    2    1    2    0    0  0.25456251872E+02  0.19287635307E+02  0.29386892873E+02  0.47787272958E+02  0.20000008723E+02 0.  0.
         12    1    1    2    0    0 -0.25456251872E+02 -0.19287635307E+02 -0.29386892873E+02  0.43400727042E+02  0.00000000000E+00 0. -1.
         11    1    3    3    0    0  0.64478342918E+01  0.20522727933E+01  0.85001271832E+01  0.10864554895E+02  0.51100000000E-03 0. -1.
        -11    1    3    3    0    0  0.55419906030E+01  0.21579045373E+01  0.14579628674E+02  0.15745976768E+02  0.51100000000E-03 0.  1.
         12    1    3    3    0    0  0.13466426977E+02  0.15077457976E+02  0.63071370157E+01  0.21176741295E+02  0.00000000000E+00 0. -1.
</event>
<event>
 7    1  0.2387817E-009  0.4778727E+02  0.7816164E-02  0.1312668E+00
        -11   -1    0    0    0    0  0.00000000000E+00  0.00000000000E+00  0.45593999997E+02  0.45594000000E+02  0.51100000000E-03 0. -1.
         11   -1    0    0    0    0 -0.00000000000E+00 -0.00000000000E+00 -0.45593999997E+02  0.45594000000E+02  0.51100000000E-03 0.  1.
    9900012    2    1    2    0    0  0.12560182699E+02 -0.39803620348E+02 -0.11896936091E+02  0.47787268778E+02  0.19999989668E+02 0.  0.
         12    1    1    2    0    0 -0.12560182699E+02  0.39803620348E+02  0.11896936091E+02  0.43400731222E+02  0.00000000000E+00 0. -1.
         11    1    3    3    0    0 -0.23819713459E+01 -0.56564694247E+01 -0.22407925680E+01  0.65338032905E+01  0.51100000000E-03 0. -1.
        -11    1    3    3    0    0  0.31063613710E+01 -0.50706995990E+00  0.20073423505E+01  0.37330985099E+01  0.51100000000E-03 0.  1.
        -12    1    3    3    0    0  0.11835792674E+02 -0.33640080963E+02 -0.11663485873E+02  0.37520366978E+02  0.00000000000E+00 0.  1.
</event>
<event>
 7    1  0.2387817E-009  0.4778727E+02  0.7816164E-02  0.1312668E+00
        -11   -1    0    0    0    0  0.00000000000E+00  0.00000000000E+00  0.45593999997E+02  0.45594000000E+02  0.51100000000E-03 0.  1.
         11   -1    0    0    0    0 -0.00000000000E+00 -0.00000000000E+00 -0.45593999997E+02  0.45594000000E+02  0.51100000000E-03 0. -1.
    9900012    2    1    2    0    0 -0.96112564111E+01 -0.30771322121E+02  0.29058100567E+02  0.47787265865E+02  0.19999976386E+02 0.  0.
         12    1    1    2    0    0  0.96112564111E+01  0.30771322121E+02 -0.29058100567E+02  0.43400734135E+02  0.00000000000E+00 0. -1.
         11    1    3    3    0    0 -0.73335131055E+01 -0.71770340715E+01  0.31103646336E+01  0.10722154678E+02  0.51100000000E-03 0. -1.
        -11    1    3    3    0    0  0.17084113756E+01 -0.23313594139E+00  0.55010859198E+01  0.57649777410E+01  0.51100000000E-03 0.  1.
        -12    1    3    3    0    0 -0.39861546812E+01 -0.23361152108E+02  0.20446650013E+02  0.31300133446E+02  0.00000000000E+00 0.  1.
</event>
<event>
 7    1  0.2387817E-009  0.4778727E+02  0.7816164E-02  0.1312668E+00
        -11   -1    0    0    0    0  0.00000000000E+00  0.00000000000E+00  0.45593999997E+02  0.45594000000E+02  0.51100000000E-03 0.  1.
         11   -1    0    0    0    0 -0.00000000000E+00 -0.00000000000E+00 -0.45593999997E+02  0.45594000000E+02  0.51100000000E-03 0. -1.
    9900012    2    1    2    0    0  0.13556222103E+02  0.15822544070E+02  0.38072287525E+02  0.47787272634E+02  0.20000007246E+02 0.  0.
         12    1    1    2    0    0 -0.13556222103E+02 -0.15822544070E+02 -0.38072287525E+02  0.43400727366E+02  0.00000000000E+00 0. -1.
         11    1    3    3    0    0  0.72660252854E+01  0.62872937298E+01  0.15492399736E+02  0.18230184742E+02  0.51100000000E-03 0. -1.
        -11    1    3    3    0    0  0.98813132801E+01  0.66026335109E+01  0.21837170454E+02  0.24861559386E+02  0.51100000000E-03 0.  1.
         12    1    3    3    0    0 -0.35911164620E+01  0.29326168289E+01  0.74271733555E+00  0.46955285059E+01  0.00000000000E+00 0. -1.
</event>
<event>
 7    1  0.2387817E-009  0.4778728E+02  0.7816164E-02  0.1312668E+00
        -11   -1    0    0    0    0  0.00000000000E+00  0.00000000000E+00  0.45593999997E+02  0.45594000000E+02  0.51100000000E-03 0.  1.
         11   -1    0    0    0    0 -0.00000000000E+00 -0.00000000000E+00 -0.45593999997E+02  0.45594000000E+02  0.51100000000E-03 0. -1.
    9900012    2    1    2    0    0  0.17025380591E+02 -0.39598323245E+02 -0.50726544435E+01  0.47787278679E+02  0.20000034808E+02 0.  0.
         12    1    1    2    0    0 -0.17025380591E+02  0.39598323245E+02  0.50726544435E+01  0.43400721321E+02  0.00000000000E+00 0. -1.
         11    1    3    3    0    0 -0.38008619111E+00 -0.91251029452E+01  0.44887450739E+01  0.10176482785E+02  0.51100000000E-03 0. -1.
        -11    1    3    3    0    0  0.47725781371E+01 -0.16364983470E+02 -0.17891949424E+01  0.17140344362E+02  0.51100000000E-03 0.  1.
         12    1    3    3    0    0  0.12632888645E+02 -0.14108236830E+02 -0.77722045749E+01  0.20470451532E+02  0.00000000000E+00 0. -1.
</event>
<event>
 7    1  0.2387817E-009  0.4778728E+02  0.7816164E-02  0.1312668E+00
        -11   -1    0    0    0    0  0.00000000000E+00  0.00000000000E+00  0.45593999997E+02  0.45594000000E+02  0.51100000000E-03 0. -1.
         11   -1    0    0    0    0 -0.00000000000E+00 -0.00000000000E+00 -0.45593999997E+02  0.45594000000E+02  0.51100000000E-03 0.  1.
    9900012    2    1    2    0    0  0.10586976246E+02 -0.99798910414E+01 -0.40889368914E+02  0.47787276718E+02  0.20000025869E+02 0.  0.
         12    1    1    2    0    0 -0.10586976246E+02  0.99798910414E+01  0.40889368914E+02  0.43400723282E+02  0.00000000000E+00 0. -1.
         11    1    3    3    0    0 -0.23368402335E+01 -0.50668728196E+01 -0.14281901141E+02  0.15333190239E+02  0.51100000000E-03 0. -1.
        -11    1    3    3    0    0  0.56839591828E+01 -0.77303188099E+01 -0.87735830440E+01  0.13001576081E+02  0.51100000000E-03 0.  1.
         12    1    3    3    0    0  0.72398572966E+01  0.28173005880E+01 -0.17833884729E+02  0.19452510399E+02  0.00000000000E+00 0. -1.
</event>
<event>
 7    1  0.2387817E-009  0.4778727E+02  0.7816164E-02  0.1312668E+00
        -11   -1    0    0    0    0  0.00000000000E+00  0.00000000000E+00  0.45593999997E+02  0.45594000000E+02  0.51100000000E-03 0.  1.
         11   -1    0    0    0    0 -0.00000000000E+00 -0.00000000000E+00 -0.45593999997E+02  0.45594000000E+02  0.51100000000E-03 0. -1.
    9900012    2    1    2    0    0  0.31935390373E+01 -0.12118724670E+02  0.41551909309E+02  0.47787270209E+02  0.19999996190E+02 0.  0.
         12    1    1    2    0    0 -0.31935390373E+01  0.12118724670E+02 -0.41551909309E+02  0.43400729791E+02  0.00000000000E+00 0. -1.
         11    1    3    3    0    0  0.50407585124E+01 -0.15807695961E+02  0.23885292942E+02  0.29082636007E+02  0.51100000000E-03 0.  1.
        -11    1    3    3    0    0  0.14662038734E+01  0.51467517506E+00  0.42671204161E+01  0.45412510656E+01  0.51100000000E-03 0. -1.
        -12    1    3    3    0    0 -0.33134233484E+01  0.31742961157E+01  0.13399495951E+02  0.14163383136E+02  0.00000000000E+00 0.  1.
</event>
<event>
 7    1  0.2387817E-009  0.4778726E+02  0.7816164E-02  0.1312668E+00
        -11   -1    0    0    0    0  0.00000000000E+00  0.00000000000E+00  0.45593999997E+02  0.45594000000E+02  0.51100000000E-03 0. -1.
         11   -1    0    0    0    0 -0.00000000000E+00 -0.00000000000E+00 -0.45593999997E+02  0.45594000000E+02  0.51100000000E-03 0.  1.
    9900012    2    1    2    0    0  0.61145455045E+01  0.41056688749E+02 -0.12672218404E+02  0.47787257183E+02  0.19999936802E+02 0.  0.
         12    1    1    2    0    0 -0.61145455045E+01 -0.41056688749E+02  0.12672218404E+02  0.43400742817E+02  0.00000000000E+00 0. -1.
         11    1    3    3    0    0 -0.11694639053E+01  0.99564958681E+01 -0.30038885474E+01  0.10465314255E+02  0.51100000000E-03 0. -1.
        -11    1    3    3    0    0  0.81005897319E+01  0.22740362557E+02  0.48448779951E+00  0.24144945059E+02  0.51100000000E-03 0.  1.
        -12    1    3    3    0    0 -0.81658032210E+00  0.83598303236E+01 -0.10152817656E+02  0.13176997869E+02  0.00000000000E+00 0.  1.
</event>
<event>
 7    1  0.2387817E-009  0.4778727E+02  0.7816164E-02  0.1312668E+00
        -11   -1    0    0    0    0  0.00000000000E+00  0.00000000000E+00  0.45593999997E+02  0.45594000000E+02  0.51100000000E-03 0.  1.
         11   -1    0    0    0    0 -0.00000000000E+00 -0.00000000000E+00 -0.45593999997E+02  0.45594000000E+02  0.51100000000E-03 0. -1.
    9900012    2    1    2    0    0 -0.20344372009E+02 -0.21882257308E+02  0.31478514167E+02  0.47787268307E+02  0.19999987519E+02 0.  0.
         12    1    1    2    0    0  0.20344372009E+02  0.21882257308E+02 -0.31478514167E+02  0.43400731693E+02  0.00000000000E+00 0. -1.
         11    1    3    3    0    0  0.21207670387E+01 -0.10728593457E+01  0.18990137679E+01  0.30421922293E+01  0.51100000000E-03 0. -1.
        -11    1    3    3    0    0 -0.72794078287E+01 -0.24349573513E+01  0.13437014883E+01  0.77925817025E+01  0.51100000000E-03 0.  1.
        -12    1    3    3    0    0 -0.15185731219E+02 -0.18374440611E+02  0.28235798911E+02  0.36952494375E+02  0.00000000000E+00 0.  1.
</event>
<event>
 7    1  0.2387817E-009  0.4778727E+02  0.7816164E-02  0.1312668E+00
        -11   -1    0    0    0    0  0.00000000000E+00  0.00000000000E+00  0.45593999997E+02  0.45594000000E+02  0.51100000000E-03 0.  1.
         11   -1    0    0    0    0 -0.00000000000E+00 -0.00000000000E+00 -0.45593999997E+02  0.45594000000E+02  0.51100000000E-03 0. -1.
    9900012    2    1    2    0    0  0.32991717197E+02 -0.24280165612E+02 -0.14340288802E+02  0.47787265805E+02  0.19999976110E+02 0.  0.
         12    1    1    2    0    0 -0.32991717197E+02  0.24280165612E+02  0.14340288802E+02  0.43400734195E+02  0.00000000000E+00 0. -1.
         11    1    3    3    0    0  0.97061936679E+01 -0.61059851180E+01 -0.73599934838E+01  0.13625812054E+02  0.51100000000E-03 0. -1.
        -11    1    3    3    0    0 -0.16322631631E+01  0.85125696581E+00  0.54576474824E+00  0.19200991841E+01  0.51100000000E-03 0.  1.
         12    1    3    3    0    0  0.24917786692E+02 -0.19025437460E+02 -0.75260600667E+01  0.32241354567E+02  0.00000000000E+00 0. -1.
</event>
<event>
 7    1  0.2387817E-009  0.4778727E+02  0.7816164E-02  0.1312668E+00
        -11   -1    0    0    0    0  0.00000000000E+00  0.00000000000E+00  0.45593999997E+02  0.45594000000E+02  0.51100000000E-03 0.  1.
         11   -1    0    0    0    0 -0.00000000000E+00 -0.00000000000E+00 -0.45593999997E+02  0.45594000000E+02  0.51100000000E-03 0. -1.
    9900012    2    1    2    0    0  0.41184761194E+02 -0.62834824608E+01  0.12163727320E+02  0.47787274559E+02  0.20000016026E+02 0.  0.
         12    1    1    2    0    0 -0.41184761194E+02  0.62834824608E+01 -0.12163727320E+02  0.43400725441E+02  0.00000000000E+00 0. -1.
         11    1    3    3    0    0  0.75137351452E+01 -0.55587030225E+01  0.61244247637E+01  0.11174254967E+02  0.51100000000E-03 0. -1.
        -11    1    3    3    0    0  0.29518011170E+01 -0.21736392364E+01  0.45234333224E+01  0.58223093913E+01  0.51100000000E-03 0.  1.
        -12    1    3    3    0    0  0.30719224932E+02  0.14488597982E+01  0.15158692344E+01  0.30790710201E+02  0.00000000000E+00 0.  1.
</event>
<event>
 7    1  0.2387817E-009  0.4778727E+02  0.7816164E-02  0.1312668E+00
        -11   -1    0    0    0    0  0.00000000000E+00  0.00000000000E+00  0.45593999997E+02  0.45594000000E+02  0.51100000000E-03 0.  1.
         11   -1    0    0    0    0 -0.00000000000E+00 -0.00000000000E+00 -0.45593999997E+02  0.45594000000E+02  0.51100000000E-03 0. -1.
    9900012    2    1    2    0    0 -0.15746347303E+02  0.38247253946E+01  0.40262228779E+02  0.47787273693E+02  0.20000012074E+02 0.  0.
         12    1    1    2    0    0  0.15746347303E+02 -0.38247253946E+01 -0.40262228779E+02  0.43400726307E+02  0.00000000000E+00 0. -1.
         11    1    3    3    0    0 -0.40091281603E+00  0.44358714874E+01  0.23554514431E+01  0.50384361364E+01  0.51100000000E-03 0. -1.
        -11    1    3    3    0    0 -0.10016843963E+02 -0.20318042767E+01  0.99884688095E+01  0.14291077672E+02  0.51100000000E-03 0.  1.
        -12    1    3    3    0    0 -0.53285905232E+01  0.14206581840E+01  0.27918308527E+02  0.28457759884E+02  0.00000000000E+00 0.  1.
</event>
<event>
 7    1  0.2387817E-009  0.4778727E+02  0.7816164E-02  0.1312668E+00
        -11   -1    0    0    0    0  0.00000000000E+00  0.00000000000E+00  0.45593999997E+02  0.45594000000E+02  0.51100000000E-03 0.  1.
         11   -1    0    0    0    0 -0.00000000000E+00 -0.00000000000E+00 -0.45593999997E+02  0.45594000000E+02  0.51100000000E-03 0. -1.
    9900012    2    1    2    0    0  0.22254565457E+02 -0.19151846814E+02  0.31961919406E+02  0.47787271755E+02  0.20000003240E+02 0.  0.
         12    1    1    2    0    0 -0.22254565457E+02  0.19151846814E+02 -0.31961919406E+02  0.43400728245E+02  0.00000000000E+00 0. -1.
         11    1    3    3    0    0  0.90677621250E+01 -0.60020548684E+01  0.17222905738E+02  0.20368540815E+02  0.51100000000E-03 0. -1.
        -11    1    3    3    0    0  0.66146233799E+01 -0.25253844414E+01  0.13003169454E+02  0.14805851044E+02  0.51100000000E-03 0.  1.
         12    1    3    3    0    0  0.65721799519E+01 -0.10624407504E+02  0.17358442140E+01  0.12612879896E+02  0.00000000000E+00 0. -1.
</event>
<event>
 7    1  0.2387817E-009  0.4778727E+02  0.7816164E-02  0.1312668E+00
        -11   -1    0    0    0    0  0.00000000000E+00  0.00000000000E+00  0.45593999997E+02  0.45594000000E+02  0.51100000000E-03 0. -1.
         11   -1    0    0    0    0 -0.00000000000E+00 -0.00000000000E+00 -0.45593999997E+02  0.45594000000E+02  0.51100000000E-03 0.  1.
    9900012    2    1    2    0    0 -0.42827353965E+02  0.23979813799E+01 -0.66098943771E+01  0.47787271135E+02  0.20000000415E+02 0.  0.
         12    1    1    2    0    0  0.42827353965E+02 -0.23979813799E+01  0.66098943771E+01  0.43400728865E+02  0.00000000000E+00 0. -1.
         11    1    3    3    0    0 -0.27848382602E+02  0.65464803726E+01  0.51799418018E+00  0.28612185115E+02  0.51100000000E-03 0. -1.
        -11    1    3    3    0    0 -0.11587114203E+02 -0.23348329763E+01 -0.89873752096E+00  0.11854129659E+02  0.51100000000E-03 0.  1.
        -12    1    3    3    0    0 -0.33918571592E+01 -0.18136660165E+01 -0.62291510363E+01  0.73209563611E+01  0.00000000000E+00 0.  1.
</event>
<event>
 7    1  0.2387817E-009  0.4778727E+02  0.7816164E-02  0.1312668E+00
        -11   -1    0    0    0    0  0.00000000000E+00  0.00000000000E+00  0.45593999997E+02  0.45594000000E+02  0.51100000000E-03 0.  1.
         11   -1    0    0    0    0 -0.00000000000E+00 -0.00000000000E+00 -0.45593999997E+02  0.45594000000E+02  0.51100000000E-03 0. -1.
    9900012    2    1    2    0    0  0.39916274353E+02 -0.15979256369E+02  0.59141937827E+01  0.47787270969E+02  0.19999999656E+02 0.  0.
         12    1    1    2    0    0 -0.39916274353E+02  0.15979256369E+02 -0.59141937827E+01  0.43400729031E+02  0.00000000000E+00 0. -1.
         11    1    3    3    0    0  0.12317009727E+02 -0.24408028736E+01 -0.62660614824E+01  0.14033166929E+02  0.51100000000E-03 0. -1.
        -11    1    3    3    0    0  0.19665171907E+02 -0.64122258929E+01  0.65618364020E+01  0.21700076595E+02  0.51100000000E-03 0.  1.
        -12    1    3    3    0    0  0.79340927190E+01 -0.71262276027E+01  0.56184188630E+01  0.12054027445E+02  0.00000000000E+00 0.  1.
</event>
<event>
 7    1  0.2387817E-009  0.4778727E+02  0.7816164E-02  0.1312668E+00
        -11   -1    0    0    0    0  0.00000000000E+00  0.00000000000E+00  0.45593999997E+02  0.45594000000E+02  0.51100000000E-03 0. -1.
         11   -1    0    0    0    0 -0.00000000000E+00 -0.00000000000E+00 -0.45593999997E+02  0.45594000000E+02  0.51100000000E-03 0.  1.
    9900012    2    1    2    0    0  0.31600628342E+02 -0.29320895786E+02  0.50307662755E+01  0.47787271312E+02  0.20000001220E+02 0.  0.
         12    1    1    2    0    0 -0.31600628342E+02  0.29320895786E+02 -0.50307662755E+01  0.43400728688E+02  0.00000000000E+00 0. -1.
         11    1    3    3    0    0  0.20703874763E+01 -0.44448333438E+01 -0.48683146586E+01  0.69096697195E+01  0.51100000000E-03 0. -1.
        -11    1    3    3    0    0  0.67863705053E+01 -0.16019670096E+01  0.31108729521E+01  0.76353555071E+01  0.51100000000E-03 0.  1.
        -12    1    3    3    0    0  0.22743870361E+02 -0.23274095433E+02  0.67882079821E+01  0.33242246085E+02  0.00000000000E+00 0.  1.
</event>
<event>
 7    1  0.2387817E-009  0.4778727E+02  0.7816164E-02  0.1312668E+00
        -11   -1    0    0    0    0  0.00000000000E+00  0.00000000000E+00  0.45593999997E+02  0.45594000000E+02  0.51100000000E-03 0.  1.
         11   -1    0    0    0    0 -0.00000000000E+00 -0.00000000000E+00 -0.45593999997E+02  0.45594000000E+02  0.51100000000E-03 0. -1.
    9900012    2    1    2    0    0  0.42026904681E+01  0.35091590199E+02  0.25190095579E+02  0.47787271606E+02  0.20000002561E+02 0.  0.
         12    1    1    2    0    0 -0.42026904681E+01 -0.35091590199E+02 -0.25190095579E+02  0.43400728394E+02  0.00000000000E+00 0. -1.
         11    1    3    3    0    0  0.53305591361E+01  0.53395655588E+01  0.10607470166E+02  0.13017075119E+02  0.51100000000E-03 0. -1.
        -11    1    3    3    0    0  0.11561065360E+01  0.36726398427E+01 -0.14010178091E+01  0.40972816475E+01  0.51100000000E-03 0.  1.
        -12    1    3    3    0    0 -0.22839752040E+01  0.26079384797E+02  0.15983643222E+02  0.30672914840E+02  0.00000000000E+00 0.  1.
</event>
<event>
 7    1  0.2387817E-009  0.4778727E+02  0.7816164E-02  0.1312668E+00
        -11   -1    0    0    0    0  0.00000000000E+00  0.00000000000E+00  0.45593999997E+02  0.45594000000E+02  0.51100000000E-03 0.  1.
         11   -1    0    0    0    0 -0.00000000000E+00 -0.00000000000E+00 -0.45593999997E+02  0.45594000000E+02  0.51100000000E-03 0. -1.
    9900012    2    1    2    0    0  0.70017967225E+01 -0.62499857124E+01  0.42373763173E+02  0.47787270926E+02  0.19999999458E+02 0.  0.
         12    1    1    2    0    0 -0.70017967225E+01  0.62499857124E+01 -0.42373763173E+02  0.43400729074E+02  0.00000000000E+00 0. -1.
         11    1    3    3    0    0 -0.74821946063E+00  0.57507234382E+00  0.19639076352E+00  0.96390360254E+00  0.51100000000E-03 0. -1.
        -11    1    3    3    0    0  0.76936048392E+01 -0.12391578860E+02  0.27556302754E+02  0.31178399635E+02  0.51100000000E-03 0.  1.
        -12    1    3    3    0    0  0.56411343925E-01  0.55665208035E+01  0.14621069655E+02  0.15644967688E+02  0.00000000000E+00 0.  1.
</event>
<event>
 7    1  0.2387817E-009  0.4778726E+02  0.7816164E-02  0.1312668E+00
        -11   -1    0    0    0    0  0.00000000000E+00  0.00000000000E+00  0.45593999997E+02  0.45594000000E+02  0.51100000000E-03 0.  1.
         11   -1    0    0    0    0 -0.00000000000E+00 -0.00000000000E+00 -0.45593999997E+02  0.45594000000E+02  0.51100000000E-03 0. -1.
    9900012    2    1    2    0    0 -0.28049724631E+02  0.22595251014E+02  0.24213454759E+02  0.47787264850E+02  0.19999971755E+02 0.  0.
         12    1    1    2    0    0  0.28049724631E+02 -0.22595251014E+02 -0.24213454759E+02  0.43400735150E+02  0.00000000000E+00 0. -1.
         11    1    3    3    0    0 -0.13191765332E+02  0.16128053606E+02  0.76750391357E+01  0.22204571864E+02  0.51100000000E-03 0. -1.
        -11    1    3    3    0    0 -0.11441347337E+02  0.92344729651E+01  0.10305259776E+02  0.17954896244E+02  0.51100000000E-03 0.  1.
         12    1    3    3    0    0 -0.34166119619E+01 -0.27672755571E+01  0.62331558472E+01  0.76277967411E+01  0.00000000000E+00 0. -1.
</event>
<event>
 7    1  0.2387817E-009  0.4778727E+02  0.7816164E-02  0.1312668E+00
        -11   -1    0    0    0    0  0.00000000000E+00  0.00000000000E+00  0.45593999997E+02  0.45594000000E+02  0.51100000000E-03 0.  1.
         11   -1    0    0    0    0 -0.00000000000E+00 -0.00000000000E+00 -0.45593999997E+02  0.45594000000E+02  0.51100000000E-03 0. -1.
    9900012    2    1    2    0    0  0.32309396630E+02 -0.27400277625E+02  0.94313829791E+01  0.47787270635E+02  0.19999998133E+02 0.  0.
         12    1    1    2    0    0 -0.32309396630E+02  0.27400277625E+02 -0.94313829791E+01  0.43400729365E+02  0.00000000000E+00 0. -1.
         11    1    3    3    0    0  0.78575961245E+01 -0.73453063285E+01  0.42133901912E+01  0.11551969489E+02  0.51100000000E-03 0. -1.
        -11    1    3    3    0    0  0.70193571851E+00  0.26853807901E+01  0.14706868424E+01  0.31411628086E+01  0.51100000000E-03 0.  1.
        -12    1    3    3    0    0  0.23749864787E+02 -0.22740352086E+02  0.37473059454E+01  0.33094138337E+02  0.00000000000E+00 0.  1.
</event>
<event>
 7    1  0.2387817E-009  0.4778727E+02  0.7816164E-02  0.1312668E+00
        -11   -1    0    0    0    0  0.00000000000E+00  0.00000000000E+00  0.45593999997E+02  0.45594000000E+02  0.51100000000E-03 0.  1.
         11   -1    0    0    0    0 -0.00000000000E+00 -0.00000000000E+00 -0.45593999997E+02  0.45594000000E+02  0.51100000000E-03 0. -1.
    9900012    2    1    2    0    0  0.42394419082E+02 -0.64308128508E+01  0.67068054609E+01  0.47787270021E+02  0.19999995332E+02 0.  0.
         12    1    1    2    0    0 -0.42394419082E+02  0.64308128508E+01 -0.67068054609E+01  0.43400729979E+02  0.00000000000E+00 0. -1.
         11    1    3    3    0    0  0.70004332052E+01 -0.23713571976E+01  0.68190622714E+01  0.10056292087E+02  0.51100000000E-03 0. -1.
        -11    1    3    3    0    0  0.10618753966E+02 -0.50000236138E+01  0.43923668642E+01  0.12532001391E+02  0.51100000000E-03 0.  1.
         12    1    3    3    0    0  0.24775231911E+02  0.94056796062E+00 -0.45046236747E+01  0.25198976542E+02  0.00000000000E+00 0. -1.
</event>
<event>
 7    1  0.2387817E-009  0.4778727E+02  0.7816164E-02  0.1312668E+00
        -11   -1    0    0    0    0  0.00000000000E+00  0.00000000000E+00  0.45593999997E+02  0.45594000000E+02  0.51100000000E-03 0.  1.
         11   -1    0    0    0    0 -0.00000000000E+00 -0.00000000000E+00 -0.45593999997E+02  0.45594000000E+02  0.51100000000E-03 0. -1.
    9900012    2    1    2    0    0 -0.33991166999E+02 -0.51587954044E+01  0.26487934027E+02  0.47787271285E+02  0.20000001096E+02 0.  0.
         12    1    1    2    0    0  0.33991166999E+02  0.51587954044E+01 -0.26487934027E+02  0.43400728715E+02  0.00000000000E+00 0. -1.
         11    1    3    3    0    0 -0.20737062405E+01  0.17419476275E+01  0.37082976537E-01  0.27085078027E+01  0.51100000000E-03 0. -1.
        -11    1    3    3    0    0 -0.90562744078E+01  0.45009258801E+01  0.33985106789E+01  0.10668847877E+02  0.51100000000E-03 0.  1.
        -12    1    3    3    0    0 -0.22861186351E+02 -0.11401668912E+02  0.23052340372E+02  0.34409915605E+02  0.00000000000E+00 0.  1.
</event>
<event>
 7    1  0.2387817E-009  0.4778727E+02  0.7816164E-02  0.1312668E+00
        -11   -1    0    0    0    0  0.00000000000E+00  0.00000000000E+00  0.45593999997E+02  0.45594000000E+02  0.51100000000E-03 0. -1.
         11   -1    0    0    0    0 -0.00000000000E+00 -0.00000000000E+00 -0.45593999997E+02  0.45594000000E+02  0.51100000000E-03 0.  1.
    9900012    2    1    2    0    0 -0.91664906282E+01 -0.37591041947E+01 -0.42254795801E+02  0.47787272092E+02  0.20000004776E+02 0.  0.
         12    1    1    2    0    0  0.91664906282E+01  0.37591041947E+01  0.42254795801E+02  0.43400727908E+02  0.00000000000E+00 0. -1.
         11    1    3    3    0    0 -0.65451784087E+00 -0.47470966770E+00 -0.42593981687E+01  0.43354602862E+01  0.51100000000E-03 0. -1.
        -11    1    3    3    0    0  0.91889609518E+00 -0.15471206048E+01 -0.32193428691E+02  0.32243678502E+02  0.51100000000E-03 0.  1.
         12    1    3    3    0    0 -0.94308688825E+01 -0.17372739222E+01 -0.58019689415E+01  0.11208133304E+02  0.00000000000E+00 0. -1.
</event>
<event>
 7    1  0.2387817E-009  0.4778727E+02  0.7816164E-02  0.1312668E+00
        -11   -1    0    0    0    0  0.00000000000E+00  0.00000000000E+00  0.45593999997E+02  0.45594000000E+02  0.51100000000E-03 0.  1.
         11   -1    0    0    0    0 -0.00000000000E+00 -0.00000000000E+00 -0.45593999997E+02  0.45594000000E+02  0.51100000000E-03 0. -1.
    9900012    2    1    2    0    0  0.17731511360E+02  0.37143455795E+02  0.13768815386E+02  0.47787273271E+02  0.20000010150E+02 0.  0.
         12    1    1    2    0    0 -0.17731511360E+02 -0.37143455795E+02 -0.13768815386E+02  0.43400726729E+02  0.00000000000E+00 0. -1.
         11    1    3    3    0    0  0.42902375956E+01  0.44689380143E+00  0.47749772533E+01  0.64347696716E+01  0.51100000000E-03 0. -1.
        -11    1    3    3    0    0  0.31313277129E+01  0.14057161857E+01 -0.25244521637E+00  0.34416536852E+01  0.51100000000E-03 0.  1.
        -12    1    3    3    0    0  0.10309946052E+02  0.35290845808E+02  0.92462833487E+01  0.37910849914E+02  0.00000000000E+00 0.  1.
</event>
<event>
 7    1  0.2387817E-009  0.4778727E+02  0.7816164E-02  0.1312668E+00
        -11   -1    0    0    0    0  0.00000000000E+00  0.00000000000E+00  0.45593999997E+02  0.45594000000E+02  0.51100000000E-03 0. -1.
         11   -1    0    0    0    0 -0.00000000000E+00 -0.00000000000E+00 -0.45593999997E+02  0.45594000000E+02  0.51100000000E-03 0.  1.
    9900012    2    1    2    0    0  0.19490336292E+02  0.21991355600E+02 -0.31939480594E+02  0.47787270161E+02  0.19999995974E+02 0.  0.
         12    1    1    2    0    0 -0.19490336292E+02 -0.21991355600E+02  0.31939480594E+02  0.43400729839E+02  0.00000000000E+00 0. -1.
         11    1    3    3    0    0  0.79841186108E+01  0.50329052069E+01 -0.49869623850E+01  0.10674552867E+02  0.51100000000E-03 0.  1.
        -11    1    3    3    0    0  0.20238951579E+01 -0.16015472205E+01  0.51619341611E+00  0.26320260283E+01  0.51100000000E-03 0. -1.
        -12    1    3    3    0    0  0.94823225233E+01  0.18559997614E+02 -0.27468711625E+02  0.34480691266E+02  0.00000000000E+00 0.  1.
</event>
<event>
 7    1  0.2387817E-009  0.4778727E+02  0.7816164E-02  0.1312668E+00
        -11   -1    0    0    0    0  0.00000000000E+00  0.00000000000E+00  0.45593999997E+02  0.45594000000E+02  0.51100000000E-03 0.  1.
         11   -1    0    0    0    0 -0.00000000000E+00 -0.00000000000E+00 -0.45593999997E+02  0.45594000000E+02  0.51100000000E-03 0. -1.
    9900012    2    1    2    0    0 -0.30069942824E+02  0.62922710054E+01  0.30656632996E+02  0.47787270946E+02  0.19999999550E+02 0.  0.
         12    1    1    2    0    0  0.30069942824E+02 -0.62922710054E+01 -0.30656632996E+02  0.43400729054E+02  0.00000000000E+00 0. -1.
         11    1    3    3    0    0  0.13715603228E+01  0.11685843221E+01  0.79496949970E+01  0.81513445420E+01  0.51100000000E-03 0. -1.
        -11    1    3    3    0    0 -0.92623894221E+01 -0.86368692578E-01  0.96528543271E+01  0.13378225379E+02  0.51100000000E-03 0.  1.
         12    1    3    3    0    0 -0.22179113724E+02  0.52100553759E+01  0.13054083671E+02  0.26257701025E+02  0.00000000000E+00 0. -1.
</event>
<event>
 7    1  0.2387817E-009  0.4778727E+02  0.7816164E-02  0.1312668E+00
        -11   -1    0    0    0    0  0.00000000000E+00  0.00000000000E+00  0.45593999997E+02  0.45594000000E+02  0.51100000000E-03 0. -1.
         11   -1    0    0    0    0 -0.00000000000E+00 -0.00000000000E+00 -0.45593999997E+02  0.45594000000E+02  0.51100000000E-03 0.  1.
    9900012    2    1    2    0    0 -0.35829652433E+02 -0.20168668664E+02 -0.13895466240E+02  0.47787272227E+02  0.20000005392E+02 0.  0.
         12    1    1    2    0    0  0.35829652433E+02  0.20168668664E+02  0.13895466240E+02  0.43400727773E+02  0.00000000000E+00 0. -1.
         11    1    3    3    0    0 -0.53221253329E-01 -0.16906393682E+00  0.24647989112E+00  0.30359136086E+00  0.51100000000E-03 0. -1.
        -11    1    3    3    0    0 -0.35892274750E+02 -0.14484861703E+02 -0.15675223233E+02  0.41758582698E+02  0.51100000000E-03 0.  1.
        -12    1    3    3    0    0  0.11584357015E+00 -0.55147430247E+01  0.15332771020E+01  0.57250981679E+01  0.00000000000E+00 0.  1.
</event>
<event>
 7    1  0.2387817E-009  0.4778727E+02  0.7816164E-02  0.1312668E+00
        -11   -1    0    0    0    0  0.00000000000E+00  0.00000000000E+00  0.45593999997E+02  0.45594000000E+02  0.51100000000E-03 0. -1.
         11   -1    0    0    0    0 -0.00000000000E+00 -0.00000000000E+00 -0.45593999997E+02  0.45594000000E+02  0.51100000000E-03 0.  1.
    9900012    2    1    2    0    0 -0.34620708705E+02  0.22582277171E+02  0.13231420405E+02  0.47787271903E+02  0.20000003913E+02 0.  0.
         12    1    1    2    0    0  0.34620708705E+02 -0.22582277171E+02 -0.13231420405E+02  0.43400728097E+02  0.00000000000E+00 0. -1.
         11    1    3    3    0    0 -0.22030421751E+02  0.14077136935E+02  0.15107051781E+02  0.30194838642E+02  0.51100000000E-03 0. -1.
        -11    1    3    3    0    0 -0.48070179934E+01  0.77394632335E+01  0.11981326627E+01  0.91892456312E+01  0.51100000000E-03 0.  1.
        -12    1    3    3    0    0 -0.77832689601E+01  0.76567700274E+00 -0.30737640388E+01  0.84031876299E+01  0.00000000000E+00 0.  1.
</event>
<event>
 7    1  0.2502967E-009  0.4778727E+02  0.7816164E-02  0.1312668E+00
        -11   -1    0    0    0    0  0.00000000000E+00  0.00000000000E+00  0.45593999997E+02  0.45594000000E+02  0.51100000000E-03 0. -1.
         11   -1    0    0    0    0 -0.00000000000E+00 -0.00000000000E+00 -0.45593999997E+02  0.45594000000E+02  0.51100000000E-03 0.  1.
    9900012    2    1    2    0    0 -0.19706311886E+02 -0.40543747857E+01 -0.38455771522E+02  0.47787273665E+02  0.20000011947E+02 0.  0.
         12    1    1    2    0    0  0.19706311886E+02  0.40543747857E+01  0.38455771522E+02  0.43400726335E+02  0.00000000000E+00 0. -1.
         11    1    3    3    0    0 -0.12246988062E+02  0.24450776986E+01 -0.16956286904E+02  0.21059031017E+02  0.51100000000E-03 0. -1.
        -11    1    3    3    0    0 -0.48912094667E+01 -0.23045488086E+01 -0.21113171724E+02  0.21794515268E+02  0.51100000000E-03 0.  1.
         12    1    3    3    0    0 -0.25681143576E+01 -0.41949036757E+01 -0.38631289344E+00  0.49337273793E+01  0.00000000000E+00 0. -1.
</event>
<event>
 7    1  0.2426915E-009  0.4778727E+02  0.7816164E-02  0.1312668E+00
        -11   -1    0    0    0    0  0.00000000000E+00  0.00000000000E+00  0.45593999997E+02  0.45594000000E+02  0.51100000000E-03 0.  1.
         11   -1    0    0    0    0 -0.00000000000E+00 -0.00000000000E+00 -0.45593999997E+02  0.45594000000E+02  0.51100000000E-03 0. -1.
    9900012    2    1    2    0    0 -0.73019818531E+01 -0.24218022044E+02  0.35267438055E+02  0.47787265932E+02  0.19999976690E+02 0.  0.
         12    1    1    2    0    0  0.73019818531E+01  0.24218022044E+02 -0.35267438055E+02  0.43400734068E+02  0.00000000000E+00 0. -1.
         11    1    3    3    0    0 -0.76997465813E+01 -0.81015880561E+01  0.15617269245E+02  0.19204711021E+02  0.51100000000E-03 0. -1.
        -11    1    3    3    0    0 -0.18194289370E+01 -0.13993052251E+02  0.20941564970E+02  0.25252029158E+02  0.51100000000E-03 0.  1.
         12    1    3    3    0    0  0.22171936652E+01 -0.21233817372E+01 -0.12913961602E+01  0.33305257533E+01  0.00000000000E+00 0. -1.
</event>
<event>
 7    1  0.2387817E-009  0.4778727E+02  0.7816164E-02  0.1312668E+00
        -11   -1    0    0    0    0  0.00000000000E+00  0.00000000000E+00  0.45593999997E+02  0.45594000000E+02  0.51100000000E-03 0.  1.
         11   -1    0    0    0    0 -0.00000000000E+00 -0.00000000000E+00 -0.45593999997E+02  0.45594000000E+02  0.51100000000E-03 0. -1.
    9900012    2    1    2    0    0  0.15795790534E+02 -0.21104909724E+01  0.40369073731E+02  0.47787270920E+02  0.19999999434E+02 0.  0.
         12    1    1    2    0    0 -0.15795790534E+02  0.21104909724E+01 -0.40369073731E+02  0.43400729080E+02  0.00000000000E+00 0. -1.
         11    1    3    3    0    0  0.50078894286E+00 -0.77145148600E+00  0.14292326477E+01  0.16995979475E+01  0.51100000000E-03 0. -1.
        -11    1    3    3    0    0  0.69323934342E+01 -0.79902217790E+01  0.31057970284E+02  0.32810047870E+02  0.51100000000E-03 0.  1.
         12    1    3    3    0    0  0.83626081565E+01  0.66511822927E+01  0.78818707997E+01  0.13277625103E+02  0.00000000000E+00 0. -1.
</event>
<event>
 7    1  0.2387817E-009  0.4778727E+02  0.7816164E-02  0.1312668E+00
        -11   -1    0    0    0    0  0.00000000000E+00  0.00000000000E+00  0.45593999997E+02  0.45594000000E+02  0.51100000000E-03 0.  1.
         11   -1    0    0    0    0 -0.00000000000E+00 -0.00000000000E+00 -0.45593999997E+02  0.45594000000E+02  0.51100000000E-03 0. -1.
    9900012    2    1    2    0    0  0.34300514284E+02 -0.26181587154E+02  0.46499892239E+01  0.47787272059E+02  0.20000004626E+02 0.  0.
         12    1    1    2    0    0 -0.34300514284E+02  0.26181587154E+02 -0.46499892239E+01  0.43400727941E+02  0.00000000000E+00 0. -1.
         11    1    3    3    0    0  0.15009205267E+02 -0.12133830805E+02  0.56958749456E+01  0.20123346750E+02  0.51100000000E-03 0. -1.
        -11    1    3    3    0    0  0.77895657561E+01 -0.47506838028E+01  0.63619827094E+01  0.11123001192E+02  0.51100000000E-03 0.  1.
         12    1    3    3    0    0  0.11501743260E+02 -0.92970725456E+01 -0.74078684311E+01  0.16540924117E+02  0.00000000000E+00 0. -1.
</event>
<event>
 7    1  0.2387817E-009  0.4778728E+02  0.7816164E-02  0.1312668E+00
        -11   -1    0    0    0    0  0.00000000000E+00  0.00000000000E+00  0.45593999997E+02  0.45594000000E+02  0.51100000000E-03 0.  1.
         11   -1    0    0    0    0 -0.00000000000E+00 -0.00000000000E+00 -0.45593999997E+02  0.45594000000E+02  0.51100000000E-03 0. -1.
    9900012    2    1    2    0    0  0.38629269594E+02 -0.14694898118E+02  0.13246218277E+02  0.47787276518E+02  0.20000024958E+02 0.  0.
         12    1    1    2    0    0 -0.38629269594E+02  0.14694898118E+02 -0.13246218277E+02  0.43400723482E+02  0.00000000000E+00 0. -1.
         11    1    3    3    0    0 -0.67227124108E+00 -0.14669424543E+00 -0.78929007405E+00  0.10471136067E+01  0.51100000000E-03 0. -1.
        -11    1    3    3    0    0  0.18882960561E+02 -0.22280900081E+01 -0.10740547764E+00  0.19014260985E+02  0.51100000000E-03 0.  1.
        -12    1    3    3    0    0  0.20418580275E+02 -0.12320113865E+02  0.14142913829E+02  0.27725901927E+02  0.00000000000E+00 0.  1.
</event>
<event>
 7    1  0.2387817E-009  0.4778726E+02  0.7816164E-02  0.1312668E+00
        -11   -1    0    0    0    0  0.00000000000E+00  0.00000000000E+00  0.45593999997E+02  0.45594000000E+02  0.51100000000E-03 0.  1.
         11   -1    0    0    0    0 -0.00000000000E+00 -0.00000000000E+00 -0.45593999997E+02  0.45594000000E+02  0.51100000000E-03 0. -1.
    9900012    2    1    2    0    0  0.13808054811E+01 -0.12824276042E+02  0.41439780505E+02  0.47787261665E+02  0.19999957234E+02 0.  0.
         12    1    1    2    0    0 -0.13808054811E+01  0.12824276042E+02 -0.41439780505E+02  0.43400738335E+02  0.00000000000E+00 0. -1.
         11    1    3    3    0    0 -0.38386026238E+00  0.98734896629E+00  0.15102876227E+02  0.15139982737E+02  0.51100000000E-03 0. -1.
        -11    1    3    3    0    0  0.45800125420E+01 -0.10845108163E+02  0.26003087137E+02  0.28543885981E+02  0.51100000000E-03 0.  1.
        -12    1    3    3    0    0 -0.28153467985E+01 -0.29665168453E+01  0.33381713980E+00  0.41033929464E+01  0.00000000000E+00 0.  1.
</event>
<event>
 7    1  0.2387817E-009  0.4778728E+02  0.7816164E-02  0.1312668E+00
        -11   -1    0    0    0    0  0.00000000000E+00  0.00000000000E+00  0.45593999997E+02  0.45594000000E+02  0.51100000000E-03 0. -1.
         11   -1    0    0    0    0 -0.00000000000E+00 -0.00000000000E+00 -0.45593999997E+02  0.45594000000E+02  0.51100000000E-03 0.  1.
    9900012    2    1    2    0    0 -0.38482894755E+02  0.18839982194E+02 -0.69097531445E+01  0.47787276431E+02  0.20000024560E+02 0.  0.
         12    1    1    2    0    0  0.38482894755E+02 -0.18839982194E+02  0.69097531445E+01  0.43400723569E+02  0.00000000000E+00 0. -1.
         11    1    3    3    0    0 -0.41810743003E+00  0.15697026001E+01  0.29843649027E+01  0.33978249233E+01  0.51100000000E-03 0. -1.
        -11    1    3    3    0    0 -0.10801365133E+02  0.10676923247E+02 -0.43382895552E+01  0.15795155437E+02  0.51100000000E-03 0.  1.
        -12    1    3    3    0    0 -0.27263422192E+02  0.65933563469E+01 -0.55558284920E+01  0.28594296071E+02  0.00000000000E+00 0.  1.
</event>
<event>
 7    1  0.2387817E-009  0.4778727E+02  0.7816164E-02  0.1312668E+00
        -11   -1    0    0    0    0  0.00000000000E+00  0.00000000000E+00  0.45593999997E+02  0.45594000000E+02  0.51100000000E-03 0. -1.
         11   -1    0    0    0    0 -0.00000000000E+00 -0.00000000000E+00 -0.45593999997E+02  0.45594000000E+02  0.51100000000E-03 0.  1.
    9900012    2    1    2    0    0 -0.68109494285E+01  0.22822661992E+02 -0.36281677090E+02  0.47787273912E+02  0.20000013075E+02 0.  0.
         12    1    1    2    0    0  0.68109494285E+01 -0.22822661992E+02  0.36281677090E+02  0.43400726088E+02  0.00000000000E+00 0. -1.
         11    1    3    3    0    0 -0.60185927784E+01  0.10320695850E+02 -0.12711084043E+02  0.17444537245E+02  0.51100000000E-03 0. -1.
        -11    1    3    3    0    0  0.35362091163E-01  0.15532547940E+02 -0.21700846928E+02  0.26686851700E+02  0.51100000000E-03 0.  1.
        -12    1    3    3    0    0 -0.82771874123E+00 -0.30305817983E+01 -0.18697461186E+01  0.36558849680E+01  0.00000000000E+00 0.  1.
</event>
<event>
 7    1  0.2387817E-009  0.4778728E+02  0.7816164E-02  0.1312668E+00
        -11   -1    0    0    0    0  0.00000000000E+00  0.00000000000E+00  0.45593999997E+02  0.45594000000E+02  0.51100000000E-03 0.  1.
         11   -1    0    0    0    0 -0.00000000000E+00 -0.00000000000E+00 -0.45593999997E+02  0.45594000000E+02  0.51100000000E-03 0. -1.
    9900012    2    1    2    0    0  0.37159267607E+02  0.10294820743E+02  0.19920547739E+02  0.47787277363E+02  0.20000028808E+02 0.  0.
         12    1    1    2    0    0 -0.37159267607E+02 -0.10294820743E+02 -0.19920547739E+02  0.43400722637E+02  0.00000000000E+00 0. -1.
         11    1    3    3    0    0  0.19523691737E+02  0.51828616541E+01  0.15345264733E+02  0.25367572685E+02  0.51100000000E-03 0. -1.
        -11    1    3    3    0    0  0.71944872736E+01  0.88168003597E+00  0.78532570412E+01  0.10686985227E+02  0.51100000000E-03 0.  1.
        -12    1    3    3    0    0  0.10441088596E+02  0.42302790531E+01 -0.32779740348E+01  0.11732719451E+02  0.00000000000E+00 0.  1.
</event>
<event>
 7    1  0.2387817E-009  0.4778727E+02  0.7816164E-02  0.1312668E+00
        -11   -1    0    0    0    0  0.00000000000E+00  0.00000000000E+00  0.45593999997E+02  0.45594000000E+02  0.51100000000E-03 0.  1.
         11   -1    0    0    0    0 -0.00000000000E+00 -0.00000000000E+00 -0.45593999997E+02  0.45594000000E+02  0.51100000000E-03 0. -1.
    9900012    2    1    2    0    0  0.10338021498E+00 -0.28011424969E+02  0.33150757850E+02  0.47787270026E+02  0.19999995357E+02 0.  0.
         12    1    1    2    0    0 -0.10338021498E+00  0.28011424969E+02 -0.33150757850E+02  0.43400729974E+02  0.00000000000E+00 0. -1.
         11    1    3    3    0    0 -0.27443556776E+01 -0.12446776579E+01  0.49433513041E+01  0.57894242316E+01  0.51100000000E-03 0. -1.
        -11    1    3    3    0    0  0.88207758946E+01 -0.10246272484E+02  0.13155849397E+02  0.18864478811E+02  0.51100000000E-03 0.  1.
        -12    1    3    3    0    0 -0.59730400020E+01 -0.16520474828E+02  0.15051557149E+02  0.23133366984E+02  0.00000000000E+00 0.  1.
</event>
<event>
 7    1  0.2387817E-009  0.4778727E+02  0.7816164E-02  0.1312668E+00
        -11   -1    0    0    0    0  0.00000000000E+00  0.00000000000E+00  0.45593999997E+02  0.45594000000E+02  0.51100000000E-03 0.  1.
         11   -1    0    0    0    0 -0.00000000000E+00 -0.00000000000E+00 -0.45593999997E+02  0.45594000000E+02  0.51100000000E-03 0. -1.
    9900012    2    1    2    0    0  0.14927517248E+02  0.23843475018E+02  0.33049673508E+02  0.47787274302E+02  0.20000014854E+02 0.  0.
         12    1    1    2    0    0 -0.14927517248E+02 -0.23843475018E+02 -0.33049673508E+02  0.43400725698E+02  0.00000000000E+00 0. -1.
         11    1    3    3    0    0  0.41048979342E+01  0.13470029803E+02  0.13117328541E+02  0.19244640767E+02  0.51100000000E-03 0. -1.
        -11    1    3    3    0    0  0.13765451723E+02  0.10728185224E+02  0.16662504655E+02  0.24129249491E+02  0.51100000000E-03 0.  1.
         12    1    3    3    0    0 -0.29428324091E+01 -0.35474000922E+00  0.32698403117E+01  0.44133840447E+01  0.00000000000E+00 0. -1.
</event>
<event>
 7    1  0.2387817E-009  0.4778727E+02  0.7816164E-02  0.1312668E+00
        -11   -1    0    0    0    0  0.00000000000E+00  0.00000000000E+00  0.45593999997E+02  0.45594000000E+02  0.51100000000E-03 0.  1.
         11   -1    0    0    0    0 -0.00000000000E+00 -0.00000000000E+00 -0.45593999997E+02  0.45594000000E+02  0.51100000000E-03 0. -1.
    9900012    2    1    2    0    0  0.14428498857E+02  0.30338706572E+00  0.40931034084E+02  0.47787272193E+02  0.20000005236E+02 0.  0.
         12    1    1    2    0    0 -0.14428498857E+02 -0.30338706572E+00 -0.40931034084E+02  0.43400727807E+02  0.00000000000E+00 0. -1.
         11    1    3    3    0    0  0.15688433210E+01 -0.50233215417E+01  0.32505770270E+01  0.61855703008E+01  0.51100000000E-03 0. -1.
        -11    1    3    3    0    0  0.12159804246E+01 -0.26336854324E+01  0.30508484043E+01  0.42098199008E+01  0.51100000000E-03 0.  1.
        -12    1    3    3    0    0  0.11643675112E+02  0.79603940399E+01  0.34629608653E+02  0.37391881991E+02  0.00000000000E+00 0.  1.
</event>
<event>
 7    1  0.2387817E-009  0.4778727E+02  0.7816164E-02  0.1312668E+00
        -11   -1    0    0    0    0  0.00000000000E+00  0.00000000000E+00  0.45593999997E+02  0.45594000000E+02  0.51100000000E-03 0. -1.
         11   -1    0    0    0    0 -0.00000000000E+00 -0.00000000000E+00 -0.45593999997E+02  0.45594000000E+02  0.51100000000E-03 0.  1.
    9900012    2    1    2    0    0 -0.28991792467E+02 -0.28689833018E+02 -0.14832143159E+02  0.47787273972E+02  0.20000013348E+02 0.  0.
         12    1    1    2    0    0  0.28991792467E+02  0.28689833018E+02  0.14832143159E+02  0.43400726028E+02  0.00000000000E+00 0. -1.
         11    1    3    3    0    0 -0.99492144794E+01 -0.12693222527E+02 -0.10243880785E+02  0.19106068687E+02  0.51100000000E-03 0.  1.
        -11    1    3    3    0    0 -0.36410326270E+01 -0.10470148504E+02 -0.53328237061E+01  0.12301225030E+02  0.51100000000E-03 0. -1.
         12    1    3    3    0    0 -0.15401545360E+02 -0.55264619869E+01  0.74456133193E+00  0.16379980255E+02  0.00000000000E+00 0. -1.
</event>
<event>
 7    1  0.2387817E-009  0.4778727E+02  0.7816164E-02  0.1312668E+00
        -11   -1    0    0    0    0  0.00000000000E+00  0.00000000000E+00  0.45593999997E+02  0.45594000000E+02  0.51100000000E-03 0. -1.
         11   -1    0    0    0    0 -0.00000000000E+00 -0.00000000000E+00 -0.45593999997E+02  0.45594000000E+02  0.51100000000E-03 0.  1.
    9900012    2    1    2    0    0  0.10550436396E+01 -0.30350658804E+02 -0.31005604288E+02  0.47787273000E+02  0.20000008915E+02 0.  0.
         12    1    1    2    0    0 -0.10550436396E+01  0.30350658804E+02  0.31005604288E+02  0.43400727000E+02  0.00000000000E+00 0. -1.
         11    1    3    3    0    0  0.13998702443E+01 -0.23014866871E+02 -0.16416205252E+02  0.28304337635E+02  0.51100000000E-03 0. -1.
        -11    1    3    3    0    0  0.11842380397E+01 -0.85606022673E+01 -0.56355397165E+01  0.10317249588E+02  0.51100000000E-03 0.  1.
        -12    1    3    3    0    0 -0.15290646445E+01  0.12248103349E+01 -0.89538593192E+01  0.91656857763E+01  0.00000000000E+00 0.  1.
</event>
<event>
 7    1  0.2387817E-009  0.4778724E+02  0.7816164E-02  0.1312668E+00
        -11   -1    0    0    0    0  0.00000000000E+00  0.00000000000E+00  0.45593999997E+02  0.45594000000E+02  0.51100000000E-03 0.  1.
         11   -1    0    0    0    0 -0.00000000000E+00 -0.00000000000E+00 -0.45593999997E+02  0.45594000000E+02  0.51100000000E-03 0. -1.
    9900012    2    1    2    0    0 -0.40087230757E+02  0.14794635672E+02  0.75999177496E+01  0.47787238899E+02  0.19999853433E+02 0.  0.
         12    1    1    2    0    0  0.40087230757E+02 -0.14794635672E+02 -0.75999177496E+01  0.43400761101E+02  0.00000000000E+00 0. -1.
         11    1    3    3    0    0 -0.12704953439E+01 -0.14230756604E+00 -0.15833709097E+01  0.20350610706E+01  0.51100000000E-03 0. -1.
        -11    1    3    3    0    0 -0.39941016690E+02  0.15541727561E+02  0.72977830362E+01  0.43475139417E+02  0.51100000000E-03 0.  1.
        -12    1    3    3    0    0  0.11242812775E+01 -0.60478432380E+00  0.18855056231E+01  0.22770384107E+01  0.00000000000E+00 0.  1.
</event>
<event>
 7    1  0.2387817E-009  0.4778727E+02  0.7816164E-02  0.1312668E+00
        -11   -1    0    0    0    0  0.00000000000E+00  0.00000000000E+00  0.45593999997E+02  0.45594000000E+02  0.51100000000E-03 0.  1.
         11   -1    0    0    0    0 -0.00000000000E+00 -0.00000000000E+00 -0.45593999997E+02  0.45594000000E+02  0.51100000000E-03 0. -1.
    9900012    2    1    2    0    0 -0.18117057288E+02  0.29666243630E+02  0.25986721323E+02  0.47787268889E+02  0.19999990171E+02 0.  0.
         12    1    1    2    0    0  0.18117057288E+02 -0.29666243630E+02 -0.25986721323E+02  0.43400731111E+02  0.00000000000E+00 0. -1.
         11    1    3    3    0    0 -0.11866386867E+02  0.50861364349E+01  0.12078235384E+02  0.17679470901E+02  0.51100000000E-03 0.  1.
        -11    1    3    3    0    0 -0.57725622963E+01  0.97471762071E+01  0.30889089702E+01  0.11741860090E+02  0.51100000000E-03 0. -1.
         12    1    3    3    0    0 -0.47810812492E+00  0.14832930988E+02  0.10819576969E+02  0.18365937898E+02  0.00000000000E+00 0. -1.
</event>
<event>
 7    1  0.2387817E-009  0.4778727E+02  0.7816164E-02  0.1312668E+00
        -11   -1    0    0    0    0  0.00000000000E+00  0.00000000000E+00  0.45593999997E+02  0.45594000000E+02  0.51100000000E-03 0.  1.
         11   -1    0    0    0    0 -0.00000000000E+00 -0.00000000000E+00 -0.45593999997E+02  0.45594000000E+02  0.51100000000E-03 0. -1.
    9900012    2    1    2    0    0  0.41486222136E+02  0.11537689228E+02  0.54220126634E+01  0.47787272803E+02  0.20000008019E+02 0.  0.
         12    1    1    2    0    0 -0.41486222136E+02 -0.11537689228E+02 -0.54220126634E+01  0.43400727197E+02  0.00000000000E+00 0. -1.
         11    1    3    3    0    0  0.24710711718E+02  0.10083831354E+02  0.53913365335E+00  0.26694448744E+02  0.51100000000E-03 0. -1.
        -11    1    3    3    0    0  0.16717337578E+02  0.25991217675E+01  0.72934951458E+01  0.18423351524E+02  0.51100000000E-03 0.  1.
        -12    1    3    3    0    0  0.58172839877E-01 -0.11452638925E+01 -0.24106161358E+01  0.26694725354E+01  0.00000000000E+00 0.  1.
</event>
<event>
 7    1  0.2387817E-009  0.4778727E+02  0.7816164E-02  0.1312668E+00
        -11   -1    0    0    0    0  0.00000000000E+00  0.00000000000E+00  0.45593999997E+02  0.45594000000E+02  0.51100000000E-03 0.  1.
         11   -1    0    0    0    0 -0.00000000000E+00 -0.00000000000E+00 -0.45593999997E+02  0.45594000000E+02  0.51100000000E-03 0. -1.
    9900012    2    1    2    0    0 -0.97359897291E+01 -0.71868509658E+01  0.41679527798E+02  0.47787270049E+02  0.19999995463E+02 0.  0.
         12    1    1    2    0    0  0.97359897291E+01  0.71868509658E+01 -0.41679527798E+02  0.43400729951E+02  0.00000000000E+00 0. -1.
         11    1    3    3    0    0 -0.25916534294E+00 -0.49867689921E+01  0.51396452659E+01  0.71659601852E+01  0.51100000000E-03 0. -1.
        -11    1    3    3    0    0 -0.11935112811E+02 -0.34294895477E+01  0.17935046934E+02  0.21814541599E+02  0.51100000000E-03 0.  1.
        -12    1    3    3    0    0  0.24582884250E+01  0.12294075739E+01  0.18604835598E+02  0.18806768265E+02  0.00000000000E+00 0.  1.
</event>
<event>
 7    1  0.2387817E-009  0.4778727E+02  0.7816164E-02  0.1312668E+00
        -11   -1    0    0    0    0  0.00000000000E+00  0.00000000000E+00  0.45593999997E+02  0.45594000000E+02  0.51100000000E-03 0.  1.
         11   -1    0    0    0    0 -0.00000000000E+00 -0.00000000000E+00 -0.45593999997E+02  0.45594000000E+02  0.51100000000E-03 0. -1.
    9900012    2    1    2    0    0 -0.30090666122E+02 -0.19862122217E+02  0.24159286648E+02  0.47787271689E+02  0.20000002938E+02 0.  0.
         12    1    1    2    0    0  0.30090666122E+02  0.19862122217E+02 -0.24159286648E+02  0.43400728311E+02  0.00000000000E+00 0. -1.
         11    1    3    3    0    0  0.13694572591E+00  0.14266914090E+00  0.73233692254E+01  0.73260388811E+01  0.51100000000E-03 0. -1.
        -11    1    3    3    0    0 -0.12580215855E+02 -0.11418800785E+02  0.97959227591E+01  0.19611500332E+02  0.51100000000E-03 0.  1.
         12    1    3    3    0    0 -0.17647395993E+02 -0.85859905736E+01  0.70399946630E+01  0.20849732476E+02  0.00000000000E+00 0. -1.
</event>
<event>
 7    1  0.2387817E-009  0.4778734E+02  0.7816164E-02  0.1312667E+00
        -11   -1    0    0    0    0  0.00000000000E+00  0.00000000000E+00  0.45593999997E+02  0.45594000000E+02  0.51100000000E-03 0.  1.
         11   -1    0    0    0    0 -0.00000000000E+00 -0.00000000000E+00 -0.45593999997E+02  0.45594000000E+02  0.51100000000E-03 0. -1.
    9900012    2    1    2    0    0 -0.41320244170E+02 -0.57911514711E+01  0.11946449774E+02  0.47787335537E+02  0.20000294044E+02 0.  0.
         12    1    1    2    0    0  0.41320244170E+02  0.57911514711E+01 -0.11946449774E+02  0.43400664463E+02  0.00000000000E+00 0. -1.
         11    1    3    3    0    0 -0.57155488077E+01  0.15847272878E+01 -0.15068693646E+01  0.61196008280E+01  0.51100000000E-03 0. -1.
        -11    1    3    3    0    0 -0.20909745968E+02  0.20926270580E+01  0.11819992495E+02  0.24110346063E+02  0.51100000000E-03 0.  1.
         12    1    3    3    0    0 -0.14694949395E+02 -0.94685058169E+01  0.16333266435E+01  0.17557388645E+02  0.00000000000E+00 0. -1.
</event>
<event>
 7    1  0.2402908E-009  0.4778727E+02  0.7816164E-02  0.1312668E+00
        -11   -1    0    0    0    0  0.00000000000E+00  0.00000000000E+00  0.45593999997E+02  0.45594000000E+02  0.51100000000E-03 0. -1.
         11   -1    0    0    0    0 -0.00000000000E+00 -0.00000000000E+00 -0.45593999997E+02  0.45594000000E+02  0.51100000000E-03 0.  1.
    9900012    2    1    2    0    0 -0.22124920301E+02 -0.36255329888E+02 -0.89253628040E+01  0.47787272531E+02  0.20000006780E+02 0.  0.
         12    1    1    2    0    0  0.22124920301E+02  0.36255329888E+02  0.89253628040E+01  0.43400727469E+02  0.00000000000E+00 0. -1.
         11    1    3    3    0    0 -0.64779743567E+01 -0.39740344787E+01  0.11368500531E+01  0.76843692069E+01  0.51100000000E-03 0. -1.
        -11    1    3    3    0    0 -0.14408705661E+02 -0.14116192968E+02 -0.22708822634E+01  0.20298635650E+02  0.51100000000E-03 0.  1.
         12    1    3    3    0    0 -0.12382402832E+01 -0.18165102441E+02 -0.77913305937E+01  0.19804267675E+02  0.00000000000E+00 0. -1.
</event>
<event>
 7    1  0.2387817E-009  0.4778727E+02  0.7816164E-02  0.1312668E+00
        -11   -1    0    0    0    0  0.00000000000E+00  0.00000000000E+00  0.45593999997E+02  0.45594000000E+02  0.51100000000E-03 0. -1.
         11   -1    0    0    0    0 -0.00000000000E+00 -0.00000000000E+00 -0.45593999997E+02  0.45594000000E+02  0.51100000000E-03 0.  1.
    9900012    2    1    2    0    0  0.93780009525E+01  0.96248543897E+01 -0.41267886361E+02  0.47787272257E+02  0.20000005530E+02 0.  0.
         12    1    1    2    0    0 -0.93780009525E+01 -0.96248543897E+01  0.41267886361E+02  0.43400727743E+02  0.00000000000E+00 0. -1.
         11    1    3    3    0    0  0.92058707246E+01  0.98963740686E+01 -0.23251440171E+02  0.26894530035E+02  0.51100000000E-03 0. -1.
        -11    1    3    3    0    0  0.50231786131E+01 -0.87195435983E+00 -0.12623752010E+02  0.13614394693E+02  0.51100000000E-03 0.  1.
         12    1    3    3    0    0 -0.48510483852E+01  0.60043468094E+00 -0.53926941800E+01  0.72783475295E+01  0.00000000000E+00 0. -1.
</event>
<event>
 7    1  0.2387817E-009  0.4778726E+02  0.7816164E-02  0.1312668E+00
        -11   -1    0    0    0    0  0.00000000000E+00  0.00000000000E+00  0.45593999997E+02  0.45594000000E+02  0.51100000000E-03 0.  1.
         11   -1    0    0    0    0 -0.00000000000E+00 -0.00000000000E+00 -0.45593999997E+02  0.45594000000E+02  0.51100000000E-03 0. -1.
    9900012    2    1    2    0    0  0.87726329482E+01 -0.36151395457E+02  0.22354895560E+02  0.47787264548E+02  0.19999970379E+02 0.  0.
         12    1    1    2    0    0 -0.87726329482E+01  0.36151395457E+02 -0.22354895560E+02  0.43400735452E+02  0.00000000000E+00 0. -1.
         11    1    3    3    0    0  0.72885854561E+01 -0.57117716137E+01  0.23382975380E+01  0.95506779108E+01  0.51100000000E-03 0. -1.
        -11    1    3    3    0    0  0.13431367997E+01 -0.16945088792E+02  0.17706426816E+02  0.24545011743E+02  0.51100000000E-03 0.  1.
         12    1    3    3    0    0  0.14091069246E+00 -0.13494535051E+02  0.23101712057E+01  0.13691574894E+02  0.00000000000E+00 0. -1.
</event>
<event>
 7    1  0.2387817E-009  0.4778726E+02  0.7816164E-02  0.1312668E+00
        -11   -1    0    0    0    0  0.00000000000E+00  0.00000000000E+00  0.45593999997E+02  0.45594000000E+02  0.51100000000E-03 0. -1.
         11   -1    0    0    0    0 -0.00000000000E+00 -0.00000000000E+00 -0.45593999997E+02  0.45594000000E+02  0.51100000000E-03 0.  1.
    9900012    2    1    2    0    0  0.22743852636E+02 -0.30947811160E+02 -0.20213213614E+02  0.47787264374E+02  0.19999969586E+02 0.  0.
         12    1    1    2    0    0 -0.22743852636E+02  0.30947811160E+02  0.20213213614E+02  0.43400735626E+02  0.00000000000E+00 0. -1.
         11    1    3    3    0    0  0.14940933213E+02 -0.13434985373E+02 -0.39945611532E+01  0.20486259695E+02  0.51100000000E-03 0. -1.
        -11    1    3    3    0    0  0.50841749303E+01 -0.68203675379E+01 -0.10894082186E+01  0.85763079820E+01  0.51100000000E-03 0.  1.
        -12    1    3    3    0    0  0.27187444923E+01 -0.10692458249E+02 -0.15129244243E+02  0.18724696696E+02  0.00000000000E+00 0.  1.
</event>
<event>
 7    1  0.2387817E-009  0.4778727E+02  0.7816164E-02  0.1312668E+00
        -11   -1    0    0    0    0  0.00000000000E+00  0.00000000000E+00  0.45593999997E+02  0.45594000000E+02  0.51100000000E-03 0.  1.
         11   -1    0    0    0    0 -0.00000000000E+00 -0.00000000000E+00 -0.45593999997E+02  0.45594000000E+02  0.51100000000E-03 0. -1.
    9900012    2    1    2    0    0  0.11241524586E+02  0.45167230910E+01  0.41675541098E+02  0.47787269727E+02  0.19999993991E+02 0.  0.
         12    1    1    2    0    0 -0.11241524586E+02 -0.45167230910E+01 -0.41675541098E+02  0.43400730273E+02  0.00000000000E+00 0. -1.
         11    1    3    3    0    0 -0.12660240197E+01  0.83726993703E+01  0.16571987114E+02  0.18610095882E+02  0.51100000000E-03 0. -1.
        -11    1    3    3    0    0  0.19367620793E+01 -0.11360909495E+01  0.11592764293E+02  0.11808214692E+02  0.51100000000E-03 0.  1.
         12    1    3    3    0    0  0.10570786526E+02 -0.27198853298E+01  0.13510789691E+02  0.17368959153E+02  0.00000000000E+00 0. -1.
</event>
<event>
 7    1  0.2387817E-009  0.4778726E+02  0.7816164E-02  0.1312668E+00
        -11   -1    0    0    0    0  0.00000000000E+00  0.00000000000E+00  0.45593999997E+02  0.45594000000E+02  0.51100000000E-03 0. -1.
         11   -1    0    0    0    0 -0.00000000000E+00 -0.00000000000E+00 -0.45593999997E+02  0.45594000000E+02  0.51100000000E-03 0.  1.
    9900012    2    1    2    0    0  0.40284379065E+02  0.43710836530E+01 -0.15546278436E+02  0.47787258738E+02  0.19999943888E+02 0.  0.
         12    1    1    2    0    0 -0.40284379065E+02 -0.43710836530E+01  0.15546278436E+02  0.43400741262E+02  0.00000000000E+00 0. -1.
         11    1    3    3    0    0 -0.11413940990E+01 -0.10257735623E+01 -0.60624460504E+00  0.16500074765E+01  0.51100000000E-03 0. -1.
        -11    1    3    3    0    0  0.13708438116E+02  0.64810448098E+01 -0.94311341215E+01  0.17856973665E+02  0.51100000000E-03 0.  1.
         12    1    3    3    0    0  0.27717335048E+02 -0.10841875944E+01 -0.55088997090E+01  0.28280277596E+02  0.00000000000E+00 0. -1.
</event>
<event>
 7    1  0.2387817E-009  0.4778727E+02  0.7816164E-02  0.1312668E+00
        -11   -1    0    0    0    0  0.00000000000E+00  0.00000000000E+00  0.45593999997E+02  0.45594000000E+02  0.51100000000E-03 0.  1.
         11   -1    0    0    0    0 -0.00000000000E+00 -0.00000000000E+00 -0.45593999997E+02  0.45594000000E+02  0.51100000000E-03 0. -1.
    9900012    2    1    2    0    0 -0.62879104100E+01 -0.35723561548E+02  0.23830924458E+02  0.47787266970E+02  0.19999981423E+02 0.  0.
         12    1    1    2    0    0  0.62879104100E+01  0.35723561548E+02 -0.23830924458E+02  0.43400733030E+02  0.00000000000E+00 0. -1.
         11    1    3    3    0    0 -0.14202675552E+01 -0.22206599761E+00 -0.25778812313E+01  0.29516004369E+01  0.51100000000E-03 0. -1.
        -11    1    3    3    0    0  0.12374336609E+00  0.16851411326E+00  0.93888383558E-01  0.22918271468E+00  0.51100000000E-03 0.  1.
        -12    1    3    3    0    0 -0.49913862209E+01 -0.35670009664E+02  0.26314917306E+02  0.44606483818E+02  0.00000000000E+00 0.  1.
</event>
<event>
 7    1  0.2387817E-009  0.4778727E+02  0.7816164E-02  0.1312668E+00
        -11   -1    0    0    0    0  0.00000000000E+00  0.00000000000E+00  0.45593999997E+02  0.45594000000E+02  0.51100000000E-03 0. -1.
         11   -1    0    0    0    0 -0.00000000000E+00 -0.00000000000E+00 -0.45593999997E+02  0.45594000000E+02  0.51100000000E-03 0.  1.
    9900012    2    1    2    0    0 -0.39290513535E+02 -0.13116945294E+02  0.12954703927E+02  0.47787273491E+02  0.20000011155E+02 0.  0.
         12    1    1    2    0    0  0.39290513535E+02  0.13116945294E+02 -0.12954703927E+02  0.43400726509E+02  0.00000000000E+00 0. -1.
         11    1    3    3    0    0 -0.16369734855E+02 -0.53739950457E+01 -0.50904524670E+00  0.17236796956E+02  0.51100000000E-03 0.  1.
        -11    1    3    3    0    0 -0.14017977709E+02  0.18209178469E+01  0.50554724978E+01  0.15012569510E+02  0.51100000000E-03 0. -1.
         12    1    3    3    0    0 -0.89028009706E+01 -0.95638680950E+01  0.84082766759E+01  0.15537907025E+02  0.00000000000E+00 0. -1.
</event>
<event>
 7    1  0.2387817E-009  0.4778727E+02  0.7816164E-02  0.1312668E+00
        -11   -1    0    0    0    0  0.00000000000E+00  0.00000000000E+00  0.45593999997E+02  0.45594000000E+02  0.51100000000E-03 0.  1.
         11   -1    0    0    0    0 -0.00000000000E+00 -0.00000000000E+00 -0.45593999997E+02  0.45594000000E+02  0.51100000000E-03 0. -1.
    9900012    2    1    2    0    0  0.18777936068E+02 -0.29068896472E+02  0.26191823526E+02  0.47787271381E+02  0.20000001532E+02 0.  0.
         12    1    1    2    0    0 -0.18777936068E+02  0.29068896472E+02 -0.26191823526E+02  0.43400728619E+02  0.00000000000E+00 0. -1.
         11    1    3    3    0    0  0.30420820695E+01 -0.31526787525E+01  0.90603726931E+01  0.10063995242E+02  0.51100000000E-03 0. -1.
        -11    1    3    3    0    0  0.53616743447E+01 -0.19287481804E+02  0.54390499104E+01  0.20744584119E+02  0.51100000000E-03 0.  1.
        -12    1    3    3    0    0  0.10374179654E+02 -0.66287359157E+01  0.11692400923E+02  0.16978692019E+02  0.00000000000E+00 0.  1.
</event>
<event>
 7    1  0.2539353E-009  0.4778730E+02  0.7816164E-02  0.1312668E+00
        -11   -1    0    0    0    0  0.00000000000E+00  0.00000000000E+00  0.45593999997E+02  0.45594000000E+02  0.51100000000E-03 0. -1.
         11   -1    0    0    0    0 -0.00000000000E+00 -0.00000000000E+00 -0.45593999997E+02  0.45594000000E+02  0.51100000000E-03 0.  1.
    9900012    2    1    2    0    0  0.31023585573E+02  0.84375219243E+01 -0.29154182882E+02  0.47787297039E+02  0.20000118518E+02 0.  0.
         12    1    1    2    0    0 -0.31023585573E+02 -0.84375219243E+01  0.29154182882E+02  0.43400702961E+02  0.00000000000E+00 0. -1.
         11    1    3    3    0    0  0.68854572895E+01 -0.38491556356E+01 -0.75540788012E+01  0.10921979124E+02  0.51100000000E-03 0. -1.
        -11    1    3    3    0    0  0.11043594508E+02  0.37035234507E+01 -0.16886774574E+02  0.20514390592E+02  0.51100000000E-03 0.  1.
         12    1    3    3    0    0  0.13094533775E+02  0.85831541092E+01 -0.47133295068E+01  0.16350927322E+02  0.00000000000E+00 0. -1.
</event>
<event>
 7    1  0.2387817E-009  0.4778727E+02  0.7816164E-02  0.1312668E+00
        -11   -1    0    0    0    0  0.00000000000E+00  0.00000000000E+00  0.45593999997E+02  0.45594000000E+02  0.51100000000E-03 0.  1.
         11   -1    0    0    0    0 -0.00000000000E+00 -0.00000000000E+00 -0.45593999997E+02  0.45594000000E+02  0.51100000000E-03 0. -1.
    9900012    2    1    2    0    0 -0.40432447546E+02  0.15702134387E+02 -0.15110540414E+01  0.47787272781E+02  0.20000007918E+02 0.  0.
         12    1    1    2    0    0  0.40432447546E+02 -0.15702134387E+02  0.15110540414E+01  0.43400727219E+02  0.00000000000E+00 0. -1.
         11    1    3    3    0    0 -0.90944397132E+01  0.89482340165E+01  0.50036157127E+01  0.13704593981E+02  0.51100000000E-03 0. -1.
        -11    1    3    3    0    0 -0.20013244709E+02  0.79597749194E+01 -0.13579275946E+01  0.21580823621E+02  0.51100000000E-03 0.  1.
         12    1    3    3    0    0 -0.11324763124E+02 -0.12058745492E+01 -0.51567421595E+01  0.12501855180E+02  0.00000000000E+00 0. -1.
</event>
<event>
 7    1  0.2387817E-009  0.4778727E+02  0.7816164E-02  0.1312668E+00
        -11   -1    0    0    0    0  0.00000000000E+00  0.00000000000E+00  0.45593999997E+02  0.45594000000E+02  0.51100000000E-03 0.  1.
         11   -1    0    0    0    0 -0.00000000000E+00 -0.00000000000E+00 -0.45593999997E+02  0.45594000000E+02  0.51100000000E-03 0. -1.
    9900012    2    1    2    0    0  0.30015280339E+01  0.20597448268E+02  0.38083586969E+02  0.47787266802E+02  0.19999980657E+02 0.  0.
         12    1    1    2    0    0 -0.30015280339E+01 -0.20597448268E+02 -0.38083586969E+02  0.43400733198E+02  0.00000000000E+00 0. -1.
         11    1    3    3    0    0 -0.30592968354E+01  0.12659840565E+02  0.19761849977E+02  0.23667732782E+02  0.51100000000E-03 0. -1.
        -11    1    3    3    0    0 -0.20149130371E+01  0.48730464393E+01  0.12862106630E+02  0.13901087848E+02  0.51100000000E-03 0.  1.
         12    1    3    3    0    0  0.80757379064E+01  0.30645612639E+01  0.54596303625E+01  0.10218446172E+02  0.00000000000E+00 0. -1.
</event>
<event>
 7    1  0.2387817E-009  0.4778727E+02  0.7816164E-02  0.1312668E+00
        -11   -1    0    0    0    0  0.00000000000E+00  0.00000000000E+00  0.45593999997E+02  0.45594000000E+02  0.51100000000E-03 0.  1.
         11   -1    0    0    0    0 -0.00000000000E+00 -0.00000000000E+00 -0.45593999997E+02  0.45594000000E+02  0.51100000000E-03 0. -1.
    9900012    2    1    2    0    0 -0.66340716028E+01 -0.22308217271E+02  0.36632714064E+02  0.47787271855E+02  0.20000003694E+02 0.  0.
         12    1    1    2    0    0  0.66340716028E+01  0.22308217271E+02 -0.36632714064E+02  0.43400728145E+02  0.00000000000E+00 0. -1.
         11    1    3    3    0    0 -0.62845638025E+01 -0.10108398969E+02  0.27904688991E+02  0.30337223668E+02  0.51100000000E-03 0.  1.
        -11    1    3    3    0    0 -0.13956625462E+01  0.10161423416E+01  0.33288659207E+00  0.17581902473E+01  0.51100000000E-03 0. -1.
        -12    1    3    3    0    0  0.10461547459E+01 -0.13215960643E+02  0.83951384812E+01  0.15691857940E+02  0.00000000000E+00 0.  1.
</event>
<event>
 7    1  0.2387817E-009  0.4778728E+02  0.7816164E-02  0.1312668E+00
        -11   -1    0    0    0    0  0.00000000000E+00  0.00000000000E+00  0.45593999997E+02  0.45594000000E+02  0.51100000000E-03 0.  1.
         11   -1    0    0    0    0 -0.00000000000E+00 -0.00000000000E+00 -0.45593999997E+02  0.45594000000E+02  0.51100000000E-03 0. -1.
    9900012    2    1    2    0    0  0.26521640365E+02  0.75779015842E+01  0.33508214085E+02  0.47787280983E+02  0.20000045313E+02 0.  0.
         12    1    1    2    0    0 -0.26521640365E+02 -0.75779015842E+01 -0.33508214085E+02  0.43400719017E+02  0.00000000000E+00 0. -1.
         11    1    3    3    0    0  0.15060001090E+02  0.29207019519E+01  0.14522413813E+02  0.21124266519E+02  0.51100000000E-03 0.  1.
        -11    1    3    3    0    0  0.47549229184E+01  0.13520970344E+01 -0.12424460143E+01  0.50971688917E+01  0.51100000000E-03 0. -1.
         12    1    3    3    0    0  0.67067163566E+01  0.33051025978E+01  0.20228246285E+02  0.21565845572E+02  0.00000000000E+00 0. -1.
</event>
<event>
 7    1  0.2387817E-009  0.4778727E+02  0.7816164E-02  0.1312668E+00
        -11   -1    0    0    0    0  0.00000000000E+00  0.00000000000E+00  0.45593999997E+02  0.45594000000E+02  0.51100000000E-03 0. -1.
         11   -1    0    0    0    0 -0.00000000000E+00 -0.00000000000E+00 -0.45593999997E+02  0.45594000000E+02  0.51100000000E-03 0.  1.
    9900012    2    1    2    0    0  0.15286658542E+02 -0.37639638176E+02 -0.15270849341E+02  0.47787272691E+02  0.20000007505E+02 0.  0.
         12    1    1    2    0    0 -0.15286658542E+02  0.37639638176E+02  0.15270849341E+02  0.43400727309E+02  0.00000000000E+00 0. -1.
         11    1    3    3    0    0  0.66515064904E+01 -0.16793628473E+02 -0.99764829230E+01  0.20634890542E+02  0.51100000000E-03 0. -1.
        -11    1    3    3    0    0  0.90317445046E+01 -0.22535926881E+02 -0.32890993094E+01  0.24500175177E+02  0.51100000000E-03 0.  1.
         12    1    3    3    0    0 -0.39659245309E+00  0.16899171784E+01 -0.20052671089E+01  0.26522069719E+01  0.00000000000E+00 0. -1.
</event>
<event>
 7    1  0.2387817E-009  0.4778727E+02  0.7816164E-02  0.1312668E+00
        -11   -1    0    0    0    0  0.00000000000E+00  0.00000000000E+00  0.45593999997E+02  0.45594000000E+02  0.51100000000E-03 0. -1.
         11   -1    0    0    0    0 -0.00000000000E+00 -0.00000000000E+00 -0.45593999997E+02  0.45594000000E+02  0.51100000000E-03 0.  1.
    9900012    2    1    2    0    0 -0.39919930553E+02 -0.15416151607E+01 -0.16960136070E+02  0.47787266732E+02  0.19999980340E+02 0.  0.
         12    1    1    2    0    0  0.39919930553E+02  0.15416151607E+01  0.16960136070E+02  0.43400733268E+02  0.00000000000E+00 0. -1.
         11    1    3    3    0    0 -0.18300757227E+01 -0.17254735988E+00  0.22245433039E+01  0.28857482416E+01  0.51100000000E-03 0. -1.
        -11    1    3    3    0    0 -0.44062492320E+01  0.41517363934E+01 -0.72717415399E+00  0.60976003383E+01  0.51100000000E-03 0.  1.
        -12    1    3    3    0    0 -0.33683605598E+02 -0.55208041943E+01 -0.18457505220E+02  0.38803918153E+02  0.00000000000E+00 0.  1.
</event>
<event>
 7    1  0.2387817E-009  0.4778727E+02  0.7816164E-02  0.1312668E+00
        -11   -1    0    0    0    0  0.00000000000E+00  0.00000000000E+00  0.45593999997E+02  0.45594000000E+02  0.51100000000E-03 0.  1.
         11   -1    0    0    0    0 -0.00000000000E+00 -0.00000000000E+00 -0.45593999997E+02  0.45594000000E+02  0.51100000000E-03 0. -1.
    9900012    2    1    2    0    0  0.21073990986E+02 -0.10006533565E+02  0.36597535929E+02  0.47787269061E+02  0.19999990955E+02 0.  0.
         12    1    1    2    0    0 -0.21073990986E+02  0.10006533565E+02 -0.36597535929E+02  0.43400730939E+02  0.00000000000E+00 0. -1.
         11    1    3    3    0    0  0.78573250012E+00 -0.39543250837E+01  0.26789978894E+01  0.48405673616E+01  0.51100000000E-03 0. -1.
        -11    1    3    3    0    0 -0.21565797428E+01  0.12948694227E+01  0.51060888981E+01  0.56920705464E+01  0.51100000000E-03 0.  1.
        -12    1    3    3    0    0  0.22444838228E+02 -0.73470779035E+01  0.28812449141E+02  0.37254631153E+02  0.00000000000E+00 0.  1.
</event>
<event>
 7    1  0.2387817E-009  0.4778727E+02  0.7816164E-02  0.1312668E+00
        -11   -1    0    0    0    0  0.00000000000E+00  0.00000000000E+00  0.45593999997E+02  0.45594000000E+02  0.51100000000E-03 0.  1.
         11   -1    0    0    0    0 -0.00000000000E+00 -0.00000000000E+00 -0.45593999997E+02  0.45594000000E+02  0.51100000000E-03 0. -1.
    9900012    2    1    2    0    0  0.23630595707E+01  0.16471424769E+02  0.40084056954E+02  0.47787268366E+02  0.19999987789E+02 0.  0.
         12    1    1    2    0    0 -0.23630595707E+01 -0.16471424769E+02 -0.40084056954E+02  0.43400731634E+02  0.00000000000E+00 0. -1.
         11    1    3    3    0    0 -0.82436789661E+00  0.14450922545E+01  0.42033131829E+01  0.45205880179E+01  0.51100000000E-03 0. -1.
        -11    1    3    3    0    0 -0.19270884351E+01  0.15779255303E+01  0.25261805525E+02  0.25384293126E+02  0.51100000000E-03 0.  1.
         12    1    3    3    0    0  0.51145159024E+01  0.13448406984E+02  0.10618938246E+02  0.17882387223E+02  0.00000000000E+00 0. -1.
</event>
<event>
 7    1  0.2387817E-009  0.4778727E+02  0.7816164E-02  0.1312668E+00
        -11   -1    0    0    0    0  0.00000000000E+00  0.00000000000E+00  0.45593999997E+02  0.45594000000E+02  0.51100000000E-03 0.  1.
         11   -1    0    0    0    0 -0.00000000000E+00 -0.00000000000E+00 -0.45593999997E+02  0.45594000000E+02  0.51100000000E-03 0. -1.
    9900012    2    1    2    0    0  0.75196830118E+01 -0.38498210518E+02 -0.18573243440E+02  0.47787271693E+02  0.20000002959E+02 0.  0.
         12    1    1    2    0    0 -0.75196830118E+01  0.38498210518E+02  0.18573243440E+02  0.43400728307E+02  0.00000000000E+00 0. -1.
         11    1    3    3    0    0  0.36038236032E+01 -0.14380714139E+02 -0.97175110529E+01  0.17726322378E+02  0.51100000000E-03 0. -1.
        -11    1    3    3    0    0 -0.76865202056E+00 -0.23338485944E+02 -0.48527710403E+01  0.23850055328E+02  0.51100000000E-03 0.  1.
         12    1    3    3    0    0  0.46845114292E+01 -0.77901043407E+00 -0.40029613465E+01  0.62108939879E+01  0.00000000000E+00 0. -1.
</event>
<event>
 7    1  0.2387817E-009  0.4778727E+02  0.7816164E-02  0.1312668E+00
        -11   -1    0    0    0    0  0.00000000000E+00  0.00000000000E+00  0.45593999997E+02  0.45594000000E+02  0.51100000000E-03 0.  1.
         11   -1    0    0    0    0 -0.00000000000E+00 -0.00000000000E+00 -0.45593999997E+02  0.45594000000E+02  0.51100000000E-03 0. -1.
    9900012    2    1    2    0    0 -0.11023816209E+02  0.20959679667E+02  0.36370186526E+02  0.47787272316E+02  0.20000005800E+02 0.  0.
         12    1    1    2    0    0  0.11023816209E+02 -0.20959679667E+02 -0.36370186526E+02  0.43400727684E+02  0.00000000000E+00 0. -1.
         11    1    3    3    0    0 -0.52259441794E+01  0.21833080076E+01  0.43825146122E+01  0.71612681146E+01  0.51100000000E-03 0. -1.
        -11    1    3    3    0    0 -0.44530188923E+01  0.19092464584E+02  0.18140529828E+02  0.26710118005E+02  0.51100000000E-03 0.  1.
        -12    1    3    3    0    0 -0.13448531375E+01 -0.31609292490E+00  0.13847142086E+02  0.13915886197E+02  0.00000000000E+00 0.  1.
</event>
<event>
 7    1  0.2387817E-009  0.4778730E+02  0.7816164E-02  0.1312668E+00
        -11   -1    0    0    0    0  0.00000000000E+00  0.00000000000E+00  0.45593999997E+02  0.45594000000E+02  0.51100000000E-03 0. -1.
         11   -1    0    0    0    0 -0.00000000000E+00 -0.00000000000E+00 -0.45593999997E+02  0.45594000000E+02  0.51100000000E-03 0.  1.
    9900012    2    1    2    0    0  0.27278546508E+02 -0.21689297509E+02 -0.25866498607E+02  0.47787303275E+02  0.20000146953E+02 0.  0.
         12    1    1    2    0    0 -0.27278546508E+02  0.21689297509E+02  0.25866498607E+02  0.43400696725E+02  0.00000000000E+00 0. -1.
         11    1    3    3    0    0  0.15972405416E+02 -0.10767689356E+02 -0.10674061468E+02  0.22022635113E+02  0.51100000000E-03 0. -1.
        -11    1    3    3    0    0  0.75714576379E+01 -0.13975097592E+02 -0.10604035603E+02  0.19106959329E+02  0.51100000000E-03 0.  1.
         12    1    3    3    0    0  0.37346834535E+01  0.30534894390E+01 -0.45884015351E+01  0.66577088326E+01  0.00000000000E+00 0. -1.
</event>
<event>
 7    1  0.2387817E-009  0.4778727E+02  0.7816164E-02  0.1312668E+00
        -11   -1    0    0    0    0  0.00000000000E+00  0.00000000000E+00  0.45593999997E+02  0.45594000000E+02  0.51100000000E-03 0.  1.
         11   -1    0    0    0    0 -0.00000000000E+00 -0.00000000000E+00 -0.45593999997E+02  0.45594000000E+02  0.51100000000E-03 0. -1.
    9900012    2    1    2    0    0 -0.31428940247E+02 -0.29737431963E+02 -0.33955774714E+01  0.47787273150E+02  0.20000009599E+02 0.  0.
         12    1    1    2    0    0  0.31428940247E+02  0.29737431963E+02  0.33955774714E+01  0.43400726850E+02  0.00000000000E+00 0. -1.
         11    1    3    3    0    0  0.27331557644E-02 -0.18118624033E+01  0.19947433340E+01  0.26947827497E+01  0.51100000000E-03 0. -1.
        -11    1    3    3    0    0 -0.11323867753E+02 -0.20336780813E+02 -0.28416637356E+01  0.23449726816E+02  0.51100000000E-03 0.  1.
         12    1    3    3    0    0 -0.20107805650E+02 -0.75887887468E+01 -0.25486570698E+01  0.21642763584E+02  0.00000000000E+00 0. -1.
</event>
<event>
 7    1  0.2387817E-009  0.4778727E+02  0.7816164E-02  0.1312668E+00
        -11   -1    0    0    0    0  0.00000000000E+00  0.00000000000E+00  0.45593999997E+02  0.45594000000E+02  0.51100000000E-03 0. -1.
         11   -1    0    0    0    0 -0.00000000000E+00 -0.00000000000E+00 -0.45593999997E+02  0.45594000000E+02  0.51100000000E-03 0.  1.
    9900012    2    1    2    0    0 -0.38973418009E+02  0.11577496562E+00 -0.19096673308E+02  0.47787266750E+02  0.19999980422E+02 0.  0.
         12    1    1    2    0    0  0.38973418009E+02 -0.11577496562E+00  0.19096673308E+02  0.43400733250E+02  0.00000000000E+00 0. -1.
         11    1    3    3    0    0 -0.50531583125E+01  0.81558596616E+00  0.18533454968E+01  0.54437559820E+01  0.51100000000E-03 0. -1.
        -11    1    3    3    0    0 -0.28626525798E+02  0.87973868153E+00 -0.10464865296E+02  0.30492053478E+02  0.51100000000E-03 0.  1.
        -12    1    3    3    0    0 -0.52937338988E+01 -0.15795496821E+01 -0.10485153509E+02  0.11851457290E+02  0.00000000000E+00 0.  1.
</event>
<event>
 7    1  0.2387817E-009  0.4778728E+02  0.7816164E-02  0.1312668E+00
        -11   -1    0    0    0    0  0.00000000000E+00  0.00000000000E+00  0.45593999997E+02  0.45594000000E+02  0.51100000000E-03 0.  1.
         11   -1    0    0    0    0 -0.00000000000E+00 -0.00000000000E+00 -0.45593999997E+02  0.45594000000E+02  0.51100000000E-03 0. -1.
    9900012    2    1    2    0    0 -0.18108298504E+02  0.76918680227E+01  0.38685231322E+02  0.47787280756E+02  0.20000044281E+02 0.  0.
         12    1    1    2    0    0  0.18108298504E+02 -0.76918680227E+01 -0.38685231322E+02  0.43400719244E+02  0.00000000000E+00 0. -1.
         11    1    3    3    0    0 -0.21720053107E+01  0.21865304121E+01  0.11923773654E+02  0.12315636433E+02  0.51100000000E-03 0. -1.
        -11    1    3    3    0    0 -0.66047405615E+01  0.66157972887E+01  0.23876562961E+02  0.25641404618E+02  0.51100000000E-03 0.  1.
         12    1    3    3    0    0 -0.93315526320E+01 -0.11104596781E+01  0.28848947064E+01  0.98302397065E+01  0.00000000000E+00 0. -1.
</event>
<event>
 7    1  0.2387817E-009  0.4778727E+02  0.7816164E-02  0.1312668E+00
        -11   -1    0    0    0    0  0.00000000000E+00  0.00000000000E+00  0.45593999997E+02  0.45594000000E+02  0.51100000000E-03 0.  1.
         11   -1    0    0    0    0 -0.00000000000E+00 -0.00000000000E+00 -0.45593999997E+02  0.45594000000E+02  0.51100000000E-03 0. -1.
    9900012    2    1    2    0    0 -0.27405012331E+02 -0.20841747018E+02  0.26423674514E+02  0.47787266199E+02  0.19999977909E+02 0.  0.
         12    1    1    2    0    0  0.27405012331E+02  0.20841747018E+02 -0.26423674514E+02  0.43400733801E+02  0.00000000000E+00 0. -1.
         11    1    3    3    0    0 -0.13505283693E+02 -0.16630083809E+02  0.16647774984E+02  0.27131177404E+02  0.51100000000E-03 0. -1.
        -11    1    3    3    0    0 -0.14982409661E+02 -0.52325614817E+01  0.10471670876E+02  0.19013368720E+02  0.51100000000E-03 0.  1.
        -12    1    3    3    0    0  0.10826810234E+01  0.10208982720E+01 -0.69577134600E+00  0.16427200754E+01  0.00000000000E+00 0.  1.
</event>
<event>
 7    1  0.2387817E-009  0.4778727E+02  0.7816164E-02  0.1312668E+00
        -11   -1    0    0    0    0  0.00000000000E+00  0.00000000000E+00  0.45593999997E+02  0.45594000000E+02  0.51100000000E-03 0.  1.
         11   -1    0    0    0    0 -0.00000000000E+00 -0.00000000000E+00 -0.45593999997E+02  0.45594000000E+02  0.51100000000E-03 0. -1.
    9900012    2    1    2    0    0  0.15058736649E+02 -0.11729769922E+02  0.38977812792E+02  0.47787274868E+02  0.20000017435E+02 0.  0.
         12    1    1    2    0    0 -0.15058736649E+02  0.11729769922E+02 -0.38977812792E+02  0.43400725132E+02  0.00000000000E+00 0. -1.
         11    1    3    3    0    0  0.61183889466E+01 -0.54495073611E+01  0.26370860213E+01  0.86073245975E+01  0.51100000000E-03 0. -1.
        -11    1    3    3    0    0  0.95684542640E+00 -0.15300007247E+01  0.14420586375E+00  0.18103179224E+01  0.51100000000E-03 0.  1.
        -12    1    3    3    0    0  0.79835022764E+01 -0.47502618362E+01  0.36196520907E+02  0.37369632349E+02  0.00000000000E+00 0.  1.
</event>
<event>
 7    1  0.2387817E-009  0.4778727E+02  0.7816164E-02  0.1312668E+00
        -11   -1    0    0    0    0  0.00000000000E+00  0.00000000000E+00  0.45593999997E+02  0.45594000000E+02  0.51100000000E-03 0.  1.
         11   -1    0    0    0    0 -0.00000000000E+00 -0.00000000000E+00 -0.45593999997E+02  0.45594000000E+02  0.51100000000E-03 0. -1.
    9900012    2    1    2    0    0  0.11596608288E+02 -0.54040074040E+01  0.41472142298E+02  0.47787271820E+02  0.20000003535E+02 0.  0.
         12    1    1    2    0    0 -0.11596608288E+02  0.54040074040E+01 -0.41472142298E+02  0.43400728180E+02  0.00000000000E+00 0. -1.
         11    1    3    3    0    0  0.84179930001E+01  0.58159330942E+01  0.12345483484E+02  0.16034295950E+02  0.51100000000E-03 0. -1.
        -11    1    3    3    0    0  0.24368258933E+00 -0.12055087975E+01  0.89814489732E+01  0.90652666030E+01  0.51100000000E-03 0.  1.
         12    1    3    3    0    0  0.29349326986E+01 -0.10014431701E+02  0.20145209841E+02  0.22687709267E+02  0.00000000000E+00 0. -1.
</event>
<event>
 7    1  0.2387817E-009  0.4778727E+02  0.7816164E-02  0.1312668E+00
        -11   -1    0    0    0    0  0.00000000000E+00  0.00000000000E+00  0.45593999997E+02  0.45594000000E+02  0.51100000000E-03 0.  1.
         11   -1    0    0    0    0 -0.00000000000E+00 -0.00000000000E+00 -0.45593999997E+02  0.45594000000E+02  0.51100000000E-03 0. -1.
    9900012    2    1    2    0    0  0.14028785564E+01  0.27857332486E+02  0.33250930582E+02  0.47787269291E+02  0.19999992005E+02 0.  0.
         12    1    1    2    0    0 -0.14028785564E+01 -0.27857332486E+02 -0.33250930582E+02  0.43400730709E+02  0.00000000000E+00 0. -1.
         11    1    3    3    0    0 -0.48318539885E+01  0.88682264807E+01  0.18616522634E+02  0.21179404362E+02  0.51100000000E-03 0. -1.
        -11    1    3    3    0    0 -0.18498267196E+01  0.91510150542E+00  0.30049795100E+01  0.36454316308E+01  0.51100000000E-03 0.  1.
        -12    1    3    3    0    0  0.80845592645E+01  0.18074004500E+02  0.11629428439E+02  0.22962433298E+02  0.00000000000E+00 0.  1.
</event>
<event>
 7    1  0.2387817E-009  0.4778727E+02  0.7816164E-02  0.1312668E+00
        -11   -1    0    0    0    0  0.00000000000E+00  0.00000000000E+00  0.45593999997E+02  0.45594000000E+02  0.51100000000E-03 0.  1.
         11   -1    0    0    0    0 -0.00000000000E+00 -0.00000000000E+00 -0.45593999997E+02  0.45594000000E+02  0.51100000000E-03 0. -1.
    9900012    2    1    2    0    0 -0.28497152859E+02  0.31687271891E+02  0.82129344389E+01  0.47787271745E+02  0.20000003193E+02 0.  0.
         12    1    1    2    0    0  0.28497152859E+02 -0.31687271891E+02 -0.82129344389E+01  0.43400728255E+02  0.00000000000E+00 0. -1.
         11    1    3    3    0    0 -0.12843779042E+02  0.97549911323E+01 -0.44807152730E+01  0.16739155346E+02  0.51100000000E-03 0. -1.
        -11    1    3    3    0    0 -0.12298087073E+02  0.97999390616E+01  0.76537961818E+01  0.17488920708E+02  0.51100000000E-03 0.  1.
        -12    1    3    3    0    0 -0.33552867443E+01  0.12132341697E+02  0.50398535302E+01  0.13559195691E+02  0.00000000000E+00 0.  1.
</event>
<event>
 7    1  0.2387817E-009  0.4778728E+02  0.7816164E-02  0.1312668E+00
        -11   -1    0    0    0    0  0.00000000000E+00  0.00000000000E+00  0.45593999997E+02  0.45594000000E+02  0.51100000000E-03 0. -1.
         11   -1    0    0    0    0 -0.00000000000E+00 -0.00000000000E+00 -0.45593999997E+02  0.45594000000E+02  0.51100000000E-03 0.  1.
    9900012    2    1    2    0    0 -0.32661207438E+02  0.28580844625E+02  0.58600416200E-01  0.47787278983E+02  0.20000036194E+02 0.  0.
         12    1    1    2    0    0  0.32661207438E+02 -0.28580844625E+02 -0.58600416200E-01  0.43400721017E+02  0.00000000000E+00 0. -1.
         11    1    3    3    0    0 -0.53044519285E+01 -0.11718122194E+01 -0.95957480252E+00  0.55164425314E+01  0.51100000000E-03 0. -1.
        -11    1    3    3    0    0 -0.21629647606E+01  0.27220959237E+01 -0.36325521093E+01  0.50282857776E+01  0.51100000000E-03 0.  1.
        -12    1    3    3    0    0 -0.25193790749E+02  0.27030560921E+02  0.46507273280E+01  0.37242550674E+02  0.00000000000E+00 0.  1.
</event>
<event>
 7    1  0.2387817E-009  0.4778727E+02  0.7816164E-02  0.1312668E+00
        -11   -1    0    0    0    0  0.00000000000E+00  0.00000000000E+00  0.45593999997E+02  0.45594000000E+02  0.51100000000E-03 0.  1.
         11   -1    0    0    0    0 -0.00000000000E+00 -0.00000000000E+00 -0.45593999997E+02  0.45594000000E+02  0.51100000000E-03 0. -1.
    9900012    2    1    2    0    0  0.37939912350E+02  0.20600552501E+02 -0.44501195623E+01  0.47787271013E+02  0.19999999859E+02 0.  0.
         12    1    1    2    0    0 -0.37939912350E+02 -0.20600552501E+02  0.44501195623E+01  0.43400728987E+02  0.00000000000E+00 0. -1.
         11    1    3    3    0    0  0.23123052560E+02  0.12165223335E+02 -0.12660168782E+01  0.26158574454E+02  0.51100000000E-03 0. -1.
        -11    1    3    3    0    0  0.15927782071E+02  0.53056555965E+01  0.33289896395E+00  0.16791517055E+02  0.51100000000E-03 0.  1.
         12    1    3    3    0    0 -0.11109222814E+01  0.31296735697E+01 -0.35170016481E+01  0.48371795047E+01  0.00000000000E+00 0. -1.
</event>
<event>
 7    1  0.2387817E-009  0.4778732E+02  0.7816164E-02  0.1312668E+00
        -11   -1    0    0    0    0  0.00000000000E+00  0.00000000000E+00  0.45593999997E+02  0.45594000000E+02  0.51100000000E-03 0. -1.
         11   -1    0    0    0    0 -0.00000000000E+00 -0.00000000000E+00 -0.45593999997E+02  0.45594000000E+02  0.51100000000E-03 0.  1.
    9900012    2    1    2    0    0 -0.42716908601E+02  0.56551101432E+01 -0.51869530823E+01  0.47787319897E+02  0.20000222736E+02 0.  0.
         12    1    1    2    0    0  0.42716908601E+02 -0.56551101432E+01  0.51869530823E+01  0.43400680103E+02  0.00000000000E+00 0. -1.
         11    1    3    3    0    0 -0.16304483261E+02 -0.18737863963E+01  0.16424196043E+00  0.16412623969E+02  0.51100000000E-03 0. -1.
        -11    1    3    3    0    0 -0.15961529082E+02  0.48170296654E+00  0.30083258616E+01  0.16249691478E+02  0.51100000000E-03 0.  1.
        -12    1    3    3    0    0 -0.10450896258E+02  0.70471935730E+01 -0.83595209044E+01  0.15125004450E+02  0.00000000000E+00 0.  1.
</event>
<event>
 7    1  0.2387817E-009  0.4778727E+02  0.7816164E-02  0.1312668E+00
        -11   -1    0    0    0    0  0.00000000000E+00  0.00000000000E+00  0.45593999997E+02  0.45594000000E+02  0.51100000000E-03 0.  1.
         11   -1    0    0    0    0 -0.00000000000E+00 -0.00000000000E+00 -0.45593999997E+02  0.45594000000E+02  0.51100000000E-03 0. -1.
    9900012    2    1    2    0    0  0.19603790032E+01  0.36084947859E+02  0.24034488555E+02  0.47787272035E+02  0.20000004516E+02 0.  0.
         12    1    1    2    0    0 -0.19603790032E+01 -0.36084947859E+02 -0.24034488555E+02  0.43400727965E+02  0.00000000000E+00 0. -1.
         11    1    3    3    0    0  0.22756595706E+01  0.32861290774E+00  0.56424610777E+00  0.23674853443E+01  0.51100000000E-03 0. -1.
        -11    1    3    3    0    0  0.71864976359E+01  0.12922889974E+02  0.76753568234E+01  0.16660070113E+02  0.51100000000E-03 0.  1.
         12    1    3    3    0    0 -0.75017782033E+01  0.22833444977E+02  0.15794885624E+02  0.28759716578E+02  0.00000000000E+00 0. -1.
</event>
<event>
 7    1  0.2387817E-009  0.4778727E+02  0.7816164E-02  0.1312668E+00
        -11   -1    0    0    0    0  0.00000000000E+00  0.00000000000E+00  0.45593999997E+02  0.45594000000E+02  0.51100000000E-03 0.  1.
         11   -1    0    0    0    0 -0.00000000000E+00 -0.00000000000E+00 -0.45593999997E+02  0.45594000000E+02  0.51100000000E-03 0. -1.
    9900012    2    1    2    0    0 -0.35485686312E+02 -0.24252366801E+02  0.60176626767E+01  0.47787268525E+02  0.19999988514E+02 0.  0.
         12    1    1    2    0    0  0.35485686312E+02  0.24252366801E+02 -0.60176626767E+01  0.43400731475E+02  0.00000000000E+00 0. -1.
         11    1    3    3    0    0 -0.12668994127E+02 -0.13696847769E+02 -0.26286053921E+01  0.18841884660E+02  0.51100000000E-03 0. -1.
        -11    1    3    3    0    0 -0.90517954680E+01 -0.55649645569E+01 -0.20388254498E+01  0.10819456603E+02  0.51100000000E-03 0.  1.
         12    1    3    3    0    0 -0.13764896717E+02 -0.49905544754E+01  0.10685093519E+02  0.18125927262E+02  0.00000000000E+00 0. -1.
</event>
<event>
 7    1  0.2387817E-009  0.4778728E+02  0.7816164E-02  0.1312668E+00
        -11   -1    0    0    0    0  0.00000000000E+00  0.00000000000E+00  0.45593999997E+02  0.45594000000E+02  0.51100000000E-03 0. -1.
         11   -1    0    0    0    0 -0.00000000000E+00 -0.00000000000E+00 -0.45593999997E+02  0.45594000000E+02  0.51100000000E-03 0.  1.
    9900012    2    1    2    0    0 -0.52792599426E+01 -0.33624220185E+02 -0.26928856398E+02  0.47787284851E+02  0.20000062950E+02 0.  0.
         12    1    1    2    0    0  0.52792599426E+01  0.33624220185E+02  0.26928856398E+02  0.43400715149E+02  0.00000000000E+00 0. -1.
         11    1    3    3    0    0  0.12136911165E+01 -0.37395993505E+00 -0.11458479213E+01  0.17105145072E+01  0.51100000000E-03 0. -1.
        -11    1    3    3    0    0 -0.88230506943E+01 -0.58366604932E+01 -0.86560033641E+01  0.13668914506E+02  0.51100000000E-03 0.  1.
         12    1    3    3    0    0  0.23300996352E+01 -0.27413599756E+02 -0.17127005112E+02  0.32407855838E+02  0.00000000000E+00 0. -1.
</event>
<event>
 7    1  0.2387817E-009  0.4778726E+02  0.7816164E-02  0.1312668E+00
        -11   -1    0    0    0    0  0.00000000000E+00  0.00000000000E+00  0.45593999997E+02  0.45594000000E+02  0.51100000000E-03 0. -1.
         11   -1    0    0    0    0 -0.00000000000E+00 -0.00000000000E+00 -0.45593999997E+02  0.45594000000E+02  0.51100000000E-03 0.  1.
    9900012    2    1    2    0    0 -0.34325766337E+02 -0.18143619066E+02 -0.19395226126E+02  0.47787263325E+02  0.19999964806E+02 0.  0.
         12    1    1    2    0    0  0.34325766337E+02  0.18143619066E+02  0.19395226126E+02  0.43400736675E+02  0.00000000000E+00 0. -1.
         11    1    3    3    0    0 -0.71432673058E+01 -0.75338027491E+01 -0.19612401380E+00  0.10383781419E+02  0.51100000000E-03 0. -1.
        -11    1    3    3    0    0 -0.12593717360E+01 -0.51297122869E+01 -0.13361021025E+01  0.54484065932E+01  0.51100000000E-03 0.  1.
        -12    1    3    3    0    0 -0.25923127295E+02 -0.54801040297E+01 -0.17863000010E+02  0.31955075313E+02  0.00000000000E+00 0.  1.
</event>
<event>
 7    1  0.2387817E-009  0.4778727E+02  0.7816164E-02  0.1312668E+00
        -11   -1    0    0    0    0  0.00000000000E+00  0.00000000000E+00  0.45593999997E+02  0.45594000000E+02  0.51100000000E-03 0.  1.
         11   -1    0    0    0    0 -0.00000000000E+00 -0.00000000000E+00 -0.45593999997E+02  0.45594000000E+02  0.51100000000E-03 0. -1.
    9900012    2    1    2    0    0 -0.20681672444E+02 -0.65831331019E+01  0.37583961506E+02  0.47787269833E+02  0.19999994478E+02 0.  0.
         12    1    1    2    0    0  0.20681672444E+02  0.65831331019E+01 -0.37583961506E+02  0.43400730167E+02  0.00000000000E+00 0. -1.
         11    1    3    3    0    0 -0.80822159799E+01 -0.12386131770E+01  0.32965862238E+01  0.88161135848E+01  0.51100000000E-03 0. -1.
        -11    1    3    3    0    0 -0.81724736396E+01  0.12328720943E+01  0.79559362461E+01  0.11471975453E+02  0.51100000000E-03 0.  1.
         12    1    3    3    0    0 -0.44269828249E+01 -0.65773920193E+01  0.26331439036E+02  0.27499180795E+02  0.00000000000E+00 0. -1.
</event>
<event>
 7    1  0.2387817E-009  0.4778727E+02  0.7816164E-02  0.1312668E+00
        -11   -1    0    0    0    0  0.00000000000E+00  0.00000000000E+00  0.45593999997E+02  0.45594000000E+02  0.51100000000E-03 0. -1.
         11   -1    0    0    0    0 -0.00000000000E+00 -0.00000000000E+00 -0.45593999997E+02  0.45594000000E+02  0.51100000000E-03 0.  1.
    9900012    2    1    2    0    0 -0.32026034573E+02  0.92896186536E+01 -0.27778765592E+02  0.47787265870E+02  0.19999976406E+02 0.  0.
         12    1    1    2    0    0  0.32026034573E+02 -0.92896186536E+01  0.27778765592E+02  0.43400734130E+02  0.00000000000E+00 0. -1.
         11    1    3    3    0    0 -0.35214129301E+01  0.87882962015E-01 -0.23778459836E+01  0.42499675554E+01  0.51100000000E-03 0. -1.
        -11    1    3    3    0    0 -0.15127892304E+02  0.92382346336E+01 -0.24351175097E+02  0.30119392981E+02  0.51100000000E-03 0.  1.
         12    1    3    3    0    0 -0.13376729339E+02 -0.36498942067E-01 -0.10497445119E+01  0.13417905333E+02  0.00000000000E+00 0. -1.
</event>
<event>
 7    1  0.2387817E-009  0.4778727E+02  0.7816164E-02  0.1312668E+00
        -11   -1    0    0    0    0  0.00000000000E+00  0.00000000000E+00  0.45593999997E+02  0.45594000000E+02  0.51100000000E-03 0.  1.
         11   -1    0    0    0    0 -0.00000000000E+00 -0.00000000000E+00 -0.45593999997E+02  0.45594000000E+02  0.51100000000E-03 0. -1.
    9900012    2    1    2    0    0 -0.31607822296E+02  0.87500455617E+01  0.28425440191E+02  0.47787269849E+02  0.19999994548E+02 0.  0.
         12    1    1    2    0    0  0.31607822296E+02 -0.87500455617E+01 -0.28425440191E+02  0.43400730151E+02  0.00000000000E+00 0. -1.
         11    1    3    3    0    0 -0.89830792473E+01  0.39128586687E+01  0.63314586507E+01  0.11665913793E+02  0.51100000000E-03 0. -1.
        -11    1    3    3    0    0 -0.23789652718E+02  0.75982917193E+01  0.21727298020E+02  0.33102221874E+02  0.51100000000E-03 0.  1.
         12    1    3    3    0    0  0.11649096693E+01 -0.27611048263E+01  0.36668351967E+00  0.30191341810E+01  0.00000000000E+00 0. -1.
</event>
<event>
 7    1  0.2387817E-009  0.4778727E+02  0.7816164E-02  0.1312668E+00
        -11   -1    0    0    0    0  0.00000000000E+00  0.00000000000E+00  0.45593999997E+02  0.45594000000E+02  0.51100000000E-03 0.  1.
         11   -1    0    0    0    0 -0.00000000000E+00 -0.00000000000E+00 -0.45593999997E+02  0.45594000000E+02  0.51100000000E-03 0. -1.
    9900012    2    1    2    0    0  0.24966459986E+02  0.25170342166E+02  0.25035040570E+02  0.47787268378E+02  0.19999987841E+02 0.  0.
         12    1    1    2    0    0 -0.24966459986E+02 -0.25170342166E+02 -0.25035040570E+02  0.43400731622E+02  0.00000000000E+00 0. -1.
         11    1    3    3    0    0  0.88553095007E+01  0.41056611330E+01  0.69442408391E+01  0.11978958251E+02  0.51100000000E-03 0.  1.
        -11    1    3    3    0    0  0.17761353519E+02  0.11779708925E+02  0.10829386190E+02  0.23906125297E+02  0.51100000000E-03 0. -1.
         12    1    3    3    0    0 -0.16502030334E+01  0.92849721085E+01  0.72614135410E+01  0.11902184830E+02  0.00000000000E+00 0. -1.
</event>
<event>
 7    1  0.2387817E-009  0.4778728E+02  0.7816164E-02  0.1312668E+00
        -11   -1    0    0    0    0  0.00000000000E+00  0.00000000000E+00  0.45593999997E+02  0.45594000000E+02  0.51100000000E-03 0.  1.
         11   -1    0    0    0    0 -0.00000000000E+00 -0.00000000000E+00 -0.45593999997E+02  0.45594000000E+02  0.51100000000E-03 0. -1.
    9900012    2    1    2    0    0 -0.23636042182E+00 -0.11243670728E+02  0.41918329347E+02  0.47787281885E+02  0.20000049425E+02 0.  0.
         12    1    1    2    0    0  0.23636042182E+00  0.11243670728E+02 -0.41918329347E+02  0.43400718115E+02  0.00000000000E+00 0. -1.
         11    1    3    3    0    0 -0.29614006207E+00 -0.42399628185E+01  0.71653998760E+01  0.83311427358E+01  0.51100000000E-03 0. -1.
        -11    1    3    3    0    0 -0.79824399840E+01 -0.64753093810E+01  0.23143960124E+02  0.25323741235E+02  0.51100000000E-03 0.  1.
         12    1    3    3    0    0  0.80422196242E+01 -0.52839852812E+00  0.11608969347E+02  0.14132397914E+02  0.00000000000E+00 0. -1.
</event>
<event>
 7    1  0.2387817E-009  0.4778727E+02  0.7816164E-02  0.1312668E+00
        -11   -1    0    0    0    0  0.00000000000E+00  0.00000000000E+00  0.45593999997E+02  0.45594000000E+02  0.51100000000E-03 0.  1.
         11   -1    0    0    0    0 -0.00000000000E+00 -0.00000000000E+00 -0.45593999997E+02  0.45594000000E+02  0.51100000000E-03 0. -1.
    9900012    2    1    2    0    0  0.20631597051E+02 -0.63769524714E+01  0.37646979424E+02  0.47787269829E+02  0.19999994457E+02 0.  0.
         12    1    1    2    0    0 -0.20631597051E+02  0.63769524714E+01 -0.37646979424E+02  0.43400730171E+02  0.00000000000E+00 0. -1.
         11    1    3    3    0    0  0.40419207395E+00  0.72769773057E+00 -0.18383625033E+00  0.85247360532E+00  0.51100000000E-03 0. -1.
        -11    1    3    3    0    0  0.15037771485E+02 -0.10382072378E+01  0.35578342237E+02  0.38639757790E+02  0.51100000000E-03 0.  1.
        -12    1    3    3    0    0  0.51896334922E+01 -0.60664429642E+01  0.22524734368E+01  0.82950384329E+01  0.00000000000E+00 0.  1.
</event>
<event>
 7    1  0.2387817E-009  0.4778727E+02  0.7816164E-02  0.1312668E+00
        -11   -1    0    0    0    0  0.00000000000E+00  0.00000000000E+00  0.45593999997E+02  0.45594000000E+02  0.51100000000E-03 0.  1.
         11   -1    0    0    0    0 -0.00000000000E+00 -0.00000000000E+00 -0.45593999997E+02  0.45594000000E+02  0.51100000000E-03 0. -1.
    9900012    2    1    2    0    0  0.16361467039E+02 -0.28317711172E+02  0.28531263260E+02  0.47787270134E+02  0.19999995851E+02 0.  0.
         12    1    1    2    0    0 -0.16361467039E+02  0.28317711172E+02 -0.28531263260E+02  0.43400729866E+02  0.00000000000E+00 0. -1.
         11    1    3    3    0    0 -0.17416385482E+01 -0.20874631175E+01  0.99535187035E+00  0.28950876855E+01  0.51100000000E-03 0. -1.
        -11    1    3    3    0    0  0.21633051266E+01 -0.42740384645E+01  0.13540978519E+02  0.14363335037E+02  0.51100000000E-03 0.  1.
        -12    1    3    3    0    0  0.15939800461E+02 -0.21956209590E+02  0.13994932871E+02  0.30528847412E+02  0.00000000000E+00 0.  1.
</event>
<event>
 7    1  0.2387817E-009  0.4778728E+02  0.7816164E-02  0.1312668E+00
        -11   -1    0    0    0    0  0.00000000000E+00  0.00000000000E+00  0.45593999997E+02  0.45594000000E+02  0.51100000000E-03 0.  1.
         11   -1    0    0    0    0 -0.00000000000E+00 -0.00000000000E+00 -0.45593999997E+02  0.45594000000E+02  0.51100000000E-03 0. -1.
    9900012    2    1    2    0    0 -0.31055163249E+02 -0.93506031409E+01  0.28840340800E+02  0.47787283405E+02  0.20000056355E+02 0.  0.
         12    1    1    2    0    0  0.31055163249E+02  0.93506031409E+01 -0.28840340800E+02  0.43400716595E+02  0.00000000000E+00 0. -1.
         11    1    3    3    0    0 -0.31150722702E+02 -0.10862233714E+02  0.28957225965E+02  0.43896202364E+02  0.51100000000E-03 0.  1.
        -11    1    3    3    0    0  0.10348623152E+01 -0.62099513530E+00 -0.81752733232E+00  0.14577126499E+01  0.51100000000E-03 0. -1.
        -12    1    3    3    0    0 -0.93930286178E+00  0.21326257080E+01  0.70064216733E+00  0.24333683904E+01  0.00000000000E+00 0.  1.
</event>
<event>
 7    1  0.2387817E-009  0.4778727E+02  0.7816164E-02  0.1312668E+00
        -11   -1    0    0    0    0  0.00000000000E+00  0.00000000000E+00  0.45593999997E+02  0.45594000000E+02  0.51100000000E-03 0.  1.
         11   -1    0    0    0    0 -0.00000000000E+00 -0.00000000000E+00 -0.45593999997E+02  0.45594000000E+02  0.51100000000E-03 0. -1.
    9900012    2    1    2    0    0 -0.19806732013E+02 -0.23003518301E+01  0.38548993748E+02  0.47787272235E+02  0.20000005426E+02 0.  0.
         12    1    1    2    0    0  0.19806732013E+02  0.23003518301E+01 -0.38548993748E+02  0.43400727765E+02  0.00000000000E+00 0. -1.
         11    1    3    3    0    0 -0.14882595723E+01 -0.38672052352E+01  0.54015980722E+01  0.68078965092E+01  0.51100000000E-03 0. -1.
        -11    1    3    3    0    0 -0.51110830911E+01  0.10986142815E+01  0.24807166631E+02  0.25352034242E+02  0.51100000000E-03 0.  1.
         12    1    3    3    0    0 -0.13207389350E+02  0.46823912360E+00  0.83402290451E+01  0.15627341483E+02  0.00000000000E+00 0. -1.
</event>
<event>
 7    1  0.2387817E-009  0.4778727E+02  0.7816164E-02  0.1312668E+00
        -11   -1    0    0    0    0  0.00000000000E+00  0.00000000000E+00  0.45593999997E+02  0.45594000000E+02  0.51100000000E-03 0. -1.
         11   -1    0    0    0    0 -0.00000000000E+00 -0.00000000000E+00 -0.45593999997E+02  0.45594000000E+02  0.51100000000E-03 0.  1.
    9900012    2    1    2    0    0 -0.31422900960E+02  0.20666763593E+02 -0.21658936463E+02  0.47787270157E+02  0.19999995953E+02 0.  0.
         12    1    1    2    0    0  0.31422900960E+02 -0.20666763593E+02  0.21658936463E+02  0.43400729843E+02  0.00000000000E+00 0. -1.
         11    1    3    3    0    0 -0.98409856348E+01  0.13725889164E+02 -0.90142434134E+01  0.19144231930E+02  0.51100000000E-03 0. -1.
        -11    1    3    3    0    0 -0.20389215778E+01  0.57734730214E+01 -0.30511863415E+01  0.68410474550E+01  0.51100000000E-03 0.  1.
        -12    1    3    3    0    0 -0.19542993748E+02  0.11674014085E+01 -0.95935067082E+01  0.21801990772E+02  0.00000000000E+00 0.  1.
</event>
<event>
 7    1  0.2387817E-009  0.4778726E+02  0.7816164E-02  0.1312668E+00
        -11   -1    0    0    0    0  0.00000000000E+00  0.00000000000E+00  0.45593999997E+02  0.45594000000E+02  0.51100000000E-03 0.  1.
         11   -1    0    0    0    0 -0.00000000000E+00 -0.00000000000E+00 -0.45593999997E+02  0.45594000000E+02  0.51100000000E-03 0. -1.
    9900012    2    1    2    0    0 -0.29506491643E+02  0.30950935685E+02  0.74182692128E+01  0.47787260525E+02  0.19999952038E+02 0.  0.
         12    1    1    2    0    0  0.29506491643E+02 -0.30950935685E+02 -0.74182692128E+01  0.43400739475E+02  0.00000000000E+00 0. -1.
         11    1    3    3    0    0 -0.12182585176E+02  0.95210719698E+01  0.89562555393E+01  0.17868427647E+02  0.51100000000E-03 0. -1.
        -11    1    3    3    0    0 -0.11846666076E+02  0.86058928922E+01  0.35640654868E+01  0.15070084693E+02  0.51100000000E-03 0.  1.
        -12    1    3    3    0    0 -0.54772403905E+01  0.12823970823E+02 -0.51020518133E+01  0.14848748185E+02  0.00000000000E+00 0.  1.
</event>
<event>
 7    1  0.2387817E-009  0.4778727E+02  0.7816164E-02  0.1312668E+00
        -11   -1    0    0    0    0  0.00000000000E+00  0.00000000000E+00  0.45593999997E+02  0.45594000000E+02  0.51100000000E-03 0.  1.
         11   -1    0    0    0    0 -0.00000000000E+00 -0.00000000000E+00 -0.45593999997E+02  0.45594000000E+02  0.51100000000E-03 0. -1.
    9900012    2    1    2    0    0 -0.32864829169E+01  0.28497375723E+02  0.32568726084E+02  0.47787270608E+02  0.19999998008E+02 0.  0.
         12    1    1    2    0    0  0.32864829169E+01 -0.28497375723E+02 -0.32568726084E+02  0.43400729392E+02  0.00000000000E+00 0. -1.
         11    1    3    3    0    0  0.29693553424E+01  0.87724364155E+01  0.91704266171E+01  0.13033396964E+02  0.51100000000E-03 0.  1.
        -11    1    3    3    0    0 -0.10000881135E+02  0.12563728515E+02  0.94467402544E+01  0.18630775598E+02  0.51100000000E-03 0. -1.
         12    1    3    3    0    0  0.37450428756E+01  0.71612107927E+01  0.13951559212E+02  0.16123098046E+02  0.00000000000E+00 0. -1.
</event>
<event>
 7    1  0.2387817E-009  0.4778727E+02  0.7816164E-02  0.1312668E+00
        -11   -1    0    0    0    0  0.00000000000E+00  0.00000000000E+00  0.45593999997E+02  0.45594000000E+02  0.51100000000E-03 0.  1.
         11   -1    0    0    0    0 -0.00000000000E+00 -0.00000000000E+00 -0.45593999997E+02  0.45594000000E+02  0.51100000000E-03 0. -1.
    9900012    2    1    2    0    0 -0.16396753897E+02 -0.14126268498E+02  0.37619387618E+02  0.47787270458E+02  0.19999997328E+02 0.  0.
         12    1    1    2    0    0  0.16396753897E+02  0.14126268498E+02 -0.37619387618E+02  0.43400729542E+02  0.00000000000E+00 0. -1.
         11    1    3    3    0    0 -0.44504592061E+01  0.18568025596E+01  0.12158415217E+02  0.13079807481E+02  0.51100000000E-03 0. -1.
        -11    1    3    3    0    0 -0.12609350276E+02 -0.67364975000E+01  0.16150320214E+02  0.21568703165E+02  0.51100000000E-03 0.  1.
         12    1    3    3    0    0  0.66305558540E+00 -0.92465735575E+01  0.93106521869E+01  0.13138759812E+02  0.00000000000E+00 0. -1.
</event>
<event>
 7    1  0.2387817E-009  0.4778727E+02  0.7816164E-02  0.1312668E+00
        -11   -1    0    0    0    0  0.00000000000E+00  0.00000000000E+00  0.45593999997E+02  0.45594000000E+02  0.51100000000E-03 0.  1.
         11   -1    0    0    0    0 -0.00000000000E+00 -0.00000000000E+00 -0.45593999997E+02  0.45594000000E+02  0.51100000000E-03 0. -1.
    9900012    2    1    2    0    0 -0.34247886600E+02 -0.11812128660E+02  0.23899350899E+02  0.47787273123E+02  0.20000009476E+02 0.  0.
         12    1    1    2    0    0  0.34247886600E+02  0.11812128660E+02 -0.23899350899E+02  0.43400726877E+02  0.00000000000E+00 0. -1.
         11    1    3    3    0    0 -0.17179855042E+02 -0.55103244497E+01  0.37326622657E+01  0.18424002352E+02  0.51100000000E-03 0.  1.
        -11    1    3    3    0    0  0.10146675348E+01  0.11386634632E+01  0.43939629336E+00  0.15871906162E+01  0.51100000000E-03 0. -1.
         12    1    3    3    0    0 -0.18082699093E+02 -0.74404676738E+01  0.19727292340E+02  0.27776080154E+02  0.00000000000E+00 0. -1.
</event>
<event>
 7    1  0.2387817E-009  0.4778727E+02  0.7816164E-02  0.1312668E+00
        -11   -1    0    0    0    0  0.00000000000E+00  0.00000000000E+00  0.45593999997E+02  0.45594000000E+02  0.51100000000E-03 0.  1.
         11   -1    0    0    0    0 -0.00000000000E+00 -0.00000000000E+00 -0.45593999997E+02  0.45594000000E+02  0.51100000000E-03 0. -1.
    9900012    2    1    2    0    0  0.10814371996E+02  0.41990544503E+02 -0.18619834762E+01  0.47787268995E+02  0.19999990655E+02 0.  0.
         12    1    1    2    0    0 -0.10814371996E+02 -0.41990544503E+02  0.18619834762E+01  0.43400731005E+02  0.00000000000E+00 0. -1.
         11    1    3    3    0    0  0.10144067746E+01  0.40262619029E+01 -0.29804035586E+00  0.41627676287E+01  0.51100000000E-03 0. -1.
        -11    1    3    3    0    0  0.90301142804E+01  0.34073513743E+02 -0.79236710862E+01  0.36129376780E+02  0.51100000000E-03 0.  1.
         12    1    3    3    0    0  0.76985094073E+00  0.38907688567E+01  0.63597279659E+01  0.74951245865E+01  0.00000000000E+00 0. -1.
</event>
<event>
 7    1  0.2387817E-009  0.4778727E+02  0.7816164E-02  0.1312668E+00
        -11   -1    0    0    0    0  0.00000000000E+00  0.00000000000E+00  0.45593999997E+02  0.45594000000E+02  0.51100000000E-03 0.  1.
         11   -1    0    0    0    0 -0.00000000000E+00 -0.00000000000E+00 -0.45593999997E+02  0.45594000000E+02  0.51100000000E-03 0. -1.
    9900012    2    1    2    0    0  0.28889974442E+02 -0.15009215638E+02  0.28700458453E+02  0.47787268524E+02  0.19999988506E+02 0.  0.
         12    1    1    2    0    0 -0.28889974442E+02  0.15009215638E+02 -0.28700458453E+02  0.43400731476E+02  0.00000000000E+00 0. -1.
         11    1    3    3    0    0  0.60648172924E+00 -0.55294871719E+01  0.55833368837E+01  0.78814148153E+01  0.51100000000E-03 0. -1.
        -11    1    3    3    0    0 -0.12815608357E+01 -0.54338091209E+00  0.11743868835E+00  0.13969442000E+01  0.51100000000E-03 0.  1.
        -12    1    3    3    0    0  0.29565053548E+02 -0.89363475535E+01  0.22999682881E+02  0.38508909508E+02  0.00000000000E+00 0.  1.
</event>
<event>
 7    1  0.2387817E-009  0.4778727E+02  0.7816164E-02  0.1312668E+00
        -11   -1    0    0    0    0  0.00000000000E+00  0.00000000000E+00  0.45593999997E+02  0.45594000000E+02  0.51100000000E-03 0.  1.
         11   -1    0    0    0    0 -0.00000000000E+00 -0.00000000000E+00 -0.45593999997E+02  0.45594000000E+02  0.51100000000E-03 0. -1.
    9900012    2    1    2    0    0  0.38551897932E+02  0.98808071065E+00  0.19909751028E+02  0.47787270471E+02  0.19999997386E+02 0.  0.
         12    1    1    2    0    0 -0.38551897932E+02 -0.98808071065E+00 -0.19909751028E+02  0.43400729529E+02  0.00000000000E+00 0. -1.
         11    1    3    3    0    0  0.46669086195E+01  0.45433430319E+01 -0.59555697404E+00  0.65403891580E+01  0.51100000000E-03 0. -1.
        -11    1    3    3    0    0 -0.13828535054E+00  0.11268518052E+01 -0.18763406931E+00  0.11507061458E+01  0.51100000000E-03 0.  1.
        -12    1    3    3    0    0  0.34023274663E+02 -0.46821141264E+01  0.20692942071E+02  0.40096175167E+02  0.00000000000E+00 0.  1.
</event>
<event>
 7    1  0.2387817E-009  0.4778728E+02  0.7816164E-02  0.1312668E+00
        -11   -1    0    0    0    0  0.00000000000E+00  0.00000000000E+00  0.45593999997E+02  0.45594000000E+02  0.51100000000E-03 0. -1.
         11   -1    0    0    0    0 -0.00000000000E+00 -0.00000000000E+00 -0.45593999997E+02  0.45594000000E+02  0.51100000000E-03 0.  1.
    9900012    2    1    2    0    0 -0.38999582082E+02 -0.18966887998E+02  0.17066514156E+01  0.47787275329E+02  0.20000019536E+02 0.  0.
         12    1    1    2    0    0  0.38999582082E+02  0.18966887998E+02 -0.17066514156E+01  0.43400724671E+02  0.00000000000E+00 0. -1.
         11    1    3    3    0    0 -0.67596995803E+01 -0.59119156247E+01  0.37407364699E+01  0.97281752846E+01  0.51100000000E-03 0. -1.
        -11    1    3    3    0    0 -0.13081505241E+02 -0.13532947113E+02 -0.41583927358E+00  0.18826559949E+02  0.51100000000E-03 0.  1.
        -12    1    3    3    0    0 -0.19158377261E+02  0.47797474032E+00 -0.16182457807E+01  0.19232540096E+02  0.00000000000E+00 0.  1.
</event>
<event>
 7    1  0.2387817E-009  0.4778727E+02  0.7816164E-02  0.1312668E+00
        -11   -1    0    0    0    0  0.00000000000E+00  0.00000000000E+00  0.45593999997E+02  0.45594000000E+02  0.51100000000E-03 0.  1.
         11   -1    0    0    0    0 -0.00000000000E+00 -0.00000000000E+00 -0.45593999997E+02  0.45594000000E+02  0.51100000000E-03 0. -1.
    9900012    2    1    2    0    0  0.36183485809E+02 -0.68990013099E+01  0.22951747277E+02  0.47787267663E+02  0.19999984581E+02 0.  0.
         12    1    1    2    0    0 -0.36183485809E+02  0.68990013099E+01 -0.22951747277E+02  0.43400732337E+02  0.00000000000E+00 0. -1.
         11    1    3    3    0    0  0.18250723943E+01 -0.46941547916E+00 -0.26023791816E+01  0.32130387178E+01  0.51100000000E-03 0. -1.
        -11    1    3    3    0    0  0.12223114817E+01 -0.66993282318E+00  0.49256680864E+01  0.51190879758E+01  0.51100000000E-03 0.  1.
        -12    1    3    3    0    0  0.33136101933E+02 -0.57596530075E+01  0.20628458372E+02  0.39455140969E+02  0.00000000000E+00 0.  1.
</event>
<event>
 7    1  0.2387817E-009  0.4778727E+02  0.7816164E-02  0.1312668E+00
        -11   -1    0    0    0    0  0.00000000000E+00  0.00000000000E+00  0.45593999997E+02  0.45594000000E+02  0.51100000000E-03 0. -1.
         11   -1    0    0    0    0 -0.00000000000E+00 -0.00000000000E+00 -0.45593999997E+02  0.45594000000E+02  0.51100000000E-03 0.  1.
    9900012    2    1    2    0    0 -0.16964911468E+02  0.38347190508E+02  0.11194107397E+02  0.47787270958E+02  0.19999999607E+02 0.  0.
         12    1    1    2    0    0  0.16964911468E+02 -0.38347190508E+02 -0.11194107397E+02  0.43400729042E+02  0.00000000000E+00 0. -1.
         11    1    3    3    0    0 -0.44659099531E+01  0.56056765231E+01  0.58005120256E+01  0.92202983146E+01  0.51100000000E-03 0. -1.
        -11    1    3    3    0    0 -0.42898730387E+01 -0.14448932128E+00  0.67105721589E+00  0.43444454077E+01  0.51100000000E-03 0.  1.
        -12    1    3    3    0    0 -0.82091284761E+01  0.32886003306E+02  0.47225381553E+01  0.34222527236E+02  0.00000000000E+00 0.  1.
</event>
<event>
 7    1  0.2387817E-009  0.4778727E+02  0.7816164E-02  0.1312668E+00
        -11   -1    0    0    0    0  0.00000000000E+00  0.00000000000E+00  0.45593999997E+02  0.45594000000E+02  0.51100000000E-03 0.  1.
         11   -1    0    0    0    0 -0.00000000000E+00 -0.00000000000E+00 -0.45593999997E+02  0.45594000000E+02  0.51100000000E-03 0. -1.
    9900012    2    1    2    0    0  0.38044843095E+02  0.56841126811E+01  0.20097360601E+02  0.47787272746E+02  0.20000007757E+02 0.  0.
         12    1    1    2    0    0 -0.38044843095E+02 -0.56841126811E+01 -0.20097360601E+02  0.43400727254E+02  0.00000000000E+00 0. -1.
         11    1    3    3    0    0  0.98956615357E+01  0.45721071213E+01 -0.87818874497E+00  0.10936155471E+02  0.51100000000E-03 0. -1.
        -11    1    3    3    0    0  0.60095738223E+01  0.49872165267E+01  0.58925806399E+01  0.97831392236E+01  0.51100000000E-03 0.  1.
        -12    1    3    3    0    0  0.22139607737E+02 -0.38752109669E+01  0.15082968706E+02  0.27067978051E+02  0.00000000000E+00 0.  1.
</event>
<event>
 7    1  0.2387817E-009  0.4778726E+02  0.7816164E-02  0.1312668E+00
        -11   -1    0    0    0    0  0.00000000000E+00  0.00000000000E+00  0.45593999997E+02  0.45594000000E+02  0.51100000000E-03 0.  1.
         11   -1    0    0    0    0 -0.00000000000E+00 -0.00000000000E+00 -0.45593999997E+02  0.45594000000E+02  0.51100000000E-03 0. -1.
    9900012    2    1    2    0    0 -0.43328066219E+02 -0.17338400860E+01 -0.18155915213E+01  0.47787263874E+02  0.19999967307E+02 0.  0.
         12    1    1    2    0    0  0.43328066219E+02  0.17338400860E+01  0.18155915213E+01  0.43400736126E+02  0.00000000000E+00 0. -1.
         11    1    3    3    0    0 -0.74372184330E+01 -0.39527124678E+01 -0.75040302506E+01  0.11280364539E+02  0.51100000000E-03 0. -1.
        -11    1    3    3    0    0 -0.98291883653E+01 -0.20510286566E+00  0.65461220448E+00  0.98530974067E+01  0.51100000000E-03 0.  1.
         12    1    3    3    0    0 -0.26061659420E+02  0.24239752475E+01  0.50338265248E+01  0.26653801928E+02  0.00000000000E+00 0. -1.
</event>
<event>
 7    1  0.2387817E-009  0.4778724E+02  0.7816164E-02  0.1312668E+00
        -11   -1    0    0    0    0  0.00000000000E+00  0.00000000000E+00  0.45593999997E+02  0.45594000000E+02  0.51100000000E-03 0. -1.
         11   -1    0    0    0    0 -0.00000000000E+00 -0.00000000000E+00 -0.45593999997E+02  0.45594000000E+02  0.51100000000E-03 0.  1.
    9900012    2    1    2    0    0  0.13718399131E+02 -0.33535525832E+02 -0.23891415160E+02  0.47787243257E+02  0.19999873305E+02 0.  0.
         12    1    1    2    0    0 -0.13718399131E+02  0.33535525832E+02  0.23891415160E+02  0.43400756743E+02  0.00000000000E+00 0. -1.
         11    1    3    3    0    0  0.12544323821E+00  0.44571831099E-01 -0.47095921340E+01  0.47114733347E+01  0.51100000000E-03 0. -1.
        -11    1    3    3    0    0  0.56251692558E+01 -0.20927800493E+02 -0.17829615849E+02  0.28062618627E+02  0.51100000000E-03 0.  1.
        -12    1    3    3    0    0  0.79677866366E+01 -0.12652297170E+02 -0.13522071772E+01  0.15013151295E+02  0.00000000000E+00 0.  1.
</event>
<event>
 7    1  0.2387817E-009  0.4778730E+02  0.7816164E-02  0.1312668E+00
        -11   -1    0    0    0    0  0.00000000000E+00  0.00000000000E+00  0.45593999997E+02  0.45594000000E+02  0.51100000000E-03 0. -1.
         11   -1    0    0    0    0 -0.00000000000E+00 -0.00000000000E+00 -0.45593999997E+02  0.45594000000E+02  0.51100000000E-03 0.  1.
    9900012    2    1    2    0    0 -0.10602271531E+01 -0.16579807359E+02 -0.40094969093E+02  0.47787301386E+02  0.20000138337E+02 0.  0.
         12    1    1    2    0    0  0.10602271531E+01  0.16579807359E+02  0.40094969093E+02  0.43400698614E+02  0.00000000000E+00 0. -1.
         11    1    3    3    0    0  0.35643067472E+01 -0.11039916205E+02 -0.97032780178E+01  0.15124074747E+02  0.51100000000E-03 0. -1.
        -11    1    3    3    0    0 -0.23293802706E+01  0.70173471024E+00 -0.11795262512E+01  0.27036505852E+01  0.51100000000E-03 0.  1.
        -12    1    3    3    0    0 -0.22951536297E+01 -0.62416258639E+01 -0.29212164824E+02  0.29959576053E+02  0.00000000000E+00 0.  1.
</event>
<event>
 7    1  0.2387817E-009  0.4778729E+02  0.7816164E-02  0.1312668E+00
        -11   -1    0    0    0    0  0.00000000000E+00  0.00000000000E+00  0.45593999997E+02  0.45594000000E+02  0.51100000000E-03 0. -1.
         11   -1    0    0    0    0 -0.00000000000E+00 -0.00000000000E+00 -0.45593999997E+02  0.45594000000E+02  0.51100000000E-03 0.  1.
    9900012    2    1    2    0    0 -0.35786017974E+01 -0.33249374319E+02  0.27663956723E+02  0.47787288196E+02  0.20000078203E+02 0.  0.
         12    1    1    2    0    0  0.35786017974E+01  0.33249374319E+02 -0.27663956723E+02  0.43400711804E+02  0.00000000000E+00 0. -1.
         11    1    3    3    0    0  0.13390589629E+00  0.10350736921E+01 -0.88564796993E+00  0.13688246509E+01  0.51100000000E-03 0. -1.
        -11    1    3    3    0    0  0.23742489934E+01 -0.80319594904E+00  0.13044356373E+01  0.28255503195E+01  0.51100000000E-03 0.  1.
        -12    1    3    3    0    0 -0.60867566871E+01 -0.33481252062E+02  0.27245169056E+02  0.43592913226E+02  0.00000000000E+00 0.  1.
</event>
<event>
 7    1  0.2387817E-009  0.4778727E+02  0.7816164E-02  0.1312668E+00
        -11   -1    0    0    0    0  0.00000000000E+00  0.00000000000E+00  0.45593999997E+02  0.45594000000E+02  0.51100000000E-03 0.  1.
         11   -1    0    0    0    0 -0.00000000000E+00 -0.00000000000E+00 -0.45593999997E+02  0.45594000000E+02  0.51100000000E-03 0. -1.
    9900012    2    1    2    0    0 -0.13747745069E+02  0.20552748572E+02  0.35668019899E+02  0.47787267150E+02  0.19999982246E+02 0.  0.
         12    1    1    2    0    0  0.13747745069E+02 -0.20552748572E+02 -0.35668019899E+02  0.43400732850E+02  0.00000000000E+00 0. -1.
         11    1    3    3    0    0 -0.50160110663E+00 -0.10777976325E+01  0.75088681930E+01  0.76023912822E+01  0.51100000000E-03 0. -1.
        -11    1    3    3    0    0 -0.63527111830E+01  0.11286970940E+02  0.23645864166E+02  0.26960703715E+02  0.51100000000E-03 0.  1.
         12    1    3    3    0    0 -0.68934327791E+01  0.10343575264E+02  0.45132875407E+01  0.13224172154E+02  0.00000000000E+00 0. -1.
</event>
<event>
 7    1  0.2387817E-009  0.4778727E+02  0.7816164E-02  0.1312668E+00
        -11   -1    0    0    0    0  0.00000000000E+00  0.00000000000E+00  0.45593999997E+02  0.45594000000E+02  0.51100000000E-03 0. -1.
         11   -1    0    0    0    0 -0.00000000000E+00 -0.00000000000E+00 -0.45593999997E+02  0.45594000000E+02  0.51100000000E-03 0.  1.
    9900012    2    1    2    0    0  0.40804608406E+02  0.12939274593E+02 -0.71541891371E+01  0.47787270555E+02  0.19999997769E+02 0.  0.
         12    1    1    2    0    0 -0.40804608406E+02 -0.12939274593E+02  0.71541891371E+01  0.43400729445E+02  0.00000000000E+00 0. -1.
         11    1    3    3    0    0  0.14510075175E+02  0.55884934455E+01 -0.15863707445E+01  0.15629782883E+02  0.51100000000E-03 0. -1.
        -11    1    3    3    0    0  0.54374697870E+01  0.92053393869E+01 -0.11091594039E+01  0.10748701585E+02  0.51100000000E-03 0.  1.
         12    1    3    3    0    0  0.20857063444E+02 -0.18545582392E+01 -0.44586589887E+01  0.21408786087E+02  0.00000000000E+00 0. -1.
</event>
<event>
 7    1  0.2387817E-009  0.4778726E+02  0.7816164E-02  0.1312668E+00
        -11   -1    0    0    0    0  0.00000000000E+00  0.00000000000E+00  0.45593999997E+02  0.45594000000E+02  0.51100000000E-03 0. -1.
         11   -1    0    0    0    0 -0.00000000000E+00 -0.00000000000E+00 -0.45593999997E+02  0.45594000000E+02  0.51100000000E-03 0.  1.
    9900012    2    1    2    0    0  0.37513487080E+02  0.17540114641E+02 -0.12988707325E+02  0.47787264379E+02  0.19999969608E+02 0.  0.
         12    1    1    2    0    0 -0.37513487080E+02 -0.17540114641E+02  0.12988707325E+02  0.43400735621E+02  0.00000000000E+00 0. -1.
         11    1    3    3    0    0  0.12472608855E+01  0.54890921145E+01 -0.40993028732E+00  0.56439201854E+01  0.51100000000E-03 0. -1.
        -11    1    3    3    0    0  0.76895011223E+01 -0.11822120359E+01  0.10090149984E+01  0.78450088806E+01  0.51100000000E-03 0.  1.
         12    1    3    3    0    0  0.28576725072E+02  0.13233234563E+02 -0.13587792036E+02  0.34298335313E+02  0.00000000000E+00 0. -1.
</event>
<event>
 7    1  0.2387817E-009  0.4778727E+02  0.7816164E-02  0.1312668E+00
        -11   -1    0    0    0    0  0.00000000000E+00  0.00000000000E+00  0.45593999997E+02  0.45594000000E+02  0.51100000000E-03 0.  1.
         11   -1    0    0    0    0 -0.00000000000E+00 -0.00000000000E+00 -0.45593999997E+02  0.45594000000E+02  0.51100000000E-03 0. -1.
    9900012    2    1    2    0    0 -0.23022616963E+02 -0.33357283745E+02  0.15520116600E+02  0.47787270860E+02  0.19999999158E+02 0.  0.
         12    1    1    2    0    0  0.23022616963E+02  0.33357283745E+02 -0.15520116600E+02  0.43400729140E+02  0.00000000000E+00 0. -1.
         11    1    3    3    0    0 -0.10212072577E+02 -0.82946707694E+01  0.94428474622E+01  0.16194300168E+02  0.51100000000E-03 0. -1.
        -11    1    3    3    0    0 -0.11901515956E+02 -0.12801758241E+02  0.78681842782E+01  0.19168709404E+02  0.51100000000E-03 0.  1.
         12    1    3    3    0    0 -0.90902842984E+00 -0.12260854734E+02 -0.17909151401E+01  0.12424261288E+02  0.00000000000E+00 0. -1.
</event>
<event>
 7    1  0.2387817E-009  0.4778727E+02  0.7816164E-02  0.1312668E+00
        -11   -1    0    0    0    0  0.00000000000E+00  0.00000000000E+00  0.45593999997E+02  0.45594000000E+02  0.51100000000E-03 0.  1.
         11   -1    0    0    0    0 -0.00000000000E+00 -0.00000000000E+00 -0.45593999997E+02  0.45594000000E+02  0.51100000000E-03 0. -1.
    9900012    2    1    2    0    0 -0.96693828163E+01 -0.36176408492E+02  0.21940691004E+02  0.47787269393E+02  0.19999992472E+02 0.  0.
         12    1    1    2    0    0  0.96693828163E+01  0.36176408492E+02 -0.21940691004E+02  0.43400730607E+02  0.00000000000E+00 0. -1.
         11    1    3    3    0    0 -0.26689325152E+01 -0.36780897106E+01  0.96851271291E+00  0.46464569110E+01  0.51100000000E-03 0. -1.
        -11    1    3    3    0    0 -0.72824762767E+01 -0.34711637138E+02  0.19822324780E+02  0.40630736807E+02  0.51100000000E-03 0.  1.
         12    1    3    3    0    0  0.28202597556E+00  0.22133183565E+01  0.11498535110E+01  0.25100756751E+01  0.00000000000E+00 0. -1.
</event>
<event>
 7    1  0.2387817E-009  0.4778727E+02  0.7816164E-02  0.1312668E+00
        -11   -1    0    0    0    0  0.00000000000E+00  0.00000000000E+00  0.45593999997E+02  0.45594000000E+02  0.51100000000E-03 0.  1.
         11   -1    0    0    0    0 -0.00000000000E+00 -0.00000000000E+00 -0.45593999997E+02  0.45594000000E+02  0.51100000000E-03 0. -1.
    9900012    2    1    2    0    0  0.25147463025E+02 -0.11995719741E+02  0.33276585065E+02  0.47787270717E+02  0.19999998509E+02 0.  0.
         12    1    1    2    0    0 -0.25147463025E+02  0.11995719741E+02 -0.33276585065E+02  0.43400729283E+02  0.00000000000E+00 0. -1.
         11    1    3    3    0    0 -0.13115115271E+01 -0.77840251756E-01 -0.10173661494E+01  0.16616725711E+01  0.51100000000E-03 0. -1.
        -11    1    3    3    0    0  0.77850067538E+00 -0.65573929382E-01  0.62395216470E+01  0.62882425117E+01  0.51100000000E-03 0.  1.
        -12    1    3    3    0    0  0.25680473877E+02 -0.11852305559E+02  0.28054429567E+02  0.39837355635E+02  0.00000000000E+00 0.  1.
</event>
<event>
 7    1  0.2387817E-009  0.4778727E+02  0.7816164E-02  0.1312668E+00
        -11   -1    0    0    0    0  0.00000000000E+00  0.00000000000E+00  0.45593999997E+02  0.45594000000E+02  0.51100000000E-03 0. -1.
         11   -1    0    0    0    0 -0.00000000000E+00 -0.00000000000E+00 -0.45593999997E+02  0.45594000000E+02  0.51100000000E-03 0.  1.
    9900012    2    1    2    0    0 -0.35453626954E+01  0.15661513861E+02 -0.40320846724E+02  0.47787270817E+02  0.19999998964E+02 0.  0.
         12    1    1    2    0    0  0.35453626954E+01 -0.15661513861E+02  0.40320846724E+02  0.43400729183E+02  0.00000000000E+00 0. -1.
         11    1    3    3    0    0 -0.22938247533E+01  0.34940301160E+01 -0.11345725377E+02  0.12091127451E+02  0.51100000000E-03 0. -1.
        -11    1    3    3    0    0 -0.17608185382E+01  0.66854583465E+01 -0.29373496653E+02  0.30176118721E+02  0.51100000000E-03 0.  1.
         12    1    3    3    0    0  0.50928059607E+00  0.54820253981E+01  0.39837530541E+00  0.55200246444E+01  0.00000000000E+00 0. -1.
</event>
<event>
 7    1  0.2387817E-009  0.4778728E+02  0.7816164E-02  0.1312668E+00
        -11   -1    0    0    0    0  0.00000000000E+00  0.00000000000E+00  0.45593999997E+02  0.45594000000E+02  0.51100000000E-03 0. -1.
         11   -1    0    0    0    0 -0.00000000000E+00 -0.00000000000E+00 -0.45593999997E+02  0.45594000000E+02  0.51100000000E-03 0.  1.
    9900012    2    1    2    0    0  0.13132045835E+02 -0.40172019603E+02  0.98681545883E+01  0.47787282704E+02  0.20000053163E+02 0.  0.
         12    1    1    2    0    0 -0.13132045835E+02  0.40172019603E+02 -0.98681545883E+01  0.43400717296E+02  0.00000000000E+00 0. -1.
         11    1    3    3    0    0 -0.12350757034E+01 -0.14397293164E+02  0.28010809903E+01  0.14719154780E+02  0.51100000000E-03 0. -1.
        -11    1    3    3    0    0  0.57338786019E+01 -0.20918304827E+02  0.15871604934E+01  0.21747917586E+02  0.51100000000E-03 0.  1.
         12    1    3    3    0    0  0.86332429367E+01 -0.48564216119E+01  0.54799131047E+01  0.11320210339E+02  0.00000000000E+00 0. -1.
</event>
<event>
 7    1  0.2387817E-009  0.4778728E+02  0.7816164E-02  0.1312668E+00
        -11   -1    0    0    0    0  0.00000000000E+00  0.00000000000E+00  0.45593999997E+02  0.45594000000E+02  0.51100000000E-03 0.  1.
         11   -1    0    0    0    0 -0.00000000000E+00 -0.00000000000E+00 -0.45593999997E+02  0.45594000000E+02  0.51100000000E-03 0. -1.
    9900012    2    1    2    0    0  0.17103614073E+02 -0.39726842812E+02 -0.35870847549E+01  0.47787276145E+02  0.20000023254E+02 0.  0.
         12    1    1    2    0    0 -0.17103614073E+02  0.39726842812E+02  0.35870847549E+01  0.43400723855E+02  0.00000000000E+00 0. -1.
         11    1    3    3    0    0 -0.52724284441E-01  0.47008727906E+00  0.87559956010E-01  0.48107058435E+00  0.51100000000E-03 0. -1.
        -11    1    3    3    0    0  0.56886723766E+01 -0.19971383298E+02 -0.10230702665E+02  0.23149177556E+02  0.51100000000E-03 0.  1.
        -12    1    3    3    0    0  0.11467665981E+02 -0.20225546793E+02  0.65560579537E+01  0.24157028005E+02  0.00000000000E+00 0.  1.
</event>
<event>
 7    1  0.2387817E-009  0.4778728E+02  0.7816164E-02  0.1312668E+00
        -11   -1    0    0    0    0  0.00000000000E+00  0.00000000000E+00  0.45593999997E+02  0.45594000000E+02  0.51100000000E-03 0. -1.
         11   -1    0    0    0    0 -0.00000000000E+00 -0.00000000000E+00 -0.45593999997E+02  0.45594000000E+02  0.51100000000E-03 0.  1.
    9900012    2    1    2    0    0  0.15943639458E+02 -0.39791888870E+02  0.67844496371E+01  0.47787276321E+02  0.20000024058E+02 0.  0.
         12    1    1    2    0    0 -0.15943639458E+02  0.39791888870E+02 -0.67844496371E+01  0.43400723679E+02  0.00000000000E+00 0. -1.
         11    1    3    3    0    0  0.34920356122E+01 -0.56089906871E+01 -0.46149687455E+01  0.80593440197E+01  0.51100000000E-03 0.  1.
        -11    1    3    3    0    0  0.13199857088E+01  0.29563906075E+00 -0.70895048549E+00  0.15272117659E+01  0.51100000000E-03 0. -1.
        -12    1    3    3    0    0  0.11131618137E+02 -0.34478537243E+02  0.12108368868E+02  0.38200720535E+02  0.00000000000E+00 0.  1.
</event>
<event>
 7    1  0.2387817E-009  0.4778732E+02  0.7816164E-02  0.1312668E+00
        -11   -1    0    0    0    0  0.00000000000E+00  0.00000000000E+00  0.45593999997E+02  0.45594000000E+02  0.51100000000E-03 0.  1.
         11   -1    0    0    0    0 -0.00000000000E+00 -0.00000000000E+00 -0.45593999997E+02  0.45594000000E+02  0.51100000000E-03 0. -1.
    9900012    2    1    2    0    0 -0.14151073885E+02  0.20877197046E+02  0.35320088344E+02  0.47787321558E+02  0.20000230310E+02 0.  0.
         12    1    1    2    0    0  0.14151073885E+02 -0.20877197046E+02 -0.35320088344E+02  0.43400678442E+02  0.00000000000E+00 0. -1.
         11    1    3    3    0    0 -0.31200556487E+01  0.89098620444E+01  0.98969023724E+01  0.13677319391E+02  0.51100000000E-03 0. -1.
        -11    1    3    3    0    0 -0.56258972479E+00  0.84929754219E+01  0.28326571137E+01  0.89705677245E+01  0.51100000000E-03 0.  1.
        -12    1    3    3    0    0 -0.10468428512E+02  0.34743595800E+01  0.22590528858E+02  0.25139434442E+02  0.00000000000E+00 0.  1.
</event>
<event>
 7    1  0.2387817E-009  0.4778727E+02  0.7816164E-02  0.1312668E+00
        -11   -1    0    0    0    0  0.00000000000E+00  0.00000000000E+00  0.45593999997E+02  0.45594000000E+02  0.51100000000E-03 0.  1.
         11   -1    0    0    0    0 -0.00000000000E+00 -0.00000000000E+00 -0.45593999997E+02  0.45594000000E+02  0.51100000000E-03 0. -1.
    9900012    2    1    2    0    0 -0.26452480197E+02 -0.16118969003E+02  0.30398493538E+02  0.47787270978E+02  0.19999999697E+02 0.  0.
         12    1    1    2    0    0  0.26452480197E+02  0.16118969003E+02 -0.30398493538E+02  0.43400729022E+02  0.00000000000E+00 0. -1.
         11    1    3    3    0    0 -0.60406705555E+01 -0.12538314265E+01 -0.70406515681E-01  0.61698258764E+01  0.51100000000E-03 0. -1.
        -11    1    3    3    0    0 -0.17803695160E+02 -0.11406048364E+02  0.16004352632E+02  0.26518084472E+02  0.51100000000E-03 0.  1.
         12    1    3    3    0    0 -0.26081144818E+01 -0.34590892126E+01  0.14464547421E+02  0.15099360630E+02  0.00000000000E+00 0. -1.
</event>
<event>
 7    1  0.2388228E-009  0.4778727E+02  0.7816164E-02  0.1312668E+00
        -11   -1    0    0    0    0  0.00000000000E+00  0.00000000000E+00  0.45593999997E+02  0.45594000000E+02  0.51100000000E-03 0. -1.
         11   -1    0    0    0    0 -0.00000000000E+00 -0.00000000000E+00 -0.45593999997E+02  0.45594000000E+02  0.51100000000E-03 0.  1.
    9900012    2    1    2    0    0 -0.28648058721E+02 -0.25003007594E+02 -0.20922745770E+02  0.47787274801E+02  0.20000017128E+02 0.  0.
         12    1    1    2    0    0  0.28648058721E+02  0.25003007594E+02  0.20922745770E+02  0.43400725199E+02  0.00000000000E+00 0. -1.
         11    1    3    3    0    0 -0.20340218080E+02 -0.12399992171E+02 -0.60752519692E+01  0.24584404896E+02  0.51100000000E-03 0. -1.
        -11    1    3    3    0    0 -0.94728094602E+01 -0.11488984705E+02 -0.96086457083E+01  0.17721652328E+02  0.51100000000E-03 0.  1.
         12    1    3    3    0    0  0.11649688186E+01 -0.11140307179E+01 -0.52388480921E+01  0.54812175765E+01  0.00000000000E+00 0. -1.
</event>
<event>
 7    1  0.2387817E-009  0.4778728E+02  0.7816164E-02  0.1312668E+00
        -11   -1    0    0    0    0  0.00000000000E+00  0.00000000000E+00  0.45593999997E+02  0.45594000000E+02  0.51100000000E-03 0.  1.
         11   -1    0    0    0    0 -0.00000000000E+00 -0.00000000000E+00 -0.45593999997E+02  0.45594000000E+02  0.51100000000E-03 0. -1.
    9900012    2    1    2    0    0 -0.57133328887E+01 -0.62370877848E+01  0.42568522546E+02  0.47787279402E+02  0.20000038104E+02 0.  0.
         12    1    1    2    0    0  0.57133328887E+01  0.62370877848E+01 -0.42568522546E+02  0.43400720598E+02  0.00000000000E+00 0. -1.
         11    1    3    3    0    0  0.18946077843E+00 -0.24636204167E+01  0.17737789747E+01  0.30416464384E+01  0.51100000000E-03 0. -1.
        -11    1    3    3    0    0 -0.10932205237E+02  0.15372617735E+01  0.23280331637E+02  0.25765289179E+02  0.51100000000E-03 0.  1.
        -12    1    3    3    0    0  0.50294115702E+01 -0.53107291416E+01  0.17514411934E+02  0.18980343784E+02  0.00000000000E+00 0.  1.
</event>
<event>
 7    1  0.3561472E-009  0.4778727E+02  0.7816164E-02  0.1312668E+00
        -11   -1    0    0    0    0  0.00000000000E+00  0.00000000000E+00  0.45593999997E+02  0.45594000000E+02  0.51100000000E-03 0.  1.
         11   -1    0    0    0    0 -0.00000000000E+00 -0.00000000000E+00 -0.45593999997E+02  0.45594000000E+02  0.51100000000E-03 0. -1.
    9900012    2    1    2    0    0 -0.22050038730E+01 -0.42711980174E+02 -0.73788718649E+01  0.47787273711E+02  0.20000012156E+02 0.  0.
         12    1    1    2    0    0  0.22050038730E+01  0.42711980174E+02  0.73788718649E+01  0.43400726289E+02  0.00000000000E+00 0. -1.
         11    1    3    3    0    0 -0.73129870212E+00 -0.98659863883E+01  0.20668557550E+01  0.10106650196E+02  0.51100000000E-03 0. -1.
        -11    1    3    3    0    0 -0.43638635123E+01 -0.30612783222E+02 -0.40807123746E+01  0.31190351314E+02  0.51100000000E-03 0.  1.
         12    1    3    3    0    0  0.28901583414E+01 -0.22332105636E+01 -0.53650152453E+01  0.64902722009E+01  0.00000000000E+00 0. -1.
</event>
<event>
 7    1  0.2387817E-009  0.4778723E+02  0.7816164E-02  0.1312668E+00
        -11   -1    0    0    0    0  0.00000000000E+00  0.00000000000E+00  0.45593999997E+02  0.45594000000E+02  0.51100000000E-03 0. -1.
         11   -1    0    0    0    0 -0.00000000000E+00 -0.00000000000E+00 -0.45593999997E+02  0.45594000000E+02  0.51100000000E-03 0.  1.
    9900012    2    1    2    0    0  0.25412479387E+02  0.33281356930E+02 -0.11409818853E+02  0.47787230491E+02  0.19999815099E+02 0.  0.
         12    1    1    2    0    0 -0.25412479387E+02 -0.33281356930E+02  0.11409818853E+02  0.43400769509E+02  0.00000000000E+00 0. -1.
         11    1    3    3    0    0  0.15120427718E+02  0.20995270988E+02 -0.74619314495E+00  0.25884078942E+02  0.51100000000E-03 0. -1.
        -11    1    3    3    0    0  0.85996035105E+01  0.54280466280E+01 -0.14178124750E+01  0.10267768171E+02  0.51100000000E-03 0.  1.
        -12    1    3    3    0    0  0.16924481590E+01  0.68580393147E+01 -0.92458132330E+01  0.11635383378E+02  0.00000000000E+00 0.  1.
</event>
<event>
 7    1  0.2387817E-009  0.4778727E+02  0.7816164E-02  0.1312668E+00
        -11   -1    0    0    0    0  0.00000000000E+00  0.00000000000E+00  0.45593999997E+02  0.45594000000E+02  0.51100000000E-03 0.  1.
         11   -1    0    0    0    0 -0.00000000000E+00 -0.00000000000E+00 -0.45593999997E+02  0.45594000000E+02  0.51100000000E-03 0. -1.
    9900012    2    1    2    0    0 -0.31049440012E+02 -0.24576667962E+02  0.17763525617E+02  0.47787272178E+02  0.20000005167E+02 0.  0.
         12    1    1    2    0    0  0.31049440012E+02  0.24576667962E+02 -0.17763525617E+02  0.43400727822E+02  0.00000000000E+00 0. -1.
         11    1    3    3    0    0 -0.12857593468E+02 -0.13554490781E+02  0.83302023978E+01  0.20455664310E+02  0.51100000000E-03 0. -1.
        -11    1    3    3    0    0 -0.11510500758E+02 -0.14175140374E+02  0.64918322266E+01  0.19379631531E+02  0.51100000000E-03 0.  1.
         12    1    3    3    0    0 -0.66813457857E+01  0.31529631933E+01  0.29414909922E+01  0.79519763369E+01  0.00000000000E+00 0. -1.
</event>
<event>
 7    1  0.2387817E-009  0.4778727E+02  0.7816164E-02  0.1312668E+00
        -11   -1    0    0    0    0  0.00000000000E+00  0.00000000000E+00  0.45593999997E+02  0.45594000000E+02  0.51100000000E-03 0.  1.
         11   -1    0    0    0    0 -0.00000000000E+00 -0.00000000000E+00 -0.45593999997E+02  0.45594000000E+02  0.51100000000E-03 0. -1.
    9900012    2    1    2    0    0 -0.24799052148E+02  0.21638188069E+02  0.28291685362E+02  0.47787266931E+02  0.19999981244E+02 0.  0.
         12    1    1    2    0    0  0.24799052148E+02 -0.21638188069E+02 -0.28291685362E+02  0.43400733069E+02  0.00000000000E+00 0. -1.
         11    1    3    3    0    0 -0.79492866610E+01  0.44327680549E+01  0.76922639730E+00  0.91341283415E+01  0.51100000000E-03 0. -1.
        -11    1    3    3    0    0 -0.10027604137E+02  0.19078412803E+01  0.82938324527E+01  0.13152199820E+02  0.51100000000E-03 0.  1.
        -12    1    3    3    0    0 -0.68221613496E+01  0.15297578734E+02  0.19228626512E+02  0.25500938770E+02  0.00000000000E+00 0.  1.
</event>
<event>
 7    1  0.2387817E-009  0.4778731E+02  0.7816164E-02  0.1312668E+00
        -11   -1    0    0    0    0  0.00000000000E+00  0.00000000000E+00  0.45593999997E+02  0.45594000000E+02  0.51100000000E-03 0.  1.
         11   -1    0    0    0    0 -0.00000000000E+00 -0.00000000000E+00 -0.45593999997E+02  0.45594000000E+02  0.51100000000E-03 0. -1.
    9900012    2    1    2    0    0  0.15857357749E+02  0.29508386247E+02  0.27593831291E+02  0.47787306699E+02  0.20000162562E+02 0.  0.
         12    1    1    2    0    0 -0.15857357749E+02 -0.29508386247E+02 -0.27593831291E+02  0.43400693301E+02  0.00000000000E+00 0. -1.
         11    1    3    3    0    0  0.15629069033E+01  0.40353166173E+00 -0.11702012283E+01  0.19937118563E+01  0.51100000000E-03 0. -1.
        -11    1    3    3    0    0  0.23427835880E+01  0.10293850106E+02  0.16332207979E+01  0.10682667990E+02  0.51100000000E-03 0.  1.
        -12    1    3    3    0    0  0.11951667258E+02  0.18811004479E+02  0.27130811722E+02  0.35110926852E+02  0.00000000000E+00 0.  1.
</event>
<event>
 7    1  0.2387817E-009  0.4778727E+02  0.7816164E-02  0.1312668E+00
        -11   -1    0    0    0    0  0.00000000000E+00  0.00000000000E+00  0.45593999997E+02  0.45594000000E+02  0.51100000000E-03 0. -1.
         11   -1    0    0    0    0 -0.00000000000E+00 -0.00000000000E+00 -0.45593999997E+02  0.45594000000E+02  0.51100000000E-03 0.  1.
    9900012    2    1    2    0    0  0.27797532285E+02 -0.30561142617E+02  0.13301779436E+02  0.47787267572E+02  0.19999984166E+02 0.  0.
         12    1    1    2    0    0 -0.27797532285E+02  0.30561142617E+02 -0.13301779436E+02  0.43400732428E+02  0.00000000000E+00 0. -1.
         11    1    3    3    0    0  0.79127671064E+01 -0.11768466665E+02  0.11989098972E+00  0.14181786384E+02  0.51100000000E-03 0. -1.
        -11    1    3    3    0    0  0.14514715180E+02 -0.11407393955E+02  0.11441901567E+01  0.18496344638E+02  0.51100000000E-03 0.  1.
         12    1    3    3    0    0  0.53700499983E+01 -0.73852819965E+01  0.12037698290E+02  0.15109136549E+02  0.00000000000E+00 0. -1.
</event>
<event>
 7    1  0.2387817E-009  0.4778726E+02  0.7816164E-02  0.1312668E+00
        -11   -1    0    0    0    0  0.00000000000E+00  0.00000000000E+00  0.45593999997E+02  0.45594000000E+02  0.51100000000E-03 0. -1.
         11   -1    0    0    0    0 -0.00000000000E+00 -0.00000000000E+00 -0.45593999997E+02  0.45594000000E+02  0.51100000000E-03 0.  1.
    9900012    2    1    2    0    0  0.37662992691E+02 -0.38530007510E+01 -0.21219739944E+02  0.47787262719E+02  0.19999962042E+02 0.  0.
         12    1    1    2    0    0 -0.37662992691E+02  0.38530007510E+01  0.21219739944E+02  0.43400737281E+02  0.00000000000E+00 0. -1.
         11    1    3    3    0    0  0.85887772027E+00 -0.32741234960E+01  0.10739668933E+00  0.33866044817E+01  0.51100000000E-03 0. -1.
        -11    1    3    3    0    0  0.49361821796E+00 -0.24160213961E+01 -0.55315767734E+00  0.25272122999E+01  0.51100000000E-03 0.  1.
        -12    1    3    3    0    0  0.36310496753E+02  0.18371441411E+01 -0.20773978956E+02  0.41873445938E+02  0.00000000000E+00 0.  1.
</event>
<event>
 7    1  0.2387817E-009  0.4778727E+02  0.7816164E-02  0.1312668E+00
        -11   -1    0    0    0    0  0.00000000000E+00  0.00000000000E+00  0.45593999997E+02  0.45594000000E+02  0.51100000000E-03 0. -1.
         11   -1    0    0    0    0 -0.00000000000E+00 -0.00000000000E+00 -0.45593999997E+02  0.45594000000E+02  0.51100000000E-03 0.  1.
    9900012    2    1    2    0    0 -0.47919288897E+01  0.37767144762E+02 -0.20839948906E+02  0.47787271016E+02  0.19999999869E+02 0.  0.
         12    1    1    2    0    0  0.47919288897E+01 -0.37767144762E+02  0.20839948906E+02  0.43400728984E+02  0.00000000000E+00 0. -1.
         11    1    3    3    0    0  0.55644625941E+00  0.10518622483E+02 -0.82575035788E+00  0.10565647888E+02  0.51100000000E-03 0. -1.
        -11    1    3    3    0    0 -0.83185410852E+01  0.24356192139E+02 -0.12438286469E+02  0.28585541657E+02  0.51100000000E-03 0.  1.
        -12    1    3    3    0    0  0.29701659361E+01  0.28923301396E+01 -0.75759120794E+01  0.86360814702E+01  0.00000000000E+00 0.  1.
</event>
<event>
 7    1  0.2387817E-009  0.4778727E+02  0.7816164E-02  0.1312668E+00
        -11   -1    0    0    0    0  0.00000000000E+00  0.00000000000E+00  0.45593999997E+02  0.45594000000E+02  0.51100000000E-03 0.  1.
         11   -1    0    0    0    0 -0.00000000000E+00 -0.00000000000E+00 -0.45593999997E+02  0.45594000000E+02  0.51100000000E-03 0. -1.
    9900012    2    1    2    0    0  0.15526931314E+02  0.14505192449E+02  0.37843588961E+02  0.47787269252E+02  0.19999991827E+02 0.  0.
         12    1    1    2    0    0 -0.15526931314E+02 -0.14505192449E+02 -0.37843588961E+02  0.43400730748E+02  0.00000000000E+00 0. -1.
         11    1    3    3    0    0  0.10375337333E+02  0.10610552641E+02  0.23991379531E+02  0.28210241832E+02  0.51100000000E-03 0.  1.
        -11    1    3    3    0    0  0.93787045413E+00  0.78809935948E+01  0.91296785656E+01  0.12097135694E+02  0.51100000000E-03 0. -1.
         12    1    3    3    0    0  0.42137235268E+01 -0.39863537867E+01  0.47225308642E+01  0.74798917263E+01  0.00000000000E+00 0. -1.
</event>
<event>
 7    1  0.2387817E-009  0.4778727E+02  0.7816164E-02  0.1312668E+00
        -11   -1    0    0    0    0  0.00000000000E+00  0.00000000000E+00  0.45593999997E+02  0.45594000000E+02  0.51100000000E-03 0.  1.
         11   -1    0    0    0    0 -0.00000000000E+00 -0.00000000000E+00 -0.45593999997E+02  0.45594000000E+02  0.51100000000E-03 0. -1.
    9900012    2    1    2    0    0 -0.19349155213E+02  0.19131294763E+01  0.38801715390E+02  0.47787274325E+02  0.20000014958E+02 0.  0.
         12    1    1    2    0    0  0.19349155213E+02 -0.19131294763E+01 -0.38801715390E+02  0.43400725675E+02  0.00000000000E+00 0. -1.
         11    1    3    3    0    0 -0.58842498726E+01 -0.21935734808E+00  0.12613119745E+02  0.13919888799E+02  0.51100000000E-03 0. -1.
        -11    1    3    3    0    0 -0.32243843147E+01 -0.70023280753E+01  0.84087294407E+01  0.11407715974E+02  0.51100000000E-03 0.  1.
         12    1    3    3    0    0 -0.10240521026E+02  0.91348148996E+01  0.17779866205E+02  0.22459669552E+02  0.00000000000E+00 0. -1.
</event>
<event>
 7    1  0.2387817E-009  0.4778727E+02  0.7816164E-02  0.1312668E+00
        -11   -1    0    0    0    0  0.00000000000E+00  0.00000000000E+00  0.45593999997E+02  0.45594000000E+02  0.51100000000E-03 0.  1.
         11   -1    0    0    0    0 -0.00000000000E+00 -0.00000000000E+00 -0.45593999997E+02  0.45594000000E+02  0.51100000000E-03 0. -1.
    9900012    2    1    2    0    0  0.27191358401E+02  0.25991660019E+02  0.21649177843E+02  0.47787271164E+02  0.20000000544E+02 0.  0.
         12    1    1    2    0    0 -0.27191358401E+02 -0.25991660019E+02 -0.21649177843E+02  0.43400728836E+02  0.00000000000E+00 0. -1.
         11    1    3    3    0    0  0.17039733608E+01 -0.34214897450E-01  0.31892389148E+01  0.36160670611E+01  0.51100000000E-03 0. -1.
        -11    1    3    3    0    0  0.68718131044E+01 -0.75280462959E+00  0.47922209822E+00  0.69295154400E+01  0.51100000000E-03 0.  1.
         12    1    3    3    0    0  0.18615571936E+02  0.26778679546E+02  0.17980716830E+02  0.37241688663E+02  0.00000000000E+00 0. -1.
</event>
<event>
 7    1  0.2387817E-009  0.4778727E+02  0.7816164E-02  0.1312668E+00
        -11   -1    0    0    0    0  0.00000000000E+00  0.00000000000E+00  0.45593999997E+02  0.45594000000E+02  0.51100000000E-03 0. -1.
         11   -1    0    0    0    0 -0.00000000000E+00 -0.00000000000E+00 -0.45593999997E+02  0.45594000000E+02  0.51100000000E-03 0.  1.
    9900012    2    1    2    0    0  0.39684598879E+02 -0.10904501189E+02 -0.13778540011E+02  0.47787266145E+02  0.19999977659E+02 0.  0.
         12    1    1    2    0    0 -0.39684598879E+02  0.10904501189E+02  0.13778540011E+02  0.43400733855E+02  0.00000000000E+00 0. -1.
         11    1    3    3    0    0  0.43994860473E+00  0.80289420121E+00  0.26132907076E+01  0.27690219314E+01  0.51100000000E-03 0. -1.
        -11    1    3    3    0    0  0.46276980188E+01  0.14974974763E+01 -0.22785849936E+01  0.53712230897E+01  0.51100000000E-03 0.  1.
        -12    1    3    3    0    0  0.34616952255E+02 -0.13204892867E+02 -0.14113245725E+02  0.39647021123E+02  0.00000000000E+00 0.  1.
</event>
<event>
 7    1  0.2387817E-009  0.4778727E+02  0.7816164E-02  0.1312668E+00
        -11   -1    0    0    0    0  0.00000000000E+00  0.00000000000E+00  0.45593999997E+02  0.45594000000E+02  0.51100000000E-03 0. -1.
         11   -1    0    0    0    0 -0.00000000000E+00 -0.00000000000E+00 -0.45593999997E+02  0.45594000000E+02  0.51100000000E-03 0.  1.
    9900012    2    1    2    0    0  0.17743969351E+01  0.42066726626E+02  0.10529257661E+02  0.47787271430E+02  0.20000001759E+02 0.  0.
         12    1    1    2    0    0 -0.17743969351E+01 -0.42066726626E+02 -0.10529257661E+02  0.43400728570E+02  0.00000000000E+00 0. -1.
         11    1    3    3    0    0  0.60602940835E+01  0.25433135883E+02  0.12883725474E+02  0.29147245969E+02  0.51100000000E-03 0.  1.
        -11    1    3    3    0    0 -0.10234943325E+01  0.68348841383E+01  0.23387889132E+01  0.72961027730E+01  0.51100000000E-03 0. -1.
         12    1    3    3    0    0 -0.32624028159E+01  0.97987066042E+01 -0.46932567265E+01  0.11343922688E+02  0.00000000000E+00 0. -1.
</event>
<event>
 7    1  0.2387817E-009  0.4778727E+02  0.7816164E-02  0.1312668E+00
        -11   -1    0    0    0    0  0.00000000000E+00  0.00000000000E+00  0.45593999997E+02  0.45594000000E+02  0.51100000000E-03 0.  1.
         11   -1    0    0    0    0 -0.00000000000E+00 -0.00000000000E+00 -0.45593999997E+02  0.45594000000E+02  0.51100000000E-03 0. -1.
    9900012    2    1    2    0    0 -0.10470985204E+02 -0.41999049377E+02 -0.31719940369E+01  0.47787271597E+02  0.20000002520E+02 0.  0.
         12    1    1    2    0    0  0.10470985204E+02  0.41999049377E+02  0.31719940369E+01  0.43400728403E+02  0.00000000000E+00 0. -1.
         11    1    3    3    0    0  0.17555322563E+01 -0.50853526467E+01 -0.21414670161E+01  0.57903874038E+01  0.51100000000E-03 0. -1.
        -11    1    3    3    0    0  0.69335979251E+00 -0.21485915376E+02  0.22257324838E+01  0.21612015008E+02  0.51100000000E-03 0.  1.
         12    1    3    3    0    0 -0.12919877253E+02 -0.15427781354E+02 -0.32562595046E+01  0.20384869185E+02  0.00000000000E+00 0. -1.
</event>
<event>
 7    1  0.3157095E-009  0.4778727E+02  0.7816164E-02  0.1312668E+00
        -11   -1    0    0    0    0  0.00000000000E+00  0.00000000000E+00  0.45593999997E+02  0.45594000000E+02  0.51100000000E-03 0. -1.
         11   -1    0    0    0    0 -0.00000000000E+00 -0.00000000000E+00 -0.45593999997E+02  0.45594000000E+02  0.51100000000E-03 0.  1.
    9900012    2    1    2    0    0 -0.13384151719E+02  0.29538038134E+02 -0.28844271443E+02  0.47787271791E+02  0.20000003402E+02 0.  0.
         12    1    1    2    0    0  0.13384151719E+02 -0.29538038134E+02  0.28844271443E+02  0.43400728209E+02  0.00000000000E+00 0. -1.
         11    1    3    3    0    0 -0.39821586182E+01  0.24613822239E+00 -0.57815017194E+01  0.70245237332E+01  0.51100000000E-03 0. -1.
        -11    1    3    3    0    0 -0.11557665023E+02  0.19762251972E+02 -0.20329456895E+02  0.30617201729E+02  0.51100000000E-03 0.  1.
         12    1    3    3    0    0  0.21556719226E+01  0.95296479393E+01 -0.27333128286E+01  0.10145546329E+02  0.00000000000E+00 0. -1.
</event>
<event>
 7    1  0.2387817E-009  0.4778727E+02  0.7816164E-02  0.1312668E+00
        -11   -1    0    0    0    0  0.00000000000E+00  0.00000000000E+00  0.45593999997E+02  0.45594000000E+02  0.51100000000E-03 0.  1.
         11   -1    0    0    0    0 -0.00000000000E+00 -0.00000000000E+00 -0.45593999997E+02  0.45594000000E+02  0.51100000000E-03 0. -1.
    9900012    2    1    2    0    0  0.11965910080E+00  0.10781593423E+02  0.42040057234E+02  0.47787268585E+02  0.19999988789E+02 0.  0.
         12    1    1    2    0    0 -0.11965910080E+00 -0.10781593423E+02 -0.42040057234E+02  0.43400731415E+02  0.00000000000E+00 0. -1.
         11    1    3    3    0    0 -0.15366871984E+01 -0.27402986935E+01  0.49842295204E+00  0.31810485969E+01  0.51100000000E-03 0. -1.
        -11    1    3    3    0    0  0.46163800367E+01  0.74550551171E+01  0.16679399677E+02  0.18843863332E+02  0.51100000000E-03 0.  1.
        -12    1    3    3    0    0 -0.29600337376E+01  0.60668369997E+01  0.24862234606E+02  0.25762356657E+02  0.00000000000E+00 0.  1.
</event>
<event>
 7    1  0.2387817E-009  0.4778727E+02  0.7816164E-02  0.1312668E+00
        -11   -1    0    0    0    0  0.00000000000E+00  0.00000000000E+00  0.45593999997E+02  0.45594000000E+02  0.51100000000E-03 0.  1.
         11   -1    0    0    0    0 -0.00000000000E+00 -0.00000000000E+00 -0.45593999997E+02  0.45594000000E+02  0.51100000000E-03 0. -1.
    9900012    2    1    2    0    0 -0.17379109754E+02 -0.21190925359E+02  0.33653151622E+02  0.47787269735E+02  0.19999994031E+02 0.  0.
         12    1    1    2    0    0  0.17379109754E+02  0.21190925359E+02 -0.33653151622E+02  0.43400730265E+02  0.00000000000E+00 0. -1.
         11    1    3    3    0    0 -0.54261997784E+01 -0.65379872281E+01  0.19467940235E+02  0.21241224501E+02  0.51100000000E-03 0. -1.
        -11    1    3    3    0    0  0.16265333796E+01 -0.62687147438E+01  0.39095301867E+01  0.75648411692E+01  0.51100000000E-03 0.  1.
        -12    1    3    3    0    0 -0.13579443355E+02 -0.83842233869E+01  0.10275681200E+02  0.18981204065E+02  0.00000000000E+00 0.  1.
</event>
<event>
 7    1  0.2387817E-009  0.4778726E+02  0.7816164E-02  0.1312668E+00
        -11   -1    0    0    0    0  0.00000000000E+00  0.00000000000E+00  0.45593999997E+02  0.45594000000E+02  0.51100000000E-03 0.  1.
         11   -1    0    0    0    0 -0.00000000000E+00 -0.00000000000E+00 -0.45593999997E+02  0.45594000000E+02  0.51100000000E-03 0. -1.
    9900012    2    1    2    0    0  0.41586932123E+02 -0.10559646421E+02  0.65303097627E+01  0.47787262662E+02  0.19999961780E+02 0.  0.
         12    1    1    2    0    0 -0.41586932123E+02  0.10559646421E+02 -0.65303097627E+01  0.43400737338E+02  0.00000000000E+00 0. -1.
         11    1    3    3    0    0  0.34116020938E+01  0.77521300935E+00  0.33473734277E+01  0.48419926871E+01  0.51100000000E-03 0. -1.
        -11    1    3    3    0    0  0.24718061465E+01  0.33930334680E+01  0.54867319772E+00  0.42336207058E+01  0.51100000000E-03 0.  1.
        -12    1    3    3    0    0  0.35703523882E+02 -0.14727892899E+02  0.26342631373E+01  0.38711649269E+02  0.00000000000E+00 0.  1.
</event>
<event>
 7    1  0.2387817E-009  0.4778727E+02  0.7816164E-02  0.1312668E+00
        -11   -1    0    0    0    0  0.00000000000E+00  0.00000000000E+00  0.45593999997E+02  0.45594000000E+02  0.51100000000E-03 0. -1.
         11   -1    0    0    0    0 -0.00000000000E+00 -0.00000000000E+00 -0.45593999997E+02  0.45594000000E+02  0.51100000000E-03 0.  1.
    9900012    2    1    2    0    0  0.43732595270E+01  0.33466800704E+02 -0.27285001235E+02  0.47787269123E+02  0.19999991239E+02 0.  0.
         12    1    1    2    0    0 -0.43732595270E+01 -0.33466800704E+02  0.27285001235E+02  0.43400730877E+02  0.00000000000E+00 0. -1.
         11    1    3    3    0    0  0.40241373115E+01  0.51917383181E+01 -0.56855060452E+01  0.86875086830E+01  0.51100000000E-03 0. -1.
        -11    1    3    3    0    0  0.14809806293E+01  0.18050937127E+02 -0.22371891152E+02  0.28784217008E+02  0.51100000000E-03 0.  1.
         12    1    3    3    0    0 -0.11318584138E+01  0.10224125259E+02  0.77239596169E+00  0.10315543432E+02  0.00000000000E+00 0. -1.
</event>
<event>
 7    1  0.2387817E-009  0.4778727E+02  0.7816164E-02  0.1312668E+00
        -11   -1    0    0    0    0  0.00000000000E+00  0.00000000000E+00  0.45593999997E+02  0.45594000000E+02  0.51100000000E-03 0.  1.
         11   -1    0    0    0    0 -0.00000000000E+00 -0.00000000000E+00 -0.45593999997E+02  0.45594000000E+02  0.51100000000E-03 0. -1.
    9900012    2    1    2    0    0  0.76047949630E+01 -0.29944268282E+02  0.30481653146E+02  0.47787270883E+02  0.19999999264E+02 0.  0.
         12    1    1    2    0    0 -0.76047949630E+01  0.29944268282E+02 -0.30481653146E+02  0.43400729117E+02  0.00000000000E+00 0. -1.
         11    1    3    3    0    0  0.16347524112E+00 -0.11851576487E+01  0.21602646505E+01  0.24694263358E+01  0.51100000000E-03 0.  1.
        -11    1    3    3    0    0  0.10539776529E+02 -0.11954467095E+02  0.56096757963E+01  0.16895698731E+02  0.51100000000E-03 0. -1.
         12    1    3    3    0    0 -0.30984568076E+01 -0.16804643538E+02  0.22711712700E+02  0.28422145816E+02  0.00000000000E+00 0. -1.
</event>
<event>
 7    1  0.2387817E-009  0.4778727E+02  0.7816164E-02  0.1312668E+00
        -11   -1    0    0    0    0  0.00000000000E+00  0.00000000000E+00  0.45593999997E+02  0.45594000000E+02  0.51100000000E-03 0.  1.
         11   -1    0    0    0    0 -0.00000000000E+00 -0.00000000000E+00 -0.45593999997E+02  0.45594000000E+02  0.51100000000E-03 0. -1.
    9900012    2    1    2    0    0  0.26231105200E+02  0.28949467193E+02  0.18907155736E+02  0.47787273407E+02  0.20000010772E+02 0.  0.
         12    1    1    2    0    0 -0.26231105200E+02 -0.28949467193E+02 -0.18907155736E+02  0.43400726593E+02  0.00000000000E+00 0. -1.
         11    1    3    3    0    0 -0.14307031769E+01  0.45398147067E+01 -0.54134192538E+00  0.47906033537E+01  0.51100000000E-03 0. -1.
        -11    1    3    3    0    0  0.74362728656E+01  0.26274938107E+01  0.84804766895E+00  0.79322798089E+01  0.51100000000E-03 0.  1.
        -12    1    3    3    0    0  0.20225535512E+02  0.21782158676E+02  0.18600449992E+02  0.35064390244E+02  0.00000000000E+00 0.  1.
</event>
<event>
 7    1  0.2387817E-009  0.4778728E+02  0.7816164E-02  0.1312668E+00
        -11   -1    0    0    0    0  0.00000000000E+00  0.00000000000E+00  0.45593999997E+02  0.45594000000E+02  0.51100000000E-03 0. -1.
         11   -1    0    0    0    0 -0.00000000000E+00 -0.00000000000E+00 -0.45593999997E+02  0.45594000000E+02  0.51100000000E-03 0.  1.
    9900012    2    1    2    0    0  0.12824600677E+02 -0.33060626398E+02 -0.25022929345E+02  0.47787281188E+02  0.20000046250E+02 0.  0.
         12    1    1    2    0    0 -0.12824600677E+02  0.33060626398E+02  0.25022929345E+02  0.43400718812E+02  0.00000000000E+00 0. -1.
         11    1    3    3    0    0  0.16294721008E+01 -0.85795510630E+01 -0.35264736236E-01  0.87329903030E+01  0.51100000000E-03 0. -1.
        -11    1    3    3    0    0  0.89696651943E+00 -0.17566174471E+02 -0.13934265812E+02  0.22439670195E+02  0.51100000000E-03 0.  1.
         12    1    3    3    0    0  0.10298162057E+02 -0.69149008641E+01 -0.11053398797E+02  0.16614620690E+02  0.00000000000E+00 0. -1.
</event>
<event>
 7    1  0.2387817E-009  0.4778728E+02  0.7816164E-02  0.1312668E+00
        -11   -1    0    0    0    0  0.00000000000E+00  0.00000000000E+00  0.45593999997E+02  0.45594000000E+02  0.51100000000E-03 0.  1.
         11   -1    0    0    0    0 -0.00000000000E+00 -0.00000000000E+00 -0.45593999997E+02  0.45594000000E+02  0.51100000000E-03 0. -1.
    9900012    2    1    2    0    0 -0.30350183286E+02  0.31018808685E+02 -0.56814837681E+00  0.47787275233E+02  0.20000019098E+02 0.  0.
         12    1    1    2    0    0  0.30350183286E+02 -0.31018808685E+02  0.56814837681E+00  0.43400724767E+02  0.00000000000E+00 0. -1.
         11    1    3    3    0    0 -0.78996720253E+01  0.89082593053E+01  0.52518296985E+01  0.13013209343E+02  0.51100000000E-03 0. -1.
        -11    1    3    3    0    0 -0.33367088608E+01 -0.16968227126E+01 -0.89132418447E+00  0.38480244805E+01  0.51100000000E-03 0.  1.
        -12    1    3    3    0    0 -0.19113802400E+02  0.23807372092E+02 -0.49286538908E+01  0.30926041410E+02  0.00000000000E+00 0.  1.
</event>
<event>
 7    1  0.2387817E-009  0.4778726E+02  0.7816164E-02  0.1312668E+00
        -11   -1    0    0    0    0  0.00000000000E+00  0.00000000000E+00  0.45593999997E+02  0.45594000000E+02  0.51100000000E-03 0. -1.
         11   -1    0    0    0    0 -0.00000000000E+00 -0.00000000000E+00 -0.45593999997E+02  0.45594000000E+02  0.51100000000E-03 0.  1.
    9900012    2    1    2    0    0 -0.33250061914E+02 -0.70488512730E+01 -0.26988350243E+02  0.47787263020E+02  0.19999963414E+02 0.  0.
         12    1    1    2    0    0  0.33250061914E+02  0.70488512730E+01  0.26988350243E+02  0.43400736980E+02  0.00000000000E+00 0. -1.
         11    1    3    3    0    0 -0.36080596684E+01  0.30358640621E+01 -0.89402086623E+01  0.10107516825E+02  0.51100000000E-03 0. -1.
        -11    1    3    3    0    0 -0.89660880562E+00 -0.18495192792E-01  0.13128662728E+01  0.15899268957E+01  0.51100000000E-03 0.  1.
        -12    1    3    3    0    0 -0.28745393440E+02 -0.10066220142E+02 -0.19361007854E+02  0.36089819300E+02  0.00000000000E+00 0.  1.
</event>
<event>
 7    1  0.2387817E-009  0.4778727E+02  0.7816164E-02  0.1312668E+00
        -11   -1    0    0    0    0  0.00000000000E+00  0.00000000000E+00  0.45593999997E+02  0.45594000000E+02  0.51100000000E-03 0. -1.
         11   -1    0    0    0    0 -0.00000000000E+00 -0.00000000000E+00 -0.45593999997E+02  0.45594000000E+02  0.51100000000E-03 0.  1.
    9900012    2    1    2    0    0  0.29916583986E+02 -0.20665727160E+02  0.23697026894E+02  0.47787270051E+02  0.19999995471E+02 0.  0.
         12    1    1    2    0    0 -0.29916583986E+02  0.20665727160E+02 -0.23697026894E+02  0.43400729949E+02  0.00000000000E+00 0. -1.
         11    1    3    3    0    0  0.13724887157E+02 -0.84716496695E+01  0.15232026346E+02  0.22184589301E+02  0.51100000000E-03 0. -1.
        -11    1    3    3    0    0  0.85345008656E+01 -0.56365043941E+01  0.11189552154E+02  0.15159616238E+02  0.51100000000E-03 0.  1.
        -12    1    3    3    0    0  0.76571959637E+01 -0.65575730969E+01 -0.27245516062E+01  0.10443064512E+02  0.00000000000E+00 0.  1.
</event>
<event>
 7    1  0.2387817E-009  0.4778727E+02  0.7816164E-02  0.1312668E+00
        -11   -1    0    0    0    0  0.00000000000E+00  0.00000000000E+00  0.45593999997E+02  0.45594000000E+02  0.51100000000E-03 0.  1.
         11   -1    0    0    0    0 -0.00000000000E+00 -0.00000000000E+00 -0.45593999997E+02  0.45594000000E+02  0.51100000000E-03 0. -1.
    9900012    2    1    2    0    0 -0.11870211840E+02 -0.24971676320E+02  0.33453507582E+02  0.47787265941E+02  0.19999976730E+02 0.  0.
         12    1    1    2    0    0  0.11870211840E+02  0.24971676320E+02 -0.33453507582E+02  0.43400734059E+02  0.00000000000E+00 0. -1.
         11    1    3    3    0    0 -0.18706959572E+01 -0.11406279757E+02  0.19133430120E+02  0.22353766342E+02  0.51100000000E-03 0. -1.
        -11    1    3    3    0    0 -0.37993627740E+01 -0.20421029657E+01  0.11170514738E+02  0.11974378555E+02  0.51100000000E-03 0.  1.
         12    1    3    3    0    0 -0.62001531091E+01 -0.11523293597E+02  0.31495627237E+01  0.13459121043E+02  0.00000000000E+00 0. -1.
</event>
<event>
 7    1  0.2387817E-009  0.4778727E+02  0.7816164E-02  0.1312668E+00
        -11   -1    0    0    0    0  0.00000000000E+00  0.00000000000E+00  0.45593999997E+02  0.45594000000E+02  0.51100000000E-03 0.  1.
         11   -1    0    0    0    0 -0.00000000000E+00 -0.00000000000E+00 -0.45593999997E+02  0.45594000000E+02  0.51100000000E-03 0. -1.
    9900012    2    1    2    0    0  0.12634227692E+02  0.20130554214E+02  0.36314740500E+02  0.47787270745E+02  0.19999998633E+02 0.  0.
         12    1    1    2    0    0 -0.12634227692E+02 -0.20130554214E+02 -0.36314740500E+02  0.43400729255E+02  0.00000000000E+00 0. -1.
         11    1    3    3    0    0  0.44279585669E+01  0.10984888067E+02  0.80283835900E+01  0.14308372593E+02  0.51100000000E-03 0. -1.
        -11    1    3    3    0    0  0.10337497305E+02  0.10989048759E+02  0.23586263758E+02  0.27998837145E+02  0.51100000000E-03 0.  1.
         12    1    3    3    0    0 -0.21312281799E+01 -0.18433826115E+01  0.47000931518E+01  0.54800610072E+01  0.00000000000E+00 0. -1.
</event>
<event>
 7    1  0.2387817E-009  0.4778727E+02  0.7816164E-02  0.1312668E+00
        -11   -1    0    0    0    0  0.00000000000E+00  0.00000000000E+00  0.45593999997E+02  0.45594000000E+02  0.51100000000E-03 0. -1.
         11   -1    0    0    0    0 -0.00000000000E+00 -0.00000000000E+00 -0.45593999997E+02  0.45594000000E+02  0.51100000000E-03 0.  1.
    9900012    2    1    2    0    0 -0.14851889349E+01  0.19921883662E+02 -0.38529681132E+02  0.47787267714E+02  0.19999984816E+02 0.  0.
         12    1    1    2    0    0  0.14851889349E+01 -0.19921883662E+02  0.38529681132E+02  0.43400732286E+02  0.00000000000E+00 0. -1.
         11    1    3    3    0    0 -0.58364583376E+01  0.33785577866E+01 -0.68665384292E+01  0.96243570645E+01  0.51100000000E-03 0. -1.
        -11    1    3    3    0    0 -0.25232948581E+01  0.64906861137E+01 -0.42297487635E+01  0.81478094008E+01  0.51100000000E-03 0.  1.
        -12    1    3    3    0    0  0.68745642608E+01  0.10052639761E+02 -0.27433393939E+02  0.30015101249E+02  0.00000000000E+00 0.  1.
</event>
<event>
 7    1  0.2387817E-009  0.4778727E+02  0.7816164E-02  0.1312668E+00
        -11   -1    0    0    0    0  0.00000000000E+00  0.00000000000E+00  0.45593999997E+02  0.45594000000E+02  0.51100000000E-03 0.  1.
         11   -1    0    0    0    0 -0.00000000000E+00 -0.00000000000E+00 -0.45593999997E+02  0.45594000000E+02  0.51100000000E-03 0. -1.
    9900012    2    1    2    0    0  0.20132734637E+02  0.95916484836E+01  0.37233004911E+02  0.47787269830E+02  0.19999994463E+02 0.  0.
         12    1    1    2    0    0 -0.20132734637E+02 -0.95916484836E+01 -0.37233004911E+02  0.43400730170E+02  0.00000000000E+00 0. -1.
         11    1    3    3    0    0  0.12526082384E+02  0.71937656169E+01  0.20896413672E+02  0.25403013763E+02  0.51100000000E-03 0. -1.
        -11    1    3    3    0    0  0.63336857890E+01  0.76291399366E+01  0.10371064133E+02  0.14348460662E+02  0.51100000000E-03 0.  1.
         12    1    3    3    0    0  0.12729664642E+01 -0.52312570698E+01  0.59655271059E+01  0.80357954056E+01  0.00000000000E+00 0. -1.
</event>
<event>
 7    1  0.2387817E-009  0.4778727E+02  0.7816164E-02  0.1312668E+00
        -11   -1    0    0    0    0  0.00000000000E+00  0.00000000000E+00  0.45593999997E+02  0.45594000000E+02  0.51100000000E-03 0.  1.
         11   -1    0    0    0    0 -0.00000000000E+00 -0.00000000000E+00 -0.45593999997E+02  0.45594000000E+02  0.51100000000E-03 0. -1.
    9900012    2    1    2    0    0 -0.47896926293E+01  0.19155152932E+02  0.38649216021E+02  0.47787274910E+02  0.20000017623E+02 0.  0.
         12    1    1    2    0    0  0.47896926293E+01 -0.19155152932E+02 -0.38649216021E+02  0.43400725090E+02  0.00000000000E+00 0. -1.
         11    1    3    3    0    0  0.43514960221E+01  0.15453500834E+02  0.16883557353E+02  0.23298083930E+02  0.51100000000E-03 0. -1.
        -11    1    3    3    0    0 -0.14333519353E+01  0.19709310260E+01  0.10172754060E+02  0.10460592350E+02  0.51100000000E-03 0.  1.
         12    1    3    3    0    0 -0.77078367161E+01  0.17307210717E+01  0.11592904608E+02  0.14028598630E+02  0.00000000000E+00 0. -1.
</event>
<event>
 7    1  0.2387817E-009  0.4778727E+02  0.7816164E-02  0.1312668E+00
        -11   -1    0    0    0    0  0.00000000000E+00  0.00000000000E+00  0.45593999997E+02  0.45594000000E+02  0.51100000000E-03 0. -1.
         11   -1    0    0    0    0 -0.00000000000E+00 -0.00000000000E+00 -0.45593999997E+02  0.45594000000E+02  0.51100000000E-03 0.  1.
    9900012    2    1    2    0    0  0.73481117381E+01 -0.33172156151E+02 -0.27004380480E+02  0.47787271262E+02  0.20000000993E+02 0.  0.
         12    1    1    2    0    0 -0.73481117381E+01  0.33172156151E+02  0.27004380480E+02  0.43400728738E+02  0.00000000000E+00 0. -1.
         11    1    3    3    0    0 -0.74644726455E+00 -0.17314022186E+01  0.22060598786E+01  0.29020057909E+01  0.51100000000E-03 0. -1.
        -11    1    3    3    0    0  0.88559199549E+00 -0.99590361654E+01 -0.15362867835E+02  0.18329876784E+02  0.51100000000E-03 0.  1.
         12    1    3    3    0    0  0.72089670072E+01 -0.21481717767E+02 -0.13847572524E+02  0.26555388687E+02  0.00000000000E+00 0. -1.
</event>
<event>
 7    1  0.2387817E-009  0.4778727E+02  0.7816164E-02  0.1312668E+00
        -11   -1    0    0    0    0  0.00000000000E+00  0.00000000000E+00  0.45593999997E+02  0.45594000000E+02  0.51100000000E-03 0. -1.
         11   -1    0    0    0    0 -0.00000000000E+00 -0.00000000000E+00 -0.45593999997E+02  0.45594000000E+02  0.51100000000E-03 0.  1.
    9900012    2    1    2    0    0 -0.31639227548E+02  0.15236738433E+02 -0.25503415651E+02  0.47787272728E+02  0.20000007676E+02 0.  0.
         12    1    1    2    0    0  0.31639227548E+02 -0.15236738433E+02  0.25503415651E+02  0.43400727272E+02  0.00000000000E+00 0. -1.
         11    1    3    3    0    0 -0.19217835771E+01  0.21868649193E+01 -0.28744768895E+01  0.40912403916E+01  0.51100000000E-03 0. -1.
        -11    1    3    3    0    0 -0.31980039896E+02  0.13979919593E+02 -0.21576254040E+02  0.41032862955E+02  0.51100000000E-03 0.  1.
         12    1    3    3    0    0  0.22625959260E+01 -0.93004607871E+00 -0.10526847211E+01  0.26631693815E+01  0.00000000000E+00 0. -1.
</event>
<event>
 7    1  0.2387817E-009  0.4778727E+02  0.7816164E-02  0.1312668E+00
        -11   -1    0    0    0    0  0.00000000000E+00  0.00000000000E+00  0.45593999997E+02  0.45594000000E+02  0.51100000000E-03 0.  1.
         11   -1    0    0    0    0 -0.00000000000E+00 -0.00000000000E+00 -0.45593999997E+02  0.45594000000E+02  0.51100000000E-03 0. -1.
    9900012    2    1    2    0    0 -0.38341018908E+02 -0.20086987031E+02 -0.31784700362E+01  0.47787269008E+02  0.19999990714E+02 0.  0.
         12    1    1    2    0    0  0.38341018908E+02  0.20086987031E+02  0.31784700362E+01  0.43400730992E+02  0.00000000000E+00 0. -1.
         11    1    3    3    0    0 -0.23131669570E+02 -0.47386187989E+01 -0.60729239504E+01  0.24380505548E+02  0.51100000000E-03 0. -1.
        -11    1    3    3    0    0  0.69714149149E-01  0.48235338878E+00 -0.95403559537E+00  0.10713118279E+01  0.51100000000E-03 0.  1.
        -12    1    3    3    0    0 -0.15279063487E+02 -0.15830721621E+02  0.38484895096E+01  0.22335451632E+02  0.00000000000E+00 0.  1.
</event>
<event>
 7    1  0.2387817E-009  0.4778727E+02  0.7816164E-02  0.1312668E+00
        -11   -1    0    0    0    0  0.00000000000E+00  0.00000000000E+00  0.45593999997E+02  0.45594000000E+02  0.51100000000E-03 0.  1.
         11   -1    0    0    0    0 -0.00000000000E+00 -0.00000000000E+00 -0.45593999997E+02  0.45594000000E+02  0.51100000000E-03 0. -1.
    9900012    2    1    2    0    0 -0.23185170676E+02 -0.53842932948E+01  0.36291606760E+02  0.47787268730E+02  0.19999989448E+02 0.  0.
         12    1    1    2    0    0  0.23185170676E+02  0.53842932948E+01 -0.36291606760E+02  0.43400731270E+02  0.00000000000E+00 0. -1.
         11    1    3    3    0    0 -0.14361792593E+02 -0.46096663884E+01  0.14841466490E+02  0.21160794846E+02  0.51100000000E-03 0. -1.
        -11    1    3    3    0    0 -0.17212890228E+01 -0.64549064984E+01  0.89688297748E+01  0.11183405635E+02  0.51100000000E-03 0.  1.
         12    1    3    3    0    0 -0.71020890597E+01  0.56802795920E+01  0.12481310496E+02  0.15443068249E+02  0.00000000000E+00 0. -1.
</event>
<event>
 7    1  0.2387817E-009  0.4778727E+02  0.7816164E-02  0.1312668E+00
        -11   -1    0    0    0    0  0.00000000000E+00  0.00000000000E+00  0.45593999997E+02  0.45594000000E+02  0.51100000000E-03 0.  1.
         11   -1    0    0    0    0 -0.00000000000E+00 -0.00000000000E+00 -0.45593999997E+02  0.45594000000E+02  0.51100000000E-03 0. -1.
    9900012    2    1    2    0    0  0.31747575996E+02  0.28814955761E+02 -0.67389209402E+01  0.47787270598E+02  0.19999997965E+02 0.  0.
         12    1    1    2    0    0 -0.31747575996E+02 -0.28814955761E+02  0.67389209402E+01  0.43400729402E+02  0.00000000000E+00 0. -1.
         11    1    3    3    0    0  0.53405421890E+01  0.40023728813E+01 -0.59401242965E+01  0.89345093022E+01  0.51100000000E-03 0. -1.
        -11    1    3    3    0    0  0.14159957869E+02  0.59590850100E+01 -0.46327086747E+01  0.16046092700E+02  0.51100000000E-03 0.  1.
        -12    1    3    3    0    0  0.12247075938E+02  0.18853497870E+02  0.38339120310E+01  0.22806668596E+02  0.00000000000E+00 0.  1.
</event>
<event>
 7    1  0.2387817E-009  0.4778728E+02  0.7816164E-02  0.1312668E+00
        -11   -1    0    0    0    0  0.00000000000E+00  0.00000000000E+00  0.45593999997E+02  0.45594000000E+02  0.51100000000E-03 0. -1.
         11   -1    0    0    0    0 -0.00000000000E+00 -0.00000000000E+00 -0.45593999997E+02  0.45594000000E+02  0.51100000000E-03 0.  1.
    9900012    2    1    2    0    0 -0.12253031069E+02 -0.40734640628E+02 -0.86124687114E+01  0.47787281863E+02  0.20000049328E+02 0.  0.
         12    1    1    2    0    0  0.12253031069E+02  0.40734640628E+02  0.86124687114E+01  0.43400718137E+02  0.00000000000E+00 0. -1.
         11    1    3    3    0    0 -0.18544166505E+01 -0.75544964404E+01  0.21552848101E+01  0.80718356311E+01  0.51100000000E-03 0. -1.
        -11    1    3    3    0    0 -0.77909079002E+01 -0.62332545166E+01 -0.74248938805E+01  0.12437071889E+02  0.51100000000E-03 0.  1.
        -12    1    3    3    0    0 -0.26077065185E+01 -0.26946889671E+02 -0.33428596411E+01  0.27278374343E+02  0.00000000000E+00 0.  1.
</event>
<event>
 7    1  0.2387817E-009  0.4778732E+02  0.7816164E-02  0.1312668E+00
        -11   -1    0    0    0    0  0.00000000000E+00  0.00000000000E+00  0.45593999997E+02  0.45594000000E+02  0.51100000000E-03 0.  1.
         11   -1    0    0    0    0 -0.00000000000E+00 -0.00000000000E+00 -0.45593999997E+02  0.45594000000E+02  0.51100000000E-03 0. -1.
    9900012    2    1    2    0    0  0.19239829172E+02 -0.27340706707E+01  0.38806866317E+02  0.47787319794E+02  0.20000222269E+02 0.  0.
         12    1    1    2    0    0 -0.19239829172E+02  0.27340706707E+01 -0.38806866317E+02  0.43400680206E+02  0.00000000000E+00 0. -1.
         11    1    3    3    0    0  0.11224465233E+02 -0.40842117764E+01  0.22273879679E+02  0.25274396567E+02  0.51100000000E-03 0. -1.
        -11    1    3    3    0    0  0.23165377536E+01  0.67450875640E+00  0.16599371768E+02  0.16773802568E+02  0.51100000000E-03 0.  1.
         12    1    3    3    0    0  0.56988261857E+01  0.67563234929E+00 -0.66385130055E-01  0.57391206601E+01  0.00000000000E+00 0. -1.
</event>
<event>
 7    1  0.2387817E-009  0.4778727E+02  0.7816164E-02  0.1312668E+00
        -11   -1    0    0    0    0  0.00000000000E+00  0.00000000000E+00  0.45593999997E+02  0.45594000000E+02  0.51100000000E-03 0.  1.
         11   -1    0    0    0    0 -0.00000000000E+00 -0.00000000000E+00 -0.45593999997E+02  0.45594000000E+02  0.51100000000E-03 0. -1.
    9900012    2    1    2    0    0  0.21623551304E+02  0.22419329974E+02  0.30222824727E+02  0.47787268877E+02  0.19999990120E+02 0.  0.
         12    1    1    2    0    0 -0.21623551304E+02 -0.22419329974E+02 -0.30222824727E+02  0.43400731123E+02  0.00000000000E+00 0. -1.
         11    1    3    3    0    0  0.95298039868E+01  0.31895503858E+01  0.12666022082E+02  0.16168441834E+02  0.51100000000E-03 0. -1.
        -11    1    3    3    0    0  0.10765058912E+02  0.50538849677E+01  0.97677124317E+01  0.15389491644E+02  0.51100000000E-03 0.  1.
        -12    1    3    3    0    0  0.13286884055E+01  0.14175894620E+02  0.77890902133E+01  0.16229335400E+02  0.00000000000E+00 0.  1.
</event>
<event>
 7    1  0.2387817E-009  0.4778727E+02  0.7816164E-02  0.1312668E+00
        -11   -1    0    0    0    0  0.00000000000E+00  0.00000000000E+00  0.45593999997E+02  0.45594000000E+02  0.51100000000E-03 0. -1.
         11   -1    0    0    0    0 -0.00000000000E+00 -0.00000000000E+00 -0.45593999997E+02  0.45594000000E+02  0.51100000000E-03 0.  1.
    9900012    2    1    2    0    0  0.39951382517E+02 -0.38914484318E+01  0.16503554297E+02  0.47787266822E+02  0.19999980748E+02 0.  0.
         12    1    1    2    0    0 -0.39951382517E+02  0.38914484318E+01 -0.16503554297E+02  0.43400733178E+02  0.00000000000E+00 0. -1.
         11    1    3    3    0    0  0.46804651095E+01  0.41435156630E+01  0.62399041657E+01  0.88324334104E+01  0.51100000000E-03 0. -1.
        -11    1    3    3    0    0  0.16576365590E+02 -0.35836244511E+01  0.10095894958E+02  0.19736903396E+02  0.51100000000E-03 0.  1.
        -12    1    3    3    0    0  0.18694551818E+02 -0.44513396438E+01  0.16775517310E+00  0.19217930016E+02  0.00000000000E+00 0.  1.
</event>
<event>
 7    1  0.2387817E-009  0.4778727E+02  0.7816164E-02  0.1312668E+00
        -11   -1    0    0    0    0  0.00000000000E+00  0.00000000000E+00  0.45593999997E+02  0.45594000000E+02  0.51100000000E-03 0.  1.
         11   -1    0    0    0    0 -0.00000000000E+00 -0.00000000000E+00 -0.45593999997E+02  0.45594000000E+02  0.51100000000E-03 0. -1.
    9900012    2    1    2    0    0 -0.24481972700E+02  0.35553739322E+02  0.44931053891E+01  0.47787270017E+02  0.19999995314E+02 0.  0.
         12    1    1    2    0    0  0.24481972700E+02 -0.35553739322E+02 -0.44931053891E+01  0.43400729983E+02  0.00000000000E+00 0. -1.
         11    1    3    3    0    0  0.27658876723E+00  0.79160143345E+00  0.25105701933E+01  0.26469033099E+01  0.51100000000E-03 0. -1.
        -11    1    3    3    0    0 -0.48415750785E+01  0.33811170920E+01  0.51529662836E+01  0.78374653946E+01  0.51100000000E-03 0.  1.
        -12    1    3    3    0    0 -0.19916986389E+02  0.31381020796E+02 -0.31704310878E+01  0.37302901312E+02  0.00000000000E+00 0.  1.
</event>
<event>
 7    1  0.2387817E-009  0.4778727E+02  0.7816164E-02  0.1312668E+00
        -11   -1    0    0    0    0  0.00000000000E+00  0.00000000000E+00  0.45593999997E+02  0.45594000000E+02  0.51100000000E-03 0. -1.
         11   -1    0    0    0    0 -0.00000000000E+00 -0.00000000000E+00 -0.45593999997E+02  0.45594000000E+02  0.51100000000E-03 0.  1.
    9900012    2    1    2    0    0 -0.25506130688E+02 -0.22930480680E+02 -0.26594240492E+02  0.47787271040E+02  0.19999999979E+02 0.  0.
         12    1    1    2    0    0  0.25506130688E+02  0.22930480680E+02  0.26594240492E+02  0.43400728960E+02  0.00000000000E+00 0. -1.
         11    1    3    3    0    0 -0.63806582175E+01 -0.10812177318E+01 -0.66726875806E+01  0.92955145572E+01  0.51100000000E-03 0. -1.
        -11    1    3    3    0    0 -0.86646352509E+01 -0.37915687642E+01 -0.13825025054E+02  0.16750618368E+02  0.51100000000E-03 0.  1.
         12    1    3    3    0    0 -0.10460837220E+02 -0.18057694184E+02 -0.60965278578E+01  0.21741138114E+02  0.00000000000E+00 0. -1.
</event>
<event>
 7    1  0.2387817E-009  0.4778726E+02  0.7816164E-02  0.1312668E+00
        -11   -1    0    0    0    0  0.00000000000E+00  0.00000000000E+00  0.45593999997E+02  0.45594000000E+02  0.51100000000E-03 0.  1.
         11   -1    0    0    0    0 -0.00000000000E+00 -0.00000000000E+00 -0.45593999997E+02  0.45594000000E+02  0.51100000000E-03 0. -1.
    9900012    2    1    2    0    0 -0.26160192462E+02 -0.76394615217E+01  0.33777316021E+02  0.47787261302E+02  0.19999955578E+02 0.  0.
         12    1    1    2    0    0  0.26160192462E+02  0.76394615217E+01 -0.33777316021E+02  0.43400738698E+02  0.00000000000E+00 0. -1.
         11    1    3    3    0    0 -0.74216841526E+01  0.20194833579E+01  0.36411232730E+01  0.85098465112E+01  0.51100000000E-03 0. -1.
        -11    1    3    3    0    0 -0.10106222056E+01 -0.43545193016E+01  0.72411185559E+00  0.45285244651E+01  0.51100000000E-03 0.  1.
        -12    1    3    3    0    0 -0.17727886104E+02 -0.53044255779E+01  0.29412080892E+02  0.34748890325E+02  0.00000000000E+00 0.  1.
</event>
<event>
 7    1  0.2387817E-009  0.4778727E+02  0.7816164E-02  0.1312668E+00
        -11   -1    0    0    0    0  0.00000000000E+00  0.00000000000E+00  0.45593999997E+02  0.45594000000E+02  0.51100000000E-03 0. -1.
         11   -1    0    0    0    0 -0.00000000000E+00 -0.00000000000E+00 -0.45593999997E+02  0.45594000000E+02  0.51100000000E-03 0.  1.
    9900012    2    1    2    0    0 -0.26242368106E+02  0.32702323042E+02 -0.11203558529E+02  0.47787267980E+02  0.19999986029E+02 0.  0.
         12    1    1    2    0    0  0.26242368106E+02 -0.32702323042E+02  0.11203558529E+02  0.43400732020E+02  0.00000000000E+00 0. -1.
         11    1    3    3    0    0 -0.50372003179E+01  0.15316980281E+02 -0.30477156417E+01  0.16409504650E+02  0.51100000000E-03 0. -1.
        -11    1    3    3    0    0 -0.22557747916E+02  0.14074590439E+02 -0.81216547091E+01  0.27801211531E+02  0.51100000000E-03 0.  1.
         12    1    3    3    0    0  0.13525801286E+01  0.33107523223E+01 -0.34188177808E-01  0.35765517996E+01  0.00000000000E+00 0. -1.
</event>
<event>
 7    1  0.2387817E-009  0.4778728E+02  0.7816164E-02  0.1312668E+00
        -11   -1    0    0    0    0  0.00000000000E+00  0.00000000000E+00  0.45593999997E+02  0.45594000000E+02  0.51100000000E-03 0.  1.
         11   -1    0    0    0    0 -0.00000000000E+00 -0.00000000000E+00 -0.45593999997E+02  0.45594000000E+02  0.51100000000E-03 0. -1.
    9900012    2    1    2    0    0  0.73944022020E+00  0.53086959493E+01  0.43068478826E+02  0.47787275433E+02  0.20000020010E+02 0.  0.
         12    1    1    2    0    0 -0.73944022020E+00 -0.53086959493E+01 -0.43068478826E+02  0.43400724567E+02  0.00000000000E+00 0. -1.
         11    1    3    3    0    0 -0.75612387646E+00  0.47945760312E+01  0.41894933359E+01  0.64118279225E+01  0.51100000000E-03 0. -1.
        -11    1    3    3    0    0  0.33090916644E+01  0.62997473161E+01  0.13259820545E+02  0.15048579502E+02  0.51100000000E-03 0.  1.
        -12    1    3    3    0    0 -0.18135275677E+01 -0.57856273980E+01  0.25619164946E+02  0.26326868009E+02  0.00000000000E+00 0.  1.
</event>
<event>
 7    1  0.2387817E-009  0.4778727E+02  0.7816164E-02  0.1312668E+00
        -11   -1    0    0    0    0  0.00000000000E+00  0.00000000000E+00  0.45593999997E+02  0.45594000000E+02  0.51100000000E-03 0.  1.
         11   -1    0    0    0    0 -0.00000000000E+00 -0.00000000000E+00 -0.45593999997E+02  0.45594000000E+02  0.51100000000E-03 0. -1.
    9900012    2    1    2    0    0  0.26409117430E+02 -0.19992520925E+02  0.28044267856E+02  0.47787270330E+02  0.19999996740E+02 0.  0.
         12    1    1    2    0    0 -0.26409117430E+02  0.19992520925E+02 -0.28044267856E+02  0.43400729670E+02  0.00000000000E+00 0. -1.
         11    1    3    3    0    0  0.68644566237E+01 -0.31289650216E+00  0.11729193718E+02  0.13593846199E+02  0.51100000000E-03 0. -1.
        -11    1    3    3    0    0  0.10911163925E+02 -0.35250376583E+01  0.85276258808E+01  0.14289849268E+02  0.51100000000E-03 0.  1.
         12    1    3    3    0    0  0.86334968817E+01 -0.16154586764E+02  0.77874482572E+01  0.19903574862E+02  0.00000000000E+00 0. -1.
</event>
<event>
 7    1  0.2387817E-009  0.4778728E+02  0.7816164E-02  0.1312668E+00
        -11   -1    0    0    0    0  0.00000000000E+00  0.00000000000E+00  0.45593999997E+02  0.45594000000E+02  0.51100000000E-03 0.  1.
         11   -1    0    0    0    0 -0.00000000000E+00 -0.00000000000E+00 -0.45593999997E+02  0.45594000000E+02  0.51100000000E-03 0. -1.
    9900012    2    1    2    0    0  0.18331339546E+02 -0.13327736653E+02  0.37012913736E+02  0.47787281607E+02  0.20000048157E+02 0.  0.
         12    1    1    2    0    0 -0.18331339546E+02  0.13327736653E+02 -0.37012913736E+02  0.43400718393E+02  0.00000000000E+00 0. -1.
         11    1    3    3    0    0 -0.38119619578E+00 -0.65907388578E+01  0.15631552576E+01  0.67842909616E+01  0.51100000000E-03 0. -1.
        -11    1    3    3    0    0  0.19903273781E+01  0.92780651141E+00  0.33364683354E+01  0.39942770571E+01  0.51100000000E-03 0.  1.
         12    1    3    3    0    0  0.16722208364E+02 -0.76648043068E+01  0.32113290143E+02  0.37008713588E+02  0.00000000000E+00 0. -1.
</event>
<event>
 7    1  0.2387817E-009  0.4778728E+02  0.7816164E-02  0.1312668E+00
        -11   -1    0    0    0    0  0.00000000000E+00  0.00000000000E+00  0.45593999997E+02  0.45594000000E+02  0.51100000000E-03 0.  1.
         11   -1    0    0    0    0 -0.00000000000E+00 -0.00000000000E+00 -0.45593999997E+02  0.45594000000E+02  0.51100000000E-03 0. -1.
    9900012    2    1    2    0    0  0.41144892384E+02 -0.79949660804E+01  0.11260598692E+02  0.47787277255E+02  0.20000028317E+02 0.  0.
         12    1    1    2    0    0 -0.41144892384E+02  0.79949660804E+01 -0.11260598692E+02  0.43400722745E+02  0.00000000000E+00 0. -1.
         11    1    3    3    0    0  0.11967155493E+02 -0.34533367349E+01 -0.85698106114E+00  0.12484901361E+02  0.51100000000E-03 0. -1.
        -11    1    3    3    0    0  0.12899178388E+02 -0.95078985010E+01  0.44182258855E+01  0.16622564701E+02  0.51100000000E-03 0.  1.
         12    1    3    3    0    0  0.16278558502E+02  0.49662691554E+01  0.76993538673E+01  0.18679811193E+02  0.00000000000E+00 0. -1.
</event>
<event>
 7    1  0.2387817E-009  0.4778727E+02  0.7816164E-02  0.1312668E+00
        -11   -1    0    0    0    0  0.00000000000E+00  0.00000000000E+00  0.45593999997E+02  0.45594000000E+02  0.51100000000E-03 0.  1.
         11   -1    0    0    0    0 -0.00000000000E+00 -0.00000000000E+00 -0.45593999997E+02  0.45594000000E+02  0.51100000000E-03 0. -1.
    9900012    2    1    2    0    0 -0.29440844327E+02 -0.64632829136E+01  0.31226366213E+02  0.47787270887E+02  0.19999999281E+02 0.  0.
         12    1    1    2    0    0  0.29440844327E+02  0.64632829136E+01 -0.31226366213E+02  0.43400729113E+02  0.00000000000E+00 0. -1.
         11    1    3    3    0    0 -0.83979184493E+01 -0.38378005102E+01  0.13020236173E+02  0.15961838782E+02  0.51100000000E-03 0. -1.
        -11    1    3    3    0    0 -0.12382778516E+02  0.41412777460E+01  0.15938053515E+02  0.20603517545E+02  0.51100000000E-03 0.  1.
         12    1    3    3    0    0 -0.86601473619E+01 -0.67667601495E+01  0.22680765247E+01  0.11221914559E+02  0.00000000000E+00 0. -1.
</event>
<event>
 7    1  0.2387817E-009  0.4778726E+02  0.7816164E-02  0.1312668E+00
        -11   -1    0    0    0    0  0.00000000000E+00  0.00000000000E+00  0.45593999997E+02  0.45594000000E+02  0.51100000000E-03 0. -1.
         11   -1    0    0    0    0 -0.00000000000E+00 -0.00000000000E+00 -0.45593999997E+02  0.45594000000E+02  0.51100000000E-03 0.  1.
    9900012    2    1    2    0    0  0.41658827442E+02  0.11944746325E+02 -0.23429017429E+01  0.47787262021E+02  0.19999958857E+02 0.  0.
         12    1    1    2    0    0 -0.41658827442E+02 -0.11944746325E+02  0.23429017429E+01  0.43400737979E+02  0.00000000000E+00 0. -1.
         11    1    3    3    0    0  0.46737891473E+01 -0.33359139138E+01 -0.30803336756E+01  0.65162168816E+01  0.51100000000E-03 0. -1.
        -11    1    3    3    0    0  0.29326856583E+02  0.87987028268E+01 -0.25213494077E+01  0.30721961063E+02  0.51100000000E-03 0.  1.
        -12    1    3    3    0    0  0.76581817115E+01  0.64819574119E+01  0.32587813404E+01  0.10549084076E+02  0.00000000000E+00 0.  1.
</event>
<event>
 7    1  0.2387817E-009  0.4778727E+02  0.7816164E-02  0.1312668E+00
        -11   -1    0    0    0    0  0.00000000000E+00  0.00000000000E+00  0.45593999997E+02  0.45594000000E+02  0.51100000000E-03 0.  1.
         11   -1    0    0    0    0 -0.00000000000E+00 -0.00000000000E+00 -0.45593999997E+02  0.45594000000E+02  0.51100000000E-03 0. -1.
    9900012    2    1    2    0    0  0.25601911840E+02  0.12555420953E+02  0.32718905520E+02  0.47787271163E+02  0.20000000541E+02 0.  0.
         12    1    1    2    0    0 -0.25601911840E+02 -0.12555420953E+02 -0.32718905520E+02  0.43400728837E+02  0.00000000000E+00 0. -1.
         11    1    3    3    0    0  0.26360759562E+01 -0.29586720293E+01 -0.80125350067E+00  0.40428509814E+01  0.51100000000E-03 0. -1.
        -11    1    3    3    0    0  0.12195505715E+02  0.76093823679E+01  0.13813201793E+02  0.19935837171E+02  0.51100000000E-03 0.  1.
        -12    1    3    3    0    0  0.10770330169E+02  0.79047106141E+01  0.19706957227E+02  0.23808583011E+02  0.00000000000E+00 0.  1.
</event>
<event>
 7    1  0.2387817E-009  0.4778727E+02  0.7816164E-02  0.1312668E+00
        -11   -1    0    0    0    0  0.00000000000E+00  0.00000000000E+00  0.45593999997E+02  0.45594000000E+02  0.51100000000E-03 0.  1.
         11   -1    0    0    0    0 -0.00000000000E+00 -0.00000000000E+00 -0.45593999997E+02  0.45594000000E+02  0.51100000000E-03 0. -1.
    9900012    2    1    2    0    0 -0.75057528143E+01 -0.12289184372E+02  0.40942189096E+02  0.47787271598E+02  0.20000002526E+02 0.  0.
         12    1    1    2    0    0  0.75057528143E+01  0.12289184372E+02 -0.40942189096E+02  0.43400728402E+02  0.00000000000E+00 0. -1.
         11    1    3    3    0    0  0.28060607447E+01 -0.72689521412E+01  0.13793708864E+02  0.15842286660E+02  0.51100000000E-03 0. -1.
        -11    1    3    3    0    0 -0.25208525899E+01 -0.75971346884E+01  0.17729824029E+02  0.19452964135E+02  0.51100000000E-03 0.  1.
         12    1    3    3    0    0 -0.77909609691E+01  0.25769024579E+01  0.94186562020E+01  0.12492020803E+02  0.00000000000E+00 0. -1.
</event>
<event>
 7    1  0.2387817E-009  0.4778728E+02  0.7816164E-02  0.1312668E+00
        -11   -1    0    0    0    0  0.00000000000E+00  0.00000000000E+00  0.45593999997E+02  0.45594000000E+02  0.51100000000E-03 0.  1.
         11   -1    0    0    0    0 -0.00000000000E+00 -0.00000000000E+00 -0.45593999997E+02  0.45594000000E+02  0.51100000000E-03 0. -1.
    9900012    2    1    2    0    0 -0.14782572138E+02 -0.29248048401E+02  0.28454350063E+02  0.47787276368E+02  0.20000024272E+02 0.  0.
         12    1    1    2    0    0  0.14782572138E+02  0.29248048401E+02 -0.28454350063E+02  0.43400723632E+02  0.00000000000E+00 0. -1.
         11    1    3    3    0    0 -0.12551106550E+01 -0.61359956201E+01 -0.68126583324E+00  0.62999895558E+01  0.51100000000E-03 0. -1.
        -11    1    3    3    0    0 -0.28173724281E+01 -0.15840433832E+02  0.12311013918E+02  0.20258775762E+02  0.51100000000E-03 0.  1.
        -12    1    3    3    0    0 -0.10710089055E+02 -0.72716189479E+01  0.16824601978E+02  0.21228511051E+02  0.00000000000E+00 0.  1.
</event>
<event>
 7    1  0.2387817E-009  0.4778727E+02  0.7816164E-02  0.1312668E+00
        -11   -1    0    0    0    0  0.00000000000E+00  0.00000000000E+00  0.45593999997E+02  0.45594000000E+02  0.51100000000E-03 0.  1.
         11   -1    0    0    0    0 -0.00000000000E+00 -0.00000000000E+00 -0.45593999997E+02  0.45594000000E+02  0.51100000000E-03 0. -1.
    9900012    2    1    2    0    0 -0.83095363570E+01 -0.19893744980E+02  0.37667144305E+02  0.47787271390E+02  0.20000001575E+02 0.  0.
         12    1    1    2    0    0  0.83095363570E+01  0.19893744980E+02 -0.37667144305E+02  0.43400728610E+02  0.00000000000E+00 0. -1.
         11    1    3    3    0    0 -0.78152507700E+01 -0.50034582159E+01  0.17694016223E+02  0.19979763489E+02  0.51100000000E-03 0. -1.
        -11    1    3    3    0    0 -0.34867226159E+01 -0.15112669713E+02  0.19250415356E+02  0.24721013574E+02  0.51100000000E-03 0.  1.
         12    1    3    3    0    0  0.29924370289E+01  0.22238294871E+00  0.72271272576E+00  0.30864943272E+01  0.00000000000E+00 0. -1.
</event>
<event>
 7    1  0.2387817E-009  0.4778727E+02  0.7816164E-02  0.1312668E+00
        -11   -1    0    0    0    0  0.00000000000E+00  0.00000000000E+00  0.45593999997E+02  0.45594000000E+02  0.51100000000E-03 0.  1.
         11   -1    0    0    0    0 -0.00000000000E+00 -0.00000000000E+00 -0.45593999997E+02  0.45594000000E+02  0.51100000000E-03 0. -1.
    9900012    2    1    2    0    0 -0.17781336035E+01 -0.20324195422E+02  0.38306509426E+02  0.47787270247E+02  0.19999996366E+02 0.  0.
         12    1    1    2    0    0  0.17781336035E+01  0.20324195422E+02 -0.38306509426E+02  0.43400729753E+02  0.00000000000E+00 0. -1.
         11    1    3    3    0    0 -0.37558768109E+01  0.17276679491E+01  0.54211967060E+01  0.68176844417E+01  0.51100000000E-03 0. -1.
        -11    1    3    3    0    0 -0.33950225345E+01 -0.67942639653E+01  0.15265250307E+02  0.17050397885E+02  0.51100000000E-03 0.  1.
        -12    1    3    3    0    0  0.53727657418E+01 -0.15257599406E+02  0.17620062412E+02  0.23919187920E+02  0.00000000000E+00 0.  1.
</event>
<event>
 7    1  0.2387817E-009  0.4778727E+02  0.7816164E-02  0.1312668E+00
        -11   -1    0    0    0    0  0.00000000000E+00  0.00000000000E+00  0.45593999997E+02  0.45594000000E+02  0.51100000000E-03 0.  1.
         11   -1    0    0    0    0 -0.00000000000E+00 -0.00000000000E+00 -0.45593999997E+02  0.45594000000E+02  0.51100000000E-03 0. -1.
    9900012    2    1    2    0    0  0.35715510117E+02 -0.57128893205E+01  0.23987267726E+02  0.47787265210E+02  0.19999973401E+02 0.  0.
         12    1    1    2    0    0 -0.35715510117E+02  0.57128893205E+01 -0.23987267726E+02  0.43400734790E+02  0.00000000000E+00 0. -1.
         11    1    3    3    0    0 -0.15685691987E+01 -0.85005662572E+00 -0.64893016219E-01  0.17852778391E+01  0.51100000000E-03 0. -1.
        -11    1    3    3    0    0  0.11788396204E+02 -0.57234137000E+00  0.18972325840E+01  0.11953800712E+02  0.51100000000E-03 0.  1.
         12    1    3    3    0    0  0.25495683112E+02 -0.42904913248E+01  0.22154928158E+02  0.34048186660E+02  0.00000000000E+00 0. -1.
</event>
<event>
 7    1  0.2387817E-009  0.4778727E+02  0.7816164E-02  0.1312668E+00
        -11   -1    0    0    0    0  0.00000000000E+00  0.00000000000E+00  0.45593999997E+02  0.45594000000E+02  0.51100000000E-03 0. -1.
         11   -1    0    0    0    0 -0.00000000000E+00 -0.00000000000E+00 -0.45593999997E+02  0.45594000000E+02  0.51100000000E-03 0.  1.
    9900012    2    1    2    0    0 -0.30675740490E+02 -0.22286677317E+02  0.21116972174E+02  0.47787267814E+02  0.19999985273E+02 0.  0.
         12    1    1    2    0    0  0.30675740490E+02  0.22286677317E+02 -0.21116972174E+02  0.43400732186E+02  0.00000000000E+00 0. -1.
         11    1    3    3    0    0 -0.49526078210E+01  0.24171029013E+00  0.50352755064E+01  0.70668768052E+01  0.51100000000E-03 0. -1.
        -11    1    3    3    0    0  0.90190694510E+00  0.44762243803E+00 -0.11743655875E+01  0.15469120140E+01  0.51100000000E-03 0.  1.
         12    1    3    3    0    0 -0.26625039614E+02 -0.22976010045E+02  0.17256062255E+02  0.39173478995E+02  0.00000000000E+00 0. -1.
</event>
<event>
 7    1  0.2387817E-009  0.4778727E+02  0.7816164E-02  0.1312668E+00
        -11   -1    0    0    0    0  0.00000000000E+00  0.00000000000E+00  0.45593999997E+02  0.45594000000E+02  0.51100000000E-03 0. -1.
         11   -1    0    0    0    0 -0.00000000000E+00 -0.00000000000E+00 -0.45593999997E+02  0.45594000000E+02  0.51100000000E-03 0.  1.
    9900012    2    1    2    0    0 -0.40671477311E+02  0.13975449715E+02  0.58430103958E+01  0.47787273832E+02  0.20000012710E+02 0.  0.
         12    1    1    2    0    0  0.40671477311E+02 -0.13975449715E+02 -0.58430103958E+01  0.43400726168E+02  0.00000000000E+00 0. -1.
         11    1    3    3    0    0 -0.18522077713E+02 -0.30041483290E+01  0.60651021674E+00  0.18773921404E+02  0.51100000000E-03 0. -1.
        -11    1    3    3    0    0 -0.96474196137E+01  0.44392777970E+01  0.27314483500E+00  0.10623299907E+02  0.51100000000E-03 0.  1.
        -12    1    3    3    0    0 -0.12501979985E+02  0.12540320247E+02  0.49633553440E+01  0.18390052521E+02  0.00000000000E+00 0.  1.
</event>
<event>
 7    1  0.2387817E-009  0.4778727E+02  0.7816164E-02  0.1312668E+00
        -11   -1    0    0    0    0  0.00000000000E+00  0.00000000000E+00  0.45593999997E+02  0.45594000000E+02  0.51100000000E-03 0. -1.
         11   -1    0    0    0    0 -0.00000000000E+00 -0.00000000000E+00 -0.45593999997E+02  0.45594000000E+02  0.51100000000E-03 0.  1.
    9900012    2    1    2    0    0  0.28534778689E+02 -0.39282227835E+01 -0.32464737003E+02  0.47787266391E+02  0.19999978784E+02 0.  0.
         12    1    1    2    0    0 -0.28534778689E+02  0.39282227835E+01  0.32464737003E+02  0.43400733609E+02  0.00000000000E+00 0. -1.
         11    1    3    3    0    0  0.22953685659E+02  0.12754537326E+01 -0.20563768081E+02  0.30844238125E+02  0.51100000000E-03 0.  1.
        -11    1    3    3    0    0  0.82054420804E+01 -0.43726780750E+01 -0.94518781142E+01  0.13258491371E+02  0.51100000000E-03 0. -1.
        -12    1    3    3    0    0 -0.26243490504E+01 -0.83099844114E+00 -0.24490908081E+01  0.36845368954E+01  0.00000000000E+00 0.  1.
</event>
<event>
 7    1  0.2387817E-009  0.4778728E+02  0.7816164E-02  0.1312668E+00
        -11   -1    0    0    0    0  0.00000000000E+00  0.00000000000E+00  0.45593999997E+02  0.45594000000E+02  0.51100000000E-03 0.  1.
         11   -1    0    0    0    0 -0.00000000000E+00 -0.00000000000E+00 -0.45593999997E+02  0.45594000000E+02  0.51100000000E-03 0. -1.
    9900012    2    1    2    0    0  0.23365817216E+02 -0.12017624364E+02  0.34543278791E+02  0.47787276283E+02  0.20000023887E+02 0.  0.
         12    1    1    2    0    0 -0.23365817216E+02  0.12017624364E+02 -0.34543278791E+02  0.43400723717E+02  0.00000000000E+00 0. -1.
         11    1    3    3    0    0 -0.16718218189E+01 -0.25674788520E+01  0.42048895838E+00  0.30925308527E+01  0.51100000000E-03 0. -1.
        -11    1    3    3    0    0  0.71124756373E+01 -0.71529260452E+01  0.77332168047E+01  0.12710401375E+02  0.51100000000E-03 0.  1.
         12    1    3    3    0    0  0.17925163398E+02 -0.22972194665E+01  0.26389573028E+02  0.31984344056E+02  0.00000000000E+00 0. -1.
</event>
<event>
 7    1  0.2387817E-009  0.4778728E+02  0.7816164E-02  0.1312668E+00
        -11   -1    0    0    0    0  0.00000000000E+00  0.00000000000E+00  0.45593999997E+02  0.45594000000E+02  0.51100000000E-03 0. -1.
         11   -1    0    0    0    0 -0.00000000000E+00 -0.00000000000E+00 -0.45593999997E+02  0.45594000000E+02  0.51100000000E-03 0.  1.
    9900012    2    1    2    0    0 -0.41259548251E+02  0.99246858472E+01  0.90979787155E+01  0.47787275032E+02  0.20000018180E+02 0.  0.
         12    1    1    2    0    0  0.41259548251E+02 -0.99246858472E+01 -0.90979787155E+01  0.43400724968E+02  0.00000000000E+00 0. -1.
         11    1    3    3    0    0 -0.14622188312E+01 -0.12779949876E+01 -0.11909738569E+01  0.22781075672E+01  0.51100000000E-03 0. -1.
        -11    1    3    3    0    0 -0.12632307227E+02  0.18521562788E+01 -0.40580264507E+01  0.13396762582E+02  0.51100000000E-03 0.  1.
        -12    1    3    3    0    0 -0.27165022193E+02  0.93505245559E+01  0.14346979023E+02  0.32112404882E+02  0.00000000000E+00 0.  1.
</event>
<event>
 7    1  0.2387817E-009  0.4778723E+02  0.7816164E-02  0.1312668E+00
        -11   -1    0    0    0    0  0.00000000000E+00  0.00000000000E+00  0.45593999997E+02  0.45594000000E+02  0.51100000000E-03 0.  1.
         11   -1    0    0    0    0 -0.00000000000E+00 -0.00000000000E+00 -0.45593999997E+02  0.45594000000E+02  0.51100000000E-03 0. -1.
    9900012    2    1    2    0    0  0.48776679381E+01 -0.15785757174E+02  0.40132841446E+02  0.47787231152E+02  0.19999818114E+02 0.  0.
         12    1    1    2    0    0 -0.48776679381E+01  0.15785757174E+02 -0.40132841446E+02  0.43400768848E+02  0.00000000000E+00 0. -1.
         11    1    3    3    0    0 -0.40255163382E+01  0.23841154628E+01  0.10420186532E+02  0.11422306070E+02  0.51100000000E-03 0. -1.
        -11    1    3    3    0    0  0.10238988605E+01 -0.29807261431E+01  0.18128985707E+01  0.36358903594E+01  0.51100000000E-03 0.  1.
        -12    1    3    3    0    0  0.78792854158E+01 -0.15189146494E+02  0.27899756343E+02  0.32729034723E+02  0.00000000000E+00 0.  1.
</event>
<event>
 7    1  0.2387817E-009  0.4778727E+02  0.7816164E-02  0.1312668E+00
        -11   -1    0    0    0    0  0.00000000000E+00  0.00000000000E+00  0.45593999997E+02  0.45594000000E+02  0.51100000000E-03 0.  1.
         11   -1    0    0    0    0 -0.00000000000E+00 -0.00000000000E+00 -0.45593999997E+02  0.45594000000E+02  0.51100000000E-03 0. -1.
    9900012    2    1    2    0    0  0.24852078034E+02 -0.30841521514E+02  0.17742550731E+02  0.47787270301E+02  0.19999996612E+02 0.  0.
         12    1    1    2    0    0 -0.24852078034E+02  0.30841521514E+02 -0.17742550731E+02  0.43400729699E+02  0.00000000000E+00 0. -1.
         11    1    3    3    0    0  0.10287304650E+01 -0.17186843721E+01 -0.75875924677E+00  0.21419332847E+01  0.51100000000E-03 0. -1.
        -11    1    3    3    0    0  0.15243585463E+02 -0.12123021613E+02  0.18115846017E+02  0.26599218559E+02  0.51100000000E-03 0.  1.
        -12    1    3    3    0    0  0.85797621070E+01 -0.16999815529E+02  0.38546396039E+00  0.19046118457E+02  0.00000000000E+00 0.  1.
</event>
<event>
 7    1  0.2387817E-009  0.4778727E+02  0.7816164E-02  0.1312668E+00
        -11   -1    0    0    0    0  0.00000000000E+00  0.00000000000E+00  0.45593999997E+02  0.45594000000E+02  0.51100000000E-03 0.  1.
         11   -1    0    0    0    0 -0.00000000000E+00 -0.00000000000E+00 -0.45593999997E+02  0.45594000000E+02  0.51100000000E-03 0. -1.
    9900012    2    1    2    0    0  0.10370962823E+02 -0.34442470551E+02  0.24285438049E+02  0.47787272486E+02  0.20000006571E+02 0.  0.
         12    1    1    2    0    0 -0.10370962823E+02  0.34442470551E+02 -0.24285438049E+02  0.43400727514E+02  0.00000000000E+00 0. -1.
         11    1    3    3    0    0 -0.15250390682E+01 -0.52657544109E+01  0.77658541224E+01  0.95059141689E+01  0.51100000000E-03 0. -1.
        -11    1    3    3    0    0  0.19599002429E+01 -0.13870884317E+02  0.14095804384E+02  0.19872955045E+02  0.51100000000E-03 0.  1.
         12    1    3    3    0    0  0.99361016479E+01 -0.15305831823E+02  0.24237795422E+01  0.18408403272E+02  0.00000000000E+00 0. -1.
</event>
<event>
 7    1  0.2387817E-009  0.4778727E+02  0.7816164E-02  0.1312668E+00
        -11   -1    0    0    0    0  0.00000000000E+00  0.00000000000E+00  0.45593999997E+02  0.45594000000E+02  0.51100000000E-03 0.  1.
         11   -1    0    0    0    0 -0.00000000000E+00 -0.00000000000E+00 -0.45593999997E+02  0.45594000000E+02  0.51100000000E-03 0. -1.
    9900012    2    1    2    0    0 -0.32458716222E+02 -0.27338846624E+02 -0.90907979946E+01  0.47787269572E+02  0.19999993286E+02 0.  0.
         12    1    1    2    0    0  0.32458716222E+02  0.27338846624E+02  0.90907979946E+01  0.43400730428E+02  0.00000000000E+00 0. -1.
         11    1    3    3    0    0 -0.58494877942E+01  0.12948794820E+01 -0.54921437834E+01  0.81275373839E+01  0.51100000000E-03 0. -1.
        -11    1    3    3    0    0 -0.10470579890E+02 -0.10110867686E+02 -0.39787036582E+01  0.15089492094E+02  0.51100000000E-03 0.  1.
        -12    1    3    3    0    0 -0.16138648538E+02 -0.18522858420E+02  0.38004944712E+00  0.24570240094E+02  0.00000000000E+00 0.  1.
</event>
<event>
 7    1  0.2387817E-009  0.4778727E+02  0.7816164E-02  0.1312668E+00
        -11   -1    0    0    0    0  0.00000000000E+00  0.00000000000E+00  0.45593999997E+02  0.45594000000E+02  0.51100000000E-03 0.  1.
         11   -1    0    0    0    0 -0.00000000000E+00 -0.00000000000E+00 -0.45593999997E+02  0.45594000000E+02  0.51100000000E-03 0. -1.
    9900012    2    1    2    0    0 -0.71168988730E+01 -0.30186500683E+00  0.42812166828E+02  0.47787274193E+02  0.20000014354E+02 0.  0.
         12    1    1    2    0    0  0.71168988730E+01  0.30186500683E+00 -0.42812166828E+02  0.43400725807E+02  0.00000000000E+00 0. -1.
         11    1    3    3    0    0  0.33768260764E+01  0.60893431360E-01  0.27303051850E+01  0.43429516489E+01  0.51100000000E-03 0. -1.
        -11    1    3    3    0    0 -0.46139879464E+01  0.61365454484E+01  0.14571291342E+02  0.16470233952E+02  0.51100000000E-03 0.  1.
         12    1    3    3    0    0 -0.58797370030E+01 -0.64993038866E+01  0.25510570301E+02  0.26974088591E+02  0.00000000000E+00 0. -1.
</event>
<event>
 7    1  0.2387817E-009  0.4778727E+02  0.7816164E-02  0.1312668E+00
        -11   -1    0    0    0    0  0.00000000000E+00  0.00000000000E+00  0.45593999997E+02  0.45594000000E+02  0.51100000000E-03 0.  1.
         11   -1    0    0    0    0 -0.00000000000E+00 -0.00000000000E+00 -0.45593999997E+02  0.45594000000E+02  0.51100000000E-03 0. -1.
    9900012    2    1    2    0    0  0.14919116526E+01  0.31527783947E+02  0.29789199673E+02  0.47787269843E+02  0.19999994524E+02 0.  0.
         12    1    1    2    0    0 -0.14919116526E+01 -0.31527783947E+02 -0.29789199673E+02  0.43400730157E+02  0.00000000000E+00 0. -1.
         11    1    3    3    0    0  0.84034480965E+01  0.21818277027E+02  0.21167384594E+02  0.31539076130E+02  0.51100000000E-03 0. -1.
        -11    1    3    3    0    0 -0.16133191341E+01  0.68491985535E+01  0.20368411997E+01  0.73255062478E+01  0.51100000000E-03 0.  1.
         12    1    3    3    0    0 -0.52982173098E+01  0.28603083667E+01  0.65849738798E+01  0.89226874658E+01  0.00000000000E+00 0. -1.
</event>
<event>
 7    1  0.2387817E-009  0.4778727E+02  0.7816164E-02  0.1312668E+00
        -11   -1    0    0    0    0  0.00000000000E+00  0.00000000000E+00  0.45593999997E+02  0.45594000000E+02  0.51100000000E-03 0.  1.
         11   -1    0    0    0    0 -0.00000000000E+00 -0.00000000000E+00 -0.45593999997E+02  0.45594000000E+02  0.51100000000E-03 0. -1.
    9900012    2    1    2    0    0 -0.24842921389E+02 -0.26014170662E+02  0.24284065170E+02  0.47787266832E+02  0.19999980794E+02 0.  0.
         12    1    1    2    0    0  0.24842921389E+02  0.26014170662E+02 -0.24284065170E+02  0.43400733168E+02  0.00000000000E+00 0. -1.
         11    1    3    3    0    0 -0.13646614982E+02 -0.64299735328E+01  0.89785099032E+01  0.17555292662E+02  0.51100000000E-03 0. -1.
        -11    1    3    3    0    0 -0.13530020482E+02 -0.12674041736E+02  0.90820551019E+01  0.20644043046E+02  0.51100000000E-03 0.  1.
         12    1    3    3    0    0  0.23337140750E+01 -0.69101553936E+01  0.62235001645E+01  0.95879311243E+01  0.00000000000E+00 0. -1.
</event>
<event>
 7    1  0.2387817E-009  0.4778727E+02  0.7816164E-02  0.1312668E+00
        -11   -1    0    0    0    0  0.00000000000E+00  0.00000000000E+00  0.45593999997E+02  0.45594000000E+02  0.51100000000E-03 0. -1.
         11   -1    0    0    0    0 -0.00000000000E+00 -0.00000000000E+00 -0.45593999997E+02  0.45594000000E+02  0.51100000000E-03 0.  1.
    9900012    2    1    2    0    0 -0.35427518858E+02 -0.65056964426E+01 -0.24211359569E+02  0.47787272923E+02  0.20000008564E+02 0.  0.
         12    1    1    2    0    0  0.35427518858E+02  0.65056964426E+01  0.24211359569E+02  0.43400727077E+02  0.00000000000E+00 0. -1.
         11    1    3    3    0    0 -0.77293343367E+01 -0.69974036259E+01 -0.46431469834E+01  0.11413372900E+02  0.51100000000E-03 0. -1.
        -11    1    3    3    0    0 -0.18561926013E+02 -0.52299871615E+01 -0.15876659063E+02  0.24979314768E+02  0.51100000000E-03 0.  1.
        -12    1    3    3    0    0 -0.91362585082E+01  0.57216943448E+01 -0.36915535227E+01  0.11394585254E+02  0.00000000000E+00 0.  1.
</event>
<event>
 7    1  0.2387817E-009  0.4778727E+02  0.7816164E-02  0.1312668E+00
        -11   -1    0    0    0    0  0.00000000000E+00  0.00000000000E+00  0.45593999997E+02  0.45594000000E+02  0.51100000000E-03 0.  1.
         11   -1    0    0    0    0 -0.00000000000E+00 -0.00000000000E+00 -0.45593999997E+02  0.45594000000E+02  0.51100000000E-03 0. -1.
    9900012    2    1    2    0    0  0.22907004974E+02  0.28259288893E+02  0.23670770178E+02  0.47787266752E+02  0.19999980431E+02 0.  0.
         12    1    1    2    0    0 -0.22907004974E+02 -0.28259288893E+02 -0.23670770178E+02  0.43400733248E+02  0.00000000000E+00 0. -1.
         11    1    3    3    0    0 -0.25979156420E+00  0.10975205894E+00  0.21181796345E+01  0.21368721057E+01  0.51100000000E-03 0. -1.
        -11    1    3    3    0    0  0.16326072545E+02  0.88334944192E+01  0.15774039053E+02  0.24359630061E+02  0.51100000000E-03 0.  1.
         12    1    3    3    0    0  0.68407239940E+01  0.19316042415E+02  0.57785514905E+01  0.21290764586E+02  0.00000000000E+00 0. -1.
</event>
<event>
 7    1  0.2387817E-009  0.4778727E+02  0.7816164E-02  0.1312668E+00
        -11   -1    0    0    0    0  0.00000000000E+00  0.00000000000E+00  0.45593999997E+02  0.45594000000E+02  0.51100000000E-03 0.  1.
         11   -1    0    0    0    0 -0.00000000000E+00 -0.00000000000E+00 -0.45593999997E+02  0.45594000000E+02  0.51100000000E-03 0. -1.
    9900012    2    1    2    0    0  0.37940700973E+02  0.12753670268E+01  0.21035678921E+02  0.47787272598E+02  0.20000007084E+02 0.  0.
         12    1    1    2    0    0 -0.37940700973E+02 -0.12753670268E+01 -0.21035678921E+02  0.43400727402E+02  0.00000000000E+00 0. -1.
         11    1    3    3    0    0  0.68500548150E+01 -0.32671950177E+01  0.41351956270E+01  0.86427806513E+01  0.51100000000E-03 0. -1.
        -11    1    3    3    0    0  0.31972206125E+02  0.69284703760E+01  0.16203044730E+02  0.36507044868E+02  0.51100000000E-03 0.  1.
        -12    1    3    3    0    0 -0.88155996690E+00 -0.23859083316E+01  0.69743856412E+00  0.26374470786E+01  0.00000000000E+00 0.  1.
</event>
<event>
 7    1  0.2387817E-009  0.4778727E+02  0.7816164E-02  0.1312668E+00
        -11   -1    0    0    0    0  0.00000000000E+00  0.00000000000E+00  0.45593999997E+02  0.45594000000E+02  0.51100000000E-03 0.  1.
         11   -1    0    0    0    0 -0.00000000000E+00 -0.00000000000E+00 -0.45593999997E+02  0.45594000000E+02  0.51100000000E-03 0. -1.
    9900012    2    1    2    0    0 -0.37654814555E+01 -0.43064004505E+02  0.38647102023E+01  0.47787270518E+02  0.19999997600E+02 0.  0.
         12    1    1    2    0    0  0.37654814555E+01  0.43064004505E+02 -0.38647102023E+01  0.43400729482E+02  0.00000000000E+00 0. -1.
         11    1    3    3    0    0 -0.15108447435E+01 -0.25542111253E+02 -0.42607814694E+01  0.25939089385E+02  0.51100000000E-03 0.  1.
        -11    1    3    3    0    0 -0.15067179616E+01 -0.27815195396E+01 -0.21845903074E+01  0.38444095824E+01  0.51100000000E-03 0. -1.
        -12    1    3    3    0    0 -0.74791875035E+00 -0.14740373712E+02  0.10310081979E+02  0.18003771551E+02  0.00000000000E+00 0.  1.
</event>
<event>
 7    1  0.2387817E-009  0.4778727E+02  0.7816164E-02  0.1312668E+00
        -11   -1    0    0    0    0  0.00000000000E+00  0.00000000000E+00  0.45593999997E+02  0.45594000000E+02  0.51100000000E-03 0.  1.
         11   -1    0    0    0    0 -0.00000000000E+00 -0.00000000000E+00 -0.45593999997E+02  0.45594000000E+02  0.51100000000E-03 0. -1.
    9900012    2    1    2    0    0  0.49356620644E+01  0.41094032600E+02  0.13059212145E+02  0.47787270776E+02  0.19999998775E+02 0.  0.
         12    1    1    2    0    0 -0.49356620644E+01 -0.41094032600E+02 -0.13059212145E+02  0.43400729224E+02  0.00000000000E+00 0. -1.
         11    1    3    3    0    0  0.31134799170E+01  0.71174927056E+01  0.27720016921E+01  0.82484212580E+01  0.51100000000E-03 0. -1.
        -11    1    3    3    0    0 -0.53002193878E+01  0.18011953355E+02 -0.87811442501E+00  0.18796113280E+02  0.51100000000E-03 0.  1.
        -12    1    3    3    0    0  0.71224015352E+01  0.15964586540E+02  0.11165324878E+02  0.20742736238E+02  0.00000000000E+00 0.  1.
</event>
<event>
 7    1  0.2490615E-009  0.4778727E+02  0.7816164E-02  0.1312668E+00
        -11   -1    0    0    0    0  0.00000000000E+00  0.00000000000E+00  0.45593999997E+02  0.45594000000E+02  0.51100000000E-03 0.  1.
         11   -1    0    0    0    0 -0.00000000000E+00 -0.00000000000E+00 -0.45593999997E+02  0.45594000000E+02  0.51100000000E-03 0. -1.
    9900012    2    1    2    0    0 -0.39512582795E+02 -0.15462258775E+02  0.91267365527E+01  0.47787274595E+02  0.20000016188E+02 0.  0.
         12    1    1    2    0    0  0.39512582795E+02  0.15462258775E+02 -0.91267365527E+01  0.43400725405E+02  0.00000000000E+00 0. -1.
         11    1    3    3    0    0 -0.19323560941E+02 -0.38739743422E-01  0.96284865810E+01  0.21589563736E+02  0.51100000000E-03 0. -1.
        -11    1    3    3    0    0 -0.11345361213E+02 -0.69321513388E+01  0.26086633475E+01  0.13549061516E+02  0.51100000000E-03 0.  1.
         12    1    3    3    0    0 -0.88436606407E+01 -0.84913676931E+01 -0.31104133758E+01  0.12648649343E+02  0.00000000000E+00 0. -1.
</event>
<event>
 7    1  0.2387817E-009  0.4778727E+02  0.7816164E-02  0.1312668E+00
        -11   -1    0    0    0    0  0.00000000000E+00  0.00000000000E+00  0.45593999997E+02  0.45594000000E+02  0.51100000000E-03 0.  1.
         11   -1    0    0    0    0 -0.00000000000E+00 -0.00000000000E+00 -0.45593999997E+02  0.45594000000E+02  0.51100000000E-03 0. -1.
    9900012    2    1    2    0    0 -0.22874778104E+02 -0.17839771371E+00  0.36882729862E+02  0.47787273495E+02  0.20000011174E+02 0.  0.
         12    1    1    2    0    0  0.22874778104E+02  0.17839771371E+00 -0.36882729862E+02  0.43400726505E+02  0.00000000000E+00 0. -1.
         11    1    3    3    0    0 -0.14221005773E+02 -0.17324051590E+01  0.58828129862E+01  0.15486953274E+02  0.51100000000E-03 0.  1.
        -11    1    3    3    0    0 -0.91395605148E+00  0.74557066345E+00  0.26283877394E+01  0.28809050050E+01  0.51100000000E-03 0. -1.
        -12    1    3    3    0    0 -0.77398162793E+01  0.80843678183E+00  0.28371529137E+02  0.29419415216E+02  0.00000000000E+00 0.  1.
</event>
<event>
 7    1  0.2387817E-009  0.4778729E+02  0.7816164E-02  0.1312668E+00
        -11   -1    0    0    0    0  0.00000000000E+00  0.00000000000E+00  0.45593999997E+02  0.45594000000E+02  0.51100000000E-03 0.  1.
         11   -1    0    0    0    0 -0.00000000000E+00 -0.00000000000E+00 -0.45593999997E+02  0.45594000000E+02  0.51100000000E-03 0. -1.
    9900012    2    1    2    0    0 -0.24718576616E+02  0.29519784468E+02  0.20029868453E+02  0.47787293379E+02  0.20000101834E+02 0.  0.
         12    1    1    2    0    0  0.24718576616E+02 -0.29519784468E+02 -0.20029868453E+02  0.43400706621E+02  0.00000000000E+00 0. -1.
         11    1    3    3    0    0 -0.25785945726E+01  0.20345985403E+01 -0.31881673256E+01  0.45774613431E+01  0.51100000000E-03 0. -1.
        -11    1    3    3    0    0 -0.14375842056E+01  0.69414498253E+01  0.63538626869E+01  0.95195559419E+01  0.51100000000E-03 0.  1.
        -12    1    3    3    0    0 -0.20702397838E+02  0.20543736102E+02  0.16864173091E+02  0.33690276094E+02  0.00000000000E+00 0.  1.
</event>
<event>
 7    1  0.2387817E-009  0.4778727E+02  0.7816164E-02  0.1312668E+00
        -11   -1    0    0    0    0  0.00000000000E+00  0.00000000000E+00  0.45593999997E+02  0.45594000000E+02  0.51100000000E-03 0.  1.
         11   -1    0    0    0    0 -0.00000000000E+00 -0.00000000000E+00 -0.45593999997E+02  0.45594000000E+02  0.51100000000E-03 0. -1.
    9900012    2    1    2    0    0  0.28968599729E+02  0.29635815478E+02  0.12890385134E+02  0.47787270073E+02  0.19999995570E+02 0.  0.
         12    1    1    2    0    0 -0.28968599729E+02 -0.29635815478E+02 -0.12890385134E+02  0.43400729927E+02  0.00000000000E+00 0. -1.
         11    1    3    3    0    0  0.85061335188E+01  0.17693402237E+01 -0.39550938213E+00  0.86972007106E+01  0.51100000000E-03 0. -1.
        -11    1    3    3    0    0  0.22413370221E+01  0.10980699653E+01  0.51183723946E+01  0.56944785122E+01  0.51100000000E-03 0.  1.
        -12    1    3    3    0    0  0.18221129188E+02  0.26768405289E+02  0.81675221219E+01  0.33395590850E+02  0.00000000000E+00 0.  1.
</event>
<event>
 7    1  0.2387817E-009  0.4778728E+02  0.7816164E-02  0.1312668E+00
        -11   -1    0    0    0    0  0.00000000000E+00  0.00000000000E+00  0.45593999997E+02  0.45594000000E+02  0.51100000000E-03 0.  1.
         11   -1    0    0    0    0 -0.00000000000E+00 -0.00000000000E+00 -0.45593999997E+02  0.45594000000E+02  0.51100000000E-03 0. -1.
    9900012    2    1    2    0    0 -0.30366331831E+01  0.42028883187E+02  0.10391083953E+02  0.47787276633E+02  0.20000025482E+02 0.  0.
         12    1    1    2    0    0  0.30366331831E+01 -0.42028883187E+02 -0.10391083953E+02  0.43400723367E+02  0.00000000000E+00 0. -1.
         11    1    3    3    0    0  0.24185171437E+01  0.44270732076E+01 -0.10728077037E+00  0.50457617645E+01  0.51100000000E-03 0. -1.
        -11    1    3    3    0    0 -0.65294491407E+01  0.35975468110E+02  0.49945499546E+01  0.36902757910E+02  0.51100000000E-03 0.  1.
        -12    1    3    3    0    0  0.10742988139E+01  0.16263418689E+01  0.55038147690E+01  0.58387569591E+01  0.00000000000E+00 0.  1.
</event>
<event>
 7    1  0.2387817E-009  0.4778727E+02  0.7816164E-02  0.1312668E+00
        -11   -1    0    0    0    0  0.00000000000E+00  0.00000000000E+00  0.45593999997E+02  0.45594000000E+02  0.51100000000E-03 0. -1.
         11   -1    0    0    0    0 -0.00000000000E+00 -0.00000000000E+00 -0.45593999997E+02  0.45594000000E+02  0.51100000000E-03 0.  1.
    9900012    2    1    2    0    0  0.19792723553E+02  0.61421094438E+01 -0.38133267485E+02  0.47787268403E+02  0.19999987958E+02 0.  0.
         12    1    1    2    0    0 -0.19792723553E+02 -0.61421094438E+01  0.38133267485E+02  0.43400731597E+02  0.00000000000E+00 0. -1.
         11    1    3    3    0    0  0.78173613328E+01  0.72968186119E+01 -0.88054828442E+01  0.13852480949E+02  0.51100000000E-03 0.  1.
        -11    1    3    3    0    0 -0.34168815948E-01 -0.30245347446E+01 -0.11296965263E+01  0.32288066576E+01  0.51100000000E-03 0. -1.
        -12    1    3    3    0    0  0.12009531036E+02  0.18698255765E+01 -0.28198088114E+02  0.30705980797E+02  0.00000000000E+00 0.  1.
</event>
<event>
 7    1  0.2387817E-009  0.4778727E+02  0.7816164E-02  0.1312668E+00
        -11   -1    0    0    0    0  0.00000000000E+00  0.00000000000E+00  0.45593999997E+02  0.45594000000E+02  0.51100000000E-03 0. -1.
         11   -1    0    0    0    0 -0.00000000000E+00 -0.00000000000E+00 -0.45593999997E+02  0.45594000000E+02  0.51100000000E-03 0.  1.
    9900012    2    1    2    0    0  0.22905800315E+02  0.35637822491E+02 -0.94283233119E+01  0.47787270047E+02  0.19999995454E+02 0.  0.
         12    1    1    2    0    0 -0.22905800315E+02 -0.35637822491E+02  0.94283233119E+01  0.43400729953E+02  0.00000000000E+00 0. -1.
         11    1    3    3    0    0  0.18960829467E+01  0.26625982813E+01  0.23488199769E+01  0.40251106436E+01  0.51100000000E-03 0. -1.
        -11    1    3    3    0    0 -0.38905015282E+00 -0.87690235984E+00 -0.24653965996E+01  0.26454675247E+01  0.51100000000E-03 0.  1.
        -12    1    3    3    0    0  0.21398767521E+02  0.33852126569E+02 -0.93117466892E+01  0.41116691879E+02  0.00000000000E+00 0.  1.
</event>
<event>
 7    1  0.2387817E-009  0.4778727E+02  0.7816164E-02  0.1312668E+00
        -11   -1    0    0    0    0  0.00000000000E+00  0.00000000000E+00  0.45593999997E+02  0.45594000000E+02  0.51100000000E-03 0.  1.
         11   -1    0    0    0    0 -0.00000000000E+00 -0.00000000000E+00 -0.45593999997E+02  0.45594000000E+02  0.51100000000E-03 0. -1.
    9900012    2    1    2    0    0  0.70699099428E+01 -0.28433626864E+02  0.32018250511E+02  0.47787272713E+02  0.20000007610E+02 0.  0.
         12    1    1    2    0    0 -0.70699099428E+01  0.28433626864E+02 -0.32018250511E+02  0.43400727287E+02  0.00000000000E+00 0. -1.
         11    1    3    3    0    0  0.30382843732E+01 -0.44509601723E+01  0.82839980091E+01  0.98826535740E+01  0.51100000000E-03 0. -1.
        -11    1    3    3    0    0  0.36661161547E+01 -0.13252529859E+02  0.23130597106E+01  0.13943464448E+02  0.51100000000E-03 0.  1.
         12    1    3    3    0    0  0.36550941485E+00 -0.10730136833E+02  0.21421192791E+02  0.23961154692E+02  0.00000000000E+00 0. -1.
</event>
<event>
 7    1  0.2387817E-009  0.4778727E+02  0.7816164E-02  0.1312668E+00
        -11   -1    0    0    0    0  0.00000000000E+00  0.00000000000E+00  0.45593999997E+02  0.45594000000E+02  0.51100000000E-03 0.  1.
         11   -1    0    0    0    0 -0.00000000000E+00 -0.00000000000E+00 -0.45593999997E+02  0.45594000000E+02  0.51100000000E-03 0. -1.
    9900012    2    1    2    0    0 -0.15530210235E+02  0.17049845761E+02  0.36766004451E+02  0.47787265517E+02  0.19999974797E+02 0.  0.
         12    1    1    2    0    0  0.15530210235E+02 -0.17049845761E+02 -0.36766004451E+02  0.43400734483E+02  0.00000000000E+00 0. -1.
         11    1    3    3    0    0 -0.65199160479E+01 -0.12753795857E+01  0.97435140196E+01  0.11792877684E+02  0.51100000000E-03 0. -1.
        -11    1    3    3    0    0 -0.73324147471E+01  0.50316444729E+01  0.17259504280E+02  0.19415772979E+02  0.51100000000E-03 0.  1.
         12    1    3    3    0    0 -0.16778794404E+01  0.13293580874E+02  0.97629861507E+01  0.16578614853E+02  0.00000000000E+00 0. -1.
</event>
<event>
 7    1  0.2387817E-009  0.4778727E+02  0.7816164E-02  0.1312668E+00
        -11   -1    0    0    0    0  0.00000000000E+00  0.00000000000E+00  0.45593999997E+02  0.45594000000E+02  0.51100000000E-03 0.  1.
         11   -1    0    0    0    0 -0.00000000000E+00 -0.00000000000E+00 -0.45593999997E+02  0.45594000000E+02  0.51100000000E-03 0. -1.
    9900012    2    1    2    0    0 -0.24273488476E+02  0.74230916216E+01  0.35203959006E+02  0.47787271184E+02  0.20000000638E+02 0.  0.
         12    1    1    2    0    0  0.24273488476E+02 -0.74230916216E+01 -0.35203959006E+02  0.43400728816E+02  0.00000000000E+00 0. -1.
         11    1    3    3    0    0 -0.11633244598E+02  0.78892942942E+01  0.59046726770E+01  0.15245934016E+02  0.51100000000E-03 0. -1.
        -11    1    3    3    0    0 -0.70733597822E+01  0.36757674105E+00  0.88712017145E+01  0.11351905188E+02  0.51100000000E-03 0.  1.
        -12    1    3    3    0    0 -0.55668840960E+01 -0.83377941368E+00  0.20428084615E+02  0.21189431981E+02  0.00000000000E+00 0.  1.
</event>
<event>
 7    1  0.2387817E-009  0.4778727E+02  0.7816164E-02  0.1312668E+00
        -11   -1    0    0    0    0  0.00000000000E+00  0.00000000000E+00  0.45593999997E+02  0.45594000000E+02  0.51100000000E-03 0.  1.
         11   -1    0    0    0    0 -0.00000000000E+00 -0.00000000000E+00 -0.45593999997E+02  0.45594000000E+02  0.51100000000E-03 0. -1.
    9900012    2    1    2    0    0  0.14944335483E+02  0.52748587422E+00  0.40743242803E+02  0.47787271452E+02  0.20000001858E+02 0.  0.
         12    1    1    2    0    0 -0.14944335483E+02 -0.52748587422E+00 -0.40743242803E+02  0.43400728548E+02  0.00000000000E+00 0. -1.
         11    1    3    3    0    0  0.77108450585E+01 -0.47593954402E+01  0.14730446209E+02  0.17294363887E+02  0.51100000000E-03 0. -1.
        -11    1    3    3    0    0  0.93706428368E+01  0.32076752374E+01  0.95375406424E+01  0.13750011250E+02  0.51100000000E-03 0.  1.
        -12    1    3    3    0    0 -0.21371524128E+01  0.20792060771E+01  0.16475255952E+02  0.16742896315E+02  0.00000000000E+00 0.  1.
</event>
<event>
 7    1  0.2387817E-009  0.4778727E+02  0.7816164E-02  0.1312668E+00
        -11   -1    0    0    0    0  0.00000000000E+00  0.00000000000E+00  0.45593999997E+02  0.45594000000E+02  0.51100000000E-03 0.  1.
         11   -1    0    0    0    0 -0.00000000000E+00 -0.00000000000E+00 -0.45593999997E+02  0.45594000000E+02  0.51100000000E-03 0. -1.
    9900012    2    1    2    0    0  0.47156642319E-01  0.38853670549E+02  0.19339415818E+02  0.47787274856E+02  0.20000017377E+02 0.  0.
         12    1    1    2    0    0 -0.47156642319E-01 -0.38853670549E+02 -0.19339415818E+02  0.43400725144E+02  0.00000000000E+00 0. -1.
         11    1    3    3    0    0  0.22005707323E+01 -0.14142058394E+00  0.87492764300E-01  0.22068453897E+01  0.51100000000E-03 0. -1.
        -11    1    3    3    0    0 -0.34269746021E+01  0.19317034751E+01  0.33239047353E+00  0.39479256486E+01  0.51100000000E-03 0.  1.
        -12    1    3    3    0    0  0.12735605121E+01  0.37063387658E+02  0.18919532581E+02  0.41632503817E+02  0.00000000000E+00 0.  1.
</event>
<event>
 7    1  0.2387817E-009  0.4778727E+02  0.7816164E-02  0.1312668E+00
        -11   -1    0    0    0    0  0.00000000000E+00  0.00000000000E+00  0.45593999997E+02  0.45594000000E+02  0.51100000000E-03 0.  1.
         11   -1    0    0    0    0 -0.00000000000E+00 -0.00000000000E+00 -0.45593999997E+02  0.45594000000E+02  0.51100000000E-03 0. -1.
    9900012    2    1    2    0    0  0.10689269659E+02 -0.12528021781E+02  0.40154843451E+02  0.47787271110E+02  0.20000000300E+02 0.  0.
         12    1    1    2    0    0 -0.10689269659E+02  0.12528021781E+02 -0.40154843451E+02  0.43400728890E+02  0.00000000000E+00 0. -1.
         11    1    3    3    0    0  0.61303273909E+01 -0.10798835702E+02  0.16719468672E+02  0.20826339077E+02  0.51100000000E-03 0. -1.
        -11    1    3    3    0    0  0.11923764932E+01 -0.66631014346E+01  0.84356035079E+01  0.10815640953E+02  0.51100000000E-03 0.  1.
        -12    1    3    3    0    0  0.33665657746E+01  0.49339153551E+01  0.14999771271E+02  0.16145291079E+02  0.00000000000E+00 0.  1.
</event>
<event>
 7    1  0.2387817E-009  0.4778728E+02  0.7816164E-02  0.1312668E+00
        -11   -1    0    0    0    0  0.00000000000E+00  0.00000000000E+00  0.45593999997E+02  0.45594000000E+02  0.51100000000E-03 0. -1.
         11   -1    0    0    0    0 -0.00000000000E+00 -0.00000000000E+00 -0.45593999997E+02  0.45594000000E+02  0.51100000000E-03 0.  1.
    9900012    2    1    2    0    0  0.24987018449E+02 -0.14187811924E+02 -0.32526568379E+02  0.47787277096E+02  0.20000027589E+02 0.  0.
         12    1    1    2    0    0 -0.24987018449E+02  0.14187811924E+02  0.32526568379E+02  0.43400722904E+02  0.00000000000E+00 0. -1.
         11    1    3    3    0    0 -0.20634214201E+01 -0.17469136093E+01 -0.17027110088E+01  0.31950962671E+01  0.51100000000E-03 0. -1.
        -11    1    3    3    0    0 -0.26670173655E+00 -0.25696333425E+01 -0.55700570526E+00  0.26428017232E+01  0.51100000000E-03 0.  1.
         12    1    3    3    0    0  0.27317141605E+02 -0.98712649720E+01 -0.30266851664E+02  0.41949379105E+02  0.00000000000E+00 0. -1.
</event>
<event>
 7    1  0.2387817E-009  0.4778727E+02  0.7816164E-02  0.1312668E+00
        -11   -1    0    0    0    0  0.00000000000E+00  0.00000000000E+00  0.45593999997E+02  0.45594000000E+02  0.51100000000E-03 0.  1.
         11   -1    0    0    0    0 -0.00000000000E+00 -0.00000000000E+00 -0.45593999997E+02  0.45594000000E+02  0.51100000000E-03 0. -1.
    9900012    2    1    2    0    0  0.43388732665E+02 -0.69097413809E+00  0.75107784512E+00  0.47787266303E+02  0.19999978381E+02 0.  0.
         12    1    1    2    0    0 -0.43388732665E+02  0.69097413809E+00 -0.75107784512E+00  0.43400733697E+02  0.00000000000E+00 0. -1.
         11    1    3    3    0    0  0.13169627377E+02  0.19119262421E+01 -0.43198395000E+01  0.13991267304E+02  0.51100000000E-03 0. -1.
        -11    1    3    3    0    0  0.21099200976E+01 -0.43826099103E+01  0.26181714425E+01  0.55239346853E+01  0.51100000000E-03 0.  1.
        -12    1    3    3    0    0  0.28109185191E+02  0.17797095301E+01  0.24527459026E+01  0.28272064314E+02  0.00000000000E+00 0.  1.
</event>
<event>
 7    1  0.2387817E-009  0.4778727E+02  0.7816164E-02  0.1312668E+00
        -11   -1    0    0    0    0  0.00000000000E+00  0.00000000000E+00  0.45593999997E+02  0.45594000000E+02  0.51100000000E-03 0.  1.
         11   -1    0    0    0    0 -0.00000000000E+00 -0.00000000000E+00 -0.45593999997E+02  0.45594000000E+02  0.51100000000E-03 0. -1.
    9900012    2    1    2    0    0 -0.40214366615E+02 -0.29054859791E+00  0.16320038105E+02  0.47787270231E+02  0.19999996291E+02 0.  0.
         12    1    1    2    0    0  0.40214366615E+02  0.29054859791E+00 -0.16320038105E+02  0.43400729769E+02  0.00000000000E+00 0. -1.
         11    1    3    3    0    0 -0.18214518207E+02  0.80509148165E+00  0.29199933225E+01  0.18464647493E+02  0.51100000000E-03 0.  1.
        -11    1    3    3    0    0 -0.20771720777E+02  0.91551851429E+00  0.15681627613E+02  0.26042580576E+02  0.51100000000E-03 0. -1.
         12    1    3    3    0    0 -0.12281276314E+01 -0.20111585939E+01 -0.22815828306E+01  0.32800421616E+01  0.00000000000E+00 0. -1.
</event>
<event>
 7    1  0.2387817E-009  0.4778728E+02  0.7816164E-02  0.1312668E+00
        -11   -1    0    0    0    0  0.00000000000E+00  0.00000000000E+00  0.45593999997E+02  0.45594000000E+02  0.51100000000E-03 0. -1.
         11   -1    0    0    0    0 -0.00000000000E+00 -0.00000000000E+00 -0.45593999997E+02  0.45594000000E+02  0.51100000000E-03 0.  1.
    9900012    2    1    2    0    0 -0.34002162833E+01  0.41752420325E+02  0.11348854408E+02  0.47787279152E+02  0.20000036964E+02 0.  0.
         12    1    1    2    0    0  0.34002162833E+01 -0.41752420325E+02 -0.11348854408E+02  0.43400720848E+02  0.00000000000E+00 0. -1.
         11    1    3    3    0    0 -0.64870049065E+00  0.46616306231E+01  0.73007344205E+01  0.86863303951E+01  0.51100000000E-03 0. -1.
        -11    1    3    3    0    0  0.35227444046E+00  0.11655067730E+02  0.65168306757E+01  0.13357910891E+02  0.51100000000E-03 0.  1.
        -12    1    3    3    0    0 -0.31037902331E+01  0.25435721972E+02 -0.24687106885E+01  0.25743037865E+02  0.00000000000E+00 0.  1.
</event>
<event>
 7    1  0.2387817E-009  0.4778727E+02  0.7816164E-02  0.1312668E+00
        -11   -1    0    0    0    0  0.00000000000E+00  0.00000000000E+00  0.45593999997E+02  0.45594000000E+02  0.51100000000E-03 0.  1.
         11   -1    0    0    0    0 -0.00000000000E+00 -0.00000000000E+00 -0.45593999997E+02  0.45594000000E+02  0.51100000000E-03 0. -1.
    9900012    2    1    2    0    0  0.36765338918E+02  0.18767884334E+02  0.13405211736E+02  0.47787270400E+02  0.19999997061E+02 0.  0.
         12    1    1    2    0    0 -0.36765338918E+02 -0.18767884334E+02 -0.13405211736E+02  0.43400729600E+02  0.00000000000E+00 0. -1.
         11    1    3    3    0    0 -0.42851109583E+00  0.12852561542E+01  0.42364820756E+01  0.44478405748E+01  0.51100000000E-03 0. -1.
        -11    1    3    3    0    0  0.11202446567E+02  0.54991960482E+01  0.77359920938E+01  0.14682695263E+02  0.51100000000E-03 0.  1.
         12    1    3    3    0    0  0.25991403447E+02  0.11983432131E+02  0.14327375667E+01  0.28656734562E+02  0.00000000000E+00 0. -1.
</event>
<event>
 7    1  0.2387817E-009  0.4778729E+02  0.7816164E-02  0.1312668E+00
        -11   -1    0    0    0    0  0.00000000000E+00  0.00000000000E+00  0.45593999997E+02  0.45594000000E+02  0.51100000000E-03 0. -1.
         11   -1    0    0    0    0 -0.00000000000E+00 -0.00000000000E+00 -0.45593999997E+02  0.45594000000E+02  0.51100000000E-03 0.  1.
    9900012    2    1    2    0    0  0.59213414785E+01 -0.39511499209E+02  0.16952895098E+02  0.47787291402E+02  0.20000092818E+02 0.  0.
         12    1    1    2    0    0 -0.59213414785E+01  0.39511499209E+02 -0.16952895098E+02  0.43400708598E+02  0.00000000000E+00 0. -1.
         11    1    3    3    0    0  0.61718802908E+01 -0.80891845255E+01  0.18782673713E+01  0.10346733842E+02  0.51100000000E-03 0. -1.
        -11    1    3    3    0    0  0.29080313660E+01 -0.20824036012E+02  0.32941363971E+01  0.21282585771E+02  0.51100000000E-03 0.  1.
        -12    1    3    3    0    0 -0.31585701782E+01 -0.10598278671E+02  0.11780491330E+02  0.16157971789E+02  0.00000000000E+00 0.  1.
</event>
<event>
 7    1  0.2387817E-009  0.4778728E+02  0.7816164E-02  0.1312668E+00
        -11   -1    0    0    0    0  0.00000000000E+00  0.00000000000E+00  0.45593999997E+02  0.45594000000E+02  0.51100000000E-03 0.  1.
         11   -1    0    0    0    0 -0.00000000000E+00 -0.00000000000E+00 -0.45593999997E+02  0.45594000000E+02  0.51100000000E-03 0. -1.
    9900012    2    1    2    0    0  0.12924239628E+01  0.25671703200E+01  0.43305449990E+02  0.47787277402E+02  0.20000028987E+02 0.  0.
         12    1    1    2    0    0 -0.12924239628E+01 -0.25671703200E+01 -0.43305449990E+02  0.43400722598E+02  0.00000000000E+00 0. -1.
         11    1    3    3    0    0 -0.79629628978E+01  0.16900572682E+01  0.16924244399E+02  0.18780178924E+02  0.51100000000E-03 0. -1.
        -11    1    3    3    0    0  0.81396545869E+00 -0.15270845529E+01  0.69871866334E+00  0.18662087320E+01  0.51100000000E-03 0.  1.
        -12    1    3    3    0    0  0.84414214019E+01  0.24041976047E+01  0.25682486928E+02  0.27140889746E+02  0.00000000000E+00 0.  1.
</event>
<event>
 7    1  0.2387817E-009  0.4778726E+02  0.7816164E-02  0.1312668E+00
        -11   -1    0    0    0    0  0.00000000000E+00  0.00000000000E+00  0.45593999997E+02  0.45594000000E+02  0.51100000000E-03 0. -1.
         11   -1    0    0    0    0 -0.00000000000E+00 -0.00000000000E+00 -0.45593999997E+02  0.45594000000E+02  0.51100000000E-03 0.  1.
    9900012    2    1    2    0    0 -0.23389455454E+02  0.36233145230E+02 -0.48700038480E+01  0.47787258334E+02  0.19999942048E+02 0.  0.
         12    1    1    2    0    0  0.23389455454E+02 -0.36233145230E+02  0.48700038480E+01  0.43400741666E+02  0.00000000000E+00 0. -1.
         11    1    3    3    0    0 -0.19010713850E+02  0.20352262354E+02  0.22813413394E+01  0.27943270077E+02  0.51100000000E-03 0. -1.
        -11    1    3    3    0    0 -0.31769003157E+01  0.12644590445E+02 -0.13686922088E+01  0.13109221249E+02  0.51100000000E-03 0.  1.
         12    1    3    3    0    0 -0.12018412877E+01  0.32362924316E+01 -0.57826529785E+01  0.67347670081E+01  0.00000000000E+00 0. -1.
</event>
<event>
 7    1  0.2387817E-009  0.4778730E+02  0.7816164E-02  0.1312668E+00
        -11   -1    0    0    0    0  0.00000000000E+00  0.00000000000E+00  0.45593999997E+02  0.45594000000E+02  0.51100000000E-03 0.  1.
         11   -1    0    0    0    0 -0.00000000000E+00 -0.00000000000E+00 -0.45593999997E+02  0.45594000000E+02  0.51100000000E-03 0. -1.
    9900012    2    1    2    0    0  0.46692246871E+01 -0.39348899149E+02  0.17705464545E+02  0.47787297262E+02  0.20000119537E+02 0.  0.
         12    1    1    2    0    0 -0.46692246871E+01  0.39348899149E+02 -0.17705464545E+02  0.43400702738E+02  0.00000000000E+00 0. -1.
         11    1    3    3    0    0  0.70674284094E+00  0.72573855498E-01 -0.39428730800E-01  0.71155273427E+00  0.51100000000E-03 0. -1.
        -11    1    3    3    0    0  0.50519914676E+01 -0.31803485442E+02  0.21289171690E+02  0.38603278819E+02  0.51100000000E-03 0.  1.
        -12    1    3    3    0    0 -0.10895096215E+01 -0.76179875618E+01 -0.35442784148E+01  0.84724657090E+01  0.00000000000E+00 0.  1.
</event>
<event>
 7    1  0.2387817E-009  0.4778727E+02  0.7816164E-02  0.1312668E+00
        -11   -1    0    0    0    0  0.00000000000E+00  0.00000000000E+00  0.45593999997E+02  0.45594000000E+02  0.51100000000E-03 0. -1.
         11   -1    0    0    0    0 -0.00000000000E+00 -0.00000000000E+00 -0.45593999997E+02  0.45594000000E+02  0.51100000000E-03 0.  1.
    9900012    2    1    2    0    0  0.37264852420E+02  0.91428441462E+01 -0.20282068880E+02  0.47787272552E+02  0.20000006873E+02 0.  0.
         12    1    1    2    0    0 -0.37264852420E+02 -0.91428441462E+01  0.20282068880E+02  0.43400727448E+02  0.00000000000E+00 0. -1.
         11    1    3    3    0    0  0.18944644061E+02  0.63264164040E+00 -0.53013261838E+01  0.19682576905E+02  0.51100000000E-03 0. -1.
        -11    1    3    3    0    0  0.70398634017E+01 -0.27328715275E+01 -0.69718324806E+01  0.10277874873E+02  0.51100000000E-03 0.  1.
         12    1    3    3    0    0  0.11280344957E+02  0.11243074033E+02 -0.80089102152E+01  0.17826820774E+02  0.00000000000E+00 0. -1.
</event>
<event>
 7    1  0.2738399E-009  0.4778727E+02  0.7816164E-02  0.1312668E+00
        -11   -1    0    0    0    0  0.00000000000E+00  0.00000000000E+00  0.45593999997E+02  0.45594000000E+02  0.51100000000E-03 0. -1.
         11   -1    0    0    0    0 -0.00000000000E+00 -0.00000000000E+00 -0.45593999997E+02  0.45594000000E+02  0.51100000000E-03 0.  1.
    9900012    2    1    2    0    0 -0.83261053840E+00  0.38036419132E+02 -0.20884469935E+02  0.47787268380E+02  0.19999987850E+02 0.  0.
         12    1    1    2    0    0  0.83261053840E+00 -0.38036419132E+02  0.20884469935E+02  0.43400731620E+02  0.00000000000E+00 0. -1.
         11    1    3    3    0    0  0.14125797966E+01  0.15430631898E+02 -0.67053263987E+01  0.16883755057E+02  0.51100000000E-03 0. -1.
        -11    1    3    3    0    0  0.44172948394E+00  0.11903747014E+02 -0.15761447632E+02  0.19756455898E+02  0.51100000000E-03 0.  1.
         12    1    3    3    0    0 -0.26869198189E+01  0.10702040220E+02  0.15823040959E+01  0.11147057425E+02  0.00000000000E+00 0. -1.
</event>
<event>
 7    1  0.2387817E-009  0.4778728E+02  0.7816164E-02  0.1312668E+00
        -11   -1    0    0    0    0  0.00000000000E+00  0.00000000000E+00  0.45593999997E+02  0.45594000000E+02  0.51100000000E-03 0.  1.
         11   -1    0    0    0    0 -0.00000000000E+00 -0.00000000000E+00 -0.45593999997E+02  0.45594000000E+02  0.51100000000E-03 0. -1.
    9900012    2    1    2    0    0 -0.61046137999E+00  0.18103672713E+02  0.39439916837E+02  0.47787278015E+02  0.20000031779E+02 0.  0.
         12    1    1    2    0    0  0.61046137999E+00 -0.18103672713E+02 -0.39439916837E+02  0.43400721985E+02  0.00000000000E+00 0. -1.
         11    1    3    3    0    0  0.47616563185E+01  0.25822636290E+01  0.21860513818E+02  0.22521623410E+02  0.51100000000E-03 0.  1.
        -11    1    3    3    0    0  0.19282134109E+01  0.42890551009E+01  0.53983087946E+01  0.71593113300E+01  0.51100000000E-03 0. -1.
        -12    1    3    3    0    0 -0.73003311094E+01  0.11232353983E+02  0.12181094224E+02  0.18106343275E+02  0.00000000000E+00 0.  1.
</event>
<event>
 7    1  0.2387817E-009  0.4778727E+02  0.7816164E-02  0.1312668E+00
        -11   -1    0    0    0    0  0.00000000000E+00  0.00000000000E+00  0.45593999997E+02  0.45594000000E+02  0.51100000000E-03 0. -1.
         11   -1    0    0    0    0 -0.00000000000E+00 -0.00000000000E+00 -0.45593999997E+02  0.45594000000E+02  0.51100000000E-03 0.  1.
    9900012    2    1    2    0    0 -0.23550552857E+01 -0.43118436349E+02 -0.43447893248E+01  0.47787273822E+02  0.20000012662E+02 0.  0.
         12    1    1    2    0    0  0.23550552857E+01  0.43118436349E+02  0.43447893248E+01  0.43400726178E+02  0.00000000000E+00 0. -1.
         11    1    3    3    0    0 -0.10087514444E+01 -0.19797411795E+00 -0.27499145287E+01  0.29357798631E+01  0.51100000000E-03 0. -1.
        -11    1    3    3    0    0 -0.34979886241E+01 -0.13128379336E+02 -0.56373188144E+01  0.14709508220E+02  0.51100000000E-03 0.  1.
         12    1    3    3    0    0  0.21516847828E+01 -0.29792082895E+02  0.40424440184E+01  0.30141985739E+02  0.00000000000E+00 0. -1.
</event>
<event>
 7    1  0.2387817E-009  0.4778727E+02  0.7816164E-02  0.1312668E+00
        -11   -1    0    0    0    0  0.00000000000E+00  0.00000000000E+00  0.45593999997E+02  0.45594000000E+02  0.51100000000E-03 0. -1.
         11   -1    0    0    0    0 -0.00000000000E+00 -0.00000000000E+00 -0.45593999997E+02  0.45594000000E+02  0.51100000000E-03 0.  1.
    9900012    2    1    2    0    0  0.11799030694E+02  0.22028799872E+02 -0.35484337735E+02  0.47787269895E+02  0.19999994761E+02 0.  0.
         12    1    1    2    0    0 -0.11799030694E+02 -0.22028799872E+02  0.35484337735E+02  0.43400730105E+02  0.00000000000E+00 0. -1.
         11    1    3    3    0    0  0.11088023260E+01 -0.28352390477E+01 -0.49801610997E+01  0.58369536486E+01  0.51100000000E-03 0.  1.
        -11    1    3    3    0    0  0.96027749839E+00  0.62789661450E+01 -0.22053966332E+01  0.67239365921E+01  0.51100000000E-03 0. -1.
         12    1    3    3    0    0  0.97299508696E+01  0.18585072774E+02 -0.28298780002E+02  0.35226379655E+02  0.00000000000E+00 0. -1.
</event>
<event>
 7    1  0.2387817E-009  0.4778730E+02  0.7816164E-02  0.1312668E+00
        -11   -1    0    0    0    0  0.00000000000E+00  0.00000000000E+00  0.45593999997E+02  0.45594000000E+02  0.51100000000E-03 0.  1.
         11   -1    0    0    0    0 -0.00000000000E+00 -0.00000000000E+00 -0.45593999997E+02  0.45594000000E+02  0.51100000000E-03 0. -1.
    9900012    2    1    2    0    0 -0.61313106961E+01  0.42495601873E+02  0.63365045311E+01  0.47787303703E+02  0.20000148904E+02 0.  0.
         12    1    1    2    0    0  0.61313106961E+01 -0.42495601873E+02 -0.63365045311E+01  0.43400696297E+02  0.00000000000E+00 0. -1.
         11    1    3    3    0    0  0.35613542511E+01  0.26459440081E+01 -0.34351030097E+00  0.44499734138E+01  0.51100000000E-03 0. -1.
        -11    1    3    3    0    0 -0.21463009220E+01  0.16523417482E+01 -0.20959958068E+01  0.34249145368E+01  0.51100000000E-03 0.  1.
        -12    1    3    3    0    0 -0.75463640252E+01  0.38197316116E+02  0.87760106389E+01  0.39912415753E+02  0.00000000000E+00 0.  1.
</event>
<event>
 7    1  0.2387817E-009  0.4778726E+02  0.7816164E-02  0.1312668E+00
        -11   -1    0    0    0    0  0.00000000000E+00  0.00000000000E+00  0.45593999997E+02  0.45594000000E+02  0.51100000000E-03 0.  1.
         11   -1    0    0    0    0 -0.00000000000E+00 -0.00000000000E+00 -0.45593999997E+02  0.45594000000E+02  0.51100000000E-03 0. -1.
    9900012    2    1    2    0    0  0.75286698156E+01  0.17877310038E+02  0.38824542896E+02  0.47787260208E+02  0.19999950594E+02 0.  0.
         12    1    1    2    0    0 -0.75286698156E+01 -0.17877310038E+02 -0.38824542896E+02  0.43400739792E+02  0.00000000000E+00 0. -1.
         11    1    3    3    0    0  0.64078995561E+00  0.49076548090E+01  0.12127104066E+02  0.13098180819E+02  0.51100000000E-03 0. -1.
        -11    1    3    3    0    0  0.80520236726E+00  0.12675238518E+02  0.25492557252E+02  0.28481230624E+02  0.51100000000E-03 0.  1.
         12    1    3    3    0    0  0.60826774928E+01  0.29441671067E+00  0.12048815787E+01  0.62078487658E+01  0.00000000000E+00 0. -1.
</event>
<event>
 7    1  0.2387817E-009  0.4778727E+02  0.7816164E-02  0.1312668E+00
        -11   -1    0    0    0    0  0.00000000000E+00  0.00000000000E+00  0.45593999997E+02  0.45594000000E+02  0.51100000000E-03 0.  1.
         11   -1    0    0    0    0 -0.00000000000E+00 -0.00000000000E+00 -0.45593999997E+02  0.45594000000E+02  0.51100000000E-03 0. -1.
    9900012    2    1    2    0    0  0.83201624058E+00  0.21047445361E+02  0.37946492587E+02  0.47787268360E+02  0.19999987758E+02 0.  0.
         12    1    1    2    0    0 -0.83201624058E+00 -0.21047445361E+02 -0.37946492587E+02  0.43400731640E+02  0.00000000000E+00 0. -1.
         11    1    3    3    0    0 -0.47955060580E+01  0.14608890532E+02  0.16624317772E+02  0.22644745584E+02  0.51100000000E-03 0. -1.
        -11    1    3    3    0    0 -0.47706090505E+00  0.42574118598E+01  0.16543012550E+02  0.17088721642E+02  0.51100000000E-03 0.  1.
         12    1    3    3    0    0  0.61045832036E+01  0.21811429689E+01  0.47791622651E+01  0.80538011334E+01  0.00000000000E+00 0. -1.
</event>
<event>
 7    1  0.2387817E-009  0.4778727E+02  0.7816164E-02  0.1312668E+00
        -11   -1    0    0    0    0  0.00000000000E+00  0.00000000000E+00  0.45593999997E+02  0.45594000000E+02  0.51100000000E-03 0. -1.
         11   -1    0    0    0    0 -0.00000000000E+00 -0.00000000000E+00 -0.45593999997E+02  0.45594000000E+02  0.51100000000E-03 0.  1.
    9900012    2    1    2    0    0  0.43022602611E+02 -0.54928983844E+01 -0.15832834394E+01  0.47787273571E+02  0.20000011520E+02 0.  0.
         12    1    1    2    0    0 -0.43022602611E+02  0.54928983844E+01  0.15832834394E+01  0.43400726429E+02  0.00000000000E+00 0. -1.
         11    1    3    3    0    0  0.12580826184E+01  0.28483041689E+01  0.17934527694E+00  0.31189378806E+01  0.51100000000E-03 0. -1.
        -11    1    3    3    0    0  0.25579067818E+02 -0.15341841117E+01  0.45179724940E+01  0.26020271079E+02  0.51100000000E-03 0.  1.
        -12    1    3    3    0    0  0.16185452175E+02 -0.68070184416E+01 -0.62806012104E+01  0.18648064611E+02  0.00000000000E+00 0.  1.
</event>
<event>
 7    1  0.2387817E-009  0.4778727E+02  0.7816164E-02  0.1312668E+00
        -11   -1    0    0    0    0  0.00000000000E+00  0.00000000000E+00  0.45593999997E+02  0.45594000000E+02  0.51100000000E-03 0. -1.
         11   -1    0    0    0    0 -0.00000000000E+00 -0.00000000000E+00 -0.45593999997E+02  0.45594000000E+02  0.51100000000E-03 0.  1.
    9900012    2    1    2    0    0 -0.10948468570E+02  0.35256272843E+02 -0.22819945014E+02  0.47787266950E+02  0.19999981334E+02 0.  0.
         12    1    1    2    0    0  0.10948468570E+02 -0.35256272843E+02  0.22819945014E+02  0.43400733050E+02  0.00000000000E+00 0. -1.
         11    1    3    3    0    0  0.17162477846E+01  0.18355492353E+01  0.31329503953E+00  0.25323707265E+01  0.51100000000E-03 0. -1.
        -11    1    3    3    0    0 -0.39889421304E+01  0.24953882341E+02 -0.21186754758E+02  0.32977059915E+02  0.51100000000E-03 0.  1.
        -12    1    3    3    0    0 -0.86757742240E+01  0.84668412666E+01 -0.19464852954E+01  0.12277836309E+02  0.00000000000E+00 0.  1.
</event>
<event>
 7    1  0.2387817E-009  0.4778727E+02  0.7816164E-02  0.1312668E+00
        -11   -1    0    0    0    0  0.00000000000E+00  0.00000000000E+00  0.45593999997E+02  0.45594000000E+02  0.51100000000E-03 0.  1.
         11   -1    0    0    0    0 -0.00000000000E+00 -0.00000000000E+00 -0.45593999997E+02  0.45594000000E+02  0.51100000000E-03 0. -1.
    9900012    2    1    2    0    0  0.56112172993E+01  0.30059337998E+02  0.30798922669E+02  0.47787271918E+02  0.20000003982E+02 0.  0.
         12    1    1    2    0    0 -0.56112172993E+01 -0.30059337998E+02 -0.30798922669E+02  0.43400728082E+02  0.00000000000E+00 0. -1.
         11    1    3    3    0    0  0.80397830155E+01  0.73118779032E+01  0.12199932642E+02  0.16338299365E+02  0.51100000000E-03 0. -1.
        -11    1    3    3    0    0  0.16496030801E+01  0.15567880766E+01  0.61068278598E+01  0.65144551736E+01  0.51100000000E-03 0.  1.
        -12    1    3    3    0    0 -0.40781687963E+01  0.21190672018E+02  0.12492162168E+02  0.24934517380E+02  0.00000000000E+00 0.  1.
</event>
<event>
 7    1  0.2387817E-009  0.4778727E+02  0.7816164E-02  0.1312668E+00
        -11   -1    0    0    0    0  0.00000000000E+00  0.00000000000E+00  0.45593999997E+02  0.45594000000E+02  0.51100000000E-03 0.  1.
         11   -1    0    0    0    0 -0.00000000000E+00 -0.00000000000E+00 -0.45593999997E+02  0.45594000000E+02  0.51100000000E-03 0. -1.
    9900012    2    1    2    0    0  0.26988008340E+02 -0.33944566033E+02  0.17426681848E+01  0.47787273627E+02  0.20000011774E+02 0.  0.
         12    1    1    2    0    0 -0.26988008340E+02  0.33944566033E+02 -0.17426681848E+01  0.43400726373E+02  0.00000000000E+00 0. -1.
         11    1    3    3    0    0  0.46164191955E+01 -0.27874256717E+01 -0.17971229738E+01  0.56842518688E+01  0.51100000000E-03 0. -1.
        -11    1    3    3    0    0  0.72588651163E+01 -0.11034936283E+02  0.94649405430E+01  0.16249493570E+02  0.51100000000E-03 0.  1.
         12    1    3    3    0    0  0.15112724028E+02 -0.20122204079E+02 -0.59251493845E+01  0.25853528188E+02  0.00000000000E+00 0. -1.
</event>
<event>
 7    1  0.2387817E-009  0.4778727E+02  0.7816164E-02  0.1312668E+00
        -11   -1    0    0    0    0  0.00000000000E+00  0.00000000000E+00  0.45593999997E+02  0.45594000000E+02  0.51100000000E-03 0. -1.
         11   -1    0    0    0    0 -0.00000000000E+00 -0.00000000000E+00 -0.45593999997E+02  0.45594000000E+02  0.51100000000E-03 0.  1.
    9900012    2    1    2    0    0 -0.32362820393E+01 -0.42316842161E+02 -0.90793592952E+01  0.47787269394E+02  0.19999992477E+02 0.  0.
         12    1    1    2    0    0  0.32362820393E+01  0.42316842161E+02  0.90793592952E+01  0.43400730606E+02  0.00000000000E+00 0. -1.
         11    1    3    3    0    0 -0.74502576430E+01 -0.41133948657E+02 -0.93698260491E+01  0.42840421468E+02  0.51100000000E-03 0.  1.
        -11    1    3    3    0    0  0.15294557185E+01 -0.11302397334E+01 -0.78105569109E+00  0.20559000227E+01  0.51100000000E-03 0. -1.
        -12    1    3    3    0    0  0.26845198853E+01 -0.52653770231E-01  0.10715224450E+01  0.28909479041E+01  0.00000000000E+00 0.  1.
</event>
<event>
 7    1  0.2387817E-009  0.4778727E+02  0.7816164E-02  0.1312668E+00
        -11   -1    0    0    0    0  0.00000000000E+00  0.00000000000E+00  0.45593999997E+02  0.45594000000E+02  0.51100000000E-03 0.  1.
         11   -1    0    0    0    0 -0.00000000000E+00 -0.00000000000E+00 -0.45593999997E+02  0.45594000000E+02  0.51100000000E-03 0. -1.
    9900012    2    1    2    0    0 -0.63137823931E+01  0.22840482559E+02  0.36360308473E+02  0.47787268164E+02  0.19999986868E+02 0.  0.
         12    1    1    2    0    0  0.63137823931E+01 -0.22840482559E+02 -0.36360308473E+02  0.43400731836E+02  0.00000000000E+00 0. -1.
         11    1    3    3    0    0  0.25033275512E+01  0.12472364488E+02  0.21208782963E+02  0.24731336392E+02  0.51100000000E-03 0. -1.
        -11    1    3    3    0    0 -0.64751497145E+01  0.66754816281E+01  0.16089381553E+02  0.18583805256E+02  0.51100000000E-03 0.  1.
         12    1    3    3    0    0 -0.23419602298E+01  0.36926364428E+01 -0.93785604203E+00  0.44721265157E+01  0.00000000000E+00 0. -1.
</event>
<event>
 7    1  0.2387817E-009  0.4778727E+02  0.7816164E-02  0.1312668E+00
        -11   -1    0    0    0    0  0.00000000000E+00  0.00000000000E+00  0.45593999997E+02  0.45594000000E+02  0.51100000000E-03 0.  1.
         11   -1    0    0    0    0 -0.00000000000E+00 -0.00000000000E+00 -0.45593999997E+02  0.45594000000E+02  0.51100000000E-03 0. -1.
    9900012    2    1    2    0    0 -0.79383196066E+01  0.64780604109E+01  0.42173939499E+02  0.47787270079E+02  0.19999995596E+02 0.  0.
         12    1    1    2    0    0  0.79383196066E+01 -0.64780604109E+01 -0.42173939499E+02  0.43400729921E+02  0.00000000000E+00 0. -1.
         11    1    3    3    0    0  0.24567404818E+01  0.14107433497E+01  0.44382647899E+01  0.52653551827E+01  0.51100000000E-03 0. -1.
        -11    1    3    3    0    0 -0.43605647228E+01 -0.37124431804E+01  0.26203061787E+02  0.26821580982E+02  0.51100000000E-03 0.  1.
        -12    1    3    3    0    0 -0.60344953656E+01  0.87797602416E+01  0.11532612921E+02  0.15700333914E+02  0.00000000000E+00 0.  1.
</event>
<event>
 7    1  0.2387817E-009  0.4778728E+02  0.7816164E-02  0.1312668E+00
        -11   -1    0    0    0    0  0.00000000000E+00  0.00000000000E+00  0.45593999997E+02  0.45594000000E+02  0.51100000000E-03 0. -1.
         11   -1    0    0    0    0 -0.00000000000E+00 -0.00000000000E+00 -0.45593999997E+02  0.45594000000E+02  0.51100000000E-03 0.  1.
    9900012    2    1    2    0    0 -0.22513944163E+02 -0.27054401153E+02 -0.25392997394E+02  0.47787278576E+02  0.20000034339E+02 0.  0.
         12    1    1    2    0    0  0.22513944163E+02  0.27054401153E+02  0.25392997394E+02  0.43400721424E+02  0.00000000000E+00 0. -1.
         11    1    3    3    0    0  0.23412929014E+01 -0.12086679658E+01 -0.29376512845E+01  0.39461786620E+01  0.51100000000E-03 0. -1.
        -11    1    3    3    0    0 -0.38471368768E+01 -0.37044582896E+01  0.89051990558E+00  0.54144712882E+01  0.51100000000E-03 0.  1.
        -12    1    3    3    0    0 -0.21008100187E+02 -0.22141274898E+02 -0.23345866015E+02  0.38426628626E+02  0.00000000000E+00 0.  1.
</event>
<event>
 7    1  0.2387817E-009  0.4778727E+02  0.7816164E-02  0.1312668E+00
        -11   -1    0    0    0    0  0.00000000000E+00  0.00000000000E+00  0.45593999997E+02  0.45594000000E+02  0.51100000000E-03 0.  1.
         11   -1    0    0    0    0 -0.00000000000E+00 -0.00000000000E+00 -0.45593999997E+02  0.45594000000E+02  0.51100000000E-03 0. -1.
    9900012    2    1    2    0    0  0.26190524522E+01 -0.37988422927E+01  0.43154753455E+02  0.47787269773E+02  0.19999994203E+02 0.  0.
         12    1    1    2    0    0 -0.26190524522E+01  0.37988422927E+01 -0.43154753455E+02  0.43400730227E+02  0.00000000000E+00 0. -1.
         11    1    3    3    0    0 -0.27088691859E+01 -0.13722312611E+01  0.21325406377E+01  0.37106226880E+01  0.51100000000E-03 0. -1.
        -11    1    3    3    0    0 -0.17589450258E+01  0.84498243281E+00  0.32350731876E+02  0.32409531562E+02  0.51100000000E-03 0.  1.
         12    1    3    3    0    0  0.70868666639E+01 -0.32715934644E+01  0.86714809409E+01  0.11667115523E+02  0.00000000000E+00 0. -1.
</event>
<event>
 7    1  0.2387817E-009  0.4778727E+02  0.7816164E-02  0.1312668E+00
        -11   -1    0    0    0    0  0.00000000000E+00  0.00000000000E+00  0.45593999997E+02  0.45594000000E+02  0.51100000000E-03 0.  1.
         11   -1    0    0    0    0 -0.00000000000E+00 -0.00000000000E+00 -0.45593999997E+02  0.45594000000E+02  0.51100000000E-03 0. -1.
    9900012    2    1    2    0    0 -0.15984373302E+02 -0.38724338958E+02  0.11337932354E+02  0.47787270425E+02  0.19999997175E+02 0.  0.
         12    1    1    2    0    0  0.15984373302E+02  0.38724338958E+02 -0.11337932354E+02  0.43400729575E+02  0.00000000000E+00 0. -1.
         11    1    3    3    0    0 -0.30698737299E+01 -0.17300204275E+02  0.78230364170E+01  0.19233332830E+02  0.51100000000E-03 0.  1.
        -11    1    3    3    0    0 -0.44174558952E+01 -0.28300143591E+00 -0.23705208635E+01  0.50212922464E+01  0.51100000000E-03 0. -1.
         12    1    3    3    0    0 -0.84970436771E+01 -0.21141133247E+02  0.58854168006E+01  0.23532645349E+02  0.00000000000E+00 0. -1.
</event>
<event>
 7    1  0.2387817E-009  0.4778727E+02  0.7816164E-02  0.1312668E+00
        -11   -1    0    0    0    0  0.00000000000E+00  0.00000000000E+00  0.45593999997E+02  0.45594000000E+02  0.51100000000E-03 0.  1.
         11   -1    0    0    0    0 -0.00000000000E+00 -0.00000000000E+00 -0.45593999997E+02  0.45594000000E+02  0.51100000000E-03 0. -1.
    9900012    2    1    2    0    0  0.40196331991E+02  0.13506341428E+02 -0.92442942969E+01  0.47787270267E+02  0.19999996456E+02 0.  0.
         12    1    1    2    0    0 -0.40196331991E+02 -0.13506341428E+02  0.92442942969E+01  0.43400729733E+02  0.00000000000E+00 0. -1.
         11    1    3    3    0    0  0.97637720999E+01  0.96024005443E+00 -0.33105685540E+01  0.10354379315E+02  0.51100000000E-03 0. -1.
        -11    1    3    3    0    0  0.30350136996E+02  0.14137634707E+02 -0.24129508720E+01  0.33568226986E+02  0.51100000000E-03 0.  1.
         12    1    3    3    0    0  0.82422894722E-01 -0.15915333330E+01 -0.35207748708E+01  0.38646639666E+01  0.00000000000E+00 0. -1.
</event>
<event>
 7    1  0.2387817E-009  0.4778727E+02  0.7816164E-02  0.1312668E+00
        -11   -1    0    0    0    0  0.00000000000E+00  0.00000000000E+00  0.45593999997E+02  0.45594000000E+02  0.51100000000E-03 0. -1.
         11   -1    0    0    0    0 -0.00000000000E+00 -0.00000000000E+00 -0.45593999997E+02  0.45594000000E+02  0.51100000000E-03 0.  1.
    9900012    2    1    2    0    0 -0.10816168764E+02  0.42001583843E+02  0.15813301588E+01  0.47787272389E+02  0.20000006132E+02 0.  0.
         12    1    1    2    0    0  0.10816168764E+02 -0.42001583843E+02 -0.15813301588E+01  0.43400727611E+02  0.00000000000E+00 0. -1.
         11    1    3    3    0    0 -0.16895548450E+01  0.16338948488E+02 -0.89836202478E-04  0.16426071763E+02  0.51100000000E-03 0.  1.
        -11    1    3    3    0    0 -0.20668453383E+01 -0.18775160134E+01  0.85886674260E+00  0.29213983597E+01  0.51100000000E-03 0. -1.
         12    1    3    3    0    0 -0.70597685806E+01  0.27540151368E+02  0.72255325241E+00  0.28439802267E+02  0.00000000000E+00 0. -1.
</event>
<event>
 7    1  0.2387817E-009  0.4778727E+02  0.7816164E-02  0.1312668E+00
        -11   -1    0    0    0    0  0.00000000000E+00  0.00000000000E+00  0.45593999997E+02  0.45594000000E+02  0.51100000000E-03 0.  1.
         11   -1    0    0    0    0 -0.00000000000E+00 -0.00000000000E+00 -0.45593999997E+02  0.45594000000E+02  0.51100000000E-03 0. -1.
    9900012    2    1    2    0    0 -0.11763513912E+02 -0.17370268797E+02  0.37993643565E+02  0.47787269027E+02  0.19999990803E+02 0.  0.
         12    1    1    2    0    0  0.11763513912E+02  0.17370268797E+02 -0.37993643565E+02  0.43400730973E+02  0.00000000000E+00 0. -1.
         11    1    3    3    0    0  0.14403624747E+01 -0.60812118431E+00  0.49737722666E+01  0.52137190425E+01  0.51100000000E-03 0. -1.
        -11    1    3    3    0    0 -0.59941843311E+01 -0.13097091385E+02  0.84332052319E+01  0.16690805831E+02  0.51100000000E-03 0.  1.
        -12    1    3    3    0    0 -0.72096920556E+01 -0.36650562279E+01  0.24586666066E+02  0.25882744154E+02  0.00000000000E+00 0.  1.
</event>
<event>
 7    1  0.2387817E-009  0.4778727E+02  0.7816164E-02  0.1312668E+00
        -11   -1    0    0    0    0  0.00000000000E+00  0.00000000000E+00  0.45593999997E+02  0.45594000000E+02  0.51100000000E-03 0. -1.
         11   -1    0    0    0    0 -0.00000000000E+00 -0.00000000000E+00 -0.45593999997E+02  0.45594000000E+02  0.51100000000E-03 0.  1.
    9900012    2    1    2    0    0  0.68938119398E+01  0.35898658874E+02 -0.23396259337E+02  0.47787270709E+02  0.19999998472E+02 0.  0.
         12    1    1    2    0    0 -0.68938119398E+01 -0.35898658874E+02  0.23396259337E+02  0.43400729291E+02  0.00000000000E+00 0. -1.
         11    1    3    3    0    0  0.30946141304E+01  0.15742818706E+02 -0.96473369512E+01  0.18721220258E+02  0.51100000000E-03 0. -1.
        -11    1    3    3    0    0  0.90538221751E+01  0.10492500199E+02 -0.41491549813E+01  0.14466504198E+02  0.51100000000E-03 0.  1.
         12    1    3    3    0    0 -0.52546243657E+01  0.96633399687E+01 -0.95997674047E+01  0.14599546253E+02  0.00000000000E+00 0. -1.
</event>
<event>
 7    1  0.2387817E-009  0.4778727E+02  0.7816164E-02  0.1312668E+00
        -11   -1    0    0    0    0  0.00000000000E+00  0.00000000000E+00  0.45593999997E+02  0.45594000000E+02  0.51100000000E-03 0. -1.
         11   -1    0    0    0    0 -0.00000000000E+00 -0.00000000000E+00 -0.45593999997E+02  0.45594000000E+02  0.51100000000E-03 0.  1.
    9900012    2    1    2    0    0 -0.25166900809E+02  0.23889806119E+02 -0.26067745607E+02  0.47787273119E+02  0.20000009459E+02 0.  0.
         12    1    1    2    0    0  0.25166900809E+02 -0.23889806119E+02  0.26067745607E+02  0.43400726881E+02  0.00000000000E+00 0. -1.
         11    1    3    3    0    0  0.94203356227E+00  0.60716624567E+00 -0.65777638823E+00  0.12995184186E+01  0.51100000000E-03 0. -1.
        -11    1    3    3    0    0 -0.23294314332E+02  0.25882362197E+02 -0.21075424109E+02  0.40702521478E+02  0.51100000000E-03 0.  1.
        -12    1    3    3    0    0 -0.28146200393E+01 -0.25997223230E+01 -0.43345451101E+01  0.57852332220E+01  0.00000000000E+00 0.  1.
</event>
<event>
 7    1  0.2387817E-009  0.4778727E+02  0.7816164E-02  0.1312668E+00
        -11   -1    0    0    0    0  0.00000000000E+00  0.00000000000E+00  0.45593999997E+02  0.45594000000E+02  0.51100000000E-03 0.  1.
         11   -1    0    0    0    0 -0.00000000000E+00 -0.00000000000E+00 -0.45593999997E+02  0.45594000000E+02  0.51100000000E-03 0. -1.
    9900012    2    1    2    0    0 -0.39315878264E+02  0.10736910780E+02  0.14919907102E+02  0.47787272302E+02  0.20000005735E+02 0.  0.
         12    1    1    2    0    0  0.39315878264E+02 -0.10736910780E+02 -0.14919907102E+02  0.43400727698E+02  0.00000000000E+00 0. -1.
         11    1    3    3    0    0 -0.58154177967E+01  0.25972135090E+01 -0.29249269013E+01  0.70085519047E+01  0.51100000000E-03 0. -1.
        -11    1    3    3    0    0 -0.18449937994E+02 -0.10955052529E+01  0.56782948355E+01  0.19335029771E+02  0.51100000000E-03 0.  1.
        -12    1    3    3    0    0 -0.15050522474E+02  0.92352025239E+01  0.12166539167E+02  0.21443690627E+02  0.00000000000E+00 0.  1.
</event>
<event>
 7    1  0.2387817E-009  0.4778729E+02  0.7816164E-02  0.1312668E+00
        -11   -1    0    0    0    0  0.00000000000E+00  0.00000000000E+00  0.45593999997E+02  0.45594000000E+02  0.51100000000E-03 0.  1.
         11   -1    0    0    0    0 -0.00000000000E+00 -0.00000000000E+00 -0.45593999997E+02  0.45594000000E+02  0.51100000000E-03 0. -1.
    9900012    2    1    2    0    0  0.27324672367E+02 -0.22748610979E+02  0.24889450688E+02  0.47787288289E+02  0.20000078626E+02 0.  0.
         12    1    1    2    0    0 -0.27324672367E+02  0.22748610979E+02 -0.24889450688E+02  0.43400711711E+02  0.00000000000E+00 0. -1.
         11    1    3    3    0    0  0.95667946655E+01 -0.66534409742E+01  0.28211715180E+01  0.11989614087E+02  0.51100000000E-03 0. -1.
        -11    1    3    3    0    0  0.81184711632E+01 -0.16446208681E+02  0.12391362770E+02  0.22134435289E+02  0.51100000000E-03 0.  1.
        -12    1    3    3    0    0  0.96394065384E+01  0.35103867687E+00  0.96769164000E+01  0.13663238912E+02  0.00000000000E+00 0.  1.
</event>
<event>
 7    1  0.2387817E-009  0.4778727E+02  0.7816164E-02  0.1312668E+00
        -11   -1    0    0    0    0  0.00000000000E+00  0.00000000000E+00  0.45593999997E+02  0.45594000000E+02  0.51100000000E-03 0. -1.
         11   -1    0    0    0    0 -0.00000000000E+00 -0.00000000000E+00 -0.45593999997E+02  0.45594000000E+02  0.51100000000E-03 0.  1.
    9900012    2    1    2    0    0  0.38578613593E+02 -0.67082453896E+01  0.18716667978E+02  0.47787266790E+02  0.19999980603E+02 0.  0.
         12    1    1    2    0    0 -0.38578613593E+02  0.67082453896E+01 -0.18716667978E+02  0.43400733210E+02  0.00000000000E+00 0. -1.
         11    1    3    3    0    0  0.24487075372E+01 -0.40793036131E+00 -0.80625728458E+00  0.26101009276E+01  0.51100000000E-03 0. -1.
        -11    1    3    3    0    0  0.30370287260E+02  0.21228280473E+01  0.15920956711E+02  0.34356041827E+02  0.51100000000E-03 0.  1.
        -12    1    3    3    0    0  0.57596187958E+01 -0.84231430756E+01  0.36019685515E+01  0.10821124035E+02  0.00000000000E+00 0.  1.
</event>
<event>
 7    1  0.2387817E-009  0.4778728E+02  0.7816164E-02  0.1312668E+00
        -11   -1    0    0    0    0  0.00000000000E+00  0.00000000000E+00  0.45593999997E+02  0.45594000000E+02  0.51100000000E-03 0. -1.
         11   -1    0    0    0    0 -0.00000000000E+00 -0.00000000000E+00 -0.45593999997E+02  0.45594000000E+02  0.51100000000E-03 0.  1.
    9900012    2    1    2    0    0 -0.22239973717E+02 -0.32411781433E+02 -0.18397898294E+02  0.47787278022E+02  0.20000031812E+02 0.  0.
         12    1    1    2    0    0  0.22239973717E+02  0.32411781433E+02  0.18397898294E+02  0.43400721978E+02  0.00000000000E+00 0. -1.
         11    1    3    3    0    0 -0.16841341918E+01 -0.39743100520E+01 -0.61356177932E+01  0.75018167354E+01  0.51100000000E-03 0. -1.
        -11    1    3    3    0    0 -0.11107418806E+02 -0.36793769336E+01 -0.20136969933E+01  0.11872975322E+02  0.51100000000E-03 0.  1.
         12    1    3    3    0    0 -0.94484207189E+01 -0.24758094447E+02 -0.10248583508E+02  0.28412485964E+02  0.00000000000E+00 0. -1.
</event>
<event>
 7    1  0.2624901E-009  0.4778726E+02  0.7816164E-02  0.1312668E+00
        -11   -1    0    0    0    0  0.00000000000E+00  0.00000000000E+00  0.45593999997E+02  0.45594000000E+02  0.51100000000E-03 0.  1.
         11   -1    0    0    0    0 -0.00000000000E+00 -0.00000000000E+00 -0.45593999997E+02  0.45594000000E+02  0.51100000000E-03 0. -1.
    9900012    2    1    2    0    0  0.92136528171E+01  0.31493352014E+02  0.28406011348E+02  0.47787261527E+02  0.19999956607E+02 0.  0.
         12    1    1    2    0    0 -0.92136528171E+01 -0.31493352014E+02 -0.28406011348E+02  0.43400738473E+02  0.00000000000E+00 0. -1.
         11    1    3    3    0    0  0.36275812984E+01  0.18172140975E+02  0.70148654471E+01  0.19813994831E+02  0.51100000000E-03 0. -1.
        -11    1    3    3    0    0  0.40521470231E+01  0.14631313747E+02  0.15289415740E+02  0.21546727626E+02  0.51100000000E-03 0.  1.
         12    1    3    3    0    0  0.15339244957E+01 -0.13101027078E+01  0.61017301610E+01  0.64265390702E+01  0.00000000000E+00 0. -1.
</event>
<event>
 7    1  0.2387817E-009  0.4778727E+02  0.7816164E-02  0.1312668E+00
        -11   -1    0    0    0    0  0.00000000000E+00  0.00000000000E+00  0.45593999997E+02  0.45594000000E+02  0.51100000000E-03 0.  1.
         11   -1    0    0    0    0 -0.00000000000E+00 -0.00000000000E+00 -0.45593999997E+02  0.45594000000E+02  0.51100000000E-03 0. -1.
    9900012    2    1    2    0    0  0.82152267174E+01  0.12432020090E+02  0.40762466188E+02  0.47787265868E+02  0.19999976397E+02 0.  0.
         12    1    1    2    0    0 -0.82152267174E+01 -0.12432020090E+02 -0.40762466188E+02  0.43400734132E+02  0.00000000000E+00 0. -1.
         11    1    3    3    0    0  0.30204532933E+01  0.38582188927E+01  0.34837097517E+01  0.60120899042E+01  0.51100000000E-03 0. -1.
        -11    1    3    3    0    0  0.95606712765E+01  0.36053334095E+01  0.31056670097E+02  0.32694366824E+02  0.51100000000E-03 0.  1.
        -12    1    3    3    0    0 -0.43658978524E+01  0.49684677877E+01  0.62220863387E+01  0.90808091391E+01  0.00000000000E+00 0.  1.
</event>
<event>
 7    1  0.2387817E-009  0.4778727E+02  0.7816164E-02  0.1312668E+00
        -11   -1    0    0    0    0  0.00000000000E+00  0.00000000000E+00  0.45593999997E+02  0.45594000000E+02  0.51100000000E-03 0.  1.
         11   -1    0    0    0    0 -0.00000000000E+00 -0.00000000000E+00 -0.45593999997E+02  0.45594000000E+02  0.51100000000E-03 0. -1.
    9900012    2    1    2    0    0  0.43712160648E+01 -0.42792052821E+02 -0.57754640955E+01  0.47787270743E+02  0.19999998625E+02 0.  0.
         12    1    1    2    0    0 -0.43712160648E+01  0.42792052821E+02  0.57754640955E+01  0.43400729257E+02  0.00000000000E+00 0. -1.
         11    1    3    3    0    0  0.35765504745E+01 -0.16272368887E+02 -0.18023732029E+01  0.16757990689E+02  0.51100000000E-03 0. -1.
        -11    1    3    3    0    0  0.58600425358E+01 -0.29512888206E+01 -0.19149400035E+01  0.68349981493E+01  0.51100000000E-03 0.  1.
         12    1    3    3    0    0 -0.50653769454E+01 -0.23568395113E+02 -0.20581508891E+01  0.24194281905E+02  0.00000000000E+00 0. -1.
</event>
<event>
 7    1  0.2387817E-009  0.4778727E+02  0.7816164E-02  0.1312668E+00
        -11   -1    0    0    0    0  0.00000000000E+00  0.00000000000E+00  0.45593999997E+02  0.45594000000E+02  0.51100000000E-03 0. -1.
         11   -1    0    0    0    0 -0.00000000000E+00 -0.00000000000E+00 -0.45593999997E+02  0.45594000000E+02  0.51100000000E-03 0.  1.
    9900012    2    1    2    0    0 -0.33568093000E+02  0.69602236961E+01 -0.26615062672E+02  0.47787272557E+02  0.20000006896E+02 0.  0.
         12    1    1    2    0    0  0.33568093000E+02 -0.69602236961E+01  0.26615062672E+02  0.43400727443E+02  0.00000000000E+00 0. -1.
         11    1    3    3    0    0  0.54239792000E+00  0.12851530836E+01 -0.83683671429E+00  0.16266867859E+01  0.51100000000E-03 0. -1.
        -11    1    3    3    0    0 -0.24000301784E+02 -0.27305401145E+01 -0.21489967548E+02  0.32330930090E+02  0.51100000000E-03 0.  1.
        -12    1    3    3    0    0 -0.10110189136E+02  0.84056107271E+01 -0.42882584100E+01  0.13829655681E+02  0.00000000000E+00 0.  1.
</event>
<event>
 7    1  0.2387817E-009  0.4778728E+02  0.7816164E-02  0.1312668E+00
        -11   -1    0    0    0    0  0.00000000000E+00  0.00000000000E+00  0.45593999997E+02  0.45594000000E+02  0.51100000000E-03 0.  1.
         11   -1    0    0    0    0 -0.00000000000E+00 -0.00000000000E+00 -0.45593999997E+02  0.45594000000E+02  0.51100000000E-03 0. -1.
    9900012    2    1    2    0    0 -0.32105037476E+02  0.23044605882E+02  0.17939777549E+02  0.47787275236E+02  0.20000019109E+02 0.  0.
         12    1    1    2    0    0  0.32105037476E+02 -0.23044605882E+02 -0.17939777549E+02  0.43400724764E+02  0.00000000000E+00 0. -1.
         11    1    3    3    0    0 -0.14920598425E+02  0.57020571930E+01 -0.22848299282E+00  0.15974664890E+02  0.51100000000E-03 0. -1.
        -11    1    3    3    0    0 -0.90222138399E+01  0.78352614511E+01  0.33572852015E+01  0.12412212888E+02  0.51100000000E-03 0.  1.
        -12    1    3    3    0    0 -0.81622252104E+01  0.95072872384E+01  0.14810975340E+02  0.19400397458E+02  0.00000000000E+00 0.  1.
</event>
<event>
 7    1  0.2387817E-009  0.4778727E+02  0.7816164E-02  0.1312668E+00
        -11   -1    0    0    0    0  0.00000000000E+00  0.00000000000E+00  0.45593999997E+02  0.45594000000E+02  0.51100000000E-03 0. -1.
         11   -1    0    0    0    0 -0.00000000000E+00 -0.00000000000E+00 -0.45593999997E+02  0.45594000000E+02  0.51100000000E-03 0.  1.
    9900012    2    1    2    0    0 -0.26456231140E+02  0.21299381171E+02 -0.27019014848E+02  0.47787274571E+02  0.20000016080E+02 0.  0.
         12    1    1    2    0    0  0.26456231140E+02 -0.21299381171E+02  0.27019014848E+02  0.43400725429E+02  0.00000000000E+00 0. -1.
         11    1    3    3    0    0 -0.20208871644E+01  0.15295010051E+01  0.86485423127E+00  0.26779341587E+01  0.51100000000E-03 0. -1.
        -11    1    3    3    0    0 -0.10553036762E+02  0.24672809286E+01 -0.17574628125E+02  0.20647557097E+02  0.51100000000E-03 0.  1.
         12    1    3    3    0    0 -0.13882307213E+02  0.17302599237E+02 -0.10309240955E+02  0.24461783316E+02  0.00000000000E+00 0. -1.
</event>
<event>
 7    1  0.2387817E-009  0.4778727E+02  0.7816164E-02  0.1312668E+00
        -11   -1    0    0    0    0  0.00000000000E+00  0.00000000000E+00  0.45593999997E+02  0.45594000000E+02  0.51100000000E-03 0.  1.
         11   -1    0    0    0    0 -0.00000000000E+00 -0.00000000000E+00 -0.45593999997E+02  0.45594000000E+02  0.51100000000E-03 0. -1.
    9900012    2    1    2    0    0 -0.21038267029E+02  0.11360686015E+02  0.36220842409E+02  0.47787270846E+02  0.19999999094E+02 0.  0.
         12    1    1    2    0    0  0.21038267029E+02 -0.11360686015E+02 -0.36220842409E+02  0.43400729154E+02  0.00000000000E+00 0. -1.
         11    1    3    3    0    0  0.31466318650E+00 -0.35875818722E+00 -0.16424911978E+00  0.50467652244E+00  0.51100000000E-03 0. -1.
        -11    1    3    3    0    0 -0.36389282874E+01  0.10784234927E+02  0.20611321760E+02  0.23545022977E+02  0.51100000000E-03 0.  1.
        -12    1    3    3    0    0 -0.17714001928E+02  0.93520927516E+00  0.15773769769E+02  0.23737571346E+02  0.00000000000E+00 0.  1.
</event>
<event>
 7    1  0.2387817E-009  0.4778727E+02  0.7816164E-02  0.1312668E+00
        -11   -1    0    0    0    0  0.00000000000E+00  0.00000000000E+00  0.45593999997E+02  0.45594000000E+02  0.51100000000E-03 0. -1.
         11   -1    0    0    0    0 -0.00000000000E+00 -0.00000000000E+00 -0.45593999997E+02  0.45594000000E+02  0.51100000000E-03 0.  1.
    9900012    2    1    2    0    0  0.42514211415E+02 -0.11488649579E+01 -0.86513041641E+01  0.47787272740E+02  0.20000007731E+02 0.  0.
         12    1    1    2    0    0 -0.42514211415E+02  0.11488649579E+01  0.86513041641E+01  0.43400727260E+02  0.00000000000E+00 0. -1.
         11    1    3    3    0    0  0.25480862488E+01 -0.24938584414E+01 -0.20052382731E+01  0.40906056092E+01  0.51100000000E-03 0. -1.
        -11    1    3    3    0    0  0.45525526592E+01 -0.32713285302E+01 -0.56651383040E+01  0.79700136971E+01  0.51100000000E-03 0.  1.
        -12    1    3    3    0    0  0.35413572507E+02  0.46163220136E+01 -0.98092758694E+00  0.35726653434E+02  0.00000000000E+00 0.  1.
</event>
<event>
 7    1  0.2387817E-009  0.4778728E+02  0.7816164E-02  0.1312668E+00
        -11   -1    0    0    0    0  0.00000000000E+00  0.00000000000E+00  0.45593999997E+02  0.45594000000E+02  0.51100000000E-03 0.  1.
         11   -1    0    0    0    0 -0.00000000000E+00 -0.00000000000E+00 -0.45593999997E+02  0.45594000000E+02  0.51100000000E-03 0. -1.
    9900012    2    1    2    0    0  0.25931146647E+02 -0.71449435008E+01  0.34060942187E+02  0.47787281495E+02  0.20000047649E+02 0.  0.
         12    1    1    2    0    0 -0.25931146647E+02  0.71449435008E+01 -0.34060942187E+02  0.43400718505E+02  0.00000000000E+00 0. -1.
         11    1    3    3    0    0 -0.25404780078E+01  0.20331343411E+01  0.34149610651E+01  0.47169506139E+01  0.51100000000E-03 0. -1.
        -11    1    3    3    0    0  0.18796777871E+01 -0.16500887607E+01  0.37391622282E+01  0.44985904382E+01  0.51100000000E-03 0.  1.
         12    1    3    3    0    0  0.26591946868E+02 -0.75279890812E+01  0.26906818894E+02  0.38571740443E+02  0.00000000000E+00 0. -1.
</event>
<event>
 7    1  0.2387817E-009  0.4778727E+02  0.7816164E-02  0.1312668E+00
        -11   -1    0    0    0    0  0.00000000000E+00  0.00000000000E+00  0.45593999997E+02  0.45594000000E+02  0.51100000000E-03 0. -1.
         11   -1    0    0    0    0 -0.00000000000E+00 -0.00000000000E+00 -0.45593999997E+02  0.45594000000E+02  0.51100000000E-03 0.  1.
    9900012    2    1    2    0    0 -0.36873944797E+02 -0.10835354567E+02  0.20162599466E+02  0.47787272694E+02  0.20000007520E+02 0.  0.
         12    1    1    2    0    0  0.36873944797E+02  0.10835354567E+02 -0.20162599466E+02  0.43400727306E+02  0.00000000000E+00 0. -1.
         11    1    3    3    0    0 -0.11902205636E+02  0.23863512423E+00  0.87050226043E+01  0.14747774901E+02  0.51100000000E-03 0. -1.
        -11    1    3    3    0    0 -0.78107621900E+01 -0.95168770679E+00  0.10462070736E+02  0.13090784538E+02  0.51100000000E-03 0.  1.
        -12    1    3    3    0    0 -0.17160976971E+02 -0.10122301985E+02  0.99550612559E+00  0.19948713255E+02  0.00000000000E+00 0.  1.
</event>
<event>
 7    1  0.2387817E-009  0.4778731E+02  0.7816164E-02  0.1312668E+00
        -11   -1    0    0    0    0  0.00000000000E+00  0.00000000000E+00  0.45593999997E+02  0.45594000000E+02  0.51100000000E-03 0.  1.
         11   -1    0    0    0    0 -0.00000000000E+00 -0.00000000000E+00 -0.45593999997E+02  0.45594000000E+02  0.51100000000E-03 0. -1.
    9900012    2    1    2    0    0  0.34407667143E+02  0.23159342164E+02  0.12781912830E+02  0.47787308954E+02  0.20000172845E+02 0.  0.
         12    1    1    2    0    0 -0.34407667143E+02 -0.23159342164E+02 -0.12781912830E+02  0.43400691046E+02  0.00000000000E+00 0. -1.
         11    1    3    3    0    0  0.44130963571E+01  0.38904409724E+01  0.44043331988E+01  0.73490884880E+01  0.51100000000E-03 0. -1.
        -11    1    3    3    0    0  0.16962024348E+02  0.15074070410E+02  0.12796621177E+02  0.26051705943E+02  0.51100000000E-03 0.  1.
         12    1    3    3    0    0  0.13032546438E+02  0.41948307816E+01 -0.44190415467E+01  0.14386514524E+02  0.00000000000E+00 0. -1.
</event>
<event>
 7    1  0.2387817E-009  0.4778726E+02  0.7816164E-02  0.1312668E+00
        -11   -1    0    0    0    0  0.00000000000E+00  0.00000000000E+00  0.45593999997E+02  0.45594000000E+02  0.51100000000E-03 0. -1.
         11   -1    0    0    0    0 -0.00000000000E+00 -0.00000000000E+00 -0.45593999997E+02  0.45594000000E+02  0.51100000000E-03 0.  1.
    9900012    2    1    2    0    0  0.25609362999E+02  0.31197524985E+02 -0.15953020601E+02  0.47787263777E+02  0.19999966863E+02 0.  0.
         12    1    1    2    0    0 -0.25609362999E+02 -0.31197524985E+02  0.15953020601E+02  0.43400736223E+02  0.00000000000E+00 0. -1.
         11    1    3    3    0    0  0.16180269209E+01 -0.91253746742E+00  0.10910076505E+01  0.21543058512E+01  0.51100000000E-03 0. -1.
        -11    1    3    3    0    0  0.90355149713E+01  0.10404762339E+02 -0.13039007575E+02  0.18971434551E+02  0.51100000000E-03 0.  1.
        -12    1    3    3    0    0  0.14955821107E+02  0.21705300114E+02 -0.40050206762E+01  0.26661523374E+02  0.00000000000E+00 0.  1.
</event>
<event>
 7    1  0.2387817E-009  0.4778721E+02  0.7816164E-02  0.1312668E+00
        -11   -1    0    0    0    0  0.00000000000E+00  0.00000000000E+00  0.45593999997E+02  0.45594000000E+02  0.51100000000E-03 0.  1.
         11   -1    0    0    0    0 -0.00000000000E+00 -0.00000000000E+00 -0.45593999997E+02  0.45594000000E+02  0.51100000000E-03 0. -1.
    9900012    2    1    2    0    0 -0.41974606995E+01 -0.35583284945E+02  0.24491629307E+02  0.47787207957E+02  0.19999712359E+02 0.  0.
         12    1    1    2    0    0  0.41974606995E+01  0.35583284945E+02 -0.24491629307E+02  0.43400792043E+02  0.00000000000E+00 0. -1.
         11    1    3    3    0    0 -0.31497762678E+01 -0.24446656776E+02  0.70660404615E+01  0.25641549215E+02  0.51100000000E-03 0. -1.
        -11    1    3    3    0    0 -0.19654042796E+01 -0.10607905667E+02  0.10213379600E+02  0.14856096383E+02  0.51100000000E-03 0.  1.
         12    1    3    3    0    0  0.91771984788E+00 -0.52872250234E+00  0.72122092453E+01  0.72895623601E+01  0.00000000000E+00 0. -1.
</event>
<event>
 7    1  0.2387817E-009  0.4778727E+02  0.7816164E-02  0.1312668E+00
        -11   -1    0    0    0    0  0.00000000000E+00  0.00000000000E+00  0.45593999997E+02  0.45594000000E+02  0.51100000000E-03 0.  1.
         11   -1    0    0    0    0 -0.00000000000E+00 -0.00000000000E+00 -0.45593999997E+02  0.45594000000E+02  0.51100000000E-03 0. -1.
    9900012    2    1    2    0    0  0.49572633559E+01  0.14657602966E+02  0.40548780249E+02  0.47787270002E+02  0.19999995247E+02 0.  0.
         12    1    1    2    0    0 -0.49572633559E+01 -0.14657602966E+02 -0.40548780249E+02  0.43400729998E+02  0.00000000000E+00 0. -1.
         11    1    3    3    0    0 -0.46700758954E+01  0.21301395163E+01  0.70200629139E+01  0.86964582908E+01  0.51100000000E-03 0. -1.
        -11    1    3    3    0    0  0.13747162730E+01  0.51870274523E+01  0.23719533545E+02  0.24318950851E+02  0.51100000000E-03 0.  1.
         12    1    3    3    0    0  0.82526229783E+01  0.73404359977E+01  0.98091837895E+01  0.14771860860E+02  0.00000000000E+00 0. -1.
</event>
<event>
 7    1  0.2387817E-009  0.4778727E+02  0.7816164E-02  0.1312668E+00
        -11   -1    0    0    0    0  0.00000000000E+00  0.00000000000E+00  0.45593999997E+02  0.45594000000E+02  0.51100000000E-03 0.  1.
         11   -1    0    0    0    0 -0.00000000000E+00 -0.00000000000E+00 -0.45593999997E+02  0.45594000000E+02  0.51100000000E-03 0. -1.
    9900012    2    1    2    0    0  0.12607377433E+02  0.28049171955E+02  0.30625501463E+02  0.47787270134E+02  0.19999995847E+02 0.  0.
         12    1    1    2    0    0 -0.12607377433E+02 -0.28049171955E+02 -0.30625501463E+02  0.43400729866E+02  0.00000000000E+00 0. -1.
         11    1    3    3    0    0 -0.40435332196E+00  0.27143303946E+01  0.26764485902E+01  0.38333364602E+01  0.51100000000E-03 0. -1.
        -11    1    3    3    0    0 -0.10481619852E+00  0.18318454581E+02  0.10853122458E+02  0.21292417242E+02  0.51100000000E-03 0.  1.
         12    1    3    3    0    0  0.13116546953E+02  0.70163869795E+01  0.17095930414E+02  0.22661516431E+02  0.00000000000E+00 0. -1.
</event>
<event>
 7    1  0.2387817E-009  0.4778727E+02  0.7816164E-02  0.1312668E+00
        -11   -1    0    0    0    0  0.00000000000E+00  0.00000000000E+00  0.45593999997E+02  0.45594000000E+02  0.51100000000E-03 0. -1.
         11   -1    0    0    0    0 -0.00000000000E+00 -0.00000000000E+00 -0.45593999997E+02  0.45594000000E+02  0.51100000000E-03 0.  1.
    9900012    2    1    2    0    0 -0.19942021814E+02  0.31295677395E+02 -0.22505991263E+02  0.47787270739E+02  0.19999998608E+02 0.  0.
         12    1    1    2    0    0  0.19942021814E+02 -0.31295677395E+02  0.22505991263E+02  0.43400729261E+02  0.00000000000E+00 0. -1.
         11    1    3    3    0    0 -0.73803847001E+01  0.16638595522E+02 -0.12342409936E+02  0.21991999058E+02  0.51100000000E-03 0. -1.
        -11    1    3    3    0    0 -0.78397492580E+01  0.16751066444E+02 -0.72520552950E+01  0.19865855172E+02  0.51100000000E-03 0.  1.
         12    1    3    3    0    0 -0.47218878561E+01 -0.20939845710E+01 -0.29115260320E+01  0.59294165096E+01  0.00000000000E+00 0. -1.
</event>
<event>
 7    1  0.2387817E-009  0.4778727E+02  0.7816164E-02  0.1312668E+00
        -11   -1    0    0    0    0  0.00000000000E+00  0.00000000000E+00  0.45593999997E+02  0.45594000000E+02  0.51100000000E-03 0.  1.
         11   -1    0    0    0    0 -0.00000000000E+00 -0.00000000000E+00 -0.45593999997E+02  0.45594000000E+02  0.51100000000E-03 0. -1.
    9900012    2    1    2    0    0  0.16354361816E+02  0.40200494117E+02 -0.28016133855E+00  0.47787269960E+02  0.19999995057E+02 0.  0.
         12    1    1    2    0    0 -0.16354361816E+02 -0.40200494117E+02  0.28016133855E+00  0.43400730040E+02  0.00000000000E+00 0. -1.
         11    1    3    3    0    0  0.68713677484E+01  0.12447163445E+02  0.91773059401E+00  0.14247448974E+02  0.51100000000E-03 0. -1.
        -11    1    3    3    0    0 -0.24753242059E-01  0.11565151126E+02  0.64798575877E+01  0.13256767627E+02  0.51100000000E-03 0.  1.
         12    1    3    3    0    0  0.95077473092E+01  0.16188179546E+02 -0.76777495203E+01  0.20283053360E+02  0.00000000000E+00 0. -1.
</event>
<event>
 7    1  0.2387817E-009  0.4778727E+02  0.7816164E-02  0.1312668E+00
        -11   -1    0    0    0    0  0.00000000000E+00  0.00000000000E+00  0.45593999997E+02  0.45594000000E+02  0.51100000000E-03 0. -1.
         11   -1    0    0    0    0 -0.00000000000E+00 -0.00000000000E+00 -0.45593999997E+02  0.45594000000E+02  0.51100000000E-03 0.  1.
    9900012    2    1    2    0    0  0.13734333848E+02 -0.19330449243E+02 -0.36350038906E+02  0.47787268179E+02  0.19999986934E+02 0.  0.
         12    1    1    2    0    0 -0.13734333848E+02  0.19330449243E+02  0.36350038906E+02  0.43400731821E+02  0.00000000000E+00 0. -1.
         11    1    3    3    0    0  0.10124204500E+02 -0.45738220953E+01 -0.12743547105E+02  0.16906133751E+02  0.51100000000E-03 0. -1.
        -11    1    3    3    0    0  0.62435412081E+01 -0.10406763136E+02 -0.81728309329E+01  0.14631394038E+02  0.51100000000E-03 0.  1.
        -12    1    3    3    0    0 -0.26334118604E+01 -0.43498640120E+01 -0.15433660868E+02  0.16249740390E+02  0.00000000000E+00 0.  1.
</event>
<event>
 7    1  0.2387817E-009  0.4778727E+02  0.7816164E-02  0.1312668E+00
        -11   -1    0    0    0    0  0.00000000000E+00  0.00000000000E+00  0.45593999997E+02  0.45594000000E+02  0.51100000000E-03 0.  1.
         11   -1    0    0    0    0 -0.00000000000E+00 -0.00000000000E+00 -0.45593999997E+02  0.45594000000E+02  0.51100000000E-03 0. -1.
    9900012    2    1    2    0    0  0.25376417941E+02 -0.16527658583E+02  0.31088536183E+02  0.47787272267E+02  0.20000005572E+02 0.  0.
         12    1    1    2    0    0 -0.25376417941E+02  0.16527658583E+02 -0.31088536183E+02  0.43400727733E+02  0.00000000000E+00 0. -1.
         11    1    3    3    0    0  0.82552634582E+01 -0.40364887291E+01  0.53609402998E+01  0.10638716896E+02  0.51100000000E-03 0. -1.
        -11    1    3    3    0    0  0.17285256818E+02 -0.59994211604E+01  0.24437053785E+02  0.30527737477E+02  0.51100000000E-03 0.  1.
         12    1    3    3    0    0 -0.16410233446E+00 -0.64917486936E+01  0.12905420985E+01  0.66208178940E+01  0.00000000000E+00 0. -1.
</event>
<event>
 7    1  0.2387817E-009  0.4778727E+02  0.7816164E-02  0.1312668E+00
        -11   -1    0    0    0    0  0.00000000000E+00  0.00000000000E+00  0.45593999997E+02  0.45594000000E+02  0.51100000000E-03 0.  1.
         11   -1    0    0    0    0 -0.00000000000E+00 -0.00000000000E+00 -0.45593999997E+02  0.45594000000E+02  0.51100000000E-03 0. -1.
    9900012    2    1    2    0    0  0.13316276027E+02  0.36933881766E+01  0.41141936633E+02  0.47787271050E+02  0.20000000027E+02 0.  0.
         12    1    1    2    0    0 -0.13316276027E+02 -0.36933881766E+01 -0.41141936633E+02  0.43400728950E+02  0.00000000000E+00 0. -1.
         11    1    3    3    0    0  0.11704386162E+02  0.36771267648E+01  0.20777082442E+02  0.24128843149E+02  0.51100000000E-03 0. -1.
        -11    1    3    3    0    0 -0.26912908134E+00  0.52994138108E+01  0.14946464931E+02  0.15860423430E+02  0.51100000000E-03 0.  1.
         12    1    3    3    0    0  0.18810189471E+01 -0.52831523990E+01  0.54183892608E+01  0.77980044712E+01  0.00000000000E+00 0. -1.
</event>
<event>
 7    1  0.2387817E-009  0.4778727E+02  0.7816164E-02  0.1312668E+00
        -11   -1    0    0    0    0  0.00000000000E+00  0.00000000000E+00  0.45593999997E+02  0.45594000000E+02  0.51100000000E-03 0.  1.
         11   -1    0    0    0    0 -0.00000000000E+00 -0.00000000000E+00 -0.45593999997E+02  0.45594000000E+02  0.51100000000E-03 0. -1.
    9900012    2    1    2    0    0 -0.38367694936E+02 -0.16939147027E+02  0.11162808049E+02  0.47787274197E+02  0.20000014372E+02 0.  0.
         12    1    1    2    0    0  0.38367694936E+02  0.16939147027E+02 -0.11162808049E+02  0.43400725803E+02  0.00000000000E+00 0. -1.
         11    1    3    3    0    0 -0.16784212914E+02 -0.12873964042E+02  0.13045505036E+01  0.21193173561E+02  0.51100000000E-03 0. -1.
        -11    1    3    3    0    0 -0.14739679704E+02 -0.26622832713E+01  0.59263871808E+00  0.14989900964E+02  0.51100000000E-03 0.  1.
         12    1    3    3    0    0 -0.68438023183E+01 -0.14028997141E+01  0.92656188276E+01  0.11604199672E+02  0.00000000000E+00 0. -1.
</event>
<event>
 7    1  0.2387817E-009  0.4778727E+02  0.7816164E-02  0.1312668E+00
        -11   -1    0    0    0    0  0.00000000000E+00  0.00000000000E+00  0.45593999997E+02  0.45594000000E+02  0.51100000000E-03 0. -1.
         11   -1    0    0    0    0 -0.00000000000E+00 -0.00000000000E+00 -0.45593999997E+02  0.45594000000E+02  0.51100000000E-03 0.  1.
    9900012    2    1    2    0    0  0.42574319816E+02  0.82948813688E+01  0.14985579399E+01  0.47787269123E+02  0.19999991240E+02 0.  0.
         12    1    1    2    0    0 -0.42574319816E+02 -0.82948813688E+01 -0.14985579399E+01  0.43400730877E+02  0.00000000000E+00 0. -1.
         11    1    3    3    0    0  0.16334989018E+02  0.31542483892E+01  0.43419727091E+01  0.17194006990E+02  0.51100000000E-03 0. -1.
        -11    1    3    3    0    0  0.16848908140E+02  0.42668762982E+01 -0.87563912606E+01  0.19461919921E+02  0.51100000000E-03 0.  1.
        -12    1    3    3    0    0  0.93904226584E+01  0.87375668138E+00  0.59129764914E+01  0.11131342211E+02  0.00000000000E+00 0.  1.
</event>
<event>
 7    1  0.2387817E-009  0.4778727E+02  0.7816164E-02  0.1312668E+00
        -11   -1    0    0    0    0  0.00000000000E+00  0.00000000000E+00  0.45593999997E+02  0.45594000000E+02  0.51100000000E-03 0. -1.
         11   -1    0    0    0    0 -0.00000000000E+00 -0.00000000000E+00 -0.45593999997E+02  0.45594000000E+02  0.51100000000E-03 0.  1.
    9900012    2    1    2    0    0  0.17063292574E+01 -0.40431526687E+02 -0.15684492934E+02  0.47787271569E+02  0.20000002390E+02 0.  0.
         12    1    1    2    0    0 -0.17063292574E+01  0.40431526687E+02  0.15684492934E+02  0.43400728431E+02  0.00000000000E+00 0. -1.
         11    1    3    3    0    0 -0.42338250587E+01 -0.16016246854E+02 -0.36030861760E+01  0.16953691874E+02  0.51100000000E-03 0. -1.
        -11    1    3    3    0    0 -0.33641537272E+01 -0.13767720051E+02 -0.70096949658E+01  0.15811498015E+02  0.51100000000E-03 0.  1.
         12    1    3    3    0    0  0.93043080433E+01 -0.10647559783E+02 -0.50717117920E+01  0.15022081680E+02  0.00000000000E+00 0. -1.
</event>
<event>
 7    1  0.2387817E-009  0.4778727E+02  0.7816164E-02  0.1312668E+00
        -11   -1    0    0    0    0  0.00000000000E+00  0.00000000000E+00  0.45593999997E+02  0.45594000000E+02  0.51100000000E-03 0. -1.
         11   -1    0    0    0    0 -0.00000000000E+00 -0.00000000000E+00 -0.45593999997E+02  0.45594000000E+02  0.51100000000E-03 0.  1.
    9900012    2    1    2    0    0  0.20180957586E+02  0.13739719055E+02 -0.35882763871E+02  0.47787266460E+02  0.19999979098E+02 0.  0.
         12    1    1    2    0    0 -0.20180957586E+02 -0.13739719055E+02  0.35882763871E+02  0.43400733540E+02  0.00000000000E+00 0. -1.
         11    1    3    3    0    0  0.11119838203E+02  0.62348975299E+01 -0.50866508107E+01  0.13725842983E+02  0.51100000000E-03 0. -1.
        -11    1    3    3    0    0  0.20560180958E+01  0.64618900622E+01 -0.99163441381E+01  0.12013205855E+02  0.51100000000E-03 0.  1.
         12    1    3    3    0    0  0.70051012875E+01  0.10429314632E+01 -0.20879768922E+02  0.22048217622E+02  0.00000000000E+00 0. -1.
</event>
<event>
 7    1  0.2387817E-009  0.4778727E+02  0.7816164E-02  0.1312668E+00
        -11   -1    0    0    0    0  0.00000000000E+00  0.00000000000E+00  0.45593999997E+02  0.45594000000E+02  0.51100000000E-03 0.  1.
         11   -1    0    0    0    0 -0.00000000000E+00 -0.00000000000E+00 -0.45593999997E+02  0.45594000000E+02  0.51100000000E-03 0. -1.
    9900012    2    1    2    0    0 -0.16751808066E+02  0.30100617866E+02  0.26399869993E+02  0.47787269534E+02  0.19999993112E+02 0.  0.
         12    1    1    2    0    0  0.16751808066E+02 -0.30100617866E+02 -0.26399869993E+02  0.43400730466E+02  0.00000000000E+00 0. -1.
         11    1    3    3    0    0 -0.28559478286E+01  0.12405569411E+02  0.75446857609E+01  0.14797867208E+02  0.51100000000E-03 0. -1.
        -11    1    3    3    0    0 -0.97704827763E+01  0.18839030546E+02  0.19299664031E+02  0.28685334887E+02  0.51100000000E-03 0.  1.
         12    1    3    3    0    0 -0.41253774615E+01 -0.11439820919E+01 -0.44447979884E+00  0.43040674388E+01  0.00000000000E+00 0. -1.
</event>
<event>
 7    1  0.2387817E-009  0.4778727E+02  0.7816164E-02  0.1312668E+00
        -11   -1    0    0    0    0  0.00000000000E+00  0.00000000000E+00  0.45593999997E+02  0.45594000000E+02  0.51100000000E-03 0.  1.
         11   -1    0    0    0    0 -0.00000000000E+00 -0.00000000000E+00 -0.45593999997E+02  0.45594000000E+02  0.51100000000E-03 0. -1.
    9900012    2    1    2    0    0 -0.15389737844E+02  0.23718916128E+02  0.32927075832E+02  0.47787270328E+02  0.19999996735E+02 0.  0.
         12    1    1    2    0    0  0.15389737844E+02 -0.23718916128E+02 -0.32927075832E+02  0.43400729672E+02  0.00000000000E+00 0. -1.
         11    1    3    3    0    0 -0.62862534627E+01  0.45955964708E+01  0.10624328151E+02  0.13172427204E+02  0.51100000000E-03 0.  1.
        -11    1    3    3    0    0 -0.70353730319E+00  0.16466537805E+02  0.19130372405E+02  0.25250999596E+02  0.51100000000E-03 0. -1.
         12    1    3    3    0    0 -0.83999470782E+01  0.26567818525E+01  0.31723752765E+01  0.93638435283E+01  0.00000000000E+00 0. -1.
</event>
<event>
 7    1  0.2387817E-009  0.4778727E+02  0.7816164E-02  0.1312668E+00
        -11   -1    0    0    0    0  0.00000000000E+00  0.00000000000E+00  0.45593999997E+02  0.45594000000E+02  0.51100000000E-03 0.  1.
         11   -1    0    0    0    0 -0.00000000000E+00 -0.00000000000E+00 -0.45593999997E+02  0.45594000000E+02  0.51100000000E-03 0. -1.
    9900012    2    1    2    0    0 -0.15717401670E+01  0.39556728103E+02  0.17788149943E+02  0.47787269778E+02  0.19999994228E+02 0.  0.
         12    1    1    2    0    0  0.15717401670E+01 -0.39556728103E+02 -0.17788149943E+02  0.43400730222E+02  0.00000000000E+00 0. -1.
         11    1    3    3    0    0 -0.23736239425E+01  0.22290530180E+02  0.15964833576E+02  0.27520496683E+02  0.51100000000E-03 0. -1.
        -11    1    3    3    0    0  0.13733406358E+01  0.34341162018E+01  0.48466001844E+01  0.60966180952E+01  0.51100000000E-03 0.  1.
         12    1    3    3    0    0 -0.57145686029E+00  0.13832081721E+02 -0.30232838175E+01  0.14170155000E+02  0.00000000000E+00 0. -1.
</event>
<event>
 7    1  0.2387817E-009  0.4778726E+02  0.7816164E-02  0.1312668E+00
        -11   -1    0    0    0    0  0.00000000000E+00  0.00000000000E+00  0.45593999997E+02  0.45594000000E+02  0.51100000000E-03 0.  1.
         11   -1    0    0    0    0 -0.00000000000E+00 -0.00000000000E+00 -0.45593999997E+02  0.45594000000E+02  0.51100000000E-03 0. -1.
    9900012    2    1    2    0    0 -0.21468004089E+02 -0.17219592720E+02  0.33559424596E+02  0.47787256318E+02  0.19999932855E+02 0.  0.
         12    1    1    2    0    0  0.21468004089E+02  0.17219592720E+02 -0.33559424596E+02  0.43400743682E+02  0.00000000000E+00 0. -1.
         11    1    3    3    0    0 -0.12405638908E+02 -0.76302008232E+01  0.59160839500E+01  0.15720047420E+02  0.51100000000E-03 0. -1.
        -11    1    3    3    0    0 -0.27413698795E+01 -0.68638055566E+01  0.65382331579E+01  0.98678988961E+01  0.51100000000E-03 0.  1.
        -12    1    3    3    0    0 -0.63209953013E+01 -0.27255863400E+01  0.21105107488E+02  0.22199310002E+02  0.00000000000E+00 0.  1.
</event>
<event>
 7    1  0.2387817E-009  0.4778727E+02  0.7816164E-02  0.1312668E+00
        -11   -1    0    0    0    0  0.00000000000E+00  0.00000000000E+00  0.45593999997E+02  0.45594000000E+02  0.51100000000E-03 0.  1.
         11   -1    0    0    0    0 -0.00000000000E+00 -0.00000000000E+00 -0.45593999997E+02  0.45594000000E+02  0.51100000000E-03 0. -1.
    9900012    2    1    2    0    0  0.13231706235E+02 -0.33202596004E+02  0.24619768160E+02  0.47787269412E+02  0.19999992559E+02 0.  0.
         12    1    1    2    0    0 -0.13231706235E+02  0.33202596004E+02 -0.24619768160E+02  0.43400730588E+02  0.00000000000E+00 0. -1.
         11    1    3    3    0    0  0.16210890355E+01  0.23535005478E+01  0.64442495742E+00  0.29295355052E+01  0.51100000000E-03 0. -1.
        -11    1    3    3    0    0  0.45344380681E+01 -0.78261690134E+01  0.80400024551E+01  0.12101722595E+02  0.51100000000E-03 0.  1.
        -12    1    3    3    0    0  0.70761791319E+01 -0.27729927538E+02  0.15935340748E+02  0.32756011313E+02  0.00000000000E+00 0.  1.
</event>
<event>
 7    1  0.2387817E-009  0.4778727E+02  0.7816164E-02  0.1312668E+00
        -11   -1    0    0    0    0  0.00000000000E+00  0.00000000000E+00  0.45593999997E+02  0.45594000000E+02  0.51100000000E-03 0.  1.
         11   -1    0    0    0    0 -0.00000000000E+00 -0.00000000000E+00 -0.45593999997E+02  0.45594000000E+02  0.51100000000E-03 0. -1.
    9900012    2    1    2    0    0 -0.29662624821E+02  0.27083398344E+02  0.16439036268E+02  0.47787266244E+02  0.19999978113E+02 0.  0.
         12    1    1    2    0    0  0.29662624821E+02 -0.27083398344E+02 -0.16439036268E+02  0.43400733756E+02  0.00000000000E+00 0. -1.
         11    1    3    3    0    0 -0.25151709907E+01  0.81676538154E+01  0.40086763593E+01  0.94396048845E+01  0.51100000000E-03 0. -1.
        -11    1    3    3    0    0 -0.97770427054E+01  0.14604623212E+02  0.21455744034E+01  0.17705622639E+02  0.51100000000E-03 0.  1.
         12    1    3    3    0    0 -0.17370411125E+02  0.43111213158E+01  0.10284785506E+02  0.20642038721E+02  0.00000000000E+00 0. -1.
</event>
<event>
 7    1  0.2886412E-009  0.4778727E+02  0.7816164E-02  0.1312668E+00
        -11   -1    0    0    0    0  0.00000000000E+00  0.00000000000E+00  0.45593999997E+02  0.45594000000E+02  0.51100000000E-03 0. -1.
         11   -1    0    0    0    0 -0.00000000000E+00 -0.00000000000E+00 -0.45593999997E+02  0.45594000000E+02  0.51100000000E-03 0.  1.
    9900012    2    1    2    0    0  0.94318597301E+00 -0.19541879852E+01 -0.43346449816E+02  0.47787272332E+02  0.20000005871E+02 0.  0.
         12    1    1    2    0    0 -0.94318597301E+00  0.19541879852E+01  0.43346449816E+02  0.43400727668E+02  0.00000000000E+00 0. -1.
         11    1    3    3    0    0  0.62004959118E+01  0.36708552465E+01 -0.13183109260E+02  0.15023837653E+02  0.51100000000E-03 0.  1.
        -11    1    3    3    0    0  0.56859179432E+00 -0.28340612948E+01 -0.22739560205E+02  0.22922539096E+02  0.51100000000E-03 0. -1.
         12    1    3    3    0    0 -0.58259017331E+01 -0.27909819370E+01 -0.74237803510E+01  0.98408955831E+01  0.00000000000E+00 0. -1.
</event>
<event>
 7    1  0.2387817E-009  0.4778727E+02  0.7816164E-02  0.1312668E+00
        -11   -1    0    0    0    0  0.00000000000E+00  0.00000000000E+00  0.45593999997E+02  0.45594000000E+02  0.51100000000E-03 0.  1.
         11   -1    0    0    0    0 -0.00000000000E+00 -0.00000000000E+00 -0.45593999997E+02  0.45594000000E+02  0.51100000000E-03 0. -1.
    9900012    2    1    2    0    0  0.15637555823E+01  0.11153153879E+02  0.41914022541E+02  0.47787268917E+02  0.19999990300E+02 0.  0.
         12    1    1    2    0    0 -0.15637555823E+01 -0.11153153879E+02 -0.41914022541E+02  0.43400731083E+02  0.00000000000E+00 0. -1.
         11    1    3    3    0    0 -0.11494606533E+00 -0.43832856213E+00  0.15074594908E+02  0.15081404325E+02  0.51100000000E-03 0. -1.
        -11    1    3    3    0    0 -0.28079056412E+01  0.36765052858E+01  0.21840038738E+02  0.22324612371E+02  0.51100000000E-03 0.  1.
         12    1    3    3    0    0  0.44866072889E+01  0.79149771554E+01  0.49993888953E+01  0.10381252220E+02  0.00000000000E+00 0. -1.
</event>
<event>
 7    1  0.2387817E-009  0.4778727E+02  0.7816164E-02  0.1312668E+00
        -11   -1    0    0    0    0  0.00000000000E+00  0.00000000000E+00  0.45593999997E+02  0.45594000000E+02  0.51100000000E-03 0.  1.
         11   -1    0    0    0    0 -0.00000000000E+00 -0.00000000000E+00 -0.45593999997E+02  0.45594000000E+02  0.51100000000E-03 0. -1.
    9900012    2    1    2    0    0  0.42080818343E+02 -0.54447200370E+01  0.91204695569E+01  0.47787271738E+02  0.20000003164E+02 0.  0.
         12    1    1    2    0    0 -0.42080818343E+02  0.54447200370E+01 -0.91204695569E+01  0.43400728262E+02  0.00000000000E+00 0. -1.
         11    1    3    3    0    0  0.18888149586E+02  0.45155437221E+01  0.20451289219E+01  0.19527797686E+02  0.51100000000E-03 0. -1.
        -11    1    3    3    0    0  0.18544683344E+02 -0.27712178446E+01  0.56300194272E+01  0.19577590446E+02  0.51100000000E-03 0.  1.
         12    1    3    3    0    0  0.46479854132E+01 -0.71890459144E+01  0.14453212077E+01  0.86818836064E+01  0.00000000000E+00 0. -1.
</event>
<event>
 7    1  0.2387817E-009  0.4778727E+02  0.7816164E-02  0.1312668E+00
        -11   -1    0    0    0    0  0.00000000000E+00  0.00000000000E+00  0.45593999997E+02  0.45594000000E+02  0.51100000000E-03 0.  1.
         11   -1    0    0    0    0 -0.00000000000E+00 -0.00000000000E+00 -0.45593999997E+02  0.45594000000E+02  0.51100000000E-03 0. -1.
    9900012    2    1    2    0    0  0.36680176494E+02  0.15894511582E+01  0.23144371701E+02  0.47787266780E+02  0.19999980555E+02 0.  0.
         12    1    1    2    0    0 -0.36680176494E+02 -0.15894511582E+01 -0.23144371701E+02  0.43400733220E+02  0.00000000000E+00 0. -1.
         11    1    3    3    0    0  0.15063771294E+02  0.43598483226E+01  0.67260275880E+01  0.17063555619E+02  0.51100000000E-03 0. -1.
        -11    1    3    3    0    0  0.18087579695E+02 -0.37885326766E+01  0.56167722029E+01  0.19314803890E+02  0.51100000000E-03 0.  1.
        -12    1    3    3    0    0  0.35288255050E+01  0.10181355123E+01  0.10801571910E+02  0.11408907270E+02  0.00000000000E+00 0.  1.
</event>
<event>
 7    1  0.2387817E-009  0.4778726E+02  0.7816164E-02  0.1312668E+00
        -11   -1    0    0    0    0  0.00000000000E+00  0.00000000000E+00  0.45593999997E+02  0.45594000000E+02  0.51100000000E-03 0.  1.
         11   -1    0    0    0    0 -0.00000000000E+00 -0.00000000000E+00 -0.45593999997E+02  0.45594000000E+02  0.51100000000E-03 0. -1.
    9900012    2    1    2    0    0 -0.15353473380E+02  0.40593494880E+02 -0.25119370785E+00  0.47787261876E+02  0.19999958199E+02 0.  0.
         12    1    1    2    0    0  0.15353473380E+02 -0.40593494880E+02  0.25119370785E+00  0.43400738124E+02  0.00000000000E+00 0. -1.
         11    1    3    3    0    0 -0.10995576414E+02  0.14199762938E+02 -0.53002900673E+01  0.18725091274E+02  0.51100000000E-03 0. -1.
        -11    1    3    3    0    0 -0.28777155880E+01  0.13061879509E+01 -0.79860642768E+00  0.32596236678E+01  0.51100000000E-03 0.  1.
        -12    1    3    3    0    0 -0.14801813783E+01  0.25087543991E+02  0.58477027872E+01  0.25802546934E+02  0.00000000000E+00 0.  1.
</event>
<event>
 7    1  0.2387817E-009  0.4778727E+02  0.7816164E-02  0.1312668E+00
        -11   -1    0    0    0    0  0.00000000000E+00  0.00000000000E+00  0.45593999997E+02  0.45594000000E+02  0.51100000000E-03 0.  1.
         11   -1    0    0    0    0 -0.00000000000E+00 -0.00000000000E+00 -0.45593999997E+02  0.45594000000E+02  0.51100000000E-03 0. -1.
    9900012    2    1    2    0    0  0.37566071313E+02  0.68245789516E+01  0.20635860022E+02  0.47787270622E+02  0.19999998072E+02 0.  0.
         12    1    1    2    0    0 -0.37566071313E+02 -0.68245789516E+01 -0.20635860022E+02  0.43400729378E+02  0.00000000000E+00 0. -1.
         11    1    3    3    0    0  0.14900461257E+02  0.88104910614E+01  0.16895939336E+02  0.24189279955E+02  0.51100000000E-03 0. -1.
        -11    1    3    3    0    0  0.10155816925E+02 -0.69110286995E+00  0.42029240234E+01  0.11012847551E+02  0.51100000000E-03 0.  1.
         12    1    3    3    0    0  0.12509793131E+02 -0.12948092398E+01 -0.46300333764E+00  0.12585143116E+02  0.00000000000E+00 0. -1.
</event>
<event>
 7    1  0.2387817E-009  0.4778727E+02  0.7816164E-02  0.1312668E+00
        -11   -1    0    0    0    0  0.00000000000E+00  0.00000000000E+00  0.45593999997E+02  0.45594000000E+02  0.51100000000E-03 0. -1.
         11   -1    0    0    0    0 -0.00000000000E+00 -0.00000000000E+00 -0.45593999997E+02  0.45594000000E+02  0.51100000000E-03 0.  1.
    9900012    2    1    2    0    0  0.19136038276E+02 -0.22159099449E+02 -0.32037627698E+02  0.47787271460E+02  0.20000001895E+02 0.  0.
         12    1    1    2    0    0 -0.19136038276E+02  0.22159099449E+02  0.32037627698E+02  0.43400728540E+02  0.00000000000E+00 0. -1.
         11    1    3    3    0    0  0.76266521429E+01 -0.60416569850E+01 -0.98712282193E+01  0.13860324269E+02  0.51100000000E-03 0.  1.
        -11    1    3    3    0    0 -0.23948641737E+01 -0.47472688804E+01 -0.12377731725E+02  0.13471457944E+02  0.51100000000E-03 0. -1.
         12    1    3    3    0    0  0.13904250307E+02 -0.11370173584E+02 -0.97886677535E+01  0.20455489246E+02  0.00000000000E+00 0. -1.
</event>
<event>
 7    1  0.2387817E-009  0.4778727E+02  0.7816164E-02  0.1312668E+00
        -11   -1    0    0    0    0  0.00000000000E+00  0.00000000000E+00  0.45593999997E+02  0.45594000000E+02  0.51100000000E-03 0.  1.
         11   -1    0    0    0    0 -0.00000000000E+00 -0.00000000000E+00 -0.45593999997E+02  0.45594000000E+02  0.51100000000E-03 0. -1.
    9900012    2    1    2    0    0  0.31188079724E+02 -0.20082455271E+02  0.22530468584E+02  0.47787270268E+02  0.19999996462E+02 0.  0.
         12    1    1    2    0    0 -0.31188079724E+02  0.20082455271E+02 -0.22530468584E+02  0.43400729732E+02  0.00000000000E+00 0. -1.
         11    1    3    3    0    0  0.11415114879E+02 -0.88968688591E+00  0.16304229628E+01  0.11565235396E+02  0.51100000000E-03 0.  1.
        -11    1    3    3    0    0  0.65621692733E+01 -0.12435313272E+02  0.63083970122E+01  0.15410871321E+02  0.51100000000E-03 0. -1.
        -12    1    3    3    0    0  0.13210795572E+02 -0.67574551132E+01  0.14591648609E+02  0.20811163552E+02  0.00000000000E+00 0.  1.
</event>
<event>
 7    1  0.2387817E-009  0.4778729E+02  0.7816164E-02  0.1312668E+00
        -11   -1    0    0    0    0  0.00000000000E+00  0.00000000000E+00  0.45593999997E+02  0.45594000000E+02  0.51100000000E-03 0. -1.
         11   -1    0    0    0    0 -0.00000000000E+00 -0.00000000000E+00 -0.45593999997E+02  0.45594000000E+02  0.51100000000E-03 0.  1.
    9900012    2    1    2    0    0  0.27183480971E+02 -0.25111293605E+02 -0.22673835963E+02  0.47787291002E+02  0.20000090994E+02 0.  0.
         12    1    1    2    0    0 -0.27183480971E+02  0.25111293605E+02  0.22673835963E+02  0.43400708998E+02  0.00000000000E+00 0. -1.
         11    1    3    3    0    0  0.93904868141E+01 -0.13540549763E+02 -0.10487060807E+02  0.19532183061E+02  0.51100000000E-03 0. -1.
        -11    1    3    3    0    0  0.10644043055E+02 -0.11698944531E+02 -0.13725175716E+02  0.20941380194E+02  0.51100000000E-03 0.  1.
         12    1    3    3    0    0  0.71489511024E+01  0.12820068953E+00  0.15384005602E+01  0.73137277476E+01  0.00000000000E+00 0. -1.
</event>
<event>
 7    1  0.2387817E-009  0.4778727E+02  0.7816164E-02  0.1312668E+00
        -11   -1    0    0    0    0  0.00000000000E+00  0.00000000000E+00  0.45593999997E+02  0.45594000000E+02  0.51100000000E-03 0.  1.
         11   -1    0    0    0    0 -0.00000000000E+00 -0.00000000000E+00 -0.45593999997E+02  0.45594000000E+02  0.51100000000E-03 0. -1.
    9900012    2    1    2    0    0 -0.31405725595E+02  0.40523131689E+01  0.29679663329E+02  0.47787271233E+02  0.20000000859E+02 0.  0.
         12    1    1    2    0    0  0.31405725595E+02 -0.40523131689E+01 -0.29679663329E+02  0.43400728767E+02  0.00000000000E+00 0. -1.
         11    1    3    3    0    0 -0.34245758401E+01 -0.39160545408E+01  0.44285226833E+01  0.68319116116E+01  0.51100000000E-03 0.  1.
        -11    1    3    3    0    0 -0.64391764549E+01 -0.25070930966E+01  0.12053808416E+01  0.70143747011E+01  0.51100000000E-03 0. -1.
        -12    1    3    3    0    0 -0.21541973300E+02  0.10475460806E+02  0.24045759804E+02  0.33940984920E+02  0.00000000000E+00 0.  1.
</event>
<event>
 7    1  0.2387817E-009  0.4778727E+02  0.7816164E-02  0.1312668E+00
        -11   -1    0    0    0    0  0.00000000000E+00  0.00000000000E+00  0.45593999997E+02  0.45594000000E+02  0.51100000000E-03 0. -1.
         11   -1    0    0    0    0 -0.00000000000E+00 -0.00000000000E+00 -0.45593999997E+02  0.45594000000E+02  0.51100000000E-03 0.  1.
    9900012    2    1    2    0    0  0.35735341041E+02  0.53314208119E+01 -0.24045466195E+02  0.47787273143E+02  0.20000009566E+02 0.  0.
         12    1    1    2    0    0 -0.35735341041E+02 -0.53314208119E+01  0.24045466195E+02  0.43400726857E+02  0.00000000000E+00 0. -1.
         11    1    3    3    0    0  0.17258223773E+02  0.90388200550E+01 -0.71937115463E+01  0.20767668185E+02  0.51100000000E-03 0. -1.
        -11    1    3    3    0    0  0.22136295801E+01  0.24071787587E+01 -0.80422398045E+00  0.33677057422E+01  0.51100000000E-03 0.  1.
         12    1    3    3    0    0  0.16263487688E+02 -0.61145780018E+01 -0.16047530668E+02  0.23651899215E+02  0.00000000000E+00 0. -1.
</event>
<event>
 7    1  0.2387817E-009  0.4778727E+02  0.7816164E-02  0.1312668E+00
        -11   -1    0    0    0    0  0.00000000000E+00  0.00000000000E+00  0.45593999997E+02  0.45594000000E+02  0.51100000000E-03 0. -1.
         11   -1    0    0    0    0 -0.00000000000E+00 -0.00000000000E+00 -0.45593999997E+02  0.45594000000E+02  0.51100000000E-03 0.  1.
    9900012    2    1    2    0    0  0.24026143545E+02  0.32706512423E+02 -0.15383492337E+02  0.47787269995E+02  0.19999995216E+02 0.  0.
         12    1    1    2    0    0 -0.24026143545E+02 -0.32706512423E+02  0.15383492337E+02  0.43400730005E+02  0.00000000000E+00 0. -1.
         11    1    3    3    0    0 -0.14177822530E+01  0.20173389759E+01 -0.35791022456E+01  0.43462324151E+01  0.51100000000E-03 0. -1.
        -11    1    3    3    0    0  0.33430433527E-01 -0.41176274760E-01  0.14268116465E+01  0.14277971898E+01  0.51100000000E-03 0.  1.
        -12    1    3    3    0    0  0.25410495364E+02  0.30730349721E+02 -0.13231201738E+02  0.42013240390E+02  0.00000000000E+00 0.  1.
</event>
<event>
 7    1  0.2387817E-009  0.4778728E+02  0.7816164E-02  0.1312668E+00
        -11   -1    0    0    0    0  0.00000000000E+00  0.00000000000E+00  0.45593999997E+02  0.45594000000E+02  0.51100000000E-03 0. -1.
         11   -1    0    0    0    0 -0.00000000000E+00 -0.00000000000E+00 -0.45593999997E+02  0.45594000000E+02  0.51100000000E-03 0.  1.
    9900012    2    1    2    0    0  0.18909028993E+02  0.12527621926E+02 -0.37001755493E+02  0.47787278829E+02  0.20000035491E+02 0.  0.
         12    1    1    2    0    0 -0.18909028993E+02 -0.12527621926E+02  0.37001755493E+02  0.43400721171E+02  0.00000000000E+00 0. -1.
         11    1    3    3    0    0  0.16408720779E+01  0.15327667493E+01  0.13891579896E+01  0.26403778641E+01  0.51100000000E-03 0. -1.
        -11    1    3    3    0    0  0.87434493014E+01 -0.12544358011E+01 -0.14318364700E+02  0.16823705978E+02  0.51100000000E-03 0.  1.
        -12    1    3    3    0    0  0.85247076139E+01  0.12249290978E+02 -0.24072548783E+02  0.28323194987E+02  0.00000000000E+00 0.  1.
</event>
<event>
 7    1  0.2387817E-009  0.4778727E+02  0.7816164E-02  0.1312668E+00
        -11   -1    0    0    0    0  0.00000000000E+00  0.00000000000E+00  0.45593999997E+02  0.45594000000E+02  0.51100000000E-03 0. -1.
         11   -1    0    0    0    0 -0.00000000000E+00 -0.00000000000E+00 -0.45593999997E+02  0.45594000000E+02  0.51100000000E-03 0.  1.
    9900012    2    1    2    0    0 -0.22519211872E+02  0.25369021269E+02 -0.27072515120E+02  0.47787271683E+02  0.20000002912E+02 0.  0.
         12    1    1    2    0    0  0.22519211872E+02 -0.25369021269E+02  0.27072515120E+02  0.43400728317E+02  0.00000000000E+00 0. -1.
         11    1    3    3    0    0 -0.15165457154E+01  0.18674208706E+00 -0.12067576493E+01  0.19470613239E+01  0.51100000000E-03 0. -1.
        -11    1    3    3    0    0 -0.23967776814E+02  0.19907832406E+02 -0.18233226064E+02  0.36100230602E+02  0.51100000000E-03 0.  1.
         12    1    3    3    0    0  0.29651106572E+01  0.52744467763E+01 -0.76325314064E+01  0.97399797574E+01  0.00000000000E+00 0. -1.
</event>
<event>
 7    1  0.2387817E-009  0.4778727E+02  0.7816164E-02  0.1312668E+00
        -11   -1    0    0    0    0  0.00000000000E+00  0.00000000000E+00  0.45593999997E+02  0.45594000000E+02  0.51100000000E-03 0.  1.
         11   -1    0    0    0    0 -0.00000000000E+00 -0.00000000000E+00 -0.45593999997E+02  0.45594000000E+02  0.51100000000E-03 0. -1.
    9900012    2    1    2    0    0 -0.38195494735E+01 -0.11983286395E+02  0.41538362495E+02  0.47787266483E+02  0.19999979203E+02 0.  0.
         12    1    1    2    0    0  0.38195494735E+01  0.11983286395E+02 -0.41538362495E+02  0.43400733517E+02  0.00000000000E+00 0. -1.
         11    1    3    3    0    0 -0.11081609931E+01  0.14507368259E+01 -0.49011177301E-01  0.18262147961E+01  0.51100000000E-03 0. -1.
        -11    1    3    3    0    0  0.30380899678E+01  0.16253313633E+01  0.76315899172E+01  0.83733420818E+01  0.51100000000E-03 0.  1.
         12    1    3    3    0    0 -0.57494784482E+01 -0.15059354584E+02  0.33955783755E+02  0.37587709605E+02  0.00000000000E+00 0. -1.
</event>
<event>
 7    1  0.2387817E-009  0.4778728E+02  0.7816164E-02  0.1312668E+00
        -11   -1    0    0    0    0  0.00000000000E+00  0.00000000000E+00  0.45593999997E+02  0.45594000000E+02  0.51100000000E-03 0. -1.
         11   -1    0    0    0    0 -0.00000000000E+00 -0.00000000000E+00 -0.45593999997E+02  0.45594000000E+02  0.51100000000E-03 0.  1.
    9900012    2    1    2    0    0  0.15699772003E+02  0.50724600618E+01 -0.40142373457E+02  0.47787276057E+02  0.20000022853E+02 0.  0.
         12    1    1    2    0    0 -0.15699772003E+02 -0.50724600618E+01  0.40142373457E+02  0.43400723943E+02  0.00000000000E+00 0. -1.
         11    1    3    3    0    0  0.27645153234E+01  0.35372711814E+01 -0.91475755796E+00  0.45816606198E+01  0.51100000000E-03 0.  1.
        -11    1    3    3    0    0  0.31497840321E+01 -0.42555457845E+01 -0.55949297573E+01  0.77028597692E+01  0.51100000000E-03 0. -1.
        -12    1    3    3    0    0  0.97854726474E+01  0.57907346650E+01 -0.33632686142E+02  0.35502755668E+02  0.00000000000E+00 0.  1.
</event>
<event>
 7    1  0.2387817E-009  0.4778728E+02  0.7816164E-02  0.1312668E+00
        -11   -1    0    0    0    0  0.00000000000E+00  0.00000000000E+00  0.45593999997E+02  0.45594000000E+02  0.51100000000E-03 0. -1.
         11   -1    0    0    0    0 -0.00000000000E+00 -0.00000000000E+00 -0.45593999997E+02  0.45594000000E+02  0.51100000000E-03 0.  1.
    9900012    2    1    2    0    0  0.40082542687E+02 -0.29608694623E+01 -0.16378212052E+02  0.47787276432E+02  0.20000024563E+02 0.  0.
         12    1    1    2    0    0 -0.40082542687E+02  0.29608694623E+01  0.16378212052E+02  0.43400723568E+02  0.00000000000E+00 0. -1.
         11    1    3    3    0    0  0.17359447008E+02  0.42995959971E+01 -0.63400981967E+01  0.18974555899E+02  0.51100000000E-03 0. -1.
        -11    1    3    3    0    0  0.10053312317E+02 -0.18934284163E+00 -0.10171578245E+02  0.14302655121E+02  0.51100000000E-03 0.  1.
         12    1    3    3    0    0  0.12669783362E+02 -0.70711226178E+01  0.13346438930E+00  0.14510065412E+02  0.00000000000E+00 0. -1.
</event>
<event>
 7    1  0.2387817E-009  0.4778726E+02  0.7816164E-02  0.1312668E+00
        -11   -1    0    0    0    0  0.00000000000E+00  0.00000000000E+00  0.45593999997E+02  0.45594000000E+02  0.51100000000E-03 0.  1.
         11   -1    0    0    0    0 -0.00000000000E+00 -0.00000000000E+00 -0.45593999997E+02  0.45594000000E+02  0.51100000000E-03 0. -1.
    9900012    2    1    2    0    0 -0.12913310079E+00  0.36838074294E+02  0.22946970992E+02  0.47787264167E+02  0.19999968645E+02 0.  0.
         12    1    1    2    0    0  0.12913310079E+00 -0.36838074294E+02 -0.22946970992E+02  0.43400735833E+02  0.00000000000E+00 0. -1.
         11    1    3    3    0    0  0.60924366667E+01  0.49615567152E+01  0.59130064246E+01  0.98335382652E+01  0.51100000000E-03 0. -1.
        -11    1    3    3    0    0 -0.42521983366E+00  0.15204631509E+02  0.12607772025E+02  0.19756455829E+02  0.51100000000E-03 0.  1.
        -12    1    3    3    0    0 -0.57963499338E+01  0.16671886070E+02  0.44261925431E+01  0.18197270073E+02  0.00000000000E+00 0.  1.
</event>
<event>
 7    1  0.2387817E-009  0.4778727E+02  0.7816164E-02  0.1312668E+00
        -11   -1    0    0    0    0  0.00000000000E+00  0.00000000000E+00  0.45593999997E+02  0.45594000000E+02  0.51100000000E-03 0.  1.
         11   -1    0    0    0    0 -0.00000000000E+00 -0.00000000000E+00 -0.45593999997E+02  0.45594000000E+02  0.51100000000E-03 0. -1.
    9900012    2    1    2    0    0  0.50857281350E-01 -0.42642531228E+02  0.80768230343E+01  0.47787272745E+02  0.20000007752E+02 0.  0.
         12    1    1    2    0    0 -0.50857281350E-01  0.42642531228E+02 -0.80768230343E+01  0.43400727255E+02  0.00000000000E+00 0. -1.
         11    1    3    3    0    0  0.38776904928E+01 -0.13156777027E+02 -0.97490685695E+00  0.13750916658E+02  0.51100000000E-03 0. -1.
        -11    1    3    3    0    0  0.50529500686E+01 -0.11884525279E+02  0.18407329245E+01  0.13044636578E+02  0.51100000000E-03 0.  1.
         12    1    3    3    0    0 -0.88797832800E+01 -0.17601228922E+02  0.72109969667E+01  0.20991719509E+02  0.00000000000E+00 0. -1.
</event>
<event>
 7    1  0.2387817E-009  0.4778727E+02  0.7816164E-02  0.1312668E+00
        -11   -1    0    0    0    0  0.00000000000E+00  0.00000000000E+00  0.45593999997E+02  0.45594000000E+02  0.51100000000E-03 0.  1.
         11   -1    0    0    0    0 -0.00000000000E+00 -0.00000000000E+00 -0.45593999997E+02  0.45594000000E+02  0.51100000000E-03 0. -1.
    9900012    2    1    2    0    0 -0.22424712512E+02  0.27545124272E+02  0.24940359913E+02  0.47787272414E+02  0.20000006243E+02 0.  0.
         12    1    1    2    0    0  0.22424712512E+02 -0.27545124272E+02 -0.24940359913E+02  0.43400727586E+02  0.00000000000E+00 0. -1.
         11    1    3    3    0    0  0.10760230729E+01  0.55490720319E+00 -0.10309337669E+01  0.15901485309E+01  0.51100000000E-03 0. -1.
        -11    1    3    3    0    0 -0.11284959406E+02  0.10587037707E+02  0.36018892305E+01  0.15887393823E+02  0.51100000000E-03 0.  1.
        -12    1    3    3    0    0 -0.12215776179E+02  0.16403179362E+02  0.22369404450E+02  0.30309730059E+02  0.00000000000E+00 0.  1.
</event>
<event>
 7    1  0.2387817E-009  0.4778727E+02  0.7816164E-02  0.1312668E+00
        -11   -1    0    0    0    0  0.00000000000E+00  0.00000000000E+00  0.45593999997E+02  0.45594000000E+02  0.51100000000E-03 0.  1.
         11   -1    0    0    0    0 -0.00000000000E+00 -0.00000000000E+00 -0.45593999997E+02  0.45594000000E+02  0.51100000000E-03 0. -1.
    9900012    2    1    2    0    0 -0.21351120642E+02 -0.14431044756E+02  0.34921309760E+02  0.47787270965E+02  0.19999999636E+02 0.  0.
         12    1    1    2    0    0  0.21351120642E+02  0.14431044756E+02 -0.34921309760E+02  0.43400729035E+02  0.00000000000E+00 0. -1.
         11    1    3    3    0    0 -0.23557473732E+01 -0.48205873001E+00  0.60595152773E+01  0.65191757119E+01  0.51100000000E-03 0. -1.
        -11    1    3    3    0    0 -0.21674185097E+02 -0.87335391052E+01  0.20692737899E+02  0.31212728284E+02  0.51100000000E-03 0.  1.
         12    1    3    3    0    0  0.26788118281E+01 -0.52154469212E+01  0.81690565842E+01  0.10055366969E+02  0.00000000000E+00 0. -1.
</event>
<event>
 7    1  0.2387817E-009  0.4778727E+02  0.7816164E-02  0.1312668E+00
        -11   -1    0    0    0    0  0.00000000000E+00  0.00000000000E+00  0.45593999997E+02  0.45594000000E+02  0.51100000000E-03 0.  1.
         11   -1    0    0    0    0 -0.00000000000E+00 -0.00000000000E+00 -0.45593999997E+02  0.45594000000E+02  0.51100000000E-03 0. -1.
    9900012    2    1    2    0    0  0.20425777310E+02 -0.38182339965E+02  0.29189444015E+01  0.47787266132E+02  0.19999977600E+02 0.  0.
         12    1    1    2    0    0 -0.20425777310E+02  0.38182339965E+02 -0.29189444015E+01  0.43400733868E+02  0.00000000000E+00 0. -1.
         11    1    3    3    0    0  0.88779708167E+01 -0.17079653448E+02 -0.62412490681E+01  0.20235763340E+02  0.51100000000E-03 0. -1.
        -11    1    3    3    0    0  0.40478127921E+01 -0.98809578095E+01 -0.90246981401E+00  0.10715995878E+02  0.51100000000E-03 0.  1.
        -12    1    3    3    0    0  0.74999937013E+01 -0.11221728707E+02  0.10062663284E+02  0.16835506914E+02  0.00000000000E+00 0.  1.
</event>
<event>
 7    1  0.2387817E-009  0.4778729E+02  0.7816164E-02  0.1312668E+00
        -11   -1    0    0    0    0  0.00000000000E+00  0.00000000000E+00  0.45593999997E+02  0.45594000000E+02  0.51100000000E-03 0.  1.
         11   -1    0    0    0    0 -0.00000000000E+00 -0.00000000000E+00 -0.45593999997E+02  0.45594000000E+02  0.51100000000E-03 0. -1.
    9900012    2    1    2    0    0 -0.35430730022E+00 -0.30259533259E+02  0.31110402537E+02  0.47787285343E+02  0.20000065193E+02 0.  0.
         12    1    1    2    0    0  0.35430730022E+00  0.30259533259E+02 -0.31110402537E+02  0.43400714657E+02  0.00000000000E+00 0. -1.
         11    1    3    3    0    0 -0.31577228802E+01 -0.16925546082E+02  0.15131832145E+02  0.22921990932E+02  0.51100000000E-03 0. -1.
        -11    1    3    3    0    0  0.23421990917E+01 -0.15555176272E+02  0.10438834149E+02  0.18879053581E+02  0.51100000000E-03 0.  1.
         12    1    3    3    0    0  0.46121648828E+00  0.22211890949E+01  0.55397362420E+01  0.59862408301E+01  0.00000000000E+00 0. -1.
</event>
<event>
 7    1  0.2387817E-009  0.4778726E+02  0.7816164E-02  0.1312668E+00
        -11   -1    0    0    0    0  0.00000000000E+00  0.00000000000E+00  0.45593999997E+02  0.45594000000E+02  0.51100000000E-03 0.  1.
         11   -1    0    0    0    0 -0.00000000000E+00 -0.00000000000E+00 -0.45593999997E+02  0.45594000000E+02  0.51100000000E-03 0. -1.
    9900012    2    1    2    0    0 -0.12571033033E+02  0.40987829509E+02  0.67521534773E+01  0.47787255583E+02  0.19999929506E+02 0.  0.
         12    1    1    2    0    0  0.12571033033E+02 -0.40987829509E+02 -0.67521534773E+01  0.43400744417E+02  0.00000000000E+00 0. -1.
         11    1    3    3    0    0  0.86390801528E+00  0.40998949531E+00  0.18473324331E+01  0.20801600478E+01  0.51100000000E-03 0. -1.
        -11    1    3    3    0    0 -0.40639836621E+01  0.22077144639E+02  0.96470047287E+01  0.24433194206E+02  0.51100000000E-03 0.  1.
         12    1    3    3    0    0 -0.93709573863E+01  0.18500695374E+02 -0.47421836845E+01  0.21273901329E+02  0.00000000000E+00 0. -1.
</event>
<event>
 7    1  0.2387817E-009  0.4778727E+02  0.7816164E-02  0.1312668E+00
        -11   -1    0    0    0    0  0.00000000000E+00  0.00000000000E+00  0.45593999997E+02  0.45594000000E+02  0.51100000000E-03 0.  1.
         11   -1    0    0    0    0 -0.00000000000E+00 -0.00000000000E+00 -0.45593999997E+02  0.45594000000E+02  0.51100000000E-03 0. -1.
    9900012    2    1    2    0    0 -0.28549113038E+02  0.31812693257E+02  0.75182482578E+01  0.47787270002E+02  0.19999995246E+02 0.  0.
         12    1    1    2    0    0  0.28549113038E+02 -0.31812693257E+02 -0.75182482578E+01  0.43400729998E+02  0.00000000000E+00 0. -1.
         11    1    3    3    0    0 -0.97063461729E+01  0.80826885937E+01  0.85839377264E+01  0.15271771282E+02  0.51100000000E-03 0. -1.
        -11    1    3    3    0    0 -0.42781571021E+01  0.10047991980E+02  0.44382563025E+01  0.11788252215E+02  0.51100000000E-03 0.  1.
         12    1    3    3    0    0 -0.14564609763E+02  0.13682012683E+02 -0.55039457712E+01  0.20727246504E+02  0.00000000000E+00 0. -1.
</event>
<event>
 7    1  0.2387817E-009  0.4778725E+02  0.7816164E-02  0.1312668E+00
        -11   -1    0    0    0    0  0.00000000000E+00  0.00000000000E+00  0.45593999997E+02  0.45594000000E+02  0.51100000000E-03 0.  1.
         11   -1    0    0    0    0 -0.00000000000E+00 -0.00000000000E+00 -0.45593999997E+02  0.45594000000E+02  0.51100000000E-03 0. -1.
    9900012    2    1    2    0    0 -0.17964789659E+02 -0.33838881040E+02  0.20391692657E+02  0.47787254995E+02  0.19999926826E+02 0.  0.
         12    1    1    2    0    0  0.17964789659E+02  0.33838881040E+02 -0.20391692657E+02  0.43400745005E+02  0.00000000000E+00 0. -1.
         11    1    3    3    0    0 -0.15680406634E+01 -0.18705130224E+02  0.87594973844E+01  0.20713991477E+02  0.51100000000E-03 0. -1.
        -11    1    3    3    0    0 -0.56575162666E+01 -0.75987742330E+01  0.10128353307E+02  0.13868395766E+02  0.51100000000E-03 0.  1.
         12    1    3    3    0    0 -0.10739232729E+02 -0.75349765833E+01  0.15038419660E+01  0.13204867753E+02  0.00000000000E+00 0. -1.
</event>
<event>
 7    1  0.2387817E-009  0.4778727E+02  0.7816164E-02  0.1312668E+00
        -11   -1    0    0    0    0  0.00000000000E+00  0.00000000000E+00  0.45593999997E+02  0.45594000000E+02  0.51100000000E-03 0.  1.
         11   -1    0    0    0    0 -0.00000000000E+00 -0.00000000000E+00 -0.45593999997E+02  0.45594000000E+02  0.51100000000E-03 0. -1.
    9900012    2    1    2    0    0  0.44767200138E+01 -0.23071381233E+02  0.36486893201E+02  0.47787273859E+02  0.20000012833E+02 0.  0.
         12    1    1    2    0    0 -0.44767200138E+01  0.23071381233E+02 -0.36486893201E+02  0.43400726141E+02  0.00000000000E+00 0. -1.
         11    1    3    3    0    0  0.39424494698E+00 -0.18431078056E+02  0.14673816365E+02  0.23562278208E+02  0.51100000000E-03 0. -1.
        -11    1    3    3    0    0  0.29116489990E+01 -0.71459921566E+01  0.14908501811E+02  0.16787088202E+02  0.51100000000E-03 0.  1.
         12    1    3    3    0    0  0.11708260678E+01  0.25056889792E+01  0.69045750251E+01  0.74379074489E+01  0.00000000000E+00 0. -1.
</event>
<event>
 7    1  0.2387817E-009  0.4778730E+02  0.7816164E-02  0.1312668E+00
        -11   -1    0    0    0    0  0.00000000000E+00  0.00000000000E+00  0.45593999997E+02  0.45594000000E+02  0.51100000000E-03 0. -1.
         11   -1    0    0    0    0 -0.00000000000E+00 -0.00000000000E+00 -0.45593999997E+02  0.45594000000E+02  0.51100000000E-03 0.  1.
    9900012    2    1    2    0    0 -0.11654665174E+02 -0.17893398040E+02 -0.37783801192E+02  0.47787302468E+02  0.20000143272E+02 0.  0.
         12    1    1    2    0    0  0.11654665174E+02  0.17893398040E+02  0.37783801192E+02  0.43400697532E+02  0.00000000000E+00 0. -1.
         11    1    3    3    0    0  0.29228680192E+01 -0.51020046581E+01 -0.19544796291E+02  0.20410111986E+02  0.51100000000E-03 0. -1.
        -11    1    3    3    0    0 -0.56129563526E+01 -0.14215278044E+01 -0.37785902614E+01  0.69140266805E+01  0.51100000000E-03 0.  1.
        -12    1    3    3    0    0 -0.89645768410E+01 -0.11369865578E+02 -0.14460414640E+02  0.20463163801E+02  0.00000000000E+00 0.  1.
</event>
<event>
 7    1  0.2387817E-009  0.4778723E+02  0.7816164E-02  0.1312668E+00
        -11   -1    0    0    0    0  0.00000000000E+00  0.00000000000E+00  0.45593999997E+02  0.45594000000E+02  0.51100000000E-03 0. -1.
         11   -1    0    0    0    0 -0.00000000000E+00 -0.00000000000E+00 -0.45593999997E+02  0.45594000000E+02  0.51100000000E-03 0.  1.
    9900012    2    1    2    0    0 -0.25810203999E+02 -0.27227290520E+02 -0.21820511082E+02  0.47787231765E+02  0.19999820907E+02 0.  0.
         12    1    1    2    0    0  0.25810203999E+02  0.27227290520E+02  0.21820511082E+02  0.43400768235E+02  0.00000000000E+00 0. -1.
         11    1    3    3    0    0 -0.11206485251E+02 -0.14738491214E+02  0.35035459357E-01  0.18515119840E+02  0.51100000000E-03 0. -1.
        -11    1    3    3    0    0 -0.15457168045E+01 -0.27939176194E+00 -0.21962828631E+01  0.27001775631E+01  0.51100000000E-03 0.  1.
        -12    1    3    3    0    0 -0.13058001944E+02 -0.12209407545E+02 -0.19659263678E+02  0.26571934362E+02  0.00000000000E+00 0.  1.
</event>
<event>
 7    1  0.2387817E-009  0.4778726E+02  0.7816164E-02  0.1312668E+00
        -11   -1    0    0    0    0  0.00000000000E+00  0.00000000000E+00  0.45593999997E+02  0.45594000000E+02  0.51100000000E-03 0.  1.
         11   -1    0    0    0    0 -0.00000000000E+00 -0.00000000000E+00 -0.45593999997E+02  0.45594000000E+02  0.51100000000E-03 0. -1.
    9900012    2    1    2    0    0  0.14059398101E+02 -0.29972762816E+02  0.28064045253E+02  0.47787264733E+02  0.19999971223E+02 0.  0.
         12    1    1    2    0    0 -0.14059398101E+02  0.29972762816E+02 -0.28064045253E+02  0.43400735267E+02  0.00000000000E+00 0. -1.
         11    1    3    3    0    0  0.79504609792E+01 -0.71459098724E+01  0.16549249278E+01  0.10817237839E+02  0.51100000000E-03 0. -1.
        -11    1    3    3    0    0  0.31357343733E+00 -0.10046356821E+02  0.46418025814E+01  0.11071311808E+02  0.51100000000E-03 0.  1.
         12    1    3    3    0    0  0.57953636846E+01 -0.12780496123E+02  0.21767317743E+02  0.25898715086E+02  0.00000000000E+00 0. -1.
</event>
<event>
 7    1  0.2387817E-009  0.4778729E+02  0.7816164E-02  0.1312668E+00
        -11   -1    0    0    0    0  0.00000000000E+00  0.00000000000E+00  0.45593999997E+02  0.45594000000E+02  0.51100000000E-03 0.  1.
         11   -1    0    0    0    0 -0.00000000000E+00 -0.00000000000E+00 -0.45593999997E+02  0.45594000000E+02  0.51100000000E-03 0. -1.
    9900012    2    1    2    0    0 -0.36217849262E+01  0.75511053624E+01  0.42585035985E+02  0.47787287931E+02  0.20000076992E+02 0.  0.
         12    1    1    2    0    0  0.36217849262E+01 -0.75511053624E+01 -0.42585035985E+02  0.43400712069E+02  0.00000000000E+00 0. -1.
         11    1    3    3    0    0  0.58769633252E+01  0.39906387753E+01  0.86296661219E+01  0.11177434115E+02  0.51100000000E-03 0.  1.
        -11    1    3    3    0    0 -0.11333274568E+01  0.21824487341E+01  0.11283291378E+01  0.27056682179E+01  0.51100000000E-03 0. -1.
        -12    1    3    3    0    0 -0.83654207945E+01  0.13780178530E+01  0.32827040725E+02  0.33904185598E+02  0.00000000000E+00 0.  1.
</event>
<event>
 7    1  0.2387817E-009  0.4778727E+02  0.7816164E-02  0.1312668E+00
        -11   -1    0    0    0    0  0.00000000000E+00  0.00000000000E+00  0.45593999997E+02  0.45594000000E+02  0.51100000000E-03 0. -1.
         11   -1    0    0    0    0 -0.00000000000E+00 -0.00000000000E+00 -0.45593999997E+02  0.45594000000E+02  0.51100000000E-03 0.  1.
    9900012    2    1    2    0    0 -0.53540752227E+01  0.40611189177E+02  0.14341843527E+02  0.47787270932E+02  0.19999999487E+02 0.  0.
         12    1    1    2    0    0  0.53540752227E+01 -0.40611189177E+02 -0.14341843527E+02  0.43400729068E+02  0.00000000000E+00 0. -1.
         11    1    3    3    0    0 -0.37533549378E+01  0.24562913978E+01  0.25482219205E+01  0.51589219743E+01  0.51100000000E-03 0. -1.
        -11    1    3    3    0    0  0.22386346708E+01  0.28951761525E-01 -0.66433583602E+00  0.23353084931E+01  0.51100000000E-03 0.  1.
        -12    1    3    3    0    0 -0.38393549557E+01  0.38125946018E+02  0.12457957442E+02  0.40293040465E+02  0.00000000000E+00 0.  1.
</event>
<event>
 7    1  0.2595268E-009  0.4778728E+02  0.7816164E-02  0.1312668E+00
        -11   -1    0    0    0    0  0.00000000000E+00  0.00000000000E+00  0.45593999997E+02  0.45594000000E+02  0.51100000000E-03 0.  1.
         11   -1    0    0    0    0 -0.00000000000E+00 -0.00000000000E+00 -0.45593999997E+02  0.45594000000E+02  0.51100000000E-03 0. -1.
    9900012    2    1    2    0    0  0.25032890257E+02 -0.30246101453E+02  0.18497315335E+02  0.47787275095E+02  0.20000018467E+02 0.  0.
         12    1    1    2    0    0 -0.25032890257E+02  0.30246101453E+02 -0.18497315335E+02  0.43400724905E+02  0.00000000000E+00 0. -1.
         11    1    3    3    0    0  0.14540184097E+02 -0.77941205326E+01  0.12142408765E+02  0.20484222204E+02  0.51100000000E-03 0. -1.
        -11    1    3    3    0    0  0.10923461885E+02 -0.15589831156E+02  0.72492012832E+01  0.20369481450E+02  0.51100000000E-03 0.  1.
         12    1    3    3    0    0 -0.43075572519E+00 -0.68621497646E+01 -0.89429471351E+00  0.69335714405E+01  0.00000000000E+00 0. -1.
</event>
<event>
 7    1  0.2387817E-009  0.4778727E+02  0.7816164E-02  0.1312668E+00
        -11   -1    0    0    0    0  0.00000000000E+00  0.00000000000E+00  0.45593999997E+02  0.45594000000E+02  0.51100000000E-03 0.  1.
         11   -1    0    0    0    0 -0.00000000000E+00 -0.00000000000E+00 -0.45593999997E+02  0.45594000000E+02  0.51100000000E-03 0. -1.
    9900012    2    1    2    0    0 -0.13375745762E+01  0.13550691300E+02  0.41209376514E+02  0.47787273588E+02  0.20000011596E+02 0.  0.
         12    1    1    2    0    0  0.13375745762E+01 -0.13550691300E+02 -0.41209376514E+02  0.43400726412E+02  0.00000000000E+00 0. -1.
         11    1    3    3    0    0 -0.13117882191E+01  0.90109989452E+01  0.88354913985E+01  0.12687978517E+02  0.51100000000E-03 0. -1.
        -11    1    3    3    0    0  0.46347507140E+01  0.33061060147E+00  0.42976044859E+01  0.63292671084E+01  0.51100000000E-03 0.  1.
        -12    1    3    3    0    0 -0.46605370711E+01  0.42090817534E+01  0.28076280629E+02  0.28770027963E+02  0.00000000000E+00 0.  1.
</event>
<event>
 7    1  0.2387817E-009  0.4778727E+02  0.7816164E-02  0.1312668E+00
        -11   -1    0    0    0    0  0.00000000000E+00  0.00000000000E+00  0.45593999997E+02  0.45594000000E+02  0.51100000000E-03 0.  1.
         11   -1    0    0    0    0 -0.00000000000E+00 -0.00000000000E+00 -0.45593999997E+02  0.45594000000E+02  0.51100000000E-03 0. -1.
    9900012    2    1    2    0    0 -0.22086430543E+01 -0.42650285877E+02  0.77264598455E+01  0.47787272226E+02  0.20000005388E+02 0.  0.
         12    1    1    2    0    0  0.22086430543E+01  0.42650285877E+02 -0.77264598455E+01  0.43400727774E+02  0.00000000000E+00 0. -1.
         11    1    3    3    0    0 -0.41015893681E+00 -0.33380596670E+00 -0.11735960291E+00  0.54169208446E+00  0.51100000000E-03 0. -1.
        -11    1    3    3    0    0 -0.64500968776E+01 -0.50082423831E+01  0.49227300287E+01  0.95351723999E+01  0.51100000000E-03 0.  1.
        -12    1    3    3    0    0  0.46516127601E+01 -0.37308237527E+02  0.29210894197E+01  0.37710407742E+02  0.00000000000E+00 0.  1.
</event>
<event>
 7    1  0.2387817E-009  0.4778727E+02  0.7816164E-02  0.1312668E+00
        -11   -1    0    0    0    0  0.00000000000E+00  0.00000000000E+00  0.45593999997E+02  0.45594000000E+02  0.51100000000E-03 0.  1.
         11   -1    0    0    0    0 -0.00000000000E+00 -0.00000000000E+00 -0.45593999997E+02  0.45594000000E+02  0.51100000000E-03 0. -1.
    9900012    2    1    2    0    0  0.32773531800E+02 -0.18653141341E+02  0.21484400801E+02  0.47787267905E+02  0.19999985687E+02 0.  0.
         12    1    1    2    0    0 -0.32773531800E+02  0.18653141341E+02 -0.21484400801E+02  0.43400732095E+02  0.00000000000E+00 0. -1.
         11    1    3    3    0    0 -0.19338425772E+00 -0.32202785744E+01  0.61629278815E+01  0.69562397817E+01  0.51100000000E-03 0. -1.
        -11    1    3    3    0    0  0.16658868960E+02 -0.98551214081E+01  0.13283638235E+02  0.23475442020E+02  0.51100000000E-03 0.  1.
        -12    1    3    3    0    0  0.16308047098E+02 -0.55777413584E+01  0.20378346853E+01  0.17355586104E+02  0.00000000000E+00 0.  1.
</event>
<event>
 7    1  0.2387817E-009  0.4778727E+02  0.7816164E-02  0.1312668E+00
        -11   -1    0    0    0    0  0.00000000000E+00  0.00000000000E+00  0.45593999997E+02  0.45594000000E+02  0.51100000000E-03 0. -1.
         11   -1    0    0    0    0 -0.00000000000E+00 -0.00000000000E+00 -0.45593999997E+02  0.45594000000E+02  0.51100000000E-03 0.  1.
    9900012    2    1    2    0    0 -0.15152708216E+02 -0.34782939955E+02 -0.21075245970E+02  0.47787268775E+02  0.19999989653E+02 0.  0.
         12    1    1    2    0    0  0.15152708216E+02  0.34782939955E+02  0.21075245970E+02  0.43400731225E+02  0.00000000000E+00 0. -1.
         11    1    3    3    0    0 -0.42689797457E+01 -0.22738794094E+01  0.82797644710E+00  0.49071642418E+01  0.51100000000E-03 0. -1.
        -11    1    3    3    0    0 -0.81982486495E+00 -0.73633079263E+00 -0.57294634612E+01  0.58344706409E+01  0.51100000000E-03 0.  1.
         12    1    3    3    0    0 -0.10063903605E+02 -0.31772729753E+02 -0.16173758956E+02  0.37045633892E+02  0.00000000000E+00 0. -1.
</event>
<event>
 7    1  0.2387817E-009  0.4778727E+02  0.7816164E-02  0.1312668E+00
        -11   -1    0    0    0    0  0.00000000000E+00  0.00000000000E+00  0.45593999997E+02  0.45594000000E+02  0.51100000000E-03 0.  1.
         11   -1    0    0    0    0 -0.00000000000E+00 -0.00000000000E+00 -0.45593999997E+02  0.45594000000E+02  0.51100000000E-03 0. -1.
    9900012    2    1    2    0    0  0.15403732121E+02  0.22270923922E+02  0.33916874150E+02  0.47787269964E+02  0.19999995072E+02 0.  0.
         12    1    1    2    0    0 -0.15403732121E+02 -0.22270923922E+02 -0.33916874150E+02  0.43400730036E+02  0.00000000000E+00 0. -1.
         11    1    3    3    0    0 -0.14820516558E+01  0.10628824984E+00  0.43844527467E+01  0.46293844571E+01  0.51100000000E-03 0. -1.
        -11    1    3    3    0    0  0.65678693303E+01  0.12623261618E+02  0.24304378775E+02  0.28163566346E+02  0.51100000000E-03 0.  1.
        -12    1    3    3    0    0  0.10317914447E+02  0.95413740538E+01  0.52280426282E+01  0.14994319160E+02  0.00000000000E+00 0.  1.
</event>
<event>
 7    1  0.2387817E-009  0.4778727E+02  0.7816164E-02  0.1312668E+00
        -11   -1    0    0    0    0  0.00000000000E+00  0.00000000000E+00  0.45593999997E+02  0.45594000000E+02  0.51100000000E-03 0. -1.
         11   -1    0    0    0    0 -0.00000000000E+00 -0.00000000000E+00 -0.45593999997E+02  0.45594000000E+02  0.51100000000E-03 0.  1.
    9900012    2    1    2    0    0  0.31796466066E+02  0.22994190309E+02 -0.18543878140E+02  0.47787268914E+02  0.19999990288E+02 0.  0.
         12    1    1    2    0    0 -0.31796466066E+02 -0.22994190309E+02  0.18543878140E+02  0.43400731086E+02  0.00000000000E+00 0. -1.
         11    1    3    3    0    0  0.18784967066E+02  0.91086941907E+01 -0.73422818626E+00  0.20889767562E+02  0.51100000000E-03 0. -1.
        -11    1    3    3    0    0  0.10482384909E+01  0.43167696465E+01 -0.19626835879E+01  0.48564834234E+01  0.51100000000E-03 0.  1.
        -12    1    3    3    0    0  0.11963260510E+02  0.95687264723E+01 -0.15846966366E+02  0.22041017929E+02  0.00000000000E+00 0.  1.
</event>
<event>
 7    1  0.2387817E-009  0.4778727E+02  0.7816164E-02  0.1312668E+00
        -11   -1    0    0    0    0  0.00000000000E+00  0.00000000000E+00  0.45593999997E+02  0.45594000000E+02  0.51100000000E-03 0. -1.
         11   -1    0    0    0    0 -0.00000000000E+00 -0.00000000000E+00 -0.45593999997E+02  0.45594000000E+02  0.51100000000E-03 0.  1.
    9900012    2    1    2    0    0  0.10567820365E+02  0.31343529531E+02 -0.28098529118E+02  0.47787274092E+02  0.20000013896E+02 0.  0.
         12    1    1    2    0    0 -0.10567820365E+02 -0.31343529531E+02  0.28098529118E+02  0.43400725908E+02  0.00000000000E+00 0. -1.
         11    1    3    3    0    0 -0.17844541527E+01  0.23920376098E+01 -0.14583577172E+01  0.33215851700E+01  0.51100000000E-03 0. -1.
        -11    1    3    3    0    0  0.11033869321E+02  0.24598954024E+02 -0.12698719604E+02  0.29801212913E+02  0.51100000000E-03 0.  1.
         12    1    3    3    0    0  0.13184051962E+01  0.43525378978E+01 -0.13941451797E+02  0.14664476009E+02  0.00000000000E+00 0. -1.
</event>
<event>
 7    1  0.2387817E-009  0.4778728E+02  0.7816164E-02  0.1312668E+00
        -11   -1    0    0    0    0  0.00000000000E+00  0.00000000000E+00  0.45593999997E+02  0.45594000000E+02  0.51100000000E-03 0.  1.
         11   -1    0    0    0    0 -0.00000000000E+00 -0.00000000000E+00 -0.45593999997E+02  0.45594000000E+02  0.51100000000E-03 0. -1.
    9900012    2    1    2    0    0  0.93090542277E+01  0.39573142369E+01  0.42205498018E+02  0.47787275472E+02  0.20000020186E+02 0.  0.
         12    1    1    2    0    0 -0.93090542277E+01 -0.39573142369E+01 -0.42205498018E+02  0.43400724528E+02  0.00000000000E+00 0. -1.
         11    1    3    3    0    0 -0.53297986163E+01  0.42046674030E+01  0.11045552150E+02  0.12964960617E+02  0.51100000000E-03 0. -1.
        -11    1    3    3    0    0  0.29593544102E+01  0.20849570646E+01  0.79259677131E+01  0.87135405511E+01  0.51100000000E-03 0.  1.
         12    1    3    3    0    0  0.11679498434E+02 -0.23323102307E+01  0.23233978156E+02  0.26108774303E+02  0.00000000000E+00 0. -1.
</event>
<event>
 7    1  0.2387817E-009  0.4778727E+02  0.7816164E-02  0.1312668E+00
        -11   -1    0    0    0    0  0.00000000000E+00  0.00000000000E+00  0.45593999997E+02  0.45594000000E+02  0.51100000000E-03 0.  1.
         11   -1    0    0    0    0 -0.00000000000E+00 -0.00000000000E+00 -0.45593999997E+02  0.45594000000E+02  0.51100000000E-03 0. -1.
    9900012    2    1    2    0    0 -0.29624212330E+02 -0.19278953644E+02  0.25186325278E+02  0.47787274306E+02  0.20000014870E+02 0.  0.
         12    1    1    2    0    0  0.29624212330E+02  0.19278953644E+02 -0.25186325278E+02  0.43400725694E+02  0.00000000000E+00 0. -1.
         11    1    3    3    0    0 -0.17627262928E+02 -0.41669355266E+01  0.47239942144E+01  0.18718970902E+02  0.51100000000E-03 0. -1.
        -11    1    3    3    0    0  0.42124287245E+00 -0.81904348940E-01  0.25714817852E+01  0.26070429058E+01  0.51100000000E-03 0.  1.
         12    1    3    3    0    0 -0.12418192274E+02 -0.15030113769E+02  0.17890849278E+02  0.26461260498E+02  0.00000000000E+00 0. -1.
</event>
<event>
 7    1  0.2387817E-009  0.4778726E+02  0.7816164E-02  0.1312668E+00
        -11   -1    0    0    0    0  0.00000000000E+00  0.00000000000E+00  0.45593999997E+02  0.45594000000E+02  0.51100000000E-03 0.  1.
         11   -1    0    0    0    0 -0.00000000000E+00 -0.00000000000E+00 -0.45593999997E+02  0.45594000000E+02  0.51100000000E-03 0. -1.
    9900012    2    1    2    0    0  0.42537207205E+02  0.98093128323E+00  0.85585059258E+01  0.47787259837E+02  0.19999948903E+02 0.  0.
         12    1    1    2    0    0 -0.42537207205E+02 -0.98093128323E+00 -0.85585059258E+01  0.43400740163E+02  0.00000000000E+00 0. -1.
         11    1    3    3    0    0  0.13998563540E+01 -0.16688247730E+01  0.43565639141E+01  0.48707518242E+01  0.51100000000E-03 0.  1.
        -11    1    3    3    0    0  0.28953059402E+01  0.19656481464E+01 -0.22038406498E+01  0.41356357423E+01  0.51100000000E-03 0. -1.
        -12    1    3    3    0    0  0.38242044911E+02  0.68410790982E+00  0.64057826615E+01  0.38780872271E+02  0.00000000000E+00 0.  1.
</event>
<event>
 7    1  0.2387817E-009  0.4778727E+02  0.7816164E-02  0.1312668E+00
        -11   -1    0    0    0    0  0.00000000000E+00  0.00000000000E+00  0.45593999997E+02  0.45594000000E+02  0.51100000000E-03 0. -1.
         11   -1    0    0    0    0 -0.00000000000E+00 -0.00000000000E+00 -0.45593999997E+02  0.45594000000E+02  0.51100000000E-03 0.  1.
    9900012    2    1    2    0    0  0.20317567927E+02  0.29188945803E+02 -0.24876195946E+02  0.47787271339E+02  0.20000001342E+02 0.  0.
         12    1    1    2    0    0 -0.20317567927E+02 -0.29188945803E+02  0.24876195946E+02  0.43400728661E+02  0.00000000000E+00 0. -1.
         11    1    3    3    0    0  0.49904463587E+01  0.20792080556E+02 -0.12184107447E+02  0.24610315789E+02  0.51100000000E-03 0. -1.
        -11    1    3    3    0    0  0.86588143558E+01  0.92481631271E+01 -0.81588569478E+01  0.15068859752E+02  0.51100000000E-03 0.  1.
        -12    1    3    3    0    0  0.66683072124E+01 -0.85129787996E+00 -0.45332315512E+01  0.81080957972E+01  0.00000000000E+00 0.  1.
</event>
<event>
 7    1  0.2387817E-009  0.4778727E+02  0.7816164E-02  0.1312668E+00
        -11   -1    0    0    0    0  0.00000000000E+00  0.00000000000E+00  0.45593999997E+02  0.45594000000E+02  0.51100000000E-03 0. -1.
         11   -1    0    0    0    0 -0.00000000000E+00 -0.00000000000E+00 -0.45593999997E+02  0.45594000000E+02  0.51100000000E-03 0.  1.
    9900012    2    1    2    0    0  0.29907510243E+02 -0.26938530518E+02  0.16232056959E+02  0.47787271106E+02  0.20000000283E+02 0.  0.
         12    1    1    2    0    0 -0.29907510243E+02  0.26938530518E+02 -0.16232056959E+02  0.43400728894E+02  0.00000000000E+00 0. -1.
         11    1    3    3    0    0  0.33477798876E+01 -0.62197433279E+01  0.41535057666E+01  0.81941715661E+01  0.51100000000E-03 0. -1.
        -11    1    3    3    0    0  0.26753251106E+02 -0.20072180390E+02  0.66222430388E+01  0.34095204552E+02  0.51100000000E-03 0.  1.
         12    1    3    3    0    0 -0.19352075075E+00 -0.64660680050E+00  0.54563081537E+01  0.54978949884E+01  0.00000000000E+00 0. -1.
</event>
<event>
 7    1  0.2387817E-009  0.4778727E+02  0.7816164E-02  0.1312668E+00
        -11   -1    0    0    0    0  0.00000000000E+00  0.00000000000E+00  0.45593999997E+02  0.45594000000E+02  0.51100000000E-03 0.  1.
         11   -1    0    0    0    0 -0.00000000000E+00 -0.00000000000E+00 -0.45593999997E+02  0.45594000000E+02  0.51100000000E-03 0. -1.
    9900012    2    1    2    0    0  0.14606329084E+02 -0.25529471928E+02  0.31914335514E+02  0.47787267316E+02  0.19999983000E+02 0.  0.
         12    1    1    2    0    0 -0.14606329084E+02  0.25529471928E+02 -0.31914335514E+02  0.43400732684E+02  0.00000000000E+00 0. -1.
         11    1    3    3    0    0  0.93456729595E+00 -0.47609027255E+01  0.87470330574E+00  0.49299814326E+01  0.51100000000E-03 0. -1.
        -11    1    3    3    0    0  0.64874992530E+01 -0.19936922688E+02  0.16725986884E+02  0.26820275359E+02  0.51100000000E-03 0.  1.
        -12    1    3    3    0    0  0.71842625353E+01 -0.83164651457E+00  0.14313645324E+02  0.16037010525E+02  0.00000000000E+00 0.  1.
</event>
<event>
 7    1  0.2387817E-009  0.4778726E+02  0.7816164E-02  0.1312668E+00
        -11   -1    0    0    0    0  0.00000000000E+00  0.00000000000E+00  0.45593999997E+02  0.45594000000E+02  0.51100000000E-03 0. -1.
         11   -1    0    0    0    0 -0.00000000000E+00 -0.00000000000E+00 -0.45593999997E+02  0.45594000000E+02  0.51100000000E-03 0.  1.
    9900012    2    1    2    0    0  0.94222039502E+01  0.28343593870E+02 -0.31487884916E+02  0.47787261098E+02  0.19999954650E+02 0.  0.
         12    1    1    2    0    0 -0.94222039502E+01 -0.28343593870E+02  0.31487884916E+02  0.43400738902E+02  0.00000000000E+00 0. -1.
         11    1    3    3    0    0  0.34854573462E+01  0.24945669484E+02 -0.30464742516E+02  0.39528918221E+02  0.51100000000E-03 0.  1.
        -11    1    3    3    0    0  0.18944621836E+01  0.46263793466E+00 -0.23846706620E+01  0.30805316507E+01  0.51100000000E-03 0. -1.
        -12    1    3    3    0    0  0.40422844204E+01  0.29352864514E+01  0.13615282614E+01  0.51778112261E+01  0.00000000000E+00 0.  1.
</event>
<event>
 7    1  0.2387817E-009  0.4778727E+02  0.7816164E-02  0.1312668E+00
        -11   -1    0    0    0    0  0.00000000000E+00  0.00000000000E+00  0.45593999997E+02  0.45594000000E+02  0.51100000000E-03 0.  1.
         11   -1    0    0    0    0 -0.00000000000E+00 -0.00000000000E+00 -0.45593999997E+02  0.45594000000E+02  0.51100000000E-03 0. -1.
    9900012    2    1    2    0    0 -0.39960611907E+02  0.15875708640E+02  0.58936282218E+01  0.47787268642E+02  0.19999989045E+02 0.  0.
         12    1    1    2    0    0  0.39960611907E+02 -0.15875708640E+02 -0.58936282218E+01  0.43400731358E+02  0.00000000000E+00 0. -1.
         11    1    3    3    0    0 -0.25844702558E+02  0.13606981883E+02 -0.26040589669E+00  0.29209012612E+02  0.51100000000E-03 0. -1.
        -11    1    3    3    0    0 -0.15615707393E+02  0.28385549700E+01  0.59946760222E+01  0.16965961587E+02  0.51100000000E-03 0.  1.
        -12    1    3    3    0    0  0.14997980444E+01 -0.56982821277E+00  0.15935809621E+00  0.16122944424E+01  0.00000000000E+00 0.  1.
</event>
<event>
 7    1  0.2387817E-009  0.4778727E+02  0.7816164E-02  0.1312668E+00
        -11   -1    0    0    0    0  0.00000000000E+00  0.00000000000E+00  0.45593999997E+02  0.45594000000E+02  0.51100000000E-03 0.  1.
         11   -1    0    0    0    0 -0.00000000000E+00 -0.00000000000E+00 -0.45593999997E+02  0.45594000000E+02  0.51100000000E-03 0. -1.
    9900012    2    1    2    0    0 -0.79450705473E+01 -0.25583779608E+02  0.34146295153E+02  0.47787269618E+02  0.19999993498E+02 0.  0.
         12    1    1    2    0    0  0.79450705473E+01  0.25583779608E+02 -0.34146295153E+02  0.43400730382E+02  0.00000000000E+00 0. -1.
         11    1    3    3    0    0 -0.46096781395E+01 -0.24971306090E+01  0.59100850007E+01  0.79002467559E+01  0.51100000000E-03 0. -1.
        -11    1    3    3    0    0 -0.83213931901E+01 -0.58928854828E+01  0.11653969381E+02  0.15485047192E+02  0.51100000000E-03 0.  1.
         12    1    3    3    0    0  0.49860007823E+01 -0.17193763516E+02  0.16582240771E+02  0.24401975671E+02  0.00000000000E+00 0. -1.
</event>
<event>
 7    1  0.2387817E-009  0.4778728E+02  0.7816164E-02  0.1312668E+00
        -11   -1    0    0    0    0  0.00000000000E+00  0.00000000000E+00  0.45593999997E+02  0.45594000000E+02  0.51100000000E-03 0.  1.
         11   -1    0    0    0    0 -0.00000000000E+00 -0.00000000000E+00 -0.45593999997E+02  0.45594000000E+02  0.51100000000E-03 0. -1.
    9900012    2    1    2    0    0  0.13997352881E+02 -0.37566268569E+02  0.16627454075E+02  0.47787278221E+02  0.20000032722E+02 0.  0.
         12    1    1    2    0    0 -0.13997352881E+02  0.37566268569E+02 -0.16627454075E+02  0.43400721779E+02  0.00000000000E+00 0. -1.
         11    1    3    3    0    0  0.29214218590E+01 -0.61099321420E+01 -0.31176711463E+01  0.74555918675E+01  0.51100000000E-03 0. -1.
        -11    1    3    3    0    0 -0.22502044374E+00  0.22213089212E+00  0.25271034632E+01  0.25468075130E+01  0.51100000000E-03 0.  1.
        -12    1    3    3    0    0  0.11300951466E+02 -0.31678467320E+02  0.17218021758E+02  0.37784878841E+02  0.00000000000E+00 0.  1.
</event>
<event>
 7    1  0.2387817E-009  0.4778727E+02  0.7816164E-02  0.1312668E+00
        -11   -1    0    0    0    0  0.00000000000E+00  0.00000000000E+00  0.45593999997E+02  0.45594000000E+02  0.51100000000E-03 0.  1.
         11   -1    0    0    0    0 -0.00000000000E+00 -0.00000000000E+00 -0.45593999997E+02  0.45594000000E+02  0.51100000000E-03 0. -1.
    9900012    2    1    2    0    0 -0.42960841038E+02  0.61612451017E+01 -0.16833248364E+00  0.47787272590E+02  0.20000007047E+02 0.  0.
         12    1    1    2    0    0  0.42960841038E+02 -0.61612451017E+01  0.16833248364E+00  0.43400727410E+02  0.00000000000E+00 0. -1.
         11    1    3    3    0    0 -0.99265272124E+01  0.29737395631E+01 -0.60959740130E+01  0.12022477653E+02  0.51100000000E-03 0. -1.
        -11    1    3    3    0    0 -0.15043717393E+02  0.34237514874E+01 -0.29400775711E+01  0.15706035898E+02  0.51100000000E-03 0.  1.
        -12    1    3    3    0    0 -0.17990596433E+02 -0.23624594875E+00  0.88677191005E+01  0.20058759039E+02  0.00000000000E+00 0.  1.
</event>
<event>
 7    1  0.2387817E-009  0.4778727E+02  0.7816164E-02  0.1312668E+00
        -11   -1    0    0    0    0  0.00000000000E+00  0.00000000000E+00  0.45593999997E+02  0.45594000000E+02  0.51100000000E-03 0. -1.
         11   -1    0    0    0    0 -0.00000000000E+00 -0.00000000000E+00 -0.45593999997E+02  0.45594000000E+02  0.51100000000E-03 0.  1.
    9900012    2    1    2    0    0 -0.68638664926E+01  0.38568929361E+02 -0.18680154330E+02  0.47787272574E+02  0.20000006975E+02 0.  0.
         12    1    1    2    0    0  0.68638664926E+01 -0.38568929361E+02  0.18680154330E+02  0.43400727426E+02  0.00000000000E+00 0. -1.
         11    1    3    3    0    0 -0.41322717775E+01  0.26258708341E+00 -0.11189814082E+01  0.42891423004E+01  0.51100000000E-03 0. -1.
        -11    1    3    3    0    0 -0.29484643439E+01  0.91616237934E+01 -0.88597034960E+01  0.13081404314E+02  0.51100000000E-03 0.  1.
        -12    1    3    3    0    0  0.21686962880E+00  0.29144718484E+02 -0.87014694254E+01  0.30416725960E+02  0.00000000000E+00 0.  1.
</event>
<event>
 7    1  0.2387817E-009  0.4778728E+02  0.7816164E-02  0.1312668E+00
        -11   -1    0    0    0    0  0.00000000000E+00  0.00000000000E+00  0.45593999997E+02  0.45594000000E+02  0.51100000000E-03 0.  1.
         11   -1    0    0    0    0 -0.00000000000E+00 -0.00000000000E+00 -0.45593999997E+02  0.45594000000E+02  0.51100000000E-03 0. -1.
    9900012    2    1    2    0    0 -0.33372118530E+02 -0.66688270795E+01  0.26934200140E+02  0.47787277806E+02  0.20000030827E+02 0.  0.
         12    1    1    2    0    0  0.33372118530E+02  0.66688270795E+01 -0.26934200140E+02  0.43400722194E+02  0.00000000000E+00 0. -1.
         11    1    3    3    0    0 -0.20361816835E+01 -0.58811760655E+01  0.10420952084E+02  0.12137978018E+02  0.51100000000E-03 0. -1.
        -11    1    3    3    0    0 -0.68157592575E+01 -0.18108948724E+01  0.37532380061E+01  0.79887865341E+01  0.51100000000E-03 0.  1.
         12    1    3    3    0    0 -0.24520177589E+02  0.10232438585E+01  0.12760010050E+02  0.27660513254E+02  0.00000000000E+00 0. -1.
</event>
<event>
 7    1  0.2387817E-009  0.4778729E+02  0.7816164E-02  0.1312668E+00
        -11   -1    0    0    0    0  0.00000000000E+00  0.00000000000E+00  0.45593999997E+02  0.45594000000E+02  0.51100000000E-03 0.  1.
         11   -1    0    0    0    0 -0.00000000000E+00 -0.00000000000E+00 -0.45593999997E+02  0.45594000000E+02  0.51100000000E-03 0. -1.
    9900012    2    1    2    0    0  0.40304805076E+02 -0.72799902009E+01  0.14357782780E+02  0.47787291528E+02  0.20000093392E+02 0.  0.
         12    1    1    2    0    0 -0.40304805076E+02  0.72799902009E+01 -0.14357782780E+02  0.43400708472E+02  0.00000000000E+00 0. -1.
         11    1    3    3    0    0  0.17559938387E+02 -0.88151626191E+01  0.10159979857E+02  0.22119758568E+02  0.51100000000E-03 0. -1.
        -11    1    3    3    0    0  0.13319322636E+02 -0.38432594910E+01  0.51160555230E+01  0.14776637756E+02  0.51100000000E-03 0.  1.
         12    1    3    3    0    0  0.94255440529E+01  0.53784319092E+01 -0.91825260049E+00  0.10890895203E+02  0.00000000000E+00 0. -1.
</event>
<event>
 7    1  0.2387817E-009  0.4778727E+02  0.7816164E-02  0.1312668E+00
        -11   -1    0    0    0    0  0.00000000000E+00  0.00000000000E+00  0.45593999997E+02  0.45594000000E+02  0.51100000000E-03 0.  1.
         11   -1    0    0    0    0 -0.00000000000E+00 -0.00000000000E+00 -0.45593999997E+02  0.45594000000E+02  0.51100000000E-03 0. -1.
    9900012    2    1    2    0    0 -0.25919853922E+02  0.20706928323E+02  0.27982276132E+02  0.47787268607E+02  0.19999988888E+02 0.  0.
         12    1    1    2    0    0  0.25919853922E+02 -0.20706928323E+02 -0.27982276132E+02  0.43400731393E+02  0.00000000000E+00 0. -1.
         11    1    3    3    0    0 -0.45809778535E+01  0.36322851335E+01  0.11182432169E+02  0.12618464362E+02  0.51100000000E-03 0.  1.
        -11    1    3    3    0    0 -0.18201928795E+02  0.13460911589E+02  0.19318696853E+02  0.29761021505E+02  0.51100000000E-03 0. -1.
         12    1    3    3    0    0 -0.31369472736E+01  0.36137316007E+01 -0.25188528904E+01  0.54077827400E+01  0.00000000000E+00 0. -1.
</event>
<event>
 7    1  0.2387817E-009  0.4778727E+02  0.7816164E-02  0.1312668E+00
        -11   -1    0    0    0    0  0.00000000000E+00  0.00000000000E+00  0.45593999997E+02  0.45594000000E+02  0.51100000000E-03 0.  1.
         11   -1    0    0    0    0 -0.00000000000E+00 -0.00000000000E+00 -0.45593999997E+02  0.45594000000E+02  0.51100000000E-03 0. -1.
    9900012    2    1    2    0    0  0.35626548226E+02 -0.14755694678E+02  0.19915872959E+02  0.47787268904E+02  0.19999990242E+02 0.  0.
         12    1    1    2    0    0 -0.35626548226E+02  0.14755694678E+02 -0.19915872959E+02  0.43400731096E+02  0.00000000000E+00 0. -1.
         11    1    3    3    0    0  0.64583090391E+01 -0.17659075871E+01 -0.29539098894E+01  0.73180440793E+01  0.51100000000E-03 0. -1.
        -11    1    3    3    0    0  0.89635687116E+01  0.65937567044E+00  0.67352399243E+01  0.11231375580E+02  0.51100000000E-03 0.  1.
        -12    1    3    3    0    0  0.20204670475E+02 -0.13649162761E+02  0.16134542924E+02  0.29237849245E+02  0.00000000000E+00 0.  1.
</event>
<event>
 7    1  0.2387817E-009  0.4778727E+02  0.7816164E-02  0.1312668E+00
        -11   -1    0    0    0    0  0.00000000000E+00  0.00000000000E+00  0.45593999997E+02  0.45594000000E+02  0.51100000000E-03 0.  1.
         11   -1    0    0    0    0 -0.00000000000E+00 -0.00000000000E+00 -0.45593999997E+02  0.45594000000E+02  0.51100000000E-03 0. -1.
    9900012    2    1    2    0    0  0.19121217913E+02  0.37150376796E+02  0.11741045039E+02  0.47787267181E+02  0.19999982387E+02 0.  0.
         12    1    1    2    0    0 -0.19121217913E+02 -0.37150376796E+02 -0.11741045039E+02  0.43400732819E+02  0.00000000000E+00 0. -1.
         11    1    3    3    0    0  0.10319631193E+02  0.75689114158E+01  0.10028098757E+02  0.16258719904E+02  0.51100000000E-03 0. -1.
        -11    1    3    3    0    0  0.60273236727E+01  0.10019019405E+02  0.13189477024E+01  0.11766435475E+02  0.51100000000E-03 0.  1.
         12    1    3    3    0    0  0.27742630479E+01  0.19562445976E+02  0.39399857950E+00  0.19762111803E+02  0.00000000000E+00 0. -1.
</event>
<event>
 7    1  0.2387817E-009  0.4778727E+02  0.7816164E-02  0.1312668E+00
        -11   -1    0    0    0    0  0.00000000000E+00  0.00000000000E+00  0.45593999997E+02  0.45594000000E+02  0.51100000000E-03 0.  1.
         11   -1    0    0    0    0 -0.00000000000E+00 -0.00000000000E+00 -0.45593999997E+02  0.45594000000E+02  0.51100000000E-03 0. -1.
    9900012    2    1    2    0    0  0.10518011600E+02  0.42302723433E+01  0.41893906133E+02  0.47787272550E+02  0.20000006865E+02 0.  0.
         12    1    1    2    0    0 -0.10518011600E+02 -0.42302723433E+01 -0.41893906133E+02  0.43400727450E+02  0.00000000000E+00 0. -1.
         11    1    3    3    0    0  0.46870193712E+01 -0.78186151876E+01  0.15314440793E+02  0.17822205001E+02  0.51100000000E-03 0. -1.
        -11    1    3    3    0    0  0.84917623550E+00  0.17479195008E+01  0.72196338182E+01  0.74765925119E+01  0.51100000000E-03 0.  1.
         12    1    3    3    0    0  0.49818159937E+01  0.10300968030E+02  0.19359831522E+02  0.22488475037E+02  0.00000000000E+00 0. -1.
</event>
<event>
 7    1  0.2387817E-009  0.4778727E+02  0.7816164E-02  0.1312668E+00
        -11   -1    0    0    0    0  0.00000000000E+00  0.00000000000E+00  0.45593999997E+02  0.45594000000E+02  0.51100000000E-03 0.  1.
         11   -1    0    0    0    0 -0.00000000000E+00 -0.00000000000E+00 -0.45593999997E+02  0.45594000000E+02  0.51100000000E-03 0. -1.
    9900012    2    1    2    0    0  0.29714151952E+02  0.18945301493E+02  0.25333140641E+02  0.47787270863E+02  0.19999999172E+02 0.  0.
         12    1    1    2    0    0 -0.29714151952E+02 -0.18945301493E+02 -0.25333140641E+02  0.43400729137E+02  0.00000000000E+00 0. -1.
         11    1    3    3    0    0  0.93975237550E+00 -0.94871849672E+00 -0.84032574940E+00  0.15777670739E+01  0.51100000000E-03 0. -1.
        -11    1    3    3    0    0  0.29812882196E+02  0.16280705527E+02  0.25285446356E+02  0.42346465200E+02  0.51100000000E-03 0.  1.
        -12    1    3    3    0    0 -0.10384826193E+01  0.36133144623E+01  0.88802003520E+00  0.38630385886E+01  0.00000000000E+00 0.  1.
</event>
<event>
 7    1  0.2387817E-009  0.4778727E+02  0.7816164E-02  0.1312668E+00
        -11   -1    0    0    0    0  0.00000000000E+00  0.00000000000E+00  0.45593999997E+02  0.45594000000E+02  0.51100000000E-03 0.  1.
         11   -1    0    0    0    0 -0.00000000000E+00 -0.00000000000E+00 -0.45593999997E+02  0.45594000000E+02  0.51100000000E-03 0. -1.
    9900012    2    1    2    0    0 -0.34604128663E+02  0.25114185140E+02 -0.74468314916E+01  0.47787270571E+02  0.19999997841E+02 0.  0.
         12    1    1    2    0    0  0.34604128663E+02 -0.25114185140E+02  0.74468314916E+01  0.43400729429E+02  0.00000000000E+00 0. -1.
         11    1    3    3    0    0  0.32310010696E+00  0.74495551227E+00  0.15814513044E+00  0.82726207322E+00  0.51100000000E-03 0. -1.
        -11    1    3    3    0    0 -0.19594668154E+02  0.27097145057E+01 -0.25359941350E+01  0.19943039871E+02  0.51100000000E-03 0.  1.
        -12    1    3    3    0    0 -0.15332560615E+02  0.21659515122E+02 -0.50689824870E+01  0.27016968627E+02  0.00000000000E+00 0.  1.
</event>
<event>
 7    1  0.2387817E-009  0.4778727E+02  0.7816164E-02  0.1312668E+00
        -11   -1    0    0    0    0  0.00000000000E+00  0.00000000000E+00  0.45593999997E+02  0.45594000000E+02  0.51100000000E-03 0.  1.
         11   -1    0    0    0    0 -0.00000000000E+00 -0.00000000000E+00 -0.45593999997E+02  0.45594000000E+02  0.51100000000E-03 0. -1.
    9900012    2    1    2    0    0 -0.16411077965E+01 -0.28457712848E+02  0.32727490222E+02  0.47787271071E+02  0.20000000121E+02 0.  0.
         12    1    1    2    0    0  0.16411077965E+01  0.28457712848E+02 -0.32727490222E+02  0.43400728929E+02  0.00000000000E+00 0. -1.
         11    1    3    3    0    0  0.36626250757E-01 -0.64517048462E+01 -0.12813586407E+00  0.64530811219E+01  0.51100000000E-03 0. -1.
        -11    1    3    3    0    0 -0.38795854192E+00 -0.17622217975E+02  0.15781025095E+02  0.23658694628E+02  0.51100000000E-03 0.  1.
         12    1    3    3    0    0 -0.12897755053E+01 -0.43837900270E+01  0.17074600991E+02  0.17675495321E+02  0.00000000000E+00 0. -1.
</event>
<event>
 7    1  0.2387817E-009  0.4778728E+02  0.7816164E-02  0.1312668E+00
        -11   -1    0    0    0    0  0.00000000000E+00  0.00000000000E+00  0.45593999997E+02  0.45594000000E+02  0.51100000000E-03 0.  1.
         11   -1    0    0    0    0 -0.00000000000E+00 -0.00000000000E+00 -0.45593999997E+02  0.45594000000E+02  0.51100000000E-03 0. -1.
    9900012    2    1    2    0    0 -0.89169196541E+01  0.32818858146E+02  0.26963563089E+02  0.47787278341E+02  0.20000033267E+02 0.  0.
         12    1    1    2    0    0  0.89169196541E+01 -0.32818858146E+02 -0.26963563089E+02  0.43400721659E+02  0.00000000000E+00 0. -1.
         11    1    3    3    0    0 -0.78445581281E+01  0.10360061135E+02  0.15840703303E+02  0.20488919941E+02  0.51100000000E-03 0.  1.
        -11    1    3    3    0    0 -0.36746973018E+01  0.98272283263E+01  0.35582267492E+00  0.10497829627E+02  0.51100000000E-03 0. -1.
        -12    1    3    3    0    0  0.26023357759E+01  0.12631568684E+02  0.10767037111E+02  0.16800528773E+02  0.00000000000E+00 0.  1.
</event>
<event>
 7    1  0.2387817E-009  0.4778727E+02  0.7816164E-02  0.1312668E+00
        -11   -1    0    0    0    0  0.00000000000E+00  0.00000000000E+00  0.45593999997E+02  0.45594000000E+02  0.51100000000E-03 0.  1.
         11   -1    0    0    0    0 -0.00000000000E+00 -0.00000000000E+00 -0.45593999997E+02  0.45594000000E+02  0.51100000000E-03 0. -1.
    9900012    2    1    2    0    0 -0.23313080218E+02 -0.44896865520E+01  0.36331336674E+02  0.47787273979E+02  0.20000013380E+02 0.  0.
         12    1    1    2    0    0  0.23313080218E+02  0.44896865520E+01 -0.36331336674E+02  0.43400726021E+02  0.00000000000E+00 0. -1.
         11    1    3    3    0    0 -0.70515986877E+01  0.43098628386E+01  0.43132459166E+01  0.93222342997E+01  0.51100000000E-03 0. -1.
        -11    1    3    3    0    0 -0.83452509367E+01  0.60055827871E+00  0.17823739435E+02  0.19689834208E+02  0.51100000000E-03 0.  1.
        -12    1    3    3    0    0 -0.79162305937E+01 -0.94001076693E+01  0.14194351323E+02  0.18775205471E+02  0.00000000000E+00 0.  1.
</event>
<event>
 7    1  0.2387817E-009  0.4778727E+02  0.7816164E-02  0.1312668E+00
        -11   -1    0    0    0    0  0.00000000000E+00  0.00000000000E+00  0.45593999997E+02  0.45594000000E+02  0.51100000000E-03 0.  1.
         11   -1    0    0    0    0 -0.00000000000E+00 -0.00000000000E+00 -0.45593999997E+02  0.45594000000E+02  0.51100000000E-03 0. -1.
    9900012    2    1    2    0    0 -0.12747726928E+02  0.13317419527E+02  0.39290777010E+02  0.47787270020E+02  0.19999995331E+02 0.  0.
         12    1    1    2    0    0  0.12747726928E+02 -0.13317419527E+02 -0.39290777010E+02  0.43400729980E+02  0.00000000000E+00 0. -1.
         11    1    3    3    0    0 -0.31707367010E+01 -0.93131748380E+00  0.38818974723E+01  0.50980439121E+01  0.51100000000E-03 0. -1.
        -11    1    3    3    0    0 -0.13887379335E+02  0.10262532586E+02  0.30444397735E+02  0.35000574760E+02  0.51100000000E-03 0.  1.
         12    1    3    3    0    0  0.43103891075E+01  0.39862044246E+01  0.49644818033E+01  0.76886513479E+01  0.00000000000E+00 0. -1.
</event>
<event>
 7    1  0.2387817E-009  0.4778727E+02  0.7816164E-02  0.1312668E+00
        -11   -1    0    0    0    0  0.00000000000E+00  0.00000000000E+00  0.45593999997E+02  0.45594000000E+02  0.51100000000E-03 0. -1.
         11   -1    0    0    0    0 -0.00000000000E+00 -0.00000000000E+00 -0.45593999997E+02  0.45594000000E+02  0.51100000000E-03 0.  1.
    9900012    2    1    2    0    0  0.35579198621E+01 -0.28709051226E+02 -0.32353585944E+02  0.47787274897E+02  0.20000017564E+02 0.  0.
         12    1    1    2    0    0 -0.35579198621E+01  0.28709051226E+02  0.32353585944E+02  0.43400725103E+02  0.00000000000E+00 0. -1.
         11    1    3    3    0    0 -0.21032014578E+00 -0.14500711290E+02 -0.19929284801E+02  0.24647337694E+02  0.51100000000E-03 0.  1.
        -11    1    3    3    0    0  0.69405945373E+00 -0.32412288932E+01  0.26518897220E+01  0.42449738070E+01  0.51100000000E-03 0. -1.
         12    1    3    3    0    0  0.30741805542E+01 -0.10967111043E+02 -0.15076190866E+02  0.18894963396E+02  0.00000000000E+00 0. -1.
</event>
<event>
 7    1  0.2387817E-009  0.4778727E+02  0.7816164E-02  0.1312668E+00
        -11   -1    0    0    0    0  0.00000000000E+00  0.00000000000E+00  0.45593999997E+02  0.45594000000E+02  0.51100000000E-03 0. -1.
         11   -1    0    0    0    0 -0.00000000000E+00 -0.00000000000E+00 -0.45593999997E+02  0.45594000000E+02  0.51100000000E-03 0.  1.
    9900012    2    1    2    0    0 -0.21075107651E+02  0.32662797347E+01 -0.37799401513E+02  0.47787268433E+02  0.19999988096E+02 0.  0.
         12    1    1    2    0    0  0.21075107651E+02 -0.32662797347E+01  0.37799401513E+02  0.43400731567E+02  0.00000000000E+00 0. -1.
         11    1    3    3    0    0 -0.92153902069E+00 -0.41374550841E+01 -0.35415433684E+01  0.55236128061E+01  0.51100000000E-03 0. -1.
        -11    1    3    3    0    0 -0.35604598894E+00  0.47504910332E+01 -0.60730745580E+01  0.77185600115E+01  0.51100000000E-03 0.  1.
        -12    1    3    3    0    0 -0.19797522641E+02  0.26532437856E+01 -0.28184783586E+02  0.34545095616E+02  0.00000000000E+00 0.  1.
</event>
<event>
 7    1  0.2387817E-009  0.4778726E+02  0.7816164E-02  0.1312668E+00
        -11   -1    0    0    0    0  0.00000000000E+00  0.00000000000E+00  0.45593999997E+02  0.45594000000E+02  0.51100000000E-03 0. -1.
         11   -1    0    0    0    0 -0.00000000000E+00 -0.00000000000E+00 -0.45593999997E+02  0.45594000000E+02  0.51100000000E-03 0.  1.
    9900012    2    1    2    0    0  0.10645947642E+02 -0.40990912899E+02 -0.94885734065E+01  0.47787260758E+02  0.19999953098E+02 0.  0.
         12    1    1    2    0    0 -0.10645947642E+02  0.40990912899E+02  0.94885734065E+01  0.43400739242E+02  0.00000000000E+00 0. -1.
         11    1    3    3    0    0 -0.35630382833E+01 -0.27996374438E+01 -0.14096258672E+00  0.45335507428E+01  0.51100000000E-03 0.  1.
        -11    1    3    3    0    0 -0.17966477906E+01 -0.51346338644E+01 -0.20158606908E+01  0.58013880055E+01  0.51100000000E-03 0. -1.
        -12    1    3    3    0    0  0.16005633716E+02 -0.33056641591E+02 -0.73317501290E+01  0.37452322009E+02  0.00000000000E+00 0.  1.
</event>
<event>
 7    1  0.2387817E-009  0.4778728E+02  0.7816164E-02  0.1312668E+00
        -11   -1    0    0    0    0  0.00000000000E+00  0.00000000000E+00  0.45593999997E+02  0.45594000000E+02  0.51100000000E-03 0. -1.
         11   -1    0    0    0    0 -0.00000000000E+00 -0.00000000000E+00 -0.45593999997E+02  0.45594000000E+02  0.51100000000E-03 0.  1.
    9900012    2    1    2    0    0  0.29363941041E+02 -0.15570973861E+02 -0.27909251347E+02  0.47787279140E+02  0.20000036911E+02 0.  0.
         12    1    1    2    0    0 -0.29363941041E+02  0.15570973861E+02  0.27909251347E+02  0.43400720860E+02  0.00000000000E+00 0. -1.
         11    1    3    3    0    0  0.63947961378E+01 -0.68346573133E+01 -0.31866377984E+01  0.98873969757E+01  0.51100000000E-03 0. -1.
        -11    1    3    3    0    0  0.24985075568E+01 -0.36148410074E+01  0.11216784500E+01  0.45351712566E+01  0.51100000000E-03 0.  1.
        -12    1    3    3    0    0  0.20470637346E+02 -0.51214755405E+01 -0.25844291998E+02  0.33364710908E+02  0.00000000000E+00 0.  1.
</event>
